FOO
138240
    1MOL0     O    1   7.416   8.149   5.912 -0.3363  0.1684  0.6037
    1MOL0     C    2   7.299   8.143   5.940  0.2384 -0.4789  0.1157
    1MOL0     O    3   7.226   8.251   5.974  0.3425  0.1577 -0.0031
    1MOL0     C    4   7.263   8.382   5.954  0.4445  0.0911  0.0187
    1MOL0     C    5   7.235   8.482   6.049 -0.3288  0.3094  0.1340
    1MOL0     C    6   7.267   8.615   6.023 -0.2224  0.4636 -0.7423
    1MOL0     C    7   7.325   8.652   5.903  0.9343 -0.9368  0.0391
    1MOL0     O    8   7.336   8.786   5.889 -1.0621 -0.3210 -0.6935
    1MOL0     C    9   7.311   8.845   5.759 -0.4078 -0.5854 -0.1140
    1MOL0     C   10   7.442   8.906   5.701  0.3700  0.4687 -0.1491
    1MOL0     C   11   7.427   9.000   5.583 -0.2016 -0.3197  1.0979
    1MOL0     C   12   7.345   9.121   5.612  0.5093 -0.4683 -0.0202
    1MOL0     C   13   7.373   9.222   5.494  0.5545 -0.4561  0.6297
    1MOL0     C   14   7.282   9.340   5.492  0.9864 -1.0190 -0.4035
    1MOL0     C   15   7.323   9.462   5.408  0.4691 -0.1444  0.1642
    1MOL0     C   16   7.456   9.519   5.442 -0.4896  0.2642  0.1844
    1MOL0     N   17   7.472   9.641   5.374 -0.7387 -0.3212 -0.1518
    1MOL0     C   18   7.488   9.769   5.430  0.1693 -0.5156 -0.3220
    1MOL0     C   19   7.541   9.836   5.323 -0.1846  0.0748 -0.7495
    1MOL0     C   20   7.601   9.974   5.325  1.3304  0.5155 -0.2339
    1MOL0     C   21   7.757   9.976   5.284  0.1438 -0.4307 -0.6236
    1MOL0     C   22   7.844   9.872   5.344 -0.3702 -0.1088 -0.5157
    1MOL0     C   23   7.850   9.899   5.499  0.6010 -0.3658  1.1638
    1MOL0     O   24   7.811   9.789   5.585  0.2987  0.6983  0.1187
    1MOL0     C   25   7.873   9.668   5.600  0.2595 -1.0386  0.1064
    1MOL0     C   26   7.812   9.577   5.681  0.8065 -0.2160  0.9939
    1MOL0     C   27   7.846   9.448   5.701 -0.4321  0.7686 -0.1346
    1MOL0     C   28   7.755   9.375   5.802  0.4361  0.0813 -0.6763
    1MOL0     C   29   7.940   9.396   5.613  0.0614 -0.5880  0.3065
    1MOL0     C   30   8.001   9.259   5.633  0.6916 -0.3665  0.9908
    1MOL0     O   31   7.914   9.150   5.641  0.0704 -0.2221  1.1207
    1MOL0     C   32   7.931   9.026   5.569  0.0772 -0.9467 -0.4948
    1MOL0     C   33   7.996   9.007   5.452  0.3122 -0.3044  0.1206
    1MOL0     C   34   8.015   8.873   5.404  0.4602  0.2482  0.0353
    1MOL0     C   35   7.945   8.763   5.457  0.1771  0.4053 -0.0450
    1MOL0     O   36   7.957   8.641   5.396  0.7781  0.2505 -0.5824
    1MOL0     C   37   7.897   8.615   5.264 -0.4803 -0.8767  0.0526
    1MOL0     C   38   7.900   8.467   5.230 -0.2221  0.0748  0.2258
    1MOL0     C   39   7.856   8.436   5.088 -0.5558 -0.8176  0.1641
    1MOL0     C   40   7.891   8.285   5.073 -0.3709  0.2163  0.1454
    1MOL0     C   41   7.846   8.241   4.935  1.1462 -0.2276 -0.8774
    1MOL0     C   42   7.911   8.300   4.810  0.1000 -0.1001 -0.3072
    1MOL0     C   43   7.877   8.219   4.683  1.1396 -0.6432 -0.3286
    1MOL0     C   44   7.937   8.083   4.669 -0.7064 -0.0017 -0.3352
    1MOL0    Cl   45   8.100   8.078   4.588  0.0368 -0.2239  0.8478
    1MOL0     C   46   7.864   8.792   5.565  0.6210 -0.1268 -1.0711
    1MOL0     C   47   7.866   8.918   5.622  0.3074  0.4453  0.4581
    1MOL0     O   48   8.121   9.246   5.632  0.0251 -0.0833  0.1881
    1MOL0     C   49   8.010   9.484   5.527  0.5918  0.8207 -0.5653
    1MOL0     C   50   7.972   9.621   5.516 -0.5029  0.1401  0.0016
    1MOL0     N   51   7.542   9.757   5.210 -0.7386 -0.4651 -0.5763
    1MOL0     N   52   7.494   9.641   5.245 -0.0210  0.8864 -0.0695
    1MOL0     C   53   7.361   8.553   5.811  0.1844  0.2608  0.2746
    1MOL0     C   54   7.332   8.414   5.834 -0.7486 -1.8052 -0.1849
    1MOL0     C   55   7.233   8.004   5.934  0.2254 -0.2563 -1.9944
    1MOL0     C   56   7.093   7.988   5.955  0.1692 -0.2992  0.1531
    1MOL0     C   57   7.035   7.861   5.942  0.1459 -0.6241  0.4892
    1MOL0     C   58   7.103   7.744   5.909 -0.6947  0.9694  1.4755
    1MOL0     O   59   7.043   7.622   5.896  0.5585 -0.3889  0.0863
    1MOL0     C   60   6.902   7.613   5.884  0.1459 -0.0379 -0.0494
    1MOL0     C   61   6.845   7.588   6.018 -0.1094 -0.1103  0.8538
    1MOL0     C   62   6.906   7.449   6.086 -1.2556 -0.3899  0.1911
    1MOL0     C   63   6.807   7.339   6.111  0.4935  0.2789 -0.0967
    1MOL0     C   64   6.778   7.273   5.985  0.5323 -0.1198  1.2319
    1MOL0     C   65   6.739   7.200   5.891 -0.5074  0.1572  0.1361
    1MOL0     C   66   7.237   7.762   5.901  0.3778  0.4007  0.4671
    1MOL0     C   67   7.303   7.890   5.902  0.0414 -0.6803  0.4246
    1MOL0     H   68   7.194   8.447   6.143  1.4134 -1.6077  0.2383
    1MOL0     H   69   7.227   8.695   6.084 -1.2486 -0.5658 -0.0253
    1MOL0     H   70   7.272   8.776   5.683  1.5318 -0.4860 -1.2840
    1MOL0     H   71   7.240   8.926   5.774  0.2280  0.3385 -1.7991
    1MOL0     H   72   7.487   8.967   5.779  1.9404 -1.9701  0.9817
    1MOL0     H   73   7.515   8.826   5.685 -0.4180 -0.4453  0.6365
    1MOL0     H   74   7.528   9.029   5.554 -0.1968 -1.3036  0.0603
    1MOL0     H   75   7.384   8.962   5.490  0.0261 -0.2617  0.9701
    1MOL0     H   76   7.237   9.104   5.619  0.7118 -1.2288  1.7714
    1MOL0     H   77   7.371   9.166   5.707  0.1699  0.5423 -0.3971
    1MOL0     H   78   7.477   9.256   5.495  0.2738  0.5709 -1.2049
    1MOL0     H   79   7.353   9.170   5.400  0.0999  1.5420 -0.4363
    1MOL0     H   80   7.177   9.308   5.484  0.5581  0.0589  0.4878
    1MOL0     H   81   7.277   9.381   5.593 -0.1444 -0.0390 -0.8351
    1MOL0     H   82   7.327   9.425   5.305  1.9759  0.9246 -0.1922
    1MOL0     H   83   7.244   9.538   5.403 -1.4083 -1.7894  2.8328
    1MOL0     H   84   7.539   9.450   5.421  1.4096  1.9028  1.8237
    1MOL0     H   85   7.475   9.543   5.548  0.1210  1.0336 -0.0843
    1MOL0     H   86   7.474   9.797   5.534 -0.2570  1.1848 -0.8010
    1MOL0     H   87   7.546  10.041   5.258 -0.0177 -1.1479 -0.8704
    1MOL0     H   88   7.586  10.009   5.427  2.9751  2.9385 -0.7419
    1MOL0     H   89   7.796  10.078   5.296 -1.7139  0.3373 -0.8159
    1MOL0     H   90   7.766   9.962   5.176 -0.0021  3.5063 -1.2839
    1MOL0     H   91   7.934   9.889   5.284  0.1800  2.7485  0.9567
    1MOL0     H   92   7.805   9.771   5.325 -2.2925  0.2148  1.3257
    1MOL0     H   93   7.796   9.988   5.531  2.2084  1.2461 -0.3882
    1MOL0     H   94   7.955   9.916   5.526  1.5706 -3.7624 -0.0157
    1MOL0     H   95   7.717   9.612   5.719 -0.5603  3.9556 -4.9741
    1MOL0     H   96   7.705   9.299   5.742 -0.1847  0.0599 -0.1406
    1MOL0     H   97   7.825   9.326   5.870 -1.2005 -0.9438  0.3018
    1MOL0     H   98   7.680   9.435   5.852 -0.1172 -1.7247  0.7568
    1MOL0     H   99   8.038   9.100   5.415  0.5396 -0.4766 -0.0588
    1MOL0     H  100   8.074   8.841   5.318 -0.3388 -1.9335  0.2364
    1MOL0     H  101   7.795   8.656   5.266 -0.1294  0.0187  2.0429
    1MOL0     H  102   7.951   8.674   5.190 -1.1573  0.5079  0.6116
    1MOL0     H  103   8.005   8.439   5.241 -0.1337 -0.8091 -2.3424
    1MOL0     H  104   7.843   8.409   5.303  1.9118 -1.8871  0.4605
    1MOL0     H  105   7.906   8.497   5.013 -4.9056 -0.9427 -3.2880
    1MOL0     H  106   7.750   8.456   5.070 -0.5774 -1.8285 -1.0390
    1MOL0     H  107   7.993   8.250   5.089  0.3434  2.5868  1.2012
    1MOL0     H  108   7.831   8.223   5.141 -1.4851 -0.2607 -1.2295
    1MOL0     H  109   7.737   8.247   4.928  0.5984 -1.1260  3.8992
    1MOL0     H  110   7.867   8.133   4.937 -0.1142 -0.4768 -0.5796
    1MOL0     H  111   7.883   8.405   4.795  0.3234  0.7064  3.7772
    1MOL0     H  112   8.019   8.295   4.822  0.4596  3.3224 -1.2039
    1MOL0     H  113   7.889   8.284   4.595  1.8645 -2.5372 -1.7027
    1MOL0     H  114   7.768   8.205   4.688  1.0113  0.6917  1.6294
    1MOL0     H  115   7.870   8.022   4.608 -0.7273 -2.4497  1.9762
    1MOL0     H  116   7.942   8.030   4.765 -2.0852  1.9674  0.9036
    1MOL0     H  117   7.812   8.703   5.599 -1.4385  1.2995 -0.3312
    1MOL0     H  118   7.808   8.929   5.714 -0.7454  1.0654 -0.2655
    1MOL0     H  119   8.094   9.440   5.475  0.0135  0.7697 -1.4691
    1MOL0     H  120   8.018   9.690   5.447 -1.1481  1.8865  1.2373
    1MOL0     H  121   7.431   8.576   5.731  0.6155 -1.3413  0.1623
    1MOL0     H  122   7.362   8.333   5.770  2.4948 -1.2750  0.5036
    1MOL0     H  123   7.033   8.075   5.979  0.4758 -0.7043  2.7228
    1MOL0     H  124   6.928   7.869   5.962  0.3131  0.3746  1.0596
    1MOL0     H  125   6.861   7.707   5.846 -1.4658  0.8221  3.4594
    1MOL0     H  126   6.875   7.538   5.808 -1.9938 -0.4561  1.0467
    1MOL0     H  127   6.736   7.580   6.019 -0.3174  1.0241 -2.1239
    1MOL0     H  128   6.862   7.672   6.086 -1.4443 -0.8971  2.2253
    1MOL0     H  129   6.940   7.473   6.188  3.1395 -0.3939 -1.0663
    1MOL0     H  130   6.981   7.395   6.028 -0.5749 -1.0676  1.6326
    1MOL0     H  131   6.718   7.382   6.157  0.9571  5.2459 -3.1328
    1MOL0     H  132   6.850   7.256   6.168 -3.0545 -2.1667 -0.6252
    1MOL0     H  133   6.730   7.130   5.810  2.9770  0.8371 -1.0338
    1MOL0     H  134   7.307   7.678   5.903  0.8855  0.8258  1.4668
    1MOL0     H  135   7.411   7.899   5.893  0.4668 -1.9242  3.1144
    2MOL0     O  136   0.206   8.459   3.211  0.5424  0.8214  0.1843
    2MOL0     C  137   0.100   8.434   3.269 -0.9352 -0.0569 -0.0351
    2MOL0     O  138  -0.033   8.446   3.213  0.8686  0.4127 -0.2414
    2MOL0     C  139  -0.040   8.498   3.094  0.5616 -0.1657 -0.5956
    2MOL0     C  140  -0.033   8.414   2.988  0.1558 -0.5428  1.3090
    2MOL0     C  141  -0.022   8.454   2.860 -0.6120  0.3592 -0.3747
    2MOL0     C  142   0.004   8.593   2.844  0.3658 -0.1316  0.9714
    2MOL0     O  143   0.022   8.643   2.720 -1.2482  0.6920  0.7498
    2MOL0     C  144  -0.097   8.635   2.635 -0.2970 -1.2541  0.1532
    2MOL0     C  145  -0.061   8.719   2.520 -0.7425 -0.4279  0.6390
    2MOL0     C  146  -0.171   8.718   2.411  0.1154  0.6848  0.2931
    2MOL0     C  147  -0.305   8.759   2.463 -0.2324  0.1927  0.6158
    2MOL0     C  148  -0.397   8.778   2.344 -0.0484 -0.3461 -0.1569
    2MOL0     C  149  -0.546   8.812   2.378 -0.2588 -0.7262 -0.0297
    2MOL0     C  150  -0.635   8.810   2.259 -0.9427 -0.8945 -1.4361
    2MOL0     C  151  -0.782   8.828   2.304 -1.0248 -0.2128 -0.8121
    2MOL0     N  152  -0.815   8.951   2.378  0.2520  0.0958  0.1969
    2MOL0     C  153  -0.790   9.083   2.333  0.5166  0.4104  0.0519
    2MOL0     C  154  -0.817   9.161   2.437  0.5934  0.9507 -0.2389
    2MOL0     C  155  -0.809   9.308   2.444 -1.3529 -0.7109  0.1268
    2MOL0     C  156  -0.924   9.384   2.396 -0.0885 -0.0576  0.4526
    2MOL0     C  157  -0.928   9.529   2.455  0.6005  0.4757  0.0506
    2MOL0     C  158  -0.789   9.594   2.462  0.6115  0.2523 -0.2430
    2MOL0     O  159  -0.832   9.726   2.510  1.1801  0.0576  0.4596
    2MOL0     C  160  -0.766   9.841   2.466 -0.7000  0.6094  1.2729
    2MOL0     C  161  -0.839   9.955   2.453  0.4285 -0.3979 -0.3131
    2MOL0     C  162  -0.776  10.076   2.419 -0.2174 -0.5572  0.1112
    2MOL0     C  163  -0.873  10.197   2.413 -0.0078 -1.3026  0.0383
    2MOL0     C  164  -0.639  10.079   2.371  0.3528 -0.0107 -0.1527
    2MOL0     C  165  -0.574  10.204   2.326  0.7951 -0.5067  0.5787
    2MOL0     O  166  -0.474  10.180   2.244  0.8533 -0.6017  0.1095
    2MOL0     C  167  -0.379  10.279   2.227  0.2021  0.6073 -0.3699
    2MOL0     C  168  -0.412  10.407   2.180 -0.1123 -0.0779 -0.0126
    2MOL0     C  169  -0.306  10.500   2.167 -0.3937  0.2711 -0.2131
    2MOL0     C  170  -0.178  10.468   2.199 -0.1938 -0.3586  0.0740
    2MOL0     O  171  -0.073  10.548   2.172 -0.5206  0.4008 -0.0640
    2MOL0     C  172   0.040  10.498   2.094  0.6431  0.0265  0.4675
    2MOL0     C  173   0.111  10.615   2.026 -0.2844  0.2963 -0.7675
    2MOL0     C  174   0.028  10.675   1.919  0.2999 -0.0996  0.2335
    2MOL0     C  175   0.052  10.594   1.795  0.0526 -0.1692  0.1215
    2MOL0     C  176  -0.054  10.629   1.696  0.2157 -0.7662 -0.1947
    2MOL0     C  177  -0.054  10.529   1.587 -0.7192  0.4665 -0.2925
    2MOL0     C  178   0.079  10.540   1.504 -0.2033 -0.0503 -0.4637
    2MOL0     C  179   0.117  10.413   1.427  0.3311  0.2794  0.1095
    2MOL0    Cl  180   0.281  10.382   1.384  0.1757 -0.3606 -0.2880
    2MOL0     C  181  -0.142  10.344   2.231  0.6139  0.7236 -0.0408
    2MOL0     C  182  -0.247  10.252   2.248  0.3422  0.6830  1.1400
    2MOL0     O  183  -0.623  10.312   2.349  0.2387  0.3754 -0.0004
    2MOL0     C  184  -0.570   9.953   2.377  0.5734 -0.6144 -0.1045
    2MOL0     C  185  -0.634   9.840   2.423 -0.0024  0.4868 -0.0771
    2MOL0     N  186  -0.865   9.080   2.543  0.2909  0.6121 -0.2414
    2MOL0     N  187  -0.868   8.959   2.502  0.5181  0.2887  0.3409
    2MOL0     C  188  -0.005   8.684   2.943  1.4718  0.1461 -0.7706
    2MOL0     C  189  -0.023   8.634   3.074  0.1300 -1.3077 -0.0767
    2MOL0     C  190   0.114   8.387   3.406  0.6714  0.9295 -0.0370
    2MOL0     C  191  -0.005   8.353   3.477 -0.5246 -0.2985 -0.3595
    2MOL0     C  192  -0.003   8.300   3.605 -0.4537  0.3480 -0.0889
    2MOL0     C  193   0.117   8.289   3.674  0.2193 -0.3086  0.4849
    2MOL0     O  194   0.125   8.243   3.800 -0.6587  0.6907 -0.0092
    2MOL0     C  195   0.121   8.097   3.803  0.9402  1.7436  0.2481
    2MOL0     C  196   0.256   8.030   3.829 -0.1427 -0.1352  0.0476
    2MOL0     C  197   0.309   8.065   3.974 -0.1579 -0.1212 -0.1613
    2MOL0     C  198   0.270   7.940   4.067 -0.9212  0.2792 -0.1310
    2MOL0     C  199   0.346   7.824   4.030 -0.5740  0.2449 -1.0294
    2MOL0     C  200   0.403   7.728   3.986 -0.4861 -0.2267  0.3648
    2MOL0     C  201   0.239   8.322   3.605  0.6468 -0.9318 -0.0715
    2MOL0     C  202   0.233   8.379   3.474  0.4582 -0.0959  0.9283
    2MOL0     H  203  -0.039   8.310   3.019 -1.0157 -0.4713  1.3643
    2MOL0     H  204  -0.023   8.382   2.778 -0.4266  3.0414 -2.8656
    2MOL0     H  205  -0.112   8.535   2.593 -3.1175 -0.8778  0.0812
    2MOL0     H  206  -0.185   8.683   2.681  0.2143 -0.0916 -0.0356
    2MOL0     H  207  -0.054   8.826   2.543 -3.8328 -0.6038  3.0169
    2MOL0     H  208   0.037   8.690   2.480 -1.0963 -1.3359  0.4250
    2MOL0     H  209  -0.148   8.776   2.322 -2.3391  0.6061 -0.4651
    2MOL0     H  210  -0.185   8.613   2.383  2.3731 -1.1677  5.0199
    2MOL0     H  211  -0.341   8.678   2.529 -2.3842  0.3580 -0.2863
    2MOL0     H  212  -0.302   8.851   2.522 -1.5235  0.5391  0.1835
    2MOL0     H  213  -0.356   8.861   2.286 -0.9642  1.9973  2.3436
    2MOL0     H  214  -0.392   8.695   2.274  2.0014  0.2186 -0.7617
    2MOL0     H  215  -0.574   8.735   2.449 -1.8053 -0.8909 -0.7833
    2MOL0     H  216  -0.548   8.908   2.430  2.8658 -1.5754  1.9617
    2MOL0     H  217  -0.622   8.890   2.185  1.2696 -0.6155 -0.8352
    2MOL0     H  218  -0.636   8.712   2.210  1.9734 -1.4970 -0.5194
    2MOL0     H  219  -0.808   8.742   2.366  1.9035 -0.0012  0.9457
    2MOL0     H  220  -0.849   8.819   2.219  0.3208 -4.0107 -1.6655
    2MOL0     H  221  -0.764   9.121   2.235 -3.0688 -1.5562 -1.8436
    2MOL0     H  222  -0.793   9.346   2.545  0.6584  3.0270 -1.4117
    2MOL0     H  223  -0.726   9.350   2.387  0.1037  0.4826  2.9459
    2MOL0     H  224  -1.024   9.343   2.412 -1.6807  3.7393  1.2804
    2MOL0     H  225  -0.909   9.379   2.288 -1.4643 -3.0594  0.2926
    2MOL0     H  226  -0.979   9.521   2.552  0.6373 -1.3402 -0.0364
    2MOL0     H  227  -0.986   9.596   2.391  0.7088  1.0465  0.5392
    2MOL0     H  228  -0.721   9.584   2.378  0.4594 -0.8268 -0.2590
    2MOL0     H  229  -0.739   9.561   2.554  4.6367  1.8728 -1.6302
    2MOL0     H  230  -0.946   9.952   2.469  0.1893 -0.4612 -1.7944
    2MOL0     H  231  -0.876  10.238   2.311  0.5940 -1.7371 -0.1576
    2MOL0     H  232  -0.976  10.171   2.438 -0.7255  1.1711 -0.0534
    2MOL0     H  233  -0.854  10.277   2.486 -2.7035 -0.9446  0.4515
    2MOL0     H  234  -0.508  10.457   2.171 -1.3459 -2.1748  0.8729
    2MOL0     H  235  -0.326  10.602   2.138  0.5407 -0.1843 -2.7255
    2MOL0     H  236   0.117  10.439   2.144 -0.2448 -2.8798 -1.3179
    2MOL0     H  237  -0.001  10.426   2.023 -1.0333 -0.8373  2.1947
    2MOL0     H  238   0.139  10.690   2.100  1.6472  0.7195 -1.8692
    2MOL0     H  239   0.200  10.579   1.975 -1.3195 -0.6303 -1.9910
    2MOL0     H  240   0.064  10.775   1.897  1.2056 -0.8198 -1.7437
    2MOL0     H  241  -0.077  10.673   1.951  0.7722  3.1335  2.5306
    2MOL0     H  242   0.149  10.627   1.757 -0.8794  1.2715 -1.1298
    2MOL0     H  243   0.051  10.489   1.824  1.4685 -0.5499 -1.1362
    2MOL0     H  244  -0.047  10.732   1.660  2.7072 -1.0501 -0.7213
    2MOL0     H  245  -0.153  10.604   1.734  0.3999  0.3435  1.1052
    2MOL0     H  246  -0.070  10.439   1.647  1.2429  2.5813  3.8816
    2MOL0     H  247  -0.138  10.534   1.517 -1.9497  1.4523  1.1727
    2MOL0     H  248   0.170  10.565   1.559  0.9357 -1.5803 -1.5570
    2MOL0     H  249   0.070  10.618   1.428 -2.4503  0.9176  0.7276
    2MOL0     H  250   0.048  10.415   1.342 -0.0895 -2.0432  0.3289
    2MOL0     H  251   0.084  10.327   1.487 -0.2501  2.2142  2.7378
    2MOL0     H  252  -0.037  10.317   2.242  0.6619  0.7926 -0.3337
    2MOL0     H  253  -0.222  10.155   2.291 -0.9664  0.4465  1.3862
    2MOL0     H  254  -0.467   9.947   2.343  0.0057 -0.9664 -1.9029
    2MOL0     H  255  -0.581   9.746   2.433  0.0387  0.5222  0.0574
    2MOL0     H  256   0.005   8.789   2.918  1.5542 -0.0818 -1.7752
    2MOL0     H  257  -0.024   8.696   3.163  2.6202  2.8163 -2.5831
    2MOL0     H  258  -0.090   8.351   3.411 -0.2008 -3.3125 -0.7915
    2MOL0     H  259  -0.094   8.290   3.664  0.6336 -0.7909  1.4635
    2MOL0     H  260   0.053   8.075   3.886  3.7660 -0.3572  2.2155
    2MOL0     H  261   0.103   8.055   3.703  2.2039 -0.8664  1.0357
    2MOL0     H  262   0.330   8.055   3.753  0.0728 -2.7039 -0.6778
    2MOL0     H  263   0.223   7.927   3.816 -3.0616  0.7472 -0.4992
    2MOL0     H  264   0.266   8.159   4.010 -0.6406 -1.0241  1.7643
    2MOL0     H  265   0.417   8.080   3.974 -0.4242  2.4576  1.6981
    2MOL0     H  266   0.163   7.916   4.074 -1.1447  1.5806  1.4504
    2MOL0     H  267   0.299   7.972   4.167  0.0442  2.6692 -1.0965
    2MOL0     H  268   0.440   7.634   3.950 -0.1605  0.7931 -2.1199
    2MOL0     H  269   0.332   8.323   3.662  0.7738  1.8093 -0.1877
    2MOL0     H  270   0.314   8.433   3.426  2.0201 -0.8545  2.5968
    3MOL0     O  271   8.363   2.071   7.703 -0.4660 -0.7197 -0.1131
    3MOL0     C  272   8.391   2.073   7.581  0.7489  0.2857 -0.4382
    3MOL0     O  273   8.304   2.111   7.478  0.2656  0.5092 -0.1581
    3MOL0     C  274   8.174   2.144   7.497  0.6852 -1.3835 -0.3763
    3MOL0     C  275   8.125   2.268   7.452 -0.5509 -0.7895  0.0504
    3MOL0     C  276   7.992   2.300   7.475  0.3355  0.4900  0.4223
    3MOL0     C  277   7.903   2.203   7.525  0.8755 -0.6283  0.2677
    3MOL0     O  278   7.767   2.239   7.534  0.3366 -0.4031 -0.7020
    3MOL0     C  279   7.716   2.375   7.545  0.5472  0.4630 -0.0696
    3MOL0     C  280   7.704   2.428   7.687 -0.4736 -0.3196 -1.3156
    3MOL0     C  281   7.638   2.562   7.695  0.7371  0.3396 -0.0874
    3MOL0     C  282   7.520   2.551   7.794 -0.0172  0.9012  0.0912
    3MOL0     C  283   7.479   2.684   7.843  0.6766  0.5152  0.0647
    3MOL0     C  284   7.391   2.753   7.735 -0.4809  1.0873  0.6887
    3MOL0     C  285   7.253   2.677   7.682  0.0615  0.2122  0.0611
    3MOL0     C  286   7.176   2.781   7.592 -0.0738 -0.4814 -0.3050
    3MOL0     N  287   7.224   2.785   7.450 -0.2290  0.4234 -0.8444
    3MOL0     C  288   7.343   2.859   7.416  0.2522  0.1029  0.9081
    3MOL0     C  289   7.332   2.871   7.280 -0.4041  0.7806  0.4543
    3MOL0     C  290   7.436   2.941   7.200 -0.3909 -0.9701  0.0281
    3MOL0     C  291   7.413   2.951   7.046 -0.4465  0.2008  0.8644
    3MOL0     C  292   7.440   2.820   6.977 -0.5060  0.8939 -0.5668
    3MOL0     C  293   7.589   2.801   6.991 -0.9642  0.0227 -0.0597
    3MOL0     O  294   7.609   2.701   6.885  0.2722  0.1940 -0.2215
    3MOL0     C  295   7.735   2.643   6.868 -0.3011  0.2969  0.6241
    3MOL0     C  296   7.756   2.572   6.754  0.5185 -0.4680 -0.8444
    3MOL0     C  297   7.880   2.522   6.721 -0.5943 -0.5640  0.1453
    3MOL0     C  298   7.893   2.458   6.584 -0.3942 -0.0652 -0.0755
    3MOL0     C  299   7.989   2.526   6.813  0.7738  0.8330 -0.0626
    3MOL0     C  300   8.117   2.468   6.778 -0.6259  0.6469 -0.5357
    3MOL0     O  301   8.113   2.333   6.767  1.1191 -0.1033 -0.2516
    3MOL0     C  302   8.214   2.259   6.713  1.1042  0.8039  0.4140
    3MOL0     C  303   8.351   2.283   6.720 -0.4961  0.6592 -0.5709
    3MOL0     C  304   8.443   2.196   6.659 -0.2103 -0.8345 -0.8496
    3MOL0     C  305   8.399   2.077   6.585  0.3729  0.5323 -0.3690
    3MOL0     O  306   8.483   1.985   6.527  0.6794  0.0190  0.2127
    3MOL0     C  307   8.619   2.010   6.498  0.0622 -0.4742  0.1530
    3MOL0     C  308   8.627   2.105   6.378 -0.6568  0.1561  0.1715
    3MOL0     C  309   8.737   2.065   6.283  0.8040  0.4332 -0.0467
    3MOL0     C  310   8.879   2.084   6.327 -0.4196  0.1470  0.3663
    3MOL0     C  311   8.972   2.051   6.201  0.1467 -0.7755 -0.3282
    3MOL0     C  312   9.112   2.094   6.233 -0.2871  0.5828 -0.2168
    3MOL0     C  313   9.183   2.140   6.107 -0.1411 -0.6338  0.4581
    3MOL0     C  314   9.336   2.158   6.138 -0.1261 -0.2136 -0.0301
    3MOL0    Cl  315   9.415   2.007   6.217  0.4745 -0.1801 -0.1711
    3MOL0     C  316   8.262   2.058   6.582  0.3815  0.6185  0.0068
    3MOL0     C  317   8.171   2.143   6.646 -0.1526  0.3689 -0.8077
    3MOL0     O  318   8.218   2.539   6.777  0.2717  0.2864 -0.4389
    3MOL0     C  319   7.971   2.604   6.927  0.1539 -0.3538 -1.0243
    3MOL0     C  320   7.843   2.655   6.962  0.9302 -0.3236  0.3772
    3MOL0     N  321   7.215   2.815   7.244  1.0642  0.2885 -0.0146
    3MOL0     N  322   7.148   2.756   7.346  0.6531 -0.2147 -0.1167
    3MOL0     C  323   7.952   2.084   7.563 -0.0381 -0.5800 -0.7841
    3MOL0     C  324   8.090   2.058   7.566  0.1500  0.0299  0.2620
    3MOL0     C  325   8.529   2.042   7.535 -0.0874 -0.5393  0.4600
    3MOL0     C  326   8.626   1.994   7.629 -0.0550 -0.0936  0.0124
    3MOL0     C  327   8.756   1.977   7.599 -1.2059 -0.4970 -0.0188
    3MOL0     C  328   8.802   2.023   7.479 -0.2194  1.5102  1.1294
    3MOL0     O  329   8.934   1.999   7.462  0.4696 -0.1203 -0.6749
    3MOL0     C  330   9.007   2.109   7.400  0.1244 -0.7405 -0.0317
    3MOL0     C  331   9.128   2.037   7.351  0.7195 -0.2318 -0.2348
    3MOL0     C  332   9.202   2.105   7.239  0.0338  0.4615 -0.0607
    3MOL0     C  333   9.338   2.155   7.300 -0.2096  0.3140  1.0453
    3MOL0     C  334   9.427   2.043   7.342 -0.2972 -0.0934 -0.1401
    3MOL0     C  335   9.503   1.954   7.385  0.4195  0.3508  0.2376
    3MOL0     C  336   8.716   2.068   7.377 -0.0919  0.8279 -0.0526
    3MOL0     C  337   8.575   2.057   7.402 -0.3345 -0.4859  0.1177
    3MOL0     H  338   8.209   2.328   7.420 -0.0872 -2.2953 -1.7534
    3MOL0     H  339   7.955   2.401   7.463 -1.3918  0.0659  1.7638
    3MOL0     H  340   7.760   2.450   7.479  1.3423  1.2255  1.2814
    3MOL0     H  341   7.615   2.355   7.508  1.4721  0.6625 -2.9397
    3MOL0     H  342   7.649   2.358   7.750  0.1002  0.9071  0.6349
    3MOL0     H  343   7.806   2.444   7.725 -0.5622 -0.2445 -1.1107
    3MOL0     H  344   7.709   2.642   7.719 -0.3252  1.0668  0.7326
    3MOL0     H  345   7.591   2.583   7.599 -0.5772 -0.1963  0.4178
    3MOL0     H  346   7.441   2.493   7.746  1.2601 -1.6944  0.9310
    3MOL0     H  347   7.559   2.495   7.880 -0.1206  0.4833 -0.1307
    3MOL0     H  348   7.415   2.677   7.932 -3.6073  1.9913 -2.5466
    3MOL0     H  349   7.572   2.736   7.865  0.3268  0.5970  1.4678
    3MOL0     H  350   7.347   2.846   7.771 -0.5004  2.4222 -2.4847
    3MOL0     H  351   7.460   2.769   7.652 -1.6380  2.3011 -0.0592
    3MOL0     H  352   7.278   2.585   7.629  1.7303  1.1797 -0.9222
    3MOL0     H  353   7.188   2.647   7.764  1.3221  0.8285  1.3368
    3MOL0     H  354   7.185   2.883   7.630  2.8874 -1.1530  1.1687
    3MOL0     H  355   7.071   2.751   7.594  0.1297 -1.2237  0.6609
    3MOL0     H  356   7.418   2.898   7.484  1.4839  1.1327 -0.9345
    3MOL0     H  357   7.430   3.045   7.234  2.6670 -0.7164  0.0165
    3MOL0     H  358   7.539   2.913   7.224  0.0563 -3.6354 -4.0033
    3MOL0     H  359   7.470   3.035   7.005  0.7675 -0.8789  0.2926
    3MOL0     H  360   7.307   2.977   7.032  0.1564  1.8243 -1.1775
    3MOL0     H  361   7.415   2.821   6.870  1.4184  0.3539 -1.0718
    3MOL0     H  362   7.382   2.738   7.020 -1.9888  0.0687 -3.8311
    3MOL0     H  363   7.625   2.741   7.075  1.2850 -0.3840 -1.2328
    3MOL0     H  364   7.640   2.895   6.969 -1.1443 -0.3325 -2.2729
    3MOL0     H  365   7.670   2.562   6.689 -1.9555 -0.9829  2.2830
    3MOL0     H  366   7.884   2.541   6.513 -1.5262  0.0862  0.2228
    3MOL0     H  367   7.991   2.410   6.578  0.7441  1.5976  2.9612
    3MOL0     H  368   7.815   2.383   6.567 -2.2392  1.7280  0.0199
    3MOL0     H  369   8.404   2.367   6.763  2.2954 -1.7859  1.1251
    3MOL0     H  370   8.544   2.234   6.654 -1.0723  1.5913 -1.1586
    3MOL0     H  371   8.665   2.040   6.592 -0.9882  0.7517  0.3089
    3MOL0     H  372   8.656   1.910   6.475 -0.7274 -0.3564 -1.8524
    3MOL0     H  373   8.528   2.104   6.329  0.1709  4.8312 -2.1819
    3MOL0     H  374   8.636   2.209   6.411 -2.3268  0.3757  0.0515
    3MOL0     H  375   8.716   2.135   6.202 -1.3276  0.5651  0.5736
    3MOL0     H  376   8.717   1.961   6.254 -1.4515  0.6445  0.5573
    3MOL0     H  377   8.891   2.184   6.369 -2.0564 -1.1802  4.4006
    3MOL0     H  378   8.904   2.016   6.408 -1.0726 -1.1110 -0.4588
    3MOL0     H  379   8.942   2.107   6.112  0.9750  1.3346  0.6498
    3MOL0     H  380   8.979   1.945   6.172  0.9506 -0.6215 -0.7176
    3MOL0     H  381   9.110   2.167   6.315 -0.0813  0.8095 -0.4148
    3MOL0     H  382   9.169   2.017   6.285  0.3878  1.6390  0.6551
    3MOL0     H  383   9.135   2.223   6.054  0.5005 -0.7668 -0.3534
    3MOL0     H  384   9.172   2.064   6.029  0.8556 -0.5979  0.2741
    3MOL0     H  385   9.369   2.242   6.200  0.7582  0.5755 -1.4976
    3MOL0     H  386   9.375   2.176   6.037 -1.5010 -0.9998 -0.7305
    3MOL0     H  387   8.223   1.970   6.532 -0.1556 -1.3962  3.5747
    3MOL0     H  388   8.067   2.118   6.629  0.0241  1.1918 -3.7174
    3MOL0     H  389   8.050   2.621   6.999  0.6150 -0.4507 -1.5079
    3MOL0     H  390   7.830   2.711   7.054  1.0814 -1.5019  1.1372
    3MOL0     H  391   7.874   2.026   7.612 -1.7891  3.0161  1.0897
    3MOL0     H  392   8.130   1.964   7.602  0.2431 -0.1420 -0.2847
    3MOL0     H  393   8.603   1.973   7.732  0.1333  5.2528  1.4306
    3MOL0     H  394   8.827   1.947   7.675  1.0944  2.0228 -1.0006
    3MOL0     H  395   8.949   2.159   7.322 -2.1054 -2.2695  0.5706
    3MOL0     H  396   9.051   2.180   7.471 -0.7451  0.5363 -0.7267
    3MOL0     H  397   9.103   1.941   7.305  4.0735 -1.3519  0.0441
    3MOL0     H  398   9.192   2.011   7.436  1.0798  0.5995 -0.2477
    3MOL0     H  399   9.150   2.194   7.203  0.5781  1.6956  2.0281
    3MOL0     H  400   9.217   2.036   7.155  1.0117  0.8051 -0.1847
    3MOL0     H  401   9.303   2.207   7.390 -1.6450  0.8509  0.2030
    3MOL0     H  402   9.386   2.216   7.224 -1.0699 -0.5755 -0.2599
    3MOL0     H  403   9.563   1.867   7.404  0.4347  0.9731  3.7564
    3MOL0     H  404   8.750   2.084   7.275 -2.8032  1.2464 -0.9567
    3MOL0     H  405   8.504   2.086   7.326 -2.1179  1.5567  2.4205
    4MOL0     O  406  10.818   6.085   3.925 -0.2607  0.3781 -0.6174
    4MOL0     C  407  10.717   6.121   3.861 -0.5995 -0.0446 -0.7702
    4MOL0     O  408  10.602   6.045   3.854 -0.8396 -0.7556  0.0805
    4MOL0     C  409  10.582   5.934   3.928 -0.4891 -0.2483 -0.5756
    4MOL0     C  410  10.676   5.836   3.931 -0.2846  0.0990  0.8925
    4MOL0     C  411  10.648   5.719   3.993  0.5861  0.3176 -0.3181
    4MOL0     C  412  10.525   5.697   4.062  0.7469 -0.6369 -0.1174
    4MOL0     O  413  10.496   5.583   4.136 -0.1916  0.4739 -0.9022
    4MOL0     C  414  10.594   5.477   4.147 -0.0797  0.7643  0.1480
    4MOL0     C  415  10.541   5.366   4.242 -0.4105 -0.5323  0.7487
    4MOL0     C  416  10.619   5.231   4.241 -0.7645 -0.0444  0.9177
    4MOL0     C  417  10.537   5.114   4.301 -0.1795 -0.0345 -0.2309
    4MOL0     C  418  10.462   5.022   4.213 -1.0094  0.5633  0.4922
    4MOL0     C  419  10.409   4.921   4.307 -0.2765 -0.2062 -0.7651
    4MOL0     C  420  10.312   4.828   4.243  0.3282  0.0403  0.4462
    4MOL0     C  421  10.226   4.759   4.345  0.3342 -0.5263  0.2735
    4MOL0     N  422  10.133   4.661   4.289 -0.2795  0.2386  0.0728
    4MOL0     C  423  10.101   4.636   4.162 -0.9701  0.4897 -0.5498
    4MOL0     C  424  10.017   4.537   4.162  1.0183  0.7969 -0.5735
    4MOL0     C  425   9.956   4.451   4.057  0.5314 -0.5684  0.3593
    4MOL0     C  426  10.067   4.357   3.989  1.3145 -0.0405 -0.2193
    4MOL0     C  427   9.991   4.292   3.879 -0.6444 -0.7938  0.6226
    4MOL0     C  428  10.073   4.199   3.794  0.2397 -0.6929  0.2570
    4MOL0     O  429   9.997   4.192   3.671  0.4032  0.3344  0.2928
    4MOL0     C  430   9.975   4.075   3.604  0.2319 -0.0531  0.6842
    4MOL0     C  431   9.882   4.075   3.494 -0.1907  0.9634  0.1883
    4MOL0     C  432   9.858   3.960   3.412 -0.7519  0.0132  0.6127
    4MOL0     C  433   9.762   4.003   3.297 -0.4240 -0.0650 -0.2072
    4MOL0     C  434   9.927   3.835   3.443 -0.0638  0.1381  0.4739
    4MOL0     C  435   9.899   3.700   3.384 -1.1538  0.1655 -0.4819
    4MOL0     O  436   9.960   3.587   3.449 -1.1306 -0.4609  0.6798
    4MOL0     C  437   9.999   3.479   3.373 -0.7809 -0.3917  1.1789
    4MOL0     C  438  10.129   3.483   3.318 -0.0994  0.4387  0.0889
    4MOL0     C  439  10.177   3.373   3.248  0.2063  0.7063  0.7892
    4MOL0     C  440  10.107   3.261   3.222  0.1697  0.0037  0.3972
    4MOL0     O  441  10.149   3.175   3.124  0.2716 -0.8184  0.1539
    4MOL0     C  442  10.075   3.063   3.092  0.4494  0.3297 -0.7072
    4MOL0     C  443  10.132   2.984   2.972 -0.5364  0.4253  0.1112
    4MOL0     C  444  10.084   3.049   2.842 -1.0480  0.2428  0.5682
    4MOL0     C  445  10.147   2.985   2.718  0.7884  0.4022  0.6566
    4MOL0     C  446  10.053   2.860   2.680 -0.6516 -0.1052  1.5960
    4MOL0     C  447  10.082   2.820   2.537  0.7524 -0.2540 -0.6816
    4MOL0     C  448   9.985   2.710   2.500 -0.2181  0.1304 -1.2585
    4MOL0     C  449  10.008   2.661   2.359 -0.2605 -0.7233 -0.0784
    4MOL0    Cl  450   9.898   2.533   2.314  0.3072  0.1526 -0.0768
    4MOL0     C  451   9.970   3.265   3.264 -0.2332  0.1399  0.7398
    4MOL0     C  452   9.919   3.370   3.342  0.1755  0.6612 -0.0059
    4MOL0     O  453   9.810   3.689   3.297  0.6748  0.2243 -0.5016
    4MOL0     C  454  10.023   3.844   3.547 -0.6800  0.0341 -0.9355
    4MOL0     C  455  10.050   3.957   3.632 -0.7384 -0.2877 -0.5313
    4MOL0     N  456   9.988   4.509   4.293 -0.7348  0.0327  0.3489
    4MOL0     N  457  10.050   4.589   4.367 -0.1619 -0.4349  0.8070
    4MOL0     C  458  10.429   5.792   4.066 -0.1576 -0.3120  0.7496
    4MOL0     C  459  10.462   5.914   3.991  0.9828 -0.6362 -0.3175
    4MOL0     C  460  10.739   6.235   3.768 -0.9612  0.7169 -0.3578
    4MOL0     C  461  10.641   6.278   3.688  0.8004  0.7649  0.7255
    4MOL0     C  462  10.654   6.388   3.612 -0.3007 -1.7627 -0.0851
    4MOL0     C  463  10.777   6.446   3.592 -0.6839 -0.3487 -0.8796
    4MOL0     O  464  10.778   6.541   3.488  0.1948 -0.8047 -0.4178
    4MOL0     C  465  10.903   6.553   3.415  0.7272  0.7399 -0.4083
    4MOL0     C  466  10.884   6.675   3.328 -0.7245  0.3134 -0.3911
    4MOL0     C  467  10.992   6.667   3.223  0.3741  0.6809  0.2409
    4MOL0     C  468  10.986   6.782   3.131 -0.1040 -0.3223  0.3409
    4MOL0     C  469  11.047   6.904   3.188 -0.7505  0.2243  0.1698
    4MOL0     C  470  11.090   7.000   3.247 -0.0950 -0.2868 -0.9212
    4MOL0     C  471  10.886   6.408   3.673  0.9981 -0.3206 -0.0562
    4MOL0     C  472  10.865   6.302   3.766 -0.8230  0.2509 -0.4315
    4MOL0     H  473  10.771   5.853   3.883 -0.7854  1.7736  0.3932
    4MOL0     H  474  10.723   5.641   3.984 -2.1235 -2.4712 -0.5559
    4MOL0     H  475  10.620   5.440   4.048  0.5386  0.2552  0.4969
    4MOL0     H  476  10.685   5.510   4.200  1.9395 -1.2510 -1.8667
    4MOL0     H  477  10.526   5.408   4.341  0.5277  0.6690  0.4008
    4MOL0     H  478  10.442   5.345   4.200 -0.9216  1.0486  1.0944
    4MOL0     H  479  10.659   5.208   4.142 -2.7292  0.8144 -0.1393
    4MOL0     H  480  10.703   5.244   4.309  0.4169  2.7087 -0.8892
    4MOL0     H  481  10.609   5.052   4.356 -0.5329 -4.6930 -4.3188
    4MOL0     H  482  10.462   5.157   4.369 -0.1713 -1.4917  0.7433
    4MOL0     H  483  10.378   5.073   4.164 -1.9744 -1.6559 -0.2790
    4MOL0     H  484  10.528   4.985   4.134 -1.3977  2.2138 -0.6615
    4MOL0     H  485  10.503   4.872   4.333  0.9867  2.1412 -0.7048
    4MOL0     H  486  10.365   4.958   4.400  0.8169  1.8231 -1.0037
    4MOL0     H  487  10.244   4.878   4.174  0.7282 -2.6701 -2.1530
    4MOL0     H  488  10.369   4.749   4.193  2.2579  0.1062  2.4059
    4MOL0     H  489  10.171   4.835   4.402  0.8227 -0.6192  0.8850
    4MOL0     H  490  10.290   4.693   4.405 -0.5940 -1.5786  0.1267
    4MOL0     H  491  10.148   4.670   4.071 -0.2211 -2.8498 -1.5121
    4MOL0     H  492   9.889   4.380   4.108  0.1838  0.0835  0.8211
    4MOL0     H  493   9.889   4.509   3.992 -3.6498 -1.9329  3.0045
    4MOL0     H  494  10.094   4.298   4.077 -0.3400  1.2968  1.2559
    4MOL0     H  495  10.153   4.412   3.950  0.0921  2.7306  0.7411
    4MOL0     H  496   9.935   4.366   3.822 -1.1214 -2.4710 -1.2006
    4MOL0     H  497   9.910   4.230   3.920  1.4871 -1.6720  3.8942
    4MOL0     H  498  10.088   4.107   3.852  2.8763 -0.0988  0.6636
    4MOL0     H  499  10.172   4.239   3.767  0.8969 -2.3194  0.1374
    4MOL0     H  500   9.846   4.170   3.456  0.8922  0.1201 -3.3631
    4MOL0     H  501   9.683   4.069   3.335 -0.5318  2.3069 -3.9856
    4MOL0     H  502   9.824   4.066   3.233  0.8780 -0.1743  0.9174
    4MOL0     H  503   9.730   3.923   3.230  2.9612 -0.9711 -0.9462
    4MOL0     H  504  10.185   3.572   3.345  1.4110 -1.1313  2.5245
    4MOL0     H  505  10.277   3.390   3.208 -0.3016  0.2189 -0.7329
    4MOL0     H  506  10.076   2.993   3.176 -0.1051  2.3203  1.0293
    4MOL0     H  507   9.974   3.097   3.065  1.1142  2.1436 -1.0695
    4MOL0     H  508  10.241   2.992   2.977 -0.7306  3.5595  1.9684
    4MOL0     H  509  10.103   2.879   2.977  0.2724  0.2489  3.2050
    4MOL0     H  510  10.111   3.155   2.843 -0.2839  0.1425 -1.9332
    4MOL0     H  511   9.977   3.041   2.820 -0.7835  1.4081 -1.3154
    4MOL0     H  512  10.132   3.057   2.636 -2.6656  1.4611  2.0236
    4MOL0     H  513  10.254   2.965   2.721  1.0622  1.7778  0.9207
    4MOL0     H  514   9.950   2.896   2.685  0.5224  5.0523 -2.1784
    4MOL0     H  515  10.076   2.778   2.749 -0.8745  0.1052  1.9211
    4MOL0     H  516  10.083   2.898   2.460  0.1138 -0.7058 -1.1578
    4MOL0     H  517  10.183   2.778   2.547  0.1245 -1.6576  0.0065
    4MOL0     H  518   9.879   2.730   2.520 -0.6680 -1.5127 -1.8792
    4MOL0     H  519  10.025   2.627   2.558  2.1077  2.3415  0.5393
    4MOL0     H  520  10.109   2.621   2.358 -0.8090 -2.1623 -0.7655
    4MOL0     H  521  10.002   2.736   2.279  1.0799 -1.5191 -0.9486
    4MOL0     H  522   9.904   3.179   3.254  0.1003 -0.3784  2.6114
    4MOL0     H  523   9.825   3.341   3.387  0.5750 -2.2169 -0.8259
    4MOL0     H  524  10.087   3.758   3.561  0.7759  1.2101 -0.1203
    4MOL0     H  525  10.125   3.953   3.711 -0.0101  0.3097 -1.1779
    4MOL0     H  526  10.328   5.779   4.105 -0.1220 -1.9853  0.3518
    4MOL0     H  527  10.381   5.983   3.971  0.2192 -0.8649  1.7196
    4MOL0     H  528  10.540   6.239   3.682  1.1783 -0.0852 -4.1018
    4MOL0     H  529  10.574   6.434   3.554  2.9825  2.9599 -1.5374
    4MOL0     H  530  10.984   6.575   3.486 -0.1263 -2.0573  1.6019
    4MOL0     H  531  10.927   6.464   3.356 -2.7822  0.6311 -1.9510
    4MOL0     H  532  10.908   6.762   3.390  1.2731 -0.3764 -0.0976
    4MOL0     H  533  10.784   6.678   3.284 -0.6168 -2.1116 -0.9685
    4MOL0     H  534  10.974   6.581   3.158 -0.8353  2.2918 -1.6592
    4MOL0     H  535  11.091   6.666   3.269 -0.0778 -2.1214  1.3749
    4MOL0     H  536  10.883   6.798   3.096 -0.4265 -2.0478  0.4442
    4MOL0     H  537  11.045   6.753   3.043  2.2963 -2.4977  2.5243
    4MOL0     H  538  11.115   7.094   3.291 -0.1351 -0.7626  0.1397
    4MOL0     H  539  10.980   6.462   3.662  0.2814  1.0372  0.2369
    4MOL0     H  540  10.941   6.259   3.829 -1.1316 -1.3378 -1.1066
    5MOL0     O  541   7.742   9.541   4.617  0.7169  0.0701  0.2648
    5MOL0     C  542   7.684   9.592   4.717 -0.3355  0.6936 -0.0655
    5MOL0     O  543   7.735   9.662   4.828 -0.6127 -0.1947  0.1371
    5MOL0     C  544   7.871   9.680   4.847 -0.3462  0.0444 -0.3240
    5MOL0     C  545   7.908   9.767   4.950  0.1828 -0.0443  0.5900
    5MOL0     C  546   8.040   9.818   4.962 -0.2537 -0.4985  0.3533
    5MOL0     C  547   8.143   9.774   4.876 -0.5828  0.8915 -0.4237
    5MOL0     O  548   8.266   9.825   4.882 -0.9078 -0.5448 -0.5375
    5MOL0     C  549   8.357   9.744   4.960  0.5238  0.1463 -1.2628
    5MOL0     C  550   8.358   9.794   5.111 -0.7848  0.1360  1.0088
    5MOL0     C  551   8.380   9.946   5.131  0.6064  0.6369  0.3391
    5MOL0     C  552   8.352   9.967   5.280 -1.0803  0.2370 -0.7557
    5MOL0     C  553   8.389  10.111   5.333 -0.3824 -1.0410  0.8589
    5MOL0     C  554   8.304  10.220   5.273 -0.7751  0.0012 -0.1434
    5MOL0     C  555   8.162  10.234   5.330  0.5024  0.9572 -0.5945
    5MOL0     C  556   8.154  10.265   5.480  0.0762 -0.5120  0.4720
    5MOL0     N  557   8.017  10.308   5.514  0.1069  0.2424  0.0542
    5MOL0     C  558   7.970  10.439   5.518  0.7183 -0.3277 -0.5759
    5MOL0     C  559   7.840  10.430   5.533  0.1394 -0.2434  0.1852
    5MOL0     C  560   7.736  10.539   5.515 -0.7914  0.1525  0.2667
    5MOL0     C  561   7.766  10.619   5.387 -0.1777  0.7018  0.0544
    5MOL0     C  562   7.669  10.728   5.337 -0.4746 -0.2423  0.1948
    5MOL0     C  563   7.537  10.657   5.296  0.0959 -0.5189 -0.0990
    5MOL0     O  564   7.451  10.622   5.403 -0.3376 -0.6004 -0.3302
    5MOL0     C  565   7.321  10.587   5.385  0.3556  0.0920 -0.2920
    5MOL0     C  566   7.245  10.567   5.499 -0.4459 -0.2219  0.1255
    5MOL0     C  567   7.111  10.535   5.490 -0.1690  0.5979  0.0520
    5MOL0     C  568   7.037  10.502   5.617 -0.2051 -0.3880  0.1097
    5MOL0     C  569   7.042  10.520   5.364 -1.5474 -0.8243 -0.5124
    5MOL0     C  570   6.909  10.466   5.348 -0.3365  0.4252  0.8680
    5MOL0     O  571   6.897  10.365   5.254  0.3485  0.5265 -0.5968
    5MOL0     C  572   6.779  10.301   5.231  0.8894  1.2119  0.0263
    5MOL0     C  573   6.785  10.164   5.223 -0.0068 -0.1148 -0.0321
    5MOL0     C  574   6.671  10.082   5.206 -0.2128 -0.6022  0.5679
    5MOL0     C  575   6.547  10.143   5.202  0.0196 -0.3574  0.3997
    5MOL0     O  576   6.434  10.082   5.169 -1.1470 -0.5249 -0.5325
    5MOL0     C  577   6.442   9.968   5.081 -0.2998  0.8237  0.3284
    5MOL0     C  578   6.446   9.830   5.153  0.1382 -0.7229  0.7536
    5MOL0     C  579   6.512   9.721   5.056 -0.4637 -0.3469 -0.1198
    5MOL0     C  580   6.408   9.647   4.968  0.1027 -1.0074 -0.0303
    5MOL0     C  581   6.442   9.509   4.916 -0.0351  0.3577 -0.3884
    5MOL0     C  582   6.567   9.522   4.826 -0.6779 -0.2991 -0.5512
    5MOL0     C  583   6.641   9.401   4.795  0.7972 -0.6567 -0.6940
    5MOL0     C  584   6.750   9.427   4.693 -0.4723  0.7222  0.8946
    5MOL0    Cl  585   6.699   9.419   4.527 -0.4466  0.1039 -0.2136
    5MOL0     C  586   6.539  10.286   5.224 -0.1153 -0.5447  0.2730
    5MOL0     C  587   6.655  10.360   5.229 -0.0046  0.5665  0.0740
    5MOL0     O  588   6.824  10.495   5.430 -0.1187 -0.3104  0.1282
    5MOL0     C  589   7.128  10.536   5.246  0.8278  0.4291 -0.7050
    5MOL0     C  590   7.261  10.570   5.259  1.1161 -0.2571  0.3503
    5MOL0     N  591   7.812  10.305   5.570  0.1797  0.3072  0.4921
    5MOL0     N  592   7.917  10.223   5.547  0.0483 -0.4919 -0.3206
    5MOL0     C  593   8.110   9.682   4.772  0.9463 -0.9350  0.5804
    5MOL0     C  594   7.973   9.644   4.755  0.0354  0.2503  0.4964
    5MOL0     C  595   7.532   9.574   4.723  0.0750  0.1899 -0.8847
    5MOL0     C  596   7.459   9.636   4.833  0.0618 -0.5198  0.7671
    5MOL0     C  597   7.322   9.613   4.856 -0.8633  0.1522 -0.3781
    5MOL0     C  598   7.257   9.511   4.781 -0.8269 -0.5877 -0.7601
    5MOL0     O  599   7.127   9.466   4.788 -0.1587  0.5145  0.1061
    5MOL0     C  600   7.104   9.369   4.899  0.2514 -0.1627 -0.0362
    5MOL0     C  601   7.052   9.447   5.023 -0.1945 -0.0700  0.8587
    5MOL0     C  602   6.919   9.507   5.004  0.1868  0.4751  0.0662
    5MOL0     C  603   6.864   9.556   5.143 -0.2523  0.2865 -0.1790
    5MOL0     C  604   6.965   9.632   5.220 -0.2337  0.0232 -0.3654
    5MOL0     C  605   7.060   9.679   5.286  0.5585 -0.1399  0.1025
    5MOL0     C  606   7.333   9.444   4.685  0.3330  0.4447  0.0767
    5MOL0     C  607   7.471   9.469   4.658  0.1250  0.0967 -0.4279
    5MOL0     H  608   7.831   9.804   5.017  2.6442  1.0270  3.0377
    5MOL0     H  609   8.066   9.902   5.026  4.7079 -0.4058 -1.3296
    5MOL0     H  610   8.328   9.638   4.967 -0.3102  0.5048  1.7954
    5MOL0     H  611   8.448   9.750   4.899  0.8453  0.9442 -0.7108
    5MOL0     H  612   8.273   9.747   5.163 -1.1590 -0.9480 -0.4969
    5MOL0     H  613   8.448   9.756   5.160  0.5446 -0.5158 -1.7876
    5MOL0     H  614   8.473   9.981   5.085  0.9458  0.0294  0.5550
    5MOL0     H  615   8.301   9.993   5.072  0.9084 -0.3660 -0.8863
    5MOL0     H  616   8.254   9.944   5.322 -0.7604  1.1699  0.5862
    5MOL0     H  617   8.416   9.902   5.342 -0.4656  1.6793  0.1863
    5MOL0     H  618   8.373  10.099   5.441 -1.6243  2.0057  1.1190
    5MOL0     H  619   8.496  10.133   5.329 -0.6446  0.3968  1.3132
    5MOL0     H  620   8.353  10.318   5.275 -4.9520  2.3352  0.2141
    5MOL0     H  621   8.292  10.213   5.165 -2.0044  2.5054 -0.2468
    5MOL0     H  622   8.119  10.321   5.280 -2.0625 -0.5516 -1.1451
    5MOL0     H  623   8.103  10.144   5.314  0.2368  1.3676 -2.0766
    5MOL0     H  624   8.216  10.354   5.495  0.0129 -0.2342 -0.8336
    5MOL0     H  625   8.187  10.172   5.528  0.2276 -2.1621 -2.5730
    5MOL0     H  626   8.013  10.535   5.491 -3.1033  2.5447  2.3739
    5MOL0     H  627   7.640  10.487   5.516  0.6389 -2.6866 -0.0599
    5MOL0     H  628   7.740  10.595   5.609  2.6376 -2.9292  2.2187
    5MOL0     H  629   7.777  10.549   5.304  0.0062  2.1844 -1.2185
    5MOL0     H  630   7.855  10.673   5.421 -0.2245  1.1412 -0.5005
    5MOL0     H  631   7.708  10.780   5.249  1.7329  1.2947  1.9841
    5MOL0     H  632   7.656  10.805   5.413  2.8548  2.8690 -2.0608
    5MOL0     H  633   7.560  10.570   5.234  3.3130  1.3509 -1.7586
    5MOL0     H  634   7.488  10.721   5.222  2.4134 -0.0324 -1.2891
    5MOL0     H  635   7.296  10.559   5.594 -1.6329  1.0332  0.9122
    5MOL0     H  636   6.985  10.407   5.620 -0.1712 -0.4567 -1.0661
    5MOL0     H  637   7.120  10.508   5.689  1.1807  2.2196 -1.5184
    5MOL0     H  638   6.976  10.587   5.650  0.8662  2.9872 -5.3738
    5MOL0     H  639   6.880  10.112   5.237  0.7289  1.4693  1.2623
    5MOL0     H  640   6.671   9.974   5.205 -4.8304 -0.8064 -0.8203
    5MOL0     H  641   6.372   9.977   4.997 -2.2267  0.4462  1.8359
    5MOL0     H  642   6.530   9.985   5.019  1.6989 -0.8627  2.5421
    5MOL0     H  643   6.514   9.835   5.238  2.7656  1.8137 -1.2845
    5MOL0     H  644   6.349   9.793   5.187 -1.2135 -0.7032 -2.6474
    5MOL0     H  645   6.563   9.645   5.117  0.2258  0.5677  0.4750
    5MOL0     H  646   6.593   9.758   4.992  0.7258 -0.6988  1.1308
    5MOL0     H  647   6.327   9.625   5.038  0.8133 -1.5003  0.6667
    5MOL0     H  648   6.371   9.710   4.887  1.3557 -2.5768 -1.9245
    5MOL0     H  649   6.354   9.474   4.861  0.1201 -1.9493  0.6975
    5MOL0     H  650   6.460   9.438   4.997 -4.0277  1.6984  1.9706
    5MOL0     H  651   6.541   9.575   4.734  2.9219  1.0616 -0.9502
    5MOL0     H  652   6.641   9.580   4.881  0.4504 -1.8723 -0.3409
    5MOL0     H  653   6.572   9.324   4.760 -0.3556 -0.0405  0.1324
    5MOL0     H  654   6.683   9.373   4.892  3.2262  4.4235  0.0461
    5MOL0     H  655   6.824   9.347   4.703  0.0257  1.2216  1.2795
    5MOL0     H  656   6.797   9.524   4.708  0.2526  1.0000 -2.4975
    5MOL0     H  657   6.448  10.343   5.209 -0.1441 -0.5018  0.6143
    5MOL0     H  658   6.636  10.467   5.234 -2.1693  0.1743  4.1550
    5MOL0     H  659   7.094  10.525   5.143 -0.0047 -0.8093 -0.3300
    5MOL0     H  660   7.319  10.577   5.168 -0.8289  0.4230 -0.9080
    5MOL0     H  661   8.181   9.639   4.702 -1.8543 -1.1673 -2.3815
    5MOL0     H  662   7.960   9.573   4.675 -1.8935  2.2179 -1.0519
    5MOL0     H  663   7.519   9.696   4.900  2.2362 -1.2179 -0.4628
    5MOL0     H  664   7.275   9.666   4.938 -0.5155  0.8832 -0.6481
    5MOL0     H  665   7.029   9.297   4.864 -1.9430  0.9766  2.0861
    5MOL0     H  666   7.196   9.315   4.926  1.0580 -0.0217 -2.2977
    5MOL0     H  667   7.123   9.531   5.028  0.1371 -0.3475  0.8835
    5MOL0     H  668   7.075   9.388   5.112 -2.6928 -0.8259  1.0539
    5MOL0     H  669   6.855   9.427   4.966 -1.0307  0.4452  2.0418
    5MOL0     H  670   6.918   9.594   4.938  0.6209  0.6735  0.3175
    5MOL0     H  671   6.837   9.475   5.211  2.9710 -0.9206 -0.1390
    5MOL0     H  672   6.774   9.615   5.126  0.3303  1.0039 -0.8555
    5MOL0     H  673   7.150   9.713   5.334  1.2706 -2.0417  0.2381
    5MOL0     H  674   7.286   9.357   4.639 -1.6183  0.2871  2.1564
    5MOL0     H  675   7.502   9.413   4.571 -2.4340 -0.1098 -1.2872
    6MOL0     O  676   1.382   3.431   2.620 -0.0468 -0.2861  0.1328
    6MOL0     C  677   1.419   3.411   2.509 -0.4769  0.0065 -0.4252
    6MOL0     O  678   1.466   3.507   2.426 -0.4450  0.0416 -0.4212
    6MOL0     C  679   1.476   3.641   2.456 -0.2445  0.0455  0.5652
    6MOL0     C  680   1.569   3.715   2.385  0.1688 -0.2325 -0.6835
    6MOL0     C  681   1.583   3.855   2.400  0.3853 -0.4142 -1.4275
    6MOL0     C  682   1.505   3.924   2.497  0.3540  0.9702  0.1029
    6MOL0     O  683   1.522   4.057   2.522  0.6701 -0.3619 -0.6688
    6MOL0     C  684   1.423   4.137   2.445 -0.4246 -0.0265 -0.9167
    6MOL0     C  685   1.406   4.286   2.483 -0.3784 -0.3973  0.2674
    6MOL0     C  686   1.375   4.322   2.626  0.0961  0.6107 -0.0965
    6MOL0     C  687   1.244   4.256   2.690  0.1305  0.0593  0.3092
    6MOL0     C  688   1.228   4.270   2.847  0.2182 -0.1591  0.0824
    6MOL0     C  689   1.212   4.415   2.897  0.3045 -0.2627 -0.5912
    6MOL0     C  690   1.148   4.427   3.034 -0.8360 -1.0302  0.1483
    6MOL0     C  691   1.002   4.396   3.026 -0.8289  0.3010  0.4405
    6MOL0     N  692   0.939   4.503   2.945 -0.6868 -0.1351  0.0151
    6MOL0     C  693   0.878   4.611   2.997  0.5851  0.0450 -0.5659
    6MOL0     C  694   0.805   4.667   2.887  0.5099  0.1612 -0.6489
    6MOL0     C  695   0.747   4.803   2.893  0.0329 -0.9141 -0.0321
    6MOL0     C  696   0.595   4.793   2.889 -0.6358  0.0091  0.6636
    6MOL0     C  697   0.517   4.711   3.000 -1.3009 -0.3094 -0.6796
    6MOL0     C  698   0.364   4.733   2.998  0.4819 -0.5731  0.2581
    6MOL0     O  699   0.320   4.646   2.892 -0.1369  0.1146  0.3156
    6MOL0     C  700   0.275   4.702   2.778  0.5578  0.8399 -0.6269
    6MOL0     C  701   0.188   4.623   2.697  0.0739  0.9833  0.3615
    6MOL0     C  702   0.115   4.678   2.582 -0.0117  0.4194  0.2011
    6MOL0     C  703   0.065   4.575   2.490  0.5086  0.6205  0.5197
    6MOL0     C  704   0.134   4.815   2.554 -1.0060 -0.0580  0.3363
    6MOL0     C  705   0.069   4.886   2.439  1.2232  0.1690  0.2865
    6MOL0     O  706   0.079   5.020   2.435 -0.4279 -0.0005  0.4875
    6MOL0     C  707   0.010   5.083   2.337  0.6986  0.0963  0.4108
    6MOL0     C  708  -0.119   5.142   2.372 -0.4396  0.8832  0.8995
    6MOL0     C  709  -0.180   5.230   2.284  0.0338 -0.2003 -0.3928
    6MOL0     C  710  -0.122   5.260   2.166  0.4899  0.0958 -0.3904
    6MOL0     O  711  -0.185   5.334   2.074  0.1079  0.8490  0.2054
    6MOL0     C  712  -0.280   5.436   2.115  0.2457  0.1523  0.2165
    6MOL0     C  713  -0.361   5.472   1.991  0.7820  0.1473 -0.8504
    6MOL0     C  714  -0.465   5.367   1.954  0.2420 -0.2824 -1.2683
    6MOL0     C  715  -0.578   5.342   2.059 -0.9788  0.6924 -0.4046
    6MOL0     C  716  -0.695   5.444   2.068 -0.4817  0.4285  0.0549
    6MOL0     C  717  -0.782   5.432   2.197 -0.8586 -0.1734  0.0762
    6MOL0     C  718  -0.851   5.301   2.222  0.4262  0.5575  0.8985
    6MOL0     C  719  -0.973   5.304   2.313 -0.2800 -0.9094  0.9499
    6MOL0    Cl  720  -0.913   5.379   2.465  0.1140  0.2761  0.1051
    6MOL0     C  721  -0.000   5.204   2.136 -0.2267  0.0804 -0.0961
    6MOL0     C  722   0.071   5.124   2.223  0.9710  0.9770  0.0363
    6MOL0     O  723  -0.005   4.818   2.355 -0.0960  0.4989 -0.4607
    6MOL0     C  724   0.219   4.888   2.634 -0.6479 -0.4705 -0.2309
    6MOL0     C  725   0.298   4.834   2.735  0.3062  0.3489 -0.0487
    6MOL0     N  726   0.825   4.584   2.772 -0.1845 -0.2279  0.2942
    6MOL0     N  727   0.907   4.490   2.811 -0.1130 -0.4519  0.4863
    6MOL0     C  728   1.421   3.844   2.580 -0.1041  0.7471 -0.3867
    6MOL0     C  729   1.405   3.714   2.557  0.2236  0.6903  0.2199
    6MOL0     C  730   1.420   3.276   2.464  0.1900 -0.9999 -0.7205
    6MOL0     C  731   1.479   3.244   2.343  0.6619 -0.5351  0.6117
    6MOL0     C  732   1.464   3.114   2.289  1.1163  0.9611 -0.2099
    6MOL0     C  733   1.373   3.021   2.348 -0.4173 -0.5059 -0.1820
    6MOL0     O  734   1.354   2.900   2.297  0.3899  0.6022 -0.8252
    6MOL0     C  735   1.241   2.810   2.324  0.6697 -1.1801  0.1348
    6MOL0     C  736   1.142   2.812   2.206 -0.7655  0.1082  0.5275
    6MOL0     C  737   1.191   2.744   2.074 -0.0928  0.0561 -0.8910
    6MOL0     C  738   1.156   2.596   2.061 -0.2395  0.5099  0.2538
    6MOL0     C  739   1.217   2.520   2.170 -0.7586  0.2379  0.1921
    6MOL0     C  740   1.261   2.426   2.240  0.0173  0.1172 -0.0059
    6MOL0     C  741   1.309   3.063   2.463 -0.2147  0.1419  0.3301
    6MOL0     C  742   1.342   3.182   2.526  1.2079  0.0291  0.1270
    6MOL0     H  743   1.629   3.668   2.307 -1.3740 -3.3043 -0.1857
    6MOL0     H  744   1.650   3.905   2.331  1.4302 -0.7194 -0.6548
    6MOL0     H  745   1.458   4.143   2.342  2.4071  1.1539  0.0320
    6MOL0     H  746   1.325   4.089   2.451 -1.1149  1.4526  0.2684
    6MOL0     H  747   1.501   4.333   2.456  0.5643 -3.3220 -2.0277
    6MOL0     H  748   1.323   4.319   2.421 -1.6507  2.0478  3.0163
    6MOL0     H  749   1.454   4.294   2.696 -1.7028 -0.3901  1.6462
    6MOL0     H  750   1.367   4.430   2.645  1.3647  0.2251  3.3695
    6MOL0     H  751   1.162   4.306   2.638 -0.7496 -1.3147  0.3416
    6MOL0     H  752   1.236   4.149   2.671 -2.7450  0.3789 -0.7904
    6MOL0     H  753   1.138   4.212   2.870  0.0659 -0.9289 -2.2417
    6MOL0     H  754   1.313   4.216   2.892  0.3938  0.7407  0.8726
    6MOL0     H  755   1.306   4.471   2.895  0.5784 -0.7109 -2.8697
    6MOL0     H  756   1.159   4.466   2.816 -1.4311 -0.5476  0.3270
    6MOL0     H  757   1.188   4.357   3.108  1.0618  2.2707  2.5514
    6MOL0     H  758   1.163   4.530   3.068 -1.6891 -0.4189 -1.2353
    6MOL0     H  759   0.956   4.402   3.125  1.7190 -0.7872  1.7772
    6MOL0     H  760   0.988   4.291   2.996  0.3812  0.1900  0.2087
    6MOL0     H  761   0.891   4.643   3.100 -0.5343 -0.9731 -0.0885
    6MOL0     H  762   0.784   4.853   2.983 -0.9469 -0.2549  0.0182
    6MOL0     H  763   0.776   4.873   2.815 -1.4540  3.0696  2.6090
    6MOL0     H  764   0.587   4.737   2.795  1.4990  0.0419  0.4054
    6MOL0     H  765   0.546   4.889   2.873 -1.9464 -0.5841  1.0366
    6MOL0     H  766   0.543   4.752   3.098 -1.2089 -0.7627 -0.5141
    6MOL0     H  767   0.537   4.604   3.007  0.3210  0.0796  2.1509
    6MOL0     H  768   0.340   4.838   2.981  3.0778  1.0757  4.8694
    6MOL0     H  769   0.310   4.697   3.086  1.7676  2.5420  2.5176
    6MOL0     H  770   0.176   4.520   2.728 -2.4935  1.6665  1.8632
    6MOL0     H  771   0.122   4.583   2.397  3.7079  1.9295  2.4287
    6MOL0     H  772   0.096   4.477   2.528 -0.0760 -0.2114 -1.0661
    6MOL0     H  773  -0.044   4.566   2.488  0.7021 -3.3254  0.5654
    6MOL0     H  774  -0.161   5.107   2.466 -0.8770  0.2219  0.4579
    6MOL0     H  775  -0.279   5.259   2.320  0.4172  0.0174  0.5040
    6MOL0     H  776  -0.344   5.418   2.202  0.4603  1.1069  0.5863
    6MOL0     H  777  -0.222   5.523   2.145 -0.1839  1.3181 -2.0819
    6MOL0     H  778  -0.406   5.569   2.014 -0.7288 -0.5454 -0.7390
    6MOL0     H  779  -0.286   5.473   1.912 -0.7743 -2.4237 -2.5280
    6MOL0     H  780  -0.409   5.274   1.964  1.5377  0.7438  3.9688
    6MOL0     H  781  -0.511   5.386   1.857 -2.3662  0.3850  0.0148
    6MOL0     H  782  -0.617   5.248   2.021 -1.5327  1.5654 -2.1114
    6MOL0     H  783  -0.531   5.331   2.157  1.5314 -4.0801 -1.8449
    6MOL0     H  784  -0.755   5.429   1.977  1.0774  2.1746 -1.3565
    6MOL0     H  785  -0.649   5.543   2.069  1.3131 -0.3787  0.6415
    6MOL0     H  786  -0.710   5.460   2.274 -1.8941  3.7872 -0.1953
    6MOL0     H  787  -0.849   5.518   2.203 -0.9136 -0.2959  1.4294
    6MOL0     H  788  -0.771   5.230   2.246 -1.2264 -2.4007 -1.5493
    6MOL0     H  789  -0.884   5.255   2.128  0.1498  2.2775  0.1014
    6MOL0     H  790  -1.004   5.202   2.336 -0.6968 -1.0846 -0.2999
    6MOL0     H  791  -1.062   5.357   2.276 -1.0222 -0.6593  2.9398
    6MOL0     H  792   0.039   5.231   2.039  0.0101 -3.0915 -0.9906
    6MOL0     H  793   0.174   5.098   2.205  0.0874 -2.4920 -0.7286
    6MOL0     H  794   0.240   4.994   2.626  0.7403 -0.6115  1.0917
    6MOL0     H  795   0.352   4.907   2.795 -0.2485 -0.0178  0.9313
    6MOL0     H  796   1.367   3.899   2.656 -0.0146  1.9455 -1.1612
    6MOL0     H  797   1.331   3.670   2.623 -0.7254  1.3198 -0.3988
    6MOL0     H  798   1.546   3.312   2.291 -1.6781  1.4598  0.0218
    6MOL0     H  799   1.516   3.082   2.199 -1.8388  2.1354 -2.5143
    6MOL0     H  800   1.280   2.710   2.345  1.0944 -0.8773  0.8347
    6MOL0     H  801   1.184   2.846   2.411  0.7749  1.4236 -0.7730
    6MOL0     H  802   1.119   2.915   2.177  0.3885 -0.8317 -4.7804
    6MOL0     H  803   1.049   2.760   2.231 -1.1226  0.6850  0.4174
    6MOL0     H  804   1.300   2.743   2.060 -0.0675  2.0198 -1.1330
    6MOL0     H  805   1.143   2.800   1.994  0.2712  0.4895 -0.8083
    6MOL0     H  806   1.196   2.552   1.969  0.0617  0.2910  0.4884
    6MOL0     H  807   1.047   2.580   2.059 -0.1101 -0.4141  0.1218
    6MOL0     H  808   1.305   2.349   2.301  2.3950  1.2138 -0.2304
    6MOL0     H  809   1.227   3.006   2.507  1.3984 -2.2235  0.4438
    6MOL0     H  810   1.282   3.204   2.614 -0.9341 -0.3649 -1.1815
    7MOL0     O  811  10.145   7.630   7.772  0.9286 -0.0666  0.3805
    7MOL0     C  812  10.120   7.612   7.885 -0.4367 -0.0422  0.1275
    7MOL0     O  813  10.156   7.698   7.987 -0.8400  0.6699  0.3681
    7MOL0     C  814  10.223   7.813   7.950  0.1682  0.1229 -0.0090
    7MOL0     C  815  10.165   7.941   7.914  0.1995 -0.4542 -0.6558
    7MOL0     C  816  10.243   8.045   7.867  0.6077 -0.5675 -0.5667
    7MOL0     C  817  10.387   8.039   7.883 -0.4749  0.0055 -0.9108
    7MOL0     O  818  10.468   8.143   7.860  0.4813 -0.5417 -0.4103
    7MOL0     C  819  10.486   8.168   7.724  0.4934 -0.3002 -0.2913
    7MOL0     C  820  10.557   8.300   7.696  1.0623 -0.2516  0.1904
    7MOL0     C  821  10.454   8.412   7.714 -0.3018 -0.2169 -0.1546
    7MOL0     C  822  10.383   8.437   7.583 -0.1869 -0.1996  0.1304
    7MOL0     C  823  10.270   8.550   7.598  1.0994 -0.7591 -0.6272
    7MOL0     C  824  10.133   8.492   7.634 -0.1518  0.1057  0.4046
    7MOL0     C  825  10.044   8.610   7.672  1.0664  0.0292 -0.6886
    7MOL0     C  826   9.893   8.573   7.649 -0.0680 -0.3076 -0.2741
    7MOL0     N  827   9.811   8.687   7.623  0.3609 -0.8120  0.4697
    7MOL0     C  828   9.775   8.783   7.720 -0.6304 -0.2075  0.4267
    7MOL0     C  829   9.725   8.882   7.656  0.1288 -0.4088  0.8785
    7MOL0     C  830   9.710   9.022   7.698 -0.8125 -0.2685  0.3792
    7MOL0     C  831   9.636   9.054   7.828 -1.1654  1.0131 -0.5578
    7MOL0     C  832   9.488   9.011   7.819 -0.4509 -0.9651  0.5048
    7MOL0     C  833   9.390   9.066   7.920 -1.0318  0.2172  0.0487
    7MOL0     O  834   9.256   9.053   7.863  0.0335 -0.2382 -0.1136
    7MOL0     C  835   9.156   9.101   7.936  0.0305  0.4797 -0.4797
    7MOL0     C  836   9.173   9.125   8.075  0.6683 -0.0960 -0.2387
    7MOL0     C  837   9.071   9.201   8.137  0.4937 -1.0761  0.6920
    7MOL0     C  838   9.090   9.221   8.289 -0.6866 -0.1967  0.2919
    7MOL0     C  839   8.972   9.273   8.064 -0.7385 -0.0279 -0.3584
    7MOL0     C  840   8.904   9.390   8.127 -0.0870  0.9467  0.6715
    7MOL0     O  841   8.814   9.381   8.227 -0.1530  0.4922 -0.7126
    7MOL0     C  842   8.749   9.500   8.264 -0.5402 -0.2924  1.5124
    7MOL0     C  843   8.618   9.492   8.308  0.3540 -0.1935 -0.9226
    7MOL0     C  844   8.544   9.597   8.363  0.8123  0.0534 -1.4787
    7MOL0     C  845   8.608   9.713   8.382  1.0368 -0.6179 -0.5396
    7MOL0     O  846   8.550   9.828   8.444 -0.7863 -0.0921  1.3356
    7MOL0     C  847   8.411   9.845   8.451  0.8145 -0.6385 -0.2722
    7MOL0     C  848   8.355   9.796   8.587  0.7382 -0.3299  0.0444
    7MOL0     C  849   8.202   9.835   8.611  0.5380 -0.5765  0.0815
    7MOL0     C  850   8.187   9.987   8.646 -0.7190 -0.1480  0.0364
    7MOL0     C  851   8.043  10.019   8.663  1.2514 -0.1384 -0.1038
    7MOL0     C  852   8.020  10.122   8.777  0.5978  0.2821  0.7034
    7MOL0     C  853   7.870  10.160   8.793  0.7983  0.8194  0.3420
    7MOL0     C  854   7.843  10.241   8.910 -0.3844  0.3053 -0.3182
    7MOL0    Cl  855   7.670  10.295   8.907  0.0501  0.0468 -0.4943
    7MOL0     C  856   8.741   9.731   8.332  0.1169 -0.3724  0.2303
    7MOL0     C  857   8.818   9.625   8.275 -0.0693  0.0035 -0.7504
    7MOL0     O  858   8.943   9.493   8.072 -0.0532  0.3882  0.5574
    7MOL0     C  859   8.960   9.251   7.920 -0.5284 -0.0947  0.0544
    7MOL0     C  860   9.047   9.154   7.857 -0.2003 -0.5104 -0.2078
    7MOL0     N  861   9.714   8.851   7.521 -0.3986 -0.5373 -0.0165
    7MOL0     N  862   9.765   8.734   7.506  0.4159  0.5895 -0.3402
    7MOL0     C  863  10.440   7.916   7.926 -0.1622  0.1551  1.2849
    7MOL0     C  864  10.367   7.803   7.953  1.5090 -0.3269 -0.0883
    7MOL0     C  865  10.036   7.489   7.910 -0.4301  1.2474 -0.4256
    7MOL0     C  866   9.960   7.419   7.810 -0.5604 -0.0945  0.0300
    7MOL0     C  867   9.878   7.319   7.851  0.2476  0.3296  0.0085
    7MOL0     C  868   9.895   7.259   7.970 -0.7339  0.8022  0.2161
    7MOL0     O  869   9.829   7.141   7.996 -0.0077  0.0687  0.2378
    7MOL0     C  870   9.745   7.073   7.898 -0.1743  0.0713 -0.3054
    7MOL0     C  871   9.692   6.939   7.948 -0.2030  0.5395  0.8086
    7MOL0     C  872   9.800   6.834   7.944  0.1528  0.3654 -0.1622
    7MOL0     C  873   9.768   6.732   8.049 -0.2945 -0.3110  0.2492
    7MOL0     C  874   9.886   6.651   8.049  1.0949 -0.6615  0.3226
    7MOL0     C  875   9.995   6.602   8.045  0.0822 -1.2245  0.2245
    7MOL0     C  876   9.972   7.327   8.070  0.7522  0.1199  0.3241
    7MOL0     C  877  10.043   7.439   8.044  0.0881 -0.7457 -0.2664
    7MOL0     H  878  10.057   7.947   7.924  0.3283  0.0739  0.6092
    7MOL0     H  879  10.190   8.128   7.821 -0.8546 -2.1665 -1.8767
    7MOL0     H  880  10.535   8.091   7.665 -0.2913  1.3818 -3.4077
    7MOL0     H  881  10.389   8.169   7.672  0.8990 -2.1111 -1.1733
    7MOL0     H  882  10.634   8.311   7.773  0.2950  1.5465  0.7611
    7MOL0     H  883  10.601   8.296   7.596 -0.8516  1.9587 -0.8171
    7MOL0     H  884  10.388   8.380   7.795  0.4492 -1.6903 -0.0837
    7MOL0     H  885  10.498   8.508   7.744 -2.2437  1.1718 -1.5306
    7MOL0     H  886  10.462   8.484   7.524 -0.7154  0.5050 -0.0253
    7MOL0     H  887  10.349   8.346   7.533 -2.0066  0.4618  0.0769
    7MOL0     H  888  10.313   8.611   7.678  0.6831  0.4831 -1.3303
    7MOL0     H  889  10.268   8.603   7.502 -1.0309  1.1299  0.3640
    7MOL0     H  890  10.095   8.449   7.541 -0.1254  0.0383  0.4251
    7MOL0     H  891  10.139   8.412   7.709  0.4411  1.0378  1.3787
    7MOL0     H  892  10.051   8.637   7.777 -1.4124 -0.0771 -0.4284
    7MOL0     H  893  10.072   8.697   7.612 -2.4833  1.6754 -0.2107
    7MOL0     H  894   9.856   8.526   7.740  0.8175  1.6256  1.1504
    7MOL0     H  895   9.870   8.514   7.560  0.8013  0.1513 -0.8204
    7MOL0     H  896   9.776   8.768   7.828 -0.8251 -1.0385  0.3226
    7MOL0     H  897   9.808   9.067   7.713  0.5569 -2.0598 -2.3213
    7MOL0     H  898   9.662   9.078   7.616 -1.1431  1.3939  1.6481
    7MOL0     H  899   9.639   9.162   7.844 -3.4543  1.5023 -2.7742
    7MOL0     H  900   9.681   9.015   7.920 -3.8873 -0.2170  0.3628
    7MOL0     H  901   9.477   8.902   7.816  2.2291 -1.3048  0.4049
    7MOL0     H  902   9.463   9.048   7.719  0.7719 -0.0590  0.5087
    7MOL0     H  903   9.407   9.173   7.936 -0.3911  0.3859 -1.5583
    7MOL0     H  904   9.401   9.009   8.013  2.2855  1.3617  0.5240
    7MOL0     H  905   9.249   9.078   8.137  0.7792  0.4397  0.0356
    7MOL0     H  906   9.184   9.276   8.302 -1.7041  2.1447 -1.4131
    7MOL0     H  907   9.006   9.283   8.322 -1.2119 -0.7122 -0.0601
    7MOL0     H  908   9.085   9.131   8.351 -2.6386  0.0747  0.6079
    7MOL0     H  909   8.574   9.393   8.315  1.9583 -0.7996  2.3543
    7MOL0     H  910   8.440   9.583   8.390  1.2394 -0.1723  0.1097
    7MOL0     H  911   8.382   9.949   8.436 -2.7990 -1.7208 -1.8771
    7MOL0     H  912   8.357   9.799   8.367 -0.0454  2.0945 -1.3377
    7MOL0     H  913   8.367   9.687   8.584  1.6129 -0.2476  0.2345
    7MOL0     H  914   8.418   9.828   8.670  1.9595 -1.4961 -0.3840
    7MOL0     H  915   8.165   9.766   8.687  2.3430 -0.7404  0.8585
    7MOL0     H  916   8.138   9.821   8.523 -3.7776  2.6675  2.3259
    7MOL0     H  917   8.231   9.997   8.746 -2.4352 -0.4854  0.8503
    7MOL0     H  918   8.235  10.056   8.576 -1.3758 -1.4152 -1.7203
    7MOL0     H  919   7.982   9.930   8.684  3.2825 -1.4507  0.5197
    7MOL0     H  920   8.002  10.069   8.575  0.3276  0.5346  0.6892
    7MOL0     H  921   8.076  10.088   8.865 -0.6638 -0.9218  1.0936
    7MOL0     H  922   8.067  10.220   8.768 -0.0197  0.7663  2.3831
    7MOL0     H  923   7.823  10.066   8.823  2.1866 -0.3144 -0.9147
    7MOL0     H  924   7.822  10.204   8.705  0.9726  3.1015  1.3183
    7MOL0     H  925   7.895  10.336   8.897 -1.1198  1.2062  2.5827
    7MOL0     H  926   7.872  10.194   9.004  3.9410 -1.2372 -2.1580
    7MOL0     H  927   8.787   9.829   8.343  1.8600 -1.1925  0.5974
    7MOL0     H  928   8.922   9.630   8.243 -0.3124 -2.5870 -2.2824
    7MOL0     H  929   8.880   9.303   7.869 -2.6529 -2.9402  0.2312
    7MOL0     H  930   9.047   9.136   7.750 -2.5729 -0.4400 -0.2723
    7MOL0     H  931  10.545   7.913   7.950  0.0452  2.0811  0.7586
    7MOL0     H  932  10.418   7.711   7.980  1.2604 -0.7234 -0.9221
    7MOL0     H  933   9.965   7.443   7.705 -0.3145  0.7667  0.2272
    7MOL0     H  934   9.829   7.265   7.771  1.1629  1.0236 -1.0583
    7MOL0     H  935   9.657   7.130   7.867  0.4721  2.0138  1.2199
    7MOL0     H  936   9.804   7.046   7.810  1.4142 -3.0728  1.5471
    7MOL0     H  937   9.612   6.906   7.880  0.0130  1.8824 -0.1329
    7MOL0     H  938   9.648   6.953   8.047 -1.3315  0.8245  0.2805
    7MOL0     H  939   9.899   6.879   7.960  0.4662 -0.5267  0.5769
    7MOL0     H  940   9.813   6.780   7.850 -1.2673  0.3407 -0.3638
    7MOL0     H  941   9.697   6.654   8.020 -0.8625  0.2434  0.1215
    7MOL0     H  942   9.751   6.770   8.150 -2.4146 -0.7109  0.0729
    7MOL0     H  943  10.101   6.589   8.051  0.1943 -0.2832  0.4016
    7MOL0     H  944   9.984   7.280   8.167 -2.8031  1.5734  1.6109
    7MOL0     H  945  10.109   7.475   8.122  1.2726 -4.0645  0.4122
    8MOL0     O  946   8.642  10.416   0.677 -0.4214 -0.2106  0.4986
    8MOL0     C  947   8.544  10.357   0.639 -0.3205 -0.1569  0.3421
    8MOL0     O  948   8.542  10.275   0.527 -0.0029 -0.2546 -0.7247
    8MOL0     C  949   8.645  10.285   0.439  0.6416 -0.0574 -0.2536
    8MOL0     C  950   8.640  10.363   0.326  0.0737  0.3403  0.3428
    8MOL0     C  951   8.740  10.355   0.230 -0.2795 -0.4931  0.2009
    8MOL0     C  952   8.853  10.287   0.267  0.6066 -0.1912  1.3711
    8MOL0     O  953   8.958  10.318   0.180 -0.1136 -0.3242  0.0780
    8MOL0     C  954   9.020  10.206   0.118  0.6052 -0.6004 -0.0636
    8MOL0     C  955   9.107  10.233  -0.004 -0.3867  0.5021 -0.3524
    8MOL0     C  956   9.033  10.289  -0.124  0.4053 -0.1802  0.9992
    8MOL0     C  957   9.138  10.311  -0.229  0.8372 -0.3111 -0.0543
    8MOL0     C  958   9.186  10.451  -0.216 -0.6201 -0.6756  0.1830
    8MOL0     C  959   9.299  10.484  -0.316  0.3432 -0.3839  0.4509
    8MOL0     C  960   9.316  10.641  -0.348  0.9082  0.8544 -0.2305
    8MOL0     C  961   9.380  10.714  -0.233 -0.2634  0.0852  0.0422
    8MOL0     N  962   9.401  10.856  -0.260 -0.9001 -0.5549  0.8814
    8MOL0     C  963   9.299  10.957  -0.262 -0.0566 -0.0569 -0.2038
    8MOL0     C  964   9.366  11.070  -0.310 -0.9248  0.4132 -1.0262
    8MOL0     C  965   9.307  11.204  -0.302  0.2752 -0.0074  0.3186
    8MOL0     C  966   9.304  11.277  -0.168 -0.2519  0.0228  0.0537
    8MOL0     C  967   9.444  11.268  -0.113  0.3919 -0.3740  0.8924
    8MOL0     C  968   9.464  11.358   0.013  0.7395  0.2654 -0.0905
    8MOL0     O  969   9.460  11.499  -0.012 -0.6034 -0.0493  0.2694
    8MOL0     C  970   9.560  11.533  -0.089 -0.5016  0.0096 -0.3765
    8MOL0     C  971   9.684  11.568  -0.048 -0.0917 -0.1174 -0.2561
    8MOL0     C  972   9.776  11.634  -0.133 -0.4099  1.1289 -0.3278
    8MOL0     C  973   9.912  11.661  -0.069 -0.7980  0.6801  0.0072
    8MOL0     C  974   9.740  11.666  -0.265  0.3379 -0.5824  0.2902
    8MOL0     C  975   9.831  11.722  -0.372 -0.4020  0.0427  0.1758
    8MOL0     O  976   9.969  11.689  -0.375 -0.0102 -0.0717  0.5595
    8MOL0     C  977  10.029  11.681  -0.497 -0.2039 -0.5231 -0.5926
    8MOL0     C  978   9.964  11.662  -0.620  0.6498 -0.1330  0.0757
    8MOL0     C  979  10.041  11.647  -0.744 -0.1527  0.6125 -0.4392
    8MOL0     C  980  10.177  11.645  -0.737 -1.0131 -0.3556  0.1861
    8MOL0     O  981  10.250  11.620  -0.859  0.3561  0.1675 -0.3131
    8MOL0     C  982  10.392  11.604  -0.852  0.0997 -0.7465 -0.1463
    8MOL0     C  983  10.441  11.531  -0.971  0.2201  0.3760 -0.7105
    8MOL0     C  984  10.587  11.497  -0.972  0.1378 -0.1370  0.1780
    8MOL0     C  985  10.610  11.412  -1.099 -0.1191 -0.2801  0.4019
    8MOL0     C  986  10.587  11.258  -1.077  0.1695  0.1772 -0.3769
    8MOL0     C  987  10.617  11.187  -1.205 -0.2856  0.0675 -0.7406
    8MOL0     C  988  10.516  11.064  -1.205  0.3241 -0.6071  0.0997
    8MOL0     C  989  10.533  10.995  -1.335 -1.2110 -0.1599 -0.3619
    8MOL0    Cl  990  10.439  10.842  -1.334  0.0560  0.1254  0.2820
    8MOL0     C  991  10.244  11.671  -0.615 -0.1703 -0.8972 -0.6928
    8MOL0     C  992  10.164  11.685  -0.497 -0.1457 -0.4078 -0.1562
    8MOL0     O  993   9.772  11.803  -0.450  0.3959  0.5413 -0.3853
    8MOL0     C  994   9.614  11.627  -0.299 -0.6115 -0.0465 -0.5076
    8MOL0     C  995   9.519  11.572  -0.211  0.6719  0.4666  0.0203
    8MOL0     N  996   9.502  11.033  -0.324 -0.0837 -0.5579  0.6964
    8MOL0     N  997   9.521  10.907  -0.307  0.7887 -1.3362  0.1276
    8MOL0     C  998   8.868  10.224   0.389 -0.2307  0.1655 -0.7594
    8MOL0     C  999   8.766  10.231   0.475 -0.4140  0.3419  0.5188
    8MOL0     C 1000   8.423  10.359   0.733  0.5554 -0.3790  0.1381
    8MOL0     C 1001   8.326  10.256   0.723 -0.5321  0.1846  0.0698
    8MOL0     C 1002   8.212  10.263   0.802  0.4650  0.7556 -0.1117
    8MOL0     C 1003   8.193  10.357   0.898  0.4401 -0.6760 -0.6790
    8MOL0     O 1004   8.074  10.372   0.972  0.2827  0.5371  0.1786
    8MOL0     C 1005   7.979  10.271   0.974 -0.0702  0.2091 -0.8488
    8MOL0     C 1006   7.875  10.273   1.098  0.7116 -0.1770 -0.6243
    8MOL0     C 1007   7.961  10.266   1.222 -0.1317 -0.0776 -0.2375
    8MOL0     C 1008   7.883  10.248   1.346  0.2614  0.2134 -0.5042
    8MOL0     C 1009   7.793  10.135   1.353  0.9719 -0.1310 -0.3201
    8MOL0     C 1010   7.729  10.033   1.367  1.0022 -0.7937  0.5549
    8MOL0     C 1011   8.282  10.457   0.906 -0.5156 -0.2227  0.4797
    8MOL0     C 1012   8.402  10.462   0.827  0.2027  0.4752  0.0887
    8MOL0     H 1013   8.543  10.403   0.299  1.0563  3.2637  0.8511
    8MOL0     H 1014   8.735  10.425   0.148 -0.2765  1.1921  1.5942
    8MOL0     H 1015   9.083  10.160   0.194 -1.3284  0.2650  2.1969
    8MOL0     H 1016   8.939  10.138   0.090  0.9696 -1.2085  0.3411
    8MOL0     H 1017   9.190  10.302   0.014  0.3134 -0.0797 -1.2556
    8MOL0     H 1018   9.148  10.136  -0.034  1.1402 -0.2678  3.5987
    8MOL0     H 1019   8.978  10.199  -0.151  2.6768 -1.7545  1.3214
    8MOL0     H 1020   8.966  10.372  -0.100 -1.2029 -1.9699  3.1703
    8MOL0     H 1021   9.225  10.244  -0.221  1.8887  0.9328 -0.6198
    8MOL0     H 1022   9.104  10.290  -0.331 -2.0639  4.1397 -0.2889
    8MOL0     H 1023   9.104  10.524  -0.219  0.8786  1.1561  1.4575
    8MOL0     H 1024   9.227  10.476  -0.118  3.5454  2.8101 -2.0542
    8MOL0     H 1025   9.393  10.449  -0.272 -0.1317 -1.7962  0.3791
    8MOL0     H 1026   9.294  10.430  -0.412  0.2405 -2.7510  1.7171
    8MOL0     H 1027   9.390  10.642  -0.428 -0.1439  1.5972 -1.2350
    8MOL0     H 1028   9.221  10.675  -0.391 -0.7804 -1.7798  1.1613
    8MOL0     H 1029   9.480  10.673  -0.217 -0.7394 -1.2848 -0.2994
    8MOL0     H 1030   9.322  10.715  -0.140  0.0516  0.7739  0.2336
    8MOL0     H 1031   9.194  10.942  -0.238 -0.3816  1.6529 -0.4631
    8MOL0     H 1032   9.369  11.269  -0.364  1.5372  0.8167  2.3514
    8MOL0     H 1033   9.205  11.193  -0.342 -0.6643 -1.4987  2.8974
    8MOL0     H 1034   9.234  11.237  -0.095  1.7993 -4.5165 -0.1619
    8MOL0     H 1035   9.292  11.384  -0.191 -2.8364 -0.4874 -1.3870
    8MOL0     H 1036   9.511  11.310  -0.190 -0.3417  1.4139  1.1763
    8MOL0     H 1037   9.477  11.169  -0.080  0.4429  0.3024  2.9671
    8MOL0     H 1038   9.562  11.334   0.054  0.6241 -0.1672 -0.0633
    8MOL0     H 1039   9.378  11.324   0.072  0.1630 -2.3757 -2.2447
    8MOL0     H 1040   9.702  11.553   0.057 -2.8930 -4.4426 -0.1358
    8MOL0     H 1041   9.982  11.600  -0.127  0.8454  0.2067  2.3535
    8MOL0     H 1042   9.939  11.766  -0.081  0.2949  0.3991 -0.0998
    8MOL0     H 1043   9.919  11.632   0.037  2.9483  0.7548 -0.1015
    8MOL0     H 1044   9.856  11.663  -0.629  0.5014  3.8011  0.8041
    8MOL0     H 1045   9.983  11.631  -0.834 -1.9297  0.1515  0.7543
    8MOL0     H 1046  10.429  11.707  -0.859  1.0422 -1.0814 -0.2084
    8MOL0     H 1047  10.418  11.548  -0.762 -0.9885 -1.9150 -0.5300
    8MOL0     H 1048  10.394  11.433  -0.959  0.1197  0.5604  0.5250
    8MOL0     H 1049  10.403  11.583  -1.059 -0.2297  0.0572 -0.7048
    8MOL0     H 1050  10.615  11.436  -0.885 -0.3443 -1.3657 -0.4933
    8MOL0     H 1051  10.642  11.591  -0.969 -1.4363  0.8133  2.9235
    8MOL0     H 1052  10.552  11.454  -1.181 -0.1195  3.2100  1.9875
    8MOL0     H 1053  10.714  11.433  -1.124 -1.0759  1.5712 -2.5772
    8MOL0     H 1054  10.482  11.244  -1.049  1.2774 -2.2230  3.3264
    8MOL0     H 1055  10.643  11.223  -0.991  0.3084  1.8569  0.2596
    8MOL0     H 1056  10.592  11.255  -1.287 -1.4012 -0.8775 -1.2027
    8MOL0     H 1057  10.715  11.140  -1.202 -1.6609 -3.0404 -1.1729
    8MOL0     H 1058  10.411  11.092  -1.191  0.2746 -0.4559 -0.5321
    8MOL0     H 1059  10.544  10.991  -1.129 -0.5926  1.0559  2.1529
    8MOL0     H 1060  10.636  10.960  -1.348 -1.7438 -1.3834 -1.4867
    8MOL0     H 1061  10.505  11.063  -1.415  1.4962  2.5534  0.7963
    8MOL0     H 1062  10.351  11.689  -0.619 -0.2206 -0.8805 -3.5745
    8MOL0     H 1063  10.219  11.699  -0.405  1.0973 -1.5854 -0.6903
    8MOL0     H 1064   9.589  11.647  -0.402 -2.1753  0.7664  0.0076
    8MOL0     H 1065   9.424  11.545  -0.256  2.2583 -3.6806 -1.4103
    8MOL0     H 1066   8.959  10.167   0.406 -0.3751  0.4187  0.9867
    8MOL0     H 1067   8.760  10.184   0.573  1.3901  3.3169  2.2045
    8MOL0     H 1068   8.346  10.186   0.643 -2.6435  0.7226 -0.9716
    8MOL0     H 1069   8.137  10.185   0.797 -0.2474  1.3120  1.4129
    8MOL0     H 1070   7.928  10.275   0.877  0.4341 -1.3251 -1.2135
    8MOL0     H 1071   8.022  10.170   0.975 -0.6868 -0.0723  0.4485
    8MOL0     H 1072   7.807  10.188   1.091  3.1004 -2.1581 -1.6099
    8MOL0     H 1073   7.813  10.363   1.095  1.7266  0.5261 -2.4852
    8MOL0     H 1074   8.029  10.350   1.241  1.3465 -1.8181  2.8886
    8MOL0     H 1075   8.027  10.179   1.213  0.8399  0.8475 -4.0132
    8MOL0     H 1076   7.824  10.338   1.365  1.8492  0.9709  1.0766
    8MOL0     H 1077   7.952  10.238   1.430 -1.4963 -2.5760  0.7413
    8MOL0     H 1078   7.674   9.943   1.383 -0.4812 -0.1788 -0.7500
    8MOL0     H 1079   8.266  10.538   0.976  0.7621  1.7493 -1.3719
    8MOL0     H 1080   8.479  10.538   0.834  0.6891  0.0183 -0.2405
    9MOL0     O 1081   7.586   3.210   4.362  0.4055 -0.2011  0.4007
    9MOL0     C 1082   7.610   3.326   4.322  0.7306 -1.1492 -0.2655
    9MOL0     O 1083   7.645   3.433   4.407  0.5359 -0.0674  1.1763
    9MOL0     C 1084   7.659   3.420   4.544 -0.1106  0.0372  0.4644
    9MOL0     C 1085   7.588   3.332   4.627 -0.0435 -0.5019  0.2495
    9MOL0     C 1086   7.621   3.295   4.758 -0.3513 -0.7322 -0.5253
    9MOL0     C 1087   7.731   3.361   4.820  0.1352  0.4336  0.7567
    9MOL0     O 1088   7.773   3.315   4.940 -0.0126 -0.2702 -0.1243
    9MOL0     C 1089   7.764   3.411   5.045  0.2489 -0.4307  0.1422
    9MOL0     C 1090   7.686   3.342   5.159 -0.3877 -0.5696 -0.8582
    9MOL0     C 1091   7.777   3.244   5.237  1.1202  0.2619  0.5385
    9MOL0     C 1092   7.692   3.169   5.341  0.4391 -0.3912 -0.4338
    9MOL0     C 1093   7.786   3.073   5.425 -0.3698 -0.9759 -0.3720
    9MOL0     C 1094   7.898   3.152   5.508  0.1549 -0.2138 -0.2922
    9MOL0     C 1095   7.998   3.053   5.574 -0.5758 -1.5334  0.2313
    9MOL0     C 1096   8.097   3.005   5.466 -0.3061  0.1726 -0.5352
    9MOL0     N 1097   8.178   3.107   5.398 -1.1103 -0.8526  0.3808
    9MOL0     C 1098   8.131   3.179   5.288  1.0268  0.4094 -0.5755
    9MOL0     C 1099   8.215   3.279   5.268  0.3138  0.3893 -0.4638
    9MOL0     C 1100   8.203   3.382   5.162 -0.3672  0.5538  0.7261
    9MOL0     C 1101   8.238   3.321   5.025  0.2022 -0.2222  0.0799
    9MOL0     C 1102   8.111   3.302   4.936  0.1848 -0.2593 -0.5691
    9MOL0     C 1103   8.144   3.251   4.795  0.4564 -0.1125  0.3051
    9MOL0     O 1104   8.225   3.349   4.719  0.0614  0.5650 -0.0365
    9MOL0     C 1105   8.262   3.297   4.594  0.4975 -0.1289 -0.3701
    9MOL0     C 1106   8.286   3.156   4.569 -0.9906  0.5281 -0.5698
    9MOL0     C 1107   8.325   3.119   4.437  0.3067 -0.4657  0.3238
    9MOL0     C 1108   8.337   2.972   4.409 -0.4002  0.9481 -0.8266
    9MOL0     C 1109   8.349   3.219   4.342 -1.0925 -1.1955  0.2223
    9MOL0     C 1110   8.411   3.205   4.206 -0.8478  0.1860  0.3409
    9MOL0     O 1111   8.459   3.318   4.143 -0.0704  0.0396 -0.1232
    9MOL0     C 1112   8.527   3.297   4.023  0.3693  0.3029  0.3587
    9MOL0     C 1113   8.470   3.268   3.898 -0.6429 -0.1385 -0.5438
    9MOL0     C 1114   8.544   3.295   3.785 -0.2017  0.6398 -0.7918
    9MOL0     C 1115   8.679   3.323   3.791 -0.0249 -0.5315  0.4574
    9MOL0     O 1116   8.765   3.364   3.688  0.3855  0.1420 -0.1369
    9MOL0     C 1117   8.698   3.423   3.574 -0.1200  0.6116  0.5945
    9MOL0     C 1118   8.653   3.574   3.612 -0.3042 -0.1953 -0.1874
    9MOL0     C 1119   8.780   3.660   3.643  0.3738  0.9548  0.4505
    9MOL0     C 1120   8.734   3.791   3.703 -0.5787  0.0590  0.1889
    9MOL0     C 1121   8.842   3.897   3.729 -0.7252  0.0585  0.4222
    9MOL0     C 1122   8.937   3.877   3.844 -0.0775 -0.0271 -0.0551
    9MOL0     C 1123   9.049   3.988   3.862  0.4101  0.8692  0.7868
    9MOL0     C 1124   9.001   4.106   3.946  0.7168  0.6601 -0.6311
    9MOL0    Cl 1125   9.133   4.220   3.954 -0.0514 -0.5076  0.4307
    9MOL0     C 1126   8.738   3.331   3.924 -0.4369  0.5518 -0.1919
    9MOL0     C 1127   8.667   3.322   4.035  0.5538 -0.7004  0.2550
    9MOL0     O 1128   8.420   3.089   4.162  0.0875  0.9659 -0.1362
    9MOL0     C 1129   8.327   3.361   4.374 -0.5834 -0.4127 -0.3348
    9MOL0     C 1130   8.288   3.391   4.499 -0.5664 -0.7615  0.2168
    9MOL0     N 1131   8.299   3.287   5.376 -0.1962  0.8307 -0.0956
    9MOL0     N 1132   8.289   3.174   5.442  0.1880 -0.6537  0.1116
    9MOL0     C 1133   7.797   3.460   4.747  0.3292  0.6033  0.1633
    9MOL0     C 1134   7.769   3.483   4.607  0.5630  0.4160 -0.4051
    9MOL0     C 1135   7.598   3.363   4.182  0.1406  0.1510 -0.5219
    9MOL0     C 1136   7.552   3.491   4.137 -0.4483  0.2184  0.4250
    9MOL0     C 1137   7.532   3.505   3.995  0.7050 -0.1710  0.5317
    9MOL0     C 1138   7.556   3.398   3.903 -1.1225 -0.0800 -0.1496
    9MOL0     O 1139   7.538   3.405   3.770  0.0785  1.2465  0.1194
    9MOL0     C 1140   7.457   3.510   3.714 -0.8048 -0.3036 -0.6947
    9MOL0     C 1141   7.307   3.513   3.752 -0.5341  0.2199 -0.0190
    9MOL0     C 1142   7.224   3.391   3.701 -0.2803  0.3232  0.2693
    9MOL0     C 1143   7.229   3.363   3.552 -0.4374  0.3540 -0.5788
    9MOL0     C 1144   7.159   3.467   3.474 -0.5635 -0.0015  0.3853
    9MOL0     C 1145   7.107   3.564   3.416  0.0874 -0.5127  0.6783
    9MOL0     C 1146   7.603   3.279   3.955  0.5652  0.4770  0.0539
    9MOL0     C 1147   7.616   3.256   4.095  0.1545  0.0060  0.1745
    9MOL0     H 1148   7.511   3.268   4.585 -0.2804  0.4755 -0.8728
    9MOL0     H 1149   7.562   3.224   4.815 -0.9950  1.6880  2.0120
    9MOL0     H 1150   7.861   3.441   5.084 -0.8108  2.6883  0.6607
    9MOL0     H 1151   7.708   3.495   5.004  1.1838 -0.9674 -2.4558
    9MOL0     H 1152   7.660   3.425   5.225  4.9089  2.4183 -2.0266
    9MOL0     H 1153   7.591   3.295   5.130 -0.4849 -0.3837 -0.8475
    9MOL0     H 1154   7.831   3.178   5.169  1.4138 -1.9092  2.7736
    9MOL0     H 1155   7.856   3.295   5.293  0.5964  3.4204 -1.3672
    9MOL0     H 1156   7.628   3.234   5.400  1.7573 -1.5202  2.4390
    9MOL0     H 1157   7.624   3.093   5.300 -1.0647  0.9268 -0.4588
    9MOL0     H 1158   7.725   3.008   5.489 -0.5484 -2.2891 -1.8137
    9MOL0     H 1159   7.819   2.999   5.351 -0.3697 -0.7018 -0.6475
    9MOL0     H 1160   7.958   3.226   5.455 -0.0703 -1.1975 -1.9818
    9MOL0     H 1161   7.833   3.215   5.569  0.8159  2.4913 -2.2119
    9MOL0     H 1162   8.064   3.107   5.644 -2.9943 -0.1092  1.5547
    9MOL0     H 1163   7.944   2.981   5.636 -3.7272  1.2579  1.0090
    9MOL0     H 1164   8.033   2.952   5.396  0.0314  0.4768 -1.0812
    9MOL0     H 1165   8.158   2.932   5.521  0.2130 -0.2938 -1.6925
    9MOL0     H 1166   8.033   3.155   5.248  0.9248 -1.6234  0.7423
    9MOL0     H 1167   8.100   3.416   5.154 -0.1476  1.6750  2.1964
    9MOL0     H 1168   8.271   3.466   5.183  0.6095 -0.6422  2.6575
    9MOL0     H 1169   8.299   3.232   5.043  0.7349  0.1947  0.3670
    9MOL0     H 1170   8.313   3.391   4.986 -0.4056  1.4966  1.8101
    9MOL0     H 1171   8.067   3.402   4.936 -0.1215 -0.3844  0.2435
    9MOL0     H 1172   8.044   3.232   4.987  0.5687 -0.2106  0.0172
    9MOL0     H 1173   8.046   3.229   4.751  0.7916 -1.1243  0.0314
    9MOL0     H 1174   8.203   3.160   4.809 -2.2539 -2.8658 -3.9960
    9MOL0     H 1175   8.288   3.081   4.647 -0.7779  2.2013  1.0902
    9MOL0     H 1176   8.291   2.942   4.314 -0.1009 -1.7266 -0.2141
    9MOL0     H 1177   8.441   2.939   4.404 -1.3345 -2.3561 -0.9479
    9MOL0     H 1178   8.291   2.912   4.488  1.1837  0.8526  0.0636
    9MOL0     H 1179   8.363   3.250   3.896 -0.9095  1.3180 -0.7644
    9MOL0     H 1180   8.489   3.298   3.691  1.5762 -1.8139 -2.0283
    9MOL0     H 1181   8.770   3.424   3.491  1.7298  0.0239  2.1228
    9MOL0     H 1182   8.609   3.367   3.545 -0.0938  1.0143 -0.3139
    9MOL0     H 1183   8.599   3.628   3.533 -1.8980  5.0951  3.8494
    9MOL0     H 1184   8.599   3.564   3.706 -2.8351 -3.2679 -1.7951
    9MOL0     H 1185   8.840   3.688   3.556  0.9718 -0.9008  0.2155
    9MOL0     H 1186   8.852   3.607   3.706  2.3523 -0.3204 -2.6223
    9MOL0     H 1187   8.658   3.833   3.637 -1.2138 -0.4643  0.5675
    9MOL0     H 1188   8.686   3.778   3.800  0.3496  3.4132  1.2067
    9MOL0     H 1189   8.799   3.997   3.738  2.2556  2.0247 -3.7459
    9MOL0     H 1190   8.901   3.896   3.637 -1.2184 -0.4243  0.1038
    9MOL0     H 1191   8.869   3.874   3.930 -1.3988 -2.4638 -1.0906
    9MOL0     H 1192   8.992   3.783   3.835 -0.3092 -0.1555 -0.1524
    9MOL0     H 1193   9.074   4.019   3.760  0.7510 -1.5394  0.0726
    9MOL0     H 1194   9.138   3.946   3.911  0.8195  2.0172  1.0474
    9MOL0     H 1195   8.985   4.067   4.046 -0.1399 -0.4348 -1.1820
    9MOL0     H 1196   8.907   4.149   3.909 -0.5532  0.4157  2.0960
    9MOL0     H 1197   8.846   3.331   3.930 -0.4294  2.1514  0.0969
    9MOL0     H 1198   8.721   3.320   4.129  0.3592  0.2408  0.3962
    9MOL0     H 1199   8.354   3.446   4.313 -0.8728  0.9601  1.3768
    9MOL0     H 1200   8.268   3.490   4.539 -1.0930 -1.6603  2.2884
    9MOL0     H 1201   7.888   3.508   4.782  0.1271  1.5630 -0.5832
    9MOL0     H 1202   7.833   3.541   4.542 -1.8927  2.7139 -0.9425
    9MOL0     H 1203   7.535   3.574   4.205 -0.4875 -0.7133  1.5851
    9MOL0     H 1204   7.491   3.600   3.963  1.5246  1.1920  3.2122
    9MOL0     H 1205   7.487   3.611   3.743 -0.9267 -0.7214  1.0024
    9MOL0     H 1206   7.464   3.516   3.605  0.6175  4.0057 -0.5400
    9MOL0     H 1207   7.259   3.606   3.723 -0.8354  0.2419  0.5431
    9MOL0     H 1208   7.294   3.513   3.861  1.2737 -1.9487  0.2793
    9MOL0     H 1209   7.122   3.426   3.722 -0.7218  0.8777 -2.3826
    9MOL0     H 1210   7.252   3.303   3.760 -0.7447  0.7295  1.1174
    9MOL0     H 1211   7.192   3.263   3.528 -1.3358 -0.1909  2.5923
    9MOL0     H 1212   7.333   3.356   3.519  0.1504  1.0723  1.0047
    9MOL0     H 1213   7.068   3.642   3.353  0.0901 -0.8056  0.3108
    9MOL0     H 1214   7.629   3.197   3.890 -2.4666 -1.5249  1.1272
    9MOL0     H 1215   7.646   3.158   4.129 -1.2732 -0.4357  0.2470
   10MOL0     O 1216   1.706   4.345   4.237 -0.7336 -0.0619  0.0814
   10MOL0     C 1217   1.702   4.466   4.228 -0.0288 -1.1762  0.5543
   10MOL0     O 1218   1.785   4.556   4.294  0.6040 -0.2990 -0.6833
   10MOL0     C 1219   1.868   4.518   4.396  0.7021 -0.1318  0.0018
   10MOL0     C 1220   1.878   4.605   4.501  0.9194  0.6937 -0.3700
   10MOL0     C 1221   1.954   4.574   4.614 -0.0584 -0.2709 -0.2128
   10MOL0     C 1222   2.046   4.474   4.611  0.0086  0.5611 -0.2863
   10MOL0     O 1223   2.129   4.451   4.719  0.7837 -0.0082 -0.3192
   10MOL0     C 1224   2.146   4.321   4.757  0.6840  0.8001 -0.6821
   10MOL0     C 1225   2.234   4.300   4.884 -0.4876 -0.5043 -0.5319
   10MOL0     C 1226   2.373   4.339   4.848  0.9235 -0.1474  1.0163
   10MOL0     C 1227   2.388   4.490   4.890  0.7499 -0.4403  0.6512
   10MOL0     C 1228   2.529   4.516   4.838  0.3585  0.3988  0.2831
   10MOL0     C 1229   2.597   4.647   4.882  0.8212  0.6203  0.5302
   10MOL0     C 1230   2.742   4.656   4.820 -0.2887 -0.2388  0.4466
   10MOL0     C 1231   2.836   4.776   4.858  0.7676  0.1311  0.2357
   10MOL0     N 1232   2.813   4.821   4.996  0.0429 -0.4141 -0.2392
   10MOL0     C 1233   2.735   4.923   5.042  1.4756 -0.0436  0.4968
   10MOL0     C 1234   2.743   4.917   5.174 -0.9398  0.6009  0.1411
   10MOL0     C 1235   2.651   4.975   5.275  1.0357 -0.1964  0.0504
   10MOL0     C 1236   2.584   4.859   5.356 -0.9180 -0.2224 -0.2345
   10MOL0     C 1237   2.550   4.908   5.497 -0.3057 -0.1631  0.8034
   10MOL0     C 1238   2.473   4.813   5.579  0.0993  0.4262 -0.9594
   10MOL0     O 1239   2.341   4.828   5.526 -0.4302 -0.3816 -0.3385
   10MOL0     C 1240   2.257   4.917   5.590  0.4278 -0.1324 -0.3031
   10MOL0     C 1241   2.293   5.039   5.657  0.0966  1.0130  0.7490
   10MOL0     C 1242   2.197   5.126   5.704 -0.3384 -0.4656  0.5227
   10MOL0     C 1243   2.219   5.230   5.816  0.7182  0.5253 -0.5019
   10MOL0     C 1244   2.062   5.112   5.661  0.4290 -0.4636  0.2269
   10MOL0     C 1245   1.948   5.195   5.703  0.5794  0.1037  0.1051
   10MOL0     O 1246   1.825   5.135   5.684  0.1972 -0.1750  0.0185
   10MOL0     C 1247   1.714   5.210   5.713  0.4054 -0.2505  0.2743
   10MOL0     C 1248   1.657   5.296   5.611  0.2874 -0.2470 -0.3027
   10MOL0     C 1249   1.526   5.335   5.620 -0.1651 -0.6278 -0.5101
   10MOL0     C 1250   1.453   5.302   5.727  1.0036  0.5751 -0.1711
   10MOL0     O 1251   1.332   5.363   5.729 -0.2828  0.4886  0.5675
   10MOL0     C 1252   1.269   5.423   5.842  1.0244 -0.0250 -0.6564
   10MOL0     C 1253   1.151   5.514   5.788 -0.1536 -1.0286 -0.1139
   10MOL0     C 1254   1.009   5.446   5.787  0.0985  0.5456  0.5527
   10MOL0     C 1255   0.902   5.550   5.826  0.4178 -0.1490  0.8343
   10MOL0     C 1256   0.762   5.487   5.839 -0.9142  0.7018 -0.5264
   10MOL0     C 1257   0.657   5.594   5.881  0.4623 -0.3416  0.1315
   10MOL0     C 1258   0.517   5.543   5.869  0.1401 -0.3886  0.1771
   10MOL0     C 1259   0.413   5.664   5.879 -0.1296 -0.8003  0.5658
   10MOL0    Cl 1260   0.254   5.619   5.815 -0.2053 -0.0998 -0.1750
   10MOL0     C 1261   1.499   5.232   5.832 -0.0810  1.1067 -1.0076
   10MOL0     C 1262   1.636   5.192   5.829 -0.2378  0.9191 -0.7516
   10MOL0     O 1263   1.968   5.313   5.722  0.5091 -0.4454 -0.2042
   10MOL0     C 1264   2.024   4.992   5.592  0.0749 -0.9663  0.6557
   10MOL0     C 1265   2.123   4.906   5.555 -1.3892 -0.1768 -0.6292
   10MOL0     N 1266   2.850   4.833   5.204  0.1514  0.1885 -1.2940
   10MOL0     N 1267   2.891   4.781   5.100  0.0406  0.1579 -0.4573
   10MOL0     C 1268   2.051   4.389   4.498  0.2596 -0.4542  1.1205
   10MOL0     C 1269   1.969   4.417   4.394 -0.2814 -0.6377 -0.2824
   10MOL0     C 1270   1.582   4.513   4.149 -0.3476  0.5389 -0.6679
   10MOL0     C 1271   1.540   4.443   4.036 -0.5807 -0.8760 -0.4158
   10MOL0     C 1272   1.438   4.505   3.965  0.4549 -0.1113 -0.4729
   10MOL0     C 1273   1.371   4.617   4.015 -0.1815 -0.2538  0.0537
   10MOL0     O 1274   1.286   4.691   3.946 -0.5430 -0.3980  0.2982
   10MOL0     C 1275   1.275   4.683   3.796 -0.9537 -0.0315 -0.3493
   10MOL0     C 1276   1.374   4.775   3.720  0.3083  0.5548  0.8128
   10MOL0     C 1277   1.397   4.910   3.784 -0.1373  0.0745  0.0097
   10MOL0     C 1278   1.488   5.001   3.718 -0.2104  1.1146  0.6732
   10MOL0     C 1279   1.431   5.066   3.590  0.4721  0.0917 -0.8277
   10MOL0     C 1280   1.368   5.136   3.520 -0.3609 -0.5708  0.6220
   10MOL0     C 1281   1.409   4.677   4.136  0.4114 -0.0116  0.8903
   10MOL0     C 1282   1.512   4.620   4.210 -0.6381 -0.7317  1.9546
   10MOL0     H 1283   1.807   4.682   4.529 -1.3375 -1.1796 -0.6294
   10MOL0     H 1284   1.941   4.643   4.697  1.2622  0.3381 -0.4795
   10MOL0     H 1285   2.054   4.268   4.785  1.1634  0.2363 -0.1401
   10MOL0     H 1286   2.190   4.264   4.675  1.7867  1.0658 -0.2909
   10MOL0     H 1287   2.190   4.364   4.961 -2.6033 -0.0179 -2.0514
   10MOL0     H 1288   2.229   4.192   4.900  1.5773 -0.6776 -0.8097
   10MOL0     H 1289   2.440   4.268   4.896  0.8145 -1.1864 -0.3028
   10MOL0     H 1290   2.395   4.319   4.742  1.4921  0.6066  0.9837
   10MOL0     H 1291   2.315   4.559   4.846 -2.5867 -2.8897  1.8953
   10MOL0     H 1292   2.392   4.492   4.999  4.1900 -1.7551  0.6778
   10MOL0     H 1293   2.593   4.429   4.854  1.3846  0.4569 -2.9215
   10MOL0     H 1294   2.523   4.515   4.729 -2.7887 -0.9005  0.3541
   10MOL0     H 1295   2.536   4.736   4.862 -0.8199 -0.0927  2.0776
   10MOL0     H 1296   2.609   4.640   4.991 -0.6862  0.1003  0.6897
   10MOL0     H 1297   2.798   4.564   4.839  1.0144  0.2318 -0.9449
   10MOL0     H 1298   2.726   4.660   4.712 -1.1073 -0.4157  0.5523
   10MOL0     H 1299   2.819   4.859   4.789  0.9598 -0.3713 -0.4191
   10MOL0     H 1300   2.942   4.750   4.855  0.4525 -1.1056 -0.6342
   10MOL0     H 1301   2.661   4.970   4.978  1.4975 -0.0441  0.4717
   10MOL0     H 1302   2.715   5.020   5.351  0.1145  3.0275 -0.8795
   10MOL0     H 1303   2.573   5.036   5.228  1.3010  0.2916  0.2381
   10MOL0     H 1304   2.648   4.771   5.362  2.1536  1.9598  2.8381
   10MOL0     H 1305   2.485   4.830   5.319 -1.3962  0.1624  0.6780
   10MOL0     H 1306   2.497   5.003   5.489  1.2871  0.6309 -0.9183
   10MOL0     H 1307   2.640   4.928   5.556  0.9942 -0.9623 -0.8432
   10MOL0     H 1308   2.476   4.822   5.688  1.9192 -0.0572 -0.9274
   10MOL0     H 1309   2.516   4.716   5.554  0.4180  0.3672 -0.2019
   10MOL0     H 1310   2.392   5.052   5.699 -0.2607 -0.0745  1.9663
   10MOL0     H 1311   2.137   5.228   5.888  1.9141  0.0241  0.8991
   10MOL0     H 1312   2.293   5.195   5.889 -2.6430 -2.7506  1.7224
   10MOL0     H 1313   2.240   5.328   5.772  0.7112  0.3948 -0.7972
   10MOL0     H 1314   1.703   5.318   5.515 -0.6751  1.5628 -0.3809
   10MOL0     H 1315   1.490   5.379   5.528  1.8315  2.1880 -0.0401
   10MOL0     H 1316   1.237   5.342   5.909  1.8351 -1.1101 -1.5321
   10MOL0     H 1317   1.339   5.495   5.885 -0.6746  1.5226 -0.3743
   10MOL0     H 1318   1.151   5.592   5.865  2.6341 -3.1706  2.3557
   10MOL0     H 1319   1.182   5.557   5.692  1.7439  0.6820  1.1606
   10MOL0     H 1320   0.998   5.362   5.856 -1.8729  0.2686 -0.0357
   10MOL0     H 1321   0.995   5.409   5.685 -0.2614  2.6339 -0.2110
   10MOL0     H 1322   0.923   5.613   5.914 -1.4272  1.0420  0.4786
   10MOL0     H 1323   0.900   5.621   5.743 -2.7627  0.6094  1.4338
   10MOL0     H 1324   0.762   5.411   5.918 -1.9336  0.5222 -0.6933
   10MOL0     H 1325   0.731   5.437   5.747 -0.5001 -2.8056  1.0903
   10MOL0     H 1326   0.684   5.642   5.976  0.6927  2.5146 -1.2680
   10MOL0     H 1327   0.665   5.675   5.808 -1.8686  0.2789  0.4736
   10MOL0     H 1328   0.498   5.476   5.953 -0.9813  0.4461  0.6165
   10MOL0     H 1329   0.502   5.484   5.777 -1.4554 -2.0345  1.4157
   10MOL0     H 1330   0.450   5.735   5.805 -2.0990 -1.9675 -1.6448
   10MOL0     H 1331   0.417   5.707   5.979 -0.8116  0.6847 -0.0249
   10MOL0     H 1332   1.438   5.215   5.921  1.3079 -0.2279 -0.2562
   10MOL0     H 1333   1.670   5.128   5.910 -3.9500 -1.0588 -0.5362
   10MOL0     H 1334   1.920   4.973   5.568 -0.5970  2.1519  0.7582
   10MOL0     H 1335   2.109   4.817   5.494  3.6534 -1.7320 -0.0181
   10MOL0     H 1336   2.125   4.309   4.496 -0.0627 -0.7426 -0.3362
   10MOL0     H 1337   1.961   4.361   4.301  2.0985 -1.1704 -0.2369
   10MOL0     H 1338   1.582   4.354   3.992  2.9627  1.0499 -1.3237
   10MOL0     H 1339   1.418   4.461   3.867 -0.2229  0.2084 -0.4848
   10MOL0     H 1340   1.298   4.581   3.762 -0.0067  0.4173 -1.0980
   10MOL0     H 1341   1.176   4.715   3.762 -0.9418 -0.0320 -0.3841
   10MOL0     H 1342   1.347   4.765   3.614  0.4017 -4.5627  1.0566
   10MOL0     H 1343   1.466   4.718   3.731  0.5929  0.9716  0.6377
   10MOL0     H 1344   1.437   4.894   3.884  1.8383  1.0264 -0.5724
   10MOL0     H 1345   1.305   4.969   3.790  0.2151  0.7387 -0.9420
   10MOL0     H 1346   1.582   4.946   3.702 -0.8637 -1.4517  4.4409
   10MOL0     H 1347   1.521   5.082   3.782  0.5446 -0.7761  2.8074
   10MOL0     H 1348   1.318   5.192   3.443 -0.4084  1.2816  1.9348
   10MOL0     H 1349   1.345   4.757   4.173  1.3436  0.7991  0.7982
   10MOL0     H 1350   1.541   4.664   4.305 -0.3278  2.8158  0.3816
   11MOL0     O 1351   6.674   2.030   2.853  0.0153  0.0401  0.5352
   11MOL0     C 1352   6.718   2.091   2.956 -0.1536 -0.4130 -0.8527
   11MOL0     O 1353   6.727   2.228   2.973 -0.5875  0.4795 -0.6143
   11MOL0     C 1354   6.730   2.310   2.859 -1.1241 -0.1636  0.4815
   11MOL0     C 1355   6.674   2.436   2.864 -0.5975  0.7542 -0.3080
   11MOL0     C 1356   6.669   2.521   2.749 -0.4300 -0.9151  0.2258
   11MOL0     C 1357   6.723   2.480   2.629  0.2510  0.0744 -0.1812
   11MOL0     O 1358   6.725   2.558   2.513 -0.4051  0.4852  0.3940
   11MOL0     C 1359   6.649   2.677   2.497 -1.2613 -0.6253 -0.0627
   11MOL0     C 1360   6.507   2.649   2.466 -0.1164 -0.4239  0.5927
   11MOL0     C 1361   6.494   2.545   2.361 -0.8398  0.1463  0.1231
   11MOL0     C 1362   6.345   2.497   2.353 -0.6145 -0.9303  0.3510
   11MOL0     C 1363   6.328   2.423   2.215 -0.6458 -0.6746 -0.2904
   11MOL0     C 1364   6.187   2.351   2.199 -0.2240  0.5080 -0.4503
   11MOL0     C 1365   6.193   2.221   2.287  1.2015 -0.6265  0.4739
   11MOL0     C 1366   6.080   2.120   2.263 -0.0719  0.5496 -0.6233
   11MOL0     N 1367   6.113   1.978   2.309 -0.0655  0.1756  0.2239
   11MOL0     C 1368   6.163   1.948   2.434 -0.0370 -0.0147  0.1597
   11MOL0     C 1369   6.159   1.814   2.445 -0.6227  0.6543 -0.3294
   11MOL0     C 1370   6.198   1.735   2.565  0.3494 -0.4059  0.4758
   11MOL0     C 1371   6.300   1.802   2.657  0.1928  0.1248 -0.3992
   11MOL0     C 1372   6.437   1.736   2.643  0.1916 -0.6528 -0.9147
   11MOL0     C 1373   6.510   1.768   2.506 -0.1785  0.9702 -0.5109
   11MOL0     O 1374   6.541   1.900   2.481  0.1566 -0.5439  0.3661
   11MOL0     C 1375   6.641   1.912   2.388  0.5546 -0.3042 -0.0673
   11MOL0     C 1376   6.771   1.915   2.439 -0.2174  0.6721  0.9281
   11MOL0     C 1377   6.882   1.914   2.343  0.3686  0.2273 -0.2025
   11MOL0     C 1378   7.020   1.898   2.405  0.0209 -0.0282 -0.5545
   11MOL0     C 1379   6.846   1.922   2.207 -0.1007  0.2331 -0.9302
   11MOL0     C 1380   6.944   1.926   2.101 -0.5138  0.4492 -1.0270
   11MOL0     O 1381   6.930   2.028   2.019 -0.4443  1.1877  0.4113
   11MOL0     C 1382   7.022   2.039   1.919 -0.6819  0.6931 -0.2995
   11MOL0     C 1383   7.034   1.944   1.810  1.0780 -0.8014  0.3208
   11MOL0     C 1384   7.131   1.962   1.710  0.2290 -0.8572  0.2476
   11MOL0     C 1385   7.193   2.084   1.698 -0.3656  0.0135 -0.8591
   11MOL0     O 1386   7.274   2.098   1.590 -0.1008  0.2989  0.7308
   11MOL0     C 1387   7.384   2.185   1.601  0.1298 -0.0628 -0.0126
   11MOL0     C 1388   7.450   2.198   1.463 -0.5658  0.0283  0.6665
   11MOL0     C 1389   7.534   2.063   1.417 -0.7214 -0.2610  0.1090
   11MOL0     C 1390   7.674   2.049   1.485  0.5274  0.9229  0.3515
   11MOL0     C 1391   7.761   1.937   1.416 -0.4312  0.2014  0.1266
   11MOL0     C 1392   7.709   1.800   1.444 -0.4751 -0.2156 -0.5505
   11MOL0     C 1393   7.779   1.695   1.355  0.2346  0.1750 -0.3495
   11MOL0     C 1394   7.705   1.563   1.351  0.2095  0.1019  0.0681
   11MOL0    Cl 1395   7.706   1.476   1.502  0.3605  0.1712 -0.2108
   11MOL0     C 1396   7.170   2.181   1.796  0.2764  0.2646 -0.0516
   11MOL0     C 1397   7.095   2.161   1.903  0.9270  0.2904 -0.3308
   11MOL0     O 1398   7.041   1.849   2.114  0.7389  0.5596 -0.3178
   11MOL0     C 1399   6.715   1.923   2.162  0.1763  0.6834 -0.1271
   11MOL0     C 1400   6.616   1.907   2.254 -0.1745  0.1523  0.2134
   11MOL0     N 1401   6.108   1.761   2.330 -0.1616 -0.6462  0.1744
   11MOL0     N 1402   6.079   1.857   2.241 -0.5044  0.3484 -0.4937
   11MOL0     C 1403   6.778   2.350   2.618 -0.5834 -0.2271 -0.0057
   11MOL0     C 1404   6.779   2.270   2.727 -0.3703  0.5853 -0.6196
   11MOL0     C 1405   6.744   2.008   3.079 -1.2221  1.0184 -0.5263
   11MOL0     C 1406   6.821   2.054   3.186  0.4063 -0.0812  0.4852
   11MOL0     C 1407   6.840   1.977   3.290 -0.0976  0.3193  0.4526
   11MOL0     C 1408   6.811   1.848   3.299 -0.0233 -0.4792 -0.4184
   11MOL0     O 1409   6.862   1.780   3.402 -0.4274 -0.6432 -0.5109
   11MOL0     C 1410   6.858   1.639   3.397 -0.0637  0.3792  0.8898
   11MOL0     C 1411   6.903   1.575   3.522 -0.2811  0.6908  0.0764
   11MOL0     C 1412   7.056   1.610   3.561  0.1818 -0.4627  0.1151
   11MOL0     C 1413   7.072   1.625   3.708 -0.5565 -1.0364 -0.2342
   11MOL0     C 1414   7.219   1.630   3.751 -0.5591  0.2452  0.3286
   11MOL0     C 1415   7.335   1.661   3.786  0.7602  0.0079 -0.2456
   11MOL0     C 1416   6.743   1.794   3.191  0.7392 -0.0891  0.5042
   11MOL0     C 1417   6.704   1.876   3.084 -0.8760  0.3101  0.5696
   11MOL0     H 1418   6.635   2.456   2.963  1.3286 -0.8412  0.8356
   11MOL0     H 1419   6.633   2.622   2.762 -0.6134 -1.2749  3.4956
   11MOL0     H 1420   6.659   2.742   2.585 -1.5669 -0.1555 -0.3746
   11MOL0     H 1421   6.701   2.727   2.415 -1.5820  0.4645  0.3800
   11MOL0     H 1422   6.469   2.616   2.563  1.0020 -0.9569  0.8698
   11MOL0     H 1423   6.468   2.743   2.426  0.0981  0.2067  1.8108
   11MOL0     H 1424   6.520   2.591   2.265 -0.6468  1.9582  0.9944
   11MOL0     H 1425   6.559   2.458   2.371  0.0242  0.7607 -0.0066
   11MOL0     H 1426   6.329   2.423   2.432  1.6104 -0.8608  0.9528
   11MOL0     H 1427   6.269   2.574   2.367 -1.1041 -1.6342  1.8353
   11MOL0     H 1428   6.338   2.484   2.125 -2.8467 -2.3718 -1.7836
   11MOL0     H 1429   6.397   2.339   2.215  0.3075  0.0926  0.1598
   11MOL0     H 1430   6.107   2.417   2.233 -1.9424 -2.0132  0.6910
   11MOL0     H 1431   6.165   2.328   2.094  0.7931 -2.3381 -0.1433
   11MOL0     H 1432   6.278   2.162   2.251  0.4310 -0.3368 -1.9909
   11MOL0     H 1433   6.208   2.236   2.395 -3.2843 -3.2084  1.7326
   11MOL0     H 1434   6.058   2.124   2.156  1.5870 -1.3771 -1.0969
   11MOL0     H 1435   5.991   2.161   2.312  1.6784  1.2058  2.2375
   11MOL0     H 1436   6.163   2.014   2.520 -0.6690 -0.7591  0.7550
   11MOL0     H 1437   6.102   1.729   2.616 -0.3258  1.8650 -0.4227
   11MOL0     H 1438   6.214   1.628   2.547 -3.6925 -0.8992 -1.0870
   11MOL0     H 1439   6.270   1.789   2.762 -0.1730  1.3097 -0.3413
   11MOL0     H 1440   6.304   1.911   2.647  1.6899  0.2253  0.9054
   11MOL0     H 1441   6.414   1.630   2.658 -1.3262 -0.3771 -1.0506
   11MOL0     H 1442   6.496   1.768   2.730 -1.1882 -0.9780  0.1775
   11MOL0     H 1443   6.442   1.729   2.429  0.5486 -0.6077 -0.3889
   11MOL0     H 1444   6.605   1.716   2.511  0.0134  1.2913 -0.8049
   11MOL0     H 1445   6.783   1.909   2.547 -1.5620 -0.2303  1.0490
   11MOL0     H 1446   7.073   1.804   2.385 -0.8652 -1.1269  1.8557
   11MOL0     H 1447   7.093   1.976   2.384  1.1456 -0.0458  2.7462
   11MOL0     H 1448   7.018   1.897   2.514  0.0793  3.5241 -0.4158
   11MOL0     H 1449   6.982   1.850   1.823 -0.8577  0.0557 -0.8435
   11MOL0     H 1450   7.141   1.886   1.633  0.5708  4.5882 -5.9794
   11MOL0     H 1451   7.346   2.283   1.629 -1.7775 -1.1401  1.4680
   11MOL0     H 1452   7.449   2.149   1.681 -1.9923  1.2702  2.4937
   11MOL0     H 1453   7.368   2.211   1.392 -1.2029 -0.4869  1.2942
   11MOL0     H 1454   7.530   2.273   1.457 -1.1204  0.5169 -1.3031
   11MOL0     H 1455   7.545   2.078   1.309 -3.3897 -0.5002 -0.2780
   11MOL0     H 1456   7.474   1.973   1.430 -1.5862  0.3813  0.6807
   11MOL0     H 1457   7.727   2.142   1.464  3.0356 -0.1800  1.3781
   11MOL0     H 1458   7.662   2.032   1.593 -0.2389 -0.5858  0.0565
   11MOL0     H 1459   7.866   1.938   1.447 -0.1815 -2.2357 -0.4700
   11MOL0     H 1460   7.768   1.954   1.308  0.4017 -1.1574 -0.0662
   11MOL0     H 1461   7.718   1.775   1.551  0.6167 -0.3899 -0.6735
   11MOL0     H 1462   7.601   1.801   1.428 -0.9569  2.3045  1.9203
   11MOL0     H 1463   7.885   1.699   1.382 -0.1122  2.2627  0.9987
   11MOL0     H 1464   7.761   1.730   1.252 -0.1828 -0.9681 -0.6788
   11MOL0     H 1465   7.752   1.505   1.271 -1.5781 -0.3981 -0.6676
   11MOL0     H 1466   7.604   1.584   1.316  0.7015 -0.1872 -1.6066
   11MOL0     H 1467   7.210   2.281   1.788 -1.7758  1.0168 -2.0361
   11MOL0     H 1468   7.084   2.236   1.980  3.8129 -0.4437  0.9237
   11MOL0     H 1469   6.706   1.942   2.056 -1.3454 -0.2862 -0.1858
   11MOL0     H 1470   6.510   1.903   2.232 -0.3013 -0.8342  0.9751
   11MOL0     H 1471   6.805   2.307   2.523  1.4098 -0.3982  0.6033
   11MOL0     H 1472   6.807   2.166   2.710 -3.6274 -0.4659 -0.1663
   11MOL0     H 1473   6.845   2.160   3.186 -0.6001  0.1690  1.1012
   11MOL0     H 1474   6.897   2.015   3.375 -0.5552 -0.0879  0.9442
   11MOL0     H 1475   6.752   1.614   3.391 -0.1620  1.1235 -3.1039
   11MOL0     H 1476   6.916   1.600   3.312  0.2402  0.9746  0.8217
   11MOL0     H 1477   6.895   1.468   3.498 -0.3852  0.6855  0.1355
   11MOL0     H 1478   6.835   1.607   3.601 -1.1077  2.0211 -1.1204
   11MOL0     H 1479   7.076   1.709   3.522 -1.5758  0.3911  1.2429
   11MOL0     H 1480   7.138   1.550   3.520  0.7202 -0.1182  0.6763
   11MOL0     H 1481   7.013   1.544   3.753  0.7861 -2.2561 -0.5967
   11MOL0     H 1482   7.030   1.724   3.729  0.4421 -1.0210  2.0567
   11MOL0     H 1483   7.432   1.681   3.826  1.4238  0.4116 -1.9809
   11MOL0     H 1484   6.733   1.687   3.171  0.0233  0.5051 -2.9904
   11MOL0     H 1485   6.662   1.838   2.991 -0.9149  2.7491 -0.5125
   12MOL0     O 1486   7.859   9.549   0.349  0.3697  0.4362 -0.4333
   12MOL0     C 1487   7.950   9.476   0.383  0.8158  0.3074  0.0862
   12MOL0     O 1488   8.063   9.461   0.307 -0.0420  1.3045 -0.2379
   12MOL0     C 1489   8.080   9.549   0.193  0.2478  0.1306 -0.1659
   12MOL0     C 1490   8.022   9.524   0.073  0.2839 -0.4777 -1.2744
   12MOL0     C 1491   8.031   9.613  -0.039  0.2640  0.3899 -0.3679
   12MOL0     C 1492   8.087   9.740  -0.018  0.1154  0.6271  0.0894
   12MOL0     O 1493   8.085   9.825  -0.127 -0.5782  0.3446  0.1990
   12MOL0     C 1494   8.178   9.937  -0.120 -0.5316  0.2600 -0.1019
   12MOL0     C 1495   8.208   9.984  -0.256 -1.0751  0.0651  0.4997
   12MOL0     C 1496   8.238   9.861  -0.350 -0.0517 -0.8839  0.3090
   12MOL0     C 1497   8.295   9.927  -0.475 -0.3794 -0.4166  0.8231
   12MOL0     C 1498   8.314   9.821  -0.583  0.1380 -1.0154 -0.1245
   12MOL0     C 1499   8.427   9.718  -0.562  0.1262 -0.3726 -0.1718
   12MOL0     C 1500   8.426   9.624  -0.686 -0.1939 -0.2974  0.4492
   12MOL0     C 1501   8.535   9.509  -0.691  0.4479 -0.0027 -0.6669
   12MOL0     N 1502   8.681   9.556  -0.686 -0.1988 -0.5570 -0.0343
   12MOL0     C 1503   8.773   9.532  -0.783  0.2021 -0.1253  0.5194
   12MOL0     C 1504   8.896   9.588  -0.755 -0.9239  0.1106  0.1590
   12MOL0     C 1505   9.016   9.572  -0.833 -0.1494 -0.8261  0.0643
   12MOL0     C 1506   8.989   9.599  -0.982  0.0414 -0.4785 -0.1842
   12MOL0     C 1507   9.009   9.742  -1.024 -0.0918  0.1476  1.1986
   12MOL0     C 1508   8.873   9.811  -0.994 -0.6453  0.8767  0.3444
   12MOL0     O 1509   8.776   9.774  -1.102 -0.1943 -0.2652  0.3665
   12MOL0     C 1510   8.642   9.810  -1.080 -0.5481 -0.2492  0.8540
   12MOL0     C 1511   8.547   9.795  -1.190  0.8513 -0.8345 -0.4927
   12MOL0     C 1512   8.418   9.841  -1.178  0.7107  0.4634 -0.7133
   12MOL0     C 1513   8.326   9.798  -1.287  0.3620  0.8952  0.0901
   12MOL0     C 1514   8.379   9.925  -1.064 -0.1379  0.1624 -0.6868
   12MOL0     C 1515   8.239   9.992  -1.057  0.0005  0.2636  0.3471
   12MOL0     O 1516   8.189  10.009  -0.931 -0.1399  0.4808 -0.0894
   12MOL0     C 1517   8.160  10.132  -0.874 -0.1355 -1.1137 -0.3331
   12MOL0     C 1518   8.201  10.252  -0.935  0.2583  1.2318 -0.2146
   12MOL0     C 1519   8.159  10.375  -0.891  0.8385 -0.4407  0.3818
   12MOL0     C 1520   8.074  10.382  -0.784  0.0842 -0.0823 -0.1113
   12MOL0     O 1521   8.014  10.492  -0.736  0.8561  0.3127 -0.1623
   12MOL0     C 1522   8.032  10.619  -0.792  0.3045  0.0374  0.5424
   12MOL0     C 1523   7.994  10.713  -0.680 -0.2805  0.6598 -0.2419
   12MOL0     C 1524   8.079  10.689  -0.555  0.2379 -0.6016  1.4564
   12MOL0     C 1525   8.069  10.810  -0.457 -0.3682  0.0884  0.0930
   12MOL0     C 1526   8.161  10.793  -0.330  0.1579 -0.2865  1.3407
   12MOL0     C 1527   8.114  10.881  -0.212 -0.3830  0.5792  0.3028
   12MOL0     C 1528   8.189  10.870  -0.079  0.8307  0.5023 -0.4181
   12MOL0     C 1529   8.153  10.977   0.026 -0.7919  0.0970 -0.6174
   12MOL0    Cl 1530   7.986  10.968   0.065 -0.0207 -0.1611 -0.5457
   12MOL0     C 1531   8.035  10.265  -0.715 -0.6725 -0.2170  0.1876
   12MOL0     C 1532   8.078  10.140  -0.760 -0.3110 -0.4524  0.3045
   12MOL0     O 1533   8.179  10.030  -1.163 -0.0469  0.0753  0.0050
   12MOL0     C 1534   8.471   9.924  -0.960 -0.0942 -0.6493 -0.3660
   12MOL0     C 1535   8.596   9.869  -0.966 -0.4597  1.1420 -0.0145
   12MOL0     N 1536   8.871   9.650  -0.633 -0.0230 -0.0406  0.1915
   12MOL0     N 1537   8.747   9.634  -0.590 -0.1796  0.3343 -0.3277
   12MOL0     C 1538   8.148   9.759   0.098  1.1035  0.1900 -1.2741
   12MOL0     C 1539   8.146   9.675   0.205  0.6751 -0.4553  0.6010
   12MOL0     C 1540   7.933   9.407   0.512 -0.9491 -0.7227  0.1480
   12MOL0     C 1541   8.048   9.338   0.563 -0.2767 -1.0679  0.3739
   12MOL0     C 1542   8.044   9.268   0.684  0.8600 -0.2297 -0.2470
   12MOL0     C 1543   7.926   9.252   0.766 -0.7870  0.4471 -0.3231
   12MOL0     O 1544   7.936   9.170   0.880 -0.7565  0.2347  0.4277
   12MOL0     C 1545   7.819   9.090   0.909 -0.3348  0.5024 -0.6035
   12MOL0     C 1546   7.848   8.972   1.006 -0.7223 -1.3198  0.1425
   12MOL0     C 1547   7.997   8.972   1.046  0.2137 -0.5102 -0.3955
   12MOL0     C 1548   8.019   8.841   1.136  0.7403 -0.6307 -0.1374
   12MOL0     C 1549   8.146   8.770   1.096  0.3020  0.4289 -0.4519
   12MOL0     C 1550   8.243   8.705   1.067  0.3966  0.2184 -0.3657
   12MOL0     C 1551   7.813   9.306   0.701 -1.1430 -0.1434  0.0145
   12MOL0     C 1552   7.817   9.392   0.585 -0.0895 -0.0378 -0.0419
   12MOL0     H 1553   7.970   9.430   0.059 -1.0336  0.3183 -1.8134
   12MOL0     H 1554   7.989   9.588  -0.136 -3.0538 -0.0427  1.0573
   12MOL0     H 1555   8.129  10.027  -0.082 -3.3439 -1.8656  1.7626
   12MOL0     H 1556   8.271   9.916  -0.067 -0.1579 -1.0987 -1.2450
   12MOL0     H 1557   8.122  10.039  -0.297 -0.1985  1.5584  0.5908
   12MOL0     H 1558   8.297  10.046  -0.249 -0.4404 -0.6522 -0.8391
   12MOL0     H 1559   8.301   9.788  -0.298  0.6613  1.2584  2.6785
   12MOL0     H 1560   8.144   9.808  -0.369 -0.2125  0.3090 -2.7735
   12MOL0     H 1561   8.230  10.009  -0.506  1.4108  1.9191  2.8661
   12MOL0     H 1562   8.387   9.981  -0.451 -1.1326  1.2533  0.0950
   12MOL0     H 1563   8.220   9.765  -0.584 -1.4853  1.5538 -1.6052
   12MOL0     H 1564   8.333   9.868  -0.679 -0.1287 -3.4712 -1.4765
   12MOL0     H 1565   8.522   9.769  -0.543  0.3055 -1.2397  1.3617
   12MOL0     H 1566   8.410   9.663  -0.469 -3.9917 -0.1443 -0.6057
   12MOL0     H 1567   8.332   9.569  -0.701  0.2579 -2.1970  3.6370
   12MOL0     H 1568   8.455   9.685  -0.772 -1.8271  0.8411  0.6586
   12MOL0     H 1569   8.531   9.448  -0.781  3.7548  0.1378 -1.0326
   12MOL0     H 1570   8.534   9.447  -0.601  1.5007 -0.1953 -0.7709
   12MOL0     H 1571   8.768   9.465  -0.868  2.4522  0.8728 -0.4835
   12MOL0     H 1572   9.100   9.633  -0.797 -0.5933 -1.1226  1.7076
   12MOL0     H 1573   9.044   9.468  -0.813  1.1392 -0.2452  1.4784
   12MOL0     H 1574   8.895   9.556  -1.018  0.4174 -0.2049 -1.5375
   12MOL0     H 1575   9.065   9.552  -1.045 -1.0347  0.6858 -2.4918
   12MOL0     H 1576   9.032   9.760  -1.129 -2.7307 -0.8507  0.3810
   12MOL0     H 1577   9.084   9.792  -0.962 -0.2786 -0.5391  1.9996
   12MOL0     H 1578   8.894   9.918  -1.000  0.2027  0.8263  2.0222
   12MOL0     H 1579   8.848   9.786  -0.891  0.7332 -0.1575  0.4607
   12MOL0     H 1580   8.581   9.755  -1.285  1.8231  1.8575 -1.3679
   12MOL0     H 1581   8.331   9.859  -1.378 -2.0363  1.9938  0.6242
   12MOL0     H 1582   8.364   9.697  -1.301  3.5445  1.5416  2.8597
   12MOL0     H 1583   8.220   9.800  -1.259  0.2332  0.9082 -0.3751
   12MOL0     H 1584   8.265  10.238  -1.021 -0.3391  0.1298 -0.5023
   12MOL0     H 1585   8.197  10.463  -0.942 -1.0271 -1.6996 -3.5935
   12MOL0     H 1586   8.133  10.648  -0.822 -0.4956  0.6459 -1.8496
   12MOL0     H 1587   7.970  10.620  -0.882  4.6870 -4.0328 -3.1012
   12MOL0     H 1588   8.014  10.816  -0.711 -0.0160  0.2857 -1.3586
   12MOL0     H 1589   7.890  10.699  -0.650  0.3627 -0.1708  1.7749
   12MOL0     H 1590   8.181  10.689  -0.595 -0.6435  0.9677 -1.0572
   12MOL0     H 1591   8.053  10.592  -0.514  2.3918 -1.8072  0.1910
   12MOL0     H 1592   8.103  10.899  -0.511 -3.7346  1.3137 -0.2059
   12MOL0     H 1593   7.967  10.823  -0.421  0.9931  0.1644  4.5055
   12MOL0     H 1594   8.262  10.822  -0.360  0.8069 -3.0570  0.5329
   12MOL0     H 1595   8.174  10.688  -0.302  3.8985 -0.5632 -0.7919
   12MOL0     H 1596   8.133  10.981  -0.251 -2.3814  1.4966  1.5123
   12MOL0     H 1597   8.008  10.869  -0.185 -0.8900 -1.0020 -2.1053
   12MOL0     H 1598   8.297  10.882  -0.092  1.2229  1.1818  2.6683
   12MOL0     H 1599   8.172  10.769  -0.038  0.3129  1.0138  0.6780
   12MOL0     H 1600   8.175  11.077  -0.014 -0.0317  0.7976  1.4281
   12MOL0     H 1601   8.226  10.962   0.106 -1.1828  0.0516 -0.2684
   12MOL0     H 1602   7.973  10.281  -0.627 -0.0355 -1.6975  0.9473
   12MOL0     H 1603   8.052  10.047  -0.711  0.6643 -3.5744 -4.3693
   12MOL0     H 1604   8.446   9.965  -0.862 -2.2925 -4.1723  0.7256
   12MOL0     H 1605   8.657   9.883  -0.877  1.4027 -1.0363 -0.8690
   12MOL0     H 1606   8.198   9.856   0.101 -1.9318  1.8984 -1.4427
   12MOL0     H 1607   8.189   9.707   0.300  1.9504  0.9561 -0.4041
   12MOL0     H 1608   8.138   9.343   0.503  0.0918  1.0260  0.9900
   12MOL0     H 1609   8.128   9.208   0.716 -0.4470 -1.9652  0.0726
   12MOL0     H 1610   7.746   9.162   0.948 -1.1517  0.9375 -2.7877
   12MOL0     H 1611   7.764   9.054   0.822  1.4539  0.4406 -1.7463
   12MOL0     H 1612   7.821   8.879   0.953 -0.7803 -0.7179 -0.9088
   12MOL0     H 1613   7.794   9.004   1.095  0.0210  2.5652 -0.6545
   12MOL0     H 1614   8.019   9.058   1.111  2.2954 -1.6208  0.4687
   12MOL0     H 1615   8.067   8.972   0.962  0.3068 -0.7124 -0.3194
   12MOL0     H 1616   7.932   8.776   1.129 -1.1497  1.7691 -0.2814
   12MOL0     H 1617   8.035   8.871   1.240 -1.2032 -1.4056  0.4109
   12MOL0     H 1618   8.328   8.647   1.040  0.0144 -1.5075  1.8137
   12MOL0     H 1619   7.717   9.305   0.752 -1.2611  1.5978 -0.1243
   12MOL0     H 1620   7.722   9.440   0.563 -1.0790 -1.6914  0.4698
   13MOL0     O 1621   8.125   6.766   0.842  0.3191 -0.7251 -0.7369
   13MOL0     C 1622   8.209   6.840   0.798 -0.4500 -0.1764  0.7687
   13MOL0     O 1623   8.192   6.982   0.771 -0.5664  0.2845 -0.0742
   13MOL0     C 1624   8.099   7.060   0.839 -0.2755  0.4449  0.0280
   13MOL0     C 1625   8.076   7.189   0.785  0.2737  0.6898  0.9865
   13MOL0     C 1626   7.975   7.269   0.838  0.1286 -0.0804 -0.8022
   13MOL0     C 1627   7.914   7.236   0.958  0.9010 -0.1738 -0.3776
   13MOL0     O 1628   7.835   7.328   1.024  0.1380 -0.6723 -0.1484
   13MOL0     C 1629   7.732   7.392   0.949  0.4002 -0.0604 -0.2758
   13MOL0     C 1630   7.634   7.283   0.890  0.2818  0.3428 -0.2244
   13MOL0     C 1631   7.525   7.347   0.817  0.3920 -0.3886 -0.5588
   13MOL0     C 1632   7.411   7.266   0.759 -0.0283  0.4905  0.7223
   13MOL0     C 1633   7.325   7.352   0.664 -0.6321  0.8958 -0.4452
   13MOL0     C 1634   7.240   7.264   0.564  0.5801 -0.2819  0.7950
   13MOL0     C 1635   7.204   7.335   0.432 -0.0313  0.3357 -0.0198
   13MOL0     C 1636   7.172   7.484   0.450  0.1161  0.1669 -0.5107
   13MOL0     N 1637   7.054   7.530   0.533 -0.6802 -0.5018  0.6250
   13MOL0     C 1638   6.925   7.525   0.501 -0.2681 -0.6135  0.0036
   13MOL0     C 1639   6.845   7.572   0.602  0.5913 -0.7741  0.1209
   13MOL0     C 1640   6.697   7.582   0.598 -0.5663  0.4176  0.5780
   13MOL0     C 1641   6.644   7.435   0.628  0.0230  0.9215 -0.1759
   13MOL0     C 1642   6.498   7.421   0.660 -0.1254  1.2924  0.0805
   13MOL0     C 1643   6.446   7.483   0.796  0.4558 -0.0719 -0.3333
   13MOL0     O 1644   6.526   7.414   0.899  0.1161 -0.6351  0.0188
   13MOL0     C 1645   6.491   7.294   0.952  0.3728  0.1807  0.5874
   13MOL0     C 1646   6.385   7.210   0.894  0.6642 -0.1204  0.5137
   13MOL0     C 1647   6.353   7.081   0.946  0.3515 -0.2842 -0.6817
   13MOL0     C 1648   6.244   6.994   0.890 -0.1810 -0.1408 -0.0770
   13MOL0     C 1649   6.441   7.026   1.052 -0.4693 -0.6639  0.1263
   13MOL0     C 1650   6.417   6.901   1.124  0.8014 -0.9924 -0.2037
   13MOL0     O 1651   6.378   6.800   1.038  0.4619 -0.4011  0.1631
   13MOL0     C 1652   6.296   6.693   1.077 -0.4775 -0.6856 -0.4846
   13MOL0     C 1653   6.319   6.618   1.198 -0.9166 -0.7457  0.1014
   13MOL0     C 1654   6.234   6.512   1.236 -0.5859 -0.4206  0.7829
   13MOL0     C 1655   6.120   6.484   1.165  1.1504 -0.9899 -0.2351
   13MOL0     O 1656   6.027   6.402   1.223 -0.2128  0.2725  0.4967
   13MOL0     C 1657   5.997   6.423   1.356  0.2227 -0.7993 -1.8232
   13MOL0     C 1658   5.849   6.398   1.395 -0.3232 -0.0365  0.4416
   13MOL0     C 1659   5.811   6.246   1.380  1.2310 -0.9376  0.6630
   13MOL0     C 1660   5.659   6.222   1.405  0.6770 -0.2772  0.6833
   13MOL0     C 1661   5.616   6.088   1.345 -0.1275 -0.0449 -0.4468
   13MOL0     C 1662   5.664   5.964   1.435 -0.3857  0.5300  0.9254
   13MOL0     C 1663   5.627   5.836   1.364  0.5036 -0.6838  0.5853
   13MOL0     C 1664   5.697   5.796   1.243 -0.5770 -0.3324  0.4851
   13MOL0    Cl 1665   5.634   5.647   1.172 -0.1529 -0.3603 -0.1481
   13MOL0     C 1666   6.101   6.555   1.045 -0.7452  0.7565 -0.1078
   13MOL0     C 1667   6.187   6.657   1.001 -0.3682 -1.4687 -0.1790
   13MOL0     O 1668   6.437   6.889   1.237  0.0223 -0.4948  0.7454
   13MOL0     C 1669   6.539   7.108   1.099 -0.4776 -0.2033 -0.6246
   13MOL0     C 1670   6.568   7.242   1.056 -0.6406  0.0100  0.5113
   13MOL0     N 1671   6.933   7.601   0.707 -0.1785 -0.1507 -0.6230
   13MOL0     N 1672   7.059   7.570   0.664  1.0531 -0.0560  0.4134
   13MOL0     C 1673   7.960   7.120   1.028  0.2999  0.7937  0.8622
   13MOL0     C 1674   8.050   7.034   0.965 -0.1540  0.0629  0.1600
   13MOL0     C 1675   8.343   6.777   0.765  0.6617 -0.8274  0.3438
   13MOL0     C 1676   8.443   6.851   0.692 -0.0222  0.8972 -0.5753
   13MOL0     C 1677   8.556   6.782   0.653  0.1921  0.6243 -0.3209
   13MOL0     C 1678   8.571   6.643   0.664  0.5931  0.1665  0.0949
   13MOL0     O 1679   8.693   6.599   0.625 -0.2839  0.0853  0.1701
   13MOL0     C 1680   8.738   6.463   0.654 -0.6016  0.1572  0.6477
   13MOL0     C 1681   8.875   6.459   0.603 -0.7086 -0.0280  0.9022
   13MOL0     C 1682   8.894   6.473   0.452  0.9900  0.5866 -0.3952
   13MOL0     C 1683   9.028   6.429   0.398  0.2025  0.4350  0.2514
   13MOL0     C 1684   9.126   6.541   0.387  0.6452  0.3861 -0.0036
   13MOL0     C 1685   9.198   6.629   0.407  1.7529 -0.0737  1.2562
   13MOL0     C 1686   8.470   6.569   0.736 -0.6696 -0.9393  0.8753
   13MOL0     C 1687   8.367   6.641   0.786 -0.0613  0.3080 -0.2507
   13MOL0     H 1688   8.120   7.221   0.691 -1.6452 -0.2965 -0.3179
   13MOL0     H 1689   7.939   7.363   0.798 -0.7929 -0.9432 -2.0849
   13MOL0     H 1690   7.676   7.461   1.013  0.2296 -0.7003  0.2773
   13MOL0     H 1691   7.768   7.457   0.868  2.3712  1.4605  1.6885
   13MOL0     H 1692   7.684   7.213   0.822 -1.9193 -2.2520  0.6424
   13MOL0     H 1693   7.590   7.225   0.971 -1.4656  2.6957  0.6221
   13MOL0     H 1694   7.475   7.415   0.887 -1.8662 -1.7247 -0.8034
   13MOL0     H 1695   7.569   7.411   0.739  2.5493 -0.2118  0.7103
   13MOL0     H 1696   7.457   7.185   0.702 -2.1427 -0.6355  0.5235
   13MOL0     H 1697   7.343   7.227   0.836 -0.1002  3.0005  2.0697
   13MOL0     H 1698   7.269   7.422   0.728  1.1657  0.1084  2.1836
   13MOL0     H 1699   7.392   7.413   0.604 -0.3326 -1.1394 -2.2912
   13MOL0     H 1700   7.298   7.182   0.522  0.3823  0.3278 -0.7238
   13MOL0     H 1701   7.150   7.216   0.605  0.5020 -0.7961  0.0279
   13MOL0     H 1702   7.295   7.317   0.375  1.1865 -0.7238  2.1070
   13MOL0     H 1703   7.119   7.283   0.386 -1.3634  0.9719  1.6175
   13MOL0     H 1704   7.158   7.515   0.346  1.3414  3.7210  0.2207
   13MOL0     H 1705   7.262   7.530   0.491 -0.1373  1.4965 -1.3591
   13MOL0     H 1706   6.888   7.500   0.402  0.2184  2.2487 -1.0113
   13MOL0     H 1707   6.679   7.645   0.686  4.5176  1.7338  0.9739
   13MOL0     H 1708   6.653   7.626   0.507  0.4429  2.7792  1.1478
   13MOL0     H 1709   6.694   7.382   0.711 -0.2210  0.2389 -0.4558
   13MOL0     H 1710   6.655   7.381   0.534 -2.0155  2.9837 -1.6910
   13MOL0     H 1711   6.470   7.315   0.656  0.6006  0.9853  2.1783
   13MOL0     H 1712   6.440   7.468   0.579  1.0505 -0.6523 -1.9909
   13MOL0     H 1713   6.338   7.465   0.799  0.6072 -0.9954 -0.4518
   13MOL0     H 1714   6.472   7.588   0.814  1.2300 -0.0481 -1.5170
   13MOL0     H 1715   6.333   7.245   0.805 -2.2230 -1.7329  1.4315
   13MOL0     H 1716   6.291   6.907   0.845  2.5339  0.6376  1.0778
   13MOL0     H 1717   6.164   6.971   0.961  0.9848 -1.6453  0.7953
   13MOL0     H 1718   6.183   7.056   0.823 -2.8729 -0.2978  2.0284
   13MOL0     H 1719   6.407   6.642   1.257  1.4315  3.6542 -4.4328
   13MOL0     H 1720   6.250   6.454   1.326  3.5097 -0.1345  0.4299
   13MOL0     H 1721   6.054   6.353   1.417 -0.9189 -0.0616  0.1666
   13MOL0     H 1722   6.009   6.525   1.396 -1.7833 -1.7705  1.6592
   13MOL0     H 1723   5.833   6.416   1.502  2.6182 -3.2140  1.5991
   13MOL0     H 1724   5.785   6.449   1.323  0.9569  0.2851 -0.5041
   13MOL0     H 1725   5.871   6.173   1.437 -0.1643 -2.1995  0.5729
   13MOL0     H 1726   5.823   6.207   1.279 -1.5002 -1.7938  0.5880
   13MOL0     H 1727   5.623   6.224   1.508 -3.2917  1.0886 -0.5718
   13MOL0     H 1728   5.597   6.301   1.361  0.3451 -0.1878  1.3031
   13MOL0     H 1729   5.660   6.096   1.245  1.0170  2.1958  0.1683
   13MOL0     H 1730   5.508   6.088   1.328 -0.2744  0.2868  0.4417
   13MOL0     H 1731   5.774   5.970   1.435 -0.2927 -0.6691 -0.3121
   13MOL0     H 1732   5.625   5.973   1.537 -1.0311  0.6147  0.6758
   13MOL0     H 1733   5.521   5.859   1.350  0.6620  1.5067  2.2617
   13MOL0     H 1734   5.621   5.755   1.437 -2.5819  0.2467  1.5493
   13MOL0     H 1735   5.801   5.787   1.276 -0.1458 -2.1019 -1.2223
   13MOL0     H 1736   5.684   5.879   1.172  1.9370  0.8761  1.3031
   13MOL0     H 1737   6.019   6.515   0.986 -1.2554  1.1214  0.3467
   13MOL0     H 1738   6.157   6.714   0.914 -2.3350 -1.5126  0.4115
   13MOL0     H 1739   6.589   7.075   1.190 -0.2165  1.0980 -0.2663
   13MOL0     H 1740   6.652   7.297   1.097 -1.0009 -0.9244  2.6182
   13MOL0     H 1741   7.920   7.094   1.125  0.2553  1.0995  0.9234
   13MOL0     H 1742   8.095   6.951   1.019  3.1004  0.6294 -1.4010
   13MOL0     H 1743   8.429   6.959   0.690 -3.4741  0.5958  0.2372
   13MOL0     H 1744   8.627   6.852   0.610  1.4267  0.9459  2.0547
   13MOL0     H 1745   8.748   6.433   0.759 -0.6716 -3.3537 -0.2241
   13MOL0     H 1746   8.669   6.391   0.610  0.3008  0.0605 -0.6715
   13MOL0     H 1747   8.925   6.365   0.626  1.0213 -0.9241 -4.8738
   13MOL0     H 1748   8.931   6.533   0.662  0.9782 -2.0937  2.0486
   13MOL0     H 1749   8.875   6.580   0.440 -4.0349 -0.0749 -0.5072
   13MOL0     H 1750   8.809   6.441   0.391  0.6421  3.3639 -1.5029
   13MOL0     H 1751   9.011   6.389   0.297  3.2123  0.0477 -0.1967
   13MOL0     H 1752   9.062   6.354   0.469 -0.2056 -1.4460 -1.4347
   13MOL0     H 1753   9.249   6.721   0.430 -0.2972  0.9912  1.8422
   13MOL0     H 1754   8.474   6.462   0.756  1.3774 -1.7029 -2.6950
   13MOL0     H 1755   8.286   6.580   0.824 -1.8897  0.2321 -3.8185
   14MOL0     O 1756   8.858   7.267   5.118 -0.0634 -0.4477  0.4073
   14MOL0     C 1757   8.808   7.269   5.006 -0.5657 -0.3610  0.9267
   14MOL0     O 1758   8.870   7.226   4.886 -0.1353 -0.2234  0.2308
   14MOL0     C 1759   9.006   7.229   4.901 -0.2495 -0.2612  0.5555
   14MOL0     C 1760   9.073   7.124   4.968  0.3803  0.6390 -0.0906
   14MOL0     C 1761   9.204   7.109   4.974 -0.0122 -0.0244  1.0484
   14MOL0     C 1762   9.288   7.215   4.924 -0.0007 -0.0813 -0.9253
   14MOL0     O 1763   9.425   7.237   4.933 -1.2144 -0.1232 -0.3103
   14MOL0     C 1764   9.507   7.126   4.952 -0.1448  1.1998 -0.0362
   14MOL0     C 1765   9.652   7.161   4.968 -0.6715 -0.1433  0.3487
   14MOL0     C 1766   9.723   7.044   5.048 -0.2493 -0.6948 -0.1448
   14MOL0     C 1767   9.709   7.059   5.195 -0.1790  0.3637  0.1130
   14MOL0     C 1768   9.830   6.985   5.249  0.6933 -0.9807  1.1455
   14MOL0     C 1769   9.844   7.015   5.402 -0.6525  0.9687  0.3496
   14MOL0     C 1770   9.959   6.944   5.467  0.0185 -0.3584 -0.2106
   14MOL0     C 1771   9.974   6.982   5.619  0.0954 -0.3650  0.1642
   14MOL0     N 1772  10.091   6.903   5.675  0.3595 -0.5536  0.7314
   14MOL0     C 1773  10.212   6.961   5.676 -0.1652  1.3876 -0.4983
   14MOL0     C 1774  10.279   6.899   5.777  0.1341 -0.3006  0.1306
   14MOL0     C 1775  10.424   6.922   5.803  0.0594  0.4061 -0.6535
   14MOL0     C 1776  10.496   6.814   5.869  0.0032  0.2659  0.3572
   14MOL0     C 1777  10.649   6.849   5.887  0.2542 -1.2507  0.4231
   14MOL0     C 1778  10.737   6.737   5.944  0.4447 -0.2726 -0.4975
   14MOL0     O 1779  10.869   6.784   5.971 -0.0645  0.8179 -0.2524
   14MOL0     C 1780  10.973   6.725   5.926 -0.5756  1.2328  0.8397
   14MOL0     C 1781  11.097   6.749   5.990 -0.4993 -0.0471  0.0713
   14MOL0     C 1782  11.219   6.694   5.946  0.8766  0.2847  0.5591
   14MOL0     C 1783  11.337   6.744   6.027 -0.5126  0.0284  0.3183
   14MOL0     C 1784  11.212   6.606   5.836  0.6837 -0.0815  0.3859
   14MOL0     C 1785  11.333   6.550   5.764 -0.1588  0.5205 -0.7193
   14MOL0     O 1786  11.321   6.478   5.662  1.0639 -0.0072  0.2506
   14MOL0     C 1787  11.394   6.363   5.653 -0.4676 -0.7540  0.2342
   14MOL0     C 1788  11.534   6.358   5.662 -0.0477  0.0729 -0.3162
   14MOL0     C 1789  11.594   6.235   5.661  0.8030  0.7127  0.0002
   14MOL0     C 1790  11.531   6.115   5.639  0.3096  0.0494  0.2326
   14MOL0     O 1791  11.604   5.992   5.641 -0.2215 -0.4758 -0.8330
   14MOL0     C 1792  11.593   5.911   5.522 -0.7123  1.6127 -0.7475
   14MOL0     C 1793  11.724   5.832   5.519  0.4184 -0.0478 -0.0535
   14MOL0     C 1794  11.856   5.899   5.515  0.3896  0.4179 -0.9370
   14MOL0     C 1795  11.959   5.797   5.463 -0.6312  0.2482  0.0838
   14MOL0     C 1796  12.099   5.859   5.463 -0.3016 -0.1474  1.1162
   14MOL0     C 1797  12.209   5.755   5.442  0.0554  0.8252  0.2616
   14MOL0     C 1798  12.349   5.823   5.430  0.3745  0.4477 -0.8720
   14MOL0     C 1799  12.414   5.746   5.314  0.4538 -0.1984 -0.3498
   14MOL0    Cl 1800  12.411   5.565   5.349 -0.2845  0.0062 -0.1556
   14MOL0     C 1801  11.395   6.123   5.614  0.8265  0.0466  0.8570
   14MOL0     C 1802  11.326   6.241   5.627 -0.0062  0.1159 -0.1529
   14MOL0     O 1803  11.437   6.587   5.816  0.8679 -0.3064  0.4111
   14MOL0     C 1804  11.091   6.574   5.775 -0.0489 -0.0656  0.3651
   14MOL0     C 1805  10.974   6.631   5.819  0.4251  0.7204 -0.3670
   14MOL0     N 1806  10.204   6.799   5.828  0.4561  0.7565 -0.2781
   14MOL0     N 1807  10.081   6.808   5.771 -0.6159 -0.9194 -1.1771
   14MOL0     C 1808   9.229   7.305   4.847  0.4262  0.1805 -0.5620
   14MOL0     C 1809   9.085   7.313   4.830  0.2295 -0.2942 -0.0517
   14MOL0     C 1810   8.661   7.288   4.997  0.1621 -0.2575  0.0054
   14MOL0     C 1811   8.590   7.282   4.877 -0.7878  1.3793 -0.3024
   14MOL0     C 1812   8.461   7.321   4.867  0.0802 -0.5953  0.4513
   14MOL0     C 1813   8.387   7.354   4.979  0.6182  0.2954  0.7909
   14MOL0     O 1814   8.256   7.381   4.983 -0.2183 -0.2663 -0.4759
   14MOL0     C 1815   8.173   7.392   4.860  0.0774 -1.0691  0.1183
   14MOL0     C 1816   8.183   7.544   4.813  0.6676 -0.3119  0.5339
   14MOL0     C 1817   8.144   7.654   4.909 -0.5481 -1.4521 -0.7127
   14MOL0     C 1818   8.001   7.651   4.954 -0.1567 -0.1813 -0.5627
   14MOL0     C 1819   7.910   7.697   4.852  0.3345 -1.2206  0.0577
   14MOL0     C 1820   7.827   7.738   4.769 -0.1378 -0.3529  0.1797
   14MOL0     C 1821   8.447   7.360   5.096 -0.5329 -0.2732 -0.5635
   14MOL0     C 1822   8.586   7.334   5.109 -0.7418  0.0037  0.6473
   14MOL0     H 1823   9.018   7.046   5.021  0.4871  2.5194  3.0466
   14MOL0     H 1824   9.240   7.023   5.030 -1.3206 -0.6302  1.0110
   14MOL0     H 1825   9.465   7.076   5.040  2.3621  0.2406  0.7210
   14MOL0     H 1826   9.485   7.054   4.873 -1.9862  3.1914 -1.4813
   14MOL0     H 1827   9.699   7.167   4.870 -1.1557 -1.8520 -0.0248
   14MOL0     H 1828   9.643   7.251   5.030 -1.6537 -0.0665  0.1227
   14MOL0     H 1829   9.694   6.941   5.026 -4.3648 -0.0949  1.5115
   14MOL0     H 1830   9.827   7.057   5.019 -0.3277  1.4214  0.3538
   14MOL0     H 1831   9.719   7.164   5.224  2.7226 -0.0348  0.8538
   14MOL0     H 1832   9.620   7.013   5.239 -0.1080 -0.2029 -0.3152
   14MOL0     H 1833   9.828   6.878   5.225 -2.2504 -1.1138  1.6095
   14MOL0     H 1834   9.922   7.018   5.200  0.4879  0.7019  1.8445
   14MOL0     H 1835   9.861   7.122   5.413 -1.4035  1.0016  1.3375
   14MOL0     H 1836   9.754   6.994   5.461  0.4422 -0.5613  1.5900
   14MOL0     H 1837   9.939   6.836   5.464  0.0341 -0.4264  1.4350
   14MOL0     H 1838  10.057   6.952   5.419  0.7956  2.8214  1.6144
   14MOL0     H 1839   9.882   6.953   5.670  0.1388  1.0755  1.1202
   14MOL0     H 1840   9.992   7.089   5.630  1.3661 -0.6418  1.1228
   14MOL0     H 1841  10.258   7.034   5.610 -1.8438  1.2803 -1.8603
   14MOL0     H 1842  10.471   6.942   5.707 -1.4207 -1.1441 -1.7635
   14MOL0     H 1843  10.434   7.005   5.873 -0.1901  0.9093 -1.2078
   14MOL0     H 1844  10.486   6.722   5.810  0.6510  0.6396 -0.3613
   14MOL0     H 1845  10.465   6.805   5.974  1.9362  0.8515  1.0186
   14MOL0     H 1846  10.655   6.935   5.954  1.1034  1.5034 -2.8807
   14MOL0     H 1847  10.678   6.875   5.785 -3.1587 -0.9789 -0.6267
   14MOL0     H 1848  10.728   6.648   5.881  3.3106 -2.1926  1.5558
   14MOL0     H 1849  10.695   6.690   6.034  3.6370 -0.0708  1.2179
   14MOL0     H 1850  11.085   6.809   6.079  0.5348  0.6623 -0.2450
   14MOL0     H 1851  11.414   6.794   5.968 -0.3248  0.5621  1.0033
   14MOL0     H 1852  11.307   6.817   6.102 -1.8213 -2.6165  2.5920
   14MOL0     H 1853  11.365   6.655   6.085  0.4129 -0.1746 -0.4103
   14MOL0     H 1854  11.596   6.444   5.685  0.9946 -0.6382 -0.4140
   14MOL0     H 1855  11.701   6.236   5.677  0.2231  0.4990  6.3217
   14MOL0     H 1856  11.513   5.841   5.548  2.0918 -1.1356  1.3227
   14MOL0     H 1857  11.568   5.971   5.435 -0.4802  1.9879 -0.5578
   14MOL0     H 1858  11.725   5.772   5.610 -0.9035  3.2861  2.3496
   14MOL0     H 1859  11.713   5.779   5.424 -1.0001  1.2961 -0.6954
   14MOL0     H 1860  11.885   5.950   5.607 -1.5584  2.3223 -1.2892
   14MOL0     H 1861  11.841   5.978   5.441  0.2969  0.8368 -0.4795
   14MOL0     H 1862  11.974   5.716   5.535 -2.4112  0.5469  0.8331
   14MOL0     H 1863  11.930   5.747   5.370  2.4865 -2.0296  0.1559
   14MOL0     H 1864  12.126   5.921   5.548 -0.7830 -0.3184  1.3952
   14MOL0     H 1865  12.091   5.933   5.383  0.8071  1.5066  2.4809
   14MOL0     H 1866  12.235   5.681   5.519  0.5203 -0.8506 -1.4384
   14MOL0     H 1867  12.188   5.706   5.347  0.5672 -0.2565  0.6919
   14MOL0     H 1868  12.407   5.807   5.522 -2.0708  1.9651  1.0685
   14MOL0     H 1869  12.349   5.931   5.414 -0.7313  0.8689  1.5412
   14MOL0     H 1870  12.516   5.786   5.310  1.1124 -0.8538  4.2012
   14MOL0     H 1871  12.366   5.756   5.216  1.3210  0.4685 -0.7281
   14MOL0     H 1872  11.344   6.037   5.572 -1.5630  2.3930 -1.4812
   14MOL0     H 1873  11.224   6.247   5.592  0.9154 -0.1911 -3.1903
   14MOL0     H 1874  11.082   6.516   5.684  2.0644  0.7634 -0.4476
   14MOL0     H 1875  10.887   6.616   5.756  1.5139 -1.0046 -1.5509
   14MOL0     H 1876   9.306   7.364   4.799  1.9543 -0.3444  1.1628
   14MOL0     H 1877   9.039   7.383   4.761  0.9909  0.9982  0.7276
   14MOL0     H 1878   8.642   7.261   4.784 -0.8816 -0.5188  0.0349
   14MOL0     H 1879   8.415   7.304   4.770 -2.2058 -2.3213  1.7322
   14MOL0     H 1880   8.209   7.324   4.782 -2.7056 -0.0262 -2.2565
   14MOL0     H 1881   8.067   7.367   4.869 -0.9520  2.3690 -1.1088
   14MOL0     H 1882   8.121   7.557   4.723  2.8369 -2.0403 -1.3531
   14MOL0     H 1883   8.289   7.559   4.789  0.0710  3.2147 -0.5520
   14MOL0     H 1884   8.182   7.751   4.876  1.0266 -1.3625  1.1789
   14MOL0     H 1885   8.189   7.633   5.006 -3.1292  1.8232  1.4431
   14MOL0     H 1886   8.007   7.714   5.044  1.9637  0.4915 -1.1334
   14MOL0     H 1887   7.969   7.550   4.979  0.2635 -0.1473  0.1341
   14MOL0     H 1888   7.752   7.760   4.695  1.0137 -0.8632 -1.1793
   14MOL0     H 1889   8.394   7.399   5.182  0.1497  0.7128 -0.5762
   14MOL0     H 1890   8.638   7.340   5.204  1.4808 -0.7022 -0.4308
   15MOL0     O 1891   0.957   6.692   3.088 -0.4054  0.4317 -0.0092
   15MOL0     C 1892   0.953   6.598   3.163 -0.3346  0.3726 -0.3696
   15MOL0     O 1893   0.980   6.608   3.298  0.0900 -0.2159  0.0237
   15MOL0     C 1894   1.032   6.728   3.348 -0.0150  0.3936  1.1151
   15MOL0     C 1895   1.121   6.827   3.289  0.0376  0.9332  0.8195
   15MOL0     C 1896   1.168   6.930   3.364 -0.3401  0.4317  0.7155
   15MOL0     C 1897   1.143   6.943   3.500 -0.9890  0.2795  0.1505
   15MOL0     O 1898   1.208   7.055   3.551  0.1494  0.0986  0.5162
   15MOL0     C 1899   1.181   7.097   3.680  0.0212  0.1333  0.7575
   15MOL0     C 1900   1.118   7.239   3.682 -0.0773  0.0483  0.6010
   15MOL0     C 1901   1.108   7.289   3.827 -0.6705  0.8719  0.3186
   15MOL0     C 1902   1.052   7.429   3.851 -0.3901 -0.3113  0.0240
   15MOL0     C 1903   0.898   7.430   3.829 -0.3622  0.0410 -0.4053
   15MOL0     C 1904   0.814   7.347   3.928 -0.4710 -1.3822  0.0769
   15MOL0     C 1905   0.668   7.343   3.882 -0.4886 -0.3636 -1.1433
   15MOL0     C 1906   0.655   7.254   3.758 -0.0083  1.2058  0.4117
   15MOL0     N 1907   0.706   7.120   3.791  0.2327  0.3163  0.0021
   15MOL0     C 1908   0.681   7.038   3.896  0.2157  0.0006 -0.1021
   15MOL0     C 1909   0.788   6.946   3.896  0.1350  0.2516 -0.0461
   15MOL0     C 1910   0.800   6.811   3.965  0.1034 -0.2332 -0.0265
   15MOL0     C 1911   0.708   6.707   3.894 -0.3971 -0.6200  1.0593
   15MOL0     C 1912   0.757   6.655   3.755 -0.0107  0.3707 -0.5436
   15MOL0     C 1913   0.659   6.625   3.648 -0.6373 -0.2241 -0.3842
   15MOL0     O 1914   0.703   6.554   3.537 -0.6853 -0.2333  0.8361
   15MOL0     C 1915   0.691   6.420   3.536 -0.2929 -0.3606  0.0440
   15MOL0     C 1916   0.802   6.337   3.548  0.9880 -0.4321 -0.4290
   15MOL0     C 1917   0.798   6.200   3.554  0.5165  0.7387 -0.8221
   15MOL0     C 1918   0.926   6.124   3.590  0.2726  0.7378 -1.0808
   15MOL0     C 1919   0.678   6.131   3.539 -0.6509 -0.2463  0.4022
   15MOL0     C 1920   0.662   5.978   3.521 -0.0934  0.0781 -0.8294
   15MOL0     O 1921   0.523   5.944   3.520 -0.1352  0.3238 -0.5905
   15MOL0     C 1922   0.477   5.814   3.528  0.7433  0.1622 -0.2363
   15MOL0     C 1923   0.396   5.765   3.428  0.3275 -0.4607  0.0088
   15MOL0     C 1924   0.329   5.644   3.436  0.0596  0.3487  0.6761
   15MOL0     C 1925   0.348   5.565   3.555 -0.2738 -0.6683 -0.4208
   15MOL0     O 1926   0.278   5.446   3.575  0.1978 -0.0575 -0.1434
   15MOL0     C 1927   0.165   5.422   3.482 -0.4976  0.0846 -0.6051
   15MOL0     C 1928   0.081   5.300   3.519 -0.5399  0.1670  1.2159
   15MOL0     C 1929  -0.015   5.284   3.407 -0.6021 -0.7285 -0.2850
   15MOL0     C 1930  -0.142   5.206   3.451  0.6548  0.5943  0.3627
   15MOL0     C 1931  -0.234   5.194   3.331  0.9954  0.1232  1.3928
   15MOL0     C 1932  -0.350   5.092   3.374  0.8602 -0.3828  0.8381
   15MOL0     C 1933  -0.308   4.951   3.349  0.4365 -0.0840  0.1026
   15MOL0     C 1934  -0.423   4.862   3.393 -0.2935  0.5215 -0.8287
   15MOL0    Cl 1935  -0.431   4.828   3.576  0.2249  0.0837  1.1069
   15MOL0     C 1936   0.429   5.609   3.655  0.4457 -0.0236  0.1070
   15MOL0     C 1937   0.490   5.729   3.636 -1.1326 -0.7219 -0.3204
   15MOL0     O 1938   0.751   5.891   3.489  0.2689  0.0638 -0.5677
   15MOL0     C 1939   0.563   6.208   3.533  0.1475  0.2854 -0.1830
   15MOL0     C 1940   0.569   6.352   3.536 -0.2550 -0.1632 -0.4819
   15MOL0     N 1941   0.880   6.980   3.801 -0.6061  0.4684  0.3077
   15MOL0     N 1942   0.832   7.082   3.743 -0.6040 -0.0062 -0.2729
   15MOL0     C 1943   1.053   6.857   3.557  0.0497 -0.0037 -0.3425
   15MOL0     C 1944   1.009   6.748   3.484  0.7728 -0.5160 -0.3084
   15MOL0     C 1945   0.896   6.468   3.123  0.3864 -1.2867  0.0814
   15MOL0     C 1946   0.911   6.351   3.202  0.2358 -0.1774 -0.0919
   15MOL0     C 1947   0.856   6.229   3.162  0.7899  0.4405  0.8337
   15MOL0     C 1948   0.779   6.225   3.036  0.3652 -0.6967 -0.4526
   15MOL0     O 1949   0.717   6.115   2.989 -1.1720 -0.3840 -0.2295
   15MOL0     C 1950   0.670   6.010   3.074 -0.4414 -0.1943 -0.0576
   15MOL0     C 1951   0.600   5.908   2.982 -0.1681  0.4913 -0.6315
   15MOL0     C 1952   0.682   5.864   2.852  0.1888 -0.2443  0.8429
   15MOL0     C 1953   0.620   5.930   2.724  0.1891 -0.3071 -0.3810
   15MOL0     C 1954   0.654   5.855   2.603 -0.9561 -0.3211  0.2894
   15MOL0     C 1955   0.684   5.804   2.497 -0.1281  0.1991 -0.0187
   15MOL0     C 1956   0.780   6.335   2.960 -0.1269 -0.4846 -0.0831
   15MOL0     C 1957   0.830   6.459   2.999 -0.2182  1.1387 -0.6303
   15MOL0     H 1958   1.145   6.826   3.183 -1.2230 -0.8008  0.5038
   15MOL0     H 1959   1.220   7.011   3.314 -0.8238  0.9815  1.0969
   15MOL0     H 1960   1.126   7.024   3.739  1.5005 -2.7302 -1.1607
   15MOL0     H 1961   1.280   7.105   3.727  1.0904 -3.6086 -0.4614
   15MOL0     H 1962   1.188   7.306   3.631  0.3374  2.6202  4.2290
   15MOL0     H 1963   1.022   7.238   3.630  0.1927 -0.3206  0.0955
   15MOL0     H 1964   1.063   7.211   3.890 -1.2759  1.3201  0.4462
   15MOL0     H 1965   1.214   7.299   3.850 -0.5455 -0.4621  0.4308
   15MOL0     H 1966   1.065   7.465   3.953 -0.1162 -0.0442 -0.1030
   15MOL0     H 1967   1.103   7.501   3.787  1.6642 -3.0632 -1.6242
   15MOL0     H 1968   0.859   7.530   3.809  0.3065  0.3703 -0.0987
   15MOL0     H 1969   0.897   7.381   3.731  3.5772  4.2692 -2.9386
   15MOL0     H 1970   0.858   7.248   3.942  2.9720  0.0459  0.3313
   15MOL0     H 1971   0.820   7.403   4.022  1.0863 -1.2409 -0.0833
   15MOL0     H 1972   0.614   7.294   3.964  0.2732  1.0810  0.2915
   15MOL0     H 1973   0.624   7.443   3.879  1.2706  0.5422  0.6567
   15MOL0     H 1974   0.700   7.316   3.680  2.1673 -2.3809 -1.4126
   15MOL0     H 1975   0.550   7.243   3.730 -0.3417  2.3854  1.0742
   15MOL0     H 1976   0.584   7.024   3.943 -0.4774  1.1935 -1.0984
   15MOL0     H 1977   0.903   6.781   3.946 -0.0254  0.9720 -3.2734
   15MOL0     H 1978   0.778   6.822   4.072 -2.6654  4.4775 -0.7770
   15MOL0     H 1979   0.608   6.748   3.875  0.4367  0.6522 -0.9957
   15MOL0     H 1980   0.693   6.630   3.970  1.9672  0.1693  2.4266
   15MOL0     H 1981   0.806   6.560   3.778  2.5602  1.9636  1.1401
   15MOL0     H 1982   0.827   6.728   3.714 -0.7885  3.3598  2.9310
   15MOL0     H 1983   0.636   6.725   3.611 -2.2832  0.4041  2.0964
   15MOL0     H 1984   0.562   6.590   3.683  0.3351 -1.5557  1.0945
   15MOL0     H 1985   0.892   6.391   3.575  0.1497  0.2611  1.1593
   15MOL0     H 1986   0.948   6.047   3.515 -1.9842  0.8061 -1.9002
   15MOL0     H 1987   1.007   6.194   3.612  0.1707  0.3299  0.6796
   15MOL0     H 1988   0.911   6.070   3.684  3.3102 -2.2182 -2.0737
   15MOL0     H 1989   0.379   5.837   3.349 -2.1451  0.2688  1.1117
   15MOL0     H 1990   0.255   5.618   3.361 -0.3048 -0.4514  1.2895
   15MOL0     H 1991   0.097   5.507   3.474  0.8359  1.0478 -2.8951
   15MOL0     H 1992   0.208   5.408   3.382  1.0802  1.2783 -0.1365
   15MOL0     H 1993   0.162   5.226   3.523 -0.7796 -0.0445  2.9642
   15MOL0     H 1994   0.031   5.308   3.616 -6.3476 -0.7801 -1.2603
   15MOL0     H 1995   0.031   5.226   3.326  0.6933 -1.7543  1.1345
   15MOL0     H 1996  -0.054   5.383   3.383 -3.2714 -1.5509  0.3369
   15MOL0     H 1997  -0.119   5.108   3.494 -0.1507  1.7730  3.7472
   15MOL0     H 1998  -0.189   5.258   3.535 -0.6232 -2.2975  1.5783
   15MOL0     H 1999  -0.184   5.161   3.240 -0.9182 -0.5653  0.5354
   15MOL0     H 2000  -0.270   5.293   3.302 -1.4185 -0.6554  1.4425
   15MOL0     H 2001  -0.376   5.112   3.478 -0.3603  1.6988  0.1924
   15MOL0     H 2002  -0.439   5.111   3.313 -0.1529  0.6472  2.5553
   15MOL0     H 2003  -0.227   4.916   3.413 -1.3070 -4.1144  0.4265
   15MOL0     H 2004  -0.281   4.940   3.244  2.6223 -0.8089  0.6976
   15MOL0     H 2005  -0.413   4.760   3.354 -3.2227 -0.3049  0.2737
   15MOL0     H 2006  -0.520   4.899   3.359 -1.2913  0.1491  1.4053
   15MOL0     H 2007   0.428   5.555   3.749 -4.5975  0.1120  0.3621
   15MOL0     H 2008   0.558   5.766   3.713 -0.6081 -3.5666  0.7154
   15MOL0     H 2009   0.463   6.167   3.523 -0.1875  1.4740 -2.2386
   15MOL0     H 2010   0.485   6.416   3.512  0.8570 -0.0250 -5.1330
   15MOL0     H 2011   1.043   6.856   3.665  0.6701  0.8557 -0.2619
   15MOL0     H 2012   0.946   6.676   3.536  1.2091  0.1805  1.2583
   15MOL0     H 2013   0.967   6.363   3.294  2.4353  0.3413 -1.4076
   15MOL0     H 2014   0.862   6.138   3.222 -4.1699 -0.8747 -0.1992
   15MOL0     H 2015   0.746   5.975   3.145 -2.6088 -4.3308  0.5370
   15MOL0     H 2016   0.584   6.032   3.138  0.7464  0.4596  1.3827
   15MOL0     H 2017   0.507   5.953   2.946 -1.0799 -3.3379 -3.8500
   15MOL0     H 2018   0.577   5.823   3.046  0.9042  0.4849 -0.2277
   15MOL0     H 2019   0.677   5.756   2.835 -3.1351  0.2486 -3.1583
   15MOL0     H 2020   0.786   5.897   2.859 -0.5991  4.1970 -3.0730
   15MOL0     H 2021   0.654   6.032   2.707 -0.0829  0.2924  2.2257
   15MOL0     H 2022   0.512   5.940   2.730 -0.2060 -3.2496 -1.0334
   15MOL0     H 2023   0.706   5.763   2.401  4.2921  1.9204  0.0297
   15MOL0     H 2024   0.724   6.325   2.867 -2.7330  2.3838  0.9868
   15MOL0     H 2025   0.826   6.545   2.933 -4.0940  2.5716  1.1486
   16MOL0     O 2026   9.920   8.620   8.176 -0.4293  0.7215  0.2183
   16MOL0     C 2027   9.916   8.686   8.279 -0.8004 -0.6228 -0.0736
   16MOL0     O 2028   9.979   8.807   8.293  0.2095  0.3140 -0.2609
   16MOL0     C 2029  10.039   8.856   8.187 -0.1200  0.3270  0.1034
   16MOL0     C 2030  10.172   8.843   8.174 -0.4100 -0.4662 -0.3837
   16MOL0     C 2031  10.254   8.897   8.074 -0.4908  0.2568  0.0991
   16MOL0     C 2032  10.194   8.984   7.976 -1.0977 -1.2244 -0.8024
   16MOL0     O 2033  10.264   9.053   7.882 -0.2616 -0.1090 -0.0822
   16MOL0     C 2034  10.410   9.045   7.873 -0.6467 -0.3015 -0.0791
   16MOL0     C 2035  10.449   8.910   7.812 -0.1112 -1.0377 -0.0001
   16MOL0     C 2036  10.596   8.897   7.782  0.0372  0.5887 -0.4672
   16MOL0     C 2037  10.647   8.769   7.718  0.6096 -0.6530 -0.3927
   16MOL0     C 2038  10.798   8.781   7.687  0.4863  0.0685  0.1666
   16MOL0     C 2039  10.851   8.643   7.669  0.0738 -0.0924 -0.3918
   16MOL0     C 2040  11.001   8.646   7.611 -0.0432 -0.3182 -0.4818
   16MOL0     C 2041  11.024   8.506   7.577  1.0188  0.4487 -0.0773
   16MOL0     N 2042  11.138   8.495   7.491 -0.9099 -0.2159 -0.1860
   16MOL0     C 2043  11.269   8.487   7.543 -0.6293  0.0929  0.7669
   16MOL0     C 2044  11.346   8.516   7.429  0.0921  0.6409 -0.3949
   16MOL0     C 2045  11.504   8.523   7.435  0.2995 -0.5773  0.9721
   16MOL0     C 2046  11.566   8.538   7.295 -0.1730  0.4876 -0.2317
   16MOL0     C 2047  11.714   8.532   7.325  0.3646  0.5100  0.5792
   16MOL0     C 2048  11.798   8.539   7.197  0.2641 -0.1888 -0.0407
   16MOL0     O 2049  11.928   8.478   7.218  0.5586 -0.4605 -0.1177
   16MOL0     C 2050  12.021   8.564   7.274  0.6083 -0.8761 -0.9287
   16MOL0     C 2051  12.109   8.515   7.376  0.7206 -0.7078  0.4614
   16MOL0     C 2052  12.210   8.587   7.441  0.3103  0.1705 -0.4236
   16MOL0     C 2053  12.304   8.507   7.530 -0.5382  0.1988  0.2549
   16MOL0     C 2054  12.210   8.732   7.416 -0.3389 -0.3769 -0.4109
   16MOL0     C 2055  12.294   8.828   7.483  0.8204 -0.6754 -0.4549
   16MOL0     O 2056  12.259   8.963   7.476  0.6887  0.4542  0.6438
   16MOL0     C 2057  12.351   9.035   7.537  0.1752 -0.1711 -0.7131
   16MOL0     C 2058  12.309   9.107   7.651  0.0437  0.9060  0.1451
   16MOL0     C 2059  12.403   9.184   7.730 -0.1746  0.1664 -0.6639
   16MOL0     C 2060  12.538   9.187   7.700 -1.2610 -0.0388  0.5967
   16MOL0     O 2061  12.626   9.261   7.777 -0.7272  0.5354  0.0612
   16MOL0     C 2062  12.760   9.208   7.772  0.6271  0.3183 -0.6765
   16MOL0     C 2063  12.829   9.253   7.891 -0.1036  0.0110 -0.7802
   16MOL0     C 2064  12.822   9.412   7.905 -1.3444 -0.1906  0.6978
   16MOL0     C 2065  12.899   9.450   8.029 -0.7687  0.4905  0.4431
   16MOL0     C 2066  12.875   9.591   8.078 -0.0131 -0.0878 -0.0086
   16MOL0     C 2067  12.987   9.605   8.192 -0.0536  0.6433 -0.4276
   16MOL0     C 2068  12.945   9.733   8.272  0.4773  0.3486  0.0037
   16MOL0     C 2069  13.027   9.733   8.399 -0.6159 -0.4732 -1.1861
   16MOL0    Cl 2070  12.991   9.888   8.487  0.3198 -0.5912 -0.6993
   16MOL0     C 2071  12.579   9.119   7.581  0.3100  0.2846  0.3811
   16MOL0     C 2072  12.484   9.052   7.497  0.2168  0.0940 -0.2994
   16MOL0     O 2073  12.394   8.775   7.541 -0.1297  1.0109 -0.1744
   16MOL0     C 2074  12.119   8.780   7.314  0.0681 -1.0413  0.6166
   16MOL0     C 2075  12.021   8.700   7.244  0.4027  0.0390  0.3617
   16MOL0     N 2076  11.261   8.528   7.322 -0.6492  0.0530  0.4176
   16MOL0     N 2077  11.142   8.513   7.356  0.3334  0.8059 -0.6974
   16MOL0     C 2078  10.056   8.997   7.985 -0.2062 -1.0407  0.0062
   16MOL0     C 2079   9.983   8.938   8.084 -0.5209 -0.3123 -0.7419
   16MOL0     C 2080   9.815   8.640   8.372  0.3848  0.5896  1.5538
   16MOL0     C 2081   9.749   8.521   8.352  0.5223  0.5151 -0.5500
   16MOL0     C 2082   9.653   8.476   8.443 -0.4649  0.2370 -0.1064
   16MOL0     C 2083   9.618   8.558   8.547  0.3659 -0.0559 -0.0155
   16MOL0     O 2084   9.523   8.504   8.632 -0.5020 -0.0726 -0.2067
   16MOL0     C 2085   9.534   8.546   8.764  0.2649 -0.5141 -0.7490
   16MOL0     C 2086   9.454   8.452   8.854 -0.0983 -0.5684 -0.2018
   16MOL0     C 2087   9.305   8.468   8.827  0.1206 -0.1257  0.8464
   16MOL0     C 2088   9.231   8.349   8.885  0.6203 -0.2734 -0.7705
   16MOL0     C 2089   9.159   8.372   9.016 -0.5542 -0.1419 -0.5017
   16MOL0     C 2090   9.092   8.386   9.115 -1.0381 -0.0471  0.4353
   16MOL0     C 2091   9.683   8.683   8.562  0.1262 -0.4413  0.0362
   16MOL0     C 2092   9.784   8.722   8.478 -0.5543  0.0036 -0.4308
   16MOL0     H 2093  10.219   8.781   8.250  0.0178  3.9348  3.4250
   16MOL0     H 2094  10.362   8.896   8.077 -0.2154  1.9277 -3.5592
   16MOL0     H 2095  10.450   9.131   7.819 -1.9708  0.8866  0.7844
   16MOL0     H 2096  10.453   9.050   7.973 -1.0818 -1.3323  0.1801
   16MOL0     H 2097  10.418   8.818   7.862 -3.5968 -0.5474 -0.9933
   16MOL0     H 2098  10.396   8.897   7.717  0.3149 -1.8751 -0.1310
   16MOL0     H 2099  10.626   8.982   7.720 -0.3624  2.5895  1.9127
   16MOL0     H 2100  10.650   8.901   7.877  0.1513 -6.5825  0.2778
   16MOL0     H 2101  10.618   8.688   7.785  3.5635 -0.9173  0.7019
   16MOL0     H 2102  10.599   8.756   7.620  0.5500  3.4163 -1.0912
   16MOL0     H 2103  10.816   8.843   7.599  0.3700  0.0851  0.1550
   16MOL0     H 2104  10.842   8.830   7.775  0.1489 -1.2627  1.1197
   16MOL0     H 2105  10.841   8.579   7.757 -0.9495  2.0588  1.1284
   16MOL0     H 2106  10.786   8.601   7.592  0.7951 -2.9286  0.4195
   16MOL0     H 2107  11.023   8.709   7.525  1.1302 -0.9994 -0.7023
   16MOL0     H 2108  11.068   8.682   7.690 -0.3946  3.3495 -1.6691
   16MOL0     H 2109  10.940   8.469   7.517  0.6743  0.5717  0.3216
   16MOL0     H 2110  11.038   8.452   7.672  1.4740 -0.2800 -0.5462
   16MOL0     H 2111  11.310   8.472   7.642 -0.9667  0.4876  0.9684
   16MOL0     H 2112  11.537   8.602   7.503  1.1936 -0.7507  0.7526
   16MOL0     H 2113  11.542   8.432   7.484 -0.1699 -1.9292 -1.0627
   16MOL0     H 2114  11.524   8.626   7.244 -4.1875 -1.7694 -1.2720
   16MOL0     H 2115  11.552   8.455   7.225  2.8200  0.6624 -1.1966
   16MOL0     H 2116  11.723   8.441   7.385 -1.2117  0.9311  1.5085
   16MOL0     H 2117  11.757   8.611   7.388  0.0332  2.1659 -1.1975
   16MOL0     H 2118  11.799   8.646   7.178 -2.2118  0.3213  2.1700
   16MOL0     H 2119  11.750   8.485   7.115 -1.6016  1.6985 -0.2565
   16MOL0     H 2120  12.096   8.410   7.401 -1.2726 -0.2744  1.4161
   16MOL0     H 2121  12.292   8.400   7.506 -1.7344  0.4727 -0.4736
   16MOL0     H 2122  12.412   8.516   7.516 -0.6628  1.7768  0.1637
   16MOL0     H 2123  12.277   8.529   7.634  1.4076  0.6855  0.6879
   16MOL0     H 2124  12.202   9.108   7.666 -0.0703  1.6142 -0.6502
   16MOL0     H 2125  12.362   9.234   7.818 -2.4822 -1.4361 -0.7560
   16MOL0     H 2126  12.775   9.099   7.767  0.6036  0.1207  2.0671
   16MOL0     H 2127  12.800   9.248   7.679 -0.3743  2.1123 -0.3707
   16MOL0     H 2128  12.789   9.193   7.973  1.4582  0.2254  0.1775
   16MOL0     H 2129  12.937   9.236   7.885  0.8789  3.8348  2.0271
   16MOL0     H 2130  12.718   9.445   7.903 -0.6689  2.0573 -0.7382
   16MOL0     H 2131  12.877   9.470   7.831  1.5210 -1.9204  1.3187
   16MOL0     H 2132  12.871   9.385   8.112 -0.6954  1.0794  0.9292
   16MOL0     H 2133  13.006   9.438   8.008 -0.8599 -4.4667  1.5006
   16MOL0     H 2134  12.770   9.607   8.106 -0.8086  1.2146 -3.2547
   16MOL0     H 2135  12.901   9.670   8.007  0.5884  0.1695  0.4851
   16MOL0     H 2136  12.978   9.521   8.261 -5.6005  1.6538  0.5500
   16MOL0     H 2137  13.089   9.614   8.153  1.2659 -0.7150  2.4619
   16MOL0     H 2138  12.841   9.733   8.306 -1.2435 -0.0669 -4.5793
   16MOL0     H 2139  12.960   9.826   8.216 -2.0908  1.3795  0.8887
   16MOL0     H 2140  13.132   9.737   8.368 -0.0994  3.0606  0.5393
   16MOL0     H 2141  13.013   9.646   8.464 -2.2528 -0.6688 -1.7436
   16MOL0     H 2142  12.681   9.124   7.545 -0.5201  1.1373 -2.0660
   16MOL0     H 2143  12.517   9.006   7.404 -1.2340  0.9430 -1.2733
   16MOL0     H 2144  12.119   8.880   7.271 -2.3574 -2.7099 -4.0217
   16MOL0     H 2145  11.975   8.734   7.151 -0.3039 -2.5214 -0.3193
   16MOL0     H 2146  10.007   9.065   7.916 -2.4622 -3.0116 -0.4520
   16MOL0     H 2147   9.884   8.976   8.106  0.9999  3.6671  0.1092
   16MOL0     H 2148   9.781   8.459   8.269 -1.9718 -0.5835 -0.7724
   16MOL0     H 2149   9.617   8.376   8.424  1.7935 -0.0579 -3.9347
   16MOL0     H 2150   9.639   8.535   8.794 -0.4652 -3.2397  1.2389
   16MOL0     H 2151   9.499   8.650   8.766 -0.8852 -0.8921 -0.4093
   16MOL0     H 2152   9.489   8.453   8.958  1.9701  2.5367 -0.7594
   16MOL0     H 2153   9.474   8.349   8.822  0.5109 -0.6975  0.5436
   16MOL0     H 2154   9.291   8.484   8.720  1.3079  3.1338  1.0471
   16MOL0     H 2155   9.271   8.558   8.879  1.4776  0.5600  0.5804
   16MOL0     H 2156   9.291   8.258   8.896  0.3359 -0.9884 -4.0255
   16MOL0     H 2157   9.149   8.329   8.816  0.4913  2.4767 -1.5324
   16MOL0     H 2158   9.036   8.405   9.205  0.9432  0.5534  1.6333
   16MOL0     H 2159   9.666   8.743   8.651  0.1404 -0.5553  0.1149
   16MOL0     H 2160   9.830   8.819   8.496 -0.5962  0.0301 -0.4612
   17MOL0     O 2161  10.758   1.109   7.483 -0.8376 -0.0508  0.0721
   17MOL0     C 2162  10.641   1.139   7.488 -0.4082 -0.0576  0.1330
   17MOL0     O 2163  10.591   1.258   7.441 -0.5320 -1.0210 -0.0652
   17MOL0     C 2164  10.673   1.347   7.365  0.2919  1.1924 -0.3315
   17MOL0     C 2165  10.677   1.483   7.389  0.8937 -1.3105 -0.7493
   17MOL0     C 2166  10.757   1.576   7.321  0.8319  0.3898  0.6029
   17MOL0     C 2167  10.828   1.525   7.211 -0.2328 -0.8952  0.2578
   17MOL0     O 2168  10.915   1.612   7.139 -0.7266  0.3345  0.9016
   17MOL0     C 2169  11.053   1.567   7.110 -0.6744  0.0015  0.3252
   17MOL0     C 2170  11.146   1.692   7.157 -0.4227 -0.6367  0.1413
   17MOL0     C 2171  11.156   1.711   7.313  0.2569 -0.7311  0.4643
   17MOL0     C 2172  11.202   1.586   7.396 -0.5323  0.2092  1.3960
   17MOL0     C 2173  11.322   1.617   7.484  0.4603 -0.1829 -0.2070
   17MOL0     C 2174  11.455   1.623   7.395 -1.7273 -0.3252  0.1590
   17MOL0     C 2175  11.568   1.640   7.489 -0.7743  1.2696  0.5163
   17MOL0     C 2176  11.710   1.678   7.428  0.4723  0.2394 -0.3063
   17MOL0     N 2177  11.722   1.581   7.316 -0.6226  0.4813 -1.1677
   17MOL0     C 2178  11.804   1.460   7.331 -0.3404 -0.4792 -0.0375
   17MOL0     C 2179  11.825   1.409   7.209 -0.5156 -0.7074  0.4438
   17MOL0     C 2180  11.916   1.288   7.177  0.1548 -0.2734  0.8206
   17MOL0     C 2181  11.813   1.181   7.130 -1.0195  0.3122 -1.0496
   17MOL0     C 2182  11.869   1.042   7.103 -1.1929 -0.1919  0.0874
   17MOL0     C 2183  11.772   0.949   7.034  1.7652  0.0401  0.0301
   17MOL0     O 2184  11.818   0.818   7.044  0.6858  0.1206 -0.1513
   17MOL0     C 2185  11.775   0.731   6.943 -0.3978 -0.0920 -0.5381
   17MOL0     C 2186  11.700   0.615   6.978 -0.0207 -0.5122 -0.3402
   17MOL0     C 2187  11.664   0.521   6.883  0.8490 -0.0977  0.0208
   17MOL0     C 2188  11.576   0.405   6.936 -0.0265 -0.2699  0.0336
   17MOL0     C 2189  11.709   0.539   6.743 -1.0827 -0.0629  0.0514
   17MOL0     C 2190  11.682   0.442   6.628  0.0366 -0.8331 -0.5049
   17MOL0     O 2191  11.604   0.334   6.639  0.6774 -0.1201 -0.2677
   17MOL0     C 2192  11.661   0.213   6.611  0.3352  0.2253 -0.8133
   17MOL0     C 2193  11.793   0.184   6.596  0.2755 -1.1305 -0.6119
   17MOL0     C 2194  11.842   0.055   6.615 -0.4712  0.9240  0.1121
   17MOL0     C 2195  11.754  -0.053   6.615 -0.7438  0.7531 -0.4643
   17MOL0     O 2196  11.812  -0.175   6.612  0.5753  0.1106 -0.3985
   17MOL0     C 2197  11.729  -0.286   6.570  0.6504 -0.1695  0.4539
   17MOL0     C 2198  11.827  -0.404   6.558  0.0656 -0.6172  0.3740
   17MOL0     C 2199  11.940  -0.382   6.456 -1.2115  0.3431  0.0077
   17MOL0     C 2200  11.886  -0.332   6.320  0.3103 -0.8183 -0.1788
   17MOL0     C 2201  11.989  -0.286   6.219 -0.9117 -0.0511  0.5195
   17MOL0     C 2202  11.942  -0.271   6.081 -0.3396 -0.2779  0.4614
   17MOL0     C 2203  12.066  -0.259   5.981  0.7615  0.4834 -0.0957
   17MOL0     C 2204  12.013  -0.221   5.846 -0.3494  0.1629 -0.3891
   17MOL0    Cl 2205  12.131  -0.197   5.725  0.0797  0.1252  0.2364
   17MOL0     C 2206  11.617  -0.028   6.611  0.2960  1.3711  0.5905
   17MOL0     C 2207  11.575   0.104   6.615 -1.0350 -0.2569  0.5913
   17MOL0     O 2208  11.726   0.482   6.523  1.1819 -0.5305  0.6008
   17MOL0     C 2209  11.770   0.666   6.718  1.0091 -0.3979  0.8984
   17MOL0     C 2210  11.806   0.761   6.808 -0.0717  0.0326 -0.3041
   17MOL0     N 2211  11.746   1.483   7.129 -0.3994 -0.2462  0.4282
   17MOL0     N 2212  11.699   1.589   7.180 -0.1009  0.7952 -0.4717
   17MOL0     C 2213  10.828   1.388   7.187  0.9163 -0.5222 -0.1632
   17MOL0     C 2214  10.747   1.304   7.255  0.4062  1.5550  0.8779
   17MOL0     C 2215  10.547   1.048   7.568  0.1034  0.0751  0.0331
   17MOL0     C 2216  10.404   1.043   7.573 -0.1137 -1.1668 -0.0676
   17MOL0     C 2217  10.333   0.958   7.657  0.4426 -0.2360  0.4990
   17MOL0     C 2218  10.397   0.867   7.741 -0.3448 -0.4431  0.2686
   17MOL0     O 2219  10.324   0.769   7.817 -0.1211  0.0003 -0.1942
   17MOL0     C 2220  10.400   0.704   7.921 -0.4371  0.2215 -0.1182
   17MOL0     C 2221  10.315   0.696   8.045 -0.9645  0.3659 -0.5044
   17MOL0     C 2222  10.385   0.596   8.144  0.1163  0.8704  0.3397
   17MOL0     C 2223  10.292   0.543   8.255 -0.4073  1.3611  0.3814
   17MOL0     C 2224  10.238   0.658   8.330  0.0652  0.1982 -0.4486
   17MOL0     C 2225  10.206   0.756   8.397 -0.1490 -0.1081 -0.0925
   17MOL0     C 2226  10.542   0.877   7.744 -0.1707  0.6604 -0.3919
   17MOL0     C 2227  10.615   0.962   7.658  0.3399  0.1406 -0.1115
   17MOL0     H 2228  10.624   1.524   7.475  2.1843 -1.6462  0.2363
   17MOL0     H 2229  10.756   1.681   7.349  0.6111  0.1920  1.3669
   17MOL0     H 2230  11.091   1.479   7.163  0.9047 -2.0697 -3.8055
   17MOL0     H 2231  11.059   1.551   7.002  2.5619  3.0696 -0.1652
   17MOL0     H 2232  11.244   1.682   7.111  0.8764 -2.0662  3.0035
   17MOL0     H 2233  11.093   1.778   7.115 -1.2836  0.3673  2.9977
   17MOL0     H 2234  11.226   1.794   7.329  2.2446 -2.6060  1.9827
   17MOL0     H 2235  11.065   1.750   7.360  1.3649  0.2447  1.8991
   17MOL0     H 2236  11.120   1.538   7.451  0.2525 -1.2424  1.3572
   17MOL0     H 2237  11.223   1.508   7.322 -3.2657 -1.7273  2.4937
   17MOL0     H 2238  11.315   1.718   7.526 -0.9472 -0.1685 -0.4532
   17MOL0     H 2239  11.326   1.546   7.568  1.0548 -0.0424 -0.1110
   17MOL0     H 2240  11.452   1.522   7.352  0.9903 -1.4018  2.2390
   17MOL0     H 2241  11.440   1.712   7.334 -1.7555  1.5424  2.7257
   17MOL0     H 2242  11.552   1.724   7.557  5.1903  1.3269  2.4278
   17MOL0     H 2243  11.581   1.559   7.561  2.7814  0.8621 -0.3794
   17MOL0     H 2244  11.788   1.673   7.505  0.3942 -0.5671 -0.2638
   17MOL0     H 2245  11.709   1.777   7.382 -0.0100  0.2654 -0.2424
   17MOL0     H 2246  11.853   1.422   7.420  1.7125  1.3487 -0.3260
   17MOL0     H 2247  11.982   1.326   7.098 -2.0767  1.8635 -0.1472
   17MOL0     H 2248  11.974   1.253   7.263 -1.7281 -1.9912  1.4654
   17MOL0     H 2249  11.755   1.230   7.052 -0.9065  2.3209  0.0604
   17MOL0     H 2250  11.751   1.163   7.218  0.3569 -2.8009 -0.5829
   17MOL0     H 2251  11.904   0.999   7.197  0.2987  0.4454 -0.1496
   17MOL0     H 2252  11.957   1.049   7.038  0.1229  2.0149  1.9560
   17MOL0     H 2253  11.761   0.985   6.931 -2.4368 -3.7371 -1.1503
   17MOL0     H 2254  11.673   0.950   7.081  2.5306 -2.2556  1.8415
   17MOL0     H 2255  11.674   0.604   7.083 -2.0511  0.4324 -0.6937
   17MOL0     H 2256  11.479   0.415   6.886  1.1662  0.7878 -2.1954
   17MOL0     H 2257  11.622   0.307   6.919  2.0567  0.9680 -2.0057
   17MOL0     H 2258  11.567   0.408   7.045  0.0042 -3.0282  0.1944
   17MOL0     H 2259  11.865   0.261   6.570 -0.7043 -0.7426 -2.2769
   17MOL0     H 2260  11.948   0.032   6.605 -0.7522 -0.1754 -0.5002
   17MOL0     H 2261  11.667  -0.311   6.657  0.2245 -2.6147 -0.4701
   17MOL0     H 2262  11.651  -0.283   6.493 -1.3778  0.1381  2.4222
   17MOL0     H 2263  11.874  -0.417   6.656 -1.1059 -0.5808  0.9577
   17MOL0     H 2264  11.765  -0.490   6.535 -1.2653 -0.8055  3.9722
   17MOL0     H 2265  11.984  -0.480   6.431 -2.6488 -0.0719 -1.0003
   17MOL0     H 2266  12.013  -0.311   6.495 -3.8589  2.4201  1.4908
   17MOL0     H 2267  11.819  -0.407   6.278 -2.7892  1.0505  1.0474
   17MOL0     H 2268  11.815  -0.250   6.335  2.0966  0.7028  0.3265
   17MOL0     H 2269  12.084  -0.341   6.223 -0.4461  0.5317 -1.5230
   17MOL0     H 2270  12.023  -0.191   6.262 -0.7266  1.0923 -2.0029
   17MOL0     H 2271  11.887  -0.358   6.046 -1.1116  0.2270  0.4065
   17MOL0     H 2272  11.877  -0.183   6.079  0.0810  0.0652  1.2266
   17MOL0     H 2273  12.130  -0.347   5.991 -1.1724 -0.8442  1.7258
   17MOL0     H 2274  12.120  -0.169   6.009 -0.7101  0.5233  3.1036
   17MOL0     H 2275  11.961  -0.125   5.855 -0.5474  0.0007  0.3029
   17MOL0     H 2276  11.942  -0.297   5.812 -0.8209 -0.0983  1.0741
   17MOL0     H 2277  11.538  -0.102   6.606 -1.9424  3.6737 -0.6938
   17MOL0     H 2278  11.469   0.123   6.627 -0.9980  2.5471 -2.0615
   17MOL0     H 2279  11.803   0.693   6.618  0.7124  2.3408  1.4730
   17MOL0     H 2280  11.879   0.831   6.770 -0.8092 -1.0508 -4.1246
   17MOL0     H 2281  10.886   1.362   7.099  1.8545  0.6387  0.0938
   17MOL0     H 2282  10.740   1.200   7.224 -0.0637  1.3757  1.5652
   17MOL0     H 2283  10.351   1.115   7.511  0.5471 -0.6953 -0.0946
   17MOL0     H 2284  10.225   0.962   7.650  0.5858  0.7354 -1.5758
   17MOL0     H 2285  10.426   0.605   7.884  1.3157  0.5712  0.1116
   17MOL0     H 2286  10.476   0.774   7.957  1.5044 -2.9481  2.4961
   17MOL0     H 2287  10.220   0.647   8.020 -3.0218  3.7616 -0.0342
   17MOL0     H 2288  10.309   0.798   8.083  1.7102  0.5574 -0.4005
   17MOL0     H 2289  10.468   0.648   8.193 -0.9821  5.8523 -2.4069
   17MOL0     H 2290  10.423   0.509   8.091  0.0044 -0.0734  1.7504
   17MOL0     H 2291  10.343   0.472   8.320 -2.7287  0.5547  1.4252
   17MOL0     H 2292  10.208   0.488   8.212  1.6415 -2.6537  1.0985
   17MOL0     H 2293  10.181   0.836   8.464  0.1322  0.2556 -0.4147
   17MOL0     H 2294  10.612   0.812   7.797 -1.8915  1.3242  2.9327
   17MOL0     H 2295  10.723   0.956   7.662  0.2508 -1.5385  0.4152
   18MOL0     O 2296   6.754  10.788   6.345  0.3583 -0.3648  0.0145
   18MOL0     C 2297   6.647  10.852   6.330  0.6261 -0.1953 -0.5673
   18MOL0     O 2298   6.634  10.989   6.341 -0.0107  0.1477 -1.0631
   18MOL0     C 2299   6.743  11.074   6.369 -0.3091 -0.4639  0.0748
   18MOL0     C 2300   6.721  11.191   6.449 -1.0026  0.5197  0.1472
   18MOL0     C 2301   6.818  11.297   6.469 -0.0147  1.2251 -0.8831
   18MOL0     C 2302   6.949  11.282   6.411 -0.0365  0.8086 -1.2953
   18MOL0     O 2303   7.040  11.381   6.431  0.1100  0.2190 -0.1929
   18MOL0     C 2304   7.175  11.355   6.382 -0.3972  0.2647 -0.3932
   18MOL0     C 2305   7.183  11.402   6.235  0.6097  0.8396  0.7252
   18MOL0     C 2306   7.313  11.352   6.167 -0.8565  0.2021  0.2404
   18MOL0     C 2307   7.431  11.425   6.231  0.2713 -0.3456 -0.4399
   18MOL0     C 2308   7.451  11.578   6.197  0.5574  0.4333  0.2302
   18MOL0     C 2309   7.592  11.628   6.231  0.3895  0.0744  0.0424
   18MOL0     C 2310   7.631  11.624   6.387  0.1795 -0.1044 -0.1648
   18MOL0     C 2311   7.581  11.717   6.489  1.0808  0.3972  0.0063
   18MOL0     N 2312   7.441  11.735   6.499  0.3651  1.0949  0.4532
   18MOL0     C 2313   7.356  11.679   6.592 -0.1929 -0.3269  0.8020
   18MOL0     C 2314   7.239  11.726   6.549  0.3075 -0.2132 -0.2015
   18MOL0     C 2315   7.102  11.700   6.612  0.4700  0.0206  0.5627
   18MOL0     C 2316   7.019  11.824   6.621 -0.3823 -0.0946  0.2329
   18MOL0     C 2317   7.083  11.926   6.725 -0.5661  0.1793  0.7427
   18MOL0     C 2318   7.038  11.911   6.863 -0.4995 -0.7701 -0.8924
   18MOL0     O 2319   7.065  11.781   6.916  0.4202 -0.3283 -0.2504
   18MOL0     C 2320   7.127  11.779   7.036 -1.1942  0.6196 -0.4533
   18MOL0     C 2321   7.269  11.749   7.041  0.1553  0.1669 -0.0219
   18MOL0     C 2322   7.337  11.744   7.159 -0.2132 -0.8139 -0.4325
   18MOL0     C 2323   7.486  11.711   7.140 -0.1895  0.0679  0.0170
   18MOL0     C 2324   7.265  11.785   7.285 -0.1395  1.0193  0.4808
   18MOL0     C 2325   7.329  11.784   7.415  0.0942 -0.1854  0.7104
   18MOL0     O 2326   7.257  11.839   7.517  0.0934  0.9579 -0.3714
   18MOL0     C 2327   7.292  11.803   7.644 -1.0205 -0.3213  0.0058
   18MOL0     C 2328   7.217  11.721   7.723  0.1778  0.1547  0.0653
   18MOL0     C 2329   7.254  11.699   7.859  0.1931 -0.0377 -0.2354
   18MOL0     C 2330   7.374  11.742   7.908  1.1557 -0.0759 -0.1268
   18MOL0     O 2331   7.412  11.739   8.039 -0.2713 -0.1229 -0.1168
   18MOL0     C 2332   7.334  11.831   8.111  0.4007 -0.7979  0.0444
   18MOL0     C 2333   7.384  11.888   8.242  0.2675 -0.3285 -0.9990
   18MOL0     C 2334   7.285  11.994   8.299 -0.0067  0.3964  0.1291
   18MOL0     C 2335   7.314  12.043   8.442  0.3361  0.2873  0.6577
   18MOL0     C 2336   7.184  12.104   8.500 -0.0121  0.4573  0.0623
   18MOL0     C 2337   7.204  12.164   8.635  1.0221  0.2086 -1.2352
   18MOL0     C 2338   7.267  12.067   8.740 -0.4064  0.1845  0.1568
   18MOL0     C 2339   7.217  11.923   8.770 -0.4467 -0.7438  0.4656
   18MOL0    Cl 2340   7.046  11.934   8.798  0.0363  0.1235 -0.0002
   18MOL0     C 2341   7.444  11.824   7.828 -0.3064 -0.4536 -0.5499
   18MOL0     C 2342   7.402  11.856   7.698  0.5694  0.9507 -0.3812
   18MOL0     O 2343   7.443  11.738   7.426 -0.1058 -0.0717 -0.5043
   18MOL0     C 2344   7.129  11.818   7.275  0.0223  0.6010 -0.0445
   18MOL0     C 2345   7.067  11.813   7.155  0.1483  0.9182 -0.6295
   18MOL0     N 2346   7.256  11.819   6.447 -0.4523  0.3405  0.5985
   18MOL0     N 2347   7.380  11.827   6.419 -0.2669 -0.5424  0.2931
   18MOL0     C 2348   6.976  11.162   6.341  0.0293  0.0518 -0.3523
   18MOL0     C 2349   6.877  11.068   6.319 -0.0637 -0.5170  0.4978
   18MOL0     C 2350   6.512  10.782   6.342 -0.2155  0.1900  0.8733
   18MOL0     C 2351   6.494  10.654   6.289  1.0964 -0.1398  0.9763
   18MOL0     C 2352   6.369  10.586   6.302 -0.1551 -0.4438 -0.1317
   18MOL0     C 2353   6.250  10.649   6.343  0.6444  0.1513  0.4823
   18MOL0     O 2354   6.130  10.577   6.331  0.2444  0.0070  0.2507
   18MOL0     C 2355   6.098  10.510   6.452 -0.1356 -0.3522  0.8729
   18MOL0     C 2356   6.010  10.388   6.432  0.0712  0.9920 -0.5216
   18MOL0     C 2357   6.028  10.307   6.566 -0.0773  0.1897 -0.4378
   18MOL0     C 2358   5.921  10.198   6.584  0.2014 -0.8435  0.2843
   18MOL0     C 2359   5.896  10.124   6.451 -1.9827 -0.1115 -0.7298
   18MOL0     C 2360   5.883  10.046   6.356  0.2068 -0.6537 -0.8628
   18MOL0     C 2361   6.265  10.780   6.402 -0.8637 -0.2560  1.1538
   18MOL0     C 2362   6.398  10.841   6.403 -0.3893 -0.5688 -0.0551
   18MOL0     H 2363   6.625  11.195   6.499 -1.0237 -1.3877  0.3425
   18MOL0     H 2364   6.796  11.375   6.541 -1.1637 -1.2578  1.6375
   18MOL0     H 2365   7.241  11.416   6.445  0.8275 -0.6168 -0.7849
   18MOL0     H 2366   7.213  11.253   6.388 -2.7327 -0.6385  0.1561
   18MOL0     H 2367   7.108  11.354   6.171  4.5339 -2.7422 -1.7447
   18MOL0     H 2368   7.186  11.511   6.225 -1.1277  0.7293 -2.2839
   18MOL0     H 2369   7.327  11.244   6.172  1.0257  0.2527 -1.9396
   18MOL0     H 2370   7.317  11.382   6.061 -0.6697 -0.3223  0.0957
   18MOL0     H 2371   7.429  11.410   6.339 -0.3151 -0.0040 -0.4002
   18MOL0     H 2372   7.524  11.370   6.215  1.2196  0.8733  0.6446
   18MOL0     H 2373   7.445  11.595   6.089  3.3599 -1.0446 -0.2546
   18MOL0     H 2374   7.378  11.636   6.253  1.1700 -0.7422  2.3743
   18MOL0     H 2375   7.670  11.570   6.180 -0.5856 -3.2264  2.0474
   18MOL0     H 2376   7.604  11.730   6.193  2.1609 -0.0945  0.0490
   18MOL0     H 2377   7.613  11.519   6.414 -0.3061 -0.9768 -3.3735
   18MOL0     H 2378   7.739  11.645   6.387  1.2504 -4.5870 -0.9374
   18MOL0     H 2379   7.627  11.817   6.485  0.9933  0.4006 -1.1869
   18MOL0     H 2380   7.627  11.675   6.579  1.5175 -0.1376 -0.4522
   18MOL0     H 2381   7.372  11.614   6.677  0.1112  1.9944  2.6101
   18MOL0     H 2382   7.037  11.634   6.554  0.6952 -1.4306  1.8939
   18MOL0     H 2383   7.106  11.644   6.706  0.8207 -0.8323  0.0506
   18MOL0     H 2384   6.918  11.796   6.654 -1.0112  0.0414 -1.4673
   18MOL0     H 2385   6.999  11.866   6.522  1.7473 -2.3321 -1.2657
   18MOL0     H 2386   7.062  12.029   6.693  0.3360 -0.1321 -1.0264
   18MOL0     H 2387   7.192  11.932   6.738 -0.6249  0.7350  1.0247
   18MOL0     H 2388   6.929  11.924   6.861 -0.3521  0.5664 -2.6229
   18MOL0     H 2389   7.077  11.992   6.924  0.3697 -2.4423  0.8979
   18MOL0     H 2390   7.310  11.719   6.945 -0.1158 -3.1492  0.7709
   18MOL0     H 2391   7.520  11.749   7.043 -0.4335  0.6193  0.1402
   18MOL0     H 2392   7.553  11.761   7.211  3.2886 -2.4176 -1.2910
   18MOL0     H 2393   7.517  11.607   7.147 -1.5470 -0.4494 -1.2006
   18MOL0     H 2394   7.128  11.677   7.678 -1.7299  1.1913  2.5702
   18MOL0     H 2395   7.179  11.647   7.917  1.2689  0.0317  1.2640
   18MOL0     H 2396   7.303  11.913   8.045  6.2922 -0.3363 -2.7650
   18MOL0     H 2397   7.250  11.763   8.128  1.6276 -2.8379 -1.6205
   18MOL0     H 2398   7.399  11.800   8.305 -0.1339  0.0973 -0.3012
   18MOL0     H 2399   7.487  11.924   8.232  2.9515 -5.5365  2.7869
   18MOL0     H 2400   7.196  11.932   8.297 -0.3611  0.9105 -1.2167
   18MOL0     H 2401   7.285  12.073   8.222 -1.0929  0.8803  0.6063
   18MOL0     H 2402   7.351  11.957   8.500  0.2270  1.1437  2.0585
   18MOL0     H 2403   7.400  12.109   8.430 -0.3264  1.0324 -0.0078
   18MOL0     H 2404   7.110  12.023   8.507 -0.3960  0.6024 -1.7311
   18MOL0     H 2405   7.138  12.189   8.448 -1.6373  1.0266  2.2664
   18MOL0     H 2406   7.276  12.244   8.616  2.6083 -1.4782 -2.8569
   18MOL0     H 2407   7.112  12.194   8.685  0.8343  2.4649 -2.8124
   18MOL0     H 2408   7.258  12.121   8.836 -1.2001 -1.4380  1.0370
   18MOL0     H 2409   7.372  12.051   8.716 -0.5166 -3.1768  1.3744
   18MOL0     H 2410   7.273  11.895   8.860  3.0605  2.2494 -0.4942
   18MOL0     H 2411   7.241  11.855   8.687 -1.1095  0.5131 -0.7948
   18MOL0     H 2412   7.538  11.864   7.864 -0.3421  0.8640 -1.8291
   18MOL0     H 2413   7.472  11.903   7.630  2.5385 -0.9524  0.1986
   18MOL0     H 2414   7.070  11.834   7.365  1.2157  1.5590  0.6168
   18MOL0     H 2415   6.961  11.836   7.150  0.0329  0.9732  1.3193
   18MOL0     H 2416   7.063  11.135   6.282  0.0792  0.2484 -0.3696
   18MOL0     H 2417   6.899  10.985   6.254  0.4325  1.8099 -2.5312
   18MOL0     H 2418   6.582  10.612   6.242  1.0955  2.3362 -1.5111
   18MOL0     H 2419   6.354  10.490   6.253  0.5994 -0.8037  0.3082
   18MOL0     H 2420   6.188  10.483   6.506  0.1385  0.8271  1.0309
   18MOL0     H 2421   6.037  10.568   6.522 -1.0458 -1.4340  1.0111
   18MOL0     H 2422   6.050  10.314   6.362  0.7127  0.2119  0.6428
   18MOL0     H 2423   5.907  10.415   6.407  0.1229  0.8821 -0.8593
   18MOL0     H 2424   6.020  10.378   6.649  2.0360  1.5296 -1.3249
   18MOL0     H 2425   6.125  10.256   6.566 -1.4051 -2.5438  0.3475
   18MOL0     H 2426   5.829  10.246   6.618  0.1576 -1.1538  0.6134
   18MOL0     H 2427   5.957  10.129   6.661  1.4094  0.8897  1.3315
   18MOL0     H 2428   5.856   9.981   6.276  1.2841 -0.7122 -1.2048
   18MOL0     H 2429   6.184  10.835   6.450  0.1332  0.6774  1.8290
   18MOL0     H 2430   6.402  10.939   6.449  1.7897 -1.5130  1.9787
   19MOL0     O 2431   5.690   7.471   9.025  0.5611  0.3366 -0.3511
   19MOL0     C 2432   5.778   7.414   8.959 -0.6578 -0.5911  0.4195
   19MOL0     O 2433   5.920   7.422   8.985  1.1028 -0.2329  0.0398
   19MOL0     C 2434   5.969   7.505   9.078 -0.7185  0.6842 -0.5015
   19MOL0     C 2435   6.074   7.579   9.033  0.2532 -0.5854 -0.2689
   19MOL0     C 2436   6.142   7.666   9.118  0.5778 -0.5945  1.1374
   19MOL0     C 2437   6.096   7.684   9.256 -0.3327 -0.1393 -0.4490
   19MOL0     O 2438   6.175   7.767   9.339 -0.7055 -0.2888 -0.0459
   19MOL0     C 2439   6.106   7.879   9.391  0.0707 -0.7224 -0.2781
   19MOL0     C 2440   6.116   7.996   9.294  0.1319 -0.0931  0.1235
   19MOL0     C 2441   6.260   8.058   9.318 -0.4987 -0.2921 -0.9467
   19MOL0     C 2442   6.307   8.183   9.241  0.2097  0.4154  0.4146
   19MOL0     C 2443   6.456   8.216   9.261 -0.3055  0.6688 -0.8184
   19MOL0     C 2444   6.508   8.332   9.182 -0.5000 -0.0536 -0.9716
   19MOL0     C 2445   6.651   8.355   9.210  0.4737  0.0778 -0.3122
   19MOL0     C 2446   6.722   8.484   9.156  0.4760  0.4169  0.3409
   19MOL0     N 2447   6.726   8.591   9.251 -0.8771 -1.0018  0.2155
   19MOL0     C 2448   6.829   8.683   9.254 -0.4663  0.4109  0.2347
   19MOL0     C 2449   6.795   8.777   9.347 -0.1307 -0.2933  0.6093
   19MOL0     C 2450   6.876   8.904   9.386 -0.5709 -0.5712  0.9657
   19MOL0     C 2451   6.795   9.000   9.479  0.8506  0.7323  0.3489
   19MOL0     C 2452   6.680   9.064   9.398 -1.2618  0.3264  0.4633
   19MOL0     C 2453   6.598   9.143   9.503 -0.3874 -0.8543  0.5180
   19MOL0     O 2454   6.545   9.077   9.616 -0.0021 -0.3049  0.1906
   19MOL0     C 2455   6.460   8.973   9.591  0.4407  0.0071 -0.3151
   19MOL0     C 2456   6.436   8.885   9.694  0.7114 -0.0252 -0.6386
   19MOL0     C 2457   6.369   8.765   9.680  0.8073  0.0949  0.3961
   19MOL0     C 2458   6.378   8.675   9.800  0.7116 -0.2241  0.0344
   19MOL0     C 2459   6.284   8.752   9.567  1.3637 -0.2998  0.0167
   19MOL0     C 2460   6.178   8.647   9.546 -0.3179  1.1219 -0.2064
   19MOL0     O 2461   6.170   8.543   9.624  0.4127  0.3205 -0.5381
   19MOL0     C 2462   6.059   8.460   9.612  0.1169  0.4732 -0.3453
   19MOL0     C 2463   5.956   8.465   9.705 -0.7163  0.6504  0.9761
   19MOL0     C 2464   5.852   8.377   9.718 -0.2201 -0.0783  0.2969
   19MOL0     C 2465   5.849   8.275   9.625 -0.5199 -0.1856  0.0512
   19MOL0     O 2466   5.737   8.198   9.625 -0.6622 -0.4231 -0.8512
   19MOL0     C 2467   5.678   8.157   9.501  0.9409  0.5816  0.4946
   19MOL0     C 2468   5.547   8.078   9.546 -0.5704  0.2821  0.8083
   19MOL0     C 2469   5.584   7.959   9.630 -0.1304  0.1083 -0.0301
   19MOL0     C 2470   5.666   7.848   9.547 -0.1379  0.1653 -0.4188
   19MOL0     C 2471   5.682   7.708   9.624  0.1320  0.0007  0.0828
   19MOL0     C 2472   5.545   7.634   9.620 -0.9821 -0.0602 -0.4045
   19MOL0     C 2473   5.495   7.599   9.476 -0.0113 -0.3531 -1.1107
   19MOL0     C 2474   5.416   7.469   9.471  0.3150 -0.3283 -0.3209
   19MOL0    Cl 2475   5.288   7.467   9.609 -0.3756  0.0178  0.1607
   19MOL0     C 2476   5.949   8.259   9.529  0.6899  0.6640  0.0654
   19MOL0     C 2477   6.057   8.341   9.533  0.4413  0.0401 -0.5416
   19MOL0     O 2478   6.096   8.672   9.457  0.2434 -0.2980 -0.2359
   19MOL0     C 2479   6.302   8.838   9.459  0.4265 -0.2641  0.2045
   19MOL0     C 2480   6.386   8.950   9.470  0.4621 -0.5479  0.5930
   19MOL0     N 2481   6.663   8.745   9.388  0.4429  0.0688 -0.4256
   19MOL0     N 2482   6.620   8.642   9.325 -0.8180  0.3033  0.0744
   19MOL0     C 2483   5.973   7.619   9.300  0.2039 -0.5202  0.3372
   19MOL0     C 2484   5.924   7.515   9.214  0.0978 -0.5270 -0.0742
   19MOL0     C 2485   5.732   7.341   8.838 -0.0337 -0.4290 -0.7334
   19MOL0     C 2486   5.605   7.274   8.838 -0.6902  0.1836  0.9251
   19MOL0     C 2487   5.568   7.200   8.724 -0.2458  0.5007  0.6189
   19MOL0     C 2488   5.642   7.200   8.601  0.1518 -0.1667  0.3564
   19MOL0     O 2489   5.598   7.150   8.485 -0.2855 -0.4511  0.6718
   19MOL0     C 2490   5.484   7.067   8.490  1.0561  0.0601 -0.4978
   19MOL0     C 2491   5.456   6.995   8.359 -0.6756 -0.6349  0.7146
   19MOL0     C 2492   5.355   7.079   8.281 -0.0215 -0.5303 -0.7593
   19MOL0     C 2493   5.250   7.021   8.180  0.5049 -0.2656 -0.2152
   19MOL0     C 2494   5.310   6.921   8.087 -1.0396  0.1911  0.0584
   19MOL0     C 2495   5.361   6.849   8.011  0.9561 -0.0413 -0.1644
   19MOL0     C 2496   5.760   7.287   8.600  0.3166  1.0004  0.1103
   19MOL0     C 2497   5.805   7.352   8.717  0.3930  0.0636 -0.3733
   19MOL0     H 2498   6.104   7.565   8.929 -1.4403 -1.0697 -0.7142
   19MOL0     H 2499   6.219   7.725   9.069 -2.2384  3.2311  0.8604
   19MOL0     H 2500   6.004   7.848   9.414 -0.8370  3.0195  1.3278
   19MOL0     H 2501   6.143   7.917   9.486  0.0440 -0.7792 -0.2449
   19MOL0     H 2502   6.119   7.961   9.190 -1.7635 -0.3305  0.1168
   19MOL0     H 2503   6.035   8.067   9.310  0.3416  0.0885  0.3870
   19MOL0     H 2504   6.271   8.074   9.426 -1.0445 -0.4242 -0.8723
   19MOL0     H 2505   6.326   7.980   9.279 -1.3448  0.0189 -3.1424
   19MOL0     H 2506   6.280   8.161   9.138 -1.7635 -4.6736  1.7000
   19MOL0     H 2507   6.247   8.268   9.275 -2.1733 -1.7304  1.9317
   19MOL0     H 2508   6.471   8.227   9.369  1.6800 -2.1039 -0.7036
   19MOL0     H 2509   6.514   8.126   9.237 -2.5742 -0.8322 -1.0705
   19MOL0     H 2510   6.495   8.323   9.073  1.1023 -2.4485 -1.0247
   19MOL0     H 2511   6.453   8.417   9.225  0.9573  0.5428 -0.2394
   19MOL0     H 2512   6.666   8.349   9.318  2.5728  1.5310 -0.4683
   19MOL0     H 2513   6.707   8.274   9.163 -0.6116 -1.5671  1.1004
   19MOL0     H 2514   6.688   8.508   9.055  0.7309  1.6910  0.5380
   19MOL0     H 2515   6.824   8.450   9.133  1.2392  2.5841  0.2321
   19MOL0     H 2516   6.926   8.657   9.215  0.1109 -1.3668  2.5903
   19MOL0     H 2517   6.967   8.872   9.438 -0.0937 -0.0812  0.4504
   19MOL0     H 2518   6.900   8.951   9.290 -1.9135 -2.5258 -0.4165
   19MOL0     H 2519   6.860   9.078   9.521  1.9165  0.1025 -0.0934
   19MOL0     H 2520   6.766   8.946   9.569  2.8599 -0.5776  0.2772
   19MOL0     H 2521   6.619   8.996   9.339 -0.2123  1.8013 -2.5450
   19MOL0     H 2522   6.731   9.137   9.334  1.4154 -1.7070  0.0837
   19MOL0     H 2523   6.523   9.201   9.448 -0.0944 -2.8700 -2.1753
   19MOL0     H 2524   6.667   9.215   9.548  2.5356 -2.5635 -0.9739
   19MOL0     H 2525   6.475   8.907   9.793  1.9493  1.3773 -1.3935
   19MOL0     H 2526   6.309   8.701   9.881  1.8433 -2.2039  1.7163
   19MOL0     H 2527   6.347   8.573   9.777  0.6440 -0.3219  0.5593
   19MOL0     H 2528   6.478   8.686   9.841  1.6283  3.6874 -2.6980
   19MOL0     H 2529   5.952   8.535   9.788 -1.2869 -2.5175  3.8456
   19MOL0     H 2530   5.764   8.393   9.779 -0.3666 -0.4139  0.1778
   19MOL0     H 2531   5.646   8.241   9.440 -1.5118  0.6547  1.7635
   19MOL0     H 2532   5.746   8.090   9.448 -0.1715 -0.4738  0.3571
   19MOL0     H 2533   5.494   8.151   9.608  0.7621  2.5874 -0.6230
   19MOL0     H 2534   5.488   8.049   9.459  1.0905 -0.6559 -0.0447
   19MOL0     H 2535   5.491   7.917   9.670 -0.2344  0.5280  0.1711
   19MOL0     H 2536   5.644   7.987   9.717  2.2865 -0.5991 -1.3885
   19MOL0     H 2537   5.616   7.825   9.453  0.7080  0.1258 -0.8688
   19MOL0     H 2538   5.770   7.877   9.528 -0.6362  2.2448 -0.2864
   19MOL0     H 2539   5.713   7.717   9.729 -0.7665  0.6063  0.3111
   19MOL0     H 2540   5.754   7.651   9.565  0.6054  1.1809 -0.5208
   19MOL0     H 2541   5.557   7.544   9.681 -0.0346  1.2364  1.4085
   19MOL0     H 2542   5.462   7.681   9.674  0.8954  0.5812  2.1047
   19MOL0     H 2543   5.586   7.586   9.416  0.9291 -1.2625  0.4719
   19MOL0     H 2544   5.437   7.683   9.436 -1.5895  0.2904  2.2224
   19MOL0     H 2545   5.493   7.393   9.485  2.0350  1.0588 -1.6736
   19MOL0     H 2546   5.377   7.450   9.371  1.9578  1.0510 -1.2914
   19MOL0     H 2547   5.948   8.176   9.459 -2.5367 -1.3987  2.3090
   19MOL0     H 2548   6.137   8.343   9.460  2.0344  2.3338  1.1357
   19MOL0     H 2549   6.250   8.828   9.364 -0.4294 -3.1167  0.8790
   19MOL0     H 2550   6.389   9.005   9.377 -0.4482 -1.7060 -0.1472
   19MOL0     H 2551   5.941   7.647   9.400 -0.1979  2.2049 -0.4741
   19MOL0     H 2552   5.828   7.470   9.238 -1.1549  2.4545  0.9869
   19MOL0     H 2553   5.566   7.251   8.936 -0.7694  1.2965  1.1741
   19MOL0     H 2554   5.477   7.142   8.735 -0.8433  1.1150 -0.8746
   19MOL0     H 2555   5.502   6.986   8.561 -0.2270 -1.2740 -1.6187
   19MOL0     H 2556   5.393   7.120   8.520  0.7358  0.0750 -1.4662
   19MOL0     H 2557   5.433   6.889   8.370  0.3538 -0.7628  1.8270
   19MOL0     H 2558   5.554   7.003   8.312 -1.9272  2.0627 -1.7958
   19MOL0     H 2559   5.415   7.153   8.228 -0.4290 -0.1951 -0.7578
   19MOL0     H 2560   5.285   7.131   8.347 -1.1324 -0.0351 -2.2562
   19MOL0     H 2561   5.195   7.099   8.128  0.3324  0.2136  0.6642
   19MOL0     H 2562   5.170   6.969   8.234 -0.9072  0.0205 -1.9507
   19MOL0     H 2563   5.416   6.793   7.938  3.1749  3.0416 -1.0855
   19MOL0     H 2564   5.815   7.300   8.507 -1.6949 -0.9365 -1.4615
   19MOL0     H 2565   5.896   7.411   8.717  0.0174  0.6791 -1.7674
   20MOL0     O 2566   6.406   2.803   1.442  0.0072  0.0212  0.3861
   20MOL0     C 2567   6.302   2.740   1.422 -0.1013 -0.4614 -0.0935
   20MOL0     O 2568   6.198   2.714   1.507  0.2163 -0.2185  0.6090
   20MOL0     C 2569   6.216   2.765   1.630 -0.9620  0.0586 -0.7482
   20MOL0     C 2570   6.163   2.882   1.680 -0.4358  0.1477  1.1842
   20MOL0     C 2571   6.200   2.939   1.807  0.5123 -0.1514  0.8962
   20MOL0     C 2572   6.286   2.871   1.893 -0.7536  0.8636 -0.0451
   20MOL0     O 2573   6.301   2.907   2.024  0.4820  0.4205  0.0477
   20MOL0     C 2574   6.420   2.887   2.097 -0.1424  1.1559  0.4487
   20MOL0     C 2575   6.534   2.973   2.039 -0.0789  0.8162 -0.0198
   20MOL0     C 2576   6.512   3.119   2.076 -0.7176  0.8660 -0.6582
   20MOL0     C 2577   6.625   3.211   2.021  0.0074  0.9368  0.4259
   20MOL0     C 2578   6.594   3.354   1.993  0.6534  0.1267 -0.3368
   20MOL0     C 2579   6.549   3.443   2.120  0.0202 -0.5274 -0.6050
   20MOL0     C 2580   6.661   3.471   2.230 -0.0272  0.9983  0.3711
   20MOL0     C 2581   6.625   3.591   2.317  0.0414  0.1641 -1.1993
   20MOL0     N 2582   6.711   3.606   2.442 -0.8222  0.8771  0.1649
   20MOL0     C 2583   6.785   3.710   2.488 -0.0882  0.0954  0.1716
   20MOL0     C 2584   6.811   3.687   2.617  0.7299 -0.3015 -0.3229
   20MOL0     C 2585   6.892   3.785   2.696 -0.6549  0.3214 -0.3273
   20MOL0     C 2586   6.791   3.846   2.792 -0.3770 -0.5523  0.1927
   20MOL0     C 2587   6.814   3.997   2.818 -0.3215  0.2603 -0.4533
   20MOL0     C 2588   6.786   4.096   2.698  0.4715  0.3303  1.1035
   20MOL0     O 2589   6.656   4.081   2.636  0.2247 -0.8475  0.3233
   20MOL0     C 2590   6.641   4.068   2.498 -0.3032 -1.4249 -0.0317
   20MOL0     C 2591   6.717   4.132   2.401  0.0224  0.2806  1.0277
   20MOL0     C 2592   6.682   4.130   2.266 -1.0933 -0.0301  1.1465
   20MOL0     C 2593   6.764   4.218   2.172  0.2448 -0.3337 -0.5069
   20MOL0     C 2594   6.587   4.037   2.220  0.0575 -0.6636  0.2997
   20MOL0     C 2595   6.566   3.992   2.077 -0.7830  0.1221  0.3073
   20MOL0     O 2596   6.492   3.876   2.060 -0.3758 -0.0909 -0.6962
   20MOL0     C 2597   6.470   3.847   1.928  0.5635  0.2373  1.2867
   20MOL0     C 2598   6.557   3.761   1.860  0.5575 -0.5257 -0.4270
   20MOL0     C 2599   6.521   3.717   1.731  0.3852 -0.8597  0.3043
   20MOL0     C 2600   6.408   3.760   1.665  0.3040 -0.1923 -0.2568
   20MOL0     O 2601   6.398   3.725   1.531  0.9093  0.2073  0.2561
   20MOL0     C 2602   6.255   3.726   1.481 -0.6914 -0.2141  0.5032
   20MOL0     C 2603   6.213   3.610   1.391 -0.0822  0.4035  0.2330
   20MOL0     C 2604   6.083   3.638   1.313 -0.1445  0.2668  0.1523
   20MOL0     C 2605   6.031   3.505   1.253 -0.4092 -0.5204  0.3022
   20MOL0     C 2606   5.900   3.547   1.174 -1.3306 -1.2617 -1.0196
   20MOL0     C 2607   5.823   3.423   1.116 -0.4582 -0.5715  0.3490
   20MOL0     C 2608   5.841   3.436   0.964  0.1184 -0.0116  0.3529
   20MOL0     C 2609   5.760   3.329   0.906  0.1080  0.7910  0.8816
   20MOL0    Cl 2610   5.814   3.316   0.738 -0.1972 -0.4813 -0.5702
   20MOL0     C 2611   6.328   3.854   1.734 -0.8240  0.7516  0.1316
   20MOL0     C 2612   6.362   3.895   1.862 -0.5141  0.1918 -0.0241
   20MOL0     O 2613   6.631   4.047   1.992 -0.1247  0.7001  0.0695
   20MOL0     C 2614   6.503   3.971   2.316  0.1883 -0.6492  0.3920
   20MOL0     C 2615   6.528   4.003   2.446 -0.0571 -0.3312 -0.4737
   20MOL0     N 2616   6.778   3.560   2.646 -0.1469  0.5640  0.1886
   20MOL0     N 2617   6.706   3.519   2.549 -0.4402 -0.0357 -0.3331
   20MOL0     C 2618   6.322   2.745   1.850 -0.4076  0.4714 -0.3664
   20MOL0     C 2619   6.298   2.697   1.723 -0.3344  0.1221  0.6960
   20MOL0     C 2620   6.290   2.670   1.292  0.5449  0.1233  0.6071
   20MOL0     C 2621   6.381   2.691   1.185  0.1822  0.0043  0.7190
   20MOL0     C 2622   6.368   2.610   1.068  0.5428 -0.4716  0.2756
   20MOL0     C 2623   6.261   2.514   1.054 -0.2366 -0.8253 -1.0862
   20MOL0     O 2624   6.240   2.437   0.947  0.2699 -0.0021  0.2032
   20MOL0     C 2625   6.305   2.469   0.821 -0.0049 -0.5525 -0.1572
   20MOL0     C 2626   6.223   2.579   0.755 -0.4227  0.0212  0.2880
   20MOL0     C 2627   6.297   2.628   0.633 -0.6429 -0.1625  0.5232
   20MOL0     C 2628   6.399   2.736   0.657  0.4019 -0.3378  0.1082
   20MOL0     C 2629   6.520   2.690   0.732 -0.0656  0.8141 -0.4909
   20MOL0     C 2630   6.621   2.639   0.787 -0.8360  0.7623  0.9111
   20MOL0     C 2631   6.170   2.508   1.157 -0.4442  0.6606  0.0365
   20MOL0     C 2632   6.178   2.584   1.275 -0.2902 -0.2119  1.0758
   20MOL0     H 2633   6.103   2.935   1.607  2.7324  3.2950  0.6169
   20MOL0     H 2634   6.169   3.039   1.834  3.5101  0.9453  0.5974
   20MOL0     H 2635   6.403   2.888   2.205 -1.8412  0.3396  0.2310
   20MOL0     H 2636   6.449   2.783   2.081  0.0068  0.9733  1.8193
   20MOL0     H 2637   6.626   2.937   2.085 -0.3989 -1.3107 -0.9403
   20MOL0     H 2638   6.537   2.951   1.932 -2.4102 -0.8180  0.1791
   20MOL0     H 2639   6.418   3.156   2.034  0.0462  1.3783 -1.9695
   20MOL0     H 2640   6.507   3.143   2.183 -0.4107  5.2172 -1.4295
   20MOL0     H 2641   6.724   3.206   2.069  0.1610 -0.7275  0.0045
   20MOL0     H 2642   6.639   3.169   1.922 -0.2950  1.8078  0.0058
   20MOL0     H 2643   6.684   3.399   1.951  0.0119  0.3801 -1.4916
   20MOL0     H 2644   6.517   3.362   1.916 -2.4392  2.3958  2.6811
   20MOL0     H 2645   6.506   3.536   2.082 -0.6595 -1.0789 -1.1983
   20MOL0     H 2646   6.469   3.399   2.180  0.5646  0.2322  0.7204
   20MOL0     H 2647   6.682   3.383   2.291  0.7861  3.0358  3.2185
   20MOL0     H 2648   6.755   3.488   2.177 -0.6492  2.7919 -0.2435
   20MOL0     H 2649   6.517   3.585   2.334 -0.8361  3.6463 -4.3698
   20MOL0     H 2650   6.631   3.682   2.258  2.9289  1.0794  0.3082
   20MOL0     H 2651   6.800   3.803   2.434 -2.6890 -0.6908 -2.1605
   20MOL0     H 2652   6.974   3.736   2.748 -0.4265 -0.0625 -1.0349
   20MOL0     H 2653   6.927   3.868   2.633  0.0307 -0.8211 -1.5094
   20MOL0     H 2654   6.804   3.802   2.892  1.9689 -1.1243 -0.2996
   20MOL0     H 2655   6.690   3.824   2.757 -0.6391 -1.0229  1.2138
   20MOL0     H 2656   6.914   4.007   2.860 -0.1224  0.1726 -0.9017
   20MOL0     H 2657   6.751   4.034   2.900  0.4934  1.0001 -0.1473
   20MOL0     H 2658   6.863   4.090   2.620 -2.3552  0.8311 -1.9276
   20MOL0     H 2659   6.799   4.197   2.736  0.4192  1.8160 -2.4427
   20MOL0     H 2660   6.795   4.193   2.445 -0.5806  1.2032  0.8485
   20MOL0     H 2661   6.834   4.146   2.129  0.2330 -0.9077  0.4019
   20MOL0     H 2662   6.707   4.259   2.088 -1.1379 -1.3461 -0.1017
   20MOL0     H 2663   6.816   4.293   2.233 -3.0703  1.3915  0.4050
   20MOL0     H 2664   6.640   3.719   1.916 -0.9935  0.5699  2.9628
   20MOL0     H 2665   6.575   3.640   1.676 -1.3668 -1.4208 -0.6726
   20MOL0     H 2666   6.181   3.730   1.562  2.1955  1.5210  3.3206
   20MOL0     H 2667   6.239   3.820   1.427 -0.0960 -1.3665 -1.7828
   20MOL0     H 2668   6.301   3.602   1.326  0.6167 -1.0235  1.3101
   20MOL0     H 2669   6.196   3.531   1.465  0.7962  0.8525  0.9423
   20MOL0     H 2670   6.104   3.716   1.238 -1.7133  0.9975  0.4352
   20MOL0     H 2671   6.003   3.684   1.371 -0.9976  0.8587 -1.4278
   20MOL0     H 2672   6.104   3.479   1.176 -1.1243 -0.8691 -0.2710
   20MOL0     H 2673   6.019   3.433   1.335 -0.3453 -1.0497 -0.1495
   20MOL0     H 2674   5.937   3.615   1.097 -0.5368  0.2731  0.6391
   20MOL0     H 2675   5.842   3.606   1.246 -1.1218 -1.3062 -0.8152
   20MOL0     H 2676   5.882   3.337   1.147  3.2002  2.0394  1.3626
   20MOL0     H 2677   5.719   3.421   1.150 -0.0385  1.4141  1.9628
   20MOL0     H 2678   5.948   3.419   0.948 -0.0629  0.4193 -1.5733
   20MOL0     H 2679   5.809   3.533   0.926  1.0829  0.2651  0.2138
   20MOL0     H 2680   5.653   3.352   0.909 -0.5436 -2.0107  2.4280
   20MOL0     H 2681   5.767   3.236   0.964 -2.5271  1.0849  1.7720
   20MOL0     H 2682   6.240   3.893   1.683 -1.3353  1.0407  1.2221
   20MOL0     H 2683   6.298   3.953   1.927 -2.3173 -4.5300  2.9229
   20MOL0     H 2684   6.410   3.921   2.289 -0.8743  2.5453 -2.6685
   20MOL0     H 2685   6.466   3.964   2.527  1.3238 -0.4584  0.5727
   20MOL0     H 2686   6.372   2.679   1.921 -0.6831 -1.4421 -1.8513
   20MOL0     H 2687   6.337   2.609   1.674 -2.5166 -0.8086  0.5264
   20MOL0     H 2688   6.467   2.757   1.189  0.6368 -0.1607 -2.9849
   20MOL0     H 2689   6.455   2.622   1.005  1.4524  2.4953  1.8957
   20MOL0     H 2690   6.405   2.507   0.840 -0.3955 -0.4818  2.0335
   20MOL0     H 2691   6.313   2.382   0.754 -1.9745 -0.7308 -0.2354
   20MOL0     H 2692   6.216   2.663   0.825 -1.8557  1.5504 -1.5774
   20MOL0     H 2693   6.128   2.535   0.723  1.9506 -4.3727 -1.6211
   20MOL0     H 2694   6.220   2.667   0.566  0.4029 -0.1305 -0.6975
   20MOL0     H 2695   6.344   2.548   0.575  0.9801  2.2228 -1.6722
   20MOL0     H 2696   6.342   2.807   0.717  0.3161  0.6141 -1.0484
   20MOL0     H 2697   6.438   2.784   0.566  3.4754 -1.4889  0.6911
   20MOL0     H 2698   6.707   2.596   0.834  1.1839  1.2292 -2.0669
   20MOL0     H 2699   6.082   2.444   1.151 -0.6545  1.0031 -0.7493
   20MOL0     H 2700   6.105   2.575   1.355 -1.7178  3.1083  0.2862
   21MOL0     O 2701  11.395   9.916   3.019  0.0476 -0.0891 -0.2548
   21MOL0     C 2702  11.362   9.814   3.076 -0.3359 -0.1949 -0.6243
   21MOL0     O 2703  11.341   9.801   3.214 -0.4436 -0.2358 -0.2497
   21MOL0     C 2704  11.376   9.907   3.302  0.8544 -0.4585  0.3406
   21MOL0     C 2705  11.281   9.965   3.394  1.1164  0.6590 -0.4499
   21MOL0     C 2706  11.317  10.070   3.482  0.8316  0.1818 -0.2574
   21MOL0     C 2707  11.441  10.118   3.476 -0.3653 -0.3514  0.0517
   21MOL0     O 2708  11.459  10.223   3.567 -0.9143 -0.0361 -0.6247
   21MOL0     C 2709  11.577  10.309   3.567 -0.2398 -0.3261  0.5445
   21MOL0     C 2710  11.544  10.431   3.478 -0.4467  0.4435 -0.0796
   21MOL0     C 2711  11.660  10.500   3.411  0.2399  0.1596  0.3431
   21MOL0     C 2712  11.776  10.533   3.499  0.3214  0.0965 -0.1504
   21MOL0     C 2713  11.882  10.614   3.430 -0.3102  0.5262 -0.1724
   21MOL0     C 2714  11.989  10.670   3.520  0.5103  0.2314 -0.0749
   21MOL0     C 2715  12.098  10.740   3.431 -0.2480 -0.6275  0.2136
   21MOL0     C 2716  12.193  10.825   3.516  1.3581  0.5441  0.2495
   21MOL0     N 2717  12.290  10.895   3.439  1.5466  0.4130  0.2472
   21MOL0     C 2718  12.353  10.858   3.321  0.6218 -0.2373 -0.2065
   21MOL0     C 2719  12.431  10.963   3.295  0.0622  0.6727  0.0701
   21MOL0     C 2720  12.516  10.975   3.176  0.9188 -0.9325 -0.0303
   21MOL0     C 2721  12.432  10.982   3.051  0.1051 -0.4144 -0.2485
   21MOL0     C 2722  12.514  11.016   2.926 -0.0575  0.4600  0.5381
   21MOL0     C 2723  12.416  11.029   2.811 -0.4275 -0.8482  0.4877
   21MOL0     O 2724  12.476  11.000   2.681 -0.2812 -0.2029  0.5830
   21MOL0     C 2725  12.396  11.010   2.575  0.2285  0.4405 -0.5077
   21MOL0     C 2726  12.413  11.109   2.480 -0.4584 -0.3326  0.2022
   21MOL0     C 2727  12.348  11.103   2.358  0.6383 -0.1973  0.5692
   21MOL0     C 2728  12.372  11.205   2.246  0.5573 -0.4345 -1.1655
   21MOL0     C 2729  12.254  10.999   2.331  0.2343 -0.2941  0.1846
   21MOL0     C 2730  12.170  10.991   2.208  0.7031 -0.5402  0.4634
   21MOL0     O 2731  12.035  10.971   2.228  0.1092 -0.3428  0.3208
   21MOL0     C 2732  11.967  10.953   2.110  0.3394  0.4043  0.5911
   21MOL0     C 2733  11.946  10.825   2.057 -1.2883  0.0125 -0.1277
   21MOL0     C 2734  11.878  10.816   1.941  0.3159 -0.5691  0.2968
   21MOL0     C 2735  11.830  10.929   1.872 -0.0830 -0.0986  0.2621
   21MOL0     O 2736  11.776  10.894   1.748  0.0978 -0.0756  0.3955
   21MOL0     C 2737  11.741  10.999   1.656 -0.0903  0.1849  0.1375
   21MOL0     C 2738  11.594  11.005   1.664 -0.9563  0.1036  0.7475
   21MOL0     C 2739  11.523  11.099   1.569  0.6526  0.5108  0.7975
   21MOL0     C 2740  11.381  11.040   1.529 -0.3047  0.8467 -0.7032
   21MOL0     C 2741  11.297  11.145   1.470  0.1631  0.3517 -0.2856
   21MOL0     C 2742  11.169  11.092   1.411  0.2463  0.2281 -0.1478
   21MOL0     C 2743  11.084  11.206   1.357 -0.4894  0.0485  0.2316
   21MOL0     C 2744  10.978  11.164   1.262  0.1621 -0.1256 -1.2396
   21MOL0    Cl 2745  10.859  11.071   1.355 -0.5443  0.1131 -0.4253
   21MOL0     C 2746  11.846  11.058   1.919  0.7727 -0.1331 -0.4274
   21MOL0     C 2747  11.915  11.065   2.044  0.5096 -0.1288 -0.0958
   21MOL0     O 2748  12.220  10.998   2.100 -0.3194  0.4904  0.2521
   21MOL0     C 2749  12.226  10.905   2.429  0.2644  0.1641 -0.3808
   21MOL0     C 2750  12.304  10.906   2.545  0.5740  1.1062 -0.2249
   21MOL0     N 2751  12.419  11.060   3.386 -0.4593 -0.7687  0.2374
   21MOL0     N 2752  12.335  11.014   3.475 -0.6601 -0.1288 -0.1265
   21MOL0     C 2753  11.544  10.058   3.399 -0.8128  0.3084  0.8693
   21MOL0     C 2754  11.503   9.955   3.312 -0.0063 -0.6503  0.2751
   21MOL0     C 2755  11.348   9.691   2.994 -0.4789  0.1906 -0.6508
   21MOL0     C 2756  11.396   9.685   2.863 -0.0236 -0.4494  0.4851
   21MOL0     C 2757  11.403   9.565   2.798  0.3857  0.9107  0.5371
   21MOL0     C 2758  11.373   9.438   2.857  0.3396  0.1272  0.0635
   21MOL0     O 2759  11.369   9.309   2.808  0.4363 -0.4721 -0.1670
   21MOL0     C 2760  11.334   9.303   2.662  0.2309  1.0147 -0.4461
   21MOL0     C 2761  11.272   9.162   2.629 -1.2132 -0.1458 -0.8232
   21MOL0     C 2762  11.177   9.106   2.735  0.5991  1.3672  0.5947
   21MOL0     C 2763  11.075   9.203   2.784 -0.5939 -0.5246 -0.6426
   21MOL0     C 2764  10.952   9.123   2.813  0.6810 -0.0500 -0.6146
   21MOL0     C 2765  10.863   9.048   2.833  0.0608  0.2126  1.5064
   21MOL0     C 2766  11.325   9.446   2.993  0.0964  0.5952 -0.2954
   21MOL0     C 2767  11.309   9.570   3.054 -0.1692  1.6811  0.1188
   21MOL0     H 2768  11.181   9.922   3.394  0.2531  2.5246  0.5159
   21MOL0     H 2769  11.239  10.115   3.543 -0.0458  0.5474 -1.6010
   21MOL0     H 2770  11.605  10.364   3.658  2.9244 -0.0706 -0.4867
   21MOL0     H 2771  11.667  10.262   3.526 -1.5366 -3.7722  1.3497
   21MOL0     H 2772  11.467  10.400   3.406 -2.6711 -0.2476  2.4479
   21MOL0     H 2773  11.491  10.494   3.549  0.1441  2.3912 -1.2851
   21MOL0     H 2774  11.709  10.441   3.333  2.3535  1.8523  0.3333
   21MOL0     H 2775  11.618  10.587   3.359  1.7035  1.7999  1.7820
   21MOL0     H 2776  11.738  10.589   3.586 -0.2422  1.0197 -0.9583
   21MOL0     H 2777  11.812  10.435   3.529  0.1571  0.7519  2.5118
   21MOL0     H 2778  11.926  10.551   3.352 -0.3976  0.2027  0.0359
   21MOL0     H 2779  11.835  10.699   3.379  3.4725  1.3249 -2.8007
   21MOL0     H 2780  11.927  10.742   3.574 -1.3490 -1.4279  0.1056
   21MOL0     H 2781  12.029  10.585   3.576 -0.1508 -0.2112 -0.2532
   21MOL0     H 2782  12.155  10.656   3.391 -1.3526  0.3762 -3.9507
   21MOL0     H 2783  12.071  10.797   3.341  2.0408 -1.1222 -0.8493
   21MOL0     H 2784  12.244  10.755   3.582 -0.3794 -2.0409 -0.9752
   21MOL0     H 2785  12.144  10.896   3.583 -0.0234  2.3315 -2.4572
   21MOL0     H 2786  12.337  10.764   3.270  0.6122 -0.5497  0.3650
   21MOL0     H 2787  12.565  11.070   3.198 -1.2514  0.6877 -1.7808
   21MOL0     H 2788  12.591  10.897   3.159 -0.9588 -3.3757  2.0561
   21MOL0     H 2789  12.352  11.053   3.071  3.3566  3.5126  0.1634
   21MOL0     H 2790  12.388  10.883   3.036 -3.4789  0.7361  1.5494
   21MOL0     H 2791  12.588  10.941   2.900 -2.9588 -1.5486 -2.8372
   21MOL0     H 2792  12.565  11.113   2.933  2.8484 -1.0704  2.5500
   21MOL0     H 2793  12.369  11.127   2.808 -0.7046 -0.9663  0.9306
   21MOL0     H 2794  12.348  10.948   2.840 -1.5339  0.0300  0.3912
   21MOL0     H 2795  12.499  11.173   2.491  1.5182 -2.9684  0.9842
   21MOL0     H 2796  12.455  11.269   2.278  0.3499 -1.4205  1.6314
   21MOL0     H 2797  12.397  11.163   2.148  1.5319  0.0324 -1.1335
   21MOL0     H 2798  12.284  11.269   2.251  0.1108 -1.0055 -1.5135
   21MOL0     H 2799  11.990  10.739   2.107 -1.3931 -0.1177 -0.2606
   21MOL0     H 2800  11.876  10.717   1.896 -0.3821 -0.0455 -0.8620
   21MOL0     H 2801  11.802  11.090   1.661  2.5671 -1.0682 -4.3634
   21MOL0     H 2802  11.740  10.954   1.556 -1.2391 -2.4166  1.2265
   21MOL0     H 2803  11.553  10.904   1.661  4.6824 -2.6085  1.7171
   21MOL0     H 2804  11.579  11.048   1.764 -2.7799  0.7371  0.2484
   21MOL0     H 2805  11.580  11.123   1.479 -2.1322  3.8829 -0.2914
   21MOL0     H 2806  11.499  11.192   1.622 -4.6034  2.2325 -3.6015
   21MOL0     H 2807  11.387  10.956   1.459 -0.1861 -0.0259  0.3288
   21MOL0     H 2808  11.322  10.998   1.612  0.8821 -5.5482 -2.5207
   21MOL0     H 2809  11.348  11.181   1.379 -1.1899  3.3163  0.0085
   21MOL0     H 2810  11.284  11.222   1.546  1.6160 -1.0883  1.4946
   21MOL0     H 2811  11.192  11.019   1.333  2.5422 -0.5396  1.1404
   21MOL0     H 2812  11.109  11.035   1.482 -0.5835  2.4271  1.0217
   21MOL0     H 2813  11.144  11.256   1.280 -2.6673  2.6007  0.0341
   21MOL0     H 2814  11.048  11.271   1.437 -0.4277  0.4826 -0.0886
   21MOL0     H 2815  11.018  11.097   1.185 -1.0313 -0.5525 -1.5032
   21MOL0     H 2816  10.937  11.256   1.218  3.1891  1.0296 -1.9386
   21MOL0     H 2817  11.829  11.151   1.866  3.2695 -0.0386 -1.1822
   21MOL0     H 2818  11.944  11.162   2.084 -0.5000  0.1434  0.0034
   21MOL0     H 2819  12.152  10.830   2.403  0.5133 -0.4978  0.7314
   21MOL0     H 2820  12.294  10.835   2.626 -2.8606  0.8602 -0.7309
   21MOL0     H 2821  11.649  10.080   3.410 -0.0376 -2.8628  0.5133
   21MOL0     H 2822  11.579   9.918   3.244  0.7324  0.2418  0.5869
   21MOL0     H 2823  11.417   9.783   2.821 -2.3417  0.8795  2.1996
   21MOL0     H 2824  11.438   9.563   2.695 -0.9926  1.0227  0.0431
   21MOL0     H 2825  11.264   9.384   2.638 -0.5587  0.1553 -1.0697
   21MOL0     H 2826  11.424   9.316   2.601  0.0720 -3.0960 -1.8057
   21MOL0     H 2827  11.347   9.083   2.621 -1.4869 -0.6013  0.7118
   21MOL0     H 2828  11.213   9.163   2.537 -6.5540 -2.4451  2.0529
   21MOL0     H 2829  11.219   9.053   2.821 -0.4890 -0.8070 -0.1310
   21MOL0     H 2830  11.118   9.028   2.685 -0.4719  1.5584  1.5175
   21MOL0     H 2831  11.056   9.289   2.719 -0.3803 -0.1297 -0.1863
   21MOL0     H 2832  11.103   9.262   2.871 -0.0430  1.2946 -1.9882
   21MOL0     H 2833  10.800   8.969   2.869 -0.6176  0.7836  1.5753
   21MOL0     H 2834  11.294   9.350   3.032  1.7114 -0.7735 -2.1942
   21MOL0     H 2835  11.261   9.567   3.151  1.8649 -3.1718  1.2350
   22MOL0     O 2836  10.463   6.631   7.656 -0.1247 -0.3179  0.3989
   22MOL0     C 2837  10.554   6.642   7.578 -0.7727 -0.6307 -0.1059
   22MOL0     O 2838  10.538   6.642   7.443  0.3586  0.2041 -0.6487
   22MOL0     C 2839  10.621   6.563   7.364 -0.2275 -0.0703 -1.2969
   22MOL0     C 2840  10.674   6.439   7.409  0.3319  0.8348  1.0218
   22MOL0     C 2841  10.764   6.370   7.324 -0.3790  0.0606  0.4344
   22MOL0     C 2842  10.798   6.422   7.200  0.6468  0.4038  0.0723
   22MOL0     O 2843  10.886   6.361   7.114 -0.1239  0.0137 -0.4415
   22MOL0     C 2844  10.891   6.212   7.124 -0.7227  0.1844 -0.0309
   22MOL0     C 2845  10.997   6.156   7.040  0.0965 -0.1604 -0.4949
   22MOL0     C 2846  10.992   6.207   6.899  0.4168  1.3588 -0.2207
   22MOL0     C 2847  11.074   6.333   6.859  0.0403  0.0157  0.1885
   22MOL0     C 2848  11.111   6.332   6.707 -0.1503  0.6239 -0.8737
   22MOL0     C 2849  11.244   6.418   6.689  0.4336  0.1907 -1.1216
   22MOL0     C 2850  11.361   6.333   6.704  0.3569 -0.1458  0.2875
   22MOL0     C 2851  11.398   6.281   6.845  1.0978  0.3139  1.1089
   22MOL0     N 2852  11.521   6.208   6.850 -0.2698  0.2083  0.4176
   22MOL0     C 2853  11.643   6.263   6.819 -0.2680 -0.4596  0.4406
   22MOL0     C 2854  11.717   6.156   6.793 -0.2460 -0.4876  0.4372
   22MOL0     C 2855  11.854   6.166   6.742 -0.3517 -0.4919 -0.3744
   22MOL0     C 2856  11.842   6.156   6.588 -0.4539 -0.5535 -0.2992
   22MOL0     C 2857  11.975   6.191   6.496 -0.7158  1.2178 -0.8367
   22MOL0     C 2858  12.091   6.101   6.526 -0.1148  0.8274  0.7144
   22MOL0     O 2859  12.208   6.163   6.477 -0.1589 -1.0387 -0.0535
   22MOL0     C 2860  12.320   6.175   6.554 -0.3916  0.7266 -0.3002
   22MOL0     C 2861  12.335   6.123   6.684  1.1523  0.6072  1.1677
   22MOL0     C 2862  12.443   6.137   6.761 -0.9024 -1.2655  0.2426
   22MOL0     C 2863  12.438   6.077   6.897  0.5554 -0.3547  0.2391
   22MOL0     C 2864  12.558   6.208   6.707 -0.6876  0.1605  0.1193
   22MOL0     C 2865  12.687   6.230   6.793 -0.5958 -0.0943  0.3443
   22MOL0     O 2866  12.799   6.279   6.722  0.2739  0.2506  0.0847
   22MOL0     C 2867  12.917   6.300   6.794  0.3504  0.4467 -0.7803
   22MOL0     C 2868  13.028   6.237   6.732  0.5455 -0.7099 -0.2766
   22MOL0     C 2869  13.153   6.232   6.799  0.3555  0.4213 -0.6341
   22MOL0     C 2870  13.164   6.294   6.924  0.0015 -0.3201 -1.1379
   22MOL0     O 2871  13.279   6.304   6.998  0.8336 -0.1502 -0.4993
   22MOL0     C 2872  13.361   6.184   7.013  0.2197  0.7961 -0.0931
   22MOL0     C 2873  13.494   6.211   7.082  0.0022  0.0391 -0.0521
   22MOL0     C 2874  13.495   6.305   7.213 -0.1166 -0.1963  0.1321
   22MOL0     C 2875  13.634   6.318   7.285 -0.5541  0.0357 -0.3512
   22MOL0     C 2876  13.624   6.421   7.396 -0.4620 -0.0543  0.5129
   22MOL0     C 2877  13.776   6.421   7.451  0.8377 -0.5864 -0.0791
   22MOL0     C 2878  13.868   6.497   7.353 -0.3034 -0.3726  0.2989
   22MOL0     C 2879  13.989   6.409   7.300  0.2165 -0.3465  0.3057
   22MOL0    Cl 2880  14.099   6.496   7.194  0.3813  0.0404 -0.2978
   22MOL0     C 2881  13.050   6.354   6.988 -1.2066 -0.0220 -0.9039
   22MOL0     C 2882  12.928   6.356   6.926 -0.6105 -0.2548 -0.1107
   22MOL0     O 2883  12.672   6.223   6.917  0.5590 -0.1859 -0.3705
   22MOL0     C 2884  12.558   6.243   6.568  0.0094 -1.5781 -0.2288
   22MOL0     C 2885  12.439   6.231   6.493 -0.0542 -1.3240 -0.8522
   22MOL0     N 2886  11.652   6.037   6.803  0.4792 -0.7079 -0.2889
   22MOL0     N 2887  11.530   6.073   6.842  0.2339 -0.5506 -0.1151
   22MOL0     C 2888  10.752   6.549   7.159  0.1524  0.3833 -0.0422
   22MOL0     C 2889  10.652   6.617   7.239 -0.5523  0.0732  0.2227
   22MOL0     C 2890  10.690   6.670   7.630  0.2613  0.1292  0.1566
   22MOL0     C 2891  10.730   6.628   7.757 -0.3534  0.3259 -0.3372
   22MOL0     C 2892  10.854   6.669   7.808  0.4196 -0.1728 -0.3000
   22MOL0     C 2893  10.952   6.727   7.720  0.7042  0.3330 -0.4246
   22MOL0     O 2894  11.067   6.746   7.779  0.2609  0.1995  0.0600
   22MOL0     C 2895  11.178   6.711   7.703  0.6525 -0.1019  0.0689
   22MOL0     C 2896  11.309   6.719   7.784 -1.1585  0.3879 -0.1956
   22MOL0     C 2897  11.323   6.853   7.866 -0.5378 -0.0895  0.1997
   22MOL0     C 2898  11.321   6.980   7.784  0.3610 -0.6121 -0.2063
   22MOL0     C 2899  11.408   7.006   7.666  0.0417 -0.3250 -0.5694
   22MOL0     C 2900  11.496   7.048   7.587  0.6225  0.8651 -0.2213
   22MOL0     C 2901  10.909   6.772   7.600  0.2175  0.4795  0.3105
   22MOL0     C 2902  10.784   6.740   7.547  0.8193 -0.5659 -1.1700
   22MOL0     H 2903  10.645   6.395   7.504 -0.2257 -1.0151  0.0380
   22MOL0     H 2904  10.801   6.274   7.356 -0.1686 -0.9388 -2.5066
   22MOL0     H 2905  10.907   6.165   7.222  0.8462  0.9025  0.0971
   22MOL0     H 2906  10.794   6.175   7.091 -0.0489  0.4407 -2.5200
   22MOL0     H 2907  11.093   6.185   7.084  0.1402 -1.1511  0.0789
   22MOL0     H 2908  10.989   6.048   7.051 -3.1556  0.2564  3.0119
   22MOL0     H 2909  11.018   6.123   6.835 -1.3861 -1.1921  2.1354
   22MOL0     H 2910  10.890   6.232   6.867  0.1653  0.4077 -0.1927
   22MOL0     H 2911  11.006   6.412   6.891 -0.5557 -1.5524  3.1609
   22MOL0     H 2912  11.163   6.352   6.921 -0.0559  2.5848 -0.3280
   22MOL0     H 2913  11.128   6.236   6.657 -0.2332  1.2700 -2.1827
   22MOL0     H 2914  11.025   6.377   6.656  0.4043  1.7110 -0.8690
   22MOL0     H 2915  11.239   6.460   6.588 -0.1780  0.9692 -0.7775
   22MOL0     H 2916  11.251   6.499   6.762  3.6194 -0.7820 -0.2008
   22MOL0     H 2917  11.343   6.247   6.638  0.8655  0.1698 -0.2721
   22MOL0     H 2918  11.445   6.395   6.671 -0.6184  0.8949 -0.3040
   22MOL0     H 2919  11.311   6.215   6.857  0.2409  1.2759  0.3855
   22MOL0     H 2920  11.391   6.367   6.912 -0.2050  1.4773 -0.4360
   22MOL0     H 2921  11.675   6.364   6.796 -0.3820 -0.6685 -0.6768
   22MOL0     H 2922  11.894   6.262   6.774  0.2870 -1.3039  1.4046
   22MOL0     H 2923  11.926   6.095   6.785 -0.1627 -0.7871 -1.1582
   22MOL0     H 2924  11.766   6.234   6.575  0.9072  0.7659 -0.5239
   22MOL0     H 2925  11.803   6.055   6.571  0.6830 -0.9733 -0.5034
   22MOL0     H 2926  12.004   6.295   6.510  0.0464  0.7318  1.5069
   22MOL0     H 2927  11.953   6.193   6.388 -1.2850  2.3748 -0.7165
   22MOL0     H 2928  12.074   6.003   6.480 -1.4487 -0.0903  2.9732
   22MOL0     H 2929  12.088   6.077   6.633  0.1530 -1.0627  0.3485
   22MOL0     H 2930  12.256   6.058   6.720  0.9077  0.0803 -0.2596
   22MOL0     H 2931  12.342   6.031   6.921  0.2976  2.4455  6.9237
   22MOL0     H 2932  12.522   6.011   6.918  3.1633  2.5808 -0.1748
   22MOL0     H 2933  12.443   6.150   6.978  0.6221 -0.1766  0.0769
   22MOL0     H 2934  13.010   6.187   6.638 -2.2871  0.7009 -0.5931
   22MOL0     H 2935  13.240   6.184   6.755 -0.4710  0.0820 -1.9684
   22MOL0     H 2936  13.306   6.110   7.072 -0.8165 -0.0452 -2.0171
   22MOL0     H 2937  13.382   6.141   6.915 -1.0049 -1.6370  0.6298
   22MOL0     H 2938  13.547   6.117   7.095  3.7600  1.3586 -3.6280
   22MOL0     H 2939  13.546   6.268   7.004 -0.2604 -0.7091 -0.7888
   22MOL0     H 2940  13.423   6.263   7.285 -0.6564  0.9798  0.3038
   22MOL0     H 2941  13.458   6.403   7.182  0.7084  0.3411  0.8116
   22MOL0     H 2942  13.657   6.220   7.329  0.3289  0.5388  0.3357
   22MOL0     H 2943  13.708   6.345   7.209  0.1551 -1.1931 -0.1192
   22MOL0     H 2944  13.557   6.392   7.477  0.6692  2.0537  2.3244
   22MOL0     H 2945  13.603   6.520   7.355  3.0115  0.1022 -1.2976
   22MOL0     H 2946  13.767   6.482   7.542 -2.2495 -3.1213  1.5135
   22MOL0     H 2947  13.801   6.317   7.473  0.3122 -1.4903 -3.2334
   22MOL0     H 2948  13.903   6.591   7.398 -3.1353  0.4155  1.0406
   22MOL0     H 2949  13.812   6.533   7.266 -0.9608  0.1507  0.9239
   22MOL0     H 2950  13.945   6.330   7.238  0.8695 -0.0739 -0.5286
   22MOL0     H 2951  14.043   6.384   7.391 -0.3308  0.3597  0.8379
   22MOL0     H 2952  13.067   6.385   7.091  0.9887 -0.0703 -1.2213
   22MOL0     H 2953  12.841   6.397   6.977 -0.1452  2.8762 -1.5975
   22MOL0     H 2954  12.650   6.277   6.521 -0.6192  0.3047 -0.1929
   22MOL0     H 2955  12.448   6.265   6.390  2.6740  0.1708 -0.2247
   22MOL0     H 2956  10.780   6.582   7.059 -0.2137 -0.9958 -0.6211
   22MOL0     H 2957  10.620   6.712   7.198  1.6984  1.5479  1.6503
   22MOL0     H 2958  10.673   6.560   7.819 -0.5403  3.0467  2.7059
   22MOL0     H 2959  10.872   6.634   7.909 -1.1294  1.0259  0.4452
   22MOL0     H 2960  11.162   6.608   7.672 -1.9304 -0.8333  3.2463
   22MOL0     H 2961  11.188   6.763   7.608  2.6408 -3.1340 -1.5496
   22MOL0     H 2962  11.397   6.701   7.722 -1.8977  0.9064 -1.4367
   22MOL0     H 2963  11.289   6.638   7.856 -1.2304  1.0267  0.5198
   22MOL0     H 2964  11.420   6.841   7.917  0.7509  0.4577 -2.0033
   22MOL0     H 2965  11.238   6.856   7.934 -0.5357  1.2847  0.1638
   22MOL0     H 2966  11.358   7.057   7.852  0.7502 -1.7082  0.8715
   22MOL0     H 2967  11.217   7.002   7.758  0.0449  2.1038  2.7325
   22MOL0     H 2968  11.557   7.106   7.520 -0.3222  3.6878  1.2209
   22MOL0     H 2969  10.968   6.824   7.524  0.5902  2.4151  1.8374
   22MOL0     H 2970  10.752   6.771   7.448 -2.2333 -3.3810 -1.2398
   23MOL0     O 2971   9.682   6.170   6.304  0.2613 -0.2410 -0.2348
   23MOL0     C 2972   9.771   6.148   6.221  0.6120  0.0144 -1.1205
   23MOL0     O 2973   9.753   6.098   6.093  0.1320 -0.9307  0.2923
   23MOL0     C 2974   9.623   6.082   6.051 -1.1296  0.0144 -0.2890
   23MOL0     C 2975   9.560   5.965   6.085 -0.4411  0.7462  0.0762
   23MOL0     C 2976   9.434   5.932   6.030 -0.3317 -0.4979 -0.4455
   23MOL0     C 2977   9.361   6.026   5.943  0.6510  1.0556 -1.6780
   23MOL0     O 2978   9.243   5.999   5.874  0.2187  0.1701 -0.6287
   23MOL0     C 2979   9.156   5.904   5.929  0.4260 -0.7590 -0.4793
   23MOL0     C 2980   9.026   5.928   5.846  1.2923  0.3133 -0.2794
   23MOL0     C 2981   8.896   5.854   5.899 -0.4212  0.2034  0.1463
   23MOL0     C 2982   8.788   5.889   5.803 -0.3437  0.8295 -0.3830
   23MOL0     C 2983   8.648   5.871   5.861  0.7160  0.8257  0.7558
   23MOL0     C 2984   8.525   5.891   5.777 -0.1729  0.5425 -0.7004
   23MOL0     C 2985   8.398   5.827   5.844 -0.4203  0.0910 -0.2517
   23MOL0     C 2986   8.268   5.867   5.774 -0.9147  0.1566  0.4617
   23MOL0     N 2987   8.168   5.776   5.823  1.0080  0.0967  1.0335
   23MOL0     C 2988   8.110   5.808   5.944  0.4873  0.0569  0.2779
   23MOL0     C 2989   8.018   5.713   5.959  1.0599  0.6048 -0.0788
   23MOL0     C 2990   7.925   5.682   6.065  1.7443 -0.5060  0.2951
   23MOL0     C 2991   7.798   5.776   6.056 -1.1179  0.3734 -0.1317
   23MOL0     C 2992   7.669   5.705   6.104 -0.0230 -0.4004 -0.3281
   23MOL0     C 2993   7.555   5.796   6.082 -0.0674 -0.5891  0.2542
   23MOL0     O 2994   7.434   5.724   6.062 -0.2313 -0.1349  0.2450
   23MOL0     C 2995   7.316   5.799   6.070  1.4110  0.3043  1.2641
   23MOL0     C 2996   7.210   5.794   5.971 -0.5147  0.2912 -0.3451
   23MOL0     C 2997   7.096   5.863   5.983  0.0845  0.5333 -0.3584
   23MOL0     C 2998   6.998   5.860   5.857 -0.2815  0.9862 -0.0978
   23MOL0     C 2999   7.066   5.945   6.095 -0.7482  0.9298  1.0233
   23MOL0     C 3000   6.943   6.034   6.114 -0.1644  0.3183 -0.2145
   23MOL0     O 3001   6.935   6.115   6.228  0.6180  0.4172  0.0198
   23MOL0     C 3002   6.817   6.173   6.265 -0.0255 -0.1039 -0.3387
   23MOL0     C 3003   6.700   6.102   6.294 -0.1501  0.1407  0.0029
   23MOL0     C 3004   6.590   6.170   6.336  0.3435 -0.3122  0.7193
   23MOL0     C 3005   6.585   6.306   6.314 -0.0535 -0.0424  0.5324
   23MOL0     O 3006   6.465   6.373   6.320 -0.4380  0.8315 -0.2446
   23MOL0     C 3007   6.359   6.329   6.232 -0.1141  0.9509 -0.8415
   23MOL0     C 3008   6.249   6.278   6.319 -0.1996 -0.3143 -0.4734
   23MOL0     C 3009   6.168   6.390   6.392 -0.0106  0.7297  0.3838
   23MOL0     C 3010   6.026   6.336   6.399 -0.7494  0.1510 -0.3439
   23MOL0     C 3011   5.938   6.451   6.452 -0.1438 -0.1239  0.6847
   23MOL0     C 3012   5.801   6.418   6.500 -0.6276 -0.5081  0.1277
   23MOL0     C 3013   5.723   6.540   6.537 -0.8214  1.0883  0.7237
   23MOL0     C 3014   5.573   6.521   6.561  0.1064 -1.0514  0.6822
   23MOL0    Cl 3015   5.495   6.447   6.411  0.1808  0.3961 -0.1792
   23MOL0     C 3016   6.696   6.375   6.275 -0.3509 -0.0154  1.3061
   23MOL0     C 3017   6.815   6.306   6.252  0.3870 -0.3977  0.6602
   23MOL0     O 3018   6.855   6.028   6.027  0.2160  0.0971 -0.6682
   23MOL0     C 3019   7.165   5.947   6.194  0.0566 -0.5048  0.1639
   23MOL0     C 3020   7.291   5.884   6.177 -1.3677 -0.2174 -0.6093
   23MOL0     N 3021   8.025   5.626   5.851 -0.7834  1.1811  0.4421
   23MOL0     N 3022   8.126   5.655   5.782  0.1312  0.9820  0.2372
   23MOL0     C 3023   9.418   6.156   5.929 -0.3022 -0.1805  0.0379
   23MOL0     C 3024   9.553   6.180   5.980  1.0353  0.0238  1.1558
   23MOL0     C 3025   9.912   6.168   6.267 -0.6561  0.5309 -0.1399
   23MOL0     C 3026  10.027   6.178   6.177 -0.6973  0.2511 -0.5249
   23MOL0     C 3027  10.160   6.196   6.231 -0.2365  0.3149  0.2048
   23MOL0     C 3028  10.182   6.207   6.365 -0.0763 -0.5031  0.0023
   23MOL0     O 3029  10.310   6.201   6.417  0.8754 -0.2880 -1.1971
   23MOL0     C 3030  10.430   6.223   6.341  0.5438 -0.5631 -0.1415
   23MOL0     C 3031  10.553   6.208   6.426 -0.5630  0.6548 -0.9590
   23MOL0     C 3032  10.583   6.063   6.461 -0.0352  1.0183  0.7808
   23MOL0     C 3033  10.658   6.023   6.587 -0.0719  0.4737 -0.6915
   23MOL0     C 3034  10.631   6.114   6.700  0.1957  0.4714  0.3356
   23MOL0     C 3035  10.621   6.186   6.802 -0.6277  0.3841 -0.1508
   23MOL0     C 3036  10.069   6.215   6.448  0.5255 -0.9261 -0.5736
   23MOL0     C 3037   9.933   6.200   6.404  0.2806 -0.7213 -0.2386
   23MOL0     H 3038   9.609   5.888   6.144 -0.3360 -0.4456 -1.4990
   23MOL0     H 3039   9.382   5.840   6.054 -2.4793  0.7159 -0.2162
   23MOL0     H 3040   9.192   5.804   5.900 -1.4938 -1.5876 -0.1872
   23MOL0     H 3041   9.142   5.914   6.037 -0.1269 -1.4439 -0.4786
   23MOL0     H 3042   9.000   6.034   5.852 -0.2733 -0.1055  1.8720
   23MOL0     H 3043   9.040   5.899   5.742 -2.4141 -2.6250 -0.1852
   23MOL0     H 3044   8.910   5.746   5.902 -2.2481 -0.0980  3.7784
   23MOL0     H 3045   8.869   5.890   5.999  1.9405  2.6529  0.0113
   23MOL0     H 3046   8.796   5.989   5.759 -2.9703  1.0255 -0.5990
   23MOL0     H 3047   8.796   5.828   5.713 -0.2922  0.4909 -0.1507
   23MOL0     H 3048   8.643   5.767   5.893 -4.2204 -0.4368 -2.9207
   23MOL0     H 3049   8.628   5.928   5.952  0.5632 -0.3627  1.4883
   23MOL0     H 3050   8.499   5.995   5.754 -2.3515  0.0952 -0.4867
   23MOL0     H 3051   8.548   5.845   5.681  0.2456  0.4783 -0.5692
   23MOL0     H 3052   8.399   5.718   5.833  0.1643  0.1245 -0.5909
   23MOL0     H 3053   8.399   5.850   5.951 -0.3699 -0.9727 -0.0042
   23MOL0     H 3054   8.282   5.853   5.666  0.8930  0.7102  0.6060
   23MOL0     H 3055   8.252   5.972   5.800 -4.8758 -0.6287  1.8964
   23MOL0     H 3056   8.118   5.884   6.021 -2.7991 -0.2681  1.0662
   23MOL0     H 3057   7.887   5.580   6.059  1.2881 -0.2985 -0.3925
   23MOL0     H 3058   7.977   5.686   6.161  1.7878  3.5410  0.2522
   23MOL0     H 3059   7.788   5.815   5.954  2.8004  2.9514  0.2292
   23MOL0     H 3060   7.836   5.854   6.123 -0.3149 -0.8718  0.9003
   23MOL0     H 3061   7.677   5.670   6.208 -1.4224  1.3777  0.4368
   23MOL0     H 3062   7.665   5.613   6.046  3.2768 -0.4028 -0.7404
   23MOL0     H 3063   7.575   5.855   5.992  3.0419  2.2777  2.5619
   23MOL0     H 3064   7.545   5.867   6.164  0.1123  1.4610 -1.4018
   23MOL0     H 3065   7.214   5.717   5.894  1.2351 -2.7057  2.4570
   23MOL0     H 3066   7.033   5.794   5.777 -0.5881  1.4695 -0.6310
   23MOL0     H 3067   6.897   5.830   5.888  0.6588 -0.6478  1.6329
   23MOL0     H 3068   6.995   5.964   5.823 -2.3996  0.6353 -1.1124
   23MOL0     H 3069   6.706   5.994   6.291  2.1617  0.2083 -2.8902
   23MOL0     H 3070   6.502   6.108   6.341  0.9880 -1.1873  1.5707
   23MOL0     H 3071   6.325   6.418   6.178 -0.8299 -0.3743 -2.6843
   23MOL0     H 3072   6.411   6.259   6.166  2.8020  1.4412  0.7924
   23MOL0     H 3073   6.181   6.225   6.252 -1.4807 -1.8757  1.9047
   23MOL0     H 3074   6.285   6.205   6.393 -1.6723  0.4141  1.0186
   23MOL0     H 3075   6.171   6.489   6.347 -1.3213  1.5183  1.9267
   23MOL0     H 3076   6.190   6.415   6.497 -1.7847  2.4288  0.3968
   23MOL0     H 3077   6.000   6.289   6.304 -1.6513 -2.1869  0.9811
   23MOL0     H 3078   6.027   6.257   6.474  0.0640  0.7261  0.2658
   23MOL0     H 3079   5.921   6.524   6.372  0.8346  0.4047  0.9439
   23MOL0     H 3080   5.995   6.500   6.532  0.8596  0.2096 -0.2233
   23MOL0     H 3081   5.751   6.352   6.429 -0.9507 -2.0721  1.7194
   23MOL0     H 3082   5.802   6.352   6.588  1.2398  1.1468  1.4344
   23MOL0     H 3083   5.731   6.610   6.453 -1.7774  0.6957  0.2878
   23MOL0     H 3084   5.760   6.580   6.632 -2.8602  2.1675  1.1192
   23MOL0     H 3085   5.537   6.617   6.598  1.0493 -0.8717  1.1643
   23MOL0     H 3086   5.548   6.456   6.645 -2.7232 -0.1547  0.6408
   23MOL0     H 3087   6.690   6.483   6.271  1.6995  0.1489 -2.7228
   23MOL0     H 3088   6.903   6.365   6.225  0.0544 -0.8125 -1.5352
   23MOL0     H 3089   7.152   6.013   6.280  2.1052  0.2020 -0.0160
   23MOL0     H 3090   7.366   5.888   6.255 -3.4270 -0.3085  1.4756
   23MOL0     H 3091   9.356   6.231   5.881  1.5332  1.3121 -0.1045
   23MOL0     H 3092   9.592   6.277   5.951 -1.5889  0.0589 -3.1677
   23MOL0     H 3093  10.016   6.165   6.070 -5.7369  6.1478 -1.2662
   23MOL0     H 3094  10.243   6.194   6.162 -0.6371  3.7506 -0.5208
   23MOL0     H 3095  10.442   6.150   6.261 -0.4095 -2.1020  1.0726
   23MOL0     H 3096  10.429   6.326   6.302  0.0748 -0.5036  0.0196
   23MOL0     H 3097  10.551   6.274   6.513 -0.1336 -3.2182  2.2948
   23MOL0     H 3098  10.639   6.236   6.365 -0.4409  2.4351 -0.0326
   23MOL0     H 3099  10.623   6.028   6.365 -4.9436  1.0860 -1.6177
   23MOL0     H 3100  10.489   6.006   6.469 -0.3485  1.7494  3.2620
   23MOL0     H 3101  10.763   5.998   6.566 -0.1860 -2.6866  1.7257
   23MOL0     H 3102  10.613   5.928   6.616 -1.8240  1.1681 -1.0313
   23MOL0     H 3103  10.606   6.239   6.894 -0.9497 -0.9976  0.6195
   23MOL0     H 3104  10.082   6.219   6.555 -4.0020 -1.7134  0.2076
   23MOL0     H 3105   9.854   6.202   6.478 -0.5463  1.7521 -1.0904
   24MOL0     O 3106   3.303   4.589   3.812 -0.0663  0.3040 -0.2298
   24MOL0     C 3107   3.412   4.615   3.766  0.6225 -0.3024  0.4104
   24MOL0     O 3108   3.529   4.547   3.784  0.2208 -0.7180  0.8358
   24MOL0     C 3109   3.539   4.459   3.890 -0.0765 -0.3678 -0.6166
   24MOL0     C 3110   3.621   4.352   3.868 -0.3940 -0.0021 -0.2145
   24MOL0     C 3111   3.651   4.267   3.980  0.5809 -0.8562 -0.0969
   24MOL0     C 3112   3.611   4.296   4.108 -0.1856  0.7235  0.1005
   24MOL0     O 3113   3.651   4.227   4.220  0.1392 -0.1843 -0.2370
   24MOL0     C 3114   3.755   4.130   4.210 -0.3291 -0.8865  0.3050
   24MOL0     C 3115   3.794   4.081   4.346 -0.7920  1.1860  0.2457
   24MOL0     C 3116   3.743   3.937   4.379  0.2981 -0.1629  0.7590
   24MOL0     C 3117   3.817   3.894   4.511 -0.6533  0.6748 -0.9285
   24MOL0     C 3118   3.796   3.735   4.537 -0.6770 -0.5437  0.1372
   24MOL0     C 3119   3.737   3.709   4.685  0.3271  0.2357  0.3369
   24MOL0     C 3120   3.843   3.732   4.792 -0.2509 -0.2968 -0.3761
   24MOL0     C 3121   3.793   3.713   4.935  0.0620  0.1098  1.2491
   24MOL0     N 3122   3.890   3.645   5.026 -0.4070 -0.6070  0.2138
   24MOL0     C 3123   3.856   3.540   5.096 -0.2965  0.3660  0.7369
   24MOL0     C 3124   3.975   3.496   5.145 -0.0412  0.3543 -0.5438
   24MOL0     C 3125   4.014   3.360   5.206  0.0186  0.3357  0.7916
   24MOL0     C 3126   4.063   3.261   5.100 -0.4203  0.0960  1.0452
   24MOL0     C 3127   4.081   3.127   5.177 -0.3334  0.5776  0.1310
   24MOL0     C 3128   4.162   3.016   5.102  0.2541  0.1880 -0.9617
   24MOL0     O 3129   4.152   2.894   5.185  0.0269 -0.2712 -1.0213
   24MOL0     C 3130   4.140   2.776   5.115  0.2376  0.9742  0.4128
   24MOL0     C 3131   4.049   2.757   5.006 -0.3629  0.1771 -0.4046
   24MOL0     C 3132   4.044   2.638   4.931  0.1343  0.0289  0.2197
   24MOL0     C 3133   3.949   2.610   4.820  0.0392 -0.8884  0.4394
   24MOL0     C 3134   4.134   2.531   4.977  0.3152 -0.1739  0.7620
   24MOL0     C 3135   4.129   2.386   4.926 -0.2663  1.1386  0.3866
   24MOL0     O 3136   4.229   2.301   4.978 -0.1634  0.0732 -0.2537
   24MOL0     C 3137   4.214   2.169   4.953 -0.5017 -1.1836  0.3584
   24MOL0     C 3138   4.281   2.120   4.848 -0.0338 -0.6973  0.2448
   24MOL0     C 3139   4.270   1.990   4.811 -0.0975  0.6518  0.0121
   24MOL0     C 3140   4.177   1.904   4.879 -0.5254  0.6507  1.0030
   24MOL0     O 3141   4.159   1.769   4.835 -0.3024  0.5387  0.9495
   24MOL0     C 3142   4.060   1.697   4.910 -0.1004  0.5829  0.5656
   24MOL0     C 3143   4.006   1.580   4.834 -0.2776  0.3776 -0.0089
   24MOL0     C 3144   4.090   1.446   4.837 -0.7254 -0.9894  0.7334
   24MOL0     C 3145   4.063   1.373   4.958 -0.4111  0.9237 -1.3675
   24MOL0     C 3146   4.156   1.246   4.956 -0.1855  0.1043 -0.7724
   24MOL0     C 3147   4.177   1.200   5.101 -0.5492 -0.7907 -0.4569
   24MOL0     C 3148   4.043   1.182   5.179  0.1585 -0.0966 -0.2968
   24MOL0     C 3149   4.078   1.097   5.303 -0.6654 -0.5207 -0.5173
   24MOL0    Cl 3150   3.942   1.097   5.428  0.2922 -0.3245  0.1688
   24MOL0     C 3151   4.113   1.961   4.998  0.3101 -0.0573 -0.7309
   24MOL0     C 3152   4.128   2.096   5.035  0.3238  1.4559  0.0476
   24MOL0     O 3153   4.027   2.344   4.875 -0.0597 -0.1747  0.4555
   24MOL0     C 3154   4.222   2.555   5.091 -0.6369 -0.8261 -0.3774
   24MOL0     C 3155   4.223   2.675   5.154  0.4628  0.6359 -0.3528
   24MOL0     N 3156   4.072   3.597   5.121  0.3765  0.9505 -0.1076
   24MOL0     N 3157   4.014   3.689   5.048  0.2939  0.8797  0.2855
   24MOL0     C 3158   3.524   4.409   4.135  0.7689  0.1115  0.4938
   24MOL0     C 3159   3.492   4.492   4.019 -0.6482 -0.9234 -0.5801
   24MOL0     C 3160   3.425   4.731   3.685  0.4615 -0.5209  0.3979
   24MOL0     C 3161   3.555   4.788   3.663 -0.3633 -0.4033 -0.1674
   24MOL0     C 3162   3.574   4.911   3.596 -0.1020  0.0154 -0.7272
   24MOL0     C 3163   3.460   4.992   3.566 -0.0677  0.2074 -0.2029
   24MOL0     O 3164   3.489   5.114   3.516 -0.5839 -0.4018  0.0997
   24MOL0     C 3165   3.394   5.219   3.540  0.0724  0.4511  0.1910
   24MOL0     C 3166   3.318   5.248   3.404  0.5046 -0.2156 -1.2117
   24MOL0     C 3167   3.397   5.273   3.280 -0.4252 -0.4391  0.3609
   24MOL0     C 3168   3.317   5.343   3.162 -0.3428 -0.6294 -0.7270
   24MOL0     C 3169   3.384   5.357   3.033 -0.1893  0.3284  0.4465
   24MOL0     C 3170   3.467   5.385   2.944  0.8603  0.3024 -1.4577
   24MOL0     C 3171   3.329   4.931   3.575  0.1575 -0.7816  0.3402
   24MOL0     C 3172   3.315   4.802   3.640 -0.4018  0.0146  0.2105
   24MOL0     H 3173   3.667   4.344   3.770 -0.1662  0.7848 -0.1757
   24MOL0     H 3174   3.697   4.177   3.940  0.3363 -0.3994 -1.4882
   24MOL0     H 3175   3.729   4.044   4.147 -0.0350 -2.3680  2.1151
   24MOL0     H 3176   3.843   4.176   4.163 -0.0128 -0.9009  0.8714
   24MOL0     H 3177   3.903   4.085   4.352 -0.4062 -1.0791 -3.0285
   24MOL0     H 3178   3.758   4.144   4.429 -1.6598  1.7404 -0.5286
   24MOL0     H 3179   3.634   3.936   4.388  0.1772  1.9496  0.1271
   24MOL0     H 3180   3.769   3.874   4.293 -0.4994 -0.3211  0.6250
   24MOL0     H 3181   3.926   3.903   4.513 -0.7254  1.5310  0.4455
   24MOL0     H 3182   3.780   3.950   4.597  2.2368 -0.7485  1.4231
   24MOL0     H 3183   3.716   3.692   4.476 -1.8397 -2.5384  2.8588
   24MOL0     H 3184   3.891   3.687   4.512 -2.0407 -3.1528 -0.3928
   24MOL0     H 3185   3.660   3.785   4.701  0.3282  0.6742 -1.5594
   24MOL0     H 3186   3.682   3.615   4.695 -0.1638  0.5382  0.5321
   24MOL0     H 3187   3.919   3.655   4.776 -0.0823 -0.8627  2.5753
   24MOL0     H 3188   3.880   3.833   4.771  1.9023 -0.6177  1.4203
   24MOL0     H 3189   3.706   3.654   4.963  1.9208 -2.2798  2.2969
   24MOL0     H 3190   3.780   3.818   4.964 -0.0241  0.8673 -1.3003
   24MOL0     H 3191   3.767   3.477   5.095  1.7440 -2.9079 -2.6667
   24MOL0     H 3192   4.084   3.385   5.286  0.3534  1.0448  0.2943
   24MOL0     H 3193   3.938   3.314   5.269 -1.1443  1.3318  0.1679
   24MOL0     H 3194   4.165   3.293   5.076 -1.0498  1.5690  0.2200
   24MOL0     H 3195   3.987   3.264   5.022 -1.7552  0.8533  2.3126
   24MOL0     H 3196   3.982   3.085   5.199  1.0620 -2.7713  0.6138
   24MOL0     H 3197   4.140   3.140   5.268  0.7488  0.8715 -0.5992
   24MOL0     H 3198   4.267   3.048   5.109  0.1374  0.1858  3.5876
   24MOL0     H 3199   4.123   3.018   5.000 -1.1422 -1.5165 -0.5034
   24MOL0     H 3200   3.997   2.846   4.970 -1.4702 -1.3168 -2.8333
   24MOL0     H 3201   3.996   2.555   4.737 -0.2769  0.8294 -0.9527
   24MOL0     H 3202   3.867   2.545   4.850 -0.6642  0.5853  1.7887
   24MOL0     H 3203   3.905   2.701   4.779  1.2327 -1.2182 -1.7635
   24MOL0     H 3204   4.346   2.185   4.791 -1.6788 -2.0710 -3.5408
   24MOL0     H 3205   4.326   1.942   4.731  0.3211 -0.4678  0.9657
   24MOL0     H 3206   4.101   1.669   5.008 -0.1677 -0.1895  0.3809
   24MOL0     H 3207   3.972   1.760   4.925 -1.4551 -1.4838  1.7283
   24MOL0     H 3208   3.906   1.559   4.873 -0.0954 -1.2124 -0.3453
   24MOL0     H 3209   3.982   1.613   4.733 -1.7149  3.0532  1.0974
   24MOL0     H 3210   4.194   1.481   4.839 -0.8159 -0.7304  0.9509
   24MOL0     H 3211   4.065   1.401   4.741 -5.5308  3.1459 -0.4042
   24MOL0     H 3212   4.091   1.434   5.045 -1.6934 -1.4649  0.8712
   24MOL0     H 3213   3.957   1.349   4.967 -0.8213  2.7057 -1.0494
   24MOL0     H 3214   4.258   1.271   4.926 -0.9365 -0.7145 -4.4581
   24MOL0     H 3215   4.123   1.169   4.885  1.2109 -0.8741 -0.3990
   24MOL0     H 3216   4.232   1.105   5.103  1.7673  0.4829  0.0861
   24MOL0     H 3217   4.234   1.280   5.151 -0.6164 -0.1517 -1.3830
   24MOL0     H 3218   3.967   1.128   5.122  2.4165 -0.8107 -2.8092
   24MOL0     H 3219   3.999   1.278   5.209 -2.0217 -0.0619 -3.1382
   24MOL0     H 3220   4.175   1.128   5.342 -0.9762 -0.5713  0.3017
   24MOL0     H 3221   4.094   1.001   5.253  2.3132  1.0083 -2.8717
   24MOL0     H 3222   4.058   1.887   5.054 -3.0700 -0.8318 -4.6296
   24MOL0     H 3223   4.081   2.115   5.132  2.1260 -2.5580  1.9562
   24MOL0     H 3224   4.293   2.485   5.134  0.7010  0.0028 -1.1808
   24MOL0     H 3225   4.281   2.687   5.245  0.2011 -1.3854  0.1344
   24MOL0     H 3226   3.485   4.430   4.234 -2.0113 -1.2535 -0.2066
   24MOL0     H 3227   3.423   4.573   4.035 -2.5322 -2.1853 -1.9457
   24MOL0     H 3228   3.638   4.738   3.710  1.6507 -0.1206 -3.1604
   24MOL0     H 3229   3.668   4.961   3.574 -0.5210  2.6153  2.5395
   24MOL0     H 3230   3.317   5.200   3.616  0.4519 -1.6071  0.1351
   24MOL0     H 3231   3.445   5.306   3.583 -1.2065  1.6143 -0.5763
   24MOL0     H 3232   3.250   5.334   3.412 -3.1973 -2.3608 -5.4608
   24MOL0     H 3233   3.258   5.157   3.391  2.4368 -1.7140 -0.0898
   24MOL0     H 3234   3.421   5.179   3.229 -1.3222 -0.4944  0.0125
   24MOL0     H 3235   3.480   5.336   3.314 -0.0386 -1.2041  0.8620
   24MOL0     H 3236   3.307   5.444   3.202  2.5711 -1.3092  2.2060
   24MOL0     H 3237   3.222   5.290   3.147 -0.9962  0.2624  0.1541
   24MOL0     H 3238   3.537   5.409   2.867  2.6185  0.2697  0.0455
   24MOL0     H 3239   3.244   4.995   3.552  1.0243  0.9459  1.6685
   24MOL0     H 3240   3.219   4.753   3.630 -0.5721 -0.1237  2.2601
   25MOL0     O 3241   6.677   9.405   9.306 -0.2402  0.2320 -0.7584
   25MOL0     C 3242   6.747   9.505   9.277  0.4186  0.4027  0.2444
   25MOL0     O 3243   6.856   9.544   9.336  1.1921 -0.1663  0.4165
   25MOL0     C 3244   6.955   9.460   9.363 -0.8208  0.1873 -0.4022
   25MOL0     C 3245   7.061   9.492   9.449  0.5691  1.0229  0.4215
   25MOL0     C 3246   7.165   9.398   9.473  0.3330  0.4238 -0.3989
   25MOL0     C 3247   7.165   9.271   9.419 -0.5938  0.1897 -0.7260
   25MOL0     O 3248   7.279   9.186   9.447  0.0333 -0.1845  0.1364
   25MOL0     C 3249   7.251   9.047   9.446 -0.1810  0.3880 -0.2778
   25MOL0     C 3250   7.362   8.966   9.516  0.6206 -0.7012 -0.0392
   25MOL0     C 3251   7.320   8.820   9.533 -0.3449 -0.2509  0.4790
   25MOL0     C 3252   7.330   8.748   9.404  0.0947 -0.2267  0.7579
   25MOL0     C 3253   7.283   8.605   9.423 -0.3467  0.5556  0.3789
   25MOL0     C 3254   7.264   8.536   9.285 -0.9433 -0.1564 -0.0233
   25MOL0     C 3255   7.371   8.429   9.255 -0.6114 -0.1310 -0.1330
   25MOL0     C 3256   7.310   8.325   9.153 -0.3689  1.0741  0.2931
   25MOL0     N 3257   7.260   8.372   9.020 -0.6219 -0.4851 -0.5538
   25MOL0     C 3258   7.131   8.375   8.986 -0.4623 -0.4857 -0.8806
   25MOL0     C 3259   7.108   8.464   8.888  0.5024 -0.9425 -0.1969
   25MOL0     C 3260   6.976   8.522   8.819 -0.4697  0.2284 -0.4389
   25MOL0     C 3261   6.865   8.420   8.789  0.1661  1.1376 -0.3069
   25MOL0     C 3262   6.860   8.359   8.652  0.2167 -0.7864  1.1407
   25MOL0     C 3263   6.945   8.240   8.639 -0.7611  0.1086  0.4726
   25MOL0     O 3264   6.878   8.115   8.641 -0.4331  0.1965  0.1056
   25MOL0     C 3265   6.868   8.038   8.524 -0.6361 -0.1562  0.1293
   25MOL0     C 3266   6.978   8.006   8.448 -0.4019 -0.4119 -0.3701
   25MOL0     C 3267   6.973   7.936   8.329 -0.3184  1.1632  0.1176
   25MOL0     C 3268   7.108   7.885   8.265 -0.8530  0.5279  1.2174
   25MOL0     C 3269   6.844   7.882   8.286 -0.7669 -1.3474  0.1312
   25MOL0     C 3270   6.827   7.787   8.174  0.1038 -0.0661  0.0869
   25MOL0     O 3271   6.718   7.688   8.193 -0.0695 -0.0785 -0.9377
   25MOL0     C 3272   6.716   7.583   8.110  0.0148 -1.2680 -0.5018
   25MOL0     C 3273   6.586   7.528   8.109  0.2117 -0.5236 -0.1891
   25MOL0     C 3274   6.563   7.417   8.036  0.1159  0.1664  0.2523
   25MOL0     C 3275   6.660   7.366   7.951  0.3329 -0.4852  0.7936
   25MOL0     O 3276   6.633   7.272   7.851  0.0376 -0.2648 -0.0422
   25MOL0     C 3277   6.554   7.307   7.733 -0.9024 -0.3197 -0.4151
   25MOL0     C 3278   6.610   7.271   7.592 -1.0743 -0.1392 -1.4484
   25MOL0     C 3279   6.740   7.350   7.569 -0.2298  0.1978  0.3039
   25MOL0     C 3280   6.793   7.329   7.425  0.1418 -0.3290 -0.5767
   25MOL0     C 3281   6.824   7.180   7.388  0.1435 -0.5856 -1.1494
   25MOL0     C 3282   6.902   7.162   7.260 -0.5223 -0.0083  0.3932
   25MOL0     C 3283   7.056   7.193   7.264 -0.1821  0.4782 -1.3891
   25MOL0     C 3284   7.109   7.172   7.123 -0.7532  0.1805  0.1119
   25MOL0    Cl 3285   7.117   6.999   7.069 -0.6465 -0.2134  0.2310
   25MOL0     C 3286   6.790   7.425   7.944  0.2072  0.0102  0.7149
   25MOL0     C 3287   6.820   7.531   8.032 -0.6639 -0.3835 -0.0691
   25MOL0     O 3288   6.896   7.799   8.075  0.1494  0.0363  0.2633
   25MOL0     C 3289   6.734   7.914   8.371 -1.3680  0.0970 -0.7157
   25MOL0     C 3290   6.743   7.998   8.481 -0.3195  0.4751 -0.2653
   25MOL0     N 3291   7.235   8.510   8.853  0.2203 -0.0266  0.4912
   25MOL0     N 3292   7.319   8.451   8.930 -0.2684 -0.5242  0.7196
   25MOL0     C 3293   7.053   9.237   9.336  0.2691 -0.0979 -0.3844
   25MOL0     C 3294   6.962   9.329   9.295  0.2657 -0.6584 -0.6656
   25MOL0     C 3295   6.693   9.590   9.170  0.8934  0.2075  1.0621
   25MOL0     C 3296   6.589   9.548   9.079  0.4268  0.3716 -0.0455
   25MOL0     C 3297   6.524   9.636   8.993 -0.5312 -0.3688  0.3307
   25MOL0     C 3298   6.555   9.778   8.992  0.3625  0.4083 -0.4800
   25MOL0     O 3299   6.485   9.870   8.925 -0.0406  0.1761  0.5115
   25MOL0     C 3300   6.365   9.835   8.851 -0.7099  0.0105 -0.7801
   25MOL0     C 3301   6.398   9.793   8.705  0.6527 -0.1623  0.4835
   25MOL0     C 3302   6.276   9.729   8.629 -0.2951  0.3167  0.0447
   25MOL0     C 3303   6.229   9.815   8.505 -0.9054  0.1614  0.6068
   25MOL0     C 3304   6.150   9.739   8.413 -0.0770 -0.1362  0.1162
   25MOL0     C 3305   6.090   9.672   8.331  0.2686  0.2340 -0.6081
   25MOL0     C 3306   6.670   9.820   9.065  0.5185 -0.5127 -0.2458
   25MOL0     C 3307   6.721   9.727   9.156 -0.2119  0.1858  0.1859
   25MOL0     H 3308   7.077   9.596   9.477  2.3974  0.0045  3.7694
   25MOL0     H 3309   7.247   9.437   9.532  0.0780  0.4892 -0.0856
   25MOL0     H 3310   7.157   9.030   9.499 -1.0529 -1.0618 -2.1879
   25MOL0     H 3311   7.233   9.018   9.342  1.1316  3.0019 -1.3366
   25MOL0     H 3312   7.459   8.989   9.471  0.7112  1.4189  1.1103
   25MOL0     H 3313   7.365   8.998   9.620  0.4900  2.9734 -1.0429
   25MOL0     H 3314   7.386   8.774   9.607  1.2152  2.6942  1.0522
   25MOL0     H 3315   7.221   8.811   9.577 -0.9867 -2.7497 -1.2365
   25MOL0     H 3316   7.271   8.801   9.328  0.7004  2.5740  2.1064
   25MOL0     H 3317   7.435   8.748   9.372 -0.0420 -2.8720  0.0877
   25MOL0     H 3318   7.353   8.549   9.485  0.6494 -0.9692 -1.9543
   25MOL0     H 3319   7.186   8.600   9.474 -0.2742 -2.7501  0.4051
   25MOL0     H 3320   7.167   8.486   9.275  0.8076 -3.4827 -1.9303
   25MOL0     H 3321   7.267   8.621   9.216  3.4199 -0.8183 -0.9491
   25MOL0     H 3322   7.468   8.464   9.219 -0.0122 -1.5414  0.0248
   25MOL0     H 3323   7.389   8.375   9.349  0.8399  0.3884 -0.0878
   25MOL0     H 3324   7.231   8.264   9.199  1.2163 -1.5017 -0.1866
   25MOL0     H 3325   7.387   8.250   9.131 -1.5431 -1.1306  3.0031
   25MOL0     H 3326   7.055   8.311   9.029 -0.6609 -0.7784 -1.6434
   25MOL0     H 3327   6.938   8.596   8.890  2.6256  3.1508 -1.5777
   25MOL0     H 3328   6.992   8.575   8.725 -2.2295 -0.7794 -1.3719
   25MOL0     H 3329   6.770   8.470   8.810 -0.2511  0.5111 -0.6875
   25MOL0     H 3330   6.867   8.334   8.856  1.3775 -0.8720 -2.7483
   25MOL0     H 3331   6.908   8.438   8.593  0.7799  1.3020  4.1618
   25MOL0     H 3332   6.755   8.345   8.624 -0.3136 -1.0974  3.1659
   25MOL0     H 3333   7.003   8.239   8.732  0.1277 -0.6474 -0.0690
   25MOL0     H 3334   7.005   8.257   8.549  0.4541  2.0353  1.5814
   25MOL0     H 3335   7.077   8.036   8.482  0.9864 -1.7909 -2.8991
   25MOL0     H 3336   7.116   7.777   8.249 -3.1037  0.5606 -0.6995
   25MOL0     H 3337   7.111   7.926   8.164  1.2179  2.1540  1.8685
   25MOL0     H 3338   7.196   7.929   8.312  0.7773 -1.4056  0.1595
   25MOL0     H 3339   6.509   7.575   8.169  0.6225 -2.0687  1.6081
   25MOL0     H 3340   6.460   7.382   8.037 -0.4454  1.6978 -0.0118
   25MOL0     H 3341   6.458   7.258   7.753 -0.4452 -1.5693 -1.2219
   25MOL0     H 3342   6.526   7.413   7.736  1.2530  0.2557  1.4035
   25MOL0     H 3343   6.624   7.162   7.590  1.5385  0.1292 -1.2081
   25MOL0     H 3344   6.539   7.315   7.523  0.6053  1.7661 -2.0513
   25MOL0     H 3345   6.816   7.327   7.644 -0.2834  2.4205  1.1230
   25MOL0     H 3346   6.726   7.457   7.589 -2.0021 -0.2787  2.0192
   25MOL0     H 3347   6.706   7.360   7.366 -1.5156 -1.2887  1.2236
   25MOL0     H 3348   6.882   7.392   7.418 -0.9398  1.2989 -0.2970
   25MOL0     H 3349   6.728   7.129   7.380 -1.8093  2.9651 -2.4368
   25MOL0     H 3350   6.880   7.131   7.469  0.2575  2.7611  0.9999
   25MOL0     H 3351   6.883   7.061   7.224 -5.3335  0.4908  0.8954
   25MOL0     H 3352   6.854   7.222   7.183  0.7930  1.5625  0.7370
   25MOL0     H 3353   7.099   7.118   7.331 -1.9899 -0.1052 -0.8202
   25MOL0     H 3354   7.085   7.292   7.300  0.4075  1.2913 -3.8910
   25MOL0     H 3355   7.212   7.208   7.123 -1.0342  1.0160  0.4739
   25MOL0     H 3356   7.053   7.237   7.055 -0.1185  1.4735  0.7882
   25MOL0     H 3357   6.869   7.390   7.879 -0.9499 -2.6569  0.6160
   25MOL0     H 3358   6.926   7.553   8.038 -0.8028  0.3985 -0.2860
   25MOL0     H 3359   6.636   7.892   8.330 -1.8093  4.3601 -2.5153
   25MOL0     H 3360   6.653   8.030   8.533 -1.0553 -3.7806  1.5104
   25MOL0     H 3361   7.040   9.141   9.289  0.7165  0.0278 -0.7777
   25MOL0     H 3362   6.896   9.304   9.213 -1.9420  0.1852  0.7412
   25MOL0     H 3363   6.542   9.454   9.102  0.4385  0.2857 -0.3664
   25MOL0     H 3364   6.434   9.598   8.945  0.7674  1.5018 -4.0802
   25MOL0     H 3365   6.308   9.750   8.889  0.0055 -0.9106 -1.7077
   25MOL0     H 3366   6.295   9.919   8.839 -0.8273  0.0670  0.2563
   25MOL0     H 3367   6.474   9.714   8.708  0.9678  0.1418  0.5504
   25MOL0     H 3368   6.449   9.861   8.636  1.4309 -3.0172 -1.9830
   25MOL0     H 3369   6.193   9.707   8.698  1.1200 -2.4585  1.0089
   25MOL0     H 3370   6.300   9.625   8.608 -0.7380  0.6853 -2.5847
   25MOL0     H 3371   6.306   9.854   8.438 -2.5233  3.9844  0.6912
   25MOL0     H 3372   6.184   9.912   8.531 -3.2045 -0.8077  0.5368
   25MOL0     H 3373   6.039   9.625   8.250 -2.0649 -0.8911  1.3979
   25MOL0     H 3374   6.708   9.922   9.065  0.8969 -0.5656  2.8182
   25MOL0     H 3375   6.810   9.763   9.208 -0.7656  2.2398 -0.1935
   26MOL0     O 3376   8.161   7.215   2.187  0.1725  0.4930 -0.1433
   26MOL0     C 3377   8.159   7.313   2.112 -0.4986  0.0710  0.1248
   26MOL0     O 3378   8.050   7.364   2.061  1.1881  0.5541 -0.0237
   26MOL0     C 3379   7.928   7.329   2.106  0.5693  0.1601  0.0777
   26MOL0     C 3380   7.896   7.351   2.244 -0.0504  0.3291  0.5785
   26MOL0     C 3381   7.766   7.328   2.290 -0.4106  0.4758 -0.2800
   26MOL0     C 3382   7.663   7.289   2.207  1.2072 -0.6510 -0.1511
   26MOL0     O 3383   7.543   7.274   2.250 -0.3207 -0.7434 -0.1585
   26MOL0     C 3384   7.516   7.287   2.395  0.5007  0.5212  0.6830
   26MOL0     C 3385   7.374   7.230   2.407 -0.2058 -0.3293  0.6230
   26MOL0     C 3386   7.361   7.077   2.432 -0.4954 -0.6741 -0.2759
   26MOL0     C 3387   7.232   7.056   2.519  0.5270  0.3249 -0.0855
   26MOL0     C 3388   7.187   6.903   2.514 -0.1960 -0.7242 -0.5487
   26MOL0     C 3389   7.081   6.864   2.615  0.5422  0.8740 -0.1779
   26MOL0     C 3390   7.021   6.723   2.624  0.0300  0.7017  0.4110
   26MOL0     C 3391   6.961   6.669   2.491  0.7224 -0.0699 -0.1166
   26MOL0     N 3392   6.842   6.744   2.449 -1.0431  0.1233 -0.3781
   26MOL0     C 3393   6.847   6.850   2.363  0.5134 -0.4565  0.2518
   26MOL0     C 3394   6.735   6.917   2.402  0.0797  0.1624  0.5082
   26MOL0     C 3395   6.663   7.041   2.340  0.0485  0.1885  0.3503
   26MOL0     C 3396   6.726   7.179   2.382 -0.6155 -0.9370  0.1886
   26MOL0     C 3397   6.862   7.216   2.319  0.4411 -0.0413 -0.0602
   26MOL0     C 3398   6.910   7.343   2.382  0.2306  0.3252 -0.1664
   26MOL0     O 3399   7.035   7.375   2.330  0.1097 -0.3394  0.1223
   26MOL0     C 3400   7.043   7.435   2.210 -0.2485 -1.3763  0.3195
   26MOL0     C 3401   6.943   7.470   2.118 -0.1173 -0.3171  0.2670
   26MOL0     C 3402   6.974   7.526   1.996 -0.5348 -0.3697  0.3971
   26MOL0     C 3403   6.861   7.556   1.909  0.3109 -0.0393 -0.1317
   26MOL0     C 3404   7.107   7.565   1.962 -0.7594  0.3383 -0.2380
   26MOL0     C 3405   7.152   7.616   1.831  0.4797 -0.1246 -0.9950
   26MOL0     O 3406   7.088   7.566   1.721 -1.0420  0.4760 -0.2350
   26MOL0     C 3407   7.142   7.603   1.600  0.5932  0.6852 -0.4169
   26MOL0     C 3408   7.046   7.670   1.528  0.1158  0.2489 -0.2770
   26MOL0     C 3409   7.083   7.713   1.400  0.7577 -0.2338 -0.9187
   26MOL0     C 3410   7.206   7.680   1.343 -0.3402  0.5288 -0.3872
   26MOL0     O 3411   7.217   7.720   1.218  0.1565  0.1075  1.1947
   26MOL0     C 3412   7.307   7.649   1.127  0.0281 -0.9737  0.3130
   26MOL0     C 3413   7.439   7.732   1.139 -0.1234  0.6200 -0.2442
   26MOL0     C 3414   7.491   7.778   1.000 -0.3037 -0.0937 -0.8130
   26MOL0     C 3415   7.615   7.862   1.018  0.1834  0.3759 -0.2270
   26MOL0     C 3416   7.715   7.853   0.892 -0.0010  0.9126 -0.3072
   26MOL0     C 3417   7.848   7.910   0.933 -0.1130  1.3439 -0.1796
   26MOL0     C 3418   7.851   8.050   0.892  0.0487  0.1347 -0.0340
   26MOL0     C 3419   7.968   8.112   0.962 -0.5070 -0.1032 -0.0495
   26MOL0    Cl 3420   8.110   8.035   0.864  0.2050  0.3258  0.5951
   26MOL0     C 3421   7.299   7.611   1.419 -0.2450  0.1622  0.1603
   26MOL0     C 3422   7.267   7.572   1.548  0.2062  0.7679  0.3460
   26MOL0     O 3423   7.242   7.701   1.826  0.4688 -0.4087 -0.0692
   26MOL0     C 3424   7.209   7.540   2.054 -0.0431  0.8737 -0.8507
   26MOL0     C 3425   7.171   7.474   2.182  0.1590 -0.3373  0.7174
   26MOL0     N 3426   6.666   6.842   2.492  1.0970  0.2928 -0.6496
   26MOL0     N 3427   6.739   6.741   2.522  0.2694 -0.2275 -0.0823
   26MOL0     C 3428   7.689   7.257   2.076  0.2057  0.0845  0.9842
   26MOL0     C 3429   7.820   7.276   2.025 -0.1802 -0.0490  2.1118
   26MOL0     C 3430   8.284   7.388   2.093  0.6584 -0.3254 -0.4042
   26MOL0     C 3431   8.286   7.497   2.004  0.1125 -0.2445  0.0433
   26MOL0     C 3432   8.396   7.589   2.010 -0.9911 -0.0619 -0.3413
   26MOL0     C 3433   8.508   7.569   2.092 -0.4973 -0.3530  0.4352
   26MOL0     O 3434   8.620   7.655   2.105  0.2032  0.5244  0.4888
   26MOL0     C 3435   8.637   7.753   2.002  0.2310 -0.5362  0.0472
   26MOL0     C 3436   8.742   7.854   2.051  1.0367  0.1478  0.4045
   26MOL0     C 3437   8.793   7.943   1.940  0.0845 -0.2833  0.0681
   26MOL0     C 3438   8.869   8.067   1.995 -0.1083  0.8897 -0.2164
   26MOL0     C 3439   8.938   8.146   1.894  1.0640  0.5603  0.1902
   26MOL0     C 3440   8.986   8.218   1.818  0.0533 -0.6383  0.3084
   26MOL0     C 3441   8.505   7.451   2.172 -0.7549 -0.1536  1.3969
   26MOL0     C 3442   8.396   7.370   2.182 -0.4979 -0.2767  0.9001
   26MOL0     H 3443   7.974   7.395   2.306  2.0869 -2.9246  0.4883
   26MOL0     H 3444   7.749   7.350   2.395 -0.3165  1.0213 -0.3780
   26MOL0     H 3445   7.582   7.221   2.451 -0.6826 -0.3880  1.0443
   26MOL0     H 3446   7.520   7.390   2.432 -0.5275  0.8270  0.0017
   26MOL0     H 3447   7.319   7.300   2.472  1.8910  1.1546  0.8874
   26MOL0     H 3448   7.321   7.249   2.313  0.4117 -2.3158 -0.1634
   26MOL0     H 3449   7.354   7.027   2.335 -3.2308 -1.3582  0.1929
   26MOL0     H 3450   7.452   7.039   2.478 -2.0855 -1.1608  2.7087
   26MOL0     H 3451   7.256   7.089   2.621 -1.8598 -0.4569  0.7814
   26MOL0     H 3452   7.154   7.123   2.483  2.2244  3.0831  0.9650
   26MOL0     H 3453   7.146   6.889   2.413 -2.7953 -0.9877  0.4644
   26MOL0     H 3454   7.268   6.829   2.511  1.2744  0.8042 -0.3736
   26MOL0     H 3455   7.132   6.875   2.712  0.1476  1.1359  0.0036
   26MOL0     H 3456   6.994   6.929   2.602 -1.5050 -1.5285  0.7629
   26MOL0     H 3457   7.108   6.660   2.642  1.6581  2.8481  0.5179
   26MOL0     H 3458   6.952   6.715   2.709  0.3377 -1.1671  0.5202
   26MOL0     H 3459   6.937   6.563   2.502  0.7047  0.1179  1.9386
   26MOL0     H 3460   7.034   6.675   2.410 -0.6386  1.0934 -1.3502
   26MOL0     H 3461   6.925   6.883   2.294  1.2196  0.0658  1.2621
   26MOL0     H 3462   6.669   7.035   2.231  0.6905  0.6180  0.3570
   26MOL0     H 3463   6.555   7.042   2.360  0.2774  0.0075  1.6743
   26MOL0     H 3464   6.747   7.172   2.489 -1.0083 -1.7129  0.2188
   26MOL0     H 3465   6.658   7.263   2.363  0.2779  0.2782  2.1278
   26MOL0     H 3466   6.836   7.242   2.216  0.7304  0.8729  0.0857
   26MOL0     H 3467   6.947   7.147   2.325 -1.0386 -2.0954 -1.3955
   26MOL0     H 3468   6.925   7.322   2.489  0.7164  1.5997  0.0268
   26MOL0     H 3469   6.837   7.424   2.376  0.8934  0.8566 -1.2736
   26MOL0     H 3470   6.841   7.458   2.154 -0.1078  3.0454  1.7163
   26MOL0     H 3471   6.887   7.640   1.845  3.0911 -2.6643 -2.8311
   26MOL0     H 3472   6.834   7.466   1.853 -2.8676 -1.2442  2.9362
   26MOL0     H 3473   6.778   7.592   1.970 -0.1454 -0.5142 -0.4726
   26MOL0     H 3474   6.944   7.679   1.563  0.1513  0.7549 -0.2968
   26MOL0     H 3475   7.027   7.774   1.330  1.3997  1.4144 -0.0578
   26MOL0     H 3476   7.311   7.540   1.135  0.0952 -1.0961 -1.1360
   26MOL0     H 3477   7.275   7.676   1.026  3.0755 -1.0912 -0.8038
   26MOL0     H 3478   7.419   7.822   1.198  1.1781 -0.6099  2.2397
   26MOL0     H 3479   7.516   7.681   1.198  1.2881  1.2064 -1.4940
   26MOL0     H 3480   7.420   7.846   0.951 -0.7327  0.7320  0.8693
   26MOL0     H 3481   7.513   7.694   0.934 -3.0909 -0.7458 -1.0094
   26MOL0     H 3482   7.586   7.964   1.045 -0.4407 -0.2872  1.7881
   26MOL0     H 3483   7.675   7.829   1.102 -0.7057  2.2746  1.2225
   26MOL0     H 3484   7.668   7.908   0.810  1.1037 -0.1702 -1.7250
   26MOL0     H 3485   7.717   7.745   0.876 -4.8002  0.0598  2.8071
   26MOL0     H 3486   7.867   7.912   1.041 -2.5413 -1.0311  0.4021
   26MOL0     H 3487   7.929   7.863   0.877 -1.0191  1.1222 -1.3358
   26MOL0     H 3488   7.763   8.111   0.912  2.1745  2.4284  3.4232
   26MOL0     H 3489   7.883   8.062   0.788  3.3266  2.8402  1.0962
   26MOL0     H 3490   7.945   8.102   1.068 -3.2943  1.2411 -0.4234
   26MOL0     H 3491   7.975   8.220   0.943  0.1032  0.0131  0.7825
   26MOL0     H 3492   7.396   7.583   1.380 -1.3232 -1.3547 -1.6244
   26MOL0     H 3493   7.349   7.535   1.609  1.8112  0.5620 -1.8322
   26MOL0     H 3494   7.315   7.552   2.038  0.0792  0.2579 -0.5281
   26MOL0     H 3495   7.238   7.439   2.259  0.4105 -3.7642 -0.8518
   26MOL0     H 3496   7.609   7.213   2.018  0.6882  0.9677 -0.4188
   26MOL0     H 3497   7.852   7.265   1.922  3.4087  6.9660  1.8365
   26MOL0     H 3498   8.201   7.513   1.938 -1.4099  0.3589  2.0550
   26MOL0     H 3499   8.376   7.677   1.949  0.6590  1.1420  0.7590
   26MOL0     H 3500   8.644   7.715   1.900  3.8986 -3.7793  1.2860
   26MOL0     H 3501   8.544   7.810   1.991  0.5368 -0.0673 -0.1508
   26MOL0     H 3502   8.826   7.797   2.093  2.2208  1.7340  0.2839
   26MOL0     H 3503   8.695   7.915   2.129  0.1696  1.1726 -0.8778
   26MOL0     H 3504   8.714   7.987   1.879  0.7102  1.5522  0.5345
   26MOL0     H 3505   8.858   7.886   1.873  0.3478  0.6764 -0.5005
   26MOL0     H 3506   8.946   8.033   2.066 -0.9516 -3.1940 -1.0119
   26MOL0     H 3507   8.797   8.127   2.051 -0.5365 -1.1563  1.5778
   26MOL0     H 3508   9.014   8.280   1.735  2.2214 -1.9537 -0.0165
   26MOL0     H 3509   8.594   7.422   2.227 -0.3059  2.7884  2.4000
   26MOL0     H 3510   8.391   7.285   2.248 -1.1023 -2.8739 -2.2242
   27MOL0     O 3511   8.618   0.505  11.486 -0.0225 -0.5475 -0.0146
   27MOL0     C 3512   8.515   0.569  11.448 -0.0072 -1.0271 -0.2711
   27MOL0     O 3513   8.442   0.654  11.522  0.1284 -0.3913  0.7051
   27MOL0     C 3514   8.493   0.695  11.645  0.8173 -0.0611  0.9016
   27MOL0     C 3515   8.625   0.741  11.661  1.2692  0.2654  0.5505
   27MOL0     C 3516   8.664   0.782  11.791 -0.0642  0.4117  0.1517
   27MOL0     C 3517   8.577   0.799  11.897 -0.2158 -0.3264  0.2077
   27MOL0     O 3518   8.638   0.848  12.012 -0.1120 -0.2414  0.2429
   27MOL0     C 3519   8.605   0.790  12.141  0.0021 -0.1470  0.2547
   27MOL0     C 3520   8.690   0.854  12.247 -0.9550 -0.4019  0.7757
   27MOL0     C 3521   8.831   0.817  12.235 -0.7874 -0.2945 -0.5686
   27MOL0     C 3522   8.917   0.884  12.345 -0.0301  0.1736 -0.1227
   27MOL0     C 3523   9.070   0.842  12.328  0.5884 -1.1754 -0.2935
   27MOL0     C 3524   9.136   0.884  12.458 -0.4880  0.9200  0.2298
   27MOL0     C 3525   9.267   0.807  12.465 -0.2311  0.3804  0.3150
   27MOL0     C 3526   9.366   0.872  12.564 -0.8766 -0.6191  0.8724
   27MOL0     N 3527   9.434   0.986  12.496 -1.2698  0.2518 -0.0077
   27MOL0     C 3528   9.573   1.004  12.473  0.4546 -0.0710  0.3122
   27MOL0     C 3529   9.586   1.129  12.434 -0.5398  0.0829  1.0803
   27MOL0     C 3530   9.710   1.202  12.386 -0.1006 -0.2708 -0.8428
   27MOL0     C 3531   9.745   1.172  12.245  0.6722 -0.3805  0.1929
   27MOL0     C 3532   9.632   1.205  12.153 -0.4463  0.4455  0.5816
   27MOL0     C 3533   9.595   1.356  12.152 -1.2014  0.0707  0.4035
   27MOL0     O 3534   9.516   1.398  12.040 -0.3173 -0.3471 -0.0781
   27MOL0     C 3535   9.373   1.385  12.043 -0.4778 -0.2598  0.0815
   27MOL0     C 3536   9.299   1.333  12.144  0.0046 -1.6804 -0.0976
   27MOL0     C 3537   9.168   1.290  12.126 -0.4950  0.1970  0.3334
   27MOL0     C 3538   9.101   1.218  12.235  0.2378 -0.0355  0.4359
   27MOL0     C 3539   9.095   1.333  12.013  0.4419 -0.6088 -0.5305
   27MOL0     C 3540   8.952   1.292  11.988  0.8718 -0.1817  0.3709
   27MOL0     O 3541   8.845   1.359  12.034  0.1627  0.1601 -0.5110
   27MOL0     C 3542   8.724   1.329  11.982  0.2172  0.8007 -0.1038
   27MOL0     C 3543   8.645   1.240  12.048  0.9243 -0.6241 -0.6700
   27MOL0     C 3544   8.530   1.191  11.985 -0.6005  0.2101  0.3643
   27MOL0     C 3545   8.496   1.231  11.857  0.4079 -0.3690 -0.2596
   27MOL0     O 3546   8.375   1.192  11.806 -0.5048 -0.7108 -0.3429
   27MOL0     C 3547   8.362   1.055  11.784  0.1736 -1.0598 -0.2166
   27MOL0     C 3548   8.242   1.031  11.689 -0.6165 -0.2094 -0.0216
   27MOL0     C 3549   8.240   1.112  11.556 -0.3264  0.1020 -0.5822
   27MOL0     C 3550   8.104   1.129  11.506  0.9034 -0.5004  1.0151
   27MOL0     C 3551   8.109   1.228  11.386  0.7446 -1.2667  0.9927
   27MOL0     C 3552   7.977   1.218  11.314  0.6229  0.2953  0.4634
   27MOL0     C 3553   7.975   1.277  11.173 -0.0012 -0.1270 -0.5222
   27MOL0     C 3554   7.838   1.271  11.107 -0.4181  0.1853 -0.0835
   27MOL0    Cl 3555   7.772   1.104  11.109  0.2137  0.4085 -0.0137
   27MOL0     C 3556   8.574   1.334  11.796  0.1961 -0.7822  0.2340
   27MOL0     C 3557   8.691   1.375  11.853  1.2279 -1.2284  0.6208
   27MOL0     O 3558   8.948   1.205  11.905  0.4268 -0.2495  0.2448
   27MOL0     C 3559   9.162   1.405  11.916 -0.9908  0.5629 -0.6814
   27MOL0     C 3560   9.303   1.428  11.925  0.6578 -0.7513  0.2903
   27MOL0     N 3561   9.458   1.190  12.441 -0.3959 -0.7743 -0.0803
   27MOL0     N 3562   9.368   1.104  12.475 -1.2374  0.7888 -0.2139
   27MOL0     C 3563   8.451   0.746  11.890 -0.8805  0.5005  0.6228
   27MOL0     C 3564   8.406   0.690  11.761 -0.8541  0.3111 -0.9791
   27MOL0     C 3565   8.458   0.548  11.317  0.5540  1.2406 -0.0486
   27MOL0     C 3566   8.495   0.427  11.240 -0.0739 -0.2029 -0.8244
   27MOL0     C 3567   8.416   0.379  11.139  0.5859 -0.1903  0.5598
   27MOL0     C 3568   8.311   0.463  11.079 -1.0300 -0.0661 -0.1213
   27MOL0     O 3569   8.224   0.434  10.979 -0.2842 -0.1275 -0.5400
   27MOL0     C 3570   8.241   0.309  10.901  0.0635 -0.2869 -0.0903
   27MOL0     C 3571   8.201   0.325  10.755  0.5766 -0.4531  0.2320
   27MOL0     C 3572   8.151   0.201  10.689  0.0374  0.6515 -0.1762
   27MOL0     C 3573   8.070   0.226  10.565 -0.4118  1.1470  0.8396
   27MOL0     C 3574   8.160   0.266  10.460 -0.0268  0.5162  0.9015
   27MOL0     C 3575   8.230   0.291  10.362 -0.3843 -0.0414 -0.0351
   27MOL0     C 3576   8.295   0.596  11.128  0.1066 -0.7298 -0.1665
   27MOL0     C 3577   8.362   0.637  11.251 -0.2530  0.8182 -0.1829
   27MOL0     H 3578   8.691   0.734  11.575  0.7002 -3.3931  0.2048
   27MOL0     H 3579   8.768   0.811  11.808  0.7309  1.0255 -4.4873
   27MOL0     H 3580   8.498   0.802  12.163 -0.2631  0.5179 -1.2723
   27MOL0     H 3581   8.616   0.682  12.135 -0.0815 -0.1531  0.2017
   27MOL0     H 3582   8.682   0.963  12.240 -0.5009 -0.4486 -0.8346
   27MOL0     H 3583   8.650   0.818  12.343  0.6742  0.4378  1.8300
   27MOL0     H 3584   8.845   0.709  12.243  2.1437  0.0874  0.7252
   27MOL0     H 3585   8.881   0.830  12.138 -1.3260  1.4933 -0.6431
   27MOL0     H 3586   8.901   0.992  12.343 -2.1520 -0.0950 -2.1196
   27MOL0     H 3587   8.883   0.845  12.442 -0.9345  2.0625  0.3541
   27MOL0     H 3588   9.070   0.733  12.315  0.2795 -0.9804 -2.1369
   27MOL0     H 3589   9.123   0.884  12.242 -0.1767 -0.5952 -0.4930
   27MOL0     H 3590   9.157   0.991  12.447  0.2273  0.5690 -2.2956
   27MOL0     H 3591   9.080   0.852  12.547 -1.9233 -1.8369 -1.5045
   27MOL0     H 3592   9.244   0.708  12.505  0.3374 -0.5889 -1.6322
   27MOL0     H 3593   9.310   0.791  12.366  0.2819  0.6420  0.4908
   27MOL0     H 3594   9.441   0.802  12.600 -0.7340  0.6342  3.2083
   27MOL0     H 3595   9.312   0.905  12.654  3.8053 -2.2592  4.7438
   27MOL0     H 3596   9.652   0.930  12.484 -0.6321 -1.1044  1.6040
   27MOL0     H 3597   9.696   1.309  12.405 -0.5565 -0.4434 -0.1411
   27MOL0     H 3598   9.796   1.166  12.444 -2.5381 -2.9264  1.4359
   27MOL0     H 3599   9.770   1.068  12.226  1.0527 -0.1946 -0.3537
   27MOL0     H 3600   9.840   1.217  12.215  0.1803  0.0821 -0.7449
   27MOL0     H 3601   9.542   1.151  12.182 -0.3461  0.6521  1.3187
   27MOL0     H 3602   9.649   1.166  12.053 -0.2147  1.8157  0.0663
   27MOL0     H 3603   9.691   1.407  12.138 -1.4849  0.0876 -1.7002
   27MOL0     H 3604   9.556   1.380  12.251  2.7654 -0.3897  2.3053
   27MOL0     H 3605   9.337   1.307  12.243  0.0426 -1.5535 -0.0793
   27MOL0     H 3606   9.159   1.203  12.327 -1.8010 -1.7796  1.5224
   27MOL0     H 3607   9.023   1.283  12.275  0.8530  1.6844 -1.0440
   27MOL0     H 3608   9.058   1.124  12.198 -2.0467  1.1964 -0.1959
   27MOL0     H 3609   8.662   1.198  12.146  0.3541 -0.4528 -0.4902
   27MOL0     H 3610   8.486   1.103  12.031  1.5190 -2.2418 -1.9414
   27MOL0     H 3611   8.455   1.017  11.741  1.0433  1.6409 -0.9254
   27MOL0     H 3612   8.333   1.012  11.880 -2.6587  0.5223 -0.2477
   27MOL0     H 3613   8.225   0.924  11.677 -1.2985 -0.3394  1.8558
   27MOL0     H 3614   8.157   1.067  11.747  1.0801 -1.7229  3.6513
   27MOL0     H 3615   8.305   1.057  11.487 -1.4357 -2.5287  0.3752
   27MOL0     H 3616   8.281   1.214  11.559 -1.6577  0.8147 -3.3837
   27MOL0     H 3617   8.051   1.035  11.488  0.1895 -0.6733  3.5744
   27MOL0     H 3618   8.040   1.178  11.581  2.5888  3.5909  0.0748
   27MOL0     H 3619   8.195   1.194  11.327  2.3813  1.0053  1.9104
   27MOL0     H 3620   8.128   1.327  11.428 -2.1052 -0.2223  0.0159
   27MOL0     H 3621   7.942   1.115  11.302  1.0444 -0.0077  1.6676
   27MOL0     H 3622   7.900   1.265  11.377 -1.3985  1.1576 -2.4347
   27MOL0     H 3623   8.049   1.226  11.110  2.3430 -0.0740  1.9979
   27MOL0     H 3624   8.009   1.380  11.178  0.7172 -0.3661 -0.4347
   27MOL0     H 3625   7.857   1.301  11.004  0.0155  1.0368  0.2377
   27MOL0     H 3626   7.771   1.342  11.156  0.3347  2.1187 -1.7154
   27MOL0     H 3627   8.542   1.364  11.697 -1.7809  0.9655  1.3010
   27MOL0     H 3628   8.753   1.446  11.800 -0.6631 -0.5087 -0.7239
   27MOL0     H 3629   9.110   1.430  11.824  0.4234 -2.8477 -2.6034
   27MOL0     H 3630   9.348   1.484  11.844  3.3470 -0.5000  1.8630
   27MOL0     H 3631   8.396   0.758  11.983  1.2993 -0.0235  2.0697
   27MOL0     H 3632   8.315   0.638  11.733  0.0070 -2.8078  1.4381
   27MOL0     H 3633   8.575   0.371  11.289 -0.9045 -1.2178 -0.6054
   27MOL0     H 3634   8.423   0.274  11.115  0.1018 -0.3324  1.0291
   27MOL0     H 3635   8.348   0.290  10.890 -0.2010 -0.2016 -4.6250
   27MOL0     H 3636   8.186   0.230  10.954 -0.7553 -0.2909 -0.9061
   27MOL0     H 3637   8.290   0.354  10.699  2.2866 -3.3214  1.2242
   27MOL0     H 3638   8.118   0.397  10.757  1.1651  0.2571 -0.4187
   27MOL0     H 3639   8.091   0.145  10.761  0.1627  0.4661 -0.2132
   27MOL0     H 3640   8.234   0.134  10.664 -1.6483 -1.2576 -0.8746
   27MOL0     H 3641   7.987   0.296  10.578 -2.5405 -1.3802  1.9384
   27MOL0     H 3642   8.039   0.123  10.545  3.6621 -0.5249  1.9418
   27MOL0     H 3643   8.307   0.296  10.287 -1.5087 -0.1841 -1.2521
   27MOL0     H 3644   8.235   0.659  11.063 -2.2480 -2.4637  0.2279
   27MOL0     H 3645   8.353   0.741  11.281 -0.3907  1.0908 -1.1475
   28MOL0     O 3646   9.211   0.293   9.699 -0.3909 -0.0412  0.5790
   28MOL0     C 3647   9.215   0.404   9.644  0.0427 -0.4063  0.4221
   28MOL0     O 3648   9.271   0.438   9.520  0.3369  0.0135 -0.0821
   28MOL0     C 3649   9.340   0.348   9.445  0.1204  0.2192  0.8203
   28MOL0     C 3650   9.343   0.381   9.305  0.9168 -0.5517 -0.4095
   28MOL0     C 3651   9.401   0.299   9.214  0.5494 -0.2333 -0.0847
   28MOL0     C 3652   9.444   0.176   9.253 -1.0343  0.2013 -0.1365
   28MOL0     O 3653   9.482   0.096   9.152  0.0183 -0.1615  0.5519
   28MOL0     C 3654   9.442  -0.033   9.172 -0.4911 -0.0401 -0.3673
   28MOL0     C 3655   9.444  -0.105   9.041 -0.1032  0.0593 -0.6328
   28MOL0     C 3656   9.365  -0.039   8.936  0.5930  0.8622 -0.4016
   28MOL0     C 3657   9.463   0.052   8.848  0.0510  0.3866  1.1905
   28MOL0     C 3658   9.388   0.116   8.724 -0.7148 -1.2359 -0.6707
   28MOL0     C 3659   9.336   0.019   8.608 -0.1395 -0.3448 -0.0537
   28MOL0     C 3660   9.187   0.024   8.616 -0.1879  0.1732  0.0211
   28MOL0     C 3661   9.127   0.147   8.549  0.5821  0.0143 -0.2459
   28MOL0     N 3662   8.980   0.129   8.523 -0.4507  0.4058  0.9885
   28MOL0     C 3663   8.876   0.175   8.598 -0.2851  0.2075  0.4019
   28MOL0     C 3664   8.757   0.130   8.543 -0.7393  0.0572  0.9436
   28MOL0     C 3665   8.626   0.137   8.608  0.3150  0.9263 -0.9514
   28MOL0     C 3666   8.617   0.085   8.749 -0.4265 -0.0541  0.7105
   28MOL0     C 3667   8.471   0.055   8.798  0.0795 -0.4379  0.1457
   28MOL0     C 3668   8.415  -0.086   8.753 -0.1080 -0.0289 -0.4463
   28MOL0     O 3669   8.491  -0.189   8.824  1.2277  0.1715 -0.1527
   28MOL0     C 3670   8.550  -0.291   8.748 -0.6901 -0.6683  0.0951
   28MOL0     C 3671   8.545  -0.412   8.807  0.1922  0.7023  0.8826
   28MOL0     C 3672   8.607  -0.528   8.760 -0.1435  0.0822 -0.0885
   28MOL0     C 3673   8.585  -0.658   8.833 -0.0544 -1.0326  0.2133
   28MOL0     C 3674   8.669  -0.513   8.628 -0.8187 -0.4281  0.3259
   28MOL0     C 3675   8.731  -0.620   8.559  0.2606  0.4628  0.7670
   28MOL0     O 3676   8.816  -0.595   8.447 -0.5189  0.2221  0.2636
   28MOL0     C 3677   8.894  -0.695   8.408  0.0914  0.4311 -0.7065
   28MOL0     C 3678   9.020  -0.709   8.461 -0.1131  0.3728  0.4188
   28MOL0     C 3679   9.098  -0.816   8.425  0.3315  0.3640 -0.3858
   28MOL0     C 3680   9.049  -0.911   8.331  0.2765 -0.8569 -0.9501
   28MOL0     O 3681   9.115  -1.025   8.306 -0.0245 -0.4446  0.6618
   28MOL0     C 3682   9.256  -1.034   8.310 -0.4058 -0.3897 -0.4187
   28MOL0     C 3683   9.305  -1.179   8.336  0.3910 -0.0561 -0.1449
   28MOL0     C 3684   9.456  -1.183   8.342 -0.1461 -0.0923 -0.6342
   28MOL0     C 3685   9.492  -1.335   8.359  0.9190 -0.6134  0.1605
   28MOL0     C 3686   9.637  -1.354   8.322 -0.5298 -0.0258 -0.0963
   28MOL0     C 3687   9.664  -1.507   8.336 -0.4846  0.6836 -0.5932
   28MOL0     C 3688   9.815  -1.539   8.378 -0.2997 -0.2272  0.7206
   28MOL0     C 3689   9.907  -1.483   8.265  0.6661 -0.5383 -0.0688
   28MOL0    Cl 3690  10.071  -1.479   8.336  0.0877  0.1376  0.1577
   28MOL0     C 3691   8.923  -0.888   8.275 -0.6170 -0.3326  0.6072
   28MOL0     C 3692   8.847  -0.781   8.305  0.4147  0.6794 -0.0659
   28MOL0     O 3693   8.699  -0.740   8.593  0.6774 -0.0373  0.1888
   28MOL0     C 3694   8.691  -0.385   8.569 -0.4248  1.2263  0.1126
   28MOL0     C 3695   8.632  -0.278   8.632 -0.9568 -0.4272  0.4827
   28MOL0     N 3696   8.799   0.050   8.441 -0.0079  0.0640 -0.4360
   28MOL0     N 3697   8.920   0.051   8.431 -0.4526 -1.2203  0.7975
   28MOL0     C 3698   9.447   0.136   9.391 -0.2854 -0.9712  0.4245
   28MOL0     C 3699   9.400   0.229   9.486 -0.2304 -0.3086  1.1334
   28MOL0     C 3700   9.162   0.512   9.729 -0.9656  0.5730  0.0130
   28MOL0     C 3701   9.174   0.637   9.672  0.3549 -1.0478  0.2033
   28MOL0     C 3702   9.136   0.751   9.753  0.6235  0.0585  0.1410
   28MOL0     C 3703   9.086   0.744   9.885 -0.2395  0.9166 -0.9011
   28MOL0     O 3704   9.069   0.862   9.961  0.2267  0.0323  0.5055
   28MOL0     C 3705   9.086   0.857  10.103  0.1851  0.2495 -0.4592
   28MOL0     C 3706   8.958   0.906  10.160  0.6301  0.5769  0.4422
   28MOL0     C 3707   8.829   0.825  10.139  0.2835 -0.4029  0.1233
   28MOL0     C 3708   8.833   0.688  10.207  0.0420 -0.4032  0.1983
   28MOL0     C 3709   8.697   0.651  10.250 -0.2898 -0.0155 -0.1523
   28MOL0     C 3710   8.592   0.619  10.293 -0.0072 -0.5354 -0.1095
   28MOL0     C 3711   9.073   0.613   9.937 -0.7814  0.5444 -0.0933
   28MOL0     C 3712   9.113   0.498   9.858 -0.8790  0.5405 -0.8973
   28MOL0     H 3713   9.309   0.477   9.267  0.1218 -0.7394 -0.1900
   28MOL0     H 3714   9.397   0.338   9.113 -2.2019  2.4443  0.9003
   28MOL0     H 3715   9.514  -0.084   9.238  0.5658  0.2751 -1.2368
   28MOL0     H 3716   9.344  -0.039   9.219 -1.0335 -0.2437 -1.5059
   28MOL0     H 3717   9.546  -0.121   9.003  0.4727  3.6490 -0.8682
   28MOL0     H 3718   9.399  -0.202   9.064  2.2589 -1.1931 -0.8728
   28MOL0     H 3719   9.327  -0.112   8.864  2.5472  0.2699 -0.8680
   28MOL0     H 3720   9.282   0.022   8.975 -0.2871  0.7930 -2.0900
   28MOL0     H 3721   9.503   0.128   8.916  2.4972  2.1583 -1.9522
   28MOL0     H 3722   9.541  -0.014   8.809  0.3714  0.6328  1.4050
   28MOL0     H 3723   9.302   0.169   8.765  1.8532  0.8284  2.5711
   28MOL0     H 3724   9.443   0.202   8.685 -4.4578  1.9785  0.5044
   28MOL0     H 3725   9.382   0.045   8.512  2.8885 -1.7787  0.8497
   28MOL0     H 3726   9.383  -0.079   8.623 -2.7758 -2.6419 -4.6937
   28MOL0     H 3727   9.150  -0.063   8.560 -0.8263  0.1816  0.4182
   28MOL0     H 3728   9.155   0.014   8.720 -1.7734  2.0600 -0.2158
   28MOL0     H 3729   9.180   0.163   8.455  0.0595  0.4159 -0.4760
   28MOL0     H 3730   9.138   0.223   8.627  2.1617 -2.7296  2.4170
   28MOL0     H 3731   8.876   0.237   8.687  0.6733  0.3325  0.3229
   28MOL0     H 3732   8.587   0.239   8.612 -2.4168  0.0173 -1.8011
   28MOL0     H 3733   8.552   0.079   8.552 -0.4056  0.9247 -0.0286
   28MOL0     H 3734   8.664   0.156   8.817  1.4247 -0.5200 -0.0335
   28MOL0     H 3735   8.678  -0.006   8.759 -3.0287 -2.0770 -0.4931
   28MOL0     H 3736   8.406   0.134   8.759  0.9135 -0.1739 -0.7461
   28MOL0     H 3737   8.475   0.073   8.906 -0.2367 -0.8443  0.2285
   28MOL0     H 3738   8.434  -0.103   8.647  0.2179 -2.8952  0.0055
   28MOL0     H 3739   8.308  -0.076   8.775  0.3448  5.6523  0.9426
   28MOL0     H 3740   8.497  -0.432   8.902  1.4315  2.0137  1.8228
   28MOL0     H 3741   8.539  -0.637   8.930 -3.1790 -3.3962 -0.5646
   28MOL0     H 3742   8.509  -0.714   8.777 -2.0677 -0.4616  2.2187
   28MOL0     H 3743   8.675  -0.718   8.851  0.7563  0.2234  0.4280
   28MOL0     H 3744   9.060  -0.641   8.536  1.8136 -0.3569  0.1230
   28MOL0     H 3745   9.193  -0.828   8.478  0.0505 -1.9652 -0.2952
   28MOL0     H 3746   9.292  -0.997   8.213 -0.4957  3.8862  0.9649
   28MOL0     H 3747   9.299  -0.964   8.383  0.2649 -3.5714  2.5271
   28MOL0     H 3748   9.262  -1.203   8.433  2.1087 -0.8003  0.4582
   28MOL0     H 3749   9.260  -1.239   8.255  1.3832 -1.5839  0.4009
   28MOL0     H 3750   9.487  -1.123   8.428 -1.3124 -1.9919  1.2199
   28MOL0     H 3751   9.510  -1.139   8.258 -1.1815 -0.4148 -1.4833
   28MOL0     H 3752   9.462  -1.369   8.459  0.5976 -0.7394  0.0192
   28MOL0     H 3753   9.445  -1.403   8.289  0.3417 -3.0430  2.7152
   28MOL0     H 3754   9.699  -1.290   8.385  1.9106 -2.1791 -0.1501
   28MOL0     H 3755   9.666  -1.336   8.218  0.0210 -0.2179  0.0204
   28MOL0     H 3756   9.597  -1.535   8.418  0.3674  1.1595  0.2842
   28MOL0     H 3757   9.629  -1.559   8.247 -2.4531  0.0244  0.5040
   28MOL0     H 3758   9.824  -1.648   8.385 -0.4186 -0.1159  3.2069
   28MOL0     H 3759   9.833  -1.506   8.480 -3.2049 -0.1045  1.2831
   28MOL0     H 3760   9.885  -1.381   8.231  0.4954  0.3113  2.3911
   28MOL0     H 3761   9.914  -1.547   8.177 -2.7477 -0.0845 -0.7953
   28MOL0     H 3762   8.887  -0.960   8.203 -0.0242  1.7812 -1.9579
   28MOL0     H 3763   8.748  -0.766   8.262  0.8241 -0.7479 -1.6024
   28MOL0     H 3764   8.751  -0.367   8.481  0.6568 -0.8301  0.3806
   28MOL0     H 3765   8.641  -0.182   8.581  0.5397  0.4953  2.3341
   28MOL0     H 3766   9.495   0.043   9.419 -1.4911 -1.5447  0.6236
   28MOL0     H 3767   9.407   0.187   9.586 -2.8421 -0.0896  1.4856
   28MOL0     H 3768   9.213   0.654   9.572 -0.7773 -0.4524 -0.1501
   28MOL0     H 3769   9.134   0.852   9.715  4.2308  0.8580  1.6690
   28MOL0     H 3770   9.101   0.757  10.142  2.0976  0.0807 -1.5314
   28MOL0     H 3771   9.170   0.921  10.132  1.0346 -1.2476  0.4578
   28MOL0     H 3772   8.943   1.003  10.111 -2.3058 -0.8368 -1.7245
   28MOL0     H 3773   8.972   0.913  10.268  0.0959 -2.1313  0.7627
   28MOL0     H 3774   8.811   0.803  10.034  2.8477  1.6281 -0.8566
   28MOL0     H 3775   8.742   0.879  10.179  0.9755  1.8204 -1.2214
   28MOL0     H 3776   8.906   0.695  10.287  0.3889  0.8243 -0.2052
   28MOL0     H 3777   8.870   0.616  10.134  1.8424  1.8168 -1.2118
   28MOL0     H 3778   8.487   0.606  10.315 -1.3327  2.3171 -3.8439
   28MOL0     H 3779   9.040   0.585  10.037  1.3396 -1.0096  0.2387
   28MOL0     H 3780   9.094   0.398   9.894  0.2384  0.9503  0.9648
   29MOL0     O 3781   4.170   0.178   6.808  0.4502  0.6851  0.2609
   29MOL0     C 3782   4.127   0.111   6.715 -0.0302 -0.3216 -1.3448
   29MOL0     O 3783   4.067   0.161   6.606  0.8986 -0.7881  0.7915
   29MOL0     C 3784   4.033   0.293   6.595 -0.8330  0.2945 -0.8827
   29MOL0     C 3785   3.983   0.332   6.467  0.4111  0.2480  0.1880
   29MOL0     C 3786   3.967   0.459   6.421  0.3646  0.5911 -0.4816
   29MOL0     C 3787   3.987   0.567   6.509 -0.2371 -0.0405  0.7806
   29MOL0     O 3788   3.972   0.697   6.456 -0.0673 -0.3448 -0.6883
   29MOL0     C 3789   3.914   0.807   6.530 -0.0704 -0.0086 -0.8125
   29MOL0     C 3790   3.939   0.942   6.472  0.0821  0.6441 -0.1457
   29MOL0     C 3791   4.084   0.986   6.476  0.1062  1.2420 -0.3657
   29MOL0     C 3792   4.108   1.126   6.422  0.7079  1.1107 -0.0322
   29MOL0     C 3793   4.146   1.117   6.268  0.1080 -0.6424 -0.1301
   29MOL0     C 3794   4.204   1.254   6.230  1.8487 -0.8273  0.6824
   29MOL0     C 3795   4.091   1.368   6.234 -0.4096  0.2396  0.3496
   29MOL0     C 3796   3.966   1.339   6.152  0.2199 -0.0888  0.7283
   29MOL0     N 3797   3.841   1.306   6.225 -0.0371  0.0735 -0.0647
   29MOL0     C 3798   3.800   1.387   6.329  0.2700 -0.1920 -0.5483
   29MOL0     C 3799   3.697   1.318   6.380  0.1792  0.3398 -0.1368
   29MOL0     C 3800   3.620   1.353   6.499  0.4537 -0.4220  0.3866
   29MOL0     C 3801   3.541   1.485   6.470 -0.1593  0.8714 -0.6220
   29MOL0     C 3802   3.393   1.462   6.421 -1.0463  0.9428 -0.6367
   29MOL0     C 3803   3.365   1.361   6.312 -0.3479  0.5657 -0.0332
   29MOL0     O 3804   3.244   1.292   6.351  0.2792 -0.3347 -0.4724
   29MOL0     C 3805   3.202   1.188   6.269 -0.6831  0.2428  0.1081
   29MOL0     C 3806   3.252   1.143   6.147 -0.4096  0.0494 -0.9906
   29MOL0     C 3807   3.201   1.033   6.078 -0.0681  0.5501 -0.1154
   29MOL0     C 3808   3.256   0.992   5.940 -0.6843  0.2120 -0.4111
   29MOL0     C 3809   3.105   0.948   6.145  0.0140 -0.0655  0.0014
   29MOL0     C 3810   3.035   0.834   6.090  1.7179 -0.0621  0.7945
   29MOL0     O 3811   2.979   0.747   6.176  0.2358  0.0359 -0.4734
   29MOL0     C 3812   2.961   0.620   6.137  0.8786 -0.5253  0.4521
   29MOL0     C 3813   2.850   0.565   6.194 -1.3439 -1.3164 -0.0412
   29MOL0     C 3814   2.840   0.431   6.186  0.3603  0.9550 -0.4557
   29MOL0     C 3815   2.923   0.350   6.113  0.3046  0.6983 -0.7230
   29MOL0     O 3816   2.924   0.217   6.135  0.3472  0.3706  0.3852
   29MOL0     C 3817   2.874   0.146   6.021 -1.1021 -0.0897  0.1665
   29MOL0     C 3818   2.828   0.004   6.054 -0.3819  0.7751 -0.3377
   29MOL0     C 3819   2.746   0.022   6.190  0.5332  0.3611 -0.4458
   29MOL0     C 3820   2.666  -0.104   6.198  0.2396  0.1182  0.7383
   29MOL0     C 3821   2.569  -0.115   6.312  0.2750 -0.5034  0.3418
   29MOL0     C 3822   2.465  -0.230   6.314 -0.7032 -0.8284 -0.8129
   29MOL0     C 3823   2.517  -0.369   6.304  0.9137 -0.4170  0.4302
   29MOL0     C 3824   2.412  -0.480   6.325 -0.0055  0.5358 -0.3000
   29MOL0    Cl 3825   2.357  -0.531   6.165  0.7592  0.3801 -0.2639
   29MOL0     C 3826   3.020   0.408   6.040 -0.8022 -0.2070 -0.2883
   29MOL0     C 3827   3.043   0.546   6.054  0.2760 -0.1861 -0.2351
   29MOL0     O 3828   3.032   0.819   5.968  0.9233 -0.3808  0.2278
   29MOL0     C 3829   3.068   0.984   6.272 -0.6650 -0.1415 -0.1326
   29MOL0     C 3830   3.118   1.103   6.333  0.1445 -0.1942 -0.5621
   29MOL0     N 3831   3.683   1.190   6.316  1.2859 -0.4412  0.6006
   29MOL0     N 3832   3.773   1.192   6.230  0.3465 -0.0842 -0.0254
   29MOL0     C 3833   4.024   0.545   6.637 -0.3080  0.9322 -0.1080
   29MOL0     C 3834   4.052   0.412   6.684 -0.8899 -0.4208 -0.1045
   29MOL0     C 3835   4.127  -0.041   6.748  0.3234 -0.4262  0.3938
   29MOL0     C 3836   4.201  -0.104   6.853  0.2070  0.3836 -0.3178
   29MOL0     C 3837   4.198  -0.243   6.871  0.0345 -0.7617  0.9680
   29MOL0     C 3838   4.132  -0.319   6.781 -1.3618  0.1675  0.6775
   29MOL0     O 3839   4.139  -0.452   6.812  0.6375 -0.2196 -0.3030
   29MOL0     C 3840   4.218  -0.531   6.722 -0.1111 -0.4097  0.9328
   29MOL0     C 3841   4.337  -0.469   6.662 -0.0937  0.0432  0.3430
   29MOL0     C 3842   4.443  -0.574   6.615 -0.2535  0.1786  0.2079
   29MOL0     C 3843   4.401  -0.671   6.507  0.0132  0.1705  0.1772
   29MOL0     C 3844   4.350  -0.616   6.382 -0.5051  0.5314 -0.3434
   29MOL0     C 3845   4.329  -0.603   6.267  0.0227 -0.0729  0.2170
   29MOL0     C 3846   4.053  -0.267   6.683  0.6208 -0.3731 -0.1394
   29MOL0     C 3847   4.051  -0.132   6.666  0.4543 -0.6042  0.3071
   29MOL0     H 3848   3.963   0.255   6.393 -1.7757 -0.3435  1.3159
   29MOL0     H 3849   3.938   0.460   6.317  0.0321 -0.2487 -0.4100
   29MOL0     H 3850   3.806   0.791   6.537 -0.2459  1.6725  0.8173
   29MOL0     H 3851   3.953   0.809   6.632  2.0285 -0.7466 -1.5336
   29MOL0     H 3852   3.899   0.932   6.370 -0.8571 -4.0943  0.4364
   29MOL0     H 3853   3.871   1.009   6.525 -5.3766 -1.2333 -3.8699
   29MOL0     H 3854   4.106   0.988   6.583 -0.6773 -0.2488 -0.1483
   29MOL0     H 3855   4.156   0.924   6.423 -0.6357 -0.0153  0.0515
   29MOL0     H 3856   4.020   1.186   6.449  0.8730  0.9636  0.8634
   29MOL0     H 3857   4.188   1.174   6.480 -1.6702  2.0395  2.7325
   29MOL0     H 3858   4.227   1.044   6.264 -0.7966 -1.8418  1.9329
   29MOL0     H 3859   4.059   1.085   6.211 -3.0120 -0.2139  3.9434
   29MOL0     H 3860   4.284   1.289   6.295  1.1083  2.0520  0.1583
   29MOL0     H 3861   4.242   1.253   6.127 -0.6862 -2.2605 -0.3418
   29MOL0     H 3862   4.064   1.377   6.339  0.1524 -2.9345  0.8775
   29MOL0     H 3863   4.135   1.463   6.205  1.2493 -0.8846 -1.0187
   29MOL0     H 3864   3.983   1.266   6.073 -0.1926  1.7461 -1.1455
   29MOL0     H 3865   3.943   1.425   6.088  0.4690 -2.4120 -2.7415
   29MOL0     H 3866   3.845   1.478   6.369  1.0462 -0.5295 -0.6396
   29MOL0     H 3867   3.565   1.262   6.525 -2.4509  0.6517 -1.4210
   29MOL0     H 3868   3.680   1.389   6.583  0.0573  1.4628 -0.0704
   29MOL0     H 3869   3.585   1.554   6.397 -1.6871  3.1184  0.4429
   29MOL0     H 3870   3.542   1.537   6.566  1.1400  0.6761 -0.5101
   29MOL0     H 3871   3.368   1.561   6.382  0.6918  1.4691 -0.5018
   29MOL0     H 3872   3.333   1.436   6.509  1.5564 -0.7809  0.7790
   29MOL0     H 3873   3.436   1.278   6.317 -2.6307 -1.3923  1.7267
   29MOL0     H 3874   3.370   1.402   6.210  1.3222 -0.1264 -0.2692
   29MOL0     H 3875   3.326   1.204   6.096 -0.5277  0.1404 -1.0566
   29MOL0     H 3876   3.175   0.984   5.866 -2.0244 -0.2791  1.0421
   29MOL0     H 3877   3.341   1.046   5.899  2.2683 -1.3969  3.0863
   29MOL0     H 3878   3.291   0.889   5.949 -3.5688 -0.6859  3.8226
   29MOL0     H 3879   2.780   0.610   6.263  1.1457  3.4646 -0.1753
   29MOL0     H 3880   2.766   0.371   6.239 -0.1731  0.3355 -1.8555
   29MOL0     H 3881   2.789   0.202   5.980 -0.7682  0.6830  0.5228
   29MOL0     H 3882   2.945   0.158   5.939 -0.7072 -2.1124  0.1449
   29MOL0     H 3883   2.771  -0.025   5.965  0.3570  4.3940 -2.1759
   29MOL0     H 3884   2.913  -0.060   6.080  0.3768  1.5249 -0.9174
   29MOL0     H 3885   2.677   0.107   6.187 -2.0783 -1.6490 -1.3950
   29MOL0     H 3886   2.813   0.030   6.276  1.4971 -0.0785 -1.1415
   29MOL0     H 3887   2.611  -0.129   6.107  0.7761  0.0453  0.4278
   29MOL0     H 3888   2.743  -0.182   6.202  0.8197  0.7308  2.9508
   29MOL0     H 3889   2.527  -0.015   6.329  0.0849 -0.3307 -1.0284
   29MOL0     H 3890   2.624  -0.134   6.405  0.7491  1.6200  0.5415
   29MOL0     H 3891   2.410  -0.235   6.408  1.0174 -1.6963  0.1914
   29MOL0     H 3892   2.387  -0.213   6.238 -1.0348  1.1512 -0.0799
   29MOL0     H 3893   2.588  -0.384   6.386  0.6521 -1.9547  0.3970
   29MOL0     H 3894   2.558  -0.403   6.208  0.3107 -0.6454  0.2540
   29MOL0     H 3895   2.328  -0.443   6.385 -2.4725 -2.8716 -1.3398
   29MOL0     H 3896   2.472  -0.558   6.374  0.1130  0.9660  0.2502
   29MOL0     H 3897   3.093   0.347   5.989 -1.2380 -3.2810  2.4013
   29MOL0     H 3898   3.118   0.600   5.997 -0.4860  1.7128  0.4700
   29MOL0     H 3899   2.994   0.932   6.332 -0.3247 -1.1036 -0.5240
   29MOL0     H 3900   3.098   1.124   6.438 -1.3535  2.9790 -1.3705
   29MOL0     H 3901   4.053   0.631   6.696 -0.4559  0.1872  1.0807
   29MOL0     H 3902   4.086   0.406   6.787  0.7910  0.2387 -0.6041
   29MOL0     H 3903   4.251  -0.055   6.936 -1.5459 -2.1030  2.4434
   29MOL0     H 3904   4.249  -0.295   6.952 -0.1055 -1.0939  0.8471
   29MOL0     H 3905   4.241  -0.624   6.774 -1.7056 -1.8076 -0.7036
   29MOL0     H 3906   4.159  -0.564   6.635 -2.5558 -2.5669  3.2325
   29MOL0     H 3907   4.379  -0.405   6.741 -0.4447  0.7687 -0.0436
   29MOL0     H 3908   4.310  -0.406   6.576 -2.3887 -3.4496 -1.7301
   29MOL0     H 3909   4.482  -0.630   6.701  1.1580 -1.4901 -1.4196
   29MOL0     H 3910   4.526  -0.513   6.578  0.4514 -0.0915  1.2834
   29MOL0     H 3911   4.322  -0.739   6.540  1.6799 -1.6871  0.5374
   29MOL0     H 3912   4.483  -0.740   6.484  2.1154  2.3336  0.7991
   29MOL0     H 3913   4.312  -0.593   6.162 -0.4156 -0.6741  0.2290
   29MOL0     H 3914   3.999  -0.345   6.630 -0.3887 -0.1664  0.5507
   29MOL0     H 3915   3.986  -0.094   6.588  1.3502  1.0408  0.3098
   30MOL0     O 3916   2.851   3.731  10.829 -0.1391 -0.9259 -0.2329
   30MOL0     C 3917   2.774   3.804  10.774 -0.1514 -0.2536  0.9989
   30MOL0     O 3918   2.636   3.781  10.775 -0.3263  0.9414  0.3916
   30MOL0     C 3919   2.581   3.686  10.855 -0.4741  0.3894  0.1340
   30MOL0     C 3920   2.557   3.739  10.979 -0.5757 -0.1772 -0.8585
   30MOL0     C 3921   2.509   3.659  11.081 -0.8469 -0.8115 -0.1174
   30MOL0     C 3922   2.469   3.527  11.049  0.7325 -0.2212  0.4821
   30MOL0     O 3923   2.421   3.451  11.151 -0.2538 -0.9366 -0.1611
   30MOL0     C 3924   2.508   3.355  11.182 -0.4945  0.5058 -0.3896
   30MOL0     C 3925   2.480   3.296  11.319 -0.0637 -1.1269 -0.0641
   30MOL0     C 3926   2.335   3.234  11.335  0.7925  0.9729 -0.0266
   30MOL0     C 3927   2.309   3.125  11.227 -0.5098  0.8218  0.8992
   30MOL0     C 3928   2.172   3.060  11.239 -0.2776 -0.0993 -0.0850
   30MOL0     C 3929   2.111   3.007  11.102 -0.0450  0.0340  0.2496
   30MOL0     C 3930   1.971   2.953  11.125  0.4195 -0.0074 -0.2455
   30MOL0     C 3931   1.964   2.801  11.163 -0.2178  0.6908 -0.0230
   30MOL0     N 3932   1.835   2.737  11.143  1.1686  0.3139 -0.4650
   30MOL0     C 3933   1.761   2.736  11.026  0.5855  0.3425 -0.1939
   30MOL0     C 3934   1.648   2.660  11.056  0.1136 -0.0693  0.6995
   30MOL0     C 3935   1.560   2.610  10.952 -0.7724  0.1070  0.4843
   30MOL0     C 3936   1.539   2.693  10.846 -0.9851 -1.1866  0.2465
   30MOL0     C 3937   1.445   2.639  10.741 -0.4063  0.2968 -0.6985
   30MOL0     C 3938   1.305   2.650  10.788  0.4894  0.8949  0.1040
   30MOL0     O 3939   1.277   2.788  10.782  0.0454  0.5888 -0.0238
   30MOL0     C 3940   1.171   2.826  10.861  0.6903 -0.0574  0.5257
   30MOL0     C 3941   1.050   2.754  10.866 -0.4149  0.3550 -0.3034
   30MOL0     C 3942   0.929   2.783  10.934  0.1306 -0.1683  1.2022
   30MOL0     C 3943   0.801   2.703  10.907  0.6529 -1.2480  0.1083
   30MOL0     C 3944   0.934   2.905  11.006 -0.0255 -0.6978 -0.2917
   30MOL0     C 3945   0.816   2.960  11.085  1.1678 -0.3296  0.0359
   30MOL0     O 3946   0.801   3.099  11.090  0.2320  0.6535  0.5998
   30MOL0     C 3947   0.675   3.139  11.125  0.1950  0.4856 -0.3190
   30MOL0     C 3948   0.566   3.151  11.043 -0.6593  0.1679  0.5541
   30MOL0     C 3949   0.431   3.187  11.091 -0.2508  1.3467  0.9951
   30MOL0     C 3950   0.409   3.206  11.226  0.7444 -0.2389  1.0347
   30MOL0     O 3951   0.290   3.243  11.282 -0.4144  0.6661 -0.4921
   30MOL0     C 3952   0.204   3.330  11.200  0.5415  1.6140  0.0581
   30MOL0     C 3953   0.067   3.336  11.278 -0.1900 -0.2067  1.1157
   30MOL0     C 3954   0.076   3.368  11.420 -0.4691  1.0247  0.8531
   30MOL0     C 3955  -0.057   3.416  11.477 -0.0640 -0.3671 -0.4867
   30MOL0     C 3956  -0.034   3.505  11.600  0.9642 -0.8077  0.1260
   30MOL0     C 3957  -0.151   3.587  11.663  0.3429  1.0692  1.2137
   30MOL0     C 3958  -0.105   3.681  11.779  0.2619 -0.2443  0.2171
   30MOL0     C 3959  -0.224   3.765  11.831  0.0589 -0.9863  0.2104
   30MOL0    Cl 3960  -0.202   3.814  12.004  0.0050  0.3531 -0.6495
   30MOL0     C 3961   0.519   3.190  11.309  0.3143 -0.3544  0.0294
   30MOL0     C 3962   0.646   3.160  11.260 -0.1706  0.4498  0.4965
   30MOL0     O 3963   0.734   2.883  11.125  0.4398  0.6453  0.3223
   30MOL0     C 3964   1.060   2.978  11.006  0.3963  0.0258  1.0555
   30MOL0     C 3965   1.170   2.936  10.940 -0.9722 -0.7683  0.7000
   30MOL0     N 3966   1.655   2.631  11.194  0.0763 -1.0078 -0.8411
   30MOL0     N 3967   1.764   2.682  11.241  0.1888 -0.2088 -0.4103
   30MOL0     C 3968   2.472   3.479  10.911  0.1534  0.1701  0.5840
   30MOL0     C 3969   2.545   3.557  10.815  0.5406 -0.5125 -0.3306
   30MOL0     C 3970   2.825   3.895  10.674  0.2675 -0.7337 -0.2782
   30MOL0     C 3971   2.745   3.991  10.613 -0.0421  0.9697 -0.2334
   30MOL0     C 3972   2.799   4.088  10.531  0.8683  0.4351 -0.0984
   30MOL0     C 3973   2.931   4.080  10.495 -0.1331 -0.0679  0.5756
   30MOL0     O 3974   2.966   4.173  10.401 -0.2690 -0.1023 -0.9801
   30MOL0     C 3975   3.103   4.170  10.358  0.4530  0.1919  0.2966
   30MOL0     C 3976   3.199   4.260  10.432 -0.6267 -0.3517 -0.9098
   30MOL0     C 3977   3.162   4.408  10.405  0.5067 -0.4284  0.3615
   30MOL0     C 3978   3.259   4.506  10.475  0.2608  0.0543 -0.1673
   30MOL0     C 3979   3.239   4.493  10.613 -0.3431  0.0167 -0.0852
   30MOL0     C 3980   3.236   4.471  10.729  0.7809  0.2910  0.9071
   30MOL0     C 3981   3.017   3.997  10.567  0.5276 -0.2187 -0.1020
   30MOL0     C 3982   2.961   3.901  10.657 -0.4793 -0.3312  0.3162
   30MOL0     H 3983   2.575   3.840  11.014  3.1004 -1.9156  3.3335
   30MOL0     H 3984   2.512   3.684  11.187 -1.6859 -2.1092  0.2335
   30MOL0     H 3985   2.510   3.283  11.100  0.6199  1.2053 -1.0089
   30MOL0     H 3986   2.608   3.397  11.197 -0.4661 -0.1019  1.3558
   30MOL0     H 3987   2.543   3.207  11.331 -1.0656 -1.8163  0.2616
   30MOL0     H 3988   2.506   3.368  11.397  2.0460 -1.3434 -0.5141
   30MOL0     H 3989   2.329   3.185  11.432 -1.7477 -0.9274 -1.0372
   30MOL0     H 3990   2.258   3.312  11.330 -0.3787 -0.0866  1.0775
   30MOL0     H 3991   2.319   3.167  11.126  1.0345 -1.0186  0.2207
   30MOL0     H 3992   2.383   3.045  11.240 -0.9157  0.3173  0.1655
   30MOL0     H 3993   2.173   2.985  11.319  0.2792  2.2890  2.2909
   30MOL0     H 3994   2.106   3.139  11.275 -0.3047 -0.9924  1.9383
   30MOL0     H 3995   2.102   3.097  11.042 -0.5145 -0.1705  0.0115
   30MOL0     H 3996   2.177   2.928  11.063 -0.0119  0.2801 -0.1963
   30MOL0     H 3997   1.924   3.002  11.211  2.4401  1.0647  0.3094
   30MOL0     H 3998   1.926   2.979  11.030  1.5790 -0.4983 -0.9497
   30MOL0     H 3999   1.998   2.784  11.266  0.3854  0.8770 -0.1877
   30MOL0     H 4000   2.034   2.748  11.098  0.8121 -1.4397  2.6069
   30MOL0     H 4001   1.790   2.775  10.929 -2.1091 -0.7981 -1.5769
   30MOL0     H 4002   1.606   2.522  10.907  0.0369 -0.1826  1.8217
   30MOL0     H 4003   1.471   2.576  11.006  0.4060  2.3458  4.1377
   30MOL0     H 4004   1.636   2.713  10.799  0.0230 -3.1147  1.3927
   30MOL0     H 4005   1.498   2.787  10.885  1.2902 -0.2480  0.5519
   30MOL0     H 4006   1.480   2.536  10.728  2.3820  0.9084  1.0570
   30MOL0     H 4007   1.460   2.701  10.652 -0.7822  1.6487  0.1498
   30MOL0     H 4008   1.294   2.600  10.885  0.7524  1.2080  0.2995
   30MOL0     H 4009   1.245   2.591  10.718 -0.0986  1.3211  0.2380
   30MOL0     H 4010   1.059   2.661  10.811 -0.7885  0.2142 -0.1357
   30MOL0     H 4011   0.811   2.613  10.845  3.0370 -1.2326  0.3999
   30MOL0     H 4012   0.768   2.668  11.005  0.2385 -0.5313  0.2310
   30MOL0     H 4013   0.720   2.763  10.863  0.3645 -0.8831  1.0996
   30MOL0     H 4014   0.582   3.135  10.937 -0.2695 -0.0215  0.6411
   30MOL0     H 4015   0.356   3.190  11.012  0.1988  0.4744  0.5181
   30MOL0     H 4016   0.254   3.427  11.192  0.8234  1.3245 -2.8726
   30MOL0     H 4017   0.186   3.293  11.099  0.3495  0.1724  0.5979
   30MOL0     H 4018   0.006   3.412  11.228 -0.1328 -1.3724 -0.8619
   30MOL0     H 4019   0.020   3.242  11.247 -0.9493  0.8695 -1.2846
   30MOL0     H 4020   0.158   3.438  11.437 -0.1446  0.4157  1.9469
   30MOL0     H 4021   0.105   3.276  11.472  0.9821  0.5302 -0.7345
   30MOL0     H 4022  -0.089   3.495  11.408 -1.5140  0.7060  1.3215
   30MOL0     H 4023  -0.133   3.340  11.497 -0.1521  0.3770  2.3631
   30MOL0     H 4024   0.049   3.574  11.582  0.2792  0.1748  0.6769
   30MOL0     H 4025   0.001   3.440  11.681  1.0751 -1.1825 -0.2191
   30MOL0     H 4026  -0.209   3.639  11.586  0.5356 -1.9760 -1.1883
   30MOL0     H 4027  -0.218   3.507  11.697  1.2542 -0.3929 -0.3029
   30MOL0     H 4028  -0.022   3.746  11.749  1.7731 -1.2188  2.0211
   30MOL0     H 4029  -0.055   3.619  11.855  0.2079 -1.1471 -0.4653
   30MOL0     H 4030  -0.316   3.705  11.828 -0.8502  0.1230  2.8240
   30MOL0     H 4031  -0.229   3.857  11.772  1.5941 -1.1062 -0.1420
   30MOL0     H 4032   0.505   3.208  11.415 -1.9543  0.6589 -0.3642
   30MOL0     H 4033   0.715   3.138  11.341 -1.3339  0.0740  1.4155
   30MOL0     H 4034   1.052   3.076  11.052  0.9357 -0.7481  2.9143
   30MOL0     H 4035   1.239   3.018  10.921 -2.7463  1.3486  2.7362
   30MOL0     H 4036   2.435   3.381  10.882  1.6420  0.1935 -1.5786
   30MOL0     H 4037   2.581   3.526  10.718 -2.9015 -0.3612 -1.8005
   30MOL0     H 4038   2.641   4.008  10.640  0.2724  2.3825  0.1372
   30MOL0     H 4039   2.735   4.171  10.504 -1.5854 -1.1650  0.4114
   30MOL0     H 4040   3.128   4.063  10.357 -3.0538 -0.7418 -1.2223
   30MOL0     H 4041   3.104   4.193  10.251 -5.6179 -1.4664 -0.4572
   30MOL0     H 4042   3.302   4.237  10.403 -1.0900 -3.6687 -0.3609
   30MOL0     H 4043   3.202   4.229  10.537 -0.3832  2.3996 -0.0225
   30MOL0     H 4044   3.055   4.424  10.419  0.0352 -0.7882 -2.2391
   30MOL0     H 4045   3.176   4.442  10.302  0.7386  1.7428  1.0735
   30MOL0     H 4046   3.221   4.600  10.435 -0.7592 -0.6345 -0.8363
   30MOL0     H 4047   3.363   4.498  10.440 -0.0339  3.6105 -2.2875
   30MOL0     H 4048   3.209   4.458  10.832 -0.6648  2.8906  0.9409
   30MOL0     H 4049   3.125   4.011  10.556  0.8937 -3.1253 -0.9543
   30MOL0     H 4050   3.032   3.846  10.718 -0.1739  1.6571  1.8611
   31MOL0     O 4051   8.484   4.068   5.163 -0.3606 -0.2923 -0.7708
   31MOL0     C 4052   8.552   4.143   5.090 -0.0392  0.1914  0.1259
   31MOL0     O 4053   8.506   4.264   5.029  0.2604 -0.7321 -0.2740
   31MOL0     C 4054   8.398   4.339   5.072 -0.2851 -0.7032 -0.3157
   31MOL0     C 4055   8.370   4.456   4.995 -0.5037  0.3037 -0.0933
   31MOL0     C 4056   8.262   4.531   5.023  0.4321 -0.5408 -1.1557
   31MOL0     C 4057   8.190   4.512   5.143  0.6001  0.6046 -0.1182
   31MOL0     O 4058   8.077   4.581   5.189 -1.2714  0.3098 -0.8330
   31MOL0     C 4059   7.970   4.608   5.099 -0.6636  0.4277 -0.0796
   31MOL0     C 4060   7.861   4.673   5.190  0.3923  0.5276 -0.8314
   31MOL0     C 4061   7.771   4.562   5.264  0.2739 -0.3764 -0.3601
   31MOL0     C 4062   7.633   4.612   5.319  0.1162 -0.1252  0.0674
   31MOL0     C 4063   7.592   4.558   5.460 -0.6832  0.8022  0.1159
   31MOL0     C 4064   7.464   4.622   5.506  0.0103  0.8319  0.4707
   31MOL0     C 4065   7.437   4.607   5.660  0.6782 -0.2554 -0.7654
   31MOL0     C 4066   7.390   4.458   5.695  0.5044  0.6488 -1.2439
   31MOL0     N 4067   7.350   4.447   5.836 -1.0660  0.5595  0.1442
   31MOL0     C 4068   7.394   4.535   5.933  0.1566 -0.5867 -0.9476
   31MOL0     C 4069   7.336   4.483   6.043 -0.0278 -0.1965  0.4717
   31MOL0     C 4070   7.324   4.551   6.169 -0.1056 -0.2427  0.4322
   31MOL0     C 4071   7.179   4.526   6.238  0.1589  0.7595 -0.3333
   31MOL0     C 4072   7.173   4.596   6.368  1.0977 -0.8862  0.5707
   31MOL0     C 4073   7.036   4.563   6.423  0.3295 -0.5805 -0.2858
   31MOL0     O 4074   6.937   4.628   6.350  0.5689  0.1239  0.1124
   31MOL0     C 4075   6.887   4.748   6.405 -0.8034 -0.2047 -0.4058
   31MOL0     C 4076   6.760   4.740   6.462  0.3303  0.0014 -0.7969
   31MOL0     C 4077   6.700   4.854   6.518 -0.4413 -0.2061  1.2018
   31MOL0     C 4078   6.563   4.850   6.570  0.4560  0.1124  0.1254
   31MOL0     C 4079   6.775   4.975   6.533 -0.2583 -0.8333 -0.3787
   31MOL0     C 4080   6.720   5.104   6.591  0.5877  0.5560  0.4798
   31MOL0     O 4081   6.725   5.215   6.512  0.5070 -0.9682 -0.1469
   31MOL0     C 4082   6.620   5.307   6.540 -0.2474  0.4344 -0.0145
   31MOL0     C 4083   6.525   5.330   6.433  0.3974 -0.0271  0.8144
   31MOL0     C 4084   6.431   5.431   6.463  0.0798 -0.2205  0.9992
   31MOL0     C 4085   6.426   5.490   6.593  0.7766 -0.6710  1.0424
   31MOL0     O 4086   6.335   5.593   6.633 -0.2608 -0.0404  0.3232
   31MOL0     C 4087   6.232   5.618   6.539  0.5412  0.3583  0.2408
   31MOL0     C 4088   6.153   5.741   6.579  1.2943 -0.4060 -0.3770
   31MOL0     C 4089   6.076   5.803   6.462  0.1404  0.5327  0.4488
   31MOL0     C 4090   5.972   5.898   6.521  0.0390 -0.1952  0.8393
   31MOL0     C 4091   5.859   5.927   6.431  0.3812  0.0254 -0.8835
   31MOL0     C 4092   5.756   5.996   6.523  0.0614 -0.2294 -0.2456
   31MOL0     C 4093   5.618   6.026   6.461 -0.7978 -0.3580  0.5507
   31MOL0     C 4094   5.558   5.893   6.425 -0.6756  0.1706 -0.8740
   31MOL0    Cl 4095   5.373   5.888   6.469  0.2960  0.0934 -0.3722
   31MOL0     C 4096   6.512   5.465   6.685 -0.7336  0.1262 -0.0655
   31MOL0     C 4097   6.610   5.370   6.664 -0.7554 -0.9815  0.1077
   31MOL0     O 4098   6.678   5.104   6.708 -0.1869  0.3483 -0.7556
   31MOL0     C 4099   6.903   4.982   6.478 -0.2998 -0.0114 -0.9619
   31MOL0     C 4100   6.953   4.869   6.416 -0.4087 -0.3753  0.1531
   31MOL0     N 4101   7.270   4.365   6.016 -0.2363  0.3390  0.2560
   31MOL0     N 4102   7.284   4.339   5.889 -0.3097  0.5181 -0.3864
   31MOL0     C 4103   8.212   4.399   5.214  0.1130  0.2907 -0.4438
   31MOL0     C 4104   8.315   4.306   5.186  0.1904  0.5229  0.6440
   31MOL0     C 4105   8.684   4.081   5.058  0.4775  0.2742  0.0590
   31MOL0     C 4106   8.736   4.111   4.931  0.5634  0.1897  0.2744
   31MOL0     C 4107   8.859   4.056   4.896  0.9562  0.2556  0.6543
   31MOL0     C 4108   8.931   3.978   4.990 -0.4412 -0.2449  1.1277
   31MOL0     O 4109   9.057   3.929   4.962 -0.1205 -0.0212  0.4085
   31MOL0     C 4110   9.164   4.031   4.950  1.5563  0.2022 -1.0348
   31MOL0     C 4111   9.284   3.989   5.042 -0.1815  0.5832 -0.7941
   31MOL0     C 4112   9.242   3.947   5.184  0.7885 -0.9192  0.6939
   31MOL0     C 4113   9.366   3.923   5.266 -0.8547 -1.6691  0.1949
   31MOL0     C 4114   9.335   3.884   5.405  0.3351 -0.2043 -0.3731
   31MOL0     C 4115   9.302   3.844   5.517  0.5438 -0.2197 -0.1307
   31MOL0     C 4116   8.872   3.941   5.104 -0.6514 -0.0106 -0.7663
   31MOL0     C 4117   8.745   3.988   5.142 -0.9497  0.9690 -0.1772
   31MOL0     H 4118   8.434   4.490   4.914 -1.8862  0.1289 -1.3123
   31MOL0     H 4119   8.234   4.608   4.951 -0.6745 -0.2443 -0.4172
   31MOL0     H 4120   8.007   4.658   5.008 -0.4703  1.1233  0.3710
   31MOL0     H 4121   7.922   4.516   5.065 -0.5110 -0.4226  1.8876
   31MOL0     H 4122   7.902   4.733   5.271  0.2876 -2.8194  1.9076
   31MOL0     H 4123   7.797   4.733   5.124 -1.8001 -0.6579  0.1273
   31MOL0     H 4124   7.744   4.491   5.185 -1.6960 -0.3814  0.2609
   31MOL0     H 4125   7.822   4.503   5.341  1.1360 -1.9966 -2.0709
   31MOL0     H 4126   7.643   4.721   5.320  1.2047 -0.2177  0.0259
   31MOL0     H 4127   7.551   4.588   5.251  2.0369 -0.3383 -2.3263
   31MOL0     H 4128   7.590   4.449   5.451 -2.4108  0.8836 -0.8296
   31MOL0     H 4129   7.671   4.586   5.530 -3.0118  1.8709  2.5015
   31MOL0     H 4130   7.468   4.726   5.473  0.0848  0.6096 -0.2387
   31MOL0     H 4131   7.391   4.578   5.438  1.4356 -0.1998 -0.4625
   31MOL0     H 4132   7.533   4.631   5.706  1.3180 -1.0949 -1.6225
   31MOL0     H 4133   7.360   4.673   5.700 -0.3814 -2.8322  1.8790
   31MOL0     H 4134   7.469   4.385   5.676  0.3775 -0.5799  2.3670
   31MOL0     H 4135   7.301   4.420   5.644  0.4589 -0.6604 -0.2089
   31MOL0     H 4136   7.448   4.629   5.936  0.9535 -0.8490  5.0441
   31MOL0     H 4137   7.399   4.514   6.240  0.8173  0.1567 -0.3232
   31MOL0     H 4138   7.327   4.659   6.155 -1.5802 -0.5749 -4.1502
   31MOL0     H 4139   7.168   4.420   6.261 -2.3146  0.5380 -2.1663
   31MOL0     H 4140   7.105   4.554   6.162 -1.7464  0.6714  1.4101
   31MOL0     H 4141   7.184   4.704   6.352  1.6556 -1.1856 -1.4175
   31MOL0     H 4142   7.239   4.567   6.450 -0.4175 -0.8408  1.8598
   31MOL0     H 4143   7.027   4.580   6.531  2.3662  1.4589 -0.3573
   31MOL0     H 4144   7.022   4.457   6.402  1.1028 -0.2222 -2.9464
   31MOL0     H 4145   6.697   4.652   6.452  0.1415 -0.0034  0.2625
   31MOL0     H 4146   6.500   4.771   6.528  0.2962  0.6112 -0.6028
   31MOL0     H 4147   6.555   4.843   6.679  1.6190  3.0732  0.4816
   31MOL0     H 4148   6.512   4.944   6.551  1.1005  0.4527  0.0355
   31MOL0     H 4149   6.526   5.293   6.331  1.0181 -3.2397  1.8565
   31MOL0     H 4150   6.365   5.467   6.386  2.7526  0.2601 -1.2011
   31MOL0     H 4151   6.268   5.627   6.436 -2.1080  3.4396 -0.5906
   31MOL0     H 4152   6.158   5.537   6.535  0.0416  0.7388  1.4316
   31MOL0     H 4153   6.090   5.713   6.664  1.1285 -0.7605 -0.6126
   31MOL0     H 4154   6.223   5.817   6.613  2.0935 -0.7821 -1.1383
   31MOL0     H 4155   6.029   5.729   6.396  3.0892  2.2228 -4.0708
   31MOL0     H 4156   6.143   5.851   6.390 -1.1804 -2.8283 -3.4522
   31MOL0     H 4157   5.937   5.856   6.616 -4.8338  1.8277  0.2290
   31MOL0     H 4158   6.030   5.991   6.527  2.7322 -1.4451 -2.2225
   31MOL0     H 4159   5.818   5.836   6.387  0.1330  0.0130 -0.6347
   31MOL0     H 4160   5.895   5.988   6.348  2.0795 -2.6601 -2.2800
   31MOL0     H 4161   5.734   5.935   6.610 -2.8772  3.4095  1.8705
   31MOL0     H 4162   5.785   6.094   6.561 -2.4278 -0.2276  1.8812
   31MOL0     H 4163   5.624   6.076   6.364 -0.7002 -0.2267  0.6260
   31MOL0     H 4164   5.561   6.078   6.538 -1.9372 -1.2324  0.3301
   31MOL0     H 4165   5.614   5.817   6.481  1.2445  2.5648  0.6334
   31MOL0     H 4166   5.579   5.879   6.319 -0.7020 -3.5186 -0.5311
   31MOL0     H 4167   6.520   5.511   6.783  1.2460  0.7919 -0.4999
   31MOL0     H 4168   6.679   5.344   6.743 -0.2049  3.0158  1.1776
   31MOL0     H 4169   6.969   5.068   6.481 -0.6016  0.2663 -1.9352
   31MOL0     H 4170   7.057   4.874   6.384 -0.6342  0.7732 -0.4496
   31MOL0     H 4171   8.147   4.373   5.296  0.8497  1.7127  0.6387
   31MOL0     H 4172   8.340   4.212   5.234  1.6972 -1.0832 -2.9069
   31MOL0     H 4173   8.681   4.161   4.852 -2.0855 -0.2047  1.7285
   31MOL0     H 4174   8.902   4.073   4.798  1.1088 -1.7873  0.3174
   31MOL0     H 4175   9.192   4.046   4.846  0.6906 -4.9640 -2.2756
   31MOL0     H 4176   9.127   4.128   4.983  0.3986  0.4965 -3.0443
   31MOL0     H 4177   9.351   4.075   5.052 -0.2411  0.3747  2.4240
   31MOL0     H 4178   9.355   3.915   5.003  2.7453  3.6855 -1.8815
   31MOL0     H 4179   9.178   3.859   5.169 -0.3255  0.0604 -0.4837
   31MOL0     H 4180   9.184   4.029   5.227 -0.3221 -1.5192  0.3891
   31MOL0     H 4181   9.417   4.020   5.271 -0.7268 -1.6463 -1.2952
   31MOL0     H 4182   9.429   3.850   5.215  0.4448 -1.0916  0.9120
   31MOL0     H 4183   9.265   3.813   5.613  2.4652 -2.1503  0.0740
   31MOL0     H 4184   8.921   3.885   5.183  0.3920  2.1903  0.1995
   31MOL0     H 4185   8.694   3.948   5.228  2.3882 -0.6156  1.2314
   32MOL0     O 4186   7.220   3.654   7.406 -0.1877 -0.3051  0.1108
   32MOL0     C 4187   7.121   3.593   7.356 -0.4872 -0.6897  0.2036
   32MOL0     O 4188   6.992   3.604   7.402  0.3523 -0.3177  0.3777
   32MOL0     C 4189   6.958   3.715   7.482 -0.4323  0.4433  0.2506
   32MOL0     C 4190   6.996   3.850   7.449 -2.0152  0.3427 -0.3509
   32MOL0     C 4191   6.965   3.949   7.541 -0.0603 -0.5707 -0.4347
   32MOL0     C 4192   6.871   3.940   7.639  0.2781  0.1338 -0.5986
   32MOL0     O 4193   6.818   4.057   7.700 -0.2684  1.0389 -0.5182
   32MOL0     C 4194   6.718   4.050   7.797 -0.2448  0.0015 -0.1061
   32MOL0     C 4195   6.704   4.188   7.858 -0.2624  1.2780 -1.3918
   32MOL0     C 4196   6.808   4.205   7.973  0.4249  0.1626 -0.6955
   32MOL0     C 4197   6.749   4.271   8.101 -0.3534 -0.5460 -0.2406
   32MOL0     C 4198   6.856   4.306   8.209 -0.3996  0.6494 -0.8436
   32MOL0     C 4199   6.788   4.360   8.335 -0.3973 -0.3437 -0.2931
   32MOL0     C 4200   6.880   4.401   8.453 -0.2114 -0.5376 -1.1445
   32MOL0     C 4201   6.819   4.531   8.523 -0.4848  0.2319  0.5114
   32MOL0     N 4202   6.920   4.605   8.599  0.0232  0.0457  0.0007
   32MOL0     C 4203   7.039   4.651   8.545  0.1777 -0.4135 -0.0561
   32MOL0     C 4204   7.112   4.717   8.635  0.0380 -0.8039 -0.4694
   32MOL0     C 4205   7.241   4.792   8.620  0.2010 -0.6956  0.8345
   32MOL0     C 4206   7.211   4.946   8.580 -0.8361  0.4208  0.1235
   32MOL0     C 4207   7.153   5.041   8.684 -0.3380 -0.4419  0.2505
   32MOL0     C 4208   7.262   5.122   8.755  0.4531  0.6071  0.5415
   32MOL0     O 4209   7.305   5.221   8.668 -0.2590  0.0796 -1.1715
   32MOL0     C 4210   7.424   5.278   8.688  0.2546 -0.2941  0.7749
   32MOL0     C 4211   7.448   5.366   8.794 -0.0150 -0.2144 -0.0923
   32MOL0     C 4212   7.563   5.439   8.825  1.0844 -0.3067  0.2789
   32MOL0     C 4213   7.561   5.527   8.943 -0.2558  0.1776 -1.1818
   32MOL0     C 4214   7.668   5.423   8.733  0.0143  0.2038  0.1694
   32MOL0     C 4215   7.802   5.486   8.745 -0.3618  0.0148 -0.5861
   32MOL0     O 4216   7.830   5.575   8.841  0.1065 -1.9045 -0.4235
   32MOL0     C 4217   7.948   5.636   8.876 -0.5185 -0.1428 -0.5470
   32MOL0     C 4218   8.077   5.632   8.810  0.1833 -0.4066 -0.0364
   32MOL0     C 4219   8.192   5.690   8.864  1.0118  0.2501  0.0035
   32MOL0     C 4220   8.184   5.754   8.991  0.8195  0.4065  0.1497
   32MOL0     O 4221   8.295   5.821   9.033  1.2462  0.5777  0.2244
   32MOL0     C 4222   8.322   5.823   9.171  0.2011  0.1761  0.0472
   32MOL0     C 4223   8.455   5.892   9.186  0.5158  0.3020 -0.2653
   32MOL0     C 4224   8.472   6.038   9.144  0.3101 -0.1485  0.4831
   32MOL0     C 4225   8.605   6.095   9.196  0.6445 -0.3408  0.0651
   32MOL0     C 4226   8.607   6.132   9.345  0.2447 -0.0229  0.2310
   32MOL0     C 4227   8.481   6.179   9.411  0.8845 -0.0182 -0.6489
   32MOL0     C 4228   8.516   6.256   9.547  0.0626 -0.7062  0.7235
   32MOL0     C 4229   8.582   6.393   9.522  0.3564 -0.2867  0.0906
   32MOL0    Cl 4230   8.503   6.490   9.403  0.4354  0.3431  0.4574
   32MOL0     C 4231   8.068   5.747   9.060 -1.1142 -0.5930  0.0086
   32MOL0     C 4232   7.953   5.702   9.001  0.8523 -0.8500  0.0275
   32MOL0     O 4233   7.886   5.442   8.666  1.0138  0.5942 -0.2070
   32MOL0     C 4234   7.657   5.319   8.634  0.2949 -0.2386 -0.3108
   32MOL0     C 4235   7.534   5.258   8.608  0.3890 -0.0479  0.0652
   32MOL0     N 4236   7.029   4.706   8.751  0.1553 -0.3536 -0.4542
   32MOL0     N 4237   6.923   4.633   8.731  0.5018 -0.0858  0.0408
   32MOL0     C 4238   6.830   3.804   7.670 -0.4956  0.3899  0.6223
   32MOL0     C 4239   6.886   3.697   7.601 -0.1437 -0.5709 -0.0767
   32MOL0     C 4240   7.155   3.495   7.247 -0.3139  0.3979 -0.6903
   32MOL0     C 4241   7.291   3.472   7.207 -0.1340  0.8034  0.2115
   32MOL0     C 4242   7.317   3.376   7.112  0.1788  0.0360 -0.2755
   32MOL0     C 4243   7.211   3.301   7.050 -0.7624 -0.1512 -0.3050
   32MOL0     O 4244   7.237   3.221   6.943  0.3454  0.3353  0.2254
   32MOL0     C 4245   7.202   3.284   6.820  0.3861 -1.3299  1.5939
   32MOL0     C 4246   7.296   3.247   6.704  0.2287 -0.5462 -0.4472
   32MOL0     C 4247   7.436   3.299   6.727 -0.4317  0.0429 -0.0001
   32MOL0     C 4248   7.441   3.454   6.755 -0.1477  1.1056 -1.0194
   32MOL0     C 4249   7.572   3.521   6.730  0.6425  0.8713 -0.1812
   32MOL0     C 4250   7.673   3.587   6.720  0.4224 -0.4068 -0.1815
   32MOL0     C 4251   7.083   3.328   7.088  0.5017  0.6253 -0.2137
   32MOL0     C 4252   7.051   3.415   7.187  0.6385 -0.0577 -0.7510
   32MOL0     H 4253   7.063   3.862   7.364 -0.4741 -1.3827  0.5670
   32MOL0     H 4254   7.009   4.044   7.515 -0.2332 -0.6743 -1.1058
   32MOL0     H 4255   6.622   4.021   7.753  1.0443 -3.2744 -1.0382
   32MOL0     H 4256   6.745   3.980   7.877  0.9951 -0.4734 -0.9156
   32MOL0     H 4257   6.715   4.264   7.781  0.9008  2.8488  0.2146
   32MOL0     H 4258   6.605   4.199   7.902  0.4656 -2.1840  1.6265
   32MOL0     H 4259   6.849   4.111   8.010  1.0490  1.0164  0.9049
   32MOL0     H 4260   6.886   4.264   7.924  0.3576  0.2295 -0.7234
   32MOL0     H 4261   6.720   4.368   8.059 -1.6310 -1.9766 -2.9487
   32MOL0     H 4262   6.663   4.214   8.140 -0.4961 -1.4778 -1.8404
   32MOL0     H 4263   6.919   4.219   8.232 -1.4469  0.0081 -0.3218
   32MOL0     H 4264   6.922   4.381   8.165 -0.0185  0.1766 -1.0871
   32MOL0     H 4265   6.721   4.441   8.305 -3.0219 -3.2350 -2.9903
   32MOL0     H 4266   6.713   4.288   8.370 -0.8948  0.1206 -0.3817
   32MOL0     H 4267   6.910   4.331   8.532  1.0833 -0.3900 -1.4790
   32MOL0     H 4268   6.974   4.434   8.409 -0.2240 -1.2498 -1.7114
   32MOL0     H 4269   6.752   4.498   8.603  0.5171  1.2071  1.7902
   32MOL0     H 4270   6.765   4.595   8.453  0.4588  1.5042  0.9211
   32MOL0     H 4271   7.091   4.623   8.454  0.5314 -1.4566  0.4520
   32MOL0     H 4272   7.307   4.783   8.707  0.9347  2.7714  0.7821
   32MOL0     H 4273   7.295   4.739   8.541 -0.2992  0.0218 -0.0033
   32MOL0     H 4274   7.153   4.949   8.487 -1.0506  0.0989  0.2457
   32MOL0     H 4275   7.307   4.987   8.546 -1.3557  2.1489  0.6476
   32MOL0     H 4276   7.087   4.989   8.754  1.4298  2.5515  4.5495
   32MOL0     H 4277   7.098   5.108   8.616  1.1916 -0.8807 -1.4834
   32MOL0     H 4278   7.342   5.050   8.773  1.2201  1.4520  0.5657
   32MOL0     H 4279   7.224   5.176   8.842  0.3853 -0.0378  0.9244
   32MOL0     H 4280   7.366   5.369   8.865  0.3831  0.7945  0.3333
   32MOL0     H 4281   7.592   5.627   8.911 -0.0984  1.3874  2.3963
   32MOL0     H 4282   7.464   5.536   8.993  0.7844 -0.0677  0.9779
   32MOL0     H 4283   7.637   5.499   9.017 -2.0958 -1.2502  0.2486
   32MOL0     H 4284   8.081   5.565   8.725  0.1229 -0.2524 -0.1625
   32MOL0     H 4285   8.291   5.694   8.818  0.2095  3.4897 -1.7812
   32MOL0     H 4286   8.250   5.881   9.229  0.3510 -0.4283  0.8579
   32MOL0     H 4287   8.326   5.720   9.209 -0.7211  0.6588  1.5411
   32MOL0     H 4288   8.482   5.883   9.292  1.8742 -1.6284 -0.7240
   32MOL0     H 4289   8.532   5.841   9.127 -0.1283  1.4037 -2.1208
   32MOL0     H 4290   8.392   6.099   9.185  1.2608  0.1936  1.9092
   32MOL0     H 4291   8.474   6.046   9.035  1.1167 -1.4953  0.3799
   32MOL0     H 4292   8.686   6.024   9.175  2.9233  2.0221  0.4657
   32MOL0     H 4293   8.621   6.188   9.142  3.1739 -0.7983 -0.0831
   32MOL0     H 4294   8.677   6.216   9.338 -0.3965  0.4018 -2.4657
   32MOL0     H 4295   8.664   6.055   9.398  1.1533 -0.5343 -1.4194
   32MOL0     H 4296   8.411   6.233   9.347  1.3661  1.5596  0.0970
   32MOL0     H 4297   8.433   6.088   9.445 -0.9889  1.4909  0.9362
   32MOL0     H 4298   8.584   6.191   9.604 -0.1116 -1.6733 -0.1367
   32MOL0     H 4299   8.422   6.275   9.598  0.5420  0.8842  1.0765
   32MOL0     H 4300   8.683   6.383   9.483  0.7446  0.9296  0.7265
   32MOL0     H 4301   8.611   6.431   9.620  0.5565 -2.2725  0.8541
   32MOL0     H 4302   8.060   5.810   9.148 -1.4331  0.5364 -0.8061
   32MOL0     H 4303   7.868   5.716   9.066 -0.3073  0.0950 -1.6264
   32MOL0     H 4304   7.731   5.295   8.558 -0.9398  0.2869 -1.7433
   32MOL0     H 4305   7.526   5.198   8.517  0.2425 -0.3653  0.2845
   32MOL0     H 4306   6.761   3.793   7.753 -0.6178  0.9501  0.5965
   32MOL0     H 4307   6.868   3.599   7.643 -1.6582  0.0561  0.8603
   32MOL0     H 4308   7.370   3.521   7.263  0.5959 -0.6462  0.5012
   32MOL0     H 4309   7.415   3.351   7.074 -0.6058  1.0159 -3.2326
   32MOL0     H 4310   7.105   3.248   6.785  1.0474 -1.4176 -0.2678
   32MOL0     H 4311   7.197   3.393   6.817  1.3597 -1.2775  1.5058
   32MOL0     H 4312   7.261   3.289   6.609  3.3173  0.1381 -1.3812
   32MOL0     H 4313   7.309   3.139   6.691 -0.1576 -0.7602  0.8603
   32MOL0     H 4314   7.493   3.271   6.637 -1.9602  0.1158 -1.0262
   32MOL0     H 4315   7.473   3.239   6.811  1.0448 -1.5772 -1.7114
   32MOL0     H 4316   7.416   3.470   6.861  0.9731 -1.6557 -0.2436
   32MOL0     H 4317   7.362   3.498   6.693 -1.7003 -0.8233 -0.4860
   32MOL0     H 4318   7.748   3.664   6.708  0.6068 -0.2512  1.6704
   32MOL0     H 4319   7.015   3.265   7.032  2.7083 -1.5150 -0.6586
   32MOL0     H 4320   6.947   3.444   7.198  0.0410 -2.1445 -0.4511
   33MOL0     O 4321   7.521   0.122   1.578  1.2461  0.1214  0.2337
   33MOL0     C 4322   7.626   0.088   1.614  0.1587  1.3541 -0.0636
   33MOL0     O 4323   7.748   0.158   1.591  0.8241  0.1656 -0.3400
   33MOL0     C 4324   7.762   0.284   1.532 -0.5189 -0.3430 -0.8472
   33MOL0     C 4325   7.670   0.391   1.552 -0.0247  0.7090  0.3307
   33MOL0     C 4326   7.692   0.504   1.479 -0.1751  0.2480 -0.1709
   33MOL0     C 4327   7.806   0.526   1.397  0.3929 -0.3175 -0.0157
   33MOL0     O 4328   7.834   0.633   1.314  0.0837  0.1846 -0.3744
   33MOL0     C 4329   7.741   0.745   1.316  0.2084  0.1648  0.3091
   33MOL0     C 4330   7.767   0.855   1.206 -0.6973 -0.6436  0.4629
   33MOL0     C 4331   7.654   0.967   1.195  1.5061  0.4566 -0.3279
   33MOL0     C 4332   7.693   1.063   1.090 -0.7180 -0.8439  0.3840
   33MOL0     C 4333   7.578   1.172   1.057  0.8109 -0.1872 -0.4892
   33MOL0     C 4334   7.533   1.234   1.189  0.3257 -0.4069  0.4969
   33MOL0     C 4335   7.451   1.361   1.179  0.8012  0.1058 -0.4726
   33MOL0     C 4336   7.302   1.332   1.138  0.0635  0.5166  0.0002
   33MOL0     N 4337   7.227   1.458   1.129 -0.0832  0.2568  0.4387
   33MOL0     C 4338   7.200   1.541   1.231  0.1893 -0.1760 -0.2883
   33MOL0     C 4339   7.134   1.650   1.174  0.3080  0.7489  0.2825
   33MOL0     C 4340   7.083   1.775   1.235 -0.0667 -0.9655  0.0245
   33MOL0     C 4341   7.178   1.897   1.228 -0.4242 -0.0029  0.4598
   33MOL0     C 4342   7.133   2.021   1.303 -0.3022  0.4132  0.2781
   33MOL0     C 4343   6.998   2.078   1.246 -0.4837 -0.9060  0.9199
   33MOL0     O 4344   7.023   2.207   1.193 -0.0266 -0.2735  0.1374
   33MOL0     C 4345   7.074   2.310   1.262 -0.7205  0.0335 -0.1577
   33MOL0     C 4346   7.135   2.406   1.193 -0.5286  0.3489 -0.6878
   33MOL0     C 4347   7.205   2.501   1.263 -0.5685  0.0630 -0.2890
   33MOL0     C 4348   7.284   2.598   1.174  0.6034  0.1042 -0.5984
   33MOL0     C 4349   7.197   2.509   1.402 -0.5535  0.2384 -0.7787
   33MOL0     C 4350   7.278   2.611   1.478 -0.5333 -0.2518  0.0470
   33MOL0     O 4351   7.322   2.580   1.606 -0.1503 -0.3885 -0.4387
   33MOL0     C 4352   7.399   2.656   1.695 -0.2309 -0.7558  0.3182
   33MOL0     C 4353   7.438   2.583   1.809  1.1987  0.7695 -0.7889
   33MOL0     C 4354   7.514   2.637   1.915  1.3448 -0.1606 -0.2912
   33MOL0     C 4355   7.561   2.767   1.902  1.1046 -0.4512 -0.8983
   33MOL0     O 4356   7.641   2.836   1.997  0.1462  0.3067 -0.0424
   33MOL0     C 4357   7.688   2.762   2.117  0.2431  0.3716 -0.0912
   33MOL0     C 4358   7.820   2.669   2.086 -0.1456 -0.3911 -1.1060
   33MOL0     C 4359   7.870   2.604   2.215  0.2100 -0.2122 -0.2434
   33MOL0     C 4360   8.000   2.528   2.187  1.0407 -0.0090  0.1709
   33MOL0     C 4361   8.089   2.476   2.307 -0.3662  0.0851  0.5201
   33MOL0     C 4362   8.064   2.327   2.333  0.0643 -0.5282  1.5545
   33MOL0     C 4363   8.150   2.276   2.441  0.4659 -0.6461 -0.2168
   33MOL0     C 4364   8.142   2.127   2.452  0.4909 -0.4544  0.9167
   33MOL0    Cl 4365   8.238   2.080   2.595 -0.3493 -0.0923  0.7549
   33MOL0     C 4366   7.517   2.848   1.795 -0.2428  0.2673 -0.1323
   33MOL0     C 4367   7.436   2.795   1.688 -0.3772 -0.6049 -0.4480
   33MOL0     O 4368   7.296   2.721   1.428 -0.2012 -0.2201  0.1551
   33MOL0     C 4369   7.128   2.408   1.479 -0.6589 -0.2505  0.1578
   33MOL0     C 4370   7.062   2.310   1.404 -0.3900 -0.0800 -0.8675
   33MOL0     N 4371   7.137   1.638   1.038 -0.0714 -0.5850 -0.0390
   33MOL0     N 4372   7.195   1.523   1.012  0.0518 -0.2604 -0.0235
   33MOL0     C 4373   7.897   0.420   1.383 -0.5619  0.0047  0.0177
   33MOL0     C 4374   7.876   0.305   1.456  0.4798 -1.0651  0.7089
   33MOL0     C 4375   7.633  -0.008   1.727  0.8256  0.4411  0.0268
   33MOL0     C 4376   7.753  -0.054   1.775 -1.0255 -1.0305  0.0022
   33MOL0     C 4377   7.763  -0.156   1.876  0.4336  0.1723 -0.0229
   33MOL0     C 4378   7.646  -0.222   1.914 -0.0083  0.8932  0.2533
   33MOL0     O 4379   7.654  -0.312   2.017 -0.2777 -0.5144 -0.2628
   33MOL0     C 4380   7.540  -0.370   2.073  0.7272  1.0204  0.3462
   33MOL0     C 4381   7.584  -0.473   2.174  0.6068 -0.3885 -0.5103
   33MOL0     C 4382   7.664  -0.410   2.295  0.0208  0.8461  1.0527
   33MOL0     C 4383   7.755  -0.513   2.370  0.6436  0.3714  0.3021
   33MOL0     C 4384   7.885  -0.513   2.312 -0.0202 -0.7358 -0.2321
   33MOL0     C 4385   7.992  -0.527   2.254  0.2541 -0.6220 -0.2877
   33MOL0     C 4386   7.527  -0.190   1.850  0.5539 -0.0428  0.1905
   33MOL0     C 4387   7.522  -0.081   1.763  0.1547 -0.0506  0.1500
   33MOL0     H 4388   7.588   0.382   1.623 -1.2911  1.4719 -0.9948
   33MOL0     H 4389   7.637   0.595   1.498 -0.3773 -0.2400  1.7869
   33MOL0     H 4390   7.638   0.712   1.296  0.0920  1.5442 -1.7107
   33MOL0     H 4391   7.740   0.784   1.418 -3.2659 -5.4153  2.8961
   33MOL0     H 4392   7.863   0.901   1.231  0.6702 -1.5093 -2.6949
   33MOL0     H 4393   7.784   0.808   1.108  2.6792 -0.9940  1.0989
   33MOL0     H 4394   7.563   0.923   1.153  0.9263  3.5773 -2.7206
   33MOL0     H 4395   7.615   1.008   1.289 -2.6834 -0.0349 -1.6319
   33MOL0     H 4396   7.782   1.121   1.116  0.2214 -1.3286 -1.5304
   33MOL0     H 4397   7.734   1.010   1.004  1.2060  0.4816  0.4222
   33MOL0     H 4398   7.636   1.250   1.006 -0.1816  1.4871  0.8376
   33MOL0     H 4399   7.501   1.131   0.991  0.5133  0.4273 -0.5360
   33MOL0     H 4400   7.470   1.155   1.233  2.4553 -2.2305  0.4767
   33MOL0     H 4401   7.613   1.266   1.256 -0.5240  2.0942  0.3949
   33MOL0     H 4402   7.446   1.425   1.268 -1.3401 -0.7914  0.1169
   33MOL0     H 4403   7.506   1.423   1.108  3.2296  0.8278  1.9095
   33MOL0     H 4404   7.248   1.270   1.211  1.4067 -0.1395  0.4647
   33MOL0     H 4405   7.295   1.262   1.054  0.0946 -0.9085  1.1511
   33MOL0     H 4406   7.223   1.534   1.337 -3.7478  0.8823  0.8153
   33MOL0     H 4407   6.994   1.790   1.174 -0.7872 -0.5967  1.1412
   33MOL0     H 4408   7.047   1.746   1.334 -1.9079 -0.5766 -0.4999
   33MOL0     H 4409   7.206   1.915   1.124 -1.5715  1.6116  0.4049
   33MOL0     H 4410   7.266   1.860   1.282  0.1945 -0.4480 -0.8127
   33MOL0     H 4411   7.220   2.087   1.296  0.8140 -0.8884  1.1477
   33MOL0     H 4412   7.103   2.003   1.407 -0.2458 -0.0800  0.2104
   33MOL0     H 4413   6.929   2.074   1.331  1.6855 -0.9064  2.8046
   33MOL0     H 4414   6.964   2.019   1.161  3.5023 -2.3487  0.1071
   33MOL0     H 4415   7.130   2.417   1.085  2.6403 -3.9315 -1.5549
   33MOL0     H 4416   7.242   2.699   1.168 -0.4288 -0.3480 -1.2115
   33MOL0     H 4417   7.385   2.602   1.217  0.3588 -0.1698  0.0125
   33MOL0     H 4418   7.294   2.558   1.072  3.2823  0.8188 -0.6929
   33MOL0     H 4419   7.394   2.484   1.817  1.7300  0.7176  2.8905
   33MOL0     H 4420   7.532   2.571   1.999 -1.3968 -2.7039 -1.5462
   33MOL0     H 4421   7.718   2.829   2.198  1.5295 -1.7376  1.3150
   33MOL0     H 4422   7.612   2.692   2.153  1.8536 -3.3634 -3.2308
   33MOL0     H 4423   7.792   2.590   2.017  0.0476 -0.1052 -1.5125
   33MOL0     H 4424   7.901   2.733   2.050  1.3397 -1.3237  0.4219
   33MOL0     H 4425   7.797   2.525   2.234  0.4390 -0.2993  0.3135
   33MOL0     H 4426   7.874   2.674   2.300 -1.0475  3.7344 -3.1511
   33MOL0     H 4427   7.983   2.450   2.112 -0.9888  0.3700  0.1849
   33MOL0     H 4428   8.060   2.602   2.132 -0.4278  0.7117 -0.5110
   33MOL0     H 4429   8.058   2.533   2.395 -1.2887 -0.5443  0.6185
   33MOL0     H 4430   8.194   2.499   2.287 -0.8599  2.3360  0.2092
   33MOL0     H 4431   7.962   2.297   2.361 -0.4595  0.6246  0.9389
   33MOL0     H 4432   8.091   2.290   2.234 -2.7418  0.8024  0.2040
   33MOL0     H 4433   8.114   2.328   2.530  1.5270 -2.2085  1.1953
   33MOL0     H 4434   8.257   2.299   2.433  0.3442 -0.3194 -0.9700
   33MOL0     H 4435   8.179   2.097   2.354 -1.7199  3.0769 -1.2264
   33MOL0     H 4436   8.038   2.102   2.475 -0.4467 -0.7897 -3.0327
   33MOL0     H 4437   7.556   2.949   1.788  0.7494 -0.1570 -1.0698
   33MOL0     H 4438   7.408   2.863   1.608 -0.1057  1.1305  0.8848
   33MOL0     H 4439   7.136   2.411   1.587 -0.8208  3.1241  0.1923
   33MOL0     H 4440   6.995   2.243   1.458  0.0140  2.0686  2.6207
   33MOL0     H 4441   7.979   0.438   1.315 -0.0093  0.4662  0.7977
   33MOL0     H 4442   7.938   0.220   1.431  1.3718 -0.0109 -0.8461
   33MOL0     H 4443   7.841  -0.008   1.730 -1.8066 -1.0400 -1.6271
   33MOL0     H 4444   7.857  -0.170   1.927 -0.0580 -1.3853  0.5072
   33MOL0     H 4445   7.470  -0.298   2.117  0.5983  1.8266 -1.1281
   33MOL0     H 4446   7.489  -0.429   1.997  0.4591 -5.0040  4.4893
   33MOL0     H 4447   7.649  -0.547   2.125  1.9207 -0.8765  1.8349
   33MOL0     H 4448   7.494  -0.527   2.207  0.0963 -0.2147 -1.5646
   33MOL0     H 4449   7.594  -0.366   2.366 -0.6527  0.8457  0.3979
   33MOL0     H 4450   7.727  -0.330   2.254  2.3939  1.3862  5.1584
   33MOL0     H 4451   7.706  -0.611   2.364  1.4182  0.0147 -0.4604
   33MOL0     H 4452   7.755  -0.482   2.474  1.0648  0.1711  0.3632
   33MOL0     H 4453   8.094  -0.539   2.224  1.0841  2.3258  1.0518
   33MOL0     H 4454   7.436  -0.235   1.890  0.4929 -0.7503 -0.7261
   33MOL0     H 4455   7.426  -0.050   1.723 -0.3194 -1.0303  0.4985
   34MOL0     O 4456   1.462   7.507   2.237 -0.6388 -0.8171  0.4664
   34MOL0     C 4457   1.367   7.525   2.168  0.1733  0.1035  0.3034
   34MOL0     O 4458   1.249   7.465   2.186  0.4569 -0.0888 -0.5627
   34MOL0     C 4459   1.201   7.434   2.309 -0.0431  0.6880  0.3053
   34MOL0     C 4460   1.146   7.309   2.333  0.1006 -0.1043 -0.5350
   34MOL0     C 4461   1.098   7.279   2.464  0.6111 -0.2887  0.1553
   34MOL0     C 4462   1.095   7.377   2.564 -0.4001 -0.2013  0.5584
   34MOL0     O 4463   1.034   7.342   2.683 -0.5621 -0.7224  0.7094
   34MOL0     C 4464   0.966   7.452   2.745  0.1240 -0.4771 -0.2552
   34MOL0     C 4465   0.870   7.399   2.861  0.4345 -0.0134  0.7887
   34MOL0     C 4466   0.957   7.320   2.959 -1.0829 -0.3202 -0.3309
   34MOL0     C 4467   0.874   7.253   3.065 -0.6769  0.6298  0.1275
   34MOL0     C 4468   0.961   7.171   3.157 -0.2793 -0.4146  0.4866
   34MOL0     C 4469   0.889   7.133   3.285 -0.3274 -0.1935  0.2816
   34MOL0     C 4470   0.778   7.031   3.243 -0.1569 -1.1711 -0.0288
   34MOL0     C 4471   0.712   6.958   3.363  0.6764  0.5220 -0.2273
   34MOL0     N 4472   0.608   6.855   3.315 -0.4826 -0.3993  0.1242
   34MOL0     C 4473   0.632   6.728   3.276  0.1310 -0.3936 -0.0971
   34MOL0     C 4474   0.528   6.705   3.193  0.9659  1.1176 -0.0219
   34MOL0     C 4475   0.508   6.568   3.134  0.8939 -0.2377 -0.0947
   34MOL0     C 4476   0.407   6.483   3.210  0.5321 -0.1349 -0.1251
   34MOL0     C 4477   0.432   6.332   3.179  0.2568 -0.7187  0.2438
   34MOL0     C 4478   0.310   6.259   3.242 -0.4000 -0.1815  0.0954
   34MOL0     O 4479   0.340   6.124   3.212 -0.1985  0.6117  0.1475
   34MOL0     C 4480   0.239   6.027   3.217 -0.0274  0.3469 -0.3174
   34MOL0     C 4481   0.119   6.047   3.280  0.6536 -0.3308  0.1537
   34MOL0     C 4482   0.011   5.952   3.284 -0.8203 -1.1037  0.1039
   34MOL0     C 4483  -0.108   6.008   3.360 -0.1954  0.0078  0.3700
   34MOL0     C 4484   0.039   5.823   3.231  0.9830 -0.7559 -0.1527
   34MOL0     C 4485  -0.060   5.717   3.247 -0.4530 -0.1851  0.6035
   34MOL0     O 4486  -0.185   5.763   3.234  1.0626  0.2055 -0.5693
   34MOL0     C 4487  -0.297   5.683   3.273 -0.8404 -0.5529 -0.4670
   34MOL0     C 4488  -0.303   5.575   3.355 -0.4754  0.2292  0.2031
   34MOL0     C 4489  -0.422   5.512   3.392 -0.0281 -0.2268  0.1615
   34MOL0     C 4490  -0.538   5.546   3.319  0.0255 -0.8094  0.0426
   34MOL0     O 4491  -0.659   5.480   3.332 -0.0844 -0.1080 -0.1548
   34MOL0     C 4492  -0.654   5.348   3.384 -0.3292 -0.9382 -0.7202
   34MOL0     C 4493  -0.793   5.281   3.403 -0.3569  1.1776 -0.5463
   34MOL0     C 4494  -0.782   5.144   3.474 -0.7748  0.0897 -0.2931
   34MOL0     C 4495  -0.924   5.096   3.512  0.9838 -0.2859  0.3832
   34MOL0     C 4496  -0.935   4.952   3.566  0.3578  0.4491  0.8288
   34MOL0     C 4497  -0.817   4.910   3.661 -0.0889 -0.8384 -0.3942
   34MOL0     C 4498  -0.827   4.992   3.793 -0.5542  0.6906  0.1068
   34MOL0     C 4499  -0.697   4.957   3.868  0.6372 -0.1872  0.8408
   34MOL0    Cl 4500  -0.700   4.791   3.945 -0.0200  0.2360 -0.3801
   34MOL0     C 4501  -0.529   5.651   3.226  0.5481 -0.8057 -0.4890
   34MOL0     C 4502  -0.422   5.725   3.211 -0.4216 -0.0537 -0.0332
   34MOL0     O 4503  -0.013   5.605   3.239 -0.2070  0.2170  0.3336
   34MOL0     C 4504   0.157   5.790   3.160 -0.0874 -0.2028  0.4185
   34MOL0     C 4505   0.254   5.899   3.150 -0.0854 -1.5362  0.9627
   34MOL0     N 4506   0.432   6.804   3.202  0.9455  0.0145  0.4379
   34MOL0     N 4507   0.482   6.894   3.280 -0.6857 -0.3960 -0.0959
   34MOL0     C 4508   1.139   7.517   2.532 -1.0555  0.6698  0.2762
   34MOL0     C 4509   1.184   7.534   2.400 -0.2509  0.5748  0.5245
   34MOL0     C 4510   1.379   7.592   2.042  0.4424  0.4493 -0.0679
   34MOL0     C 4511   1.275   7.677   2.001  0.2601 -0.3478 -0.4656
   34MOL0     C 4512   1.268   7.735   1.875  0.3079 -0.4918 -0.4865
   34MOL0     C 4513   1.356   7.691   1.772  0.0377  0.1957  0.3627
   34MOL0     O 4514   1.344   7.719   1.638 -0.0925 -0.6914 -0.2273
   34MOL0     C 4515   1.244   7.820   1.609  0.0968  0.7666  0.4482
   34MOL0     C 4516   1.108   7.755   1.614  0.3814  0.0214 -0.8202
   34MOL0     C 4517   1.065   7.652   1.494 -0.9631 -0.6465  0.2433
   34MOL0     C 4518   0.952   7.557   1.518  0.4832 -0.2115  0.4234
   34MOL0     C 4519   0.989   7.423   1.571  0.1391 -0.0748 -0.1691
   34MOL0     C 4520   1.012   7.309   1.608  0.9823  0.2988  0.0326
   34MOL0     C 4521   1.461   7.598   1.818  0.1795  0.3418  0.0443
   34MOL0     C 4522   1.476   7.550   1.945  0.3068 -1.0624 -1.0871
   34MOL0     H 4523   1.132   7.226   2.264 -0.7063  0.0350 -0.5534
   34MOL0     H 4524   1.068   7.180   2.496  1.5451 -0.2126  1.3698
   34MOL0     H 4525   1.040   7.514   2.796  1.2877 -1.2259 -0.9790
   34MOL0     H 4526   0.914   7.517   2.674  0.4333 -0.6928 -0.6892
   34MOL0     H 4527   0.831   7.487   2.914 -0.1625  0.2353 -0.0608
   34MOL0     H 4528   0.784   7.345   2.821 -1.1438 -1.2541  5.2762
   34MOL0     H 4529   1.031   7.254   2.913  0.5494  1.8239 -0.9612
   34MOL0     H 4530   1.007   7.399   3.016 -4.0625  1.8545 -0.5118
   34MOL0     H 4531   0.828   7.334   3.121  0.2904  0.7966  0.7033
   34MOL0     H 4532   0.798   7.191   3.016  0.0834  0.7217 -1.2217
   34MOL0     H 4533   0.985   7.081   3.100 -0.3028  1.0456 -1.9463
   34MOL0     H 4534   1.050   7.227   3.189 -0.8216  0.3223  0.7159
   34MOL0     H 4535   0.954   7.073   3.350 -1.9857 -1.7158  0.6315
   34MOL0     H 4536   0.848   7.217   3.341 -2.7445 -0.2795 -1.2544
   34MOL0     H 4537   0.704   7.088   3.186 -0.8746  0.9129  2.7465
   34MOL0     H 4538   0.824   6.957   3.178 -1.6523 -1.2490 -1.0249
   34MOL0     H 4539   0.662   7.033   3.425  0.8272  0.4957 -0.0741
   34MOL0     H 4540   0.788   6.913   3.428  1.1367  1.0946 -0.3602
   34MOL0     H 4541   0.717   6.670   3.310 -1.0725 -1.0040  2.0211
   34MOL0     H 4542   0.485   6.569   3.027 -1.8514 -2.0328  0.3896
   34MOL0     H 4543   0.602   6.512   3.144  1.8425  1.0280 -1.4639
   34MOL0     H 4544   0.304   6.508   3.184  0.7853  0.3247 -0.6825
   34MOL0     H 4545   0.425   6.495   3.317  0.4599 -2.0283  0.1432
   34MOL0     H 4546   0.531   6.303   3.215 -0.5071 -1.2417  2.0554
   34MOL0     H 4547   0.423   6.316   3.071 -0.2314 -0.5756  0.2615
   34MOL0     H 4548   0.211   6.291   3.206 -1.1574 -0.1369  2.0668
   34MOL0     H 4549   0.302   6.276   3.350 -0.7293 -1.9358  0.3806
   34MOL0     H 4550   0.105   6.146   3.322  1.3753 -0.4158  0.6096
   34MOL0     H 4551  -0.134   5.931   3.432 -1.7669 -1.0197 -1.2084
   34MOL0     H 4552  -0.100   6.105   3.411 -3.0914  1.2065 -1.1744
   34MOL0     H 4553  -0.194   6.017   3.292 -1.2637 -4.8711  0.7146
   34MOL0     H 4554  -0.209   5.541   3.398  0.5564  2.2399 -0.3051
   34MOL0     H 4555  -0.416   5.439   3.472  3.5446 -1.7970 -1.3304
   34MOL0     H 4556  -0.592   5.282   3.322 -1.4153 -0.8320 -1.9627
   34MOL0     H 4557  -0.625   5.356   3.489 -3.0082  2.7163 -0.0765
   34MOL0     H 4558  -0.853   5.355   3.456  0.4881  1.7479 -0.3640
   34MOL0     H 4559  -0.844   5.268   3.307 -2.1757 -3.8057  0.7722
   34MOL0     H 4560  -0.726   5.145   3.568 -1.5163 -1.5044  0.2152
   34MOL0     H 4561  -0.732   5.072   3.408  2.7019  3.7189 -2.0097
   34MOL0     H 4562  -0.963   5.155   3.595  1.0909 -0.0171  0.2446
   34MOL0     H 4563  -0.994   5.106   3.428  0.3292 -3.8657  0.3149
   34MOL0     H 4564  -0.930   4.887   3.477  0.0208  1.6419 -0.0797
   34MOL0     H 4565  -1.035   4.938   3.607 -1.3305  3.6034 -1.7179
   34MOL0     H 4566  -0.822   4.803   3.681  3.2822 -0.8217  1.1894
   34MOL0     H 4567  -0.723   4.919   3.604  0.4339 -1.5478  0.3354
   34MOL0     H 4568  -0.910   4.961   3.857  0.8031 -0.0585  1.5734
   34MOL0     H 4569  -0.834   5.099   3.776  0.7873  0.4773 -2.3612
   34MOL0     H 4570  -0.695   5.040   3.939 -0.7756  0.3442  0.2904
   34MOL0     H 4571  -0.606   4.968   3.808  0.8541 -0.2089  1.1658
   34MOL0     H 4572  -0.628   5.686   3.196  0.6572  1.2031  1.2118
   34MOL0     H 4573  -0.431   5.825   3.168  0.7010 -0.5463 -1.4798
   34MOL0     H 4574   0.163   5.695   3.109 -1.1968 -0.4806  0.7756
   34MOL0     H 4575   0.345   5.884   3.091 -0.0488  1.1609  0.1623
   34MOL0     H 4576   1.131   7.603   2.599  0.9388 -0.6425  2.3674
   34MOL0     H 4577   1.205   7.640   2.390 -0.5347  0.5364 -0.6187
   34MOL0     H 4578   1.200   7.715   2.070  0.4781  0.0048 -0.4216
   34MOL0     H 4579   1.194   7.814   1.874  0.4505 -0.2938  1.0484
   34MOL0     H 4580   1.244   7.901   1.683 -0.6317  1.6775 -0.5235
   34MOL0     H 4581   1.274   7.866   1.515  0.1707 -0.5389 -0.1893
   34MOL0     H 4582   1.043   7.842   1.613  1.8118  1.1374 -2.3536
   34MOL0     H 4583   1.096   7.691   1.702 -1.9324  0.1838 -0.9741
   34MOL0     H 4584   1.155   7.594   1.470 -0.7101 -0.0793 -0.2293
   34MOL0     H 4585   1.036   7.706   1.403  1.5088  2.2207  0.9704
   34MOL0     H 4586   0.916   7.547   1.415  0.1863  1.3005  0.3631
   34MOL0     H 4587   0.874   7.604   1.579  1.8574  0.2730  1.8716
   34MOL0     H 4588   1.018   7.204   1.627  3.9114  0.3905  0.1882
   34MOL0     H 4589   1.531   7.562   1.744  2.4693  1.0697  1.7199
   34MOL0     H 4590   1.561   7.493   1.980 -1.1184 -2.8398 -0.3127
   35MOL0     O 4591  11.114   6.208   3.622 -0.5522  0.3139  0.1353
   35MOL0     C 4592  11.102   6.225   3.500  0.4354 -0.2561 -0.5405
   35MOL0     O 4593  11.013   6.172   3.417 -1.1296  0.5322  0.8307
   35MOL0     C 4594  10.923   6.078   3.458  0.0001 -0.0456  0.3885
   35MOL0     C 4595  10.786   6.082   3.461  0.8890  0.3195 -1.0096
   35MOL0     C 4596  10.716   5.969   3.507  0.5348  0.8203  1.1004
   35MOL0     C 4597  10.770   5.843   3.511 -1.4447  0.7575  0.1261
   35MOL0     O 4598  10.701   5.727   3.553  0.5537 -0.8360 -0.0308
   35MOL0     C 4599  10.557   5.725   3.550 -0.3097 -1.5116 -0.0248
   35MOL0     C 4600  10.481   5.595   3.573 -0.8201 -0.0946  0.0743
   35MOL0     C 4601  10.420   5.607   3.710  0.8566 -0.5963  0.6502
   35MOL0     C 4602  10.316   5.501   3.748 -0.2698  0.2441 -0.8879
   35MOL0     C 4603  10.355   5.357   3.755 -0.5336  0.3246  0.7766
   35MOL0     C 4604  10.240   5.267   3.800  0.1325  0.1445  0.6516
   35MOL0     C 4605  10.298   5.128   3.816 -0.0127 -0.5467  0.1191
   35MOL0     C 4606  10.197   5.022   3.859 -0.1308 -1.1579  0.2473
   35MOL0     N 4607  10.238   4.886   3.821  0.2473  0.1298 -0.6774
   35MOL0     C 4608  10.161   4.797   3.756 -0.2608 -0.0566 -0.5041
   35MOL0     C 4609  10.219   4.675   3.772 -1.0841 -0.9740  0.0518
   35MOL0     C 4610  10.166   4.552   3.699 -0.5853 -1.1147  0.6026
   35MOL0     C 4611  10.161   4.565   3.543 -0.0930 -0.1904 -0.8541
   35MOL0     C 4612  10.295   4.544   3.459  0.0992  0.7516 -0.6789
   35MOL0     C 4613  10.378   4.419   3.503  0.2268 -0.0355 -0.0028
   35MOL0     O 4614  10.459   4.369   3.393  0.4283  0.3923 -0.5854
   35MOL0     C 4615  10.548   4.448   3.331  0.8852  1.3171  0.0652
   35MOL0     C 4616  10.562   4.452   3.194  0.3301  0.4618 -1.0688
   35MOL0     C 4617  10.653   4.531   3.127 -0.0753  0.9250  0.6076
   35MOL0     C 4618  10.660   4.515   2.982 -0.0035  0.3528 -0.0989
   35MOL0     C 4619  10.730   4.626   3.203  0.2924  0.4425  0.1799
   35MOL0     C 4620  10.800   4.732   3.122  0.1108 -0.0392 -0.2945
   35MOL0     O 4621  10.762   4.857   3.149 -0.5646  0.3917 -0.9521
   35MOL0     C 4622  10.828   4.969   3.100 -0.1859  0.2345  0.0731
   35MOL0     C 4623  10.970   4.984   3.077 -0.0814 -1.0060 -0.2831
   35MOL0     C 4624  11.025   5.109   3.042  0.6121  0.4509  1.0283
   35MOL0     C 4625  10.942   5.216   2.999  0.5450  0.5473  0.3211
   35MOL0     O 4626  10.986   5.342   2.967  0.6507  0.1676 -0.2044
   35MOL0     C 4627  11.123   5.366   2.980  0.5069 -0.2733 -0.8223
   35MOL0     C 4628  11.142   5.515   2.938 -0.1759  0.8834  0.2521
   35MOL0     C 4629  11.292   5.542   2.926  1.0311  0.0919  1.2780
   35MOL0     C 4630  11.306   5.680   2.866 -0.3192 -0.2804 -0.0370
   35MOL0     C 4631  11.446   5.702   2.809 -0.2500  0.9911  0.5611
   35MOL0     C 4632  11.472   5.851   2.792 -0.6028 -1.1284 -0.3100
   35MOL0     C 4633  11.596   5.874   2.702 -0.3427  1.2361 -0.4283
   35MOL0     C 4634  11.651   6.020   2.694 -0.6996 -0.6599  0.4421
   35MOL0    Cl 4635  11.740   6.058   2.838  0.6442 -0.2536 -0.2939
   35MOL0     C 4636  10.806   5.199   3.014  0.1083 -0.2420 -0.4370
   35MOL0     C 4637  10.754   5.087   3.073  1.1155 -0.7562  0.2363
   35MOL0     O 4638  10.893   4.707   3.045 -0.5667  0.4576 -0.0725
   35MOL0     C 4639  10.706   4.633   3.337  0.6067 -1.7412  0.2298
   35MOL0     C 4640  10.620   4.543   3.402 -0.4559  0.3542 -0.5414
   35MOL0     N 4641  10.334   4.692   3.837 -0.0725  0.7372 -0.3674
   35MOL0     N 4642  10.342   4.818   3.877 -0.1480 -0.0721 -1.0452
   35MOL0     C 4643  10.912   5.837   3.513 -0.1878 -0.7727 -0.3572
   35MOL0     C 4644  10.981   5.950   3.480 -0.5186 -1.0865 -0.4504
   35MOL0     C 4645  11.188   6.322   3.434  0.5066 -0.6046  0.8544
   35MOL0     C 4646  11.187   6.334   3.291  0.1287  0.8133  0.4152
   35MOL0     C 4647  11.274   6.413   3.223  0.2187 -0.4403  0.3494
   35MOL0     C 4648  11.366   6.497   3.294 -0.0845  0.6169  0.2143
   35MOL0     O 4649  11.455   6.569   3.222  0.3731 -1.0131 -0.5947
   35MOL0     C 4650  11.407   6.652   3.131 -0.2416  0.0686  0.7427
   35MOL0     C 4651  11.510   6.706   3.036 -0.4738  0.3772  0.2261
   35MOL0     C 4652  11.571   6.589   2.954 -0.0312 -0.8942 -0.1922
   35MOL0     C 4653  11.693   6.623   2.865 -0.1220  0.1019 -0.9336
   35MOL0     C 4654  11.765   6.501   2.817 -0.1632  1.0593  0.4957
   35MOL0     C 4655  11.811   6.396   2.785  0.0645 -0.0365  0.5735
   35MOL0     C 4656  11.368   6.488   3.433  0.3028 -0.2873 -0.7348
   35MOL0     C 4657  11.290   6.394   3.505  0.1599 -0.0245  0.7719
   35MOL0     H 4658  10.729   6.171   3.438  0.3191  0.3246  0.3205
   35MOL0     H 4659  10.608   5.977   3.516  0.2175 -1.4327 -0.0037
   35MOL0     H 4660  10.506   5.801   3.610 -2.1513 -1.7706 -1.1752
   35MOL0     H 4661  10.535   5.742   3.444 -0.5084 -2.4012 -0.1351
   35MOL0     H 4662  10.409   5.570   3.494 -0.1660  0.3008 -0.6718
   35MOL0     H 4663  10.554   5.515   3.582  0.9341  1.3597 -0.4666
   35MOL0     H 4664  10.499   5.584   3.782  0.0362 -0.5455  1.5877
   35MOL0     H 4665  10.380   5.707   3.731  0.6672 -0.8068  1.3124
   35MOL0     H 4666  10.290   5.526   3.852 -1.2002  0.2084 -1.1075
   35MOL0     H 4667  10.223   5.493   3.691  0.4139 -1.9789 -1.7701
   35MOL0     H 4668  10.382   5.319   3.656  1.2840  0.8185  1.0542
   35MOL0     H 4669  10.445   5.353   3.818  0.1081 -1.6731 -0.1801
   35MOL0     H 4670  10.198   5.314   3.890  0.2145 -1.6562  1.6674
   35MOL0     H 4671  10.159   5.285   3.729  2.0406  1.2947 -1.3737
   35MOL0     H 4672  10.340   5.088   3.723 -1.0692 -3.4980  0.8322
   35MOL0     H 4673  10.373   5.144   3.894  1.3180 -1.6648 -0.8729
   35MOL0     H 4674  10.108   5.052   3.801 -0.5805 -0.4908  1.2562
   35MOL0     H 4675  10.183   5.028   3.967  0.6446 -1.5892  0.3813
   35MOL0     H 4676  10.065   4.818   3.710  0.6146  1.9990 -1.5408
   35MOL0     H 4677  10.225   4.464   3.727 -1.2201 -2.3639 -1.6914
   35MOL0     H 4678  10.062   4.543   3.731 -1.3507 -4.2632 -2.2182
   35MOL0     H 4679  10.122   4.660   3.505 -1.4547 -0.2526  0.3014
   35MOL0     H 4680  10.097   4.486   3.503  1.0273 -0.4297 -2.2809
   35MOL0     H 4681  10.357   4.634   3.461  1.3350 -0.0981  0.2360
   35MOL0     H 4682  10.266   4.534   3.354  0.0146 -0.6544 -0.5341
   35MOL0     H 4683  10.317   4.344   3.555 -1.0306 -0.3623 -1.8328
   35MOL0     H 4684  10.450   4.451   3.579 -0.5135  0.7209  0.3952
   35MOL0     H 4685  10.492   4.384   3.145 -1.6292  0.5171  1.4668
   35MOL0     H 4686  10.761   4.491   2.948 -0.4536  1.1013 -2.1680
   35MOL0     H 4687  10.607   4.425   2.948  0.1585 -0.5967  2.0037
   35MOL0     H 4688  10.623   4.605   2.932 -2.8388  0.0138  1.1999
   35MOL0     H 4689  11.034   4.901   3.107 -0.2678 -1.0125  0.1130
   35MOL0     H 4690  11.133   5.113   3.034  0.6421 -0.1282  1.0989
   35MOL0     H 4691  11.157   5.362   3.084  2.8283  3.2590 -1.2752
   35MOL0     H 4692  11.190   5.299   2.926  1.8955 -1.8275  2.5085
   35MOL0     H 4693  11.105   5.526   2.836  1.7747  2.7317 -0.3237
   35MOL0     H 4694  11.089   5.576   3.013  0.1880  0.9644  0.4433
   35MOL0     H 4695  11.348   5.472   2.863  1.7129  2.8076 -1.3727
   35MOL0     H 4696  11.342   5.537   3.023  3.2747  0.3093  0.2141
   35MOL0     H 4697  11.244   5.691   2.776  1.4730  1.6666 -1.1182
   35MOL0     H 4698  11.278   5.759   2.936  0.9550  1.2440 -1.1765
   35MOL0     H 4699  11.447   5.642   2.718  0.3889  1.0337  0.5329
   35MOL0     H 4700  11.532   5.657   2.860  0.6545  1.7198 -0.2820
   35MOL0     H 4701  11.392   5.897   2.734  1.4424 -0.9677 -3.2129
   35MOL0     H 4702  11.496   5.889   2.892  2.3496 -2.8947 -0.2313
   35MOL0     H 4703  11.579   5.838   2.600 -0.7337  0.7741 -0.2018
   35MOL0     H 4704  11.682   5.817   2.737 -0.8024 -0.0053 -1.2671
   35MOL0     H 4705  11.563   6.085   2.692 -2.6252 -3.1108 -0.2730
   35MOL0     H 4706  11.710   6.043   2.604 -1.7382  1.8372  0.3020
   35MOL0     H 4707  10.758   5.290   2.979 -0.5115  3.1042  7.1953
   35MOL0     H 4708  10.647   5.075   3.089  1.5599 -2.1172  2.6825
   35MOL0     H 4709  10.755   4.711   3.395 -1.0546 -1.2697  1.0768
   35MOL0     H 4710  10.622   4.551   3.510  0.4617  1.2231 -0.6144
   35MOL0     H 4711  10.956   5.741   3.537 -1.2682 -1.6823 -1.8566
   35MOL0     H 4712  11.089   5.948   3.492 -0.7657 -0.0308  2.8078
   35MOL0     H 4713  11.127   6.268   3.229 -0.3918  1.9297 -0.3047
   35MOL0     H 4714  11.276   6.394   3.116 -1.7133  0.0168  0.1979
   35MOL0     H 4715  11.329   6.602   3.073  1.1278  1.5530 -2.6980
   35MOL0     H 4716  11.367   6.734   3.191 -0.8997 -0.6140  1.2522
   35MOL0     H 4717  11.590   6.751   3.095 -0.3698  0.9232 -0.3129
   35MOL0     H 4718  11.466   6.776   2.965 -1.3590  0.5102  0.8934
   35MOL0     H 4719  11.491   6.557   2.886  0.7953 -1.5283 -0.9006
   35MOL0     H 4720  11.606   6.511   3.023  1.2240  0.1156  0.3546
   35MOL0     H 4721  11.774   6.680   2.912 -1.0563  2.7669 -2.3357
   35MOL0     H 4722  11.651   6.665   2.773  0.3761  2.2530 -0.2493
   35MOL0     H 4723  11.845   6.300   2.753  1.4049  0.1350  1.3802
   35MOL0     H 4724  11.424   6.554   3.499 -0.6044 -0.2077 -0.0312
   35MOL0     H 4725  11.305   6.383   3.612  0.6641 -2.5155  0.5144
   36MOL0     O 4726   0.912   1.815   3.195  0.8221  0.1370 -0.3803
   36MOL0     C 4727   0.810   1.883   3.211  0.1348  0.7710 -0.6520
   36MOL0     O 4728   0.694   1.862   3.151  0.6082 -0.3781 -0.0357
   36MOL0     C 4729   0.674   1.734   3.105 -0.0179 -0.5136 -0.0081
   36MOL0     C 4730   0.694   1.615   3.182  0.6857  0.1609 -0.1889
   36MOL0     C 4731   0.655   1.494   3.130 -0.6024  0.4150 -1.1162
   36MOL0     C 4732   0.615   1.482   3.003 -0.3453  0.0863  0.2000
   36MOL0     O 4733   0.579   1.347   2.967  0.2457 -0.2288 -0.2859
   36MOL0     C 4734   0.508   1.331   2.848  1.0192  0.2982  0.0647
   36MOL0     C 4735   0.423   1.210   2.835  0.3547  0.0787 -0.3051
   36MOL0     C 4736   0.297   1.206   2.923 -0.5687 -0.4593 -0.3081
   36MOL0     C 4737   0.322   1.215   3.076  0.3810 -0.5061  0.2679
   36MOL0     C 4738   0.203   1.199   3.153  0.9014  0.2894 -0.6766
   36MOL0     C 4739   0.227   1.201   3.307 -0.5350 -0.7102 -0.0096
   36MOL0     C 4740   0.259   1.340   3.362  0.0377  0.2083  0.0453
   36MOL0     C 4741   0.412   1.341   3.386  1.0121  0.8628 -0.9850
   36MOL0     N 4742   0.477   1.462   3.436 -0.9396  0.1486  0.8529
   36MOL0     C 4743   0.428   1.592   3.406 -0.4911  0.8541 -0.5731
   36MOL0     C 4744   0.494   1.679   3.474  0.5044  0.9652  1.0321
   36MOL0     C 4745   0.470   1.827   3.460  0.3359 -0.5079 -0.0449
   36MOL0     C 4746   0.497   1.888   3.600  0.3590 -0.1427 -0.4663
   36MOL0     C 4747   0.374   1.858   3.687  0.2377  0.0622 -0.2783
   36MOL0     C 4748   0.412   1.817   3.830 -0.8980  1.6163 -0.1710
   36MOL0     O 4749   0.307   1.832   3.918 -0.4113 -0.1374 -0.0304
   36MOL0     C 4750   0.335   1.751   4.023  0.4469 -1.0828 -1.3640
   36MOL0     C 4751   0.418   1.792   4.128  0.5150 -0.1074 -1.0311
   36MOL0     C 4752   0.435   1.712   4.245 -0.2755  0.1390  0.1146
   36MOL0     C 4753   0.542   1.748   4.348  0.4213 -0.3211 -0.2399
   36MOL0     C 4754   0.367   1.589   4.243 -0.9962  0.5054 -0.0816
   36MOL0     C 4755   0.383   1.498   4.365 -0.3449  0.7659  0.1673
   36MOL0     O 4756   0.487   1.405   4.364  0.5423  0.1357 -0.8657
   36MOL0     C 4757   0.506   1.332   4.484 -0.7617 -0.4533 -0.3423
   36MOL0     C 4758   0.415   1.231   4.530 -0.7803  0.1190  0.1802
   36MOL0     C 4759   0.437   1.165   4.652  0.3688  0.0347 -0.4734
   36MOL0     C 4760   0.542   1.215   4.737  0.4400 -0.0035 -0.3426
   36MOL0     O 4761   0.580   1.166   4.857  0.3735  0.2675 -0.2314
   36MOL0     C 4762   0.549   1.031   4.894  0.5965  0.2364  0.0193
   36MOL0     C 4763   0.557   1.031   5.048  0.4514  0.3986 -0.9096
   36MOL0     C 4764   0.550   0.886   5.101  0.2564  0.1637  0.0627
   36MOL0     C 4765   0.660   0.784   5.056  0.2336 -0.0829  0.4088
   36MOL0     C 4766   0.635   0.644   5.122 -0.0848  0.1757 -1.0121
   36MOL0     C 4767   0.496   0.584   5.080 -1.0396 -0.0444  0.4075
   36MOL0     C 4768   0.485   0.442   5.142  0.1867 -0.5168  0.2948
   36MOL0     C 4769   0.361   0.353   5.108 -0.7932  0.5337 -1.3958
   36MOL0    Cl 4770   0.387   0.299   4.940  0.2839 -0.3655 -0.2386
   36MOL0     C 4771   0.616   1.318   4.687 -0.3082  0.8767 -0.3312
   36MOL0     C 4772   0.610   1.372   4.561  0.5957  0.2800 -0.4255
   36MOL0     O 4773   0.285   1.493   4.430  0.6637  0.0696 -0.8169
   36MOL0     C 4774   0.276   1.559   4.141 -0.5419 -0.4750  0.5422
   36MOL0     C 4775   0.262   1.642   4.033  0.0940  0.5841  1.5466
   36MOL0     N 4776   0.581   1.609   3.548 -1.0407  0.1911  0.2744
   36MOL0     N 4777   0.575   1.484   3.528  0.3468  0.7174  0.0804
   36MOL0     C 4778   0.624   1.590   2.912  0.5211  1.3715 -0.7045
   36MOL0     C 4779   0.644   1.718   2.969  0.0451 -0.0264 -0.2550
   36MOL0     C 4780   0.834   2.013   3.283  0.6174  0.9187  0.4430
   36MOL0     C 4781   0.728   2.101   3.313  0.4245 -0.6516  0.8134
   36MOL0     C 4782   0.742   2.207   3.399  0.3255 -0.7326 -0.2686
   36MOL0     C 4783   0.869   2.234   3.451 -0.0782  0.0898 -0.2576
   36MOL0     O 4784   0.885   2.346   3.538 -0.3145  0.6561 -0.3288
   36MOL0     C 4785   0.906   2.312   3.674 -1.3092  0.2164 -0.0968
   36MOL0     C 4786   0.863   2.426   3.771  0.3359  0.0262 -0.3266
   36MOL0     C 4787   0.901   2.424   3.925  0.3140  1.0838  0.5166
   36MOL0     C 4788   0.829   2.533   4.006 -0.4734  0.9309 -0.2063
   36MOL0     C 4789   0.862   2.671   3.972 -0.2910  0.6259  0.1850
   36MOL0     C 4790   0.877   2.780   3.929  0.3561  0.2184 -0.4417
   36MOL0     C 4791   0.978   2.160   3.405  0.5950 -0.1742 -0.3340
   36MOL0     C 4792   0.954   2.052   3.329 -0.6745  1.1941 -0.0373
   36MOL0     H 4793   0.721   1.619   3.286 -0.6430  0.7716  0.1602
   36MOL0     H 4794   0.652   1.399   3.182 -0.3815  1.5871  1.1683
   36MOL0     H 4795   0.444   1.419   2.840  1.0638  0.1994 -2.2260
   36MOL0     H 4796   0.574   1.331   2.761  0.2242  2.5921 -0.6054
   36MOL0     H 4797   0.383   1.199   2.734  2.2480 -2.9371 -0.8483
   36MOL0     H 4798   0.489   1.124   2.849  2.7342  1.5920 -1.4671
   36MOL0     H 4799   0.233   1.291   2.902 -0.5188  0.4861  2.8420
   36MOL0     H 4800   0.238   1.121   2.887 -0.0160 -1.1442  0.3746
   36MOL0     H 4801   0.393   1.136   3.101  0.6801 -0.2117  0.3566
   36MOL0     H 4802   0.363   1.314   3.097  0.5183 -0.3993 -0.4734
   36MOL0     H 4803   0.135   1.276   3.116  0.4131 -0.4276 -1.2879
   36MOL0     H 4804   0.154   1.103   3.134  0.4347  0.1246  1.2162
   36MOL0     H 4805   0.129   1.173   3.348 -1.7528 -0.2032 -2.3809
   36MOL0     H 4806   0.302   1.125   3.333  2.3868  1.4162 -1.6475
   36MOL0     H 4807   0.246   1.427   3.298  1.4138  0.6228  0.2918
   36MOL0     H 4808   0.202   1.360   3.453  0.4816  1.5303  0.0511
   36MOL0     H 4809   0.470   1.313   3.297  0.8266  1.0713 -1.1703
   36MOL0     H 4810   0.433   1.252   3.446 -0.8339 -0.0878 -1.6798
   36MOL0     H 4811   0.358   1.623   3.329 -0.4228  3.1626  0.2061
   36MOL0     H 4812   0.556   1.874   3.411  2.9897 -3.9285  0.8992
   36MOL0     H 4813   0.382   1.859   3.404  3.2126  2.8399 -3.1880
   36MOL0     H 4814   0.525   1.994   3.602  0.3682 -0.1077 -1.7288
   36MOL0     H 4815   0.582   1.842   3.652 -1.4773 -2.1284  0.9514
   36MOL0     H 4816   0.314   1.789   3.627 -0.9212  2.6021 -2.2377
   36MOL0     H 4817   0.314   1.948   3.702  2.4781  1.3656  1.6657
   36MOL0     H 4818   0.507   1.867   3.851  2.4132 -3.0597 -2.2462
   36MOL0     H 4819   0.441   1.712   3.818  0.4017  2.0318 -0.8643
   36MOL0     H 4820   0.468   1.888   4.128 -2.6691  1.6830 -1.8220
   36MOL0     H 4821   0.509   1.712   4.446 -1.1585 -3.1894 -1.6771
   36MOL0     H 4822   0.637   1.700   4.320  1.6261 -0.4058  3.4454
   36MOL0     H 4823   0.560   1.855   4.345 -0.9556 -0.0575  0.3428
   36MOL0     H 4824   0.331   1.206   4.465 -0.1513 -0.0865 -0.5637
   36MOL0     H 4825   0.372   1.083   4.679 -1.1591  0.8723 -1.4856
   36MOL0     H 4826   0.448   0.997   4.870 -0.8170  2.7043  1.9232
   36MOL0     H 4827   0.617   0.955   4.856  0.4500  0.0621  0.1056
   36MOL0     H 4828   0.648   1.087   5.074  0.7020  0.3980 -1.7633
   36MOL0     H 4829   0.468   1.080   5.087  1.2542  0.9871  0.2586
   36MOL0     H 4830   0.452   0.850   5.068  0.8081  0.3079 -1.8744
   36MOL0     H 4831   0.551   0.879   5.210  3.6393  0.6686  0.1723
   36MOL0     H 4832   0.670   0.784   4.947  0.5650 -0.3651  0.4348
   36MOL0     H 4833   0.748   0.832   5.101 -0.8948  0.1480  2.4814
   36MOL0     H 4834   0.626   0.659   5.230 -1.0292 -0.5325 -0.9834
   36MOL0     H 4835   0.721   0.580   5.097  0.5843  0.6076  0.1036
   36MOL0     H 4836   0.416   0.653   5.106 -0.5878 -0.2487  2.4893
   36MOL0     H 4837   0.492   0.569   4.971 -3.0266 -0.9060  0.5596
   36MOL0     H 4838   0.492   0.441   5.251 -1.1101 -0.1747  0.3965
   36MOL0     H 4839   0.575   0.399   5.095  0.4636  1.2615 -0.8791
   36MOL0     H 4840   0.261   0.395   5.120 -0.9253  0.0157 -0.6092
   36MOL0     H 4841   0.372   0.264   5.170  1.9068  0.7170 -1.4922
   36MOL0     H 4842   0.681   1.362   4.761 -3.8631  1.7818  2.5617
   36MOL0     H 4843   0.672   1.457   4.536  0.1152  1.7282  2.8271
   36MOL0     H 4844   0.208   1.474   4.144 -2.2963  0.8639  3.5155
   36MOL0     H 4845   0.188   1.613   3.960 -1.2628  0.1366  3.0252
   36MOL0     H 4846   0.606   1.572   2.807 -1.1814  2.2692 -0.5942
   36MOL0     H 4847   0.645   1.798   2.895 -1.4012 -0.7615 -1.1067
   36MOL0     H 4848   0.627   2.074   3.283  0.9850 -2.8118  0.6563
   36MOL0     H 4849   0.657   2.266   3.432 -0.4781 -0.2841 -2.8904
   36MOL0     H 4850   0.841   2.226   3.695 -4.2861  1.6729 -2.5219
   36MOL0     H 4851   1.010   2.279   3.682 -0.9365  1.2724 -0.3528
   36MOL0     H 4852   0.758   2.452   3.758  0.8232  0.5601 -4.6872
   36MOL0     H 4853   0.907   2.515   3.726  1.2586 -0.5544 -0.5993
   36MOL0     H 4854   1.010   2.429   3.927  0.3027  2.3126 -0.4189
   36MOL0     H 4855   0.873   2.334   3.980  0.0738  2.2824  2.4555
   36MOL0     H 4856   0.836   2.523   4.115 -2.0761  2.0719  0.0196
   36MOL0     H 4857   0.721   2.518   3.997 -0.0518 -1.8775 -2.0318
   36MOL0     H 4858   0.883   2.885   3.906 -0.6119  1.4872  4.1320
   36MOL0     H 4859   1.077   2.178   3.447  0.2604 -1.6486  1.1717
   36MOL0     H 4860   1.040   1.992   3.300  0.6593  2.9901  0.0764
   37MOL0     O 4861   8.507  11.239  10.825  0.6373  0.2910  0.6272
   37MOL0     C 4862   8.403  11.302  10.801 -0.3124 -0.1151  1.4349
   37MOL0     O 4863   8.385  11.442  10.817 -0.4065  0.6066 -0.3352
   37MOL0     C 4864   8.490  11.515  10.860  0.1186  0.6207  0.4014
   37MOL0     C 4865   8.548  11.614  10.781  0.9226 -0.3777  0.0943
   37MOL0     C 4866   8.640  11.702  10.838 -1.2678  0.3086  0.1200
   37MOL0     C 4867   8.684  11.673  10.962 -0.0185 -0.1739 -0.8834
   37MOL0     O 4868   8.780  11.745  11.025  0.4500 -1.4487  0.3642
   37MOL0     C 4869   8.895  11.771  10.948 -0.0564  0.0768 -0.1386
   37MOL0     C 4870   9.017  11.789  11.034  0.2877  0.4737 -0.4270
   37MOL0     C 4871   9.127  11.868  10.965 -0.5939 -0.1532  1.1765
   37MOL0     C 4872   9.253  11.901  11.056  0.1178  0.0974  0.0394
   37MOL0     C 4873   9.394  11.890  10.993 -0.2871 -0.4277 -0.3512
   37MOL0     C 4874   9.407  11.998  10.889  0.9204 -0.1378  0.9574
   37MOL0     C 4875   9.552  12.019  10.849 -0.4747 -0.6112  0.5181
   37MOL0     C 4876   9.602  11.886  10.780  0.3301 -0.3809  0.0266
   37MOL0     N 4877   9.722  11.880  10.692  0.0022  1.1277 -0.7913
   37MOL0     C 4878   9.836  11.935  10.741 -1.2931  0.3390  0.1919
   37MOL0     C 4879   9.921  11.938  10.639 -0.0062 -1.1102 -0.3600
   37MOL0     C 4880  10.056  11.986  10.653  0.0490  0.6828  0.7473
   37MOL0     C 4881  10.131  11.961  10.522 -0.0738 -0.9968  0.2752
   37MOL0     C 4882  10.278  12.016  10.541  0.4497  0.3545 -1.0103
   37MOL0     C 4883  10.349  12.005  10.416  0.8417 -0.8058  0.8055
   37MOL0     O 4884  10.485  12.037  10.437 -0.1869 -0.5488  0.0775
   37MOL0     C 4885  10.585  11.972  10.359  0.0857 -0.0963 -1.0578
   37MOL0     C 4886  10.558  11.917  10.231 -1.4674  0.6533 -0.9432
   37MOL0     C 4887  10.654  11.832  10.164  0.5638  0.5342  0.3026
   37MOL0     C 4888  10.617  11.783  10.024 -1.1176 -1.3104  0.6077
   37MOL0     C 4889  10.779  11.810  10.222  0.1006  0.0685 -0.9101
   37MOL0     C 4890  10.888  11.714  10.171 -0.6282 -0.3079 -1.0632
   37MOL0     O 4891  11.015  11.727  10.225 -0.1896 -0.3836  0.0497
   37MOL0     C 4892  11.115  11.646  10.179 -0.1470  0.2341  0.3536
   37MOL0     C 4893  11.162  11.654  10.048  0.7520  0.2657  0.0315
   37MOL0     C 4894  11.246  11.550  10.000 -0.0778 -0.0629 -0.5315
   37MOL0     C 4895  11.282  11.444  10.092  0.1144 -0.0085  0.0063
   37MOL0     O 4896  11.353  11.334  10.047  0.8390 -0.2737 -0.2915
   37MOL0     C 4897  11.318  11.286   9.909 -0.2941 -0.0612 -0.5601
   37MOL0     C 4898  11.393  11.157   9.880  0.1725 -0.6960  0.0566
   37MOL0     C 4899  11.357  11.104   9.746  0.4953  0.4725  0.7074
   37MOL0     C 4900  11.435  10.969   9.724 -0.8602  0.7618  0.0509
   37MOL0     C 4901  11.392  10.903   9.592  0.5416  0.0181  0.2008
   37MOL0     C 4902  11.507  10.802   9.541  0.5981  0.2733  0.0748
   37MOL0     C 4903  11.449  10.747   9.406 -0.3597 -0.1095  0.8075
   37MOL0     C 4904  11.498  10.604   9.379 -1.2119 -0.3548  0.6529
   37MOL0    Cl 4905  11.684  10.594   9.413  0.1824 -0.0120  0.5746
   37MOL0     C 4906  11.247  11.454  10.226 -0.6478 -0.3877 -0.1899
   37MOL0     C 4907  11.167  11.557  10.275 -0.2000 -1.4154  0.2656
   37MOL0     O 4908  10.861  11.639  10.081  0.3998  0.1334 -0.4134
   37MOL0     C 4909  10.812  11.891  10.334  0.0711  0.8301 -0.1479
   37MOL0     C 4910  10.713  11.957  10.413  0.0146  0.0396 -0.1918
   37MOL0     N 4911   9.864  11.865  10.541 -0.6650  0.0812 -0.0009
   37MOL0     N 4912   9.738  11.847  10.564  0.1791 -1.0981 -0.2829
   37MOL0     C 4913   8.640  11.567  11.051  0.7793  0.3559 -0.7999
   37MOL0     C 4914   8.537  11.494  10.993  1.3500  0.4311  0.4388
   37MOL0     C 4915   8.284  11.237  10.742 -0.0582 -0.4493  1.6799
   37MOL0     C 4916   8.295  11.116  10.679  1.0769 -0.1724  0.1874
   37MOL0     C 4917   8.175  11.063  10.628 -0.9225 -0.3965 -0.0903
   37MOL0     C 4918   8.052  11.113  10.639  0.5361  0.5100  0.4948
   37MOL0     O 4919   7.950  11.030  10.605  0.1676 -0.0656  0.2191
   37MOL0     C 4920   7.847  11.097  10.541 -0.3010 -0.7785  0.3596
   37MOL0     C 4921   7.749  10.997  10.485 -0.5936  0.0427 -1.0681
   37MOL0     C 4922   7.817  10.887  10.408  0.2079 -0.1998  0.3818
   37MOL0     C 4923   7.726  10.813  10.308 -0.2484  0.3017 -1.2927
   37MOL0     C 4924   7.651  10.883  10.202 -0.2092 -0.4211 -0.1760
   37MOL0     C 4925   7.607  10.941  10.108 -0.5247  0.3368 -0.1729
   37MOL0     C 4926   8.043  11.236  10.711 -0.4479 -0.2996  0.1798
   37MOL0     C 4927   8.162  11.296  10.760 -0.0982  0.4081  0.2733
   37MOL0     H 4928   8.508  11.623  10.681 -4.3362 -0.4453  1.8572
   37MOL0     H 4929   8.674  11.791  10.786 -1.2245  0.6072  0.6572
   37MOL0     H 4930   8.919  11.698  10.870  2.0952  2.5532 -1.9644
   37MOL0     H 4931   8.874  11.859  10.886  1.5568  0.1884 -0.5749
   37MOL0     H 4932   8.988  11.846  11.122 -1.9186 -0.4040 -0.5094
   37MOL0     H 4933   9.053  11.691  11.067  0.7156  0.7892  0.0304
   37MOL0     H 4934   9.158  11.798  10.887 -0.2281  0.4452  0.7850
   37MOL0     H 4935   9.086  11.953  10.910  3.1615  1.3888  0.4559
   37MOL0     H 4936   9.243  12.001  11.100  0.1097 -0.6612  1.8787
   37MOL0     H 4937   9.256  11.838  11.146  0.6987  0.1854  0.0869
   37MOL0     H 4938   9.463  11.913  11.076 -1.5127  2.3990 -0.0093
   37MOL0     H 4939   9.413  11.791  10.952 -2.7822 -0.2369 -2.1781
   37MOL0     H 4940   9.345  11.986  10.800  1.1049  3.4659  0.1659
   37MOL0     H 4941   9.377  12.095  10.930  0.7794  1.1025 -1.8437
   37MOL0     H 4942   9.559  12.104  10.780 -1.3634  0.2141  1.4027
   37MOL0     H 4943   9.607  12.037  10.942  0.7927 -2.3022  0.1334
   37MOL0     H 4944   9.524  11.848  10.713 -1.7913  2.2094  0.8061
   37MOL0     H 4945   9.601  11.813  10.861  0.1602  0.5541  0.8905
   37MOL0     H 4946   9.857  11.967  10.843  3.3977 -0.1608 -0.3975
   37MOL0     H 4947  10.071  12.092  10.676  3.3536  0.6713 -0.7726
   37MOL0     H 4948  10.089  11.928  10.740 -0.5955  1.5694  1.5997
   37MOL0     H 4949  10.083  12.014  10.439  0.7615  1.2602  1.1487
   37MOL0     H 4950  10.127  11.854  10.500  0.2109 -0.7573 -1.0212
   37MOL0     H 4951  10.326  11.956  10.618 -2.4493  0.8917  1.3997
   37MOL0     H 4952  10.280  12.124  10.560  0.9453  0.1043  0.4799
   37MOL0     H 4953  10.319  12.081  10.342  2.1490  1.8292  2.8133
   37MOL0     H 4954  10.343  11.901  10.384  1.0519 -1.1636  1.8988
   37MOL0     H 4955  10.462  11.955  10.199 -2.0503  1.1120  1.2173
   37MOL0     H 4956  10.676  11.835   9.949 -1.1855 -2.9526 -0.6413
   37MOL0     H 4957  10.623  11.676  10.003  1.4024 -0.5346 -3.8244
   37MOL0     H 4958  10.511  11.808  10.009 -1.0671  0.8194  3.1437
   37MOL0     H 4959  11.130  11.727   9.975 -1.6445 -0.6872  0.0329
   37MOL0     H 4960  11.280  11.555   9.897  0.8685 -1.4739 -0.3110
   37MOL0     H 4961  11.213  11.256   9.914  0.1316 -1.5316 -0.1414
   37MOL0     H 4962  11.334  11.361   9.831  3.3007  2.6334  2.4503
   37MOL0     H 4963  11.502  11.168   9.882 -0.0508  2.8432  0.2872
   37MOL0     H 4964  11.354  11.084   9.950 -2.8530  1.3786  0.7166
   37MOL0     H 4965  11.391  11.176   9.672 -0.2047 -1.2236 -1.3744
   37MOL0     H 4966  11.250  11.090   9.728  0.3638  0.5413  1.3839
   37MOL0     H 4967  11.539  11.002   9.727 -0.4765 -0.1176 -1.8741
   37MOL0     H 4968  11.426  10.904   9.811  1.0654  0.2360 -0.0999
   37MOL0     H 4969  11.380  10.984   9.520 -1.3030 -0.8679 -0.5385
   37MOL0     H 4970  11.296  10.857   9.616  0.1128  1.9072  2.3979
   37MOL0     H 4971  11.590  10.868   9.516 -1.4760  2.2605 -2.1740
   37MOL0     H 4972  11.536  10.731   9.619 -2.0214  2.4126  3.2968
   37MOL0     H 4973  11.480  10.820   9.331 -1.4142 -1.3316 -0.8700
   37MOL0     H 4974  11.341  10.740   9.418 -0.1621 -0.0217  3.0313
   37MOL0     H 4975  11.475  10.567   9.279  2.6608  0.6110 -0.7645
   37MOL0     H 4976  11.447  10.536   9.448  0.1960 -0.6080  1.4776
   37MOL0     H 4977  11.282  11.376  10.292 -0.2909  0.6157  0.8343
   37MOL0     H 4978  11.134  11.557  10.378 -0.6726  0.1860  0.1452
   37MOL0     H 4979  10.910  11.887  10.379  1.1213 -0.0670 -2.3558
   37MOL0     H 4980  10.736  12.008  10.506 -2.8080  1.3649 -0.1053
   37MOL0     H 4981   8.692  11.555  11.146  3.1224 -1.5036 -2.1956
   37MOL0     H 4982   8.511  11.400  11.042  2.6455  0.6983  1.7155
   37MOL0     H 4983   8.389  11.064  10.665  1.0030  0.2545 -2.4863
   37MOL0     H 4984   8.177  10.960  10.592 -1.7219  0.1398 -1.8041
   37MOL0     H 4985   7.795  11.178  10.593 -1.4751 -0.7349 -0.8320
   37MOL0     H 4986   7.884  11.138  10.447 -1.7564  2.5972  1.1360
   37MOL0     H 4987   7.682  11.055  10.421 -1.0504  2.2866  1.2665
   37MOL0     H 4988   7.687  10.966  10.570  2.2961  0.6158  1.4492
   37MOL0     H 4989   7.869  10.812  10.469  0.6443 -1.0172 -0.9447
   37MOL0     H 4990   7.891  10.938  10.346 -2.0919  2.1348 -0.6181
   37MOL0     H 4991   7.656  10.757  10.371  0.9781  1.2399  1.0257
   37MOL0     H 4992   7.789  10.733  10.269  0.9565  0.1961  0.7442
   37MOL0     H 4993   7.562  10.997  10.029 -1.1006 -0.9158 -0.7645
   37MOL0     H 4994   7.944  11.281  10.715 -0.8830 -1.0356 -1.5309
   37MOL0     H 4995   8.143  11.396  10.797  0.2848  0.8192 -0.6080
   38MOL0     O 4996   0.705  10.242   9.917  0.0751  0.0629  0.3893
   38MOL0     C 4997   0.790  10.153   9.889  0.6906  0.8677  0.1374
   38MOL0     O 4998   0.758  10.022   9.873  0.3709  0.3915  0.6067
   38MOL0     C 4999   0.642   9.957   9.886 -0.1406 -0.0056 -0.2821
   38MOL0     C 5000   0.522  10.005   9.941  0.3995  0.0448 -0.5672
   38MOL0     C 5001   0.416   9.910   9.961 -0.3042  0.1308 -0.0767
   38MOL0     C 5002   0.425   9.774   9.924  0.6448  0.2917 -0.8526
   38MOL0     O 5003   0.324   9.684   9.948 -0.1937 -0.0473 -0.2062
   38MOL0     C 5004   0.262   9.657   9.825  1.2717  0.5882 -0.0499
   38MOL0     C 5005   0.291   9.511   9.801 -0.3896 -0.7641 -0.2251
   38MOL0     C 5006   0.203   9.451   9.699 -0.1533 -0.3359  1.2778
   38MOL0     C 5007   0.254   9.442   9.557 -0.4768  0.1546 -0.8570
   38MOL0     C 5008   0.157   9.351   9.485  0.2663 -0.3891  0.1829
   38MOL0     C 5009   0.225   9.315   9.350  0.2402  0.3464 -0.2140
   38MOL0     C 5010   0.124   9.245   9.257  0.4669  0.0681  0.4218
   38MOL0     C 5011   0.092   9.099   9.297  0.3929 -0.0047 -0.0679
   38MOL0     N 5012   0.215   9.020   9.302  0.5405  0.6308  0.7776
   38MOL0     C 5013   0.239   8.936   9.415 -0.3720  0.4774 -0.1204
   38MOL0     C 5014   0.364   8.891   9.399  0.2949 -1.1658 -0.1284
   38MOL0     C 5015   0.427   8.782   9.485  0.5504  0.4342  0.6297
   38MOL0     C 5016   0.470   8.825   9.620 -0.2609  0.5341 -0.7532
   38MOL0     C 5017   0.599   8.914   9.615 -0.3926 -0.6365  0.3713
   38MOL0     C 5018   0.660   8.933   9.756 -1.0090  0.2446  0.0709
   38MOL0     O 5019   0.580   9.021   9.841 -0.0784  0.3336  0.1776
   38MOL0     C 5020   0.631   9.070   9.956  1.3716  0.9104  0.0142
   38MOL0     C 5021   0.537   9.145  10.023 -0.4776 -0.6367  0.6187
   38MOL0     C 5022   0.563   9.208  10.138 -0.9224 -0.7139  0.0490
   38MOL0     C 5023   0.439   9.267  10.205 -0.9235 -0.4342  0.4442
   38MOL0     C 5024   0.689   9.201  10.213  0.5462  0.4735  0.0422
   38MOL0     C 5025   0.723   9.271  10.339  1.0130  0.1860  0.1665
   38MOL0     O 5026   0.845   9.250  10.396 -0.0799  0.5658 -0.1625
   38MOL0     C 5027   0.878   9.322  10.506  1.0620  0.0721 -0.6172
   38MOL0     C 5028   0.899   9.460  10.486  0.1105 -0.6066 -0.7253
   38MOL0     C 5029   0.946   9.533  10.593  0.7428 -0.5768 -0.5312
   38MOL0     C 5030   0.974   9.471  10.720  0.2787  0.7246  0.4416
   38MOL0     O 5031   1.032   9.551  10.815  0.2039  0.1567  0.1665
   38MOL0     C 5032   0.984   9.542  10.953 -0.2559  2.0716  0.2993
   38MOL0     C 5033   0.949   9.690  10.997  0.9302 -0.8181  0.2392
   38MOL0     C 5034   0.930   9.710  11.142 -0.6439  0.7087 -0.8494
   38MOL0     C 5035   0.791   9.764  11.175 -0.8717 -0.0607  0.4229
   38MOL0     C 5036   0.773   9.814  11.321 -0.4888 -1.0820 -0.6368
   38MOL0     C 5037   0.847   9.954  11.349 -0.4818  1.5045 -0.0680
   38MOL0     C 5038   0.818  10.066  11.249  0.3198 -0.1868 -0.7245
   38MOL0     C 5039   0.666  10.105  11.242 -0.3745  0.1330  0.3060
   38MOL0    Cl 5040   0.606  10.159  11.404 -0.3603 -0.1765 -0.2122
   38MOL0     C 5041   0.957   9.333  10.732 -0.6870  0.7755  0.3943
   38MOL0     C 5042   0.907   9.261  10.623 -0.8260  0.1771 -0.3175
   38MOL0     O 5043   0.631   9.330  10.401  0.3211 -1.1211 -1.0902
   38MOL0     C 5044   0.782   9.118  10.143 -0.2513 -0.7701 -0.3264
   38MOL0     C 5045   0.750   9.047  10.021 -0.1195 -0.2036 -0.5330
   38MOL0     N 5046   0.420   8.961   9.289 -0.0071 -0.1796 -0.2149
   38MOL0     N 5047   0.329   9.041   9.231  0.2372 -0.3870  0.3846
   38MOL0     C 5048   0.540   9.727   9.864 -0.2602 -0.1537  0.4369
   38MOL0     C 5049   0.643   9.820   9.838 -1.0562 -0.2937 -0.8920
   38MOL0     C 5050   0.934  10.195   9.886 -0.1242  0.3915 -0.7628
   38MOL0     C 5051   0.969  10.321   9.841  0.2420 -0.3513 -0.0305
   38MOL0     C 5052   1.099  10.371   9.844  0.8268  1.0271  0.6842
   38MOL0     C 5053   1.198  10.296   9.892  0.4070  0.2311 -0.2598
   38MOL0     O 5054   1.322  10.356   9.899 -0.3317  0.3722 -0.4676
   38MOL0     C 5055   1.432  10.265   9.922 -0.5142 -0.5982 -0.4476
   38MOL0     C 5056   1.560  10.338   9.870  0.5493  0.7036  0.0433
   38MOL0     C 5057   1.597  10.465   9.950  0.1170 -1.3677 -0.1012
   38MOL0     C 5058   1.673  10.564   9.854 -0.2769  0.7243 -0.3102
   38MOL0     C 5059   1.606  10.632   9.743 -0.6434 -0.1407 -0.3406
   38MOL0     C 5060   1.549  10.697   9.660 -0.1175 -0.7641 -0.2237
   38MOL0     C 5061   1.172  10.169   9.946 -0.3087  0.3468 -0.0742
   38MOL0     C 5062   1.041  10.119   9.935  0.2810  0.1292 -0.2016
   38MOL0     H 5063   0.522  10.108   9.976 -3.1825  1.0466 -2.9460
   38MOL0     H 5064   0.319   9.943   9.998 -1.2376  0.4858 -2.6546
   38MOL0     H 5065   0.154   9.670   9.824  0.5886 -3.5570  0.9649
   38MOL0     H 5066   0.306   9.711   9.741  1.7883 -0.5012 -0.5009
   38MOL0     H 5067   0.394   9.479   9.784 -0.7531 -0.3546 -4.2283
   38MOL0     H 5068   0.255   9.461   9.891  1.0511 -0.4229  0.5681
   38MOL0     H 5069   0.202   9.346   9.730  0.6940 -1.0197 -0.7948
   38MOL0     H 5070   0.096   9.474   9.705 -0.1586  0.3933 -0.8073
   38MOL0     H 5071   0.271   9.537   9.505  0.3339  2.3488  2.9969
   38MOL0     H 5072   0.351   9.391   9.553 -1.6131 -2.2477  0.3786
   38MOL0     H 5073   0.122   9.263   9.541 -1.2559  0.1804  0.1723
   38MOL0     H 5074   0.069   9.414   9.468  0.2330 -0.6962 -0.8582
   38MOL0     H 5075   0.254   9.402   9.290  1.1272 -1.9939 -3.4629
   38MOL0     H 5076   0.317   9.258   9.366  0.5694 -0.1394 -3.1494
   38MOL0     H 5077   0.029   9.300   9.253  1.1213  1.1458 -1.0084
   38MOL0     H 5078   0.162   9.225   9.157 -3.6190 -1.8402 -0.9572
   38MOL0     H 5079   0.033   9.050   9.218  0.4486  0.7143 -0.5648
   38MOL0     H 5080   0.037   9.107   9.392 -1.2529  0.8672 -1.0357
   38MOL0     H 5081   0.172   8.899   9.492 -4.1247  0.5644 -2.9867
   38MOL0     H 5082   0.353   8.703   9.502  1.1798  0.3871  3.9855
   38MOL0     H 5083   0.512   8.740   9.430 -1.6002 -1.4389 -1.4311
   38MOL0     H 5084   0.494   8.737   9.681 -1.9409  1.8606  2.0300
   38MOL0     H 5085   0.392   8.877   9.676 -1.8413 -2.6088  0.2020
   38MOL0     H 5086   0.569   9.014   9.585 -0.8516  0.5347  4.1320
   38MOL0     H 5087   0.674   8.878   9.544  1.3429 -1.1328  2.3287
   38MOL0     H 5088   0.763   8.965   9.740 -0.1342 -1.6739  1.4539
   38MOL0     H 5089   0.665   8.840   9.814  1.2613  0.5611  0.4558
   38MOL0     H 5090   0.439   9.135   9.977 -0.1264  2.7788 -1.2119
   38MOL0     H 5091   0.455   9.370  10.239  0.5230 -1.2157  2.2727
   38MOL0     H 5092   0.352   9.266  10.138 -0.0971 -4.1335 -0.7864
   38MOL0     H 5093   0.419   9.195  10.285  1.1754 -1.0557  0.4589
   38MOL0     H 5094   0.889   9.498  10.385 -3.2104 -0.4869 -0.4609
   38MOL0     H 5095   0.951   9.642  10.588 -0.7827 -0.2684  2.2950
   38MOL0     H 5096   0.893   9.482  10.941  0.2926  1.6848 -2.6258
   38MOL0     H 5097   1.067   9.499  11.010 -1.4095 -0.3898  0.2420
   38MOL0     H 5098   1.035   9.754  10.976 -1.3205  2.7281  0.8729
   38MOL0     H 5099   0.856   9.720  10.948 -1.4976 -1.0692  4.2279
   38MOL0     H 5100   1.000   9.790  11.167 -1.0538  0.6848  0.5009
   38MOL0     H 5101   0.959   9.624  11.204 -0.4071  1.5835  0.2829
   38MOL0     H 5102   0.753   9.840  11.106  1.5412 -0.7677 -1.8543
   38MOL0     H 5103   0.724   9.677  11.170 -0.2861 -0.6772  2.3769
   38MOL0     H 5104   0.810   9.738  11.390  0.4624 -1.2456 -1.3106
   38MOL0     H 5105   0.667   9.827  11.345  0.5874  2.7535  3.3921
   38MOL0     H 5106   0.821   9.977  11.453  2.6907 -0.4792  1.3027
   38MOL0     H 5107   0.956   9.943  11.351 -0.5858  0.4948  0.8799
   38MOL0     H 5108   0.868  10.025  11.161 -0.6635 -0.7795 -1.0198
   38MOL0     H 5109   0.876  10.155  11.276  1.1066 -0.3566 -1.7903
   38MOL0     H 5110   0.599  10.026  11.207 -1.9336  1.8262 -0.7392
   38MOL0     H 5111   0.659  10.191  11.174  2.2858 -0.8551 -1.3543
   38MOL0     H 5112   0.997   9.273  10.812 -0.1157  0.9768  0.2714
   38MOL0     H 5113   0.883   9.156  10.627 -1.0997  0.2728  2.0800
   38MOL0     H 5114   0.879   9.104  10.190  0.0803 -1.2787 -1.1359
   38MOL0     H 5115   0.821   8.981   9.971 -0.7612 -1.4429  0.1650
   38MOL0     H 5116   0.530   9.620   9.849 -0.4939 -0.2379  1.1429
   38MOL0     H 5117   0.733   9.778   9.794  0.9733  0.8754  1.8610
   38MOL0     H 5118   0.887  10.385   9.811 -0.4031 -1.4766 -0.7749
   38MOL0     H 5119   1.116  10.472   9.807 -0.5397  0.5934 -1.3234
   38MOL0     H 5120   1.452  10.231  10.024  1.6735  0.9408 -0.2835
   38MOL0     H 5121   1.423  10.172   9.865  1.5382 -2.3804  1.9009
   38MOL0     H 5122   1.538  10.370   9.767 -0.8701  2.4591  0.8299
   38MOL0     H 5123   1.642  10.265   9.868 -0.4878 -0.4753 -1.2896
   38MOL0     H 5124   1.663  10.436  10.032  0.6075  0.8373  0.3354
   38MOL0     H 5125   1.505  10.517   9.976  2.1664  2.7150 -0.2439
   38MOL0     H 5126   1.773  10.527   9.828  0.0085 -0.9054  2.6704
   38MOL0     H 5127   1.703  10.638   9.929  1.4759 -0.6921  0.4608
   38MOL0     H 5128   1.495  10.774   9.609  1.4615 -0.4987 -1.6013
   38MOL0     H 5129   1.249  10.104   9.987 -0.6608 -2.1464 -3.0185
   38MOL0     H 5130   1.015  10.025   9.983 -0.2266  1.3920  2.1761
   39MOL0     O 5131   4.733   9.849   6.945 -0.0372 -0.4707  0.3175
   39MOL0     C 5132   4.641   9.903   7.006  0.0676 -0.0040  0.7102
   39MOL0     O 5133   4.639   9.929   7.139 -0.1177  0.3880  0.5910
   39MOL0     C 5134   4.743   9.922   7.220  0.3230  0.4178  0.2274
   39MOL0     C 5135   4.880   9.892   7.201 -0.5658 -0.5393  0.5251
   39MOL0     C 5136   4.965   9.879   7.313 -0.3359  0.0691  0.5704
   39MOL0     C 5137   4.926   9.903   7.442 -0.4138 -0.5521  0.2602
   39MOL0     O 5138   5.023   9.876   7.538  0.2222  0.1440  0.4549
   39MOL0     C 5139   4.988   9.896   7.681 -0.7785 -0.5256  0.7819
   39MOL0     C 5140   4.926   9.765   7.726 -0.1535 -1.4645 -1.1077
   39MOL0     C 5141   5.016   9.646   7.726  0.4635 -0.9411 -0.2730
   39MOL0     C 5142   4.991   9.577   7.861 -0.0875  0.7656 -0.6176
   39MOL0     C 5143   5.057   9.445   7.874 -0.0242 -0.5656 -0.1577
   39MOL0     C 5144   5.012   9.353   7.765  0.2019 -0.5884 -0.9066
   39MOL0     C 5145   5.032   9.204   7.804  0.8715  0.3237 -0.0577
   39MOL0     C 5146   5.023   9.107   7.680 -1.1158 -1.0411  0.2783
   39MOL0     N 5147   5.125   9.147   7.587  0.2064 -1.0240  0.2212
   39MOL0     C 5148   5.087   9.179   7.456  0.1955 -0.3964  0.1322
   39MOL0     C 5149   5.216   9.203   7.402 -0.1136  0.3278 -0.2151
   39MOL0     C 5150   5.256   9.229   7.259 -0.3278  0.4082  0.2646
   39MOL0     C 5151   5.314   9.103   7.187  0.5051 -0.3755  0.3416
   39MOL0     C 5152   5.462   9.077   7.221  0.5632  0.4827  0.4200
   39MOL0     C 5153   5.532   9.016   7.094 -0.0530 -0.3034  0.6646
   39MOL0     O 5154   5.557   9.107   6.983  0.4894  0.4123  0.2715
   39MOL0     C 5155   5.648   9.073   6.894  0.8003  0.3049  0.4324
   39MOL0     C 5156   5.684   9.174   6.804  0.4948  1.3424 -1.0230
   39MOL0     C 5157   5.789   9.152   6.714  0.1859 -0.5016  0.2045
   39MOL0     C 5158   5.827   9.268   6.632 -0.7474  0.3315  0.0315
   39MOL0     C 5159   5.851   9.029   6.705  0.3198  0.3843 -0.4039
   39MOL0     C 5160   5.933   8.982   6.595 -0.6998 -0.3685 -0.1861
   39MOL0     O 5161   5.967   8.853   6.575 -0.1215 -0.3295 -0.7869
   39MOL0     C 5162   6.070   8.822   6.488  0.2726 -0.2274 -0.1568
   39MOL0     C 5163   6.047   8.834   6.346 -1.4305  0.8270  0.3260
   39MOL0     C 5164   6.150   8.784   6.255 -0.1316 -0.3001 -0.9655
   39MOL0     C 5165   6.275   8.743   6.306  0.4368  0.6360  0.7421
   39MOL0     O 5166   6.377   8.689   6.223  0.9517 -1.2361 -0.5037
   39MOL0     C 5167   6.402   8.736   6.095 -0.6873 -0.5783 -0.6471
   39MOL0     C 5168   6.544   8.690   6.049 -0.2543  0.7039 -0.1503
   39MOL0     C 5169   6.557   8.552   5.977  0.6223  0.3949 -0.8543
   39MOL0     C 5170   6.512   8.564   5.830  0.3808  1.8263 -0.2379
   39MOL0     C 5171   6.516   8.427   5.755 -0.4062 -0.3467 -0.6028
   39MOL0     C 5172   6.653   8.370   5.743 -1.0218 -0.7032  1.1931
   39MOL0     C 5173   6.654   8.242   5.646  0.3554  0.3203 -0.4068
   39MOL0     C 5174   6.643   8.110   5.720 -0.3923  0.4154  0.1925
   39MOL0    Cl 5175   6.620   7.972   5.599 -0.1050  0.2722  0.1812
   39MOL0     C 5176   6.290   8.730   6.439 -0.9980  0.4269 -0.4326
   39MOL0     C 5177   6.189   8.757   6.524 -0.0276  0.2001 -0.1139
   39MOL0     O 5178   5.978   9.073   6.528 -0.4922  0.0388 -0.5927
   39MOL0     C 5179   5.823   8.929   6.799 -0.3224  1.1002  0.3533
   39MOL0     C 5180   5.717   8.942   6.891  0.2362 -0.5565 -0.0064
   39MOL0     N 5181   5.313   9.196   7.499 -0.5052  1.0515 -0.8693
   39MOL0     N 5182   5.256   9.164   7.616  0.5806  0.1857 -0.0298
   39MOL0     C 5183   4.792   9.931   7.457 -0.1231  0.2769  0.7348
   39MOL0     C 5184   4.704   9.945   7.350 -0.1815  0.1248  1.5859
   39MOL0     C 5185   4.519   9.941   6.934 -0.7643  0.1894  0.3619
   39MOL0     C 5186   4.397   9.956   7.009 -0.3076  0.3248 -0.0302
   39MOL0     C 5187   4.283   9.995   6.954 -0.7062  1.2872 -0.2723
   39MOL0     C 5188   4.274  10.001   6.814 -0.0040 -0.3846  0.8384
   39MOL0     O 5189   4.159  10.048   6.751  0.0556  0.1179 -0.4210
   39MOL0     C 5190   4.154  10.187   6.722 -0.1692 -0.9932  0.8539
   39MOL0     C 5191   4.011  10.224   6.687 -0.6285 -0.0319 -0.5265
   39MOL0     C 5192   3.964  10.164   6.552 -0.7610  0.6591  0.0818
   39MOL0     C 5193   3.828  10.221   6.500 -0.0044 -0.8239  0.8346
   39MOL0     C 5194   3.796  10.199   6.355  0.1259  0.3768  0.3816
   39MOL0     C 5195   3.772  10.187   6.237  0.0171 -1.0438 -0.5476
   39MOL0     C 5196   4.390   9.996   6.740  0.3330 -0.1626  1.0029
   39MOL0     C 5197   4.516   9.957   6.796  0.3957 -0.4923  0.9523
   39MOL0     H 5198   4.921   9.871   7.103 -0.9497  0.1680  0.2012
   39MOL0     H 5199   5.071   9.863   7.302 -0.0540  1.5785  0.8732
   39MOL0     H 5200   5.079   9.902   7.742 -0.2577  0.6579 -0.0564
   39MOL0     H 5201   4.932   9.990   7.690 -0.2966  0.0872 -1.6728
   39MOL0     H 5202   4.881   9.793   7.822  2.0168  2.6400 -1.0694
   39MOL0     H 5203   4.847   9.749   7.652 -0.6593  2.8399 -1.7675
   39MOL0     H 5204   4.977   9.577   7.650 -1.6889  0.6462 -0.6991
   39MOL0     H 5205   5.125   9.654   7.714  0.4282  1.8258  0.5560
   39MOL0     H 5206   5.015   9.652   7.938 -0.0001  1.3491 -1.1999
   39MOL0     H 5207   4.884   9.559   7.876  0.6772 -4.3241  0.5603
   39MOL0     H 5208   5.163   9.471   7.866  0.1921 -1.7601 -1.7273
   39MOL0     H 5209   5.008   9.412   7.966 -2.8455  1.1068 -0.9540
   39MOL0     H 5210   4.906   9.374   7.749  0.3033  2.3316  1.3966
   39MOL0     H 5211   5.074   9.372   7.677  0.3970  0.4728 -0.5595
   39MOL0     H 5212   5.133   9.201   7.845  1.5827 -0.3085 -1.7543
   39MOL0     H 5213   4.962   9.171   7.881  1.5786 -2.8390 -0.6271
   39MOL0     H 5214   4.923   9.092   7.638 -1.6890 -2.0061  1.8892
   39MOL0     H 5215   5.045   9.005   7.712  0.2568 -0.0427  2.7766
   39MOL0     H 5216   4.995   9.160   7.403  0.7574 -1.9342 -0.3465
   39MOL0     H 5217   5.170   9.261   7.199 -1.3819 -1.5952  0.6098
   39MOL0     H 5218   5.325   9.313   7.255 -0.7698  0.7293 -2.0276
   39MOL0     H 5219   5.308   9.112   7.078 -4.0398 -1.8213  0.2428
   39MOL0     H 5220   5.266   9.010   7.217  1.1920 -0.7374  0.3362
   39MOL0     H 5221   5.458   9.010   7.307  0.8231  1.2269  1.0271
   39MOL0     H 5222   5.503   9.175   7.248 -0.9055  0.9801  0.9854
   39MOL0     H 5223   5.478   8.926   7.064 -1.4430  1.5305 -2.9144
   39MOL0     H 5224   5.627   8.980   7.135 -0.7725 -1.7219  1.1111
   39MOL0     H 5225   5.630   9.266   6.823 -1.0054  0.6716 -1.8537
   39MOL0     H 5226   5.769   9.360   6.650  0.9840  1.8021 -1.5096
   39MOL0     H 5227   5.933   9.294   6.629 -0.8525  1.7050  3.4861
   39MOL0     H 5228   5.792   9.243   6.532 -0.5023 -0.3637  0.1156
   39MOL0     H 5229   5.950   8.840   6.298 -1.7457 -1.8774  0.4605
   39MOL0     H 5230   6.117   8.767   6.153 -1.8666 -0.1648 -0.4496
   39MOL0     H 5231   6.326   8.705   6.023  2.3752 -0.3394 -4.3044
   39MOL0     H 5232   6.402   8.845   6.100  0.6480 -0.4088 -2.7397
   39MOL0     H 5233   6.594   8.764   5.986  1.6828  1.1341  1.7881
   39MOL0     H 5234   6.607   8.689   6.138 -2.1631  0.0569  1.2767
   39MOL0     H 5235   6.505   8.471   6.030 -1.1784  0.9329 -1.7203
   39MOL0     H 5236   6.664   8.532   5.975  0.7780  1.2125 -1.9285
   39MOL0     H 5237   6.411   8.605   5.825  0.2103  1.2987 -4.1019
   39MOL0     H 5238   6.577   8.635   5.777  4.0184  0.3232  1.8335
   39MOL0     H 5239   6.486   8.441   5.651 -0.7082 -2.9885 -0.9291
   39MOL0     H 5240   6.445   8.362   5.806 -0.3767  1.0816  1.3991
   39MOL0     H 5241   6.721   8.452   5.717 -0.3964 -0.6665  2.8308
   39MOL0     H 5242   6.686   8.341   5.843  1.1646 -0.6884  0.5441
   39MOL0     H 5243   6.739   8.231   5.578 -0.9404  0.8658 -2.1887
   39MOL0     H 5244   6.566   8.248   5.582 -1.1994 -1.7591  1.3857
   39MOL0     H 5245   6.563   8.116   5.795 -1.9682  4.7006 -1.5417
   39MOL0     H 5246   6.738   8.097   5.773 -1.0611 -0.1988  1.2687
   39MOL0     H 5247   6.385   8.694   6.478 -1.5641  0.7259  1.3038
   39MOL0     H 5248   6.207   8.746   6.630  0.5126  3.1569  0.1708
   39MOL0     H 5249   5.883   8.839   6.799 -1.9946 -0.1731  3.4073
   39MOL0     H 5250   5.701   8.868   6.969  0.8511  0.0368  0.7063
   39MOL0     H 5251   4.753   9.963   7.553  2.6720  3.6320  0.9586
   39MOL0     H 5252   4.598   9.952   7.372 -1.2718 -3.5756 -1.4273
   39MOL0     H 5253   4.408   9.927   7.113  1.6565  3.0267  0.6184
   39MOL0     H 5254   4.187  10.002   7.004 -1.1293  0.8916 -1.0042
   39MOL0     H 5255   4.183  10.235   6.816  1.3997 -2.8512  1.4024
   39MOL0     H 5256   4.220  10.225   6.643  0.0469 -0.1411  1.4264
   39MOL0     H 5257   4.016  10.333   6.676 -1.5274  0.0309 -0.3954
   39MOL0     H 5258   3.955  10.197   6.777  0.5723 -0.1668  0.2137
   39MOL0     H 5259   3.961  10.055   6.562 -0.1072  0.3250 -2.5230
   39MOL0     H 5260   4.037  10.181   6.472 -3.1568  2.1268 -1.9590
   39MOL0     H 5261   3.821  10.326   6.529  0.7401 -0.5206 -0.0289
   39MOL0     H 5262   3.744  10.174   6.551  0.0118  0.0367  1.6814
   39MOL0     H 5263   3.761  10.191   6.131  0.7086 -1.2216 -0.6290
   39MOL0     H 5264   4.377  10.004   6.632 -3.7636 -1.9037  1.2042
   39MOL0     H 5265   4.609   9.954   6.741 -0.5048 -4.2695 -0.6988
   40MOL0     O 5266   8.784   5.917   8.038  0.7179 -0.3114  0.0201
   40MOL0     C 5267   8.728   5.807   8.031  0.0191 -0.5663 -0.2653
   40MOL0     O 5268   8.617   5.782   7.960  0.2769 -0.5708 -0.1222
   40MOL0     C 5269   8.543   5.896   7.910 -0.3317  0.5597  0.5513
   40MOL0     C 5270   8.467   5.978   7.992 -0.2658 -0.5837 -0.2569
   40MOL0     C 5271   8.392   6.083   7.941  0.8159  0.1201 -0.2516
   40MOL0     C 5272   8.401   6.123   7.811  1.1032  0.2205  0.2568
   40MOL0     O 5273   8.316   6.219   7.765 -0.0496  1.1526  0.1554
   40MOL0     C 5274   8.364   6.348   7.786 -0.4849 -0.6146 -0.6385
   40MOL0     C 5275   8.460   6.396   7.672 -0.0895 -0.0316 -0.5985
   40MOL0     C 5276   8.414   6.359   7.531  1.0781  0.5203 -0.0239
   40MOL0     C 5277   8.522   6.399   7.438  0.5831  0.2397 -0.5873
   40MOL0     C 5278   8.460   6.461   7.307 -0.1195 -0.2888 -1.5024
   40MOL0     C 5279   8.563   6.497   7.205 -1.0191  0.3731  0.2703
   40MOL0     C 5280   8.486   6.532   7.078 -0.3751 -0.0795  0.5357
   40MOL0     C 5281   8.565   6.539   6.951 -0.3485 -0.1413  0.9652
   40MOL0     N 5282   8.665   6.640   6.963 -0.1979 -0.4250  1.0881
   40MOL0     C 5283   8.670   6.767   6.903  0.6268  0.5641  0.9514
   40MOL0     C 5284   8.780   6.815   6.963  0.3634  0.1307 -0.5744
   40MOL0     C 5285   8.820   6.956   6.975  0.0560 -0.1947  0.7157
   40MOL0     C 5286   8.721   7.052   7.043 -0.2498 -0.1180 -0.5809
   40MOL0     C 5287   8.729   7.038   7.202  0.0751 -1.2386  0.5773
   40MOL0     C 5288   8.850   7.096   7.268 -1.5002  0.0900  0.2696
   40MOL0     O 5289   8.821   7.165   7.393 -0.4215 -0.1090 -0.2152
   40MOL0     C 5290   8.922   7.194   7.480 -0.8427  0.1682 -0.7834
   40MOL0     C 5291   9.040   7.245   7.440 -0.0718 -0.5122 -0.7210
   40MOL0     C 5292   9.133   7.283   7.542  0.8596 -0.5047  0.3906
   40MOL0     C 5293   9.268   7.332   7.489 -0.1405  0.9328  0.0300
   40MOL0     C 5294   9.094   7.286   7.678 -0.3274  0.1697  0.3935
   40MOL0     C 5295   9.181   7.332   7.784 -1.1620 -0.1536  0.9150
   40MOL0     O 5296   9.188   7.248   7.894 -0.0012  0.6326 -0.1102
   40MOL0     C 5297   9.222   7.288   8.020 -0.4598  0.1265  0.5917
   40MOL0     C 5298   9.219   7.417   8.072  0.1356 -0.2322  0.6804
   40MOL0     C 5299   9.280   7.459   8.189  0.3373  0.2503  0.0386
   40MOL0     C 5300   9.334   7.349   8.266  0.1849  0.7161 -0.0281
   40MOL0     O 5301   9.421   7.376   8.372 -0.1398 -0.6586  0.5002
   40MOL0     C 5302   9.558   7.365   8.335 -0.2436 -0.1849  0.4992
   40MOL0     C 5303   9.659   7.470   8.378  0.5616 -0.2995  0.2231
   40MOL0     C 5304   9.636   7.600   8.298 -0.5858 -0.4028  0.5746
   40MOL0     C 5305   9.756   7.704   8.304 -0.2655 -0.6111  0.5605
   40MOL0     C 5306   9.727   7.821   8.211 -0.0509  0.7680 -0.0159
   40MOL0     C 5307   9.836   7.924   8.202 -0.4492 -0.4239 -0.4102
   40MOL0     C 5308   9.797   8.044   8.118 -0.7475 -0.4508  0.0596
   40MOL0     C 5309   9.873   8.169   8.144  0.9151  0.2274  0.3911
   40MOL0    Cl 5310   9.878   8.204   8.313 -0.0094  0.0004  0.2488
   40MOL0     C 5311   9.315   7.211   8.231  0.0887 -0.3119 -0.8830
   40MOL0     C 5312   9.263   7.183   8.101 -1.1879 -0.3070  0.7094
   40MOL0     O 5313   9.226   7.444   7.775 -0.6604  0.3320 -0.1548
   40MOL0     C 5314   8.958   7.235   7.716 -1.0577 -0.5199 -0.3492
   40MOL0     C 5315   8.875   7.199   7.617  0.5483 -0.1904  0.5283
   40MOL0     N 5316   8.861   6.708   7.011  0.1870 -0.2719 -0.2947
   40MOL0     N 5317   8.782   6.604   7.025 -0.2691 -0.9408 -0.2775
   40MOL0     C 5318   8.486   6.051   7.721  0.0441 -0.1323 -0.2585
   40MOL0     C 5319   8.549   5.933   7.772  0.5595  0.0194 -0.0014
   40MOL0     C 5320   8.786   5.702   8.105  0.3492  1.3845  0.0502
   40MOL0     C 5321   8.918   5.708   8.157 -0.8176  0.6647 -1.0701
   40MOL0     C 5322   8.970   5.593   8.237  0.5732 -0.2592 -0.0617
   40MOL0     C 5323   8.886   5.483   8.267 -0.1041 -0.2265 -0.5983
   40MOL0     O 5324   8.927   5.367   8.322  0.0635  0.4238  0.9999
   40MOL0     C 5325   9.043   5.388   8.402 -0.1878  0.0895  0.3213
   40MOL0     C 5326   9.041   5.266   8.500 -0.1116  0.5982  0.1340
   40MOL0     C 5327   9.103   5.298   8.634 -0.3656  0.9560  0.0304
   40MOL0     C 5328   9.011   5.242   8.747 -0.1366  0.6195 -0.4379
   40MOL0     C 5329   9.085   5.252   8.868  0.3140 -0.6286 -0.5491
   40MOL0     C 5330   9.149   5.257   8.966  0.9051 -0.7799  0.2166
   40MOL0     C 5331   8.760   5.478   8.213  0.1405  0.2156 -1.5566
   40MOL0     C 5332   8.720   5.584   8.130 -0.1380  0.3290 -0.6582
   40MOL0     H 5333   8.455   5.943   8.094  2.5387 -0.5313  0.1777
   40MOL0     H 5334   8.322   6.129   8.011 -1.8247 -3.5207 -0.2277
   40MOL0     H 5335   8.271   6.406   7.785 -0.3863 -0.4612 -1.1280
   40MOL0     H 5336   8.415   6.368   7.881  0.5869  2.7999 -1.7904
   40MOL0     H 5337   8.460   6.505   7.672 -1.9238  0.0037 -1.2335
   40MOL0     H 5338   8.559   6.352   7.690 -0.1161 -0.2165 -0.8978
   40MOL0     H 5339   8.387   6.254   7.521  0.9728  0.3280  1.8964
   40MOL0     H 5340   8.321   6.416   7.519  0.5981  0.1852  1.7100
   40MOL0     H 5341   8.589   6.458   7.502 -0.1840  0.4148  0.0813
   40MOL0     H 5342   8.581   6.311   7.412  1.5579  1.1085 -1.4155
   40MOL0     H 5343   8.387   6.391   7.266  0.8120 -2.1815 -0.0866
   40MOL0     H 5344   8.399   6.549   7.329  1.2135  0.1556  0.7867
   40MOL0     H 5345   8.626   6.576   7.246  1.4838 -1.7158  0.7321
   40MOL0     H 5346   8.627   6.410   7.187 -1.0694  0.1673  1.0310
   40MOL0     H 5347   8.415   6.452   7.052  0.7046 -0.5114 -1.2834
   40MOL0     H 5348   8.440   6.630   7.089  0.2105  0.1981  0.5305
   40MOL0     H 5349   8.496   6.571   6.872 -2.1309  1.2623  2.9615
   40MOL0     H 5350   8.619   6.448   6.922  1.2905  0.9257  0.5401
   40MOL0     H 5351   8.603   6.810   6.830  2.5737  0.3235 -1.0971
   40MOL0     H 5352   8.920   6.984   7.010  0.4011  1.9882 -1.6771
   40MOL0     H 5353   8.829   6.979   6.868  3.6496 -1.6011  0.5738
   40MOL0     H 5354   8.618   7.030   7.014 -0.3389 -0.0633 -0.3183
   40MOL0     H 5355   8.724   7.159   7.019 -2.8620  0.8269  2.5973
   40MOL0     H 5356   8.714   6.931   7.216  0.8016 -2.6308 -6.1434
   40MOL0     H 5357   8.653   7.111   7.232  2.5420  2.8238 -2.1121
   40MOL0     H 5358   8.881   7.173   7.197 -0.6783 -0.9738 -0.5691
   40MOL0     H 5359   8.922   7.014   7.269  0.1071  1.4246 -1.1761
   40MOL0     H 5360   9.071   7.237   7.336  0.8506  0.8446 -0.5696
   40MOL0     H 5361   9.276   7.441   7.487 -1.6688  1.0611 -0.1437
   40MOL0     H 5362   9.350   7.290   7.548 -1.4732 -1.0022  0.6141
   40MOL0     H 5363   9.296   7.285   7.394 -1.4761 -2.3236  1.1079
   40MOL0     H 5364   9.165   7.492   8.014 -1.6234 -1.5522  0.5117
   40MOL0     H 5365   9.268   7.559   8.228  0.3899 -0.2922  1.5406
   40MOL0     H 5366   9.577   7.266   8.377 -2.5607 -0.3793  1.2596
   40MOL0     H 5367   9.567   7.346   8.227 -0.9643 -1.1422  0.5876
   40MOL0     H 5368   9.650   7.489   8.485 -2.3790 -0.3219  0.0672
   40MOL0     H 5369   9.756   7.422   8.358  1.9559  1.7054  1.7801
   40MOL0     H 5370   9.545   7.649   8.335  0.1153  1.2382  0.1954
   40MOL0     H 5371   9.613   7.577   8.194  1.2009 -0.4310  0.1534
   40MOL0     H 5372   9.772   7.744   8.405  0.0587 -1.8362  1.0165
   40MOL0     H 5373   9.854   7.663   8.277  0.4957  1.5942 -0.2732
   40MOL0     H 5374   9.637   7.862   8.257 -2.4672 -4.9236  1.1247
   40MOL0     H 5375   9.707   7.779   8.112  1.6863  0.6414 -0.3513
   40MOL0     H 5376   9.870   7.943   8.305  2.0091 -2.4202 -0.7416
   40MOL0     H 5377   9.915   7.869   8.150  0.7388 -0.5064  1.3799
   40MOL0     H 5378   9.689   8.058   8.130 -0.6546  1.4253 -0.8423
   40MOL0     H 5379   9.821   8.024   8.013  2.3124 -1.7052  0.9001
   40MOL0     H 5380   9.850   8.263   8.093 -1.0691  0.3835  1.4654
   40MOL0     H 5381   9.974   8.145   8.112 -0.3404 -4.3928 -0.8948
   40MOL0     H 5382   9.348   7.134   8.300 -0.9320  1.6491  1.9797
   40MOL0     H 5383   9.262   7.084   8.057 -1.4588  0.4253 -1.0606
   40MOL0     H 5384   8.943   7.228   7.823  5.5399 -1.0823  1.0029
   40MOL0     H 5385   8.775   7.160   7.634  0.4273 -1.1430 -2.0107
   40MOL0     H 5386   8.491   6.064   7.614 -1.8192 -2.6860 -0.7703
   40MOL0     H 5387   8.602   5.873   7.699 -0.2713  1.8735 -2.2604
   40MOL0     H 5388   8.981   5.792   8.129 -0.7779  1.0876  0.2186
   40MOL0     H 5389   9.069   5.611   8.277 -0.0724 -0.5666  1.7737
   40MOL0     H 5390   9.137   5.395   8.347 -0.7754  1.2870 -0.5907
   40MOL0     H 5391   9.037   5.487   8.447  2.2890  2.2795 -3.5562
   40MOL0     H 5392   9.092   5.182   8.453 -1.4920 -0.9460  1.2723
   40MOL0     H 5393   8.936   5.237   8.517 -0.4940  2.0210  0.3519
   40MOL0     H 5394   9.101   5.406   8.654  1.1934  2.1529 -4.8464
   40MOL0     H 5395   9.206   5.265   8.651 -1.4144 -1.8763  1.3924
   40MOL0     H 5396   8.984   5.139   8.726  0.8591  0.5838 -1.7457
   40MOL0     H 5397   8.919   5.301   8.739  0.8317  1.9600 -4.8860
   40MOL0     H 5398   9.212   5.271   9.051  2.9399  2.1902 -1.6035
   40MOL0     H 5399   8.697   5.392   8.232  1.2998 -0.4455 -0.5636
   40MOL0     H 5400   8.619   5.574   8.092 -0.2644 -1.1567  0.0061
   41MOL0     O 5401   1.455  10.122   0.297 -0.7471  0.2446  0.1515
   41MOL0     C 5402   1.481  10.161   0.410  0.9008 -0.5076 -1.0830
   41MOL0     O 5403   1.592  10.134   0.474 -0.4481 -0.2225  0.1990
   41MOL0     C 5404   1.703  10.079   0.417  0.6365 -0.6114  0.3345
   41MOL0     C 5405   1.712   9.944   0.395  0.7813  0.5404  0.3042
   41MOL0     C 5406   1.829   9.881   0.342 -0.2268 -0.2473 -0.6414
   41MOL0     C 5407   1.937   9.958   0.328  0.6885 -0.2063  0.5674
   41MOL0     O 5408   2.064   9.908   0.306 -0.2488  0.4273  0.1204
   41MOL0     C 5409   2.131   9.960   0.190  0.3065  0.1170 -0.1539
   41MOL0     C 5410   2.171   9.839   0.102 -0.2043 -0.4192  0.3210
   41MOL0     C 5411   2.144   9.876  -0.043  0.0012 -0.1301  0.5321
   41MOL0     C 5412   2.126   9.753  -0.135 -0.9287  0.3621  0.2646
   41MOL0     C 5413   2.125   9.790  -0.280  0.1125  0.8756 -0.3905
   41MOL0     C 5414   2.091   9.672  -0.369  0.1748  0.5307 -0.2916
   41MOL0     C 5415   2.057   9.717  -0.511  0.0896  0.1169 -0.2271
   41MOL0     C 5416   1.966   9.618  -0.593 -0.2260 -0.1241  0.1215
   41MOL0     N 5417   1.933   9.672  -0.729 -0.0104 -1.3132 -0.7678
   41MOL0     C 5418   1.880   9.600  -0.824 -0.3868 -0.1170  0.7217
   41MOL0     C 5419   1.845   9.687  -0.920 -0.5821  0.1269  1.1079
   41MOL0     C 5420   1.777   9.656  -1.048 -0.7193  0.0746  0.2556
   41MOL0     C 5421   1.809   9.532  -1.131  0.4927  0.4488 -0.2635
   41MOL0     C 5422   1.762   9.539  -1.274 -0.0273 -1.1139  0.0936
   41MOL0     C 5423   1.750   9.411  -1.355 -0.9083 -0.8369  0.0916
   41MOL0     O 5424   1.652   9.326  -1.296 -0.3849 -0.7688  0.1058
   41MOL0     C 5425   1.636   9.211  -1.378  0.1305 -0.6720 -0.0635
   41MOL0     C 5426   1.685   9.191  -1.516 -0.1670  0.0571 -0.1749
   41MOL0     C 5427   1.648   9.075  -1.589 -0.3079 -0.7252  0.8632
   41MOL0     C 5428   1.710   9.059  -1.723  0.1842  0.4170  0.2339
   41MOL0     C 5429   1.558   8.982  -1.538  0.7289  0.3404  0.0275
   41MOL0     C 5430   1.513   8.863  -1.621  0.2064 -0.3930  0.8433
   41MOL0     O 5431   1.525   8.751  -1.564  1.1121  0.6079  0.2668
   41MOL0     C 5432   1.423   8.667  -1.588 -0.1859  0.4627  0.3900
   41MOL0     C 5433   1.450   8.548  -1.657 -0.5871 -0.0790  1.1778
   41MOL0     C 5434   1.338   8.468  -1.695  0.3779  0.1872  1.4416
   41MOL0     C 5435   1.203   8.508  -1.668 -0.8490 -0.1261 -0.1810
   41MOL0     O 5436   1.099   8.430  -1.693  0.0471  0.3010  0.2294
   41MOL0     C 5437   1.115   8.285  -1.717 -0.3566 -0.5844 -0.2375
   41MOL0     C 5438   1.017   8.227  -1.822  0.1014 -0.2484 -0.3370
   41MOL0     C 5439   1.032   8.297  -1.952  0.4571 -0.4624 -0.2058
   41MOL0     C 5440   0.958   8.212  -2.054  0.2569 -0.9196  0.1257
   41MOL0     C 5441   0.986   8.262  -2.198 -0.0692 -0.4492 -0.2811
   41MOL0     C 5442   0.945   8.174  -2.312  0.0250  0.4683 -1.2934
   41MOL0     C 5443   1.045   8.200  -2.440 -0.0529 -0.4391  0.2449
   41MOL0     C 5444   1.045   8.352  -2.482  0.6642  0.5119  0.2923
   41MOL0    Cl 5445   0.876   8.421  -2.483 -0.3162 -0.1438 -0.1240
   41MOL0     C 5446   1.181   8.619  -1.591 -0.4517  0.0089 -0.6128
   41MOL0     C 5447   1.287   8.694  -1.550 -1.0799 -0.7222  0.1596
   41MOL0     O 5448   1.463   8.888  -1.734 -0.3853  0.4912 -0.0368
   41MOL0     C 5449   1.515   9.000  -1.409 -0.5592 -0.6828 -0.9215
   41MOL0     C 5450   1.542   9.114  -1.329 -0.4882 -0.6839 -0.8031
   41MOL0     N 5451   1.874   9.810  -0.883 -0.4477  0.5720  0.1899
   41MOL0     N 5452   1.924   9.802  -0.770  0.6140  0.7946 -0.4978
   41MOL0     C 5453   1.941  10.095   0.367 -0.5260 -0.6067  0.0509
   41MOL0     C 5454   1.823  10.151   0.414  0.5510  0.1212  0.3172
   41MOL0     C 5455   1.386  10.263   0.470 -1.2079  0.3644 -0.9457
   41MOL0     C 5456   1.300  10.342   0.393 -1.3470  0.4388  0.6790
   41MOL0     C 5457   1.232  10.444   0.448  0.7676 -0.4007  0.2220
   41MOL0     C 5458   1.241  10.466   0.584  0.4708 -0.9234 -0.1905
   41MOL0     O 5459   1.157  10.557   0.638 -0.2535 -0.4723 -0.9128
   41MOL0     C 5460   1.214  10.680   0.673  0.3632 -0.1361 -0.0472
   41MOL0     C 5461   1.115  10.797   0.647 -0.1177  0.6689  0.1346
   41MOL0     C 5462   1.062  10.824   0.503  0.1985  0.2147 -0.5381
   41MOL0     C 5463   0.941  10.738   0.474 -0.8899 -0.7686 -0.1149
   41MOL0     C 5464   0.878  10.789   0.351  0.4277  0.1958 -0.5097
   41MOL0     C 5465   0.841  10.833   0.244 -0.6006  0.9425 -0.4485
   41MOL0     C 5466   1.308  10.383   0.666 -0.1502 -0.7523  0.1509
   41MOL0     C 5467   1.385  10.282   0.606  0.3163  0.2959  0.3679
   41MOL0     H 5468   1.618   9.890   0.403 -1.5874  4.1206 -1.0065
   41MOL0     H 5469   1.838   9.774   0.326  1.5346 -0.1755 -0.2428
   41MOL0     H 5470   2.067  10.033   0.139  0.1153 -0.5707 -0.9050
   41MOL0     H 5471   2.226  10.001   0.226  0.7369 -0.0115 -1.1240
   41MOL0     H 5472   2.269   9.796   0.122  2.1402  4.7679  1.6344
   41MOL0     H 5473   2.111   9.756   0.139  1.8623 -1.4028  1.6534
   41MOL0     H 5474   2.057   9.943  -0.046  1.0971  1.4803  2.2759
   41MOL0     H 5475   2.226   9.937  -0.083 -2.1453  3.1878  0.7634
   41MOL0     H 5476   2.208   9.686  -0.109 -2.3908 -1.6727 -0.1520
   41MOL0     H 5477   2.039   9.695  -0.105  0.6438 -2.0744  0.4638
   41MOL0     H 5478   2.040   9.859  -0.273  0.1798  0.8211  1.2812
   41MOL0     H 5479   2.213   9.852  -0.300  2.5256 -1.5587  1.8142
   41MOL0     H 5480   2.178   9.607  -0.366  1.0204  1.6701  1.0992
   41MOL0     H 5481   2.012   9.606  -0.331  1.5395 -0.2488  1.3040
   41MOL0     H 5482   1.996   9.807  -0.514 -0.0358  0.1481  1.8934
   41MOL0     H 5483   2.149   9.737  -0.567  0.3036 -0.6157 -0.1464
   41MOL0     H 5484   1.877   9.581  -0.541  0.5488 -3.7183 -0.7954
   41MOL0     H 5485   2.019   9.522  -0.603  2.7247  1.0555  2.6215
   41MOL0     H 5486   1.884   9.491  -0.821  3.6945 -0.3145 -2.7207
   41MOL0     H 5487   1.669   9.668  -1.033 -0.4530  1.2161  1.4037
   41MOL0     H 5488   1.805   9.729  -1.125 -0.5506 -1.8425 -1.6110
   41MOL0     H 5489   1.768   9.447  -1.075  2.3117 -0.3006 -0.0026
   41MOL0     H 5490   1.916   9.510  -1.130  0.3237 -0.6233  1.9092
   41MOL0     H 5491   1.810   9.618  -1.332 -0.6876  0.3460  1.4828
   41MOL0     H 5492   1.658   9.572  -1.267 -0.5394 -1.4842 -3.5883
   41MOL0     H 5493   1.845   9.357  -1.366  1.3080  1.6043  4.4371
   41MOL0     H 5494   1.717   9.442  -1.455 -0.2655  3.1156  0.9231
   41MOL0     H 5495   1.756   9.257  -1.567  1.8716 -2.7342 -1.2225
   41MOL0     H 5496   1.646   9.097  -1.803  0.8130  1.1085  0.0444
   41MOL0     H 5497   1.807   9.110  -1.712  0.6289 -0.7939  2.4309
   41MOL0     H 5498   1.732   8.954  -1.745 -0.1373  0.2249  0.8058
   41MOL0     H 5499   1.552   8.527  -1.690 -1.3445 -1.1538 -0.6893
   41MOL0     H 5500   1.371   8.385  -1.757  1.3415  2.4209 -1.2506
   41MOL0     H 5501   1.219   8.256  -1.735 -0.4592 -2.8756  2.1993
   41MOL0     H 5502   1.100   8.234  -1.621  0.6300  1.3226  0.9956
   41MOL0     H 5503   1.030   8.118  -1.819 -3.4477 -0.7582  1.5013
   41MOL0     H 5504   0.919   8.246  -1.778 -0.2441  0.1362 -1.2492
   41MOL0     H 5505   1.137   8.298  -1.983  0.4974  0.3806 -0.0572
   41MOL0     H 5506   1.013   8.404  -1.943 -0.2221 -0.5802 -0.2334
   41MOL0     H 5507   1.000   8.111  -2.045  2.9440  0.0519 -0.6364
   41MOL0     H 5508   0.853   8.212  -2.022  0.1930  3.1053  0.3762
   41MOL0     H 5509   1.096   8.262  -2.201 -0.0353 -1.6866  0.4714
   41MOL0     H 5510   0.938   8.360  -2.204 -1.6415 -1.1072  0.9621
   41MOL0     H 5511   0.939   8.070  -2.279  1.7784  0.6741 -0.1796
   41MOL0     H 5512   0.842   8.202  -2.337 -0.1260 -0.9484 -2.3976
   41MOL0     H 5513   1.009   8.145  -2.528  2.3327 -0.0908 -1.0207
   41MOL0     H 5514   1.150   8.178  -2.419  1.7430  0.7951 -5.6887
   41MOL0     H 5515   1.085   8.349  -2.584  1.4368 -0.0703  0.5970
   41MOL0     H 5516   1.113   8.405  -2.414  0.8943 -0.7274  1.0706
   41MOL0     H 5517   1.080   8.650  -1.568 -0.0226  1.6816 -0.8408
   41MOL0     H 5518   1.275   8.789  -1.499  2.9107  0.6984 -1.1017
   41MOL0     H 5519   1.454   8.926  -1.358 -2.9187  1.5872 -0.2314
   41MOL0     H 5520   1.505   9.128  -1.228  2.8342 -2.1883  0.7872
   41MOL0     H 5521   2.032  10.153   0.364 -1.2165  0.4593 -1.2947
   41MOL0     H 5522   1.828  10.254   0.447  0.5532  0.7294 -1.4480
   41MOL0     H 5523   1.283  10.333   0.286 -1.8125  2.2809  0.5581
   41MOL0     H 5524   1.168  10.513   0.396  0.8574  0.9102  1.7566
   41MOL0     H 5525   1.249  10.684   0.776 -1.0037  3.0308  0.4202
   41MOL0     H 5526   1.302  10.701   0.611  2.3126  0.6140  2.8143
   41MOL0     H 5527   1.161  10.891   0.680  0.3249  0.0163  1.4412
   41MOL0     H 5528   1.027  10.789   0.712  0.6779  1.6466  1.3845
   41MOL0     H 5529   1.134  10.797   0.425 -1.1250 -2.2481 -1.0107
   41MOL0     H 5530   1.030  10.928   0.487 -1.1640 -0.2129 -0.6930
   41MOL0     H 5531   0.863  10.751   0.551 -1.2506 -2.5377 -0.1547
   41MOL0     H 5532   0.972  10.634   0.464 -1.1252 -0.9634  1.0064
   41MOL0     H 5533   0.787  10.875   0.162  1.0892  4.0794 -0.0808
   41MOL0     H 5534   1.320  10.398   0.773  2.5023 -0.9401 -0.0649
   41MOL0     H 5535   1.454  10.224   0.667  0.8660 -0.0947 -0.6002
   42MOL0     O 5536   0.103   7.994   0.858  0.2832  0.2023 -0.2552
   42MOL0     C 5537   0.051   8.075   0.781 -0.9685  1.8229 -0.3937
   42MOL0     O 5538  -0.079   8.104   0.778  1.1971 -0.3572 -0.1178
   42MOL0     C 5539  -0.178   8.015   0.818 -0.1897 -0.7569 -0.1876
   42MOL0     C 5540  -0.204   7.992   0.955  0.2145 -0.1805 -0.4831
   42MOL0     C 5541  -0.299   7.904   1.004 -0.3094 -0.1660  0.1369
   42MOL0     C 5542  -0.387   7.839   0.912  0.1701 -0.0880 -0.4381
   42MOL0     O 5543  -0.480   7.756   0.961 -0.2203 -0.1656  0.0158
   42MOL0     C 5544  -0.591   7.825   1.018 -0.4138 -0.0089  0.9135
   42MOL0     C 5545  -0.701   7.728   1.051  0.2793 -0.5753  0.2559
   42MOL0     C 5546  -0.827   7.810   1.097 -0.4125  0.4489 -0.0591
   42MOL0     C 5547  -0.958   7.726   1.096 -0.8664 -0.0404  0.2088
   42MOL0     C 5548  -1.027   7.739   0.962  0.6548  0.4988  0.0604
   42MOL0     C 5549  -1.117   7.618   0.944  0.5226  0.7962 -0.5804
   42MOL0     C 5550  -1.240   7.631   1.039  0.3100 -0.7527 -0.4472
   42MOL0     C 5551  -1.321   7.754   1.012 -1.3664  0.6569 -0.2229
   42MOL0     N 5552  -1.350   7.771   0.872 -0.1835  1.0835  0.3829
   42MOL0     C 5553  -1.415   7.686   0.787  0.5186 -0.3114  0.2682
   42MOL0     C 5554  -1.415   7.750   0.662  0.4627  0.2130  0.5555
   42MOL0     C 5555  -1.483   7.682   0.541 -0.1918 -0.0220  0.4616
   42MOL0     C 5556  -1.522   7.793   0.436 -0.4431 -0.0853 -0.1135
   42MOL0     C 5557  -1.449   7.786   0.298  0.1976 -0.2574  0.5050
   42MOL0     C 5558  -1.514   7.867   0.185 -0.1770 -0.2962 -0.0447
   42MOL0     O 5559  -1.623   7.801   0.124 -0.6157  0.3605  0.1943
   42MOL0     C 5560  -1.590   7.717   0.015 -0.2386 -0.0198 -0.3331
   42MOL0     C 5561  -1.462   7.677  -0.008  0.4586 -0.9703  0.9584
   42MOL0     C 5562  -1.443   7.582  -0.113  0.2873  0.0850 -0.2995
   42MOL0     C 5563  -1.304   7.536  -0.140 -0.9296 -1.0958 -0.8752
   42MOL0     C 5564  -1.549   7.538  -0.191  0.3490 -0.3490  0.6300
   42MOL0     C 5565  -1.548   7.464  -0.316 -0.0879 -0.7081  0.6729
   42MOL0     O 5566  -1.447   7.498  -0.401 -1.0546  0.9702 -0.2250
   42MOL0     C 5567  -1.466   7.532  -0.533 -0.3771  0.8511  0.5743
   42MOL0     C 5568  -1.549   7.639  -0.562 -0.6857 -0.1696  0.3786
   42MOL0     C 5569  -1.569   7.680  -0.697  0.5432  0.7546  0.0091
   42MOL0     C 5570  -1.506   7.612  -0.804  0.6825  0.8836  0.6312
   42MOL0     O 5571  -1.512   7.645  -0.937 -0.2951  0.2801  0.2172
   42MOL0     C 5572  -1.508   7.789  -0.962 -0.2753  0.0580  0.1041
   42MOL0     C 5573  -1.417   7.821  -1.084 -0.0940  0.7136 -0.3391
   42MOL0     C 5574  -1.490   7.932  -1.166  0.2829  0.3810  0.6918
   42MOL0     C 5575  -1.420   7.969  -1.301  0.5896  0.3084  0.1231
   42MOL0     C 5576  -1.396   7.857  -1.401  0.5507  0.4699  0.6700
   42MOL0     C 5577  -1.525   7.793  -1.444 -0.2866 -0.7192 -1.1489
   42MOL0     C 5578  -1.511   7.680  -1.546  0.0269 -0.3183  0.4074
   42MOL0     C 5579  -1.441   7.725  -1.673 -0.5252 -0.3657 -0.2199
   42MOL0    Cl 5580  -1.379   7.571  -1.763  0.2217 -0.1347 -0.1463
   42MOL0     C 5581  -1.433   7.500  -0.772 -0.0326  0.1360  0.2006
   42MOL0     C 5582  -1.413   7.464  -0.640  0.8653  0.9237  0.4210
   42MOL0     O 5583  -1.633   7.376  -0.343  0.7680  0.2656 -0.3666
   42MOL0     C 5584  -1.671   7.579  -0.152 -0.4831 -0.1166 -1.0510
   42MOL0     C 5585  -1.692   7.663  -0.049  0.0119  0.1899 -0.0345
   42MOL0     N 5586  -1.351   7.868   0.678  0.1662  0.2188  0.5605
   42MOL0     N 5587  -1.304   7.880   0.798  0.9858  1.3254 -0.6773
   42MOL0     C 5588  -0.373   7.863   0.778 -0.2789 -0.0812 -0.0961
   42MOL0     C 5589  -0.274   7.955   0.728 -0.3720 -0.4601 -0.8166
   42MOL0     C 5590   0.137   8.142   0.679  0.2895 -0.2695  1.1111
   42MOL0     C 5591   0.276   8.148   0.701  0.6316 -0.0891  0.0790
   42MOL0     C 5592   0.346   8.245   0.631  0.2880 -0.6227  0.4433
   42MOL0     C 5593   0.284   8.331   0.536 -0.0118 -0.5672 -0.7239
   42MOL0     O 5594   0.333   8.432   0.453 -0.3789  0.0424  0.7624
   42MOL0     C 5595   0.468   8.483   0.468 -0.6089  0.2354 -0.2533
   42MOL0     C 5596   0.473   8.632   0.518  0.0327  0.3205 -0.0370
   42MOL0     C 5597   0.444   8.725   0.401  0.3951 -0.4470 -0.6874
   42MOL0     C 5598   0.423   8.862   0.465 -0.6267 -0.8485 -0.3510
   42MOL0     C 5599   0.397   8.969   0.366 -0.2506  0.8124  0.7539
   42MOL0     C 5600   0.416   9.048   0.276  1.0943  0.4311  0.4462
   42MOL0     C 5601   0.148   8.319   0.518  0.7845  0.6514  0.1494
   42MOL0     C 5602   0.074   8.228   0.589  1.2142 -0.2478  0.1143
   42MOL0     H 5603  -0.140   8.044   1.025 -1.0649  0.9633 -0.1405
   42MOL0     H 5604  -0.313   7.896   1.112  0.3468 -0.8279  0.1821
   42MOL0     H 5605  -0.567   7.877   1.111 -1.8374 -0.7108  1.6976
   42MOL0     H 5606  -0.629   7.893   0.941 -0.6575  0.7246  1.6727
   42MOL0     H 5607  -0.736   7.674   0.962 -1.8852  1.8720 -0.4782
   42MOL0     H 5608  -0.664   7.654   1.123  0.0370  0.3543  1.3702
   42MOL0     H 5609  -0.813   7.845   1.200 -0.8712  4.2464 -1.1693
   42MOL0     H 5610  -0.843   7.900   1.037 -1.7556 -0.1862 -0.6853
   42MOL0     H 5611  -0.927   7.623   1.114  2.9345  0.9733  0.5063
   42MOL0     H 5612  -1.017   7.763   1.180  1.7665  2.2245  1.2351
   42MOL0     H 5613  -1.070   7.838   0.939 -0.7275  0.1799  1.1253
   42MOL0     H 5614  -0.959   7.726   0.878  1.7728  1.6481  0.7499
   42MOL0     H 5615  -1.149   7.619   0.840 -2.9455  2.2839  0.3721
   42MOL0     H 5616  -1.055   7.531   0.970  2.6388  1.6026 -2.5456
   42MOL0     H 5617  -1.293   7.536   1.030 -0.0854 -0.6199  0.4095
   42MOL0     H 5618  -1.221   7.629   1.147 -3.7536 -3.3105  0.4454
   42MOL0     H 5619  -1.263   7.842   1.039  4.3774 -2.6395 -0.1500
   42MOL0     H 5620  -1.417   7.746   1.064 -0.6491 -0.5622  0.9763
   42MOL0     H 5621  -1.448   7.584   0.805 -2.6356  0.8453  1.8347
   42MOL0     H 5622  -1.406   7.618   0.497  2.0750  2.9808 -0.3184
   42MOL0     H 5623  -1.574   7.626   0.565 -0.4298 -0.4656 -1.3267
   42MOL0     H 5624  -1.511   7.888   0.489  2.7875 -0.6442  0.4151
   42MOL0     H 5625  -1.629   7.774   0.420 -0.5046  0.4281 -0.3516
   42MOL0     H 5626  -1.448   7.684   0.259 -1.8523 -0.7051  1.4797
   42MOL0     H 5627  -1.343   7.810   0.308 -0.2261  0.9614  2.4849
   42MOL0     H 5628  -1.444   7.905   0.110 -2.3966  2.3327 -0.9639
   42MOL0     H 5629  -1.549   7.961   0.228  2.7619  1.8927 -2.0153
   42MOL0     H 5630  -1.379   7.706   0.056  0.4196  2.4433 -0.3340
   42MOL0     H 5631  -1.235   7.550  -0.056  0.6976  1.4556 -2.4941
   42MOL0     H 5632  -1.299   7.446  -0.203 -0.8873 -0.5242 -1.7016
   42MOL0     H 5633  -1.266   7.612  -0.209 -1.1641 -1.5570 -1.5229
   42MOL0     H 5634  -1.587   7.688  -0.473  1.9001  1.3948  0.7294
   42MOL0     H 5635  -1.636   7.763  -0.716 -0.4363 -0.4279 -2.0809
   42MOL0     H 5636  -1.613   7.815  -0.982 -0.4943 -0.7708  0.1547
   42MOL0     H 5637  -1.461   7.845  -0.880 -1.5424  1.2516  0.0648
   42MOL0     H 5638  -1.310   7.839  -1.065 -0.0790  3.0310 -2.0931
   42MOL0     H 5639  -1.410   7.740  -1.157  2.3929  0.6592 -0.1243
   42MOL0     H 5640  -1.497   8.021  -1.103  2.8497  0.7890  0.5317
   42MOL0     H 5641  -1.591   7.897  -1.188  0.6896 -0.0099 -0.5864
   42MOL0     H 5642  -1.474   8.050  -1.349 -1.3831 -0.5131  0.8808
   42MOL0     H 5643  -1.331   8.026  -1.271 -0.2402  0.7099  1.9313
   42MOL0     H 5644  -1.322   7.791  -1.355  0.9410  0.2473 -0.2372
   42MOL0     H 5645  -1.352   7.902  -1.491  0.6140 -1.3334 -0.2636
   42MOL0     H 5646  -1.575   7.751  -1.356 -0.9906 -0.9353 -1.6419
   42MOL0     H 5647  -1.602   7.866  -1.470 -1.2644 -0.3268  2.3661
   42MOL0     H 5648  -1.611   7.645  -1.575 -0.3234  1.3032 -0.4657
   42MOL0     H 5649  -1.448   7.602  -1.502  1.8057 -0.0903 -1.5382
   42MOL0     H 5650  -1.356   7.791  -1.652 -0.6480 -0.8649  2.0442
   42MOL0     H 5651  -1.508   7.783  -1.737 -0.4035  0.5848  0.4933
   42MOL0     H 5652  -1.386   7.436  -0.847  0.2099  0.2507  0.2524
   42MOL0     H 5653  -1.352   7.376  -0.626  2.2133  1.2968 -2.4263
   42MOL0     H 5654  -1.762   7.543  -0.199 -0.2226  0.0350 -1.6829
   42MOL0     H 5655  -1.788   7.696  -0.010 -0.6294 -0.4028 -1.0808
   42MOL0     H 5656  -0.440   7.804   0.716 -0.2023 -0.4444  0.1628
   42MOL0     H 5657  -0.277   7.977   0.622 -1.8700 -0.2680 -0.7600
   42MOL0     H 5658   0.312   8.082   0.779 -1.3462  0.1217  1.2681
   42MOL0     H 5659   0.451   8.258   0.658  1.2836  1.6627 -3.7408
   42MOL0     H 5660   0.519   8.439   0.554  0.7196  4.0346  1.1290
   42MOL0     H 5661   0.530   8.481   0.379 -0.5449 -2.1486 -0.2098
   42MOL0     H 5662   0.573   8.646   0.560 -0.3391 -1.8780  1.8071
   42MOL0     H 5663   0.398   8.645   0.597 -0.8554 -2.1640 -0.3607
   42MOL0     H 5664   0.361   8.688   0.339  1.1455 -2.2513 -0.6821
   42MOL0     H 5665   0.532   8.727   0.337  1.7044 -2.0497  0.9551
   42MOL0     H 5666   0.509   8.901   0.520 -1.3215  2.0324 -1.1844
   42MOL0     H 5667   0.340   8.863   0.537  4.0803  0.4115  5.8855
   42MOL0     H 5668   0.418   9.106   0.185 -2.7979 -0.5362 -0.4281
   42MOL0     H 5669   0.101   8.376   0.439  2.4674  2.4163  0.3331
   42MOL0     H 5670  -0.033   8.244   0.583  0.9607 -1.9316 -0.6897
   43MOL0     O 5671   7.515  10.625   2.077 -0.4189 -0.6899  0.6033
   43MOL0     C 5672   7.486  10.517   2.026 -0.2446  0.2281 -0.5837
   43MOL0     O 5673   7.389  10.494   1.932 -0.2265  0.3169  0.6340
   43MOL0     C 5674   7.329  10.590   1.858 -0.1256 -0.0941 -0.0655
   43MOL0     C 5675   7.381  10.722   1.837 -0.3138 -0.4090 -0.6012
   43MOL0     C 5676   7.309  10.813   1.767 -0.3853  0.2677  0.1235
   43MOL0     C 5677   7.183  10.784   1.712 -0.1975 -0.0604  0.8904
   43MOL0     O 5678   7.095  10.879   1.665 -0.3423  0.3148 -0.2099
   43MOL0     C 5679   7.138  11.018   1.646 -0.6954  0.3009  0.6643
   43MOL0     C 5680   7.024  11.093   1.591 -0.0131  0.4546 -0.0829
   43MOL0     C 5681   7.070  11.235   1.561 -0.0466 -0.0642 -0.3226
   43MOL0     C 5682   7.157  11.254   1.444 -0.3349 -0.3267  0.8243
   43MOL0     C 5683   7.202  11.406   1.428  0.1752  0.0828 -0.1766
   43MOL0     C 5684   7.297  11.443   1.306 -0.0345  0.5114 -0.4229
   43MOL0     C 5685   7.224  11.403   1.181 -0.2970 -0.2334  0.5541
   43MOL0     C 5686   7.303  11.437   1.056 -0.0285 -0.8052 -0.3368
   43MOL0     N 5687   7.229  11.396   0.940  0.5961 -0.1329  1.2138
   43MOL0     C 5688   7.230  11.270   0.882  1.0404  0.3668  0.0933
   43MOL0     C 5689   7.158  11.275   0.766 -1.0360 -0.6434  0.5769
   43MOL0     C 5690   7.154  11.162   0.666 -0.3952 -0.5178  0.1013
   43MOL0     C 5691   7.090  11.207   0.538  0.3244  0.3970  0.0135
   43MOL0     C 5692   7.181  11.287   0.437 -0.1343  0.0878 -0.1354
   43MOL0     C 5693   7.114  11.276   0.309 -0.7115 -0.5746  0.6138
   43MOL0     O 5694   7.183  11.341   0.206  0.5798  0.0213 -0.4488
   43MOL0     C 5695   7.133  11.351   0.081  0.4680  0.1331 -0.8392
   43MOL0     C 5696   7.027  11.276   0.020 -0.1814 -1.0804 -0.6490
   43MOL0     C 5697   6.994  11.279  -0.110 -0.4085  0.3765  0.4343
   43MOL0     C 5698   6.876  11.203  -0.166  0.1191  0.0809  0.7907
   43MOL0     C 5699   7.063  11.364  -0.196 -0.1214  0.2633  0.2942
   43MOL0     C 5700   7.041  11.361  -0.343 -0.4085 -1.1090 -0.2960
   43MOL0     O 5701   7.147  11.364  -0.416 -0.6405  0.2612  0.7127
   43MOL0     C 5702   7.142  11.393  -0.554  0.0369 -0.8896  0.1535
   43MOL0     C 5703   7.063  11.322  -0.648  0.3461  0.4787  0.1618
   43MOL0     C 5704   7.063  11.349  -0.786  0.0492 -0.0024 -0.0208
   43MOL0     C 5705   7.137  11.451  -0.839 -0.0872 -0.0312 -0.2878
   43MOL0     O 5706   7.117  11.489  -0.972  0.1653 -1.1411  0.4076
   43MOL0     C 5707   7.220  11.548  -1.056  0.0809  0.4219 -0.4677
   43MOL0     C 5708   7.230  11.455  -1.173  0.3484 -0.1659  0.5322
   43MOL0     C 5709   7.282  11.517  -1.298  0.2321 -0.0113 -0.8201
   43MOL0     C 5710   7.299  11.413  -1.405 -0.3292 -0.0944  0.2844
   43MOL0     C 5711   7.424  11.323  -1.385  0.1984  0.7213  1.0931
   43MOL0     C 5712   7.545  11.414  -1.400  0.1835 -0.3458 -0.8544
   43MOL0     C 5713   7.680  11.337  -1.385 -1.4210  0.2455 -0.2221
   43MOL0     C 5714   7.757  11.295  -1.513 -0.2729 -0.3532  1.2934
   43MOL0    Cl 5715   7.778  11.439  -1.621  0.0439  0.1071 -0.0689
   43MOL0     C 5716   7.210  11.529  -0.741  0.7783  0.3555  0.0877
   43MOL0     C 5717   7.216  11.500  -0.604 -0.2732  0.0550  0.4858
   43MOL0     O 5718   6.927  11.374  -0.380  0.2284 -0.1735 -0.3988
   43MOL0     C 5719   7.169  11.448  -0.144  0.2704 -0.3691  0.2454
   43MOL0     C 5720   7.202  11.436  -0.009  0.1085 -0.5625 -0.2732
   43MOL0     N 5721   7.123  11.410   0.758 -0.6774  0.4600 -0.0360
   43MOL0     N 5722   7.146  11.474   0.863 -0.1121 -0.3072  0.9381
   43MOL0     C 5723   7.125  10.669   1.746 -0.2303 -1.3883 -0.7362
   43MOL0     C 5724   7.193  10.570   1.818  0.4221 -0.3551  0.6094
   43MOL0     C 5725   7.572  10.404   2.055 -0.7234  0.8240 -0.1973
   43MOL0     C 5726   7.702  10.431   2.099 -0.2473  0.2504  0.8891
   43MOL0     C 5727   7.798  10.329   2.135 -0.4165 -0.2277 -0.0335
   43MOL0     C 5728   7.766  10.198   2.105  0.2748 -0.2496 -0.5055
   43MOL0     O 5729   7.837  10.088   2.144 -0.2241  0.1856  0.3651
   43MOL0     C 5730   7.976  10.104   2.175  0.4181 -0.0815  0.3651
   43MOL0     C 5731   8.018   9.957   2.202 -0.4885  0.4450  0.6241
   43MOL0     C 5732   7.946   9.883   2.318 -0.1466  0.5910  0.0014
   43MOL0     C 5733   7.982   9.733   2.322 -0.5870 -0.5100 -0.0380
   43MOL0     C 5734   7.873   9.661   2.390 -0.6337 -0.6952  0.4148
   43MOL0     C 5735   7.783   9.593   2.424  0.6018 -0.2793  0.2087
   43MOL0     C 5736   7.645  10.168   2.047  0.3453  0.4093  0.4332
   43MOL0     C 5737   7.545  10.270   2.027  0.5785 -0.0453  0.6020
   43MOL0     H 5738   7.485  10.743   1.861 -0.9467 -0.5065  2.7459
   43MOL0     H 5739   7.364  10.900   1.732 -0.5642 -0.5755 -2.4711
   43MOL0     H 5740   7.176  11.064   1.738  2.5405 -1.2145  0.2155
   43MOL0     H 5741   7.221  11.014   1.575 -0.4505  1.6107  0.8523
   43MOL0     H 5742   6.994  11.037   1.502  0.3909 -0.4415  0.3367
   43MOL0     H 5743   6.941  11.105   1.662 -2.7384 -3.9489 -2.0871
   43MOL0     H 5744   6.983  11.296   1.534  0.9645  0.7083 -2.0289
   43MOL0     H 5745   7.116  11.281   1.649 -0.0703 -0.1811 -0.2494
   43MOL0     H 5746   7.249  11.195   1.457  0.4617  0.5867 -0.4592
   43MOL0     H 5747   7.092  11.218   1.364 -1.2374 -0.0901  1.4402
   43MOL0     H 5748   7.106  11.458   1.429 -1.5565 -2.5891  4.2060
   43MOL0     H 5749   7.249  11.442   1.520 -1.0500  1.1652  0.0598
   43MOL0     H 5750   7.320  11.548   1.285  0.6250 -0.1399 -3.4818
   43MOL0     H 5751   7.388  11.382   1.307  0.0125  0.5691 -0.7775
   43MOL0     H 5752   7.203  11.296   1.188 -0.2689 -0.2514  0.3740
   43MOL0     H 5753   7.132  11.462   1.174  2.2234  4.0274 -0.0598
   43MOL0     H 5754   7.396  11.380   1.062 -1.4957 -3.1764  4.3742
   43MOL0     H 5755   7.306  11.546   1.051 -1.5266 -0.6399  1.3752
   43MOL0     H 5756   7.268  11.174   0.915 -0.7151 -1.1780 -2.0850
   43MOL0     H 5757   7.244  11.106   0.641  0.0406  0.3583 -0.3622
   43MOL0     H 5758   7.097  11.087   0.722  1.2475 -1.1870  0.9152
   43MOL0     H 5759   6.993  11.255   0.549  0.3790  0.3094  1.0503
   43MOL0     H 5760   7.083  11.111   0.485 -3.5477  1.2212 -1.2190
   43MOL0     H 5761   7.283  11.248   0.436  0.0777 -0.0402  4.6030
   43MOL0     H 5762   7.208  11.391   0.458  0.8565  0.3001 -2.2279
   43MOL0     H 5763   7.010  11.311   0.311 -0.9259 -0.8583 -1.9017
   43MOL0     H 5764   7.103  11.173   0.274 -2.7913  0.3599 -1.8685
   43MOL0     H 5765   6.993  11.200   0.089  0.7926 -0.8158  0.1522
   43MOL0     H 5766   6.792  11.272  -0.179 -0.1539 -0.3903 -0.0400
   43MOL0     H 5767   6.912  11.157  -0.259  1.6322  0.1897  1.2932
   43MOL0     H 5768   6.831  11.130  -0.098 -0.2556  1.6208  2.2496
   43MOL0     H 5769   7.007  11.235  -0.616  0.8364 -0.6280 -1.8052
   43MOL0     H 5770   7.007  11.292  -0.858  0.0788  1.0870 -0.9482
   43MOL0     H 5771   7.181  11.645  -1.087 -2.9081  0.0683  1.6814
   43MOL0     H 5772   7.317  11.558  -1.007 -0.2758  1.6469  0.0151
   43MOL0     H 5773   7.297  11.379  -1.131 -1.4615 -0.8884  2.2692
   43MOL0     H 5774   7.134  11.406  -1.194  1.2748 -2.1452  0.6573
   43MOL0     H 5775   7.373  11.571  -1.270  0.3345 -1.5963  2.3061
   43MOL0     H 5776   7.210  11.590  -1.337 -0.5755 -1.1665 -1.5921
   43MOL0     H 5777   7.207  11.356  -1.415  1.1366 -2.5605  0.0905
   43MOL0     H 5778   7.308  11.471  -1.497 -0.5597  2.5142  1.7742
   43MOL0     H 5779   7.424  11.235  -1.449 -2.6074  0.6582  1.0374
   43MOL0     H 5780   7.426  11.275  -1.286 -0.1485 -1.9806 -0.1157
   43MOL0     H 5781   7.548  11.470  -1.495 -2.8461 -3.2661 -2.8643
   43MOL0     H 5782   7.542  11.496  -1.328 -0.7465 -0.9745 -0.1670
   43MOL0     H 5783   7.662  11.253  -1.317  0.4410 -1.3159 -1.5639
   43MOL0     H 5784   7.744  11.408  -1.332 -1.5806  1.3273 -1.4142
   43MOL0     H 5785   7.697  11.219  -1.565 -0.8144  2.9004 -3.3766
   43MOL0     H 5786   7.855  11.255  -1.487  1.2663  2.1201 -0.3562
   43MOL0     H 5787   7.280  11.607  -0.770  1.2323 -0.8872 -2.4870
   43MOL0     H 5788   7.289  11.561  -0.552 -1.2592  2.8165 -1.1292
   43MOL0     H 5789   7.222  11.513  -0.213 -0.2117  1.6029  1.6509
   43MOL0     H 5790   7.283  11.494   0.034 -0.8731  0.8063 -0.1919
   43MOL0     H 5791   7.020  10.650   1.726 -1.1606  0.7343  1.5056
   43MOL0     H 5792   7.139  10.479   1.843  0.5298 -1.3382 -2.3774
   43MOL0     H 5793   7.732  10.534   2.115  2.3471 -0.4286  0.9034
   43MOL0     H 5794   7.885  10.372   2.184  0.4126  1.7413 -2.9498
   43MOL0     H 5795   8.037  10.146   2.095  0.7377 -2.1302 -0.5197
   43MOL0     H 5796   7.991  10.173   2.259  0.1003  0.9226 -0.3816
   43MOL0     H 5797   8.127   9.955   2.217 -0.1486  3.5790 -0.6778
   43MOL0     H 5798   7.996   9.901   2.111  0.8635  0.0344  0.5188
   43MOL0     H 5799   7.842   9.876   2.286 -0.6321 -1.1030  1.7677
   43MOL0     H 5800   7.954   9.928   2.417  0.4098 -1.9983  1.2259
   43MOL0     H 5801   8.073   9.720   2.381 -2.0573 -0.8963  2.2584
   43MOL0     H 5802   8.004   9.698   2.221  1.5702 -2.5555  1.0536
   43MOL0     H 5803   7.692   9.544   2.454  0.0117  1.0347  0.6473
   43MOL0     H 5804   7.617  10.066   2.022  0.2318 -0.8068  4.7951
   43MOL0     H 5805   7.452  10.223   1.996  1.6679 -2.4657  0.8407
   44MOL0     O 5806   3.920   2.426  11.064 -0.2476  0.7008  0.7682
   44MOL0     C 5807   4.034   2.466  11.084 -0.6575  0.6094  0.5230
   44MOL0     O 5808   4.078   2.533  11.198 -0.3390 -0.3585 -0.5498
   44MOL0     C 5809   3.992   2.550  11.298 -0.4842  0.2545 -1.0454
   44MOL0     C 5810   4.012   2.493  11.427 -0.6080  0.9432  0.3452
   44MOL0     C 5811   3.918   2.499  11.523  0.4441 -0.1789  0.2229
   44MOL0     C 5812   3.790   2.560  11.493  0.3043  0.2051  0.4869
   44MOL0     O 5813   3.693   2.573  11.593 -0.1215  0.6693 -0.4450
   44MOL0     C 5814   3.716   2.683  11.676  0.4655  0.1680 -0.8847
   44MOL0     C 5815   3.589   2.672  11.761  0.5933  0.7485  0.2442
   44MOL0     C 5816   3.460   2.702  11.694  0.6319  0.1873  0.1926
   44MOL0     C 5817   3.449   2.856  11.675 -0.4474 -0.0297 -0.9022
   44MOL0     C 5818   3.322   2.917  11.628 -0.0169  1.2523  0.4759
   44MOL0     C 5819   3.294   2.865  11.485 -0.6437 -0.8134  0.2116
   44MOL0     C 5820   3.171   2.916  11.418  0.3236 -0.5437 -0.0569
   44MOL0     C 5821   3.155   2.883  11.261 -0.4094  1.4436 -1.5925
   44MOL0     N 5822   3.168   2.735  11.222  0.8441  0.0937 -0.8408
   44MOL0     C 5823   3.285   2.670  11.189  0.6671 -0.8076  0.6112
   44MOL0     C 5824   3.249   2.552  11.134 -0.3492 -0.3347  0.3892
   44MOL0     C 5825   3.357   2.455  11.082 -0.3798 -0.9183  0.1888
   44MOL0     C 5826   3.383   2.347  11.183 -0.4918 -0.5869 -0.2114
   44MOL0     C 5827   3.475   2.233  11.131 -0.1359  0.0952 -0.6415
   44MOL0     C 5828   3.402   2.145  11.037  0.3758  0.3915  0.7348
   44MOL0     O 5829   3.291   2.080  11.105 -0.1828  0.0577 -0.0453
   44MOL0     C 5830   3.321   1.963  11.166 -0.4122  0.1487 -0.1686
   44MOL0     C 5831   3.447   1.909  11.185  0.1213 -0.0389  0.4517
   44MOL0     C 5832   3.468   1.797  11.278  0.2013 -0.1088  0.2088
   44MOL0     C 5833   3.615   1.762  11.306  0.0762 -0.1612 -0.1867
   44MOL0     C 5834   3.354   1.736  11.345 -0.2743 -0.5524  0.0481
   44MOL0     C 5835   3.369   1.616  11.438  0.3629 -0.0124 -0.0316
   44MOL0     O 5836   3.492   1.568  11.474  0.0558 -0.2471 -0.1701
   44MOL0     C 5837   3.505   1.471  11.565 -0.1130  0.1048  0.0233
   44MOL0     C 5838   3.610   1.473  11.654 -0.0457  0.0383  0.9651
   44MOL0     C 5839   3.643   1.354  11.725  0.7643  0.2691  0.4735
   44MOL0     C 5840   3.590   1.230  11.688  0.1481  0.1430 -0.5840
   44MOL0     O 5841   3.630   1.110  11.736 -0.7718 -0.1591  0.5290
   44MOL0     C 5842   3.711   1.102  11.858 -0.5330 -0.1925  0.9832
   44MOL0     C 5843   3.852   1.124  11.825  0.5740  0.7294  0.8552
   44MOL0     C 5844   3.960   1.078  11.938  0.8301  0.4157  0.9315
   44MOL0     C 5845   3.973   0.924  11.941  0.4661 -0.2052 -0.8423
   44MOL0     C 5846   4.099   0.879  12.019 -0.0386  0.1185  0.9630
   44MOL0     C 5847   4.089   0.725  12.021 -0.2769 -0.9842 -0.7523
   44MOL0     C 5848   3.992   0.675  12.126  0.0488  0.2627 -0.3137
   44MOL0     C 5849   3.937   0.537  12.092 -0.0339 -0.0988 -0.2398
   44MOL0    Cl 5850   3.831   0.547  11.947  0.5854  0.0134  0.0015
   44MOL0     C 5851   3.466   1.233  11.617 -1.1169 -0.1365  0.7890
   44MOL0     C 5852   3.432   1.351  11.550  0.7272 -0.9042 -0.5928
   44MOL0     O 5853   3.256   1.571  11.473 -0.0570 -0.7057 -0.2761
   44MOL0     C 5854   3.233   1.796  11.323  0.4597  0.6962  0.3313
   44MOL0     C 5855   3.218   1.904  11.232  0.1889  0.9885  0.1012
   44MOL0     N 5856   3.106   2.548  11.129 -0.1255 -0.9866 -0.1543
   44MOL0     N 5857   3.059   2.660  11.173  0.8092 -0.3556  0.4121
   44MOL0     C 5858   3.760   2.604  11.356  0.2723  0.8745  0.4761
   44MOL0     C 5859   3.866   2.613  11.274  0.3391 -0.0413 -0.0231
   44MOL0     C 5860   4.117   2.479  10.961  0.5054 -0.5914  0.8530
   44MOL0     C 5861   4.081   2.425  10.840  0.6618  0.5135  0.8888
   44MOL0     C 5862   4.176   2.434  10.735  0.1149  0.7019 -0.4702
   44MOL0     C 5863   4.296   2.505  10.741  0.3769  0.6566  0.4769
   44MOL0     O 5864   4.373   2.533  10.634 -0.2891  0.7917  0.3094
   44MOL0     C 5865   4.510   2.569  10.637 -0.0984 -0.3671  0.7746
   44MOL0     C 5866   4.542   2.715  10.607 -0.1342  0.1224 -0.4269
   44MOL0     C 5867   4.694   2.726  10.601  0.2180 -0.7813  0.4304
   44MOL0     C 5868   4.743   2.853  10.547  1.4181 -0.4635 -0.1033
   44MOL0     C 5869   4.891   2.866  10.556 -0.9574  0.7095 -0.0183
   44MOL0     C 5870   5.008   2.887  10.555 -0.7710  0.2117 -0.7855
   44MOL0     C 5871   4.329   2.557  10.869  0.1960  0.0202  0.8969
   44MOL0     C 5872   4.238   2.544  10.974  0.6981  1.0633  0.3241
   44MOL0     H 5873   4.104   2.439  11.449 -2.8209 -3.0362  0.8811
   44MOL0     H 5874   3.921   2.445  11.617 -0.9081 -2.7846 -1.1241
   44MOL0     H 5875   3.798   2.662  11.746  0.0553  0.9498 -0.1378
   44MOL0     H 5876   3.721   2.776  11.619  0.2275 -1.1904 -3.2049
   44MOL0     H 5877   3.581   2.574  11.810 -2.4141  1.0862  0.6360
   44MOL0     H 5878   3.591   2.752  11.836 -3.1686 -0.8961  2.4059
   44MOL0     H 5879   3.458   2.649  11.598  1.1695 -1.1350  0.8923
   44MOL0     H 5880   3.376   2.662  11.750  1.4474 -0.2502  1.1331
   44MOL0     H 5881   3.458   2.902  11.774  1.9633  0.0697 -1.1033
   44MOL0     H 5882   3.527   2.895  11.608  0.9485  0.6744  1.0336
   44MOL0     H 5883   3.249   2.880  11.701  0.3197 -3.4930 -1.2441
   44MOL0     H 5884   3.320   3.025  11.614 -1.6459  1.2356  0.3543
   44MOL0     H 5885   3.382   2.890  11.424 -0.9926 -0.0111  0.0252
   44MOL0     H 5886   3.281   2.757  11.493 -1.0690 -0.7256  0.7536
   44MOL0     H 5887   3.088   2.860  11.464 -0.5100  0.0861 -0.7705
   44MOL0     H 5888   3.147   3.018  11.447 -0.3510 -0.8892  0.6454
   44MOL0     H 5889   3.230   2.946  11.210  1.6306  1.5298  1.2497
   44MOL0     H 5890   3.058   2.915  11.222 -1.8358  0.2627  0.7542
   44MOL0     H 5891   3.380   2.713  11.218  0.5750 -0.5650  0.5521
   44MOL0     H 5892   3.321   2.411  10.988  0.9778 -1.0020 -0.3150
   44MOL0     H 5893   3.441   2.521  11.058 -1.7605  1.0661  0.6241
   44MOL0     H 5894   3.283   2.303  11.190 -1.7761  1.9136 -1.4373
   44MOL0     H 5895   3.428   2.389  11.273  1.0496 -0.3087 -1.0600
   44MOL0     H 5896   3.516   2.181  11.218 -0.6447 -1.2109 -1.1561
   44MOL0     H 5897   3.564   2.275  11.084 -0.7606  1.1562 -0.9171
   44MOL0     H 5898   3.467   2.072  10.987 -0.7226 -0.4479  0.4848
   44MOL0     H 5899   3.369   2.205  10.952  1.7459 -0.6653 -0.5984
   44MOL0     H 5900   3.534   1.951  11.135 -0.8469  2.4784  0.7297
   44MOL0     H 5901   3.641   1.786  11.409  0.8556 -0.9231 -0.1929
   44MOL0     H 5902   3.625   1.654  11.297 -1.0952 -0.5104  2.0565
   44MOL0     H 5903   3.690   1.794  11.232  1.1674 -5.0391 -1.5847
   44MOL0     H 5904   3.665   1.565  11.670  0.5290  0.3602 -2.3207
   44MOL0     H 5905   3.717   1.365  11.803  1.2841 -0.6181  0.1235
   44MOL0     H 5906   3.679   1.184  11.924 -1.4599  0.9823 -0.8455
   44MOL0     H 5907   3.680   1.015  11.916 -1.6403  0.2085  1.0121
   44MOL0     H 5908   3.882   1.061  11.741  4.6924 -0.0719  2.6384
   44MOL0     H 5909   3.879   1.226  11.797  3.1809 -0.1861 -0.3151
   44MOL0     H 5910   3.936   1.128  12.032 -0.9700  1.0761  0.1730
   44MOL0     H 5911   4.053   1.119  11.898  0.2771  0.1288 -0.7396
   44MOL0     H 5912   3.882   0.899  11.996  1.4184 -0.1418  0.8235
   44MOL0     H 5913   3.958   0.883  11.841 -1.7380  0.9928 -1.0700
   44MOL0     H 5914   4.103   0.926  12.118  0.0026  2.7685 -0.1887
   44MOL0     H 5915   4.187   0.914  11.963  0.1439 -0.0748  1.1274
   44MOL0     H 5916   4.060   0.693  11.921 -4.8721 -2.6567  0.8511
   44MOL0     H 5917   4.191   0.688  12.039  1.7520  2.0782 -4.3215
   44MOL0     H 5918   3.901   0.734  12.138 -0.1331  0.7986 -3.3729
   44MOL0     H 5919   4.044   0.665  12.221  1.9328  0.9279 -1.2104
   44MOL0     H 5920   3.879   0.494  12.174  0.6247  1.4693  1.1174
   44MOL0     H 5921   4.020   0.468  12.073 -1.6136 -2.1269 -0.1202
   44MOL0     H 5922   3.410   1.145  11.590  0.6911 -0.6281 -1.7323
   44MOL0     H 5923   3.351   1.346  11.478 -2.2674 -1.2558  2.5396
   44MOL0     H 5924   3.143   1.744  11.354  1.3361  0.4873  2.7263
   44MOL0     H 5925   3.116   1.942  11.224 -0.4008 -0.4898  0.3310
   44MOL0     H 5926   3.657   2.632  11.335  0.1384  0.2858  0.3220
   44MOL0     H 5927   3.849   2.653  11.174  1.0564 -0.7440 -0.4424
   44MOL0     H 5928   3.986   2.375  10.830  0.6317  1.0203 -2.6648
   44MOL0     H 5929   4.147   2.392  10.639  0.3401  3.6282 -1.9187
   44MOL0     H 5930   4.556   2.533  10.729 -4.0028 -3.9984  1.6461
   44MOL0     H 5931   4.554   2.516  10.552 -2.5835 -1.5324  0.1227
   44MOL0     H 5932   4.496   2.763  10.694 -1.8442 -1.5466 -0.3214
   44MOL0     H 5933   4.497   2.743  10.511 -2.1068  0.2228  0.4674
   44MOL0     H 5934   4.726   2.650  10.528 -2.4501 -1.2084 -0.4111
   44MOL0     H 5935   4.739   2.709  10.699 -0.9047 -1.3939  0.8606
   44MOL0     H 5936   4.708   2.935  10.611  1.7671  1.4130 -2.2240
   44MOL0     H 5937   4.716   2.875  10.444  3.3707  0.6030 -0.4341
   44MOL0     H 5938   5.108   2.927  10.562 -0.5559  0.0889 -2.5443
   44MOL0     H 5939   4.415   2.622  10.882  0.2117  0.0955  0.4425
   44MOL0     H 5940   4.270   2.591  11.067  0.2448  1.9579  0.0388
   45MOL0     O 5941   5.841   1.828   8.986 -0.2319 -0.2038  0.4696
   45MOL0     C 5942   5.749   1.836   8.897 -0.9819  0.2640 -0.4708
   45MOL0     O 5943   5.749   1.775   8.777 -1.7534 -0.0365  0.1872
   45MOL0     C 5944   5.870   1.711   8.741  0.0474  0.2545 -0.7420
   45MOL0     C 5945   5.938   1.619   8.821 -0.1416  0.7935  0.2986
   45MOL0     C 5946   6.061   1.558   8.779 -1.3505  0.6738 -0.2068
   45MOL0     C 5947   6.119   1.597   8.656  0.3346  0.1080  0.2885
   45MOL0     O 5948   6.238   1.555   8.603  0.1986 -0.4304 -0.3744
   45MOL0     C 5949   6.328   1.478   8.678 -0.0821  0.1455 -0.4774
   45MOL0     C 5950   6.291   1.336   8.660  0.6125  0.5345 -0.0691
   45MOL0     C 5951   6.340   1.275   8.534  0.0781 -0.0767 -0.9563
   45MOL0     C 5952   6.330   1.122   8.522  1.0520 -0.2444  0.2074
   45MOL0     C 5953   6.300   1.091   8.373  0.0313  0.4325 -0.0501
   45MOL0     C 5954   6.312   0.946   8.344 -0.3041 -0.3885  0.3446
   45MOL0     C 5955   6.269   0.902   8.193 -1.3807  0.1865  0.0401
   45MOL0     C 5956   6.316   0.760   8.150 -0.0458 -1.3825 -0.1633
   45MOL0     N 5957   6.247   0.651   8.222 -0.0812  0.7175 -0.0929
   45MOL0     C 5958   6.118   0.605   8.221  0.0179 -0.4787 -0.2631
   45MOL0     C 5959   6.116   0.494   8.298 -0.2829 -0.0097 -0.1761
   45MOL0     C 5960   5.994   0.405   8.332  1.2412 -0.2946 -0.6402
   45MOL0     C 5961   6.005   0.260   8.295  0.2955  0.1644  0.3588
   45MOL0     C 5962   6.043   0.228   8.145 -0.3300  0.7044 -0.5698
   45MOL0     C 5963   5.942   0.303   8.054 -1.1074  0.2000 -0.1980
   45MOL0     O 5964   5.808   0.253   8.089 -0.0126 -0.5435 -0.2754
   45MOL0     C 5965   5.754   0.136   8.061 -0.3815 -0.0083  0.4303
   45MOL0     C 5966   5.630   0.104   8.113  0.0273  0.2524  0.4363
   45MOL0     C 5967   5.566  -0.015   8.087  1.2274  0.3132  0.0073
   45MOL0     C 5968   5.429  -0.024   8.165 -0.2776 -0.6775 -0.8278
   45MOL0     C 5969   5.622  -0.106   7.996 -0.0302  0.6212 -0.7857
   45MOL0     C 5970   5.554  -0.231   7.963 -0.2210 -0.1562  0.2629
   45MOL0     O 5971   5.636  -0.329   7.930 -0.6768  0.2346  0.3347
   45MOL0     C 5972   5.603  -0.445   7.867 -0.3324 -0.4415 -1.0898
   45MOL0     C 5973   5.484  -0.515   7.913  0.1464  0.3195  0.9839
   45MOL0     C 5974   5.447  -0.624   7.833  0.4715 -0.0020  0.0866
   45MOL0     C 5975   5.511  -0.654   7.711 -0.7940 -0.0604 -0.2592
   45MOL0     O 5976   5.445  -0.751   7.634  0.2189  0.5497  0.2754
   45MOL0     C 5977   5.491  -0.808   7.503  0.8379 -0.3954  0.0025
   45MOL0     C 5978   5.588  -0.916   7.547 -0.3138 -0.1132  0.5998
   45MOL0     C 5979   5.698  -0.940   7.435  0.1207 -0.5768 -0.5251
   45MOL0     C 5980   5.789  -1.059   7.448  0.5793  0.1164 -0.5828
   45MOL0     C 5981   5.902  -1.062   7.335  0.2054  0.5449 -0.3648
   45MOL0     C 5982   6.030  -1.004   7.380  0.6823 -0.1847 -0.1651
   45MOL0     C 5983   6.135  -0.991   7.273  0.3954  0.2425  0.1036
   45MOL0     C 5984   6.249  -0.904   7.309  0.2176 -0.1800  0.0361
   45MOL0    Cl 5985   6.202  -0.727   7.301 -0.3752  0.1074 -0.0729
   45MOL0     C 5986   5.632  -0.591   7.672  0.0244 -0.3635 -1.2222
   45MOL0     C 5987   5.672  -0.483   7.750  0.5605  0.8758 -0.5915
   45MOL0     O 5988   5.430  -0.235   7.952 -1.0577 -0.5353  0.3386
   45MOL0     C 5989   5.745  -0.073   7.937 -0.6049  0.0975 -0.0114
   45MOL0     C 5990   5.810   0.046   7.968  0.2762  0.3975  0.0349
   45MOL0     N 5991   6.244   0.490   8.363  0.2174 -0.4976  0.2121
   45MOL0     N 5992   6.315   0.588   8.318 -0.1272 -0.9387  0.5906
   45MOL0     C 5993   6.047   1.692   8.581  0.0601  0.3037  0.1316
   45MOL0     C 5994   5.927   1.755   8.621  0.2529  0.0619 -0.7692
   45MOL0     C 5995   5.622   1.905   8.941 -0.9574  0.1692  0.3758
   45MOL0     C 5996   5.608   1.931   9.086  0.5396  0.5543 -0.0574
   45MOL0     C 5997   5.491   2.000   9.134 -0.0546  0.1016  0.7545
   45MOL0     C 5998   5.396   2.039   9.038 -0.2326 -0.4887 -0.5411
   45MOL0     O 5999   5.276   2.100   9.073  0.4057  0.7729  0.6738
   45MOL0     C 6000   5.276   2.204   9.171 -0.7452 -0.2286  0.1012
   45MOL0     C 6001   5.197   2.170   9.297  0.0746 -0.3505  0.2540
   45MOL0     C 6002   5.051   2.131   9.273 -0.2978  0.4558 -1.0189
   45MOL0     C 6003   4.976   2.105   9.415  0.2285  0.1410 -1.1309
   45MOL0     C 6004   4.833   2.119   9.376 -0.0163  0.2483 -0.9072
   45MOL0     C 6005   4.711   2.143   9.354  0.3471  0.0965 -0.2093
   45MOL0     C 6006   5.423   2.009   8.900 -0.2570 -1.0549 -0.3589
   45MOL0     C 6007   5.525   1.934   8.852  0.4896 -0.0405  0.2923
   45MOL0     H 6008   5.910   1.590   8.922 -1.0016 -0.4552 -0.2767
   45MOL0     H 6009   6.100   1.490   8.854 -1.2064  2.1123  1.0956
   45MOL0     H 6010   6.432   1.489   8.646  0.6446 -1.7128  1.0768
   45MOL0     H 6011   6.334   1.502   8.785  4.4214  2.8531 -1.0831
   45MOL0     H 6012   6.333   1.283   8.746 -1.4701  0.5278  1.0091
   45MOL0     H 6013   6.182   1.332   8.669  0.2082  2.3298 -2.8037
   45MOL0     H 6014   6.289   1.314   8.445  1.1486  0.0076 -1.5579
   45MOL0     H 6015   6.447   1.300   8.539  0.1219 -0.5129  2.7745
   45MOL0     H 6016   6.423   1.077   8.556 -0.2763 -2.8759  0.5492
   45MOL0     H 6017   6.246   1.094   8.586  0.8177 -0.4659 -0.1975
   45MOL0     H 6018   6.204   1.124   8.333 -0.0490 -1.5811 -1.7197
   45MOL0     H 6019   6.376   1.144   8.315 -1.9652 -0.9579 -4.3893
   45MOL0     H 6020   6.413   0.912   8.368  0.2307 -0.3745 -1.6576
   45MOL0     H 6021   6.237   0.889   8.398  2.1970 -1.7456  2.6055
   45MOL0     H 6022   6.160   0.907   8.184 -1.2925  0.0729 -1.3443
   45MOL0     H 6023   6.302   0.969   8.113 -2.0362 -0.0360 -0.4266
   45MOL0     H 6024   6.424   0.758   8.165  0.1393  2.2174 -0.3475
   45MOL0     H 6025   6.298   0.731   8.046  1.2446 -1.3692 -0.3942
   45MOL0     H 6026   6.043   0.641   8.152  0.4033  1.0293  0.0690
   45MOL0     H 6027   5.972   0.412   8.439 -0.4858  0.7806 -1.0228
   45MOL0     H 6028   5.905   0.449   8.287  2.0308  2.4173  0.2512
   45MOL0     H 6029   5.907   0.215   8.312 -0.0832  1.0764  0.6877
   45MOL0     H 6030   6.072   0.215   8.367 -1.8021 -2.0916  1.0463
   45MOL0     H 6031   6.038   0.121   8.123 -0.8558  0.0653  2.3035
   45MOL0     H 6032   6.133   0.286   8.119 -0.6329  1.0392 -0.8815
   45MOL0     H 6033   5.955   0.283   7.947  0.2443  0.2791 -0.0614
   45MOL0     H 6034   5.951   0.411   8.070  2.9559  0.1096 -0.8855
   45MOL0     H 6035   5.587   0.172   8.186  0.1695  0.3298  0.4478
   45MOL0     H 6036   5.339   0.017   8.117  0.0120  1.4726  0.3383
   45MOL0     H 6037   5.413  -0.128   8.193 -1.1335 -0.5448 -0.7919
   45MOL0     H 6038   5.438   0.037   8.256 -0.8717  1.7963 -2.3254
   45MOL0     H 6039   5.427  -0.484   7.999 -1.5492 -0.9877  0.4054
   45MOL0     H 6040   5.356  -0.673   7.866  1.3469 -0.2811  2.2455
   45MOL0     H 6041   5.407  -0.846   7.444 -0.3990 -1.0896  2.1100
   45MOL0     H 6042   5.535  -0.735   7.434 -0.4978 -0.2346 -0.7129
   45MOL0     H 6043   5.647  -0.881   7.631  0.5713 -2.0631  0.8501
   45MOL0     H 6044   5.537  -1.004   7.588  1.4045 -0.7649  1.3998
   45MOL0     H 6045   5.756  -0.847   7.431 -1.6029  0.5908  0.2422
   45MOL0     H 6046   5.642  -0.949   7.341 -0.5533  1.0169 -0.3010
   45MOL0     H 6047   5.840  -1.047   7.545 -1.9760  1.5563  0.6812
   45MOL0     H 6048   5.726  -1.148   7.443  1.9481 -0.9862  0.6912
   45MOL0     H 6049   5.871  -0.995   7.255  0.1294  0.6281 -0.2655
   45MOL0     H 6050   5.927  -1.161   7.296  4.6755  1.2483  0.1496
   45MOL0     H 6051   6.013  -0.905   7.424  1.0304 -0.0041 -0.4290
   45MOL0     H 6052   6.067  -1.075   7.455  1.0579  0.4160  0.2326
   45MOL0     H 6053   6.100  -0.939   7.184  1.5542 -2.9118 -2.3969
   45MOL0     H 6054   6.169  -1.091   7.241 -1.1496  0.8537 -4.0913
   45MOL0     H 6055   6.331  -0.916   7.237  1.2999  2.0061  0.7948
   45MOL0     H 6056   6.285  -0.936   7.407  0.4964  1.3368  0.4548
   45MOL0     H 6057   5.678  -0.620   7.577  3.8767 -3.6205  1.3046
   45MOL0     H 6058   5.763  -0.437   7.711  2.4101 -2.1042 -0.1503
   45MOL0     H 6059   5.788  -0.146   7.869  1.5456 -1.9848  3.2547
   45MOL0     H 6060   5.901   0.080   7.920 -0.0735  2.5555  0.8109
   45MOL0     H 6061   6.104   1.717   8.492 -1.4960 -3.1737 -2.1048
   45MOL0     H 6062   5.864   1.817   8.558 -3.0911 -1.8876  0.3762
   45MOL0     H 6063   5.678   1.887   9.156 -0.9596  1.0176  1.8072
   45MOL0     H 6064   5.478   2.019   9.240  1.3478 -0.0952  0.9811
   45MOL0     H 6065   5.380   2.223   9.200 -0.3261 -1.2548 -0.6442
   45MOL0     H 6066   5.240   2.298   9.130 -0.3510 -0.3337 -0.4988
   45MOL0     H 6067   5.178   2.261   9.354  0.3162  0.5000 -0.9883
   45MOL0     H 6068   5.256   2.098   9.355 -0.9435 -1.6762 -0.2996
   45MOL0     H 6069   5.050   2.039   9.215  2.3284 -1.7542  2.0575
   45MOL0     H 6070   4.995   2.198   9.207  1.3759  3.4638  0.4069
   45MOL0     H 6071   4.989   2.182   9.493 -2.8625  0.5402 -0.8717
   45MOL0     H 6072   5.014   2.014   9.462  2.8226  1.3111 -0.7882
   45MOL0     H 6073   4.611   2.160   9.318 -0.1422 -1.3119  0.4223
   45MOL0     H 6074   5.351   2.050   8.830  1.6384  0.3454 -1.5998
   45MOL0     H 6075   5.545   1.914   8.747 -1.1159  2.3522 -0.5353
   46MOL0     O 6076   1.493   8.118   3.000 -0.6297  0.5955  0.2675
   46MOL0     C 6077   1.476   7.992   3.022 -0.7027 -0.0565 -0.2144
   46MOL0     O 6078   1.426   7.905   2.936  0.2164 -0.0037 -0.2367
   46MOL0     C 6079   1.390   7.933   2.813  0.1718  0.1504  0.2359
   46MOL0     C 6080   1.477   7.954   2.706  0.2405  0.6512 -0.2350
   46MOL0     C 6081   1.440   7.952   2.573 -0.2567 -0.8074  0.1823
   46MOL0     C 6082   1.303   7.931   2.545 -0.0978  0.5142  0.3118
   46MOL0     O 6083   1.275   7.923   2.408 -0.3355  0.2770 -0.0393
   46MOL0     C 6084   1.155   7.981   2.371 -0.1263 -0.1311  0.3312
   46MOL0     C 6085   1.151   7.986   2.224 -0.8846  0.0078  0.5593
   46MOL0     C 6086   1.203   8.127   2.176  0.5274  0.6670 -0.2178
   46MOL0     C 6087   1.247   8.143   2.032 -0.0583 -0.3961 -0.5058
   46MOL0     C 6088   1.143   8.141   1.918 -0.3627  0.5527 -0.6567
   46MOL0     C 6089   1.138   8.280   1.866 -0.0217 -0.7534  0.1736
   46MOL0     C 6090   1.008   8.276   1.766  0.0581  0.5358  0.4680
   46MOL0     C 6091   0.871   8.251   1.832 -0.1027  0.1687  0.0316
   46MOL0     N 6092   0.843   8.340   1.946 -1.2624 -0.4451 -0.1611
   46MOL0     C 6093   0.774   8.293   2.062  0.1418 -0.6380  0.5967
   46MOL0     C 6094   0.765   8.403   2.135  1.0666 -0.9937  0.1343
   46MOL0     C 6095   0.719   8.407   2.279  0.9342  0.4866  0.2246
   46MOL0     C 6096   0.833   8.362   2.380  0.3828 -0.0928 -0.2141
   46MOL0     C 6097   0.950   8.461   2.373 -0.7106  0.8456  0.1836
   46MOL0     C 6098   1.000   8.496   2.518 -0.1805 -0.0337  0.5665
   46MOL0     O 6099   1.057   8.381   2.577  0.4323  0.5376 -0.9622
   46MOL0     C 6100   1.022   8.339   2.700  0.1632  0.0431 -0.1879
   46MOL0     C 6101   0.898   8.347   2.770 -0.3948  0.1147 -0.9963
   46MOL0     C 6102   0.886   8.298   2.907 -0.0461  0.0315 -0.5295
   46MOL0     C 6103   0.762   8.299   2.986  0.2004 -0.0130  0.1982
   46MOL0     C 6104   0.999   8.232   2.965  0.8750  0.5678  0.3092
   46MOL0     C 6105   0.994   8.154   3.099  0.3477  1.0058  0.0256
   46MOL0     O 6106   1.101   8.168   3.177  0.1831  0.0310 -0.1479
   46MOL0     C 6107   1.091   8.112   3.308 -0.9326 -1.1963 -0.3443
   46MOL0     C 6108   0.995   8.136   3.406 -0.2973  0.6149 -0.4426
   46MOL0     C 6109   1.015   8.069   3.534 -0.6055  0.3856  1.2427
   46MOL0     C 6110   1.128   7.990   3.561  0.6917 -0.1099  0.9553
   46MOL0     O 6111   1.150   7.939   3.688  0.2752  0.3061  0.0128
   46MOL0     C 6112   1.211   7.805   3.677 -0.9806  0.6233 -0.7263
   46MOL0     C 6113   1.235   7.747   3.817  0.2987 -0.3110 -0.1638
   46MOL0     C 6114   1.356   7.822   3.873  1.0385  0.6838  0.7454
   46MOL0     C 6115   1.382   7.768   4.019  0.2021 -0.2636 -0.2508
   46MOL0     C 6116   1.503   7.838   4.087  0.5357  0.8798 -0.2572
   46MOL0     C 6117   1.524   7.767   4.222  0.7561  0.2884 -1.0244
   46MOL0     C 6118   1.599   7.852   4.315  0.0050 -0.9562  0.3757
   46MOL0     C 6119   1.730   7.909   4.247  0.5617 -0.5850 -0.0293
   46MOL0    Cl 6120   1.824   7.992   4.353 -0.2750  0.3528 -0.0441
   46MOL0     C 6121   1.233   7.998   3.468 -0.2151 -0.3741  0.5392
   46MOL0     C 6122   1.205   8.050   3.344 -1.5178  0.0497 -0.0982
   46MOL0     O 6123   0.884   8.104   3.128 -0.6873  0.8875 -0.1910
   46MOL0     C 6124   1.117   8.221   2.889 -0.5844 -0.2197 -0.2572
   46MOL0     C 6125   1.128   8.272   2.760 -0.8158  0.4865 -0.8091
   46MOL0     N 6126   0.841   8.501   2.077 -0.5113  0.4198  0.0985
   46MOL0     N 6127   0.877   8.466   1.960  0.9977  0.0387  0.3715
   46MOL0     C 6128   1.210   7.920   2.639  0.5170 -0.1633 -0.8202
   46MOL0     C 6129   1.253   7.926   2.777 -0.0451  0.3072  0.2281
   46MOL0     C 6130   1.533   7.946   3.151  0.0087 -0.2643 -0.0414
   46MOL0     C 6131   1.508   7.813   3.190  0.4219  0.0726 -0.4021
   46MOL0     C 6132   1.560   7.772   3.308  0.0250 -0.2823  0.1051
   46MOL0     C 6133   1.632   7.858   3.392 -1.1370  1.2813  1.2513
   46MOL0     O 6134   1.669   7.795   3.508  0.1252  0.0778  0.0428
   46MOL0     C 6135   1.767   7.857   3.587 -0.0304  0.0528  0.0563
   46MOL0     C 6136   1.811   7.769   3.713  0.1685  0.0418 -0.1837
   46MOL0     C 6137   1.849   7.624   3.662  0.1806  0.2110 -1.4658
   46MOL0     C 6138   1.920   7.547   3.776 -0.2676  0.5228 -1.0361
   46MOL0     C 6139   1.827   7.511   3.892 -0.1556 -0.4119  0.9320
   46MOL0     C 6140   1.769   7.500   4.001  1.0880  0.0641 -0.5035
   46MOL0     C 6141   1.658   7.990   3.348  1.0631  1.0401  0.6462
   46MOL0     C 6142   1.604   8.039   3.224  0.6553 -0.2718 -0.5100
   46MOL0     H 6143   1.584   7.967   2.720  0.0371 -0.6715  3.9006
   46MOL0     H 6144   1.514   7.978   2.499 -2.8431 -0.6285 -2.5426
   46MOL0     H 6145   1.075   7.920   2.414  1.2963 -1.7677  0.7823
   46MOL0     H 6146   1.163   8.083   2.411 -2.0199 -0.6986  2.3286
   46MOL0     H 6147   1.209   7.900   2.191 -0.0842  1.1642 -1.1810
   46MOL0     H 6148   1.049   7.975   2.187 -0.7320  4.7581 -2.0932
   46MOL0     H 6149   1.141   8.209   2.214 -2.0762 -1.4116  0.3135
   46MOL0     H 6150   1.289   8.141   2.242 -1.7188  0.3482  3.0005
   46MOL0     H 6151   1.303   8.237   2.036 -0.6564 -0.0835  2.0976
   46MOL0     H 6152   1.328   8.072   2.016  1.9701  1.8244 -0.6389
   46MOL0     H 6153   1.180   8.087   1.831  1.5973 -2.5402  1.8839
   46MOL0     H 6154   1.048   8.105   1.958 -0.3611  0.5359 -0.6691
   46MOL0     H 6155   1.105   8.350   1.943  0.1161  1.2070 -1.4393
   46MOL0     H 6156   1.231   8.310   1.817 -0.0278 -0.3147  0.4317
   46MOL0     H 6157   0.988   8.373   1.720  0.1879  0.0278 -0.7138
   46MOL0     H 6158   1.034   8.202   1.689  2.5515 -0.0342  1.7466
   46MOL0     H 6159   0.875   8.148   1.868  2.2945 -0.4755 -1.8601
   46MOL0     H 6160   0.787   8.254   1.761 -1.1868  1.5887  1.2755
   46MOL0     H 6161   0.730   8.198   2.092  0.1381 -0.9790 -0.4450
   46MOL0     H 6162   0.700   8.508   2.316  0.1053  0.0379  1.0644
   46MOL0     H 6163   0.625   8.354   2.294 -1.8462  3.7566 -3.4467
   46MOL0     H 6164   0.857   8.257   2.365 -2.3389 -0.8247  0.0340
   46MOL0     H 6165   0.790   8.361   2.481  0.7269  4.5631  0.1856
   46MOL0     H 6166   0.907   8.553   2.332 -2.3965 -0.2347 -0.5921
   46MOL0     H 6167   1.034   8.431   2.310 -0.7349  0.2957  0.4076
   46MOL0     H 6168   0.916   8.538   2.574 -0.7939  0.9939 -1.0666
   46MOL0     H 6169   1.074   8.575   2.515 -0.6064  0.3512 -0.4731
   46MOL0     H 6170   0.822   8.412   2.727 -0.3370  0.6673 -0.2790
   46MOL0     H 6171   0.713   8.202   2.975 -1.3775  0.9127 -1.2860
   46MOL0     H 6172   0.784   8.311   3.093  1.5046 -4.3920  0.6311
   46MOL0     H 6173   0.694   8.378   2.954  1.9083  1.1432 -0.7613
   46MOL0     H 6174   0.907   8.192   3.376 -0.2128  0.6652 -0.5945
   46MOL0     H 6175   0.945   8.083   3.617 -1.0315 -0.8350  1.1123
   46MOL0     H 6176   1.147   7.731   3.630  0.7539 -1.2284 -0.3110
   46MOL0     H 6177   1.299   7.799   3.612  1.2471 -0.6431  2.1769
   46MOL0     H 6178   1.143   7.767   3.872  1.4326  4.5691  0.4198
   46MOL0     H 6179   1.250   7.639   3.821 -4.6908 -1.2071  0.1222
   46MOL0     H 6180   1.336   7.930   3.876 -1.3875  0.2791  1.0245
   46MOL0     H 6181   1.437   7.793   3.805 -1.0744  0.0844 -1.6782
   46MOL0     H 6182   1.296   7.790   4.084  1.3011  1.5786  0.6838
   46MOL0     H 6183   1.389   7.659   4.018 -1.9501 -0.4532  0.0982
   46MOL0     H 6184   1.494   7.947   4.089  1.5959  1.0125 -1.4776
   46MOL0     H 6185   1.590   7.816   4.024 -0.4352 -3.3217 -0.4402
   46MOL0     H 6186   1.429   7.737   4.267  1.8410  1.9224  2.7123
   46MOL0     H 6187   1.574   7.673   4.196 -0.5885 -0.4276 -1.1162
   46MOL0     H 6188   1.636   7.788   4.396 -0.7598 -1.5122  0.3033
   46MOL0     H 6189   1.539   7.934   4.355 -0.5995  0.5742 -3.2297
   46MOL0     H 6190   1.703   7.982   4.170  0.0449 -0.3626  0.3589
   46MOL0     H 6191   1.784   7.818   4.217 -2.3695 -2.7578  0.7529
   46MOL0     H 6192   1.331   7.957   3.488  2.2380  3.5822 -1.9546
   46MOL0     H 6193   1.285   8.048   3.272 -0.4890  1.0342  0.9606
   46MOL0     H 6194   1.207   8.171   2.923  0.8526  1.5188 -1.3274
   46MOL0     H 6195   1.222   8.254   2.708 -1.1948 -0.0533 -1.3279
   46MOL0     H 6196   1.105   7.908   2.613  0.7044 -0.4869 -1.4620
   46MOL0     H 6197   1.184   7.902   2.857 -0.1815 -0.3416 -0.0814
   46MOL0     H 6198   1.441   7.741   3.144 -1.0388  0.8284  0.4770
   46MOL0     H 6199   1.542   7.676   3.355 -1.1352  1.3591  3.3166
   46MOL0     H 6200   1.850   7.869   3.516  0.7164  2.6005  1.2536
   46MOL0     H 6201   1.743   7.958   3.621 -0.3259  0.1491 -0.4295
   46MOL0     H 6202   1.730   7.759   3.786 -0.1029 -1.4590 -0.6746
   46MOL0     H 6203   1.900   7.820   3.754  0.1763 -0.0028 -0.1458
   46MOL0     H 6204   1.917   7.632   3.578  2.0617  1.8060  0.1120
   46MOL0     H 6205   1.762   7.566   3.630 -0.7940  0.3421  0.7543
   46MOL0     H 6206   2.000   7.616   3.806  1.1767 -1.2239 -0.6854
   46MOL0     H 6207   1.958   7.450   3.742 -2.5959 -0.4111 -1.1916
   46MOL0     H 6208   1.713   7.479   4.090  1.5593  1.0008  0.0234
   46MOL0     H 6209   1.716   8.049   3.418  0.5833  0.3033  1.6877
   46MOL0     H 6210   1.618   8.144   3.203  0.5220  0.1452  1.3116
   47MOL0     O 6211   5.786   4.151   2.556 -0.1240 -0.4839  1.1615
   47MOL0     C 6212   5.813   4.059   2.635 -0.0433 -0.5006 -0.5294
   47MOL0     O 6213   5.740   4.031   2.743 -0.4533  0.4280  0.5248
   47MOL0     C 6214   5.622   4.096   2.770 -1.1899  0.4462 -0.5343
   47MOL0     C 6215   5.501   4.080   2.699  0.3161  0.8386 -0.4475
   47MOL0     C 6216   5.386   4.153   2.723  0.1983 -0.6296 -0.2854
   47MOL0     C 6217   5.390   4.248   2.825 -0.2345 -0.1032  0.4928
   47MOL0     O 6218   5.285   4.327   2.859  0.5894  0.0186 -0.0631
   47MOL0     C 6219   5.153   4.258   2.857  1.1601  0.1552 -0.3540
   47MOL0     C 6220   5.056   4.327   2.946  0.3139  0.2709  0.0085
   47MOL0     C 6221   4.924   4.249   2.969 -0.0127  0.1035  0.1246
   47MOL0     C 6222   4.926   4.122   3.062 -0.6150 -0.0299  0.0844
   47MOL0     C 6223   4.793   4.044   3.055  0.2200  0.0191 -1.1359
   47MOL0     C 6224   4.681   4.135   3.090  0.0209  1.0903 -0.4934
   47MOL0     C 6225   4.553   4.058   3.126  0.8688 -0.3574  0.7772
   47MOL0     C 6226   4.487   3.979   3.009 -1.1484 -0.4106  0.6170
   47MOL0     N 6227   4.368   3.911   3.052 -0.6855  0.4790  0.6457
   47MOL0     C 6228   4.344   3.852   3.170 -0.6315  0.2260 -0.3714
   47MOL0     C 6229   4.215   3.809   3.159 -0.4164 -0.0778  0.8917
   47MOL0     C 6230   4.143   3.715   3.243  0.5142 -1.2118 -0.0918
   47MOL0     C 6231   4.090   3.596   3.173  0.0411 -0.2713 -0.0987
   47MOL0     C 6232   4.205   3.522   3.095  0.1884  0.5537  0.0889
   47MOL0     C 6233   4.173   3.379   3.060 -0.7477 -0.2950  0.2800
   47MOL0     O 6234   4.059   3.379   2.969  0.1969 -0.4678  0.3384
   47MOL0     C 6235   3.988   3.262   2.963  0.7434 -0.6185  0.0984
   47MOL0     C 6236   3.853   3.269   2.931 -0.5008 -0.5275 -0.4321
   47MOL0     C 6237   3.772   3.156   2.910  0.7801 -0.0690 -0.6496
   47MOL0     C 6238   3.636   3.169   2.852  0.7490 -1.1471  0.1579
   47MOL0     C 6239   3.823   3.029   2.943 -0.8658 -0.2421 -0.3097
   47MOL0     C 6240   3.741   2.918   2.977  0.6284  0.3697  0.1132
   47MOL0     O 6241   3.756   2.805   2.904  0.6255  0.3907  0.1618
   47MOL0     C 6242   3.675   2.699   2.919 -0.7137 -0.4403  0.1906
   47MOL0     C 6243   3.729   2.587   2.984  0.7259  0.3914 -0.0971
   47MOL0     C 6244   3.644   2.476   3.008  0.2044 -0.6217 -0.1586
   47MOL0     C 6245   3.509   2.478   2.967  0.7916  0.1853  0.1465
   47MOL0     O 6246   3.439   2.361   2.991 -0.9722 -1.0783  0.7431
   47MOL0     C 6247   3.343   2.317   2.889 -0.7271 -0.3772 -0.8039
   47MOL0     C 6248   3.307   2.166   2.910  0.3134 -0.3993  0.5768
   47MOL0     C 6249   3.416   2.064   2.917 -0.5638  0.9646 -0.1765
   47MOL0     C 6250   3.474   2.034   2.770 -0.0362 -1.5087  1.0044
   47MOL0     C 6251   3.560   1.909   2.773 -0.1564  0.0616 -0.4125
   47MOL0     C 6252   3.624   1.876   2.640  0.3757 -0.0234 -0.5665
   47MOL0     C 6253   3.721   1.756   2.649  0.8528 -0.0604 -0.0856
   47MOL0     C 6254   3.821   1.753   2.538 -0.2187  0.1790  0.3874
   47MOL0    Cl 6255   3.952   1.880   2.557  0.3482  0.2658 -0.0668
   47MOL0     C 6256   3.456   2.597   2.912  0.0713 -0.1630 -0.7368
   47MOL0     C 6257   3.538   2.707   2.884  0.4532 -0.4365 -0.2936
   47MOL0     O 6258   3.651   2.926   3.060  0.4210 -0.9286 -0.6910
   47MOL0     C 6259   3.962   3.020   2.975 -0.0161 -1.0664 -0.3625
   47MOL0     C 6260   4.037   3.136   2.985 -0.7933  0.1170 -0.7870
   47MOL0     N 6261   4.157   3.866   3.037 -0.2665  0.5634 -0.7919
   47MOL0     N 6262   4.256   3.908   2.970 -0.3980 -0.0317  0.5452
   47MOL0     C 6263   5.504   4.272   2.895  0.5428 -0.0472 -0.7913
   47MOL0     C 6264   5.618   4.191   2.872  0.4893 -0.3957 -0.0441
   47MOL0     C 6265   5.940   3.982   2.622  0.2432 -0.5791 -0.5346
   47MOL0     C 6266   5.956   3.871   2.711 -1.0359 -0.1655 -0.5610
   47MOL0     C 6267   6.078   3.811   2.717  0.7441  0.3452 -0.2822
   47MOL0     C 6268   6.183   3.848   2.626 -0.6802  0.1765 -0.2015
   47MOL0     O 6269   6.304   3.781   2.617  0.3651 -0.1413  0.3596
   47MOL0     C 6270   6.329   3.652   2.675 -0.0074 -0.7649  0.4020
   47MOL0     C 6271   6.409   3.668   2.802  1.3615 -0.4778  0.8168
   47MOL0     C 6272   6.441   3.523   2.858 -0.2875 -0.9998 -0.1316
   47MOL0     C 6273   6.320   3.467   2.932 -0.8811  0.3758  0.2262
   47MOL0     C 6274   6.327   3.327   2.933 -1.0716  0.5773 -0.0520
   47MOL0     C 6275   6.332   3.205   2.940  0.5783 -0.0773  0.0217
   47MOL0     C 6276   6.152   3.945   2.537 -0.4642 -0.3134  0.0472
   47MOL0     C 6277   6.035   4.019   2.539 -0.3902  0.7366 -0.3679
   47MOL0     H 6278   5.498   3.997   2.628  0.5458 -1.8140  2.4350
   47MOL0     H 6279   5.290   4.140   2.674 -0.3693  1.5179  0.1530
   47MOL0     H 6280   5.107   4.263   2.758 -0.2240  2.3493  0.3356
   47MOL0     H 6281   5.164   4.154   2.890  0.4717  0.3699  0.5730
   47MOL0     H 6282   5.107   4.354   3.039 -1.0843  3.0978  0.0486
   47MOL0     H 6283   5.028   4.419   2.894  0.2743  1.1402  1.4990
   47MOL0     H 6284   4.846   4.317   3.006 -0.2020  0.9879 -1.7684
   47MOL0     H 6285   4.883   4.216   2.873 -2.3693  3.0946 -0.0751
   47MOL0     H 6286   5.015   4.064   3.039 -1.0114 -0.3924 -0.5623
   47MOL0     H 6287   4.946   4.154   3.165  0.2357  2.3010 -0.7306
   47MOL0     H 6288   4.776   3.989   2.961 -0.5603  1.2217 -1.7190
   47MOL0     H 6289   4.797   3.964   3.130  1.5643  1.4920  0.4468
   47MOL0     H 6290   4.711   4.196   3.176  1.9929 -0.3644 -0.0677
   47MOL0     H 6291   4.650   4.195   3.004  4.8358 -2.1748 -5.1922
   47MOL0     H 6292   4.577   3.997   3.213  0.0410  0.0328  1.2955
   47MOL0     H 6293   4.480   4.127   3.170 -0.3498 -0.8243 -0.4148
   47MOL0     H 6294   4.564   3.928   2.950  1.3756  2.2341  1.4196
   47MOL0     H 6295   4.468   4.062   2.941 -1.2110 -2.0583 -1.5102
   47MOL0     H 6296   4.408   3.846   3.257 -1.2026 -0.2006  0.0282
   47MOL0     H 6297   4.199   3.684   3.332 -0.8941 -0.6511  1.0388
   47MOL0     H 6298   4.058   3.778   3.271  0.4697 -0.8397 -1.0296
   47MOL0     H 6299   4.013   3.631   3.104  0.6034  0.3107 -0.4297
   47MOL0     H 6300   4.039   3.536   3.250 -0.4857  1.3067  0.8404
   47MOL0     H 6301   4.301   3.515   3.147  0.2582  2.1954  0.2303
   47MOL0     H 6302   4.219   3.575   3.000 -0.8482  3.2941  1.3575
   47MOL0     H 6303   4.157   3.314   3.147  0.4931 -0.8195  0.1399
   47MOL0     H 6304   4.260   3.333   3.011  0.3719  2.7936 -0.8577
   47MOL0     H 6305   3.822   3.364   2.888 -0.0298 -0.6451 -1.0435
   47MOL0     H 6306   3.635   3.107   2.762  1.5930 -3.5353  1.6953
   47MOL0     H 6307   3.559   3.123   2.915  0.1149 -0.4695 -0.1019
   47MOL0     H 6308   3.617   3.277   2.850 -1.3174 -1.4580  0.4763
   47MOL0     H 6309   3.828   2.594   3.028  0.5136  1.5731  0.2352
   47MOL0     H 6310   3.703   2.404   3.064  0.5564  0.1193  0.4338
   47MOL0     H 6311   3.262   2.390   2.894 -0.4307  0.0060 -1.4557
   47MOL0     H 6312   3.391   2.318   2.790 -1.4511  0.5866 -1.1590
   47MOL0     H 6313   3.257   2.159   3.007  1.5946 -0.2980  1.2735
   47MOL0     H 6314   3.236   2.145   2.829 -0.5081  1.6004  0.7353
   47MOL0     H 6315   3.375   1.973   2.961  2.2659 -1.8340 -2.7249
   47MOL0     H 6316   3.502   2.092   2.978 -2.4518  1.2351  2.5142
   47MOL0     H 6317   3.401   2.020   2.689  2.2056 -1.8901 -1.0657
   47MOL0     H 6318   3.535   2.120   2.743 -0.9175 -1.2721 -0.3267
   47MOL0     H 6319   3.499   1.825   2.809 -1.3782  0.4647 -1.4736
   47MOL0     H 6320   3.640   1.920   2.847  1.3615  1.5588 -2.1712
   47MOL0     H 6321   3.543   1.842   2.574  1.4840 -2.8340 -0.5940
   47MOL0     H 6322   3.663   1.966   2.591  0.2521  0.1540 -0.3492
   47MOL0     H 6323   3.656   1.669   2.657  1.2811 -0.3478  0.2900
   47MOL0     H 6324   3.786   1.748   2.737  3.1683  1.2936 -1.5676
   47MOL0     H 6325   3.776   1.769   2.440  1.3236  1.8262 -0.1096
   47MOL0     H 6326   3.865   1.653   2.543  2.0821  1.0732 -0.5815
   47MOL0     H 6327   3.354   2.606   2.875 -0.0036 -2.5017 -1.2670
   47MOL0     H 6328   3.485   2.792   2.844  0.9050 -0.0140 -0.0008
   47MOL0     H 6329   4.018   2.937   3.016  0.4139 -0.4443  0.3545
   47MOL0     H 6330   4.141   3.126   3.014 -0.7560  2.4864  0.1331
   47MOL0     H 6331   5.520   4.356   2.961  2.0209 -1.3817  0.6350
   47MOL0     H 6332   5.703   4.209   2.938  2.2098  0.1006 -2.2635
   47MOL0     H 6333   5.879   3.843   2.782  1.3190  3.0198  3.6904
   47MOL0     H 6334   6.088   3.720   2.775 -1.5818  0.3340  0.1736
   47MOL0     H 6335   6.239   3.590   2.680 -1.4023  0.5612 -4.1172
   47MOL0     H 6336   6.388   3.595   2.603 -2.1271 -2.0579 -0.4073
   47MOL0     H 6337   6.341   3.717   2.872  0.0735 -0.3335 -0.4814
   47MOL0     H 6338   6.493   3.735   2.783  1.7353 -0.4662  2.3812
   47MOL0     H 6339   6.532   3.528   2.918 -0.3438  0.7834 -0.1332
   47MOL0     H 6340   6.459   3.446   2.782  1.1272  0.3316 -1.2089
   47MOL0     H 6341   6.222   3.498   2.896 -0.6626 -0.6348 -1.3109
   47MOL0     H 6342   6.331   3.505   3.034  1.3723 -1.7650  0.8991
   47MOL0     H 6343   6.328   3.100   2.921 -0.2378  0.2387 -1.7063
   47MOL0     H 6344   6.232   3.990   2.479 -1.3002  2.3872  0.8221
   47MOL0     H 6345   6.030   4.104   2.472 -1.3746  0.1641 -1.0535
   48MOL0     O 6346   8.272   3.931  10.644  0.5660  0.1879 -0.6315
   48MOL0     C 6347   8.224   3.988  10.741  0.2122  0.8872 -0.0008
   48MOL0     O 6348   8.225   4.123  10.758 -0.3783  0.0741 -0.7897
   48MOL0     C 6349   8.316   4.202  10.690  0.7066 -0.3303  0.1623
   48MOL0     C 6350   8.414   4.160  10.602  0.4450  0.5154  0.4918
   48MOL0     C 6351   8.474   4.263  10.527 -0.4503 -0.1707  0.1860
   48MOL0     C 6352   8.451   4.401  10.534  0.9144  0.1988 -0.9559
   48MOL0     O 6353   8.518   4.484  10.458 -1.0026 -0.5974  0.0524
   48MOL0     C 6354   8.659   4.486  10.495 -0.6361 -0.7755 -0.6063
   48MOL0     C 6355   8.666   4.611  10.583  0.0582 -0.3114 -0.0395
   48MOL0     C 6356   8.800   4.643  10.640  0.5872  0.0622 -0.1527
   48MOL0     C 6357   8.796   4.749  10.761  0.4425 -0.9124 -0.0710
   48MOL0     C 6358   8.930   4.798  10.824  0.3161  0.0051 -0.8311
   48MOL0     C 6359   9.031   4.826  10.713  0.5594  0.5777 -0.3175
   48MOL0     C 6360   9.166   4.858  10.760 -0.9315 -0.4722 -0.4004
   48MOL0     C 6361   9.231   4.784  10.874 -0.6348 -0.1086 -0.1426
   48MOL0     N 6362   9.356   4.840  10.933 -0.6084 -0.4045  0.8483
   48MOL0     C 6363   9.464   4.884  10.865 -0.5547  0.0762  0.6479
   48MOL0     C 6364   9.550   4.927  10.962  0.6739  0.3403  0.0293
   48MOL0     C 6365   9.687   4.994  10.958  0.8964  0.2687  1.2173
   48MOL0     C 6366   9.781   4.955  10.844 -0.8331 -0.2483  0.2378
   48MOL0     C 6367   9.747   5.027  10.722 -0.3099 -0.1954  0.8981
   48MOL0     C 6368   9.804   4.973  10.587  0.7897  0.2806 -0.0028
   48MOL0     O 6369   9.771   4.829  10.591 -0.1566  0.3557  0.9979
   48MOL0     C 6370   9.648   4.796  10.548 -0.5678  0.0167  0.4064
   48MOL0     C 6371   9.627   4.657  10.539  0.1538  0.3867 -0.6507
   48MOL0     C 6372   9.502   4.602  10.505 -0.4721 -1.0992 -0.6658
   48MOL0     C 6373   9.497   4.447  10.477  0.7415  0.1787 -0.2098
   48MOL0     C 6374   9.395   4.688  10.475  1.2050 -0.3598  0.7191
   48MOL0     C 6375   9.260   4.646  10.422 -0.2029  0.8550  0.1093
   48MOL0     O 6376   9.165   4.741  10.405  0.5270  0.0076  0.6716
   48MOL0     C 6377   9.043   4.712  10.341  0.1307 -0.2831 -0.1716
   48MOL0     C 6378   9.021   4.596  10.257 -0.2454 -0.7022 -0.7045
   48MOL0     C 6379   8.892   4.566  10.212 -0.3783 -0.8300 -0.3965
   48MOL0     C 6380   8.783   4.662  10.217  0.1478  1.0211  0.2695
   48MOL0     O 6381   8.659   4.619  10.165 -0.0109 -0.2518  0.4075
   48MOL0     C 6382   8.570   4.712  10.101  0.1304  0.9909  0.3201
   48MOL0     C 6383   8.465   4.647  10.006 -0.8033  0.9702 -0.0407
   48MOL0     C 6384   8.373   4.763   9.978 -0.3130 -0.8176 -0.3879
   48MOL0     C 6385   8.419   4.842   9.858  0.6973  0.3313  0.0189
   48MOL0     C 6386   8.333   4.975   9.867  0.6031 -0.2736  0.7271
   48MOL0     C 6387   8.384   5.077   9.765  0.3912 -0.1353 -0.3557
   48MOL0     C 6388   8.354   5.034   9.614  0.1022 -0.6986 -0.4188
   48MOL0     C 6389   8.355   5.151   9.526 -0.3210 -0.0093  0.1875
   48MOL0    Cl 6390   8.516   5.262   9.545 -0.2825  0.3670  0.1762
   48MOL0     C 6391   8.813   4.784  10.278 -1.0745  0.2716 -0.0334
   48MOL0     C 6392   8.937   4.803  10.345 -0.3297 -0.5681  0.5601
   48MOL0     O 6393   9.248   4.527  10.393 -0.2868  0.6358 -0.7049
   48MOL0     C 6394   9.412   4.830  10.479  0.6865  0.1610 -0.1701
   48MOL0     C 6395   9.540   4.879  10.504  0.3131 -0.3930 -0.4710
   48MOL0     N 6396   9.489   4.910  11.085  0.3491  0.9493 -0.3024
   48MOL0     N 6397   9.368   4.860  11.066  0.9273 -0.1855 -0.5209
   48MOL0     C 6398   8.364   4.438  10.633 -0.0377  0.5323 -1.4092
   48MOL0     C 6399   8.299   4.341  10.705  0.3497  0.0366 -0.5166
   48MOL0     C 6400   8.155   3.900  10.844  1.1559 -0.3764  0.9588
   48MOL0     C 6401   8.178   3.757  10.853 -0.2584  0.3073 -0.9862
   48MOL0     C 6402   8.111   3.687  10.954 -0.3205  0.1485 -0.2145
   48MOL0     C 6403   8.009   3.741  11.037  1.5259 -0.1006 -0.2276
   48MOL0     O 6404   7.935   3.680  11.145 -0.0182  0.5457  0.7428
   48MOL0     C 6405   7.959   3.543  11.186 -0.8943 -0.1180 -0.2778
   48MOL0     C 6406   7.867   3.454  11.115 -1.2035 -0.8263  0.6039
   48MOL0     C 6407   7.725   3.469  11.147 -0.1985  0.0210  0.0423
   48MOL0     C 6408   7.636   3.424  11.035 -0.3049  0.4588 -0.8196
   48MOL0     C 6409   7.498   3.453  11.075 -0.2623 -0.0255  0.0432
   48MOL0     C 6410   7.397   3.511  11.127  0.1367  0.1051  0.0877
   48MOL0     C 6411   7.990   3.876  11.031  0.0900 -0.6556 -0.4507
   48MOL0     C 6412   8.058   3.948  10.928 -0.5251  0.2255 -0.4427
   48MOL0     H 6413   8.438   4.057  10.577 -4.5991 -0.8998  0.4528
   48MOL0     H 6414   8.537   4.222  10.449  0.5819 -0.4760  1.1649
   48MOL0     H 6415   8.685   4.393  10.546  2.8299 -0.2006 -1.1128
   48MOL0     H 6416   8.727   4.498  10.410  0.0132 -0.2971 -0.0263
   48MOL0     H 6417   8.640   4.699  10.523 -1.6044 -1.2935 -0.8368
   48MOL0     H 6418   8.600   4.604  10.670 -1.0900 -2.0464 -0.9847
   48MOL0     H 6419   8.838   4.553  10.690  1.8625  0.1467 -0.9433
   48MOL0     H 6420   8.872   4.657  10.559  1.6108 -4.2048 -0.2573
   48MOL0     H 6421   8.732   4.834  10.736 -2.0160 -2.8846 -0.9470
   48MOL0     H 6422   8.733   4.703  10.837 -0.8817 -3.1621 -2.3386
   48MOL0     H 6423   8.913   4.881  10.894  0.3477  0.7291 -1.6682
   48MOL0     H 6424   8.972   4.726  10.895  0.5166  2.1619  1.3974
   48MOL0     H 6425   9.047   4.734  10.657 -0.3065  1.0101 -1.2879
   48MOL0     H 6426   8.989   4.903  10.648 -1.7402  0.6346  1.1268
   48MOL0     H 6427   9.224   4.838  10.669  0.7666 -0.2388  0.5899
   48MOL0     H 6428   9.184   4.965  10.769  1.7204 -1.0598  3.2679
   48MOL0     H 6429   9.232   4.681  10.835 -4.8491 -0.7598  0.9867
   48MOL0     H 6430   9.159   4.791  10.956 -0.3179 -0.4338  0.1635
   48MOL0     H 6431   9.473   4.896  10.757 -1.9224 -0.1309  0.4920
   48MOL0     H 6432   9.669   5.102  10.968 -0.5327  0.2129 -0.2917
   48MOL0     H 6433   9.737   4.951  11.045 -1.0726 -2.1675  1.2285
   48MOL0     H 6434   9.769   4.847  10.838 -0.7148 -0.2649  0.3085
   48MOL0     H 6435   9.883   4.976  10.877 -0.1538 -4.2188  1.1772
   48MOL0     H 6436   9.773   5.131  10.740  4.3418 -1.4128  2.6082
   48MOL0     H 6437   9.638   5.021  10.707 -0.0329 -1.9947 -0.7940
   48MOL0     H 6438   9.913   4.985  10.587  0.8193  0.2513 -1.6661
   48MOL0     H 6439   9.756   5.035  10.511 -2.8719 -2.8435 -0.5357
   48MOL0     H 6440   9.698   4.593  10.590  1.8369  4.0930  2.1583
   48MOL0     H 6441   9.471   4.425  10.373  0.6810  0.7175 -0.3104
   48MOL0     H 6442   9.600   4.412  10.485  1.0893  1.0669 -0.6691
   48MOL0     H 6443   9.427   4.399  10.546  0.7356 -1.0296 -1.0304
   48MOL0     H 6444   9.100   4.524  10.238  0.0648 -0.2192 -1.2920
   48MOL0     H 6445   8.890   4.471  10.160  0.3913 -1.1859  0.2031
   48MOL0     H 6446   8.519   4.767  10.180 -1.7284 -1.2450  0.8021
   48MOL0     H 6447   8.641   4.777  10.049  1.2893  0.0638  0.6928
   48MOL0     H 6448   8.521   4.613   9.919  3.1013 -3.2908  3.6280
   48MOL0     H 6449   8.423   4.562  10.060  0.1151  0.5259 -0.0133
   48MOL0     H 6450   8.368   4.832  10.063 -2.8309 -1.0785 -0.2505
   48MOL0     H 6451   8.276   4.713   9.963  0.1122 -2.2837  1.3672
   48MOL0     H 6452   8.526   4.851   9.878  1.5560 -3.1581 -2.1579
   48MOL0     H 6453   8.404   4.794   9.761 -1.3911  1.6474 -0.3660
   48MOL0     H 6454   8.318   5.019   9.966 -0.8929 -0.0639  0.4354
   48MOL0     H 6455   8.228   4.949   9.851  1.2383 -1.4014 -2.2327
   48MOL0     H 6456   8.325   5.168   9.778  0.2809 -0.3671  0.8400
   48MOL0     H 6457   8.490   5.099   9.776  0.4802  0.7408 -2.3604
   48MOL0     H 6458   8.250   4.999   9.613 -0.4772  0.9488 -0.9394
   48MOL0     H 6459   8.424   4.959   9.578  3.4629  1.2852  1.5380
   48MOL0     H 6460   8.265   5.212   9.534 -1.1591 -1.4896  4.8399
   48MOL0     H 6461   8.364   5.113   9.424  2.5732 -0.8928  0.6684
   48MOL0     H 6462   8.747   4.868  10.290 -0.6281  0.5657  0.4212
   48MOL0     H 6463   8.964   4.896  10.394  1.8336 -0.0121 -1.4791
   48MOL0     H 6464   9.342   4.906  10.448 -0.5597 -0.6967  0.4370
   48MOL0     H 6465   9.557   4.986  10.494  1.5581 -0.4575  0.7031
   48MOL0     H 6466   8.348   4.544  10.651 -0.8007  0.0804  0.8668
   48MOL0     H 6467   8.226   4.373  10.779 -0.5332 -2.6770 -0.0970
   48MOL0     H 6468   8.262   3.718  10.797 -0.0902  1.0600 -1.2780
   48MOL0     H 6469   8.145   3.585  10.965  0.2751  0.2451 -1.0710
   48MOL0     H 6470   8.067   3.529  11.177 -0.6374  1.9410 -1.0035
   48MOL0     H 6471   7.940   3.521  11.292 -1.9107  0.8950 -0.2311
   48MOL0     H 6472   7.889   3.349  11.134 -2.4725 -0.9010  1.8431
   48MOL0     H 6473   7.870   3.470  11.007 -1.1064 -0.3977  0.6661
   48MOL0     H 6474   7.712   3.577  11.146  0.9117  0.1745  0.1335
   48MOL0     H 6475   7.691   3.425  11.241 -1.1537  1.1660  0.2594
   48MOL0     H 6476   7.643   3.315  11.033  0.0379  0.4577  0.0186
   48MOL0     H 6477   7.654   3.458  10.932 -2.1899  2.3209 -0.5996
   48MOL0     H 6478   7.318   3.567  11.170  0.0240  2.2016 -2.5630
   48MOL0     H 6479   7.917   3.935  11.087  1.1745 -1.3140  1.7408
   48MOL0     H 6480   8.033   4.053  10.930 -2.6432 -0.2126  1.7399
   49MOL0     O 6481   6.593  11.381  10.554  0.2273 -0.4489 -0.6220
   49MOL0     C 6482   6.685  11.306  10.523  0.5398  0.6366  1.4673
   49MOL0     O 6483   6.718  11.192  10.591  0.3203  0.3596 -0.1283
   49MOL0     C 6484   6.659  11.167  10.710 -0.6245  0.0136 -0.2877
   49MOL0     C 6485   6.565  11.064  10.726  0.1514 -1.0431  0.2601
   49MOL0     C 6486   6.507  11.053  10.849  0.0267 -0.1668  0.2365
   49MOL0     C 6487   6.544  11.118  10.961  1.0706 -0.0406 -0.2512
   49MOL0     O 6488   6.476  11.083  11.074  0.4800  0.2004 -0.0491
   49MOL0     C 6489   6.440  11.190  11.160 -0.9631  0.7229  0.0655
   49MOL0     C 6490   6.346  11.157  11.269 -0.3223  0.3354 -0.1600
   49MOL0     C 6491   6.408  11.139  11.417  0.5494 -0.1448  1.0126
   49MOL0     C 6492   6.445  11.271  11.482  0.6909  0.8646  0.9380
   49MOL0     C 6493   6.499  11.256  11.622  0.3829 -0.3005  0.3628
   49MOL0     C 6494   6.644  11.194  11.626  0.2260 -0.2935 -0.2315
   49MOL0     C 6495   6.693  11.183  11.775 -0.0184  0.1108  0.6383
   49MOL0     C 6496   6.609  11.093  11.872 -0.0962 -0.5172 -0.2618
   49MOL0     N 6497   6.655  11.103  12.006  0.0408 -0.0477  0.7650
   49MOL0     C 6498   6.644  11.209  12.088 -0.1794 -0.7464  0.1774
   49MOL0     C 6499   6.687  11.163  12.205 -0.3877  1.3756 -0.2005
   49MOL0     C 6500   6.684  11.232  12.340 -0.2073  0.5927  0.2602
   49MOL0     C 6501   6.829  11.262  12.383  0.3945  0.5559 -0.6188
   49MOL0     C 6502   6.834  11.358  12.502  0.1506 -0.5218  0.3861
   49MOL0     C 6503   6.844  11.282  12.633 -1.3240  0.1407 -0.3003
   49MOL0     O 6504   6.735  11.194  12.658 -0.1489 -0.6357 -0.4669
   49MOL0     C 6505   6.727  11.127  12.784 -0.9746  1.1242  0.5505
   49MOL0     C 6506   6.763  10.991  12.787  0.2028  0.0945 -0.2166
   49MOL0     C 6507   6.769  10.917  12.910  0.3692  0.7527  0.5324
   49MOL0     C 6508   6.809  10.782  12.906  0.6201 -1.1955  0.0152
   49MOL0     C 6509   6.709  10.977  13.024  0.5034 -0.4059  0.3867
   49MOL0     C 6510   6.705  10.905  13.157 -0.6432 -0.2069  0.2720
   49MOL0     O 6511   6.778  10.790  13.179  0.1869  0.4381 -0.6366
   49MOL0     C 6512   6.758  10.723  13.304 -0.8162 -0.4598  0.2246
   49MOL0     C 6513   6.860  10.726  13.405 -0.1056 -0.4096  0.1353
   49MOL0     C 6514   6.842  10.670  13.529 -0.4050 -0.4261 -0.1585
   49MOL0     C 6515   6.730  10.595  13.562  0.4298  0.5143 -0.9005
   49MOL0     O 6516   6.713  10.544  13.696 -0.6310  0.0843  0.2711
   49MOL0     C 6517   6.789  10.432  13.713 -0.7479 -0.1422  0.4186
   49MOL0     C 6518   6.809  10.398  13.857  0.6549 -0.3366  0.5582
   49MOL0     C 6519   6.886  10.496  13.950 -0.1809 -0.0397  0.4683
   49MOL0     C 6520   6.865  10.475  14.103 -0.2897 -0.0584 -0.0605
   49MOL0     C 6521   6.937  10.567  14.203  0.0574 -0.1777 -0.1349
   49MOL0     C 6522   7.077  10.517  14.231 -0.3045  0.0257 -0.3556
   49MOL0     C 6523   7.091  10.427  14.356  0.7877 -0.1385 -0.7427
   49MOL0     C 6524   7.227  10.402  14.413  0.1012 -0.2606 -0.3489
   49MOL0    Cl 6525   7.337  10.358  14.279 -0.0098 -0.3523  0.1138
   49MOL0     C 6526   6.632  10.580  13.462 -0.3533  0.4987  0.1309
   49MOL0     C 6527   6.642  10.649  13.338  0.0782  0.2468 -0.3452
   49MOL0     O 6528   6.641  10.969  13.244  0.8511  0.6129  0.1706
   49MOL0     C 6529   6.657  11.106  13.008 -0.3012  0.1963  0.3716
   49MOL0     C 6530   6.670  11.179  12.892  0.2190 -0.1945 -0.2833
   49MOL0     N 6531   6.726  11.021  12.192 -0.5733 -0.1280 -0.2708
   49MOL0     N 6532   6.711  10.998  12.072  0.1532  1.7839  0.3705
   49MOL0     C 6533   6.643  11.216  10.949 -0.2091 -0.3053 -0.3226
   49MOL0     C 6534   6.695  11.243  10.820 -0.4664 -0.3221 -0.3006
   49MOL0     C 6535   6.751  11.317  10.382 -1.0447 -0.3919 -1.1316
   49MOL0     C 6536   6.719  11.429  10.310 -0.1957  0.0965 -0.0252
   49MOL0     C 6537   6.774  11.458  10.186 -0.7388  1.0934 -0.0420
   49MOL0     C 6538   6.882  11.378  10.138 -1.1353  0.6252  0.0810
   49MOL0     O 6539   6.962  11.413  10.031  0.7856  0.0188 -0.5905
   49MOL0     C 6540   6.945  11.546   9.968  0.2211  0.0176 -0.3399
   49MOL0     C 6541   7.007  11.541   9.826  0.0475 -0.8168 -0.9681
   49MOL0     C 6542   6.902  11.541   9.715 -1.2563 -0.1212 -0.1781
   49MOL0     C 6543   6.975  11.525   9.573 -0.2945 -0.5908  0.3023
   49MOL0     C 6544   7.038  11.396   9.549  0.1868 -1.3000 -0.6370
   49MOL0     C 6545   7.091  11.301   9.501  0.3624 -0.2681 -0.7462
   49MOL0     C 6546   6.912  11.255  10.209 -0.5360 -0.3912  0.1803
   49MOL0     C 6547   6.846  11.232  10.331 -0.3009  0.0615 -0.2203
   49MOL0     H 6548   6.532  10.995  10.649  0.4526 -2.3532  1.2659
   49MOL0     H 6549   6.424  10.984  10.855  1.0265 -1.8470 -3.0108
   49MOL0     H 6550   6.534  11.233  11.196  0.3941 -1.9863 -0.0426
   49MOL0     H 6551   6.393  11.265  11.095  1.0622  1.1170 -1.0209
   49MOL0     H 6552   6.257  11.220  11.279 -2.7687 -2.9321  0.6475
   49MOL0     H 6553   6.297  11.064  11.238 -0.0396  0.9101 -2.4542
   49MOL0     H 6554   6.324  11.103  11.477  2.3970 -3.0040  2.0630
   49MOL0     H 6555   6.491  11.069  11.418  3.1846  2.7441 -0.0475
   49MOL0     H 6556   6.533  11.316  11.434  0.1036  3.5538  2.1832
   49MOL0     H 6557   6.362  11.341  11.466 -1.0917 -1.5838 -1.5401
   49MOL0     H 6558   6.507  11.351  11.676 -3.4966 -0.3597  1.3433
   49MOL0     H 6559   6.419  11.204  11.675 -1.5489 -0.3723 -2.3839
   49MOL0     H 6560   6.643  11.100  11.569  0.4870 -0.1967 -0.3947
   49MOL0     H 6561   6.707  11.264  11.571  0.6320 -1.4586 -1.3012
   49MOL0     H 6562   6.797  11.149  11.769 -0.1498 -0.7149  2.2771
   49MOL0     H 6563   6.692  11.282  11.822  0.9933 -0.6550  2.3783
   49MOL0     H 6564   6.631  10.994  11.830  2.8977  0.8903 -2.3517
   49MOL0     H 6565   6.502  11.113  11.861 -0.3581 -2.2503 -1.2811
   49MOL0     H 6566   6.611  11.306  12.054  0.1300 -1.4345 -2.2834
   49MOL0     H 6567   6.628  11.325  12.332  1.1066  1.4494  0.5836
   49MOL0     H 6568   6.638  11.160  12.408 -2.7946 -0.0136 -1.9743
   49MOL0     H 6569   6.878  11.305  12.295 -1.1068  0.5792 -1.4775
   49MOL0     H 6570   6.872  11.165  12.412 -1.6699 -0.4672 -0.8144
   49MOL0     H 6571   6.755  11.434  12.493  3.8648  3.4527 -2.5797
   49MOL0     H 6572   6.923  11.421  12.496 -0.0526 -0.1719  0.9662
   49MOL0     H 6573   6.863  11.353  12.714  1.7166 -2.2204  1.2707
   49MOL0     H 6574   6.935  11.223  12.622 -0.7095  1.3632 -2.4018
   49MOL0     H 6575   6.816  10.961  12.697  0.5596 -0.8413  0.2908
   49MOL0     H 6576   6.815  10.741  12.805  3.2544  1.5594 -1.0968
   49MOL0     H 6577   6.904  10.751  12.951  0.2322 -0.9931  0.9965
   49MOL0     H 6578   6.726  10.724  12.946 -0.1163 -1.1489 -1.3877
   49MOL0     H 6579   6.941  10.796  13.387  0.5287 -1.5778 -1.7301
   49MOL0     H 6580   6.921  10.699  13.598 -2.8668 -1.0135  3.0980
   49MOL0     H 6581   6.742  10.347  13.664 -0.0315 -0.2371 -0.1230
   49MOL0     H 6582   6.890  10.433  13.670 -1.1107  4.1689 -0.7024
   49MOL0     H 6583   6.712  10.368  13.897 -0.0544  0.6024 -0.4020
   49MOL0     H 6584   6.863  10.303  13.848  1.2685  0.1360 -1.3065
   49MOL0     H 6585   6.853  10.599  13.932  1.1363  0.8520  2.6729
   49MOL0     H 6586   6.994  10.480  13.941 -0.3991 -0.9872 -0.6595
   49MOL0     H 6587   6.760  10.492  14.130 -0.4463 -1.7521  0.5148
   49MOL0     H 6588   6.889  10.370  14.122  1.1872 -0.0599 -1.6790
   49MOL0     H 6589   6.882  10.556  14.297  0.6910  0.7658  0.3726
   49MOL0     H 6590   6.944  10.669  14.164 -0.4303  0.7226  1.9982
   49MOL0     H 6591   7.120  10.488  14.135 -1.8395  1.6419 -1.5888
   49MOL0     H 6592   7.146  10.597  14.261  1.2372 -0.9866 -1.0603
   49MOL0     H 6593   7.054  10.325  14.342 -2.6425  0.8321  0.5309
   49MOL0     H 6594   7.031  10.460  14.441  1.5169  0.1274 -0.3196
   49MOL0     H 6595   7.226  10.331  14.496  2.3249  1.6462  1.4454
   49MOL0     H 6596   7.251  10.497  14.462 -2.9172 -0.0004  0.8161
   49MOL0     H 6597   6.558  10.500  13.464  0.5492 -0.4495 -2.0013
   49MOL0     H 6598   6.570  10.614  13.265  2.0116 -1.8863 -1.3489
   49MOL0     H 6599   6.620  11.163  13.092  0.5299  2.0118 -0.4456
   49MOL0     H 6600   6.639  11.283  12.891  1.7062  0.2988 -2.4581
   49MOL0     H 6601   6.682  11.264  11.037  0.1174 -2.7104  0.9346
   49MOL0     H 6602   6.753  11.333  10.806 -1.9273  0.3601 -2.5543
   49MOL0     H 6603   6.643  11.498  10.343 -0.2794 -0.7445  1.6437
   49MOL0     H 6604   6.731  11.547  10.142 -0.3089  0.7118 -1.2732
   49MOL0     H 6605   6.838  11.566   9.958  0.6827  1.6145 -3.0787
   49MOL0     H 6606   6.994  11.619  10.034 -0.1035 -0.7258  0.7482
   49MOL0     H 6607   7.076  11.456   9.826  1.0546 -0.0238 -1.5944
   49MOL0     H 6608   7.070  11.629   9.816  0.9311 -1.5482 -2.2571
   49MOL0     H 6609   6.839  11.630   9.721 -0.1826  0.7918 -1.7125
   49MOL0     H 6610   6.830  11.462   9.738 -1.7332  0.3450 -0.0453
   49MOL0     H 6611   7.047  11.607   9.559  0.9810 -1.7354 -0.0072
   49MOL0     H 6612   6.895  11.529   9.499  0.8000  1.5945 -0.8621
   49MOL0     H 6613   7.125  11.203   9.475 -2.5827 -2.0293  1.3395
   49MOL0     H 6614   6.985  11.185  10.169 -1.0052 -1.9794  1.9687
   49MOL0     H 6615   6.883  11.138  10.371 -1.5929 -0.4077 -0.0877
   50MOL0     O 6616   7.346   8.126   4.427 -0.0031 -0.1922 -0.4501
   50MOL0     C 6617   7.266   8.222   4.398 -0.2153 -0.3695  0.3767
   50MOL0     O 6618   7.132   8.212   4.376  0.1011  0.9411  0.2246
   50MOL0     C 6619   7.064   8.094   4.365  0.4542 -0.3113 -1.3737
   50MOL0     C 6620   7.124   7.988   4.298 -0.5273  0.0340  0.0195
   50MOL0     C 6621   7.052   7.865   4.281 -0.1638 -0.3929 -0.1269
   50MOL0     C 6622   6.927   7.847   4.349  0.7720  0.3342 -0.4539
   50MOL0     O 6623   6.858   7.733   4.337  0.0810  0.6946  0.1604
   50MOL0     C 6624   6.809   7.698   4.207  0.4458 -0.3788 -0.0121
   50MOL0     C 6625   6.687   7.609   4.212  0.9502 -0.2650 -0.3544
   50MOL0     C 6626   6.628   7.586   4.359 -0.0557  0.2309 -0.6204
   50MOL0     C 6627   6.515   7.483   4.364 -0.1917 -0.2767  0.6151
   50MOL0     C 6628   6.398   7.530   4.283 -0.3496 -1.0475 -1.1177
   50MOL0     C 6629   6.272   7.439   4.304  0.2648 -0.6179  0.3789
   50MOL0     C 6630   6.286   7.306   4.233  0.2584 -0.2260 -0.6373
   50MOL0     C 6631   6.171   7.203   4.263  0.2720  0.2568  0.0407
   50MOL0     N 6632   6.049   7.259   4.202 -0.5508 -0.3081  0.6395
   50MOL0     C 6633   6.009   7.253   4.073 -0.3512  0.1327  0.7318
   50MOL0     C 6634   5.876   7.299   4.068  0.0776 -0.4354  0.4964
   50MOL0     C 6635   5.798   7.332   3.950 -0.4836  0.3904 -0.0211
   50MOL0     C 6636   5.849   7.463   3.892  0.1634  0.5573  0.3665
   50MOL0     C 6637   5.812   7.478   3.742  0.2045 -0.8951 -0.3934
   50MOL0     C 6638   5.900   7.571   3.660  1.0456 -1.1309 -0.2538
   50MOL0     O 6639   5.824   7.622   3.552  0.4811  0.2930  0.0121
   50MOL0     C 6640   5.899   7.666   3.453  0.0286 -0.3210 -0.4078
   50MOL0     C 6641   6.005   7.755   3.465 -0.3188  0.5288  0.3636
   50MOL0     C 6642   6.067   7.794   3.338  0.6004  0.4903  0.5461
   50MOL0     C 6643   6.155   7.917   3.351  0.1739  0.2139  0.2154
   50MOL0     C 6644   6.026   7.734   3.216 -0.3864 -0.3834 -0.1440
   50MOL0     C 6645   6.088   7.765   3.085  0.8153 -0.3575  0.6303
   50MOL0     O 6646   5.994   7.769   2.987 -0.9637  0.5639  0.4152
   50MOL0     C 6647   6.033   7.792   2.855 -0.8127 -0.1363 -0.4558
   50MOL0     C 6648   6.104   7.691   2.794  0.0077 -0.5607  0.1179
   50MOL0     C 6649   6.131   7.705   2.659  1.0289  0.2736  0.5237
   50MOL0     C 6650   6.096   7.818   2.588  1.0353 -0.6113 -0.1809
   50MOL0     O 6651   6.111   7.836   2.452 -0.3678  0.1685  0.5348
   50MOL0     C 6652   6.251   7.883   2.431  0.5789 -0.0170  0.3069
   50MOL0     C 6653   6.260   7.986   2.325  0.1500  0.0892  0.2559
   50MOL0     C 6654   6.374   8.072   2.355 -0.4318 -0.1721 -0.4177
   50MOL0     C 6655   6.374   8.195   2.266  0.0408 -0.3739  0.4282
   50MOL0     C 6656   6.317   8.320   2.333 -0.2918  0.3539 -0.3280
   50MOL0     C 6657   6.310   8.448   2.252  0.0259  0.3680 -0.8417
   50MOL0     C 6658   6.223   8.439   2.128 -0.4408 -0.3107  0.7966
   50MOL0     C 6659   6.228   8.572   2.066 -0.0453 -0.2939  0.2057
   50MOL0    Cl 6660   6.104   8.566   1.937  0.0135 -0.0232  0.3630
   50MOL0     C 6661   6.033   7.924   2.654  0.9661 -0.2361  0.4905
   50MOL0     C 6662   6.012   7.908   2.791 -0.3108 -0.0937 -0.2686
   50MOL0     O 6663   6.206   7.765   3.058  0.3906 -1.2803 -0.1364
   50MOL0     C 6664   5.914   7.649   3.219  0.4448  0.3073  0.5380
   50MOL0     C 6665   5.850   7.618   3.333  0.3177 -0.0063 -0.0372
   50MOL0     N 6666   5.841   7.338   4.192  0.4789  0.4745 -0.1490
   50MOL0     N 6667   5.936   7.311   4.278  0.0922 -0.1735  0.6836
   50MOL0     C 6668   6.877   7.959   4.420 -0.0328 -0.2039  0.0955
   50MOL0     C 6669   6.947   8.075   4.432  0.3968  0.1918 -0.5211
   50MOL0     C 6670   7.334   8.357   4.392  0.2677 -0.3034 -0.2313
   50MOL0     C 6671   7.275   8.456   4.320  1.0653 -1.2034  0.7102
   50MOL0     C 6672   7.304   8.595   4.340 -0.2676 -0.4872 -0.5377
   50MOL0     C 6673   7.419   8.632   4.407  0.5105 -0.3075 -0.2692
   50MOL0     O 6674   7.472   8.758   4.433  0.0174 -0.1379  0.6340
   50MOL0     C 6675   7.381   8.873   4.450  0.2833  0.4745  0.0408
   50MOL0     C 6676   7.465   8.994   4.504  0.3497  0.0727 -0.4512
   50MOL0     C 6677   7.543   8.961   4.633  0.0284  0.8393 -0.0508
   50MOL0     C 6678   7.596   9.078   4.699 -1.1936 -0.7732  0.1266
   50MOL0     C 6679   7.697   9.137   4.601 -0.8892  0.0487  0.3859
   50MOL0     C 6680   7.767   9.190   4.515  0.4424 -0.1532 -0.3607
   50MOL0     C 6681   7.493   8.522   4.456 -1.0956 -0.7784 -0.1096
   50MOL0     C 6682   7.447   8.395   4.456  0.7660  0.7525 -0.3954
   50MOL0     H 6683   7.220   7.999   4.249  2.8828 -0.9145  5.5620
   50MOL0     H 6684   7.094   7.793   4.210 -0.4984 -0.0976 -0.6326
   50MOL0     H 6685   6.775   7.787   4.153  0.9791 -1.5444 -2.3830
   50MOL0     H 6686   6.892   7.647   4.159  2.8391  2.2025  1.1064
   50MOL0     H 6687   6.609   7.665   4.160 -0.4450 -1.2522  0.5948
   50MOL0     H 6688   6.715   7.515   4.163  2.3211 -1.2556  2.1838
   50MOL0     H 6689   6.710   7.547   4.420 -1.9604 -0.8655  1.4265
   50MOL0     H 6690   6.582   7.678   4.396 -2.7152 -1.1043 -0.3653
   50MOL0     H 6691   6.561   7.392   4.325 -2.5374 -0.2485 -2.6269
   50MOL0     H 6692   6.478   7.472   4.467 -3.1633 -3.3309 -0.5982
   50MOL0     H 6693   6.363   7.629   4.313 -0.4554 -0.5646 -2.7295
   50MOL0     H 6694   6.432   7.523   4.179  2.3468 -0.2135 -0.3737
   50MOL0     H 6695   6.263   7.433   4.413  0.5009  0.8548  0.5102
   50MOL0     H 6696   6.177   7.486   4.276  0.9526  0.2692 -0.5373
   50MOL0     H 6697   6.295   7.312   4.124 -0.3644 -3.5479 -0.9742
   50MOL0     H 6698   6.379   7.257   4.262 -0.0545 -0.1641  0.4912
   50MOL0     H 6699   6.144   7.173   4.364 -1.4657 -0.3069 -0.5463
   50MOL0     H 6700   6.199   7.106   4.220 -0.4123  0.3121 -0.5629
   50MOL0     H 6701   6.058   7.218   3.983  0.8420 -0.6109  1.6517
   50MOL0     H 6702   5.821   7.252   3.879 -2.7224 -0.4070  0.0715
   50MOL0     H 6703   5.689   7.332   3.964 -0.8171  1.7257 -2.2184
   50MOL0     H 6704   5.956   7.486   3.901  0.5696  0.9813 -3.7069
   50MOL0     H 6705   5.805   7.535   3.961  2.1162 -0.7979  3.2029
   50MOL0     H 6706   5.712   7.525   3.746  0.1251 -1.1045  0.2839
   50MOL0     H 6707   5.809   7.381   3.693 -0.7597 -0.9206 -0.3178
   50MOL0     H 6708   5.988   7.519   3.619  0.4492  1.5276 -5.7495
   50MOL0     H 6709   5.930   7.658   3.719 -1.6614 -1.9833  2.6432
   50MOL0     H 6710   6.046   7.789   3.560  0.7755  3.2381 -0.9666
   50MOL0     H 6711   6.192   7.935   3.452  0.7904  0.5660 -0.0695
   50MOL0     H 6712   6.234   7.879   3.286 -0.2817 -2.0870  0.8939
   50MOL0     H 6713   6.091   7.991   3.303 -1.8693 -1.5158  0.0868
   50MOL0     H 6714   6.132   7.608   2.859 -1.7799 -1.0764  0.2885
   50MOL0     H 6715   6.181   7.620   2.612  1.8076  1.4434 -0.8320
   50MOL0     H 6716   6.295   7.918   2.525 -0.1876  0.2711  0.5678
   50MOL0     H 6717   6.313   7.799   2.396 -2.1756 -0.7212 -3.5185
   50MOL0     H 6718   6.278   7.936   2.229  0.5210  0.2112  0.2600
   50MOL0     H 6719   6.169   8.046   2.329 -1.3361 -2.0777  0.4617
   50MOL0     H 6720   6.465   8.016   2.331 -1.0332 -1.3080 -0.1185
   50MOL0     H 6721   6.372   8.102   2.460  2.7240  2.0256 -0.8183
   50MOL0     H 6722   6.471   8.207   2.218 -0.5855 -1.8932 -1.3372
   50MOL0     H 6723   6.310   8.178   2.179 -0.5049 -0.7782  0.9000
   50MOL0     H 6724   6.379   8.323   2.423  0.5225  1.8298 -0.9025
   50MOL0     H 6725   6.214   8.296   2.360 -0.7107  2.1622 -0.1939
   50MOL0     H 6726   6.276   8.521   2.326  1.0113 -0.8985  0.9289
   50MOL0     H 6727   6.413   8.467   2.220  0.6915 -0.6842  0.5730
   50MOL0     H 6728   6.128   8.396   2.162 -0.8500  2.0503  2.9518
   50MOL0     H 6729   6.262   8.372   2.051 -2.3769  1.9866 -2.4242
   50MOL0     H 6730   6.332   8.599   2.045  0.2066  0.2220  1.9758
   50MOL0     H 6731   6.203   8.653   2.136  1.7088 -0.6585  1.3204
   50MOL0     H 6732   5.997   8.008   2.595  1.5278 -1.2255 -1.3343
   50MOL0     H 6733   5.958   7.993   2.832 -0.5070  0.2963 -1.3048
   50MOL0     H 6734   5.870   7.608   3.128 -0.4963 -0.9376  1.5024
   50MOL0     H 6735   5.757   7.563   3.327  1.4102 -1.8094 -2.7545
   50MOL0     H 6736   6.774   7.942   4.449  0.2522  1.1749  2.1813
   50MOL0     H 6737   6.907   8.156   4.493  1.6799 -0.3897  1.1835
   50MOL0     H 6738   7.177   8.441   4.276 -1.6880  1.7424  5.1508
   50MOL0     H 6739   7.238   8.669   4.295  0.0312  0.3740  0.4126
   50MOL0     H 6740   7.329   8.893   4.356 -1.8789 -3.6452  0.0946
   50MOL0     H 6741   7.301   8.855   4.523  1.6605 -0.1809  1.4184
   50MOL0     H 6742   7.398   9.078   4.525  2.9145  1.3722  3.5412
   50MOL0     H 6743   7.538   9.015   4.425 -1.8430 -2.1245 -3.3134
   50MOL0     H 6744   7.624   8.890   4.618 -1.8059 -1.6760  1.2622
   50MOL0     H 6745   7.474   8.914   4.703  1.3313  0.6276  1.1203
   50MOL0     H 6746   7.641   9.042   4.792 -2.0077 -2.0080  0.0629
   50MOL0     H 6747   7.528   9.158   4.731 -0.0868 -0.2321  1.2531
   50MOL0     H 6748   7.829   9.238   4.441  0.2833 -1.6423 -1.5065
   50MOL0     H 6749   7.590   8.533   4.503 -1.2990  0.0500  0.1355
   50MOL0     H 6750   7.492   8.309   4.505 -0.7048  0.3189  0.2429
   51MOL0     O 6751   4.715  11.096   7.373 -0.5121  0.4548 -0.4509
   51MOL0     C 6752   4.598  11.091   7.373  0.4898  0.1966 -0.4286
   51MOL0     O 6753   4.511  11.176   7.297  0.7704 -0.4585  0.0230
   51MOL0     C 6754   4.562  11.263   7.213  0.6598  0.3662 -0.3601
   51MOL0     C 6755   4.641  11.237   7.102 -0.1428 -0.2443  0.0493
   51MOL0     C 6756   4.689  11.346   7.024  0.0920  0.0124  0.3786
   51MOL0     C 6757   4.638  11.478   7.035  0.0730 -0.0855 -0.5276
   51MOL0     O 6758   4.680  11.584   6.958 -0.6763 -0.2584 -0.2646
   51MOL0     C 6759   4.726  11.558   6.824 -0.5356  0.2947 -0.2585
   51MOL0     C 6760   4.649  11.656   6.734 -0.2871 -0.3395  0.7586
   51MOL0     C 6761   4.509  11.602   6.688  0.1088 -0.1270 -0.5915
   51MOL0     C 6762   4.531  11.499   6.583  0.3402 -0.5656 -0.1558
   51MOL0     C 6763   4.412  11.421   6.533 -0.2598 -0.5866  0.7201
   51MOL0     C 6764   4.455  11.328   6.410 -0.2804  0.1013 -0.2682
   51MOL0     C 6765   4.417  11.405   6.278 -0.5473  0.8172  0.8544
   51MOL0     C 6766   4.283  11.480   6.271  0.1692 -0.4009 -0.4656
   51MOL0     N 6767   4.162  11.398   6.310 -0.8282 -0.6002  0.0699
   51MOL0     C 6768   4.134  11.273   6.273  0.0660  0.0709 -0.0828
   51MOL0     C 6769   4.000  11.266   6.291 -0.5498  0.1140 -0.7158
   51MOL0     C 6770   3.929  11.135   6.297  0.3304  0.1753  0.4667
   51MOL0     C 6771   3.790  11.144   6.244  1.0360  0.1960  0.7542
   51MOL0     C 6772   3.796  11.135   6.092 -0.0953 -0.6112  0.7115
   51MOL0     C 6773   3.671  11.061   6.038 -1.0697 -0.3629 -0.3409
   51MOL0     O 6774   3.681  11.072   5.894  0.3032  0.3180 -0.0652
   51MOL0     C 6775   3.566  11.096   5.818  1.3832 -0.6987  0.1975
   51MOL0     C 6776   3.584  11.105   5.681  0.1392  0.2508  0.1425
   51MOL0     C 6777   3.473  11.121   5.599  0.6062  0.3464 -0.1094
   51MOL0     C 6778   3.495  11.092   5.450 -0.6922 -0.4922  0.5276
   51MOL0     C 6779   3.339  11.138   5.638 -0.8439  0.3554 -0.6863
   51MOL0     C 6780   3.234  11.174   5.549  0.2521 -0.2725 -0.1105
   51MOL0     O 6781   3.183  11.293   5.563 -0.0663  0.0990 -0.1894
   51MOL0     C 6782   3.046  11.307   5.590  0.0780 -1.7766 -0.6122
   51MOL0     C 6783   2.989  11.431   5.588 -0.3744 -0.0970 -0.1817
   51MOL0     C 6784   2.864  11.456   5.630 -0.1748  0.7753 -1.3406
   51MOL0     C 6785   2.783  11.357   5.677 -0.9034  0.2231  0.1048
   51MOL0     O 6786   2.656  11.389   5.706  0.0513  0.3164  0.7975
   51MOL0     C 6787   2.564  11.292   5.769 -0.2105 -0.4131 -0.2620
   51MOL0     C 6788   2.491  11.201   5.664 -0.1871 -0.2827  0.5905
   51MOL0     C 6789   2.428  11.275   5.551  0.3817 -0.0594 -0.9691
   51MOL0     C 6790   2.293  11.338   5.601  0.1700  1.1211  0.1910
   51MOL0     C 6791   2.219  11.417   5.489  0.4273 -1.0487  0.0554
   51MOL0     C 6792   2.160  11.326   5.381  0.2489  0.5441  0.2072
   51MOL0     C 6793   2.084  11.409   5.278  0.5468 -0.2402  0.5490
   51MOL0     C 6794   2.166  11.499   5.180 -0.3674 -0.4583  0.5208
   51MOL0    Cl 6795   2.072  11.521   5.013 -0.4339  0.3979 -0.1277
   51MOL0     C 6796   2.840  11.230   5.688  0.0970 -0.1812  0.2679
   51MOL0     C 6797   2.967  11.199   5.642  0.0565  0.2705  0.6713
   51MOL0     O 6798   3.186  11.091   5.471 -0.4895  0.7118 -0.3291
   51MOL0     C 6799   3.328  11.138   5.772  0.6796 -0.5267 -1.2067
   51MOL0     C 6800   3.440  11.120   5.866  0.1790  0.2082  0.2410
   51MOL0     N 6801   3.953  11.381   6.342  0.8626 -0.3317 -0.6331
   51MOL0     N 6802   4.051  11.463   6.348 -0.7674  0.1208  1.2125
   51MOL0     C 6803   4.550  11.502   7.138  0.1054  0.4549 -0.1558
   51MOL0     C 6804   4.515  11.397   7.232  0.4109  0.0338  0.3205
   51MOL0     C 6805   4.542  10.975   7.438 -0.2434  0.0974  0.8539
   51MOL0     C 6806   4.398  10.975   7.454  0.5577 -0.5108  0.4626
   51MOL0     C 6807   4.346  10.869   7.533  0.1957 -0.6571  0.6717
   51MOL0     C 6808   4.425  10.775   7.591  0.3631 -1.4910 -0.2587
   51MOL0     O 6809   4.366  10.682   7.680  0.1151 -0.6584  1.4058
   51MOL0     C 6810   4.437  10.640   7.802 -0.0546 -0.2083  0.7399
   51MOL0     C 6811   4.361  10.541   7.884  0.4125 -0.3534 -0.4077
   51MOL0     C 6812   4.455  10.446   7.964 -0.0012  0.4398 -0.1550
   51MOL0     C 6813   4.535  10.531   8.059 -0.7436 -0.1709 -0.0008
   51MOL0     C 6814   4.617  10.444   8.145 -0.6940 -1.1652  0.1234
   51MOL0     C 6815   4.694  10.400   8.222 -0.5819 -1.2401 -0.3956
   51MOL0     C 6816   4.561  10.781   7.574 -0.0827  0.6523 -0.1724
   51MOL0     C 6817   4.618  10.873   7.492  0.0492  0.8029  0.2405
   51MOL0     H 6818   4.682  11.137   7.094 -2.3450 -1.1493 -0.6636
   51MOL0     H 6819   4.761  11.318   6.948 -0.3447 -0.5198  0.1506
   51MOL0     H 6820   4.831  11.585   6.813  0.3113 -2.1616  1.0789
   51MOL0     H 6821   4.702  11.456   6.794 -0.4487  0.1689  0.0975
   51MOL0     H 6822   4.640  11.745   6.797  0.1715 -2.7465  4.5808
   51MOL0     H 6823   4.711  11.670   6.645 -2.1229 -2.1261 -0.9276
   51MOL0     H 6824   4.463  11.563   6.780  1.9808 -0.8335  0.0957
   51MOL0     H 6825   4.453  11.682   6.638  0.1392 -1.3370 -2.6620
   51MOL0     H 6826   4.578  11.546   6.496 -1.3646  0.6202 -0.4864
   51MOL0     H 6827   4.607  11.428   6.614 -0.2058 -0.0430  2.6590
   51MOL0     H 6828   4.382  11.359   6.617  0.3033 -0.3499  1.1037
   51MOL0     H 6829   4.327  11.488   6.521  2.4443  2.7755 -1.4641
   51MOL0     H 6830   4.556  11.287   6.420  0.2140  1.3392 -0.0512
   51MOL0     H 6831   4.393  11.239   6.403 -0.9644  0.4682  0.9082
   51MOL0     H 6832   4.498  11.477   6.273 -0.3325  0.7552  2.7373
   51MOL0     H 6833   4.419  11.331   6.197 -1.1329  1.2969  0.3967
   51MOL0     H 6834   4.260  11.528   6.176  1.4090 -0.6131 -0.8877
   51MOL0     H 6835   4.286  11.564   6.342 -0.0974 -0.4037 -0.4499
   51MOL0     H 6836   4.206  11.200   6.239  0.2662  0.3329 -0.2251
   51MOL0     H 6837   3.978  11.053   6.246 -2.1871  0.5924 -2.9639
   51MOL0     H 6838   3.920  11.115   6.404 -1.5043  2.3939  0.8166
   51MOL0     H 6839   3.740  11.237   6.271 -1.5364 -1.1494  0.8670
   51MOL0     H 6840   3.735  11.063   6.291  0.4500  1.5426  2.4856
   51MOL0     H 6841   3.886  11.091   6.049  0.6195  0.1803  1.3629
   51MOL0     H 6842   3.798  11.237   6.053 -3.2673 -0.7952 -0.2320
   51MOL0     H 6843   3.588  11.111   6.089 -0.0541  1.8551 -0.7441
   51MOL0     H 6844   3.661  10.960   6.078  2.4363 -0.3082  0.9451
   51MOL0     H 6845   3.680  11.093   5.631  0.5511  0.9526  0.7451
   51MOL0     H 6846   3.411  11.106   5.381 -0.4701  1.0695  0.5257
   51MOL0     H 6847   3.557  11.171   5.406 -1.8652  0.9858  1.3765
   51MOL0     H 6848   3.532  10.991   5.437  2.6718  0.7254 -0.3617
   51MOL0     H 6849   3.041  11.516   5.545  2.9944 -1.2917  1.2149
   51MOL0     H 6850   2.827  11.557   5.642 -0.0703  0.6045  0.7510
   51MOL0     H 6851   2.618  11.223   5.835 -1.0638 -0.3065  0.5736
   51MOL0     H 6852   2.501  11.348   5.838  1.0092 -1.0632  1.4430
   51MOL0     H 6853   2.563  11.127   5.629  2.4240  2.2673  0.2084
   51MOL0     H 6854   2.419  11.148   5.727 -0.2453 -0.6642  0.2043
   51MOL0     H 6855   2.405  11.202   5.473  0.0149  0.0658 -0.9825
   51MOL0     H 6856   2.489  11.361   5.523  4.2805 -2.3539 -0.2313
   51MOL0     H 6857   2.244  11.252   5.647 -0.9845  1.4942 -0.3029
   51MOL0     H 6858   2.312  11.406   5.684 -3.3555  0.0761  2.0594
   51MOL0     H 6859   2.284  11.488   5.438  0.2396 -0.8204  0.1324
   51MOL0     H 6860   2.146  11.476   5.546  0.6193 -0.8002  0.0427
   51MOL0     H 6861   2.242  11.285   5.321 -1.5868 -0.9173 -1.4227
   51MOL0     H 6862   2.105  11.242   5.423 -1.1312 -0.4747 -3.3343
   51MOL0     H 6863   2.005  11.460   5.333 -0.9476 -1.8311 -0.0431
   51MOL0     H 6864   2.033  11.335   5.217  0.1846 -1.7528  2.5826
   51MOL0     H 6865   2.261  11.451   5.154 -0.4583 -0.3828  0.0397
   51MOL0     H 6866   2.185  11.599   5.220 -0.3136 -0.5956  0.8390
   51MOL0     H 6867   2.767  11.158   5.724 -2.2370  1.8913 -0.0229
   51MOL0     H 6868   3.018  11.104   5.659 -0.3671  0.2634  1.9671
   51MOL0     H 6869   3.233  11.174   5.811  2.1278  3.5212 -0.8751
   51MOL0     H 6870   3.423  11.113   5.973  1.3866  0.6874  0.4805
   51MOL0     H 6871   4.528  11.605   7.165 -2.5689 -0.0396 -0.2025
   51MOL0     H 6872   4.445  11.425   7.310 -2.8444  1.7459 -2.8950
   51MOL0     H 6873   4.321  11.032   7.402 -1.2687 -2.1731  1.2224
   51MOL0     H 6874   4.240  10.855   7.552  0.4461 -1.0625  1.8780
   51MOL0     H 6875   4.517  10.575   7.765 -0.5362 -0.8278  0.7759
   51MOL0     H 6876   4.475  10.722   7.863  1.9280 -1.9358  2.0037
   51MOL0     H 6877   4.297  10.471   7.829  0.8034 -1.3845  0.4184
   51MOL0     H 6878   4.304  10.593   7.962  0.8491  1.0167 -0.9714
   51MOL0     H 6879   4.525  10.396   7.896  2.2989  1.5446  1.2664
   51MOL0     H 6880   4.403  10.367   8.019 -0.5440  0.2655 -0.9030
   51MOL0     H 6881   4.468  10.580   8.130  1.5100  0.9694  1.4760
   51MOL0     H 6882   4.592  10.604   8.001 -1.1972  0.1810 -0.0074
   51MOL0     H 6883   4.753  10.348   8.295 -0.3775  1.2424  1.3302
   51MOL0     H 6884   4.622  10.704   7.619 -0.2458 -0.2415 -1.4437
   51MOL0     H 6885   4.725  10.852   7.490 -0.2942 -1.3285  1.4872
   52MOL0     O 6886  10.312   1.959   2.660  0.9078  0.2987 -0.0899
   52MOL0     C 6887  10.231   1.948   2.750 -0.5794  0.3990 -0.5658
   52MOL0     O 6888  10.112   1.876   2.744  0.0693 -0.0472 -0.8655
   52MOL0     C 6889  10.083   1.781   2.644 -0.3607 -0.2354  0.4229
   52MOL0     C 6890   9.951   1.725   2.651  0.3242  0.7377  0.4137
   52MOL0     C 6891   9.906   1.641   2.547  0.2407  0.1005  0.7503
   52MOL0     C 6892   9.977   1.624   2.431 -1.3793 -0.4911  0.2203
   52MOL0     O 6893   9.931   1.556   2.319 -0.5326  0.5387 -1.0727
   52MOL0     C 6894   9.801   1.602   2.277  0.1746  0.7187  0.2795
   52MOL0     C 6895   9.798   1.604   2.121  0.7117 -0.3822 -0.0416
   52MOL0     C 6896   9.848   1.731   2.060 -0.7734  0.3697 -0.2516
   52MOL0     C 6897  10.001   1.714   2.028 -0.5842  0.2109 -0.0125
   52MOL0     C 6898  10.059   1.846   1.978 -0.3586 -0.6399 -0.4291
   52MOL0     C 6899  10.162   1.823   1.871 -0.3787  1.0878 -0.7455
   52MOL0     C 6900  10.264   1.937   1.839 -0.0048  0.7521 -0.0548
   52MOL0     C 6901  10.337   1.981   1.968  0.7091 -0.6266 -0.3935
   52MOL0     N 6902  10.479   2.001   1.956  0.0886  0.6079 -0.2070
   52MOL0     C 6903  10.554   2.091   2.024  0.0295 -0.4353  0.0794
   52MOL0     C 6904  10.681   2.074   1.992 -0.6466  0.9932  0.6831
   52MOL0     C 6905  10.791   2.165   2.027 -0.1921 -0.3844 -0.2170
   52MOL0     C 6906  10.830   2.246   1.905  0.2192 -0.6769 -0.4400
   52MOL0     C 6907  10.938   2.352   1.941 -0.2916 -0.3781  0.4454
   52MOL0     C 6908  10.882   2.482   1.995 -0.1484  0.4546 -0.5113
   52MOL0     O 6909  10.980   2.569   2.055 -0.2292  0.1514  0.4230
   52MOL0     C 6910  11.067   2.625   1.965 -0.2752 -0.1461  0.9589
   52MOL0     C 6911  11.014   2.733   1.888 -0.6780 -0.1874 -0.6470
   52MOL0     C 6912  11.097   2.781   1.783  0.4607 -0.4539  0.5790
   52MOL0     C 6913  11.042   2.906   1.709 -0.0504  0.4283  0.0480
   52MOL0     C 6914  11.230   2.732   1.759 -0.1137  1.1009 -0.2177
   52MOL0     C 6915  11.327   2.779   1.655  0.5110 -0.6964  1.3190
   52MOL0     O 6916  11.270   2.844   1.550  0.4077  0.0529  0.2852
   52MOL0     C 6917  11.361   2.913   1.468  0.1695 -0.1960  0.5636
   52MOL0     C 6918  11.469   2.842   1.401 -0.4029  1.1843 -0.5227
   52MOL0     C 6919  11.573   2.907   1.332  0.8321  1.1526  0.2009
   52MOL0     C 6920  11.568   3.044   1.313 -0.1383  0.7445  0.7076
   52MOL0     O 6921  11.664   3.108   1.239 -0.9324  0.0149 -0.1797
   52MOL0     C 6922  11.792   3.101   1.312  0.8217  0.0165 -0.0475
   52MOL0     C 6923  11.861   3.233   1.353 -0.0213  1.2303 -0.8290
   52MOL0     C 6924  11.960   3.274   1.241  0.0224 -0.2750  0.6486
   52MOL0     C 6925  12.093   3.196   1.232 -1.3056  0.5447 -0.3153
   52MOL0     C 6926  12.119   3.167   1.077 -0.0321  0.3984  0.4698
   52MOL0     C 6927  12.144   3.295   0.998  0.0823  0.0089 -0.8669
   52MOL0     C 6928  12.185   3.277   0.847  1.3808  0.9175 -0.4167
   52MOL0     C 6929  12.058   3.248   0.764 -0.1744 -1.3007  0.2896
   52MOL0    Cl 6930  12.112   3.240   0.599  0.1027  0.1685  0.0138
   52MOL0     C 6931  11.465   3.115   1.374  0.0243 -0.9697 -0.2054
   52MOL0     C 6932  11.355   3.050   1.445  0.2314  0.0882 -0.6268
   52MOL0     O 6933  11.447   2.772   1.679 -0.2408 -0.4389 -0.5606
   52MOL0     C 6934  11.274   2.631   1.847 -0.6418  0.2899 -0.3707
   52MOL0     C 6935  11.197   2.578   1.948  0.0482  0.0785  0.8341
   52MOL0     N 6936  10.679   1.966   1.901 -1.1178 -0.5545  0.2635
   52MOL0     N 6937  10.560   1.913   1.886 -0.3778 -0.5932 -0.3557
   52MOL0     C 6938  10.108   1.672   2.429  0.5087  0.3235 -0.3041
   52MOL0     C 6939  10.156   1.758   2.528 -0.4386 -0.5957  0.4168
   52MOL0     C 6940  10.266   2.014   2.880 -0.4110  0.4820 -0.9771
   52MOL0     C 6941  10.187   1.993   2.994  0.6031 -0.5348  0.4142
   52MOL0     C 6942  10.218   2.051   3.118 -0.3541  0.4396 -0.0836
   52MOL0     C 6943  10.323   2.138   3.119 -1.4171 -0.0489  0.1045
   52MOL0     O 6944  10.354   2.188   3.249 -0.3100 -0.2169  0.2651
   52MOL0     C 6945  10.484   2.229   3.269  0.2094 -0.8635  0.1172
   52MOL0     C 6946  10.508   2.222   3.422  0.6566  0.1571  0.0516
   52MOL0     C 6947  10.658   2.241   3.452 -0.1744  0.1029 -0.3230
   52MOL0     C 6948  10.685   2.225   3.602  0.1771  0.4869  0.7123
   52MOL0     C 6949  10.632   2.332   3.682 -0.0889 -0.5732  0.6342
   52MOL0     C 6950  10.575   2.426   3.744 -0.1771 -0.1020  1.2315
   52MOL0     C 6951  10.402   2.175   3.002  0.4126  0.2454  0.7731
   52MOL0     C 6952  10.361   2.114   2.885 -0.3908  0.0907  0.8987
   52MOL0     H 6953   9.879   1.737   2.732  1.5004 -0.7401  1.7445
   52MOL0     H 6954   9.802   1.612   2.548 -0.0706  1.0820 -0.3431
   52MOL0     H 6955   9.721   1.528   2.292  0.5416  0.3440  0.3997
   52MOL0     H 6956   9.780   1.701   2.319  2.8694  2.5274 -2.2708
   52MOL0     H 6957   9.859   1.518   2.092  2.1557 -0.5515  3.1082
   52MOL0     H 6958   9.698   1.599   2.077  0.1573  1.3025  0.9484
   52MOL0     H 6959   9.787   1.742   1.970 -1.1313 -2.9321 -0.5294
   52MOL0     H 6960   9.841   1.817   2.127  0.2478  1.3022 -1.3116
   52MOL0     H 6961  10.071   1.691   2.108  1.4087  1.9160 -1.1804
   52MOL0     H 6962  10.010   1.645   1.944  3.1672  1.2710 -0.6593
   52MOL0     H 6963   9.982   1.905   1.927  0.6684  0.4257 -0.7926
   52MOL0     H 6964  10.096   1.917   2.052  0.7891  0.5146 -2.0526
   52MOL0     H 6965  10.221   1.736   1.900 -0.8666  1.5259  1.8085
   52MOL0     H 6966  10.102   1.796   1.784  0.2591 -1.3898 -0.4807
   52MOL0     H 6967  10.335   1.888   1.773  0.2016 -3.3165  2.8288
   52MOL0     H 6968  10.220   2.020   1.782  1.5548 -0.1114 -2.6864
   52MOL0     H 6969  10.321   1.898   2.038  0.8662 -0.3393 -0.0117
   52MOL0     H 6970  10.276   2.066   2.002 -0.2856 -0.7220 -1.8549
   52MOL0     H 6971  10.519   2.171   2.088  1.8846 -0.1207  0.7510
   52MOL0     H 6972  10.748   2.238   2.097  0.5962  0.4200 -0.5471
   52MOL0     H 6973  10.873   2.116   2.080  0.8375  2.0041  0.5634
   52MOL0     H 6974  10.733   2.293   1.883 -0.1158  2.9888  6.1429
   52MOL0     H 6975  10.864   2.182   1.824 -0.4560 -1.6183  0.0020
   52MOL0     H 6976  11.006   2.379   1.859 -1.0299  2.2979  0.6017
   52MOL0     H 6977  11.004   2.314   2.019  0.0326  2.4113  1.6650
   52MOL0     H 6978  10.801   2.462   2.065 -0.8511  0.3171 -1.3572
   52MOL0     H 6979  10.841   2.539   1.911 -0.8776  1.0451  0.2332
   52MOL0     H 6980  10.917   2.781   1.897 -0.7169 -0.0121 -1.8488
   52MOL0     H 6981  11.017   2.877   1.607 -1.5178  0.5184  0.3556
   52MOL0     H 6982  10.942   2.934   1.745 -1.3506 -2.3399 -1.0853
   52MOL0     H 6983  11.101   2.997   1.725 -2.7523  1.8096  3.8144
   52MOL0     H 6984  11.482   2.738   1.426  2.2270  1.5600 -0.0667
   52MOL0     H 6985  11.656   2.867   1.276 -1.0722 -0.2397 -1.7937
   52MOL0     H 6986  11.793   3.035   1.400 -1.6409 -1.0763 -0.7639
   52MOL0     H 6987  11.865   3.061   1.241  1.7380  0.8282  0.4077
   52MOL0     H 6988  11.789   3.316   1.350  1.9684  3.1388  0.9308
   52MOL0     H 6989  11.914   3.225   1.448  1.5313  0.4599 -1.7246
   52MOL0     H 6990  11.992   3.379   1.239 -0.7401  0.0040  1.8298
   52MOL0     H 6991  11.896   3.262   1.153  2.8401  0.3678 -1.6490
   52MOL0     H 6992  12.185   3.247   1.262 -0.7618  1.1234 -2.7196
   52MOL0     H 6993  12.086   3.099   1.282  0.7766 -1.0697 -2.8771
   52MOL0     H 6994  12.037   3.112   1.028  1.9756 -3.0700  0.6436
   52MOL0     H 6995  12.210   3.106   1.077 -0.6158 -0.5303 -1.0140
   52MOL0     H 6996  12.066   3.372   0.998  0.6481  0.6092 -1.7366
   52MOL0     H 6997  12.228   3.339   1.052  0.6481  0.7762 -2.3052
   52MOL0     H 6998  12.270   3.208   0.841  2.2186  1.5903  2.1840
   52MOL0     H 6999  12.227   3.373   0.814 -2.6408  2.0470 -2.8552
   52MOL0     H 7000  11.974   3.318   0.768 -0.5728 -1.6156 -1.6983
   52MOL0     H 7001  12.021   3.149   0.795 -0.2510 -1.5573 -0.5852
   52MOL0     H 7002  11.457   3.219   1.346 -1.1312 -0.2240  2.5387
   52MOL0     H 7003  11.273   3.111   1.481 -0.2740 -0.1780 -1.2791
   52MOL0     H 7004  11.378   2.599   1.851 -1.0606 -1.1236  0.1449
   52MOL0     H 7005  11.229   2.511   2.027 -0.6473 -0.8068  0.3888
   52MOL0     H 7006  10.169   1.666   2.339  1.0454  0.6531  0.0275
   52MOL0     H 7007  10.260   1.790   2.521 -0.6686 -0.0879 -1.2920
   52MOL0     H 7008  10.103   1.926   2.982 -0.8550  1.4041 -0.8440
   52MOL0     H 7009  10.155   2.011   3.197 -0.5461  0.0210 -0.4443
   52MOL0     H 7010  10.542   2.161   3.207 -1.0989 -1.3604 -0.5926
   52MOL0     H 7011  10.513   2.333   3.247  0.0116 -0.3168  2.2133
   52MOL0     H 7012  10.464   2.134   3.471 -2.6783  1.4757 -0.2964
   52MOL0     H 7013  10.455   2.309   3.462  0.3249 -0.5667  1.2467
   52MOL0     H 7014  10.683   2.346   3.438 -0.2978  0.5832  2.4514
   52MOL0     H 7015  10.722   2.173   3.395  1.3636  1.0289  0.2635
   52MOL0     H 7016  10.792   2.231   3.625  1.0941 -1.2534 -2.4241
   52MOL0     H 7017  10.637   2.133   3.637 -3.3813  1.9399  0.1368
   52MOL0     H 7018  10.533   2.502   3.808 -1.8998  0.4834 -0.4882
   52MOL0     H 7019  10.488   2.241   2.999 -0.4764  1.4601  1.1871
   52MOL0     H 7020  10.423   2.137   2.799  0.2350  0.4195  1.4361
   53MOL0     O 7021   5.017   9.188   2.236  0.0660 -0.4604 -0.0087
   53MOL0     C 7022   4.908   9.140   2.208 -0.3814 -0.6421  0.3155
   53MOL0     O 7023   4.792   9.195   2.230  0.1773 -1.1640 -0.4450
   53MOL0     C 7024   4.774   9.312   2.298  0.4393 -0.7905  0.8779
   53MOL0     C 7025   4.650   9.383   2.283 -0.3167  0.3988  0.4735
   53MOL0     C 7026   4.642   9.511   2.335  0.0050  0.7371 -0.1764
   53MOL0     C 7027   4.734   9.575   2.409  0.0221  0.5980  0.6458
   53MOL0     O 7028   4.710   9.695   2.480  0.9782 -0.0840  0.4280
   53MOL0     C 7029   4.613   9.786   2.425  0.2699  0.4213  0.0915
   53MOL0     C 7030   4.657   9.841   2.288  0.4027  0.7595 -0.0297
   53MOL0     C 7031   4.554   9.918   2.210  0.3484  0.3307  0.2664
   53MOL0     C 7032   4.423   9.844   2.177  0.1912  0.7220  0.0461
   53MOL0     C 7033   4.333   9.906   2.066 -0.4666 -1.5553 -0.8668
   53MOL0     C 7034   4.289  10.051   2.099  0.6824  0.3734  0.1204
   53MOL0     C 7035   4.198  10.109   1.995 -0.1407 -1.0528 -0.3150
   53MOL0     C 7036   4.066  10.040   2.004 -0.3564  0.1459  0.3008
   53MOL0     N 7037   3.986  10.111   1.909 -0.1363 -0.4626 -0.2129
   53MOL0     C 7038   3.854  10.135   1.916  0.4314 -1.0880  0.0260
   53MOL0     C 7039   3.808  10.182   1.791  0.1019 -0.8546  0.2502
   53MOL0     C 7040   3.662  10.219   1.751  1.0639  0.2038  0.3784
   53MOL0     C 7041   3.592  10.310   1.863  0.7371 -0.3619 -0.3537
   53MOL0     C 7042   3.675  10.436   1.877 -0.6518 -0.3056 -1.3036
   53MOL0     C 7043   3.601  10.539   1.968  0.0472  0.2323  0.8967
   53MOL0     O 7044   3.688  10.642   2.005 -0.3592  0.8631 -0.1066
   53MOL0     C 7045   3.704  10.732   1.907 -0.3339  0.0794 -1.0141
   53MOL0     C 7046   3.835  10.741   1.843  1.0992 -0.5081 -0.7890
   53MOL0     C 7047   3.853  10.824   1.736  0.4029  0.8002  0.3410
   53MOL0     C 7048   3.981  10.804   1.649 -1.0935  0.4898 -0.2991
   53MOL0     C 7049   3.750  10.918   1.702 -0.1189 -0.4332  0.3149
   53MOL0     C 7050   3.773  11.018   1.599 -0.8770  0.3960  0.4190
   53MOL0     O 7051   3.861  11.121   1.630 -0.0521 -0.7342  0.1188
   53MOL0     C 7052   3.868  11.221   1.537 -0.1657  0.0553  0.0979
   53MOL0     C 7053   3.835  11.342   1.571  0.9783 -0.7905 -0.6099
   53MOL0     C 7054   3.845  11.456   1.499 -0.4283 -0.2868  0.4326
   53MOL0     C 7055   3.884  11.441   1.367 -0.1760  0.0750  1.4175
   53MOL0     O 7056   3.893  11.536   1.273  0.3904 -0.0951 -0.2129
   53MOL0     C 7057   3.754  11.580   1.238 -1.3497 -0.8041  0.3719
   53MOL0     C 7058   3.760  11.714   1.161  0.0720 -0.4017  0.7220
   53MOL0     C 7059   3.615  11.773   1.126  0.0112  0.3129  0.5572
   53MOL0     C 7060   3.633  11.884   1.012 -0.4416  0.3052 -0.0051
   53MOL0     C 7061   3.500  11.959   0.995 -0.5642  0.5271  0.1858
   53MOL0     C 7062   3.533  12.062   0.894 -0.3099 -0.1080  0.4114
   53MOL0     C 7063   3.530  12.010   0.748 -0.2008 -0.0934 -0.0555
   53MOL0     C 7064   3.498  12.126   0.648 -0.3284 -0.2224 -0.0263
   53MOL0    Cl 7065   3.598  12.264   0.679 -0.2923 -0.4095  0.3441
   53MOL0     C 7066   3.932  11.314   1.328  0.4309 -0.1483  1.1793
   53MOL0     C 7067   3.916  11.205   1.414  0.0155 -0.3732  0.5883
   53MOL0     O 7068   3.720  11.005   1.493 -0.2326  0.2302 -0.6054
   53MOL0     C 7069   3.627  10.915   1.771  0.1164 -0.9760  0.2295
   53MOL0     C 7070   3.597  10.822   1.871 -0.4576 -0.0708  0.6901
   53MOL0     N 7071   3.923  10.173   1.716  0.6341  0.2174 -0.1137
   53MOL0     N 7072   4.024  10.131   1.780 -0.4946  0.3062 -0.9585
   53MOL0     C 7073   4.841   9.497   2.433 -0.3170  0.2367 -0.4706
   53MOL0     C 7074   4.864   9.372   2.389  0.1551 -0.5604  0.6432
   53MOL0     C 7075   4.922   8.998   2.164  0.5355 -1.0985  0.4365
   53MOL0     C 7076   5.021   8.952   2.072  0.6024  0.0633  0.8947
   53MOL0     C 7077   5.012   8.824   2.013 -0.3108  0.0546  0.4705
   53MOL0     C 7078   4.912   8.727   2.046  0.0195  0.2611 -0.2420
   53MOL0     O 7079   4.892   8.598   1.998 -0.2192  1.1704 -0.1299
   53MOL0     C 7080   4.934   8.571   1.860 -0.1725  0.3259 -0.7428
   53MOL0     C 7081   4.828   8.495   1.788  0.7352 -0.9806  0.2284
   53MOL0     C 7082   4.799   8.346   1.825 -0.0574  0.3601 -0.0609
   53MOL0     C 7083   4.726   8.269   1.722  0.1146 -0.3955 -0.4008
   53MOL0     C 7084   4.599   8.336   1.704 -0.0516  0.0035 -0.1817
   53MOL0     C 7085   4.489   8.388   1.699 -0.2975 -0.3321  0.5108
   53MOL0     C 7086   4.821   8.777   2.146  0.5712  0.6993  0.3745
   53MOL0     C 7087   4.832   8.904   2.209  0.2611  0.1270  0.1068
   53MOL0     H 7088   4.568   9.335   2.229  0.6776  1.1556 -1.8568
   53MOL0     H 7089   4.550   9.557   2.300 -0.7172 -2.3223 -2.7913
   53MOL0     H 7090   4.531   9.718   2.402  1.9468 -1.4657 -0.6117
   53MOL0     H 7091   4.585   9.866   2.494 -2.9541 -0.8501  0.4626
   53MOL0     H 7092   4.746   9.901   2.312  0.3817  0.0331  2.0741
   53MOL0     H 7093   4.678   9.757   2.222 -1.3552 -0.1538  0.5166
   53MOL0     H 7094   4.520  10.007   2.265  0.9096  1.9987 -1.9483
   53MOL0     H 7095   4.608   9.954   2.122  1.0309  0.8731  0.8943
   53MOL0     H 7096   4.448   9.747   2.133 -1.2816  0.7756 -0.9807
   53MOL0     H 7097   4.367   9.831   2.270  0.2419 -0.2374 -0.0413
   53MOL0     H 7098   4.392   9.916   1.974 -2.2754 -1.4903 -2.0870
   53MOL0     H 7099   4.251   9.839   2.036 -0.1735 -1.6902 -1.3800
   53MOL0     H 7100   4.237  10.034   2.194 -3.2685 -1.1008 -2.0403
   53MOL0     H 7101   4.378  10.110   2.119 -0.4963  2.1456  0.3543
   53MOL0     H 7102   4.198  10.218   2.002 -0.9533 -0.8810 -2.4136
   53MOL0     H 7103   4.253  10.097   1.902  4.1196 -1.2274  1.9884
   53MOL0     H 7104   4.026  10.055   2.105  0.0351  0.4512  0.4125
   53MOL0     H 7105   4.074   9.931   1.990 -1.0329  0.0211  0.8103
   53MOL0     H 7106   3.792  10.123   2.004 -1.6123  0.0300 -1.1958
   53MOL0     H 7107   3.658  10.270   1.654 -3.3910 -1.9566 -0.8635
   53MOL0     H 7108   3.612  10.122   1.744  1.6298 -0.0466 -0.3719
   53MOL0     H 7109   3.583  10.269   1.964 -0.5491  2.7156  0.8998
   53MOL0     H 7110   3.494  10.341   1.826  1.2263  3.3468  1.0720
   53MOL0     H 7111   3.684  10.483   1.779 -0.1600 -0.1927 -1.2032
   53MOL0     H 7112   3.769  10.407   1.924 -1.4399  0.9385  1.1850
   53MOL0     H 7113   3.564  10.493   2.060  2.2472  5.3194  4.8360
   53MOL0     H 7114   3.516  10.578   1.912  0.6739  0.6878  0.2336
   53MOL0     H 7115   3.921  10.678   1.867  2.0289  0.2109 -2.1387
   53MOL0     H 7116   4.069  10.853   1.691 -3.0937  2.3374  2.0123
   53MOL0     H 7117   4.007  10.698   1.649 -2.0208  0.2499  0.0530
   53MOL0     H 7118   3.967  10.840   1.547 -2.9795 -0.2096 -0.3257
   53MOL0     H 7119   3.794  11.351   1.671  2.8808  2.5803  0.0033
   53MOL0     H 7120   3.808  11.553   1.532 -2.9171 -1.2462  0.6871
   53MOL0     H 7121   3.716  11.496   1.178 -0.2375  1.7164 -4.4354
   53MOL0     H 7122   3.691  11.594   1.326 -0.5325  0.1864  0.8088
   53MOL0     H 7123   3.815  11.785   1.224  2.1685 -1.8861  0.6847
   53MOL0     H 7124   3.818  11.693   1.070  1.3322 -0.2243  1.4626
   53MOL0     H 7125   3.576  11.816   1.218  2.1293 -0.1424  1.7277
   53MOL0     H 7126   3.542  11.695   1.102  0.1963  0.6890 -1.4499
   53MOL0     H 7127   3.718  11.950   1.032 -0.8398  0.5912  0.7877
   53MOL0     H 7128   3.672  11.842   0.919  0.6477 -0.7134  0.8828
   53MOL0     H 7129   3.468  12.004   1.089  0.2906  1.3665  0.0920
   53MOL0     H 7130   3.423  11.894   0.954 -0.0325  1.8992 -3.3868
   53MOL0     H 7131   3.452  12.135   0.902 -2.0934 -1.9408 -0.0322
   53MOL0     H 7132   3.629  12.110   0.914  1.1907 -1.9926 -1.7467
   53MOL0     H 7133   3.458  11.928   0.742 -0.5803  0.1662  0.7552
   53MOL0     H 7134   3.622  11.968   0.707 -0.8614 -0.6350 -1.0196
   53MOL0     H 7135   3.393  12.156   0.657  0.0954  1.2823  0.1552
   53MOL0     H 7136   3.506  12.098   0.542  0.4481  2.9437 -0.9053
   53MOL0     H 7137   3.989  11.312   1.236  0.5327 -1.2066  1.2453
   53MOL0     H 7138   3.953  11.108   1.384 -2.0713 -0.2684 -2.7299
   53MOL0     H 7139   3.544  10.981   1.746  0.5062  0.6161  2.8042
   53MOL0     H 7140   3.497  10.824   1.913 -0.6003 -0.3084  0.3736
   53MOL0     H 7141   4.907   9.546   2.503  0.6222  0.2506 -1.3485
   53MOL0     H 7142   4.958   9.323   2.415  0.9809  0.4018 -0.4003
   53MOL0     H 7143   5.100   9.016   2.033  0.0949  0.1981  0.0514
   53MOL0     H 7144   5.084   8.780   1.945 -0.8910 -1.3158  0.7271
   53MOL0     H 7145   4.972   8.652   1.796  2.7517 -0.2711  0.0717
   53MOL0     H 7146   5.021   8.507   1.876  1.2910  1.5763 -3.0609
   53MOL0     H 7147   4.833   8.498   1.678 -2.5839 -3.2107 -0.1592
   53MOL0     H 7148   4.741   8.554   1.819 -0.5817 -2.0353 -1.2496
   53MOL0     H 7149   4.738   8.335   1.914  1.0656 -0.7852  0.5932
   53MOL0     H 7150   4.895   8.298   1.845 -0.6098  0.5881  3.7061
   53MOL0     H 7151   4.709   8.166   1.755 -2.8499  0.2251  0.3358
   53MOL0     H 7152   4.792   8.271   1.635  1.1522  0.0981  0.3783
   53MOL0     H 7153   4.390   8.430   1.703  0.5482  1.6688  3.5001
   53MOL0     H 7154   4.742   8.719   2.192 -1.5695  1.1915 -2.4146
   53MOL0     H 7155   4.763   8.929   2.289 -3.2697  2.0543 -3.2246
   54MOL0     O 7156  10.598   2.661   8.515  0.5452  0.1009  0.0870
   54MOL0     C 7157  10.506   2.705   8.439  0.1312  0.6115  0.1546
   54MOL0     O 7158  10.499   2.702   8.308 -0.3645 -0.0117  0.1033
   54MOL0     C 7159  10.605   2.648   8.231  0.1493  0.1240  0.2633
   54MOL0     C 7160  10.576   2.670   8.094 -0.8400  0.4420  0.0500
   54MOL0     C 7161  10.671   2.645   7.995  0.1627 -0.6000 -0.3776
   54MOL0     C 7162  10.796   2.593   8.029 -0.3098 -1.0878 -0.0587
   54MOL0     O 7163  10.875   2.575   7.919 -0.1307 -0.7776  0.6827
   54MOL0     C 7164  11.001   2.515   7.933 -0.3201 -0.1574  0.0540
   54MOL0     C 7165  11.044   2.432   7.803  0.2550 -0.3403 -0.4485
   54MOL0     C 7166  11.197   2.389   7.788  0.6800  0.4392  0.2599
   54MOL0     C 7167  11.209   2.257   7.729 -0.6325 -0.4679 -0.7671
   54MOL0     C 7168  11.356   2.228   7.675  0.4803 -0.0718  0.4682
   54MOL0     C 7169  11.468   2.258   7.774  0.6522 -0.8703 -0.1275
   54MOL0     C 7170  11.460   2.200   7.906 -0.1882 -0.1544 -0.3280
   54MOL0     C 7171  11.479   2.040   7.908 -0.5240 -0.0091 -0.1782
   54MOL0     N 7172  11.595   2.001   7.823  0.1333 -0.0063 -1.3136
   54MOL0     C 7173  11.722   2.010   7.867  0.1289  0.7137 -0.2151
   54MOL0     C 7174  11.800   1.994   7.763 -0.3267  0.0387 -0.7513
   54MOL0     C 7175  11.948   1.986   7.761  0.1955 -0.2135  0.0014
   54MOL0     C 7176  12.006   2.092   7.661  0.1540  0.6707 -0.1545
   54MOL0     C 7177  12.044   2.217   7.722  0.7867 -0.4219 -1.1229
   54MOL0     C 7178  12.131   2.296   7.626 -0.7065  0.5149  1.5552
   54MOL0     O 7179  12.244   2.221   7.560  0.5257 -0.1422  0.0756
   54MOL0     C 7180  12.337   2.159   7.639 -0.3271  0.3573 -0.0799
   54MOL0     C 7181  12.382   2.032   7.599  1.1312 -0.6083  0.0835
   54MOL0     C 7182  12.456   1.946   7.675  0.2244 -0.2258 -0.2146
   54MOL0     C 7183  12.470   1.817   7.599 -0.6704  0.6235  0.3437
   54MOL0     C 7184  12.505   1.999   7.799 -0.4341  0.7433 -0.6324
   54MOL0     C 7185  12.596   1.918   7.888  0.8140  1.7471  0.1644
   54MOL0     O 7186  12.635   1.967   8.006  0.0974 -0.0272 -0.1852
   54MOL0     C 7187  12.687   1.894   8.102 -0.3862  0.3317  0.0602
   54MOL0     C 7188  12.665   1.765   8.142 -0.4951  1.0001  0.9523
   54MOL0     C 7189  12.728   1.709   8.251 -0.4649  0.1620 -0.2337
   54MOL0     C 7190  12.818   1.789   8.321  0.0367  0.0738 -0.5420
   54MOL0     O 7191  12.867   1.751   8.441 -0.2119 -0.1169  0.2070
   54MOL0     C 7192  12.771   1.717   8.547  0.7016  0.7114 -0.7102
   54MOL0     C 7193  12.840   1.625   8.644 -0.1288  0.8217  0.8442
   54MOL0     C 7194  12.917   1.511   8.580 -1.0771  0.6139  0.3312
   54MOL0     C 7195  13.019   1.454   8.681 -0.0359 -0.1204 -0.2825
   54MOL0     C 7196  13.101   1.344   8.622  0.0130 -0.2609  0.5861
   54MOL0     C 7197  13.205   1.291   8.721  0.1637  0.5162  0.7327
   54MOL0     C 7198  13.270   1.170   8.658 -0.3662  0.8203  0.1415
   54MOL0     C 7199  13.369   1.096   8.754 -0.2244  0.3943 -0.2425
   54MOL0    Cl 7200  13.514   1.208   8.797 -0.2411  0.6349 -0.0385
   54MOL0     C 7201  12.851   1.912   8.272 -0.4729 -0.7043 -0.3514
   54MOL0     C 7202  12.780   1.973   8.174  0.7540  0.1550  0.3109
   54MOL0     O 7203  12.635   1.816   7.836 -0.3569  0.1358  0.8742
   54MOL0     C 7204  12.470   2.124   7.841  0.0135  0.3388 -0.4405
   54MOL0     C 7205  12.388   2.212   7.761 -0.5491  0.3880 -0.1716
   54MOL0     N 7206  11.714   1.959   7.658 -0.4132  0.3811  0.4855
   54MOL0     N 7207  11.593   1.970   7.690  0.1522  0.2844 -0.2526
   54MOL0     C 7208  10.818   2.564   8.166 -0.8711  0.3807 -0.2068
   54MOL0     C 7209  10.732   2.598   8.264  1.1351 -0.0003 -0.2992
   54MOL0     C 7210  10.388   2.775   8.510  0.8326 -0.4666  0.1132
   54MOL0     C 7211  10.272   2.813   8.435  0.5862  0.6998 -0.0022
   54MOL0     C 7212  10.177   2.903   8.501  0.1872  0.3453  1.0555
   54MOL0     C 7213  10.184   2.935   8.635  0.2220  0.7727 -0.4844
   54MOL0     O 7214  10.084   3.005   8.700  0.5370 -0.3436 -0.5851
   54MOL0     C 7215   9.956   3.024   8.639 -1.2642  0.3313  0.5295
   54MOL0     C 7216   9.856   3.084   8.731 -0.8109  0.1116  0.7713
   54MOL0     C 7217   9.807   2.982   8.835 -0.3021  0.4376  0.7921
   54MOL0     C 7218   9.680   3.014   8.911  0.4183 -0.3749  0.1754
   54MOL0     C 7219   9.561   3.023   8.827 -0.8276 -0.1938  0.2519
   54MOL0     C 7220   9.453   3.040   8.772  0.4540  0.2138 -0.1409
   54MOL0     C 7221  10.293   2.883   8.713  0.8011  0.4368  0.3136
   54MOL0     C 7222  10.393   2.804   8.652 -0.1991  0.3153 -1.0472
   54MOL0     H 7223  10.485   2.718   8.061  0.9716  1.7852 -3.6008
   54MOL0     H 7224  10.643   2.672   7.894 -1.8471  1.5327  0.6469
   54MOL0     H 7225  11.075   2.595   7.949 -0.0141  0.2805 -3.0151
   54MOL0     H 7226  11.014   2.440   8.012 -1.2768 -0.5161 -0.1193
   54MOL0     H 7227  10.969   2.356   7.780 -0.5995  1.0981 -2.8229
   54MOL0     H 7228  11.009   2.503   7.727 -5.9564 -1.4353  0.8426
   54MOL0     H 7229  11.244   2.458   7.718  1.5114  0.4830  0.8521
   54MOL0     H 7230  11.241   2.392   7.888  2.8716  0.8903 -0.6609
   54MOL0     H 7231  11.176   2.179   7.797 -1.5280  1.4240  1.0689
   54MOL0     H 7232  11.138   2.260   7.646 -0.5506  2.7809 -0.8661
   54MOL0     H 7233  11.363   2.122   7.649 -1.8064 -0.0928 -0.2542
   54MOL0     H 7234  11.372   2.286   7.583  2.2212  0.7763  1.2460
   54MOL0     H 7235  11.563   2.241   7.723  1.1048  3.2503 -1.0350
   54MOL0     H 7236  11.468   2.367   7.788 -2.2685 -0.6642 -1.0654
   54MOL0     H 7237  11.530   2.249   7.975 -2.7829  1.9173  1.0349
   54MOL0     H 7238  11.370   2.231   7.960  0.3297  3.1052 -1.1218
   54MOL0     H 7239  11.399   1.981   7.862  0.4558 -4.1407  2.8328
   54MOL0     H 7240  11.486   1.996   8.008 -2.0468 -2.0526 -0.9096
   54MOL0     H 7241  11.759   2.047   7.962 -1.4164  1.2270  0.2201
   54MOL0     H 7242  11.994   1.999   7.860  2.0286 -2.7530 -0.4219
   54MOL0     H 7243  11.969   1.887   7.721 -0.3891 -0.8862  1.2904
   54MOL0     H 7244  11.934   2.106   7.580 -3.9011  0.4048  3.0704
   54MOL0     H 7245  12.097   2.041   7.627 -0.0212 -1.6372  2.5025
   54MOL0     H 7246  12.096   2.193   7.815 -1.7687  0.0885  0.5393
   54MOL0     H 7247  11.960   2.275   7.761  0.9962 -0.8683  0.0312
   54MOL0     H 7248  12.175   2.390   7.660  0.3800  2.1397 -3.4740
   54MOL0     H 7249  12.067   2.337   7.547  1.9950 -0.0677 -1.1278
   54MOL0     H 7250  12.333   2.008   7.504  0.8922  2.9061 -0.8232
   54MOL0     H 7251  12.538   1.819   7.513 -0.0975  0.4865  0.7834
   54MOL0     H 7252  12.502   1.731   7.660 -2.8701 -0.4417  0.0788
   54MOL0     H 7253  12.371   1.812   7.553 -0.7853  4.0524  0.0154
   54MOL0     H 7254  12.601   1.707   8.076  3.0551 -0.5989 -1.3571
   54MOL0     H 7255  12.701   1.606   8.271 -2.5807  0.4541 -1.2120
   54MOL0     H 7256  12.753   1.812   8.597 -0.7320 -0.4327  1.0792
   54MOL0     H 7257  12.679   1.667   8.514  1.4740 -1.5125  0.3210
   54MOL0     H 7258  12.906   1.681   8.711  1.3034 -0.1701  0.3073
   54MOL0     H 7259  12.771   1.569   8.708 -0.3738 -1.1472 -1.0316
   54MOL0     H 7260  12.976   1.535   8.491 -1.7662  0.6129 -0.1324
   54MOL0     H 7261  12.849   1.429   8.555  2.3711 -2.2676 -0.3699
   54MOL0     H 7262  13.087   1.537   8.704 -1.3200  1.2895 -1.3271
   54MOL0     H 7263  12.963   1.421   8.769 -1.3772  1.1813 -0.5997
   54MOL0     H 7264  13.152   1.393   8.538 -4.8016  2.1245 -1.3937
   54MOL0     H 7265  13.039   1.262   8.584 -1.2150  0.9871 -0.2272
   54MOL0     H 7266  13.271   1.375   8.747  0.3700 -0.0535  2.1172
   54MOL0     H 7267  13.163   1.264   8.818  2.5436  0.9497  1.9541
   54MOL0     H 7268  13.324   1.200   8.568  3.1179  1.9736  2.4119
   54MOL0     H 7269  13.197   1.090   8.642 -0.7440  0.9051  1.3078
   54MOL0     H 7270  13.403   1.004   8.707  2.9776  1.0188  0.6063
   54MOL0     H 7271  13.313   1.058   8.839 -2.9601 -1.0899 -2.5405
   54MOL0     H 7272  12.917   1.977   8.328 -3.8394  1.6195  1.2933
   54MOL0     H 7273  12.805   2.074   8.146 -0.8235  0.5769  0.3854
   54MOL0     H 7274  12.499   2.160   7.939 -1.5093  1.4855 -0.3848
   54MOL0     H 7275  12.361   2.307   7.805 -1.8518 -1.1398  2.6352
   54MOL0     H 7276  10.906   2.516   8.207 -0.8484 -3.2999 -3.8789
   54MOL0     H 7277  10.759   2.580   8.368  0.4623  2.9573  0.4799
   54MOL0     H 7278  10.270   2.780   8.331  2.8632 -1.4472  0.5447
   54MOL0     H 7279  10.096   2.945   8.441 -0.3988 -2.3694 -0.2074
   54MOL0     H 7280   9.976   3.088   8.552  2.8126 -0.3148  0.7806
   54MOL0     H 7281   9.918   2.924   8.620  0.1919 -0.0714 -0.4749
   54MOL0     H 7282   9.773   3.112   8.665 -2.1692 -1.8113  1.5841
   54MOL0     H 7283   9.891   3.178   8.776 -1.3851  2.1317 -2.6738
   54MOL0     H 7284   9.894   2.980   8.901  2.4235 -0.9275 -2.5173
   54MOL0     H 7285   9.790   2.881   8.798  0.5254 -0.3310  2.4113
   54MOL0     H 7286   9.694   3.114   8.954 -1.4610 -1.3274  3.3753
   54MOL0     H 7287   9.686   2.939   8.991  1.8547  2.3417  2.8423
   54MOL0     H 7288   9.357   3.055   8.727 -0.4975 -2.6847  0.7325
   54MOL0     H 7289  10.306   2.913   8.817  1.4543  1.8098 -0.1384
   54MOL0     H 7290  10.475   2.773   8.716 -2.1815  0.2429  1.6090
   55MOL0     O 7291   4.794   2.883   4.855  1.0036  0.0945  0.7137
   55MOL0     C 7292   4.885   2.869   4.931  0.0552  0.4724  0.1685
   55MOL0     O 7293   4.942   2.968   5.002  0.0274 -0.2359  0.1133
   55MOL0     C 7294   4.862   3.075   5.047  0.2488  1.2948  1.1063
   55MOL0     C 7295   4.914   3.200   5.045  0.4479 -0.4079  0.2364
   55MOL0     C 7296   4.843   3.311   5.105 -0.3141  0.4250 -0.2082
   55MOL0     C 7297   4.734   3.294   5.191 -0.0617 -0.2268  1.4220
   55MOL0     O 7298   4.690   3.398   5.263  0.5532  0.8145 -0.4282
   55MOL0     C 7299   4.558   3.388   5.310 -0.2569  0.2201  0.2259
   55MOL0     C 7300   4.524   3.523   5.366 -0.2295 -0.0627 -0.3149
   55MOL0     C 7301   4.516   3.633   5.258 -0.1684 -0.6220  0.2129
   55MOL0     C 7302   4.505   3.776   5.314  0.2650 -0.2685 -0.1801
   55MOL0     C 7303   4.545   3.890   5.206 -0.1254  0.4531 -1.0142
   55MOL0     C 7304   4.477   3.866   5.074  1.5793  0.5822  0.8117
   55MOL0     C 7305   4.328   3.875   5.066  0.0776 -0.7973 -0.4474
   55MOL0     C 7306   4.262   4.015   5.093 -0.5593  0.5004 -0.3988
   55MOL0     N 7307   4.330   4.122   5.024 -0.9455 -0.0805  0.2115
   55MOL0     C 7308   4.333   4.153   4.893 -0.1704 -0.0457 -0.0134
   55MOL0     C 7309   4.412   4.261   4.882 -0.5093  0.9394  0.7716
   55MOL0     C 7310   4.444   4.323   4.743  0.1352  0.4027  0.4013
   55MOL0     C 7311   4.480   4.214   4.646 -0.2143  0.2826  0.3127
   55MOL0     C 7312   4.623   4.158   4.682  0.8848  0.4791  0.7549
   55MOL0     C 7313   4.664   4.056   4.570 -0.3692  0.1862 -0.6813
   55MOL0     O 7314   4.647   4.108   4.437  0.1631 -0.7745  0.3898
   55MOL0     C 7315   4.609   4.027   4.338  0.6021  0.5583  0.4173
   55MOL0     C 7316   4.652   3.892   4.335 -0.4770 -0.6408  0.1342
   55MOL0     C 7317   4.614   3.820   4.217  0.5679 -0.6686  0.1279
   55MOL0     C 7318   4.671   3.674   4.203 -0.7860 -0.0765  0.3110
   55MOL0     C 7319   4.528   3.869   4.112 -0.7190  0.5091 -0.2053
   55MOL0     C 7320   4.487   3.791   3.983 -0.3775  0.8191  0.3916
   55MOL0     O 7321   4.376   3.834   3.924 -0.1088  0.0677  0.6249
   55MOL0     C 7322   4.298   3.759   3.840  0.4269  0.8166 -0.2224
   55MOL0     C 7323   4.290   3.620   3.858 -0.0914  0.4382  0.7502
   55MOL0     C 7324   4.212   3.536   3.773  0.9273 -0.2647  0.7060
   55MOL0     C 7325   4.117   3.595   3.688  0.2978 -0.2561  0.1694
   55MOL0     O 7326   4.032   3.551   3.598  0.7171  0.1114  0.5158
   55MOL0     C 7327   4.041   3.415   3.545 -0.0912 -0.5388 -0.2470
   55MOL0     C 7328   3.907   3.366   3.490 -0.0697 -0.9544  0.3906
   55MOL0     C 7329   3.814   3.330   3.601 -0.4387 -0.3823 -0.5577
   55MOL0     C 7330   3.804   3.180   3.640 -0.3549  0.8773 -0.5975
   55MOL0     C 7331   3.693   3.158   3.739 -0.7122 -0.1033 -0.1019
   55MOL0     C 7332   3.716   3.017   3.808 -0.2029  0.0079  0.5545
   55MOL0     C 7333   3.610   2.979   3.914  0.0158  0.4334  0.6428
   55MOL0     C 7334   3.658   2.855   3.986  0.5597 -0.7412  0.0219
   55MOL0    Cl 7335   3.825   2.876   4.040  0.3742  0.0327 -0.2270
   55MOL0     C 7336   4.119   3.737   3.692  0.4561  0.1662  0.7162
   55MOL0     C 7337   4.207   3.815   3.764 -0.5441  0.9058 -0.0154
   55MOL0     O 7338   4.560   3.698   3.945 -0.5749  0.8755 -0.8694
   55MOL0     C 7339   4.485   3.997   4.137 -1.0065 -0.3290  0.3466
   55MOL0     C 7340   4.523   4.074   4.240 -0.8425  0.4913  0.6586
   55MOL0     N 7341   4.456   4.298   5.002  0.4908  0.1893 -0.2234
   55MOL0     N 7342   4.395   4.230   5.089 -0.1723  0.4856  0.3235
   55MOL0     C 7343   4.679   3.162   5.188  0.1878 -0.6245 -0.3718
   55MOL0     C 7344   4.744   3.048   5.121  0.2658 -0.7388 -0.4241
   55MOL0     C 7345   4.970   2.755   4.936  0.8546 -0.3522  0.3059
   55MOL0     C 7346   5.073   2.743   5.036  0.0389 -1.1646  1.4697
   55MOL0     C 7347   5.141   2.624   5.042  0.2313 -0.5169 -0.9819
   55MOL0     C 7348   5.134   2.524   4.949  1.1456 -0.4021 -0.2035
   55MOL0     O 7349   5.203   2.411   4.980  0.0994  0.7199 -0.6523
   55MOL0     C 7350   5.182   2.291   4.899  0.8161 -0.3052 -0.4784
   55MOL0     C 7351   5.298   2.193   4.913 -0.3313  0.3173 -0.0984
   55MOL0     C 7352   5.321   2.152   5.061 -0.6456 -0.3831  0.4270
   55MOL0     C 7353   5.396   2.020   5.057 -0.5571 -0.0321  0.4655
   55MOL0     C 7354   5.458   2.009   5.191  0.2089  0.5223 -0.7805
   55MOL0     C 7355   5.521   2.003   5.296  0.1204 -0.5409 -0.1015
   55MOL0     C 7356   5.039   2.541   4.850  0.1680  0.3343  0.0146
   55MOL0     C 7357   4.960   2.658   4.837 -0.1661  0.3473  0.3927
   55MOL0     H 7358   5.006   3.229   4.996  0.5737 -1.6145 -0.2587
   55MOL0     H 7359   4.896   3.406   5.109 -1.6657  1.1642  2.2857
   55MOL0     H 7360   4.479   3.358   5.241 -0.1325  0.6090 -0.0902
   55MOL0     H 7361   4.552   3.316   5.392  1.7996  1.9947  2.0601
   55MOL0     H 7362   4.432   3.521   5.425  0.6048 -0.2746  1.0259
   55MOL0     H 7363   4.602   3.546   5.439  3.0718 -3.6226 -2.3294
   55MOL0     H 7364   4.607   3.637   5.197 -1.5067 -0.4848 -1.8827
   55MOL0     H 7365   4.434   3.621   5.186  0.4675  1.7460 -1.0261
   55MOL0     H 7366   4.403   3.791   5.349 -0.0871 -1.7731 -0.4763
   55MOL0     H 7367   4.582   3.787   5.390  2.6430 -2.4903 -2.0614
   55MOL0     H 7368   4.511   3.991   5.233 -1.0436  0.5164 -2.2749
   55MOL0     H 7369   4.654   3.885   5.197  0.2695 -0.1206  2.5646
   55MOL0     H 7370   4.517   3.940   5.005 -3.4750  1.7248 -1.3277
   55MOL0     H 7371   4.497   3.763   5.042 -3.0141  0.2872 -1.9235
   55MOL0     H 7372   4.292   3.848   4.967 -3.3232 -0.8906  0.6716
   55MOL0     H 7373   4.279   3.804   5.133  1.4589 -1.4810 -0.1177
   55MOL0     H 7374   4.257   4.047   5.197 -0.2741  1.8609 -0.7735
   55MOL0     H 7375   4.163   4.009   5.047  0.0220  3.5433 -2.3867
   55MOL0     H 7376   4.288   4.087   4.819  0.7947  0.5680 -1.1791
   55MOL0     H 7377   4.352   4.376   4.718  1.4613  2.2529 -0.7366
   55MOL0     H 7378   4.523   4.398   4.753 -0.9690  1.4982  1.2571
   55MOL0     H 7379   4.479   4.269   4.551  1.3102  0.0526  0.1254
   55MOL0     H 7380   4.395   4.146   4.635 -2.4464  2.9622 -0.0759
   55MOL0     H 7381   4.626   4.102   4.776 -0.6658 -1.2151 -0.1542
   55MOL0     H 7382   4.696   4.240   4.683  0.5567  1.1307 -4.4630
   55MOL0     H 7383   4.614   3.961   4.593 -3.1283  0.8927 -3.1553
   55MOL0     H 7384   4.773   4.052   4.582 -0.4393 -1.0028 -0.3199
   55MOL0     H 7385   4.710   3.836   4.408 -1.0013 -0.2447  0.8715
   55MOL0     H 7386   4.759   3.674   4.138 -0.9886  2.8518 -0.1065
   55MOL0     H 7387   4.698   3.625   4.297 -0.4016 -0.8898 -0.2078
   55MOL0     H 7388   4.593   3.610   4.159 -0.9301 -0.3182  0.9094
   55MOL0     H 7389   4.344   3.573   3.939 -2.7527 -0.5887  2.0600
   55MOL0     H 7390   4.219   3.428   3.779 -0.6172 -0.4332  0.1749
   55MOL0     H 7391   4.118   3.401   3.469  0.1093 -2.8329  0.2924
   55MOL0     H 7392   4.076   3.350   3.626 -2.9477 -3.2940 -0.9975
   55MOL0     H 7393   3.865   3.455   3.442  1.8139  0.4753  1.2731
   55MOL0     H 7394   3.916   3.290   3.412 -2.5456  0.4615 -1.4097
   55MOL0     H 7395   3.721   3.374   3.562  0.1758 -1.0833 -2.9837
   55MOL0     H 7396   3.850   3.395   3.682  0.7944  1.0776 -2.1845
   55MOL0     H 7397   3.781   3.110   3.559 -4.0466  0.9803  0.2127
   55MOL0     H 7398   3.898   3.140   3.679 -2.3090 -2.0795  1.5408
   55MOL0     H 7399   3.602   3.163   3.678 -1.0172  4.5840  0.3661
   55MOL0     H 7400   3.697   3.239   3.812 -0.5924 -0.7977  0.6741
   55MOL0     H 7401   3.709   2.950   3.722 -1.9268  2.3678 -1.2531
   55MOL0     H 7402   3.818   3.014   3.847 -0.0278  0.3008  0.1293
   55MOL0     H 7403   3.522   2.948   3.856 -0.0673 -2.3651  2.0932
   55MOL0     H 7404   3.599   3.065   3.980  0.1098 -2.2249  4.4781
   55MOL0     H 7405   3.663   2.767   3.921  3.5734  0.3361 -1.3672
   55MOL0     H 7406   3.594   2.833   4.072  1.8196  0.5974  1.3389
   55MOL0     H 7407   4.039   3.786   3.637  2.0082 -1.7192 -3.6242
   55MOL0     H 7408   4.206   3.923   3.760 -0.0835  0.9749  1.2435
   55MOL0     H 7409   4.437   4.050   4.055  2.3953 -2.6650 -3.5146
   55MOL0     H 7410   4.484   4.175   4.244  0.0172  1.0036 -1.8947
   55MOL0     H 7411   4.600   3.154   5.262  0.3004  3.6189  0.4640
   55MOL0     H 7412   4.708   2.946   5.118  3.1692 -1.9379  1.4866
   55MOL0     H 7413   5.087   2.834   5.093 -1.8923  1.2046 -1.5207
   55MOL0     H 7414   5.211   2.619   5.125  0.8733  0.8371 -1.4141
   55MOL0     H 7415   5.089   2.253   4.944  2.0763  0.0115  2.6419
   55MOL0     H 7416   5.181   2.313   4.792  0.6630 -0.1081 -0.4361
   55MOL0     H 7417   5.389   2.239   4.871 -0.7926  1.3410  0.0038
   55MOL0     H 7418   5.265   2.104   4.858 -2.7200  1.1970 -0.1657
   55MOL0     H 7419   5.228   2.127   5.113  0.9688 -3.8124  1.9337
   55MOL0     H 7420   5.376   2.231   5.114 -0.5438 -0.0879 -0.1047
   55MOL0     H 7421   5.460   2.010   4.969  2.0858  0.4040  2.2210
   55MOL0     H 7422   5.328   1.935   5.061 -1.6237  0.5690 -2.6207
   55MOL0     H 7423   5.584   1.997   5.382  1.6675  0.9514 -1.0625
   55MOL0     H 7424   5.026   2.463   4.777 -0.5698  1.4556 -1.0874
   55MOL0     H 7425   4.891   2.666   4.753 -0.3694 -0.4744  0.4667
   56MOL0     O 7426   6.196   4.550   2.563  0.4453  0.1594 -0.0244
   56MOL0     C 7427   6.155   4.440   2.590 -0.1128 -0.3459  0.1617
   56MOL0     O 7428   6.180   4.325   2.523  0.3299  0.7228 -0.8923
   56MOL0     C 7429   6.242   4.345   2.409  0.5168 -0.1095  0.0977
   56MOL0     C 7430   6.378   4.345   2.396 -0.8186  0.5418 -0.1470
   56MOL0     C 7431   6.444   4.345   2.273  0.3643 -0.4866  0.3244
   56MOL0     C 7432   6.373   4.343   2.153 -0.2805  0.4112 -0.4743
   56MOL0     O 7433   6.452   4.333   2.037  0.8292 -1.0655  0.1723
   56MOL0     C 7434   6.412   4.273   1.916  0.6855 -0.6707 -0.0134
   56MOL0     C 7435   6.343   4.352   1.801  0.4723  0.3435 -0.6726
   56MOL0     C 7436   6.314   4.505   1.829  0.7462 -0.1209 -0.7252
   56MOL0     C 7437   6.212   4.578   1.728  0.1892 -0.7436  0.0776
   56MOL0     C 7438   6.189   4.720   1.774 -0.6409 -0.3694  0.6724
   56MOL0     C 7439   6.089   4.738   1.890  0.0047 -0.6479 -0.0651
   56MOL0     C 7440   6.089   4.883   1.945  0.2646  0.9066  0.6012
   56MOL0     C 7441   5.966   4.931   2.008 -0.5146  0.2300 -0.2402
   56MOL0     N 7442   5.955   4.907   2.155 -0.8682  0.4350 -0.4834
   56MOL0     C 7443   5.953   4.790   2.227  0.4404  0.8974 -0.5510
   56MOL0     C 7444   5.900   4.822   2.354 -0.4537  0.6588  0.0855
   56MOL0     C 7445   5.887   4.722   2.468  0.6554  0.0845 -0.5159
   56MOL0     C 7446   5.738   4.710   2.509 -0.5812  0.3284 -0.4735
   56MOL0     C 7447   5.663   4.637   2.402  0.0572  0.0663 -0.0204
   56MOL0     C 7448   5.513   4.673   2.392 -0.8267  0.6027  0.2300
   56MOL0     O 7449   5.466   4.635   2.259  0.0819  0.1612 -1.7602
   56MOL0     C 7450   5.479   4.729   2.166  0.1128  0.4657  0.2331
   56MOL0     C 7451   5.544   4.853   2.157  0.2255  0.2889  0.2243
   56MOL0     C 7452   5.547   4.918   2.026  0.7867 -0.1977 -0.6150
   56MOL0     C 7453   5.635   5.035   2.020 -0.0414  0.1804 -0.3765
   56MOL0     C 7454   5.475   4.869   1.919 -0.1150  1.1135  1.0515
   56MOL0     C 7455   5.464   4.939   1.785  0.4432  0.0339 -0.2581
   56MOL0     O 7456   5.554   5.032   1.750  0.2251 -0.6561  0.0359
   56MOL0     C 7457   5.577   5.052   1.609 -0.2477  0.5710 -1.1060
   56MOL0     C 7458   5.707   5.023   1.562  0.4825  0.6383  0.1404
   56MOL0     C 7459   5.737   5.037   1.426  0.0565 -0.2396 -0.1148
   56MOL0     C 7460   5.632   5.087   1.339 -0.5683  0.8220 -0.2779
   56MOL0     O 7461   5.666   5.118   1.209 -0.0229  0.4950 -0.5123
   56MOL0     C 7462   5.622   5.242   1.142 -0.3261 -0.5360  1.0660
   56MOL0     C 7463   5.718   5.262   1.023  1.3050 -0.1672  0.4219
   56MOL0     C 7464   5.708   5.135   0.940  0.2445  0.9317 -1.4032
   56MOL0     C 7465   5.713   5.171   0.791 -0.7914  0.7518  0.3301
   56MOL0     C 7466   5.660   5.062   0.695  0.0854 -0.1035  0.1566
   56MOL0     C 7467   5.680   5.096   0.545 -0.2935 -0.4179  0.7014
   56MOL0     C 7468   5.825   5.115   0.503 -0.3715  0.4270  0.5762
   56MOL0     C 7469   5.900   4.980   0.483 -0.1252  0.8758 -0.3733
   56MOL0    Cl 7470   6.063   5.008   0.439 -0.2191  0.1808 -0.4966
   56MOL0     C 7471   5.510   5.120   1.392 -0.1355 -0.2151  1.0810
   56MOL0     C 7472   5.482   5.101   1.528  0.3462  0.5280  0.4321
   56MOL0     O 7473   5.368   4.900   1.716  0.1713  0.1725  0.0573
   56MOL0     C 7474   5.409   4.745   1.929  0.6730 -0.2874 -0.2920
   56MOL0     C 7475   5.428   4.675   2.049 -0.2512  0.3878  0.0045
   56MOL0     N 7476   5.900   4.961   2.361  0.5914  0.7112 -0.2788
   56MOL0     N 7477   5.930   5.009   2.241  0.5550 -0.7279 -0.4305
   56MOL0     C 7478   6.232   4.356   2.165  0.0639  0.4664 -0.1400
   56MOL0     C 7479   6.172   4.345   2.292 -0.7548 -0.2716  0.2231
   56MOL0     C 7480   6.071   4.418   2.705  0.0622  0.5532  0.3155
   56MOL0     C 7481   6.050   4.285   2.754 -0.3838  0.0442 -0.3557
   56MOL0     C 7482   5.977   4.262   2.870  0.7949  0.0052 -0.9495
   56MOL0     C 7483   5.914   4.363   2.942 -0.6946  1.1514  0.3994
   56MOL0     O 7484   5.858   4.337   3.067  0.9651 -0.8254 -0.0488
   56MOL0     C 7485   5.871   4.223   3.152 -0.3092  0.8178  0.5266
   56MOL0     C 7486   5.838   4.256   3.305  0.8587  0.0686  0.6734
   56MOL0     C 7487   5.969   4.296   3.382 -0.7510  0.1252 -0.8974
   56MOL0     C 7488   5.933   4.405   3.489 -0.4477  0.2688  0.5093
   56MOL0     C 7489   6.023   4.404   3.603 -0.2956 -0.1096 -0.8789
   56MOL0     C 7490   6.116   4.405   3.691  0.5005  0.7631  0.7215
   56MOL0     C 7491   5.926   4.494   2.884  0.5100 -0.4397  0.1706
   56MOL0     C 7492   6.001   4.518   2.767  1.0152 -0.9888 -0.5660
   56MOL0     H 7493   6.440   4.341   2.485 -1.3255 -1.5387  0.1642
   56MOL0     H 7494   6.552   4.349   2.264  0.2922  1.1286 -0.1332
   56MOL0     H 7495   6.501   4.227   1.873 -0.8525 -2.7882 -1.1233
   56MOL0     H 7496   6.350   4.185   1.935  0.7107 -0.3603  1.6985
   56MOL0     H 7497   6.415   4.340   1.719  1.5164  1.5368  0.0329
   56MOL0     H 7498   6.243   4.315   1.775  0.3598 -0.4226  0.7524
   56MOL0     H 7499   6.278   4.512   1.932  0.1624 -1.5903 -0.8127
   56MOL0     H 7500   6.410   4.556   1.834  0.5862  0.5811 -3.1391
   56MOL0     H 7501   6.259   4.590   1.630  2.1488  1.2738  1.1731
   56MOL0     H 7502   6.113   4.532   1.718 -1.4085  2.3726  0.3827
   56MOL0     H 7503   6.281   4.776   1.794 -0.7871  0.1672 -0.1179
   56MOL0     H 7504   6.151   4.776   1.687  0.9259 -1.7220 -0.9351
   56MOL0     H 7505   5.989   4.703   1.860 -0.0995 -1.7563  1.4252
   56MOL0     H 7506   6.125   4.680   1.975 -0.8491  2.3688  2.5797
   56MOL0     H 7507   6.174   4.889   2.014  1.4802 -3.8694 -0.1210
   56MOL0     H 7508   6.110   4.959   1.869  1.6826  1.6868  1.7226
   56MOL0     H 7509   5.886   4.869   1.966  0.7046  0.2539 -2.7575
   56MOL0     H 7510   5.950   5.038   1.992  2.6399  1.4095  3.1948
   56MOL0     H 7511   5.982   4.688   2.200  0.6989  0.5304  1.0169
   56MOL0     H 7512   5.908   4.618   2.441 -3.9631 -0.9250 -1.1427
   56MOL0     H 7513   5.933   4.752   2.562 -1.9001  0.7006  0.6281
   56MOL0     H 7514   5.706   4.811   2.534  1.2274  0.3860  1.9878
   56MOL0     H 7515   5.729   4.645   2.597  0.1013 -0.2648 -0.8353
   56MOL0     H 7516   5.672   4.528   2.409 -2.0176 -0.4796 -3.3153
   56MOL0     H 7517   5.709   4.641   2.303 -0.2204 -2.1433 -0.2821
   56MOL0     H 7518   5.502   4.780   2.413  0.8103  1.4999 -2.8773
   56MOL0     H 7519   5.457   4.621   2.470  1.0840 -0.6467  0.8304
   56MOL0     H 7520   5.599   4.894   2.241  1.0668 -0.6649  0.1556
   56MOL0     H 7521   5.567   5.121   2.019  1.4155  1.4209 -2.7713
   56MOL0     H 7522   5.693   5.045   2.113 -0.7995  2.7880 -0.0914
   56MOL0     H 7523   5.695   5.044   1.929 -1.5191  1.8303 -1.2478
   56MOL0     H 7524   5.786   4.976   1.620  0.0288 -1.3654 -0.7971
   56MOL0     H 7525   5.831   5.018   1.376  0.2138  0.6620 -0.1761
   56MOL0     H 7526   5.519   5.241   1.103  0.3695 -0.6703 -0.8981
   56MOL0     H 7527   5.639   5.326   1.209 -2.0518 -1.1648  2.3560
   56MOL0     H 7528   5.714   5.358   0.970  3.3293  0.4005  1.1851
   56MOL0     H 7529   5.818   5.252   1.067  0.9305 -1.2480  1.0582
   56MOL0     H 7530   5.605   5.100   0.954  0.7971 -0.8952 -1.6468
   56MOL0     H 7531   5.781   5.057   0.965  0.0208  0.8441 -0.9964
   56MOL0     H 7532   5.656   5.265   0.781 -0.4444  0.7322 -2.7594
   56MOL0     H 7533   5.820   5.186   0.776  0.4484 -4.4509  1.8455
   56MOL0     H 7534   5.553   5.042   0.701  0.1859 -1.0438 -0.8095
   56MOL0     H 7535   5.716   4.974   0.728 -1.0681 -1.1518 -0.6092
   56MOL0     H 7536   5.630   5.020   0.485  1.6407 -1.2327  0.0325
   56MOL0     H 7537   5.626   5.189   0.524  3.4705  1.2558 -3.0956
   56MOL0     H 7538   5.882   5.181   0.568  0.4380  1.2471 -0.8957
   56MOL0     H 7539   5.825   5.155   0.401  2.3558 -5.7118 -2.2945
   56MOL0     H 7540   5.854   4.914   0.410 -1.6685 -0.5630  1.7665
   56MOL0     H 7541   5.897   4.933   0.582 -1.4648 -1.3769 -1.4055
   56MOL0     H 7542   5.440   5.173   1.329 -0.0969  1.7968  2.6394
   56MOL0     H 7543   5.387   5.137   1.567  0.4373  0.0710  1.0868
   56MOL0     H 7544   5.354   4.707   1.843 -1.6039 -1.8348  1.6984
   56MOL0     H 7545   5.392   4.574   2.067  0.8753  0.1566  1.1411
   56MOL0     H 7546   6.165   4.363   2.080  0.9866  2.2402 -0.7761
   56MOL0     H 7547   6.065   4.336   2.303 -1.3860  0.7998 -3.6461
   56MOL0     H 7548   6.111   4.198   2.734 -4.0717 -3.1491  1.1108
   56MOL0     H 7549   5.979   4.161   2.910  2.5687  0.3645 -0.0063
   56MOL0     H 7550   5.802   4.141   3.128  0.6689 -0.0785  0.7056
   56MOL0     H 7551   5.966   4.170   3.138 -1.6864 -0.8978 -3.8767
   56MOL0     H 7552   5.805   4.159   3.344 -0.9121 -0.8661 -2.7566
   56MOL0     H 7553   5.761   4.332   3.317  1.1368  0.0157  3.3299
   56MOL0     H 7554   6.039   4.345   3.315  1.9050 -1.3489  0.6407
   56MOL0     H 7555   6.016   4.205   3.420 -1.1097  1.1031  2.1277
   56MOL0     H 7556   5.833   4.386   3.529 -0.4311 -3.6845 -0.8842
   56MOL0     H 7557   5.938   4.505   3.447 -1.0576 -1.7300 -5.2587
   56MOL0     H 7558   6.199   4.415   3.758  0.1306  0.1505  1.2884
   56MOL0     H 7559   5.874   4.572   2.937 -0.5452  0.2469 -1.7596
   56MOL0     H 7560   6.000   4.621   2.736  1.1700  0.2305  2.9764
   57MOL0     O 7561   2.078   2.975   9.773 -0.5626  0.4695 -0.5477
   57MOL0     C 7562   1.980   3.027   9.712 -0.1873  0.2148  0.5052
   57MOL0     O 7563   1.930   3.154   9.724  0.8249  0.0748  0.3032
   57MOL0     C 7564   2.020   3.249   9.759  0.1631  0.3698  0.2378
   57MOL0     C 7565   2.043   3.263   9.887  0.7070 -0.0745  0.1966
   57MOL0     C 7566   2.144   3.349   9.926 -0.7361  0.5171  0.7473
   57MOL0     C 7567   2.224   3.418   9.825 -0.6437 -0.0821 -0.1577
   57MOL0     O 7568   2.329   3.497   9.863  0.2653  0.2817  0.4132
   57MOL0     C 7569   2.373   3.608   9.783 -0.2072 -0.5880 -0.3384
   57MOL0     C 7570   2.270   3.723   9.790 -0.1881 -0.2644  0.0612
   57MOL0     C 7571   2.322   3.855   9.815 -0.3500 -0.1753  1.1930
   57MOL0     C 7572   2.201   3.948   9.850  0.0309 -0.1731  0.1176
   57MOL0     C 7573   2.241   4.078   9.926 -0.4547  0.1206 -0.8629
   57MOL0     C 7574   2.300   4.186   9.830  0.4947 -0.4329 -0.1386
   57MOL0     C 7575   2.210   4.243   9.725 -0.5502 -0.6096  0.2402
   57MOL0     C 7576   2.276   4.361   9.651 -0.4543  0.2547  0.1144
   57MOL0     N 7577   2.404   4.325   9.577  0.3639  0.4100  0.4998
   57MOL0     C 7578   2.536   4.328   9.618  0.2180  0.2769  0.2140
   57MOL0     C 7579   2.598   4.264   9.519 -0.2105 -0.0292  0.7853
   57MOL0     C 7580   2.745   4.217   9.522  0.0969 -0.0470 -0.4745
   57MOL0     C 7581   2.808   4.180   9.391  0.6193 -0.6860 -0.1306
   57MOL0     C 7582   2.775   4.039   9.339  0.7789 -0.3459  0.4338
   57MOL0     C 7583   2.900   3.965   9.290 -0.0479 -0.0386 -0.1231
   57MOL0     O 7584   2.988   3.916   9.385  0.3660  0.5918  0.3483
   57MOL0     C 7585   3.071   3.811   9.337  0.5889 -0.6989 -0.8062
   57MOL0     C 7586   3.088   3.687   9.398 -0.4245 -0.3884 -0.7214
   57MOL0     C 7587   3.190   3.602   9.356 -1.2528  0.0558  0.5155
   57MOL0     C 7588   3.217   3.476   9.432  0.2219 -0.1724  0.1440
   57MOL0     C 7589   3.270   3.632   9.244 -0.3935 -0.4299  1.3608
   57MOL0     C 7590   3.386   3.556   9.193  0.4057 -0.8732 -0.8552
   57MOL0     O 7591   3.386   3.532   9.063 -1.0819 -0.1798 -0.7641
   57MOL0     C 7592   3.509   3.514   8.999 -0.1066  0.7572  0.3508
   57MOL0     C 7593   3.627   3.586   9.023  0.1058  0.3095  0.8574
   57MOL0     C 7594   3.741   3.566   8.945 -0.5939 -0.1762  0.5709
   57MOL0     C 7595   3.735   3.478   8.827  0.3615  0.6539  0.4761
   57MOL0     O 7596   3.841   3.467   8.737 -0.5976  0.5778 -0.0699
   57MOL0     C 7597   3.867   3.581   8.646  0.5787  0.4616  1.0072
   57MOL0     C 7598   4.003   3.568   8.574 -1.3056 -0.6077  1.0095
   57MOL0     C 7599   4.046   3.681   8.474  1.3901  0.2346  0.0043
   57MOL0     C 7600   4.188   3.740   8.501 -0.0762 -0.0411 -0.2211
   57MOL0     C 7601   4.245   3.798   8.375 -1.0875 -0.4988  0.3723
   57MOL0     C 7602   4.377   3.892   8.395  0.4997  0.2746  0.0634
   57MOL0     C 7603   4.487   3.833   8.487  0.5464 -1.0559 -0.8550
   57MOL0     C 7604   4.617   3.910   8.451 -1.1851 -0.6184 -1.4357
   57MOL0    Cl 7605   4.606   4.068   8.529  0.0139  0.2393 -0.1319
   57MOL0     C 7606   3.621   3.402   8.806  0.2910 -0.1109 -0.6274
   57MOL0     C 7607   3.511   3.426   8.892 -0.0616  0.3727 -0.0682
   57MOL0     O 7608   3.468   3.521   9.276  0.5958 -0.4030  0.2585
   57MOL0     C 7609   3.240   3.749   9.167  0.5166  0.5518 -0.5057
   57MOL0     C 7610   3.147   3.845   9.220 -0.1580  1.1322 -0.2489
   57MOL0     N 7611   2.513   4.230   9.412  0.1645 -0.3129 -0.1576
   57MOL0     N 7612   2.401   4.267   9.449  0.1517 -0.4055  0.2028
   57MOL0     C 7613   2.199   3.389   9.688 -1.1718 -1.0445 -0.3144
   57MOL0     C 7614   2.104   3.302   9.659  1.1657  0.2269  0.6324
   57MOL0     C 7615   1.909   2.941   9.604  0.4909 -0.5277  0.4672
   57MOL0     C 7616   1.796   2.984   9.530 -0.6224 -0.2219  0.8510
   57MOL0     C 7617   1.725   2.907   9.435 -0.4477  0.1714  0.4382
   57MOL0     C 7618   1.765   2.778   9.407 -0.6363  1.5607 -0.9021
   57MOL0     O 7619   1.693   2.709   9.311 -0.0699 -0.0732  0.8498
   57MOL0     C 7620   1.717   2.760   9.174 -0.0596  0.4747 -0.1973
   57MOL0     C 7621   1.633   2.684   9.086 -1.1808  0.9088 -0.1509
   57MOL0     C 7622   1.678   2.530   9.077  0.0525 -0.7957  0.2587
   57MOL0     C 7623   1.603   2.452   8.973  0.0862  0.5719 -0.3301
   57MOL0     C 7624   1.628   2.309   8.998  0.2578  0.4435  0.0914
   57MOL0     C 7625   1.642   2.191   9.026 -0.3050 -0.0366 -0.2907
   57MOL0     C 7626   1.884   2.721   9.474  0.3146  0.3915  0.4048
   57MOL0     C 7627   1.947   2.810   9.567  0.3967  0.0323 -0.2225
   57MOL0     H 7628   1.989   3.190   9.947  2.7192 -1.3505  0.5248
   57MOL0     H 7629   2.174   3.360  10.030 -0.3845  0.9602  0.6062
   57MOL0     H 7630   2.472   3.639   9.817  0.8056 -2.7903 -1.0787
   57MOL0     H 7631   2.380   3.578   9.678 -0.3043 -1.4003 -0.1178
   57MOL0     H 7632   2.217   3.722   9.695 -1.0401 -2.7198  0.4917
   57MOL0     H 7633   2.195   3.698   9.865  0.7096 -0.6171  0.8554
   57MOL0     H 7634   2.399   3.848   9.893 -1.6082  0.8114  2.5933
   57MOL0     H 7635   2.365   3.893   9.722 -1.0016 -3.0243 -0.3689
   57MOL0     H 7636   2.139   3.975   9.764  0.4670  2.0282  0.4291
   57MOL0     H 7637   2.136   3.890   9.916  1.4564 -3.1203 -0.9006
   57MOL0     H 7638   2.145   4.120   9.957 -0.2524 -1.0431  1.6051
   57MOL0     H 7639   2.305   4.052  10.010 -1.6774 -0.5820 -0.1177
   57MOL0     H 7640   2.344   4.261   9.897  0.6335 -1.1066  0.5300
   57MOL0     H 7641   2.393   4.146   9.787  2.1965  1.5890  1.4485
   57MOL0     H 7642   2.185   4.165   9.653  2.3739 -1.2952 -0.1553
   57MOL0     H 7643   2.116   4.282   9.766  0.5663  3.9582 -0.9193
   57MOL0     H 7644   2.286   4.450   9.714 -0.3542  1.3784 -1.4255
   57MOL0     H 7645   2.198   4.393   9.581 -0.9613 -3.2806 -1.1649
   57MOL0     H 7646   2.584   4.357   9.711  3.0995 -0.6706 -0.8489
   57MOL0     H 7647   2.800   4.297   9.571 -1.0721 -0.5783  1.8463
   57MOL0     H 7648   2.755   4.135   9.593  1.7582 -0.6918 -1.3881
   57MOL0     H 7649   2.913   4.207   9.407 -0.0543  2.7833 -0.8669
   57MOL0     H 7650   2.775   4.257   9.321  1.6767  1.1733  1.3042
   57MOL0     H 7651   2.722   4.057   9.245  3.7222  0.0363 -1.2804
   57MOL0     H 7652   2.725   3.978   9.414  0.7978 -1.7318 -0.6454
   57MOL0     H 7653   2.948   4.037   9.223 -1.5977  0.7037 -0.4923
   57MOL0     H 7654   2.868   3.878   9.231 -0.7731 -0.8955  1.4731
   57MOL0     H 7655   3.029   3.661   9.485  1.5724 -3.7642 -0.2416
   57MOL0     H 7656   3.312   3.478   9.487  1.0001  0.5629 -1.1958
   57MOL0     H 7657   3.142   3.451   9.509 -1.6237  0.0670 -1.4905
   57MOL0     H 7658   3.224   3.392   9.362  0.6236 -0.3324  0.3706
   57MOL0     H 7659   3.629   3.652   9.110 -3.7537  0.1809  1.2211
   57MOL0     H 7660   3.826   3.625   8.977  0.6432  0.1960 -2.9406
   57MOL0     H 7661   3.787   3.572   8.572 -0.2533  2.2020  1.6341
   57MOL0     H 7662   3.852   3.682   8.684 -3.0844  1.5703 -2.6164
   57MOL0     H 7663   4.072   3.581   8.658  0.3984 -1.9889 -0.1030
   57MOL0     H 7664   4.024   3.473   8.524 -0.5578 -0.3211  0.7651
   57MOL0     H 7665   3.977   3.766   8.478 -1.4321 -1.9577  0.1789
   57MOL0     H 7666   4.049   3.644   8.371  0.4316  2.7296 -1.0086
   57MOL0     H 7667   4.208   3.806   8.586 -0.5336 -3.1061  2.4726
   57MOL0     H 7668   4.246   3.653   8.534  2.8402  1.2513 -1.5146
   57MOL0     H 7669   4.171   3.861   8.327 -0.9344  1.1515  2.1815
   57MOL0     H 7670   4.273   3.716   8.308  1.4467  0.7845 -0.2816
   57MOL0     H 7671   4.425   3.918   8.300  1.8401 -0.0284  0.6222
   57MOL0     H 7672   4.352   3.985   8.447  4.3021  2.8490 -2.2373
   57MOL0     H 7673   4.494   3.727   8.460  1.9467 -2.9282  5.4274
   57MOL0     H 7674   4.458   3.835   8.592 -0.3374  0.7103 -1.0934
   57MOL0     H 7675   4.637   3.914   8.344  1.3158 -0.2387 -1.0153
   57MOL0     H 7676   4.701   3.867   8.507 -0.7699  1.4154 -0.3963
   57MOL0     H 7677   3.609   3.328   8.728  0.0280 -1.4999  0.6994
   57MOL0     H 7678   3.429   3.355   8.887 -0.2477  0.4665  1.1826
   57MOL0     H 7679   3.296   3.765   9.075  2.2805 -0.3213  0.3715
   57MOL0     H 7680   3.135   3.934   9.158  0.2579  1.6307  0.3697
   57MOL0     H 7681   2.247   3.446   9.609 -1.3354 -1.7648 -0.9515
   57MOL0     H 7682   2.071   3.268   9.562 -0.9715 -0.3876  1.5023
   57MOL0     H 7683   1.769   3.088   9.544  0.2980  0.1062  0.3119
   57MOL0     H 7684   1.638   2.955   9.391  1.2797  3.6970  0.4975
   57MOL0     H 7685   1.698   2.867   9.163 -2.4301  0.0727 -0.5035
   57MOL0     H 7686   1.819   2.734   9.146  0.0109 -3.7587  2.8575
   57MOL0     H 7687   1.640   2.733   8.989 -3.0417  1.2956 -0.1388
   57MOL0     H 7688   1.533   2.702   9.127 -0.8085  2.2149  0.2456
   57MOL0     H 7689   1.649   2.483   9.171 -3.5569 -0.8662 -0.7266
   57MOL0     H 7690   1.784   2.516   9.057 -0.2843 -0.2991 -2.2790
   57MOL0     H 7691   1.637   2.492   8.878 -0.4738  2.1280  0.0965
   57MOL0     H 7692   1.495   2.459   8.984 -0.1180  0.4539 -2.0692
   57MOL0     H 7693   1.655   2.085   9.030  0.5098  0.0109 -1.1356
   57MOL0     H 7694   1.919   2.618   9.463 -1.4412 -0.2671  0.7146
   57MOL0     H 7695   2.036   2.768   9.610  0.0527 -1.6385 -1.0566
   58MOL0     O 7696   0.402   0.562   8.283  0.3652 -0.5039 -0.1448
   58MOL0     C 7697   0.413   0.493   8.384 -0.0167  0.2701 -0.4343
   58MOL0     O 7698   0.330   0.388   8.415  0.2481  0.2018 -0.0168
   58MOL0     C 7699   0.245   0.356   8.317 -0.4138 -0.1002  0.0751
   58MOL0     C 7700   0.105   0.366   8.352  0.7741  0.9266  0.1746
   58MOL0     C 7701   0.011   0.323   8.258 -0.1985  0.9974  1.0084
   58MOL0     C 7702   0.049   0.277   8.133 -0.4639 -0.1216 -0.2839
   58MOL0     O 7703  -0.048   0.242   8.044  0.8820  0.4812  1.0762
   58MOL0     C 7704  -0.153   0.329   8.002 -0.4478 -0.0743  0.5982
   58MOL0     C 7705  -0.126   0.347   7.846  0.2150 -0.5856 -0.8718
   58MOL0     C 7706  -0.235   0.349   7.743  0.1868  0.8616 -0.2087
   58MOL0     C 7707  -0.183   0.400   7.616 -0.2786  0.0562  0.2464
   58MOL0     C 7708  -0.282   0.428   7.509  0.7782  0.2999 -0.3352
   58MOL0     C 7709  -0.350   0.567   7.520 -0.4293 -0.3520 -0.6352
   58MOL0     C 7710  -0.438   0.580   7.392  0.5268  0.4984  0.1990
   58MOL0     C 7711  -0.582   0.542   7.415 -0.8351  0.3671  0.8771
   58MOL0     N 7712  -0.604   0.402   7.468 -0.6564 -0.0247 -0.1649
   58MOL0     C 7713  -0.601   0.285   7.390  0.7354  0.7056 -0.1741
   58MOL0     C 7714  -0.620   0.182   7.482  1.0311 -0.4862 -0.5338
   58MOL0     C 7715  -0.646   0.028   7.464  0.3494 -0.4269 -0.1497
   58MOL0     C 7716  -0.784  -0.002   7.396  0.1563  0.1499 -0.2687
   58MOL0     C 7717  -0.890   0.094   7.451 -0.7240  0.4502  0.0785
   58MOL0     C 7718  -1.025   0.048   7.396  0.2013  1.3189  0.8294
   58MOL0     O 7719  -1.025   0.045   7.254  0.0776  0.2254 -0.0570
   58MOL0     C 7720  -1.137  -0.019   7.190 -0.8830  0.9766  0.9177
   58MOL0     C 7721  -1.118  -0.045   7.053 -0.1493  0.6606 -0.1631
   58MOL0     C 7722  -1.213  -0.112   6.976  0.4674  0.6066 -0.2508
   58MOL0     C 7723  -1.183  -0.135   6.831  1.0962 -0.2945 -0.4760
   58MOL0     C 7724  -1.342  -0.134   7.036  0.1151  0.9055  1.0142
   58MOL0     C 7725  -1.461  -0.202   6.956  0.3095 -0.4212  0.2850
   58MOL0     O 7726  -1.585  -0.188   7.020 -0.3963  0.1429 -0.8603
   58MOL0     C 7727  -1.690  -0.255   6.962  0.2354  0.5857  0.2564
   58MOL0     C 7728  -1.778  -0.190   6.873  1.5523 -0.4673  0.1157
   58MOL0     C 7729  -1.871  -0.266   6.800  0.5125 -0.4527 -0.6230
   58MOL0     C 7730  -1.891  -0.407   6.823  0.3813 -0.2354  0.7978
   58MOL0     O 7731  -2.006  -0.462   6.760 -0.5213 -0.7681 -0.3635
   58MOL0     C 7732  -1.985  -0.483   6.616 -0.1767 -0.3903 -0.3340
   58MOL0     C 7733  -2.093  -0.420   6.519 -0.4058  0.0075 -0.1180
   58MOL0     C 7734  -2.064  -0.450   6.370 -0.1059 -0.1831 -0.6352
   58MOL0     C 7735  -2.173  -0.402   6.274 -0.6613 -0.2417 -0.4052
   58MOL0     C 7736  -2.111  -0.300   6.174 -0.3882  0.0175 -0.2757
   58MOL0     C 7737  -2.219  -0.264   6.074 -0.1841  0.4652  1.2086
   58MOL0     C 7738  -2.195  -0.141   5.984 -0.1853 -0.7433  0.7819
   58MOL0     C 7739  -2.084  -0.162   5.893  0.1473  0.8277  1.1531
   58MOL0    Cl 7740  -2.049  -0.028   5.783 -0.3848  0.1178 -0.2389
   58MOL0     C 7741  -1.814  -0.477   6.917 -0.4991  0.1422 -1.1876
   58MOL0     C 7742  -1.708  -0.398   6.986  1.2279 -0.5961  0.1439
   58MOL0     O 7743  -1.442  -0.254   6.855 -0.8581  0.1927  0.9263
   58MOL0     C 7744  -1.352  -0.133   7.176 -0.2010 -0.8855  1.2831
   58MOL0     C 7745  -1.256  -0.067   7.257  0.4282  0.3800  0.6010
   58MOL0     N 7746  -0.640   0.239   7.609 -0.3115 -0.1991 -0.0897
   58MOL0     N 7747  -0.622   0.369   7.601 -0.6294  0.1001 -0.1039
   58MOL0     C 7748   0.184   0.268   8.102 -0.5437 -0.1372 -1.0417
   58MOL0     C 7749   0.289   0.307   8.192  0.5133  1.0153  0.5854
   58MOL0     C 7750   0.504   0.536   8.502  0.2417  0.0118 -0.1424
   58MOL0     C 7751   0.620   0.602   8.479 -0.0803 -0.3035  0.1389
   58MOL0     C 7752   0.698   0.652   8.583  0.0798  0.1432  0.2101
   58MOL0     C 7753   0.655   0.628   8.715  0.0598  0.2113  0.5374
   58MOL0     O 7754   0.720   0.671   8.824  0.4527 -0.3397  0.5822
   58MOL0     C 7755   0.841   0.750   8.812 -0.8813 -0.1799 -0.0883
   58MOL0     C 7756   0.968   0.653   8.815 -0.1109 -2.0085  0.1534
   58MOL0     C 7757   0.994   0.617   8.963  0.5544 -0.1942  0.2993
   58MOL0     C 7758   1.098   0.499   8.956  1.1363  0.7914  0.2723
   58MOL0     C 7759   1.172   0.507   9.079 -0.6264  0.4595  0.2833
   58MOL0     C 7760   1.243   0.499   9.175  1.0474  0.5115  0.5069
   58MOL0     C 7761   0.532   0.558   8.742 -0.3066 -0.1075  0.4256
   58MOL0     C 7762   0.462   0.517   8.632  0.0628  1.2474 -0.9526
   58MOL0     H 7763   0.076   0.410   8.446  4.1368 -1.1623  2.3984
   58MOL0     H 7764  -0.093   0.319   8.290 -0.9021 -0.1065 -1.2319
   58MOL0     H 7765  -0.250   0.280   8.017 -0.4806  0.1900  1.2568
   58MOL0     H 7766  -0.161   0.422   8.058 -0.6258  0.4440 -0.2722
   58MOL0     H 7767  -0.082   0.446   7.829 -0.7723 -0.2579 -1.5972
   58MOL0     H 7768  -0.050   0.279   7.806  0.9522 -0.9521  1.0697
   58MOL0     H 7769  -0.290   0.255   7.754 -0.6944  1.6092  2.7993
   58MOL0     H 7770  -0.312   0.423   7.765 -1.6004 -1.1279  0.6742
   58MOL0     H 7771  -0.124   0.491   7.632 -1.1248  0.6061  0.2932
   58MOL0     H 7772  -0.112   0.327   7.575  0.1555  0.9254 -0.5968
   58MOL0     H 7773  -0.226   0.424   7.416  2.8552  0.9472  0.8354
   58MOL0     H 7774  -0.358   0.349   7.520  2.0539 -0.6058  5.2850
   58MOL0     H 7775  -0.415   0.572   7.608 -0.7136 -0.8443 -0.8098
   58MOL0     H 7776  -0.271   0.641   7.535  1.7172 -2.8796  1.7432
   58MOL0     H 7777  -0.437   0.687   7.369  0.3557  0.4960  0.1804
   58MOL0     H 7778  -0.398   0.524   7.307 -2.2835 -1.4699  0.0612
   58MOL0     H 7779  -0.621   0.539   7.312  0.3356  0.5738  0.4112
   58MOL0     H 7780  -0.651   0.606   7.471 -2.2639 -0.0434 -0.3115
   58MOL0     H 7781  -0.577   0.284   7.284 -2.3808 -0.3146 -0.9932
   58MOL0     H 7782  -0.565  -0.016   7.406 -0.3885  0.6450 -2.1142
   58MOL0     H 7783  -0.652  -0.012   7.565  1.7574  1.7121  0.8580
   58MOL0     H 7784  -0.817  -0.105   7.411 -1.6522  0.4089 -2.1041
   58MOL0     H 7785  -0.784   0.013   7.288  0.6826 -2.1936 -0.6251
   58MOL0     H 7786  -0.869   0.194   7.412 -3.7261  1.3022  0.3243
   58MOL0     H 7787  -0.901   0.079   7.558 -0.2382  3.9962  0.7272
   58MOL0     H 7788  -1.110   0.110   7.426 -0.7496  1.6606 -2.2643
   58MOL0     H 7789  -1.047  -0.057   7.419  1.4970  0.4898 -1.4600
   58MOL0     H 7790  -1.024  -0.016   7.008  0.9448 -3.2657 -0.8627
   58MOL0     H 7791  -1.268  -0.091   6.778  1.6294  0.9851 -0.2883
   58MOL0     H 7792  -1.093  -0.089   6.788  1.6504  0.7679  1.6621
   58MOL0     H 7793  -1.191  -0.243   6.815 -1.3922 -0.7609  2.9651
   58MOL0     H 7794  -1.766  -0.088   6.837  3.1435 -0.2345  1.2451
   58MOL0     H 7795  -1.925  -0.228   6.714  0.4438  0.1099 -0.3381
   58MOL0     H 7796  -1.886  -0.451   6.583 -0.3715  4.6487  2.9089
   58MOL0     H 7797  -2.004  -0.590   6.604 -2.9131 -0.2191  1.5023
   58MOL0     H 7798  -2.190  -0.458   6.551  0.6106  0.6112  4.3278
   58MOL0     H 7799  -2.094  -0.312   6.536 -3.2398  0.5888 -2.8758
   58MOL0     H 7800  -2.045  -0.557   6.361 -2.6676 -0.6463 -1.4208
   58MOL0     H 7801  -1.972  -0.393   6.351 -0.8592  0.7541 -1.5701
   58MOL0     H 7802  -2.214  -0.486   6.218 -1.3764 -0.0940 -0.1046
   58MOL0     H 7803  -2.261  -0.364   6.327  0.1806  1.3818 -0.0940
   58MOL0     H 7804  -2.021  -0.344   6.128  0.2198  1.3753 -0.4378
   58MOL0     H 7805  -2.067  -0.214   6.226  3.2126  0.2666 -3.2432
   58MOL0     H 7806  -2.248  -0.355   6.021  2.1115  0.4298 -0.1296
   58MOL0     H 7807  -2.309  -0.228   6.125 -0.7492  1.3908 -0.3592
   58MOL0     H 7808  -2.185  -0.050   6.043  1.4843 -1.5105  1.7360
   58MOL0     H 7809  -2.289  -0.130   5.929  1.1086 -0.4811 -1.5103
   58MOL0     H 7810  -2.112  -0.239   5.821  2.7251  0.1891  0.7404
   58MOL0     H 7811  -1.993  -0.207   5.933  1.0438  1.3967 -0.1460
   58MOL0     H 7812  -1.851  -0.577   6.938  0.1149  0.3823  1.3805
   58MOL0     H 7813  -1.645  -0.451   7.057 -1.2916  0.6493  3.5574
   58MOL0     H 7814  -1.447  -0.135   7.228 -1.9761  0.4056 -1.6397
   58MOL0     H 7815  -1.264  -0.049   7.363 -0.6320  1.2719  0.3953
   58MOL0     H 7816   0.226   0.216   8.017 -1.2355 -0.9178 -0.9099
   58MOL0     H 7817   0.394   0.295   8.171  0.2454  0.1750 -0.3482
   58MOL0     H 7818   0.649   0.619   8.376  1.6390  0.0559  0.6519
   58MOL0     H 7819   0.786   0.706   8.549 -0.3922  1.6673  1.2931
   58MOL0     H 7820   0.843   0.803   8.717  3.3313  0.8692  0.3919
   58MOL0     H 7821   0.855   0.824   8.891  0.6453  0.2335 -0.6994
   58MOL0     H 7822   1.058   0.699   8.771  0.6914 -0.5520  3.0699
   58MOL0     H 7823   0.939   0.563   8.760 -0.5071 -2.7033  1.4467
   58MOL0     H 7824   0.903   0.577   9.008  1.1530 -0.7436  1.0628
   58MOL0     H 7825   1.028   0.705   9.019 -1.6945  0.5788  0.5547
   58MOL0     H 7826   1.167   0.505   8.871  0.4926 -0.5619 -0.3841
   58MOL0     H 7827   1.037   0.409   8.937  2.6877 -0.3283  0.4278
   58MOL0     H 7828   1.291   0.476   9.267  1.0749 -2.0418 -0.0685
   58MOL0     H 7829   0.489   0.536   8.839 -0.2933  0.0939  0.4774
   58MOL0     H 7830   0.370   0.462   8.643 -0.4180  1.0682 -4.6823
   59MOL0     O 7831   0.365   9.902   5.317  0.5687 -0.5833 -0.3951
   59MOL0     C 7832   0.438   9.809   5.299 -0.1357 -0.2118 -0.3620
   59MOL0     O 7833   0.574   9.826   5.301  0.0942 -0.3052  0.9569
   59MOL0     C 7834   0.620   9.949   5.348 -0.1738 -0.9233 -0.8986
   59MOL0     C 7835   0.720  10.006   5.281 -0.9146  0.1815  0.3954
   59MOL0     C 7836   0.774  10.118   5.332 -0.0057 -0.4776  1.4579
   59MOL0     C 7837   0.729  10.181   5.452  0.7760 -0.1073  0.5977
   59MOL0     O 7838   0.771  10.300   5.505  0.2284  0.1476 -0.3934
   59MOL0     C 7839   0.774  10.405   5.416  0.2235 -0.3021  0.2172
   59MOL0     C 7840   0.852  10.522   5.480 -0.8653  0.4516 -0.7477
   59MOL0     C 7841   0.815  10.650   5.405  0.3520  0.4450  0.4368
   59MOL0     C 7842   0.908  10.766   5.436 -0.5741  0.2855  0.4085
   59MOL0     C 7843   0.892  10.818   5.582  0.6004  0.2411  0.1813
   59MOL0     C 7844   0.979  10.943   5.601 -0.6996 -0.6334 -1.1059
   59MOL0     C 7845   0.964  11.033   5.724 -0.1082 -0.0883  0.3448
   59MOL0     C 7846   0.993  10.971   5.863 -0.6609 -1.1261 -0.9959
   59MOL0     N 7847   1.132  10.932   5.873  0.1596  0.6710  0.2175
   59MOL0     C 7848   1.235  11.003   5.860 -0.6909 -0.3387  0.2119
   59MOL0     C 7849   1.344  10.941   5.916  1.1592  0.2898 -0.5291
   59MOL0     C 7850   1.485  10.979   5.905 -0.2605 -0.3699  0.5880
   59MOL0     C 7851   1.557  10.928   5.773 -0.2546 -0.3075 -0.8846
   59MOL0     C 7852   1.675  11.022   5.726 -0.4262  0.5704 -0.2681
   59MOL0     C 7853   1.800  11.026   5.821  1.1283 -1.1181 -0.3797
   59MOL0     O 7854   1.852  10.899   5.848  0.4020 -0.7504  0.0930
   59MOL0     C 7855   1.979  10.878   5.800 -0.1797  0.0288 -0.2207
   59MOL0     C 7856   2.021  10.895   5.663 -0.2650 -0.3362  0.2988
   59MOL0     C 7857   2.156  10.895   5.625 -0.5238  0.1109 -0.0267
   59MOL0     C 7858   2.180  10.934   5.480  0.3711  0.1604 -0.2330
   59MOL0     C 7859   2.249  10.872   5.727 -0.9626 -0.1169  0.3838
   59MOL0     C 7860   2.396  10.865   5.697 -0.0720 -0.4889 -0.3057
   59MOL0     O 7861   2.476  10.877   5.803  0.0180 -0.4035  0.4058
   59MOL0     C 7862   2.613  10.872   5.807  0.0335  0.1780 -0.3424
   59MOL0     C 7863   2.705  10.828   5.708 -0.5357 -0.9780  0.5647
   59MOL0     C 7864   2.843  10.836   5.734  0.3559  0.3826  0.7734
   59MOL0     C 7865   2.898  10.904   5.846  0.6949 -0.2782  0.6410
   59MOL0     O 7866   3.027  10.927   5.851  0.0071 -0.6576 -0.5048
   59MOL0     C 7867   3.107  10.812   5.822 -0.0282  0.2789 -1.7172
   59MOL0     C 7868   3.136  10.740   5.960 -0.3605 -0.2675  0.7287
   59MOL0     C 7869   3.272  10.672   5.960 -0.2008 -0.6249 -0.0052
   59MOL0     C 7870   3.316  10.593   6.077 -0.1587  0.1924 -0.1496
   59MOL0     C 7871   3.455  10.528   6.062  0.2684 -0.2715  0.1868
   59MOL0     C 7872   3.458  10.412   5.965 -0.0651 -0.5222  0.9181
   59MOL0     C 7873   3.585  10.337   5.951 -0.4384 -0.3332  0.0838
   59MOL0     C 7874   3.629  10.322   5.811  0.7933 -0.4078  0.2008
   59MOL0    Cl 7875   3.744  10.185   5.821  0.0374 -0.3615  0.3143
   59MOL0     C 7876   2.803  10.939   5.946 -0.2870 -0.8227  0.2564
   59MOL0     C 7877   2.661  10.931   5.926 -0.0598  0.4202 -0.2151
   59MOL0     O 7878   2.433  10.823   5.588 -1.1702  0.3445 -0.1508
   59MOL0     C 7879   2.206  10.842   5.855  0.0352  0.8482 -1.4342
   59MOL0     C 7880   2.072  10.847   5.898  1.4328  0.7486  0.0474
   59MOL0     N 7881   1.290  10.828   5.977 -0.6658 -0.1446 -0.0024
   59MOL0     N 7882   1.168  10.814   5.935 -0.5222  0.5489 -0.3283
   59MOL0     C 7883   0.618  10.118   5.521 -1.0247 -0.9270 -0.3143
   59MOL0     C 7884   0.564  10.009   5.466 -0.1553 -0.7580 -1.3781
   59MOL0     C 7885   0.388   9.676   5.292  1.0268 -0.1989  0.6365
   59MOL0     C 7886   0.470   9.562   5.284  0.2386 -0.1558  0.4924
   59MOL0     C 7887   0.426   9.430   5.291  0.4797  0.3843 -1.2090
   59MOL0     C 7888   0.286   9.412   5.289 -0.0151 -0.3058  0.3099
   59MOL0     O 7889   0.248   9.280   5.284 -0.3371 -0.0003 -0.5721
   59MOL0     C 7890   0.189   9.229   5.167  0.1288  0.0283  0.2966
   59MOL0     C 7891   0.306   9.173   5.077 -0.0585  0.1460 -0.2867
   59MOL0     C 7892   0.340   9.031   5.120 -0.0515  0.2190  0.6932
   59MOL0     C 7893   0.226   8.943   5.072  0.4606  0.1465 -0.3808
   59MOL0     C 7894   0.251   8.809   5.129 -0.3014 -0.5970  0.0155
   59MOL0     C 7895   0.282   8.697   5.173 -0.3056  1.1092 -0.7397
   59MOL0     C 7896   0.202   9.518   5.295  0.5587 -0.3305  0.0421
   59MOL0     C 7897   0.244   9.647   5.290  0.1489  0.0476  0.3749
   59MOL0     H 7898   0.750   9.954   5.191 -4.3496 -0.0366 -0.7559
   59MOL0     H 7899   0.859  10.163   5.281 -1.4542  0.1174 -0.5386
   59MOL0     H 7900   0.824  10.377   5.322 -0.3960 -0.7010  0.0036
   59MOL0     H 7901   0.673  10.433   5.386  0.5451 -1.0092 -1.6595
   59MOL0     H 7902   0.841  10.529   5.589  1.0731  4.3544 -0.6366
   59MOL0     H 7903   0.960  10.509   5.470 -0.4612  2.2240  0.7868
   59MOL0     H 7904   0.806  10.628   5.299 -0.7863  2.3598  0.1018
   59MOL0     H 7905   0.713  10.676   5.434 -0.2438 -0.8789 -0.4004
   59MOL0     H 7906   1.013  10.745   5.416 -0.1906  2.1926  0.2574
   59MOL0     H 7907   0.886  10.840   5.359 -0.0673  0.7853  0.7356
   59MOL0     H 7908   0.785  10.839   5.594  0.2973 -1.8032  1.5001
   59MOL0     H 7909   0.923  10.742   5.654 -1.1992 -1.5824 -0.8608
   59MOL0     H 7910   1.081  10.904   5.603 -0.6564 -0.6020 -1.9994
   59MOL0     H 7911   0.977  11.008   5.513  0.4533 -0.7842 -1.2589
   59MOL0     H 7912   1.015  11.130   5.725 -3.3032  1.7702 -0.0266
   59MOL0     H 7913   0.857  11.056   5.714  0.2735  0.8195 -2.4281
   59MOL0     H 7914   0.928  10.888   5.893  1.4493 -1.6532  2.7972
   59MOL0     H 7915   0.962  11.048   5.935 -1.7058 -1.7699 -0.7286
   59MOL0     H 7916   1.241  11.091   5.797 -3.6801 -3.1788 -4.6236
   59MOL0     H 7917   1.479  11.088   5.917 -1.4413 -0.3792  0.2008
   59MOL0     H 7918   1.534  10.949   5.998 -3.4685  1.6350  3.1325
   59MOL0     H 7919   1.487  10.931   5.689 -0.4160  1.5454 -0.7154
   59MOL0     H 7920   1.595  10.829   5.800 -1.1702  0.4293  3.8697
   59MOL0     H 7921   1.635  11.120   5.697 -0.5661  0.3792 -0.7346
   59MOL0     H 7922   1.722  10.979   5.636  3.2940  0.4583  1.5378
   59MOL0     H 7923   1.777  11.092   5.906 -0.6369 -1.1692 -0.7923
   59MOL0     H 7924   1.874  11.090   5.772 -2.9138  1.9560 -3.0839
   59MOL0     H 7925   1.936  10.914   5.597 -0.2171 -1.8150 -0.2047
   59MOL0     H 7926   2.086  10.963   5.433 -0.6585 -1.7597  0.5435
   59MOL0     H 7927   2.253  11.015   5.466  1.6988 -0.2365  3.2631
   59MOL0     H 7928   2.216  10.845   5.428 -0.4548  1.4549 -3.2006
   59MOL0     H 7929   2.679  10.778   5.616  0.8572 -1.3025  0.3218
   59MOL0     H 7930   2.912  10.800   5.658  2.2711  3.1957  1.0034
   59MOL0     H 7931   3.076  10.745   5.741 -1.7807  0.4674 -1.2420
   59MOL0     H 7932   3.204  10.848   5.786 -0.2207  3.2295  0.4156
   59MOL0     H 7933   3.131  10.816   6.039 -2.8296  0.2630  0.1385
   59MOL0     H 7934   3.060  10.663   5.977 -0.5996 -0.7338 -1.9913
   59MOL0     H 7935   3.344  10.754   5.952 -0.4518 -0.0416  2.7627
   59MOL0     H 7936   3.267  10.606   5.872  1.3968 -0.5669 -0.1703
   59MOL0     H 7937   3.313  10.652   6.169 -0.0720  0.5421 -0.3697
   59MOL0     H 7938   3.243  10.513   6.095  0.1827  0.4424  2.8305
   59MOL0     H 7939   3.485  10.489   6.159  2.3403 -2.6828 -1.2858
   59MOL0     H 7940   3.527  10.608   6.040  1.7387 -1.3569  0.9034
   59MOL0     H 7941   3.375  10.343   5.983 -0.3232 -0.3118  0.5724
   59MOL0     H 7942   3.453  10.462   5.867  0.5495  0.7995  1.5301
   59MOL0     H 7943   3.571  10.243   6.004  0.3164  0.3600  1.5841
   59MOL0     H 7944   3.667  10.392   5.999  2.1167 -2.1543 -1.9365
   59MOL0     H 7945   3.679  10.411   5.770  0.6525 -0.4795 -0.1323
   59MOL0     H 7946   3.543  10.300   5.747  1.0921 -2.0870  0.3451
   59MOL0     H 7947   2.836  10.992   6.035 -1.2367  0.0508  0.1104
   59MOL0     H 7948   2.593  10.967   6.001  1.0855  2.0004  0.1122
   59MOL0     H 7949   2.270  10.813   5.938 -1.0218  0.5407 -0.7113
   59MOL0     H 7950   2.040  10.824   5.999 -1.4367  1.7893 -0.5234
   59MOL0     H 7951   0.573  10.165   5.607 -0.3512  0.6121 -0.7629
   59MOL0     H 7952   0.495   9.967   5.538  5.0816 -2.5593  3.2985
   59MOL0     H 7953   0.575   9.592   5.280  0.1560  0.1075  0.2015
   59MOL0     H 7954   0.490   9.343   5.280 -0.8125 -0.6937 -0.6716
   59MOL0     H 7955   0.099   9.169   5.182 -0.2166  0.1901 -0.9993
   59MOL0     H 7956   0.154   9.316   5.111 -0.0895 -0.2466 -0.0024
   59MOL0     H 7957   0.397   9.231   5.093 -0.1510 -0.2562  2.2566
   59MOL0     H 7958   0.284   9.183   4.971  0.9219 -0.8484 -0.6055
   59MOL0     H 7959   0.339   9.016   5.228 -0.1912 -0.7791  0.5568
   59MOL0     H 7960   0.436   9.015   5.071 -0.6428  4.4325 -2.4551
   59MOL0     H 7961   0.216   8.953   4.964  1.6803  3.0398 -0.3249
   59MOL0     H 7962   0.129   8.982   5.105  0.0594 -0.4834 -0.7943
   59MOL0     H 7963   0.281   8.597   5.210  2.5538  1.5062  0.7236
   59MOL0     H 7964   0.097   9.520   5.321  0.6211  0.4603  0.2559
   59MOL0     H 7965   0.166   9.720   5.312 -2.1858 -2.6087  1.5833
   60MOL0     O 7966   7.599   6.858   8.421 -0.0739  0.3325  0.2223
   60MOL0     C 7967   7.565   6.974   8.387 -1.2556  0.1525  1.0245
   60MOL0     O 7968   7.439   7.029   8.395  0.4770  0.1923  0.4842
   60MOL0     C 7969   7.339   6.949   8.434  0.4577 -0.5626 -0.2170
   60MOL0     C 7970   7.254   6.879   8.342 -0.1388  0.3411  0.3689
   60MOL0     C 7971   7.157   6.795   8.390  0.8485 -0.3672  0.8733
   60MOL0     C 7972   7.143   6.758   8.523  0.0871 -0.2791  0.0488
   60MOL0     O 7973   7.065   6.654   8.577 -0.2943  0.5120 -0.3738
   60MOL0     C 7974   6.971   6.591   8.493 -0.5880  0.1411  0.1207
   60MOL0     C 7975   6.899   6.470   8.567  0.8388 -0.3145  0.5897
   60MOL0     C 7976   6.886   6.350   8.470  0.0629  0.5141 -0.1684
   60MOL0     C 7977   6.831   6.224   8.542  0.0375  0.2902 -1.0512
   60MOL0     C 7978   6.782   6.114   8.447 -1.0393  0.3050 -0.3759
   60MOL0     C 7979   6.891   6.014   8.410 -0.6103  0.0452 -0.3869
   60MOL0     C 7980   6.860   5.914   8.300  0.4613 -0.3425  0.3356
   60MOL0     C 7981   6.814   5.976   8.164 -0.4654 -1.7405 -0.0222
   60MOL0     N 7982   6.927   6.031   8.092  0.8647 -0.0813  0.4429
   60MOL0     C 7983   6.958   6.167   8.109  0.8745  0.6748 -0.1591
   60MOL0     C 7984   7.084   6.177   8.070 -0.0535  0.3202  0.6450
   60MOL0     C 7985   7.155   6.310   8.081 -0.2822 -1.3969  0.1245
   60MOL0     C 7986   7.088   6.440   8.022 -0.6432 -0.2716 -0.1211
   60MOL0     C 7987   7.128   6.576   8.082  0.6336 -0.4318  0.0083
   60MOL0     C 7988   7.272   6.618   8.062  0.0221  0.1913 -0.2049
   60MOL0     O 7989   7.298   6.633   7.924  0.2744 -0.2406 -0.4646
   60MOL0     C 7990   7.403   6.719   7.903  0.8450  0.3340 -0.0183
   60MOL0     C 7991   7.530   6.690   7.941 -0.1351 -0.5188 -0.7902
   60MOL0     C 7992   7.642   6.768   7.919  0.2147 -0.0373  0.3439
   60MOL0     C 7993   7.773   6.718   7.973 -0.1251 -0.4628 -1.3009
   60MOL0     C 7994   7.627   6.883   7.840 -0.3986 -0.0813 -0.2130
   60MOL0     C 7995   7.732   6.979   7.808 -1.0512 -0.6311 -0.4344
   60MOL0     O 7996   7.768   7.002   7.685 -0.6981  0.3833  0.4155
   60MOL0     C 7997   7.846   7.126   7.663 -0.3765 -0.5781  0.1291
   60MOL0     C 7998   7.781   7.237   7.601 -0.1027 -0.5522 -0.0677
   60MOL0     C 7999   7.852   7.369   7.585 -0.2622  0.6677 -0.6186
   60MOL0     C 8000   7.984   7.377   7.625  0.4831 -0.2078 -0.4090
   60MOL0     O 8001   8.042   7.497   7.606 -0.4376  0.3043 -0.2897
   60MOL0     C 8002   8.169   7.515   7.661 -0.1220  0.3413  0.4205
   60MOL0     C 8003   8.185   7.669   7.645 -0.1723 -0.2671 -0.7194
   60MOL0     C 8004   8.212   7.693   7.497 -0.4688  0.3840  0.0249
   60MOL0     C 8005   8.251   7.833   7.466  0.2090  0.2318  0.1393
   60MOL0     C 8006   8.338   7.859   7.336  0.4405  0.1673 -0.1022
   60MOL0     C 8007   8.488   7.829   7.350  0.0049 -0.2812 -0.5071
   60MOL0     C 8008   8.545   7.880   7.215 -0.4014  0.4656  0.2976
   60MOL0     C 8009   8.507   7.792   7.100  0.5484 -0.1964  0.1548
   60MOL0    Cl 8010   8.619   7.844   6.970  0.0107 -0.2872  0.1863
   60MOL0     C 8011   8.046   7.271   7.686  0.4064 -1.3364  0.6973
   60MOL0     C 8012   7.980   7.145   7.702 -0.5379  0.0483 -0.7057
   60MOL0     O 8013   7.775   7.044   7.905  0.6122 -0.1551  0.1866
   60MOL0     C 8014   7.499   6.904   7.779 -0.0347 -0.2160 -0.8555
   60MOL0     C 8015   7.391   6.827   7.808 -0.7270  0.2539 -0.0420
   60MOL0     N 8016   7.129   6.056   8.028  0.0110  0.4581 -0.2657
   60MOL0     N 8017   7.036   5.970   8.050  0.1341 -0.9103  0.1612
   60MOL0     C 8018   7.229   6.828   8.616 -0.7274  0.5090  0.3866
   60MOL0     C 8019   7.326   6.915   8.570  0.5584 -0.0881 -0.5980
   60MOL0     C 8020   7.670   7.064   8.338  0.1536 -0.7066 -0.4669
   60MOL0     C 8021   7.775   7.015   8.257 -0.5797 -0.2744 -1.6306
   60MOL0     C 8022   7.860   7.104   8.179 -0.3603 -0.5383  0.7631
   60MOL0     C 8023   7.834   7.241   8.199 -0.8146  0.6775 -0.4187
   60MOL0     O 8024   7.898   7.347   8.139 -1.1729  0.7203  0.0920
   60MOL0     C 8025   7.862   7.353   8.000  0.0476 -0.3261 -0.8809
   60MOL0     C 8026   7.740   7.454   7.982 -0.4060  0.6357  0.1769
   60MOL0     C 8027   7.768   7.597   8.001  0.0514  0.3794  0.5764
   60MOL0     C 8028   7.816   7.643   8.138 -0.4137 -0.6667 -0.0525
   60MOL0     C 8029   7.707   7.692   8.230 -0.1945 -0.5997  0.4021
   60MOL0     C 8030   7.613   7.734   8.296  0.1521 -0.0181 -0.7300
   60MOL0     C 8031   7.751   7.292   8.301  0.4642  0.3088 -1.3541
   60MOL0     C 8032   7.667   7.197   8.367 -0.5667 -0.1043 -0.5466
   60MOL0     H 8033   7.255   6.907   8.237 -0.1608 -2.5474 -0.4918
   60MOL0     H 8034   7.090   6.757   8.313 -1.1318  1.0151  1.8295
   60MOL0     H 8035   6.895   6.666   8.467  0.5868  1.1965 -0.3521
   60MOL0     H 8036   7.019   6.553   8.402 -0.7891  1.1153 -0.4099
   60MOL0     H 8037   6.955   6.446   8.658  2.2509  2.9547  0.7463
   60MOL0     H 8038   6.808   6.517   8.606 -1.1206 -3.3143 -0.0641
   60MOL0     H 8039   6.803   6.378   8.405  0.3638  0.8247 -0.4246
   60MOL0     H 8040   6.976   6.332   8.411  2.1896  0.4291  2.8712
   60MOL0     H 8041   6.898   6.179   8.616 -1.9561 -2.9829 -1.0179
   60MOL0     H 8042   6.749   6.263   8.604  1.7145 -0.5597  1.9227
   60MOL0     H 8043   6.697   6.064   8.494 -1.5488 -0.5268 -2.0731
   60MOL0     H 8044   6.749   6.156   8.352  1.4248 -0.7326 -1.8049
   60MOL0     H 8045   6.983   6.068   8.386  1.0477 -1.9351  1.0789
   60MOL0     H 8046   6.924   5.963   8.501 -1.7117  0.8884  0.5221
   60MOL0     H 8047   6.938   5.836   8.297  1.3332  0.5060  0.4924
   60MOL0     H 8048   6.774   5.859   8.339 -0.1683 -0.0360 -0.5867
   60MOL0     H 8049   6.740   6.052   8.188  0.6828 -1.1479  1.8968
   60MOL0     H 8050   6.775   5.890   8.108 -0.7042 -0.6535 -1.5891
   60MOL0     H 8051   6.896   6.253   8.132  2.5470  2.1829 -1.0986
   60MOL0     H 8052   7.168   6.328   8.188  2.0489  1.0703 -0.4680
   60MOL0     H 8053   7.259   6.307   8.046  0.5765  5.4891  0.6417
   60MOL0     H 8054   6.979   6.433   8.027 -0.7215  0.0367 -1.1618
   60MOL0     H 8055   7.122   6.438   7.917 -1.6901  1.2709 -0.5170
   60MOL0     H 8056   7.095   6.571   8.186 -0.2949 -1.6694 -0.3223
   60MOL0     H 8057   7.062   6.648   8.031  0.0806 -0.7046  0.3278
   60MOL0     H 8058   7.342   6.548   8.110 -0.0788 -0.4634 -0.9993
   60MOL0     H 8059   7.285   6.712   8.116 -0.5369 -0.3376  0.8841
   60MOL0     H 8060   7.547   6.614   8.017  1.5494  0.9695  0.4272
   60MOL0     H 8061   7.750   6.665   8.066 -0.6194  1.1589 -0.4540
   60MOL0     H 8062   7.823   6.650   7.904 -0.7993 -1.3927 -0.8966
   60MOL0     H 8063   7.840   6.804   7.988  1.1801 -1.7843  1.1350
   60MOL0     H 8064   7.686   7.224   7.551  0.0247 -0.2763 -0.3748
   60MOL0     H 8065   7.805   7.457   7.542 -2.0472  0.1761  0.2288
   60MOL0     H 8066   8.173   7.495   7.769  1.8779 -0.7464  0.1957
   60MOL0     H 8067   8.240   7.452   7.607 -0.0158  0.0049  0.9410
   60MOL0     H 8068   8.093   7.707   7.691  1.0662  1.8577  0.1466
   60MOL0     H 8069   8.270   7.699   7.707  1.8838 -1.7811 -2.6372
   60MOL0     H 8070   8.135   7.652   7.430 -0.5158 -1.6990  1.2766
   60MOL0     H 8071   8.297   7.628   7.473 -2.7419 -4.2372  3.0368
   60MOL0     H 8072   8.167   7.897   7.439  0.8935  0.2814 -2.1007
   60MOL0     H 8073   8.295   7.879   7.555  0.2109 -1.3905  1.0050
   60MOL0     H 8074   8.324   7.965   7.311 -4.5993 -0.4421 -0.9359
   60MOL0     H 8075   8.280   7.794   7.270 -0.0520 -2.3369  2.5935
   60MOL0     H 8076   8.524   7.885   7.437 -0.8162  3.7736 -2.4808
   60MOL0     H 8077   8.506   7.722   7.361  0.1220 -0.2361 -0.2657
   60MOL0     H 8078   8.652   7.872   7.237 -0.1585  0.4184 -0.8476
   60MOL0     H 8079   8.540   7.985   7.186  3.7658  0.9337  0.6227
   60MOL0     H 8080   8.405   7.811   7.065  0.3507  1.6637  1.6047
   60MOL0     H 8081   8.514   7.687   7.131  1.6442  0.8494  3.9007
   60MOL0     H 8082   8.147   7.277   7.726  1.2367 -2.4606 -1.1232
   60MOL0     H 8083   8.021   7.069   7.767 -2.3628  0.5590  1.1443
   60MOL0     H 8084   7.470   6.987   7.716 -2.3035  2.0571  2.8330
   60MOL0     H 8085   7.296   6.848   7.760 -0.2349  2.2682 -0.2238
   60MOL0     H 8086   7.232   6.797   8.720  2.4371 -2.1982 -0.3550
   60MOL0     H 8087   7.391   6.950   8.649  3.2079 -3.6152 -0.9628
   60MOL0     H 8088   7.806   6.911   8.256  1.0080  0.1316  0.0998
   60MOL0     H 8089   7.930   7.077   8.101 -3.7333  0.9558 -3.1685
   60MOL0     H 8090   7.953   7.382   7.946  1.1759 -1.0751  0.5408
   60MOL0     H 8091   7.839   7.259   7.950  0.7749  0.3939 -2.6769
   60MOL0     H 8092   7.654   7.422   8.041 -0.8944  2.9211  0.7877
   60MOL0     H 8093   7.714   7.435   7.878 -1.7981 -0.2624  0.6606
   60MOL0     H 8094   7.686   7.664   7.972  1.1909  0.5430 -2.7094
   60MOL0     H 8095   7.847   7.630   7.933  1.9448 -1.9584  1.5347
   60MOL0     H 8096   7.883   7.728   8.122 -3.0211  1.8986  1.4803
   60MOL0     H 8097   7.877   7.573   8.195 -2.2030  0.7717  4.0507
   60MOL0     H 8098   7.536   7.768   8.362  0.2204 -1.4262  0.1199
   60MOL0     H 8099   7.735   7.398   8.321 -1.1826  0.7984 -4.5042
   60MOL0     H 8100   7.606   7.220   8.454  2.5349 -0.5457  1.9701
   61MOL0     O 8101  11.381   9.186   1.775  0.1404 -0.1237  0.1286
   61MOL0     C 8102  11.450   9.152   1.681 -0.4429  0.5901 -0.6182
   61MOL0     O 8103  11.397   9.110   1.555 -0.8834 -0.3676 -1.4852
   61MOL0     C 8104  11.265   9.080   1.537  0.5818 -0.5394 -1.0549
   61MOL0     C 8105  11.181   9.016   1.634  0.5279 -0.6060  0.2353
   61MOL0     C 8106  11.048   8.991   1.613  0.2494  0.3356  1.0575
   61MOL0     C 8107  10.987   9.022   1.486  0.7700  0.1291 -1.3932
   61MOL0     O 8108  10.854   8.987   1.460 -0.3021 -1.0192  0.1256
   61MOL0     C 8109  10.809   8.866   1.510  0.6209  0.5754 -0.0635
   61MOL0     C 8110  10.701   8.810   1.418 -0.6699 -0.4524  0.5865
   61MOL0     C 8111  10.754   8.787   1.274 -0.1226  1.1621 -0.0447
   61MOL0     C 8112  10.689   8.656   1.222 -0.3565  0.1036  0.3142
   61MOL0     C 8113  10.674   8.665   1.070 -0.4257 -0.8405  0.2506
   61MOL0     C 8114  10.815   8.684   1.002  0.4329  0.2407 -0.1006
   61MOL0     C 8115  10.923   8.587   1.042  0.6821  0.1426 -0.5069
   61MOL0     C 8116  11.034   8.601   0.942  0.3183 -0.0273 -0.1500
   61MOL0     N 8117  11.100   8.733   0.945 -1.0671 -0.4372  1.0467
   61MOL0     C 8118  11.178   8.775   1.049  0.0205  1.1008 -0.1614
   61MOL0     C 8119  11.237   8.902   1.010  0.2091  0.9325  0.2864
   61MOL0     C 8120  11.342   8.989   1.066 -0.0528 -0.8148 -1.0828
   61MOL0     C 8121  11.487   8.995   0.997  0.4254 -0.1362  0.1786
   61MOL0     C 8122  11.594   9.090   1.057 -0.0291 -0.0641  0.8144
   61MOL0     C 8123  11.705   8.994   1.108  0.0206 -0.0280  0.5827
   61MOL0     O 8124  11.815   9.073   1.159  0.0474  0.2877  0.0478
   61MOL0     C 8125  11.925   9.005   1.198 -0.2863  0.5263  0.1698
   61MOL0     C 8126  11.940   8.862   1.210  0.3173  0.2435  0.5983
   61MOL0     C 8127  12.060   8.800   1.227 -0.5759 -0.9017 -0.0864
   61MOL0     C 8128  12.064   8.655   1.218 -1.1786  0.0807  0.1717
   61MOL0     C 8129  12.170   8.872   1.277 -0.7397 -0.2339  0.6681
   61MOL0     C 8130  12.283   8.801   1.320 -0.0852 -0.3291 -0.0311
   61MOL0     O 8131  12.355   8.740   1.222  0.1180  0.9423  0.3081
   61MOL0     C 8132  12.417   8.620   1.264  0.6146  0.9938 -0.9687
   61MOL0     C 8133  12.356   8.516   1.345 -0.3380 -0.4131  0.2431
   61MOL0     C 8134  12.417   8.392   1.374 -0.4199  0.0865 -0.7825
   61MOL0     C 8135  12.539   8.368   1.306  0.1281 -0.4821 -0.1711
   61MOL0     O 8136  12.582   8.241   1.327 -0.5468 -0.1791 -0.2543
   61MOL0     C 8137  12.703   8.198   1.268 -0.6759  0.4106  0.4392
   61MOL0     C 8138  12.736   8.056   1.308  1.0098  0.1973 -0.0803
   61MOL0     C 8139  12.871   8.002   1.271 -0.2671 -0.4604 -0.0788
   61MOL0     C 8140  12.867   7.902   1.161 -0.2623  0.3745  0.4651
   61MOL0     C 8141  12.822   7.950   1.016 -0.1222  0.2395  0.2335
   61MOL0     C 8142  12.837   7.838   0.917 -0.7247 -0.4064  0.0199
   61MOL0     C 8143  12.980   7.787   0.887  0.5744 -0.6433  0.0539
   61MOL0     C 8144  12.984   7.654   0.814 -0.0592  0.3769 -0.0209
   61MOL0    Cl 8145  12.827   7.636   0.720  0.2299  0.0001  0.0294
   61MOL0     C 8146  12.606   8.475   1.226 -1.0685  0.7147  0.4335
   61MOL0     C 8147  12.547   8.597   1.217 -0.0613  0.9150  0.0005
   61MOL0     O 8148  12.298   8.796   1.439 -0.1972  0.1767  0.1702
   61MOL0     C 8149  12.158   9.010   1.285  0.1316 -0.3781 -0.4142
   61MOL0     C 8150  12.036   9.075   1.236 -0.3482 -0.7094 -0.3070
   61MOL0     N 8151  11.186   8.918   0.884 -1.3556 -0.0887 -0.3064
   61MOL0     N 8152  11.106   8.822   0.840 -0.4783  0.1348 -0.1944
   61MOL0     C 8153  11.066   9.082   1.389 -0.2757 -0.3048 -0.5459
   61MOL0     C 8154  11.201   9.106   1.416 -0.4475 -0.2796  0.0481
   61MOL0     C 8155  11.595   9.160   1.683  0.0993 -0.5049 -0.2396
   61MOL0     C 8156  11.665   9.200   1.795  0.1720  0.7017  0.2999
   61MOL0     C 8157  11.806   9.217   1.796  0.7624 -0.0095 -0.9953
   61MOL0     C 8158  11.876   9.193   1.682  0.1510  0.4861 -1.1828
   61MOL0     O 8159  12.009   9.210   1.689  0.4450  0.5790  0.4425
   61MOL0     C 8160  12.091   9.153   1.580 -1.3610 -0.4215  0.3153
   61MOL0     C 8161  12.235   9.216   1.599 -0.1355  0.4238  0.2150
   61MOL0     C 8162  12.292   9.171   1.731  0.2048  0.3344 -0.6566
   61MOL0     C 8163  12.437   9.227   1.765  0.6973 -0.4130  0.7149
   61MOL0     C 8164  12.424   9.371   1.760 -0.2136 -0.7097  0.1308
   61MOL0     C 8165  12.407   9.491   1.771 -0.2680 -0.3680  0.1981
   61MOL0     C 8166  11.807   9.134   1.574  0.1365  0.0636  0.5870
   61MOL0     C 8167  11.671   9.114   1.577 -0.5060  0.4692  0.3430
   61MOL0     H 8168  11.211   8.981   1.732  0.5059 -1.4543 -0.0586
   61MOL0     H 8169  10.983   8.963   1.695 -0.5215 -0.3091  0.2540
   61MOL0     H 8170  10.891   8.794   1.517  1.0926  0.8641 -1.9243
   61MOL0     H 8171  10.773   8.884   1.612 -3.5431 -0.6289 -1.1253
   61MOL0     H 8172  10.675   8.712   1.460 -0.0676 -0.2796  1.4096
   61MOL0     H 8173  10.612   8.873   1.422 -0.5624 -0.3561  2.3894
   61MOL0     H 8174  10.722   8.868   1.208  2.5105  1.5051 -1.0173
   61MOL0     H 8175  10.864   8.787   1.268 -0.1150 -1.8703 -2.9765
   61MOL0     H 8176  10.755   8.574   1.251  0.2886  1.5552  3.2868
   61MOL0     H 8177  10.598   8.633   1.279  0.1980  2.3586  2.2608
   61MOL0     H 8178  10.626   8.574   1.032 -2.7902  0.7595 -0.8159
   61MOL0     H 8179  10.612   8.752   1.046  0.0556  0.2205  2.5267
   61MOL0     H 8180  10.799   8.675   0.894  2.7192  0.0154 -0.4630
   61MOL0     H 8181  10.852   8.785   1.025 -0.6837  0.3676  1.3024
   61MOL0     H 8182  10.952   8.598   1.147  1.7931 -2.5198 -0.4415
   61MOL0     H 8183  10.882   8.486   1.033 -0.0597  0.4918 -1.1839
   61MOL0     H 8184  10.979   8.599   0.847 -0.5019 -2.6219  0.3047
   61MOL0     H 8185  11.100   8.513   0.942  0.3054 -0.0890 -2.2108
   61MOL0     H 8186  11.195   8.721   1.142 -0.7266  1.3341  0.1199
   61MOL0     H 8187  11.301   9.091   1.067 -3.2272 -1.9760 -1.5831
   61MOL0     H 8188  11.361   8.955   1.168  1.7235  1.0006 -0.7483
   61MOL0     H 8189  11.473   9.029   0.894 -1.7047 -2.0548 -0.2489
   61MOL0     H 8190  11.513   8.889   1.002 -0.7471 -0.3674  2.3817
   61MOL0     H 8191  11.554   9.165   1.124  2.1757  0.0226  2.1457
   61MOL0     H 8192  11.636   9.138   0.968  2.6416 -1.5155  1.1617
   61MOL0     H 8193  11.746   8.929   1.030  0.5717 -0.3191  1.1035
   61MOL0     H 8194  11.656   8.934   1.186 -2.7456  1.9485  0.4999
   61MOL0     H 8195  11.859   8.795   1.182  1.1099  0.1535 -1.6690
   61MOL0     H 8196  11.989   8.621   1.146  0.5299 -0.0944 -1.6192
   61MOL0     H 8197  12.154   8.612   1.175 -0.1305  1.9327  0.4078
   61MOL0     H 8198  12.041   8.608   1.314  0.4032 -1.6427 -0.2491
   61MOL0     H 8199  12.263   8.539   1.396  0.5887 -1.1676  2.3835
   61MOL0     H 8200  12.374   8.312   1.432 -0.4697  0.6356 -0.0560
   61MOL0     H 8201  12.668   8.188   1.164 -4.4754  0.4015  1.5589
   61MOL0     H 8202  12.790   8.263   1.283 -0.1677 -0.4865  1.5611
   61MOL0     H 8203  12.749   8.058   1.417  0.8442  0.3490 -0.0627
   61MOL0     H 8204  12.653   7.987   1.286  1.1749  0.2972 -1.0686
   61MOL0     H 8205  12.923   7.954   1.355 -1.1684 -2.5053 -0.6034
   61MOL0     H 8206  12.927   8.090   1.242 -2.0060  1.4082  1.8689
   61MOL0     H 8207  12.968   7.862   1.150 -0.3639  0.3301 -0.3876
   61MOL0     H 8208  12.798   7.821   1.183  1.8261 -1.3790  0.9391
   61MOL0     H 8209  12.892   8.027   0.983 -1.0315  1.1516  0.3947
   61MOL0     H 8210  12.719   7.986   1.005 -0.0122  0.9430  1.4164
   61MOL0     H 8211  12.780   7.750   0.946 -0.4838 -0.5120  0.1716
   61MOL0     H 8212  12.804   7.871   0.818  0.6769  0.7817 -0.0894
   61MOL0     H 8213  13.040   7.789   0.978  0.6708  1.4164 -0.0091
   61MOL0     H 8214  13.032   7.866   0.832 -2.4876  0.6556 -1.2066
   61MOL0     H 8215  12.978   7.581   0.895 -0.4553 -1.6841 -1.8103
   61MOL0     H 8216  13.070   7.644   0.747  0.1410  0.7233  0.1799
   61MOL0     H 8217  12.694   8.456   1.166 -1.2080 -1.8636  0.9231
   61MOL0     H 8218  12.595   8.670   1.153  0.6327 -0.1240 -0.6668
   61MOL0     H 8219  12.243   9.063   1.327  1.3997 -3.9058  1.9044
   61MOL0     H 8220  12.031   9.183   1.233  2.8278 -0.4703 -1.1273
   61MOL0     H 8221  11.016   9.105   1.295 -3.3009 -1.4199  0.6568
   61MOL0     H 8222  11.250   9.146   1.328 -0.4590 -0.4353 -0.0294
   61MOL0     H 8223  11.605   9.236   1.878 -2.8786 -1.8476 -0.6113
   61MOL0     H 8224  11.853   9.253   1.887  0.2324  0.9267 -1.0753
   61MOL0     H 8225  12.104   9.046   1.599  1.2572 -0.3559 -0.7321
   61MOL0     H 8226  12.069   9.190   1.480  3.5944 -1.3789 -1.4240
   61MOL0     H 8227  12.221   9.325   1.592 -0.6286  0.3281 -0.4477
   61MOL0     H 8228  12.298   9.178   1.518  0.9861 -2.3815  2.2625
   61MOL0     H 8229  12.304   9.062   1.731  1.3945  0.4414  0.1116
   61MOL0     H 8230  12.231   9.183   1.821  0.4787 -3.4575  0.2047
   61MOL0     H 8231  12.510   9.204   1.686  0.6274  1.8539 -0.0856
   61MOL0     H 8232  12.461   9.197   1.867  0.7029 -1.6711  0.3682
   61MOL0     H 8233  12.395   9.596   1.750  1.5561 -0.1690 -0.0078
   61MOL0     H 8234  11.855   9.094   1.486  1.3840  1.4733  0.5975
   61MOL0     H 8235  11.618   9.065   1.496  2.0244  1.4475 -2.0765
   62MOL0     O 8236   1.591  10.380   8.890 -0.8592  0.0435  0.3823
   62MOL0     C 8237   1.572  10.297   8.799 -0.6387 -0.1457 -0.5831
   62MOL0     O 8238   1.465  10.211   8.798 -0.3884  0.2022  0.6806
   62MOL0     C 8239   1.361  10.227   8.886  0.4312 -0.3150  0.5994
   62MOL0     C 8240   1.367  10.190   9.020 -0.0546  0.5342  0.5281
   62MOL0     C 8241   1.256  10.218   9.105  0.6412  0.3187 -0.3826
   62MOL0     C 8242   1.142  10.281   9.051  0.0191  0.1723 -0.1372
   62MOL0     O 8243   1.043  10.285   9.144  0.6178 -0.3087  0.2393
   62MOL0     C 8244   0.916  10.347   9.093 -0.6263  0.3979  0.6824
   62MOL0     C 8245   0.788  10.352   9.188 -0.5203 -0.3570 -0.4010
   62MOL0     C 8246   0.727  10.220   9.186 -0.2578 -0.5236  0.3220
   62MOL0     C 8247   0.601  10.234   9.274  0.2618 -0.2563  0.8401
   62MOL0     C 8248   0.464  10.293   9.219  0.1471 -0.0340  1.3054
   62MOL0     C 8249   0.403  10.216   9.098  0.5260  0.1355  0.6769
   62MOL0     C 8250   0.295  10.109   9.129 -0.2423  0.3952  0.3051
   62MOL0     C 8251   0.293  10.001   9.023  0.5981  0.4010 -0.0281
   62MOL0     N 8252   0.265  10.059   8.894 -0.3639  0.1107  0.9916
   62MOL0     C 8253   0.327  10.016   8.783  0.6660  0.0968 -0.1778
   62MOL0     C 8254   0.248  10.055   8.687  0.0956 -0.4081  0.7836
   62MOL0     C 8255   0.265  10.030   8.541 -0.4090  0.6829  0.2422
   62MOL0     C 8256   0.217  10.156   8.462 -1.5357  0.2276 -0.1693
   62MOL0     C 8257   0.199  10.113   8.318  0.7288  0.6270 -0.5198
   62MOL0     C 8258   0.101  10.201   8.244 -0.2851 -0.2248  1.4927
   62MOL0     O 8259   0.134  10.337   8.244  0.3693  0.7289  0.4752
   62MOL0     C 8260   0.216  10.388   8.149 -0.1871 -0.6442 -0.1698
   62MOL0     C 8261   0.269  10.329   8.039  0.1400 -0.8352  0.1965
   62MOL0     C 8262   0.349  10.403   7.947  0.6635  0.7086 -0.2784
   62MOL0     C 8263   0.383  10.328   7.821 -0.2812 -0.0300  0.2305
   62MOL0     C 8264   0.379  10.542   7.967 -0.6040  0.4852  0.3523
   62MOL0     C 8265   0.477  10.620   7.885  0.8748 -1.0153  0.5877
   62MOL0     O 8266   0.603  10.566   7.861  0.1403 -0.1284  0.1413
   62MOL0     C 8267   0.664  10.623   7.754 -0.0342  0.5542  0.3756
   62MOL0     C 8268   0.735  10.739   7.770  1.0261 -0.1408  0.3512
   62MOL0     C 8269   0.787  10.819   7.661  0.0066  0.5563  0.1225
   62MOL0     C 8270   0.775  10.761   7.527 -0.1068 -0.0844 -0.2326
   62MOL0     O 8271   0.814  10.827   7.414  0.1608 -0.7873  0.4220
   62MOL0     C 8272   0.901  10.939   7.416 -0.9624 -0.4304  0.2357
   62MOL0     C 8273   0.911  11.001   7.276  0.1767  1.7813  0.2097
   62MOL0     C 8274   1.011  11.107   7.259 -0.1802 -0.2181  0.1165
   62MOL0     C 8275   0.929  11.240   7.225  0.1507  0.8828 -0.6485
   62MOL0     C 8276   1.028  11.355   7.195  0.1554  0.1726  1.4394
   62MOL0     C 8277   0.940  11.462   7.113  0.5009 -0.3228  0.2968
   62MOL0     C 8278   1.021  11.571   7.066  1.1805  0.6143  0.2599
   62MOL0     C 8279   1.061  11.672   7.181 -0.0034 -0.4024  0.0993
   62MOL0    Cl 8280   1.110  11.840   7.137 -0.5077 -0.0186 -0.1148
   62MOL0     C 8281   0.723  10.634   7.513 -1.0269 -1.2345  0.1607
   62MOL0     C 8282   0.664  10.564   7.623 -0.9353  0.1024  0.6696
   62MOL0     O 8283   0.454  10.744   7.886 -0.1799  0.6368  0.4816
   62MOL0     C 8284   0.341  10.595   8.084  0.8319  0.4411  0.5968
   62MOL0     C 8285   0.247  10.519   8.164  0.3634  0.2345 -0.2487
   62MOL0     N 8286   0.148  10.133   8.735  0.0486 -0.2316  0.2822
   62MOL0     N 8287   0.169  10.145   8.860  0.7976 -0.3788  0.1526
   62MOL0     C 8288   1.142  10.312   8.913 -0.3491 -0.4341  1.1122
   62MOL0     C 8289   1.259  10.300   8.844 -0.9886 -0.7684  0.4106
   62MOL0     C 8290   1.674  10.284   8.689  0.6575  0.7839  1.0984
   62MOL0     C 8291   1.643  10.201   8.581 -0.7315 -0.3296  0.6148
   62MOL0     C 8292   1.727  10.206   8.459  0.8300  0.3359 -0.3425
   62MOL0     C 8293   1.842  10.285   8.458 -0.0062  0.7299 -0.5176
   62MOL0     O 8294   1.925  10.284   8.346  0.3791  0.0337  0.3107
   62MOL0     C 8295   2.065  10.312   8.370 -1.4946  0.3675 -0.5260
   62MOL0     C 8296   2.149  10.260   8.251  0.0336 -0.4050  0.2272
   62MOL0     C 8297   2.095  10.268   8.111 -0.2414  0.3105  0.0626
   62MOL0     C 8298   2.200  10.233   8.005  0.4625  0.1545 -0.2332
   62MOL0     C 8299   2.291  10.342   7.976  0.2267  0.7509  0.2380
   62MOL0     C 8300   2.390  10.411   7.969 -1.5588  0.1381 -0.2227
   62MOL0     C 8301   1.873  10.356   8.574 -0.1066 -0.4102 -0.3533
   62MOL0     C 8302   1.787  10.359   8.683 -0.0577  0.4241 -0.0368
   62MOL0     H 8303   1.455  10.132   9.046  0.6488  0.9197 -0.9142
   62MOL0     H 8304   1.253  10.191   9.210 -0.7155 -2.4532 -1.0561
   62MOL0     H 8305   0.944  10.449   9.064 -1.6962  1.1132  2.0784
   62MOL0     H 8306   0.887  10.293   9.002 -2.3875  2.1013  0.1703
   62MOL0     H 8307   0.828  10.375   9.287 -0.4145 -0.7932 -0.3375
   62MOL0     H 8308   0.719  10.430   9.155 -1.1599  0.4922  2.6321
   62MOL0     H 8309   0.706  10.179   9.087 -2.1045 -0.0604  0.4701
   62MOL0     H 8310   0.791  10.151   9.241 -1.2238 -2.1975 -0.5683
   62MOL0     H 8311   0.576  10.128   9.289  1.8255 -0.9084 -0.6803
   62MOL0     H 8312   0.631  10.268   9.373  1.8156 -4.4103  2.0116
   62MOL0     H 8313   0.385  10.321   9.289 -0.2254  2.6925 -0.0529
   62MOL0     H 8314   0.489  10.385   9.165 -5.6873 -0.1672 -2.4838
   62MOL0     H 8315   0.357  10.284   9.025 -1.6810 -0.4899  1.4174
   62MOL0     H 8316   0.484  10.165   9.045 -2.4097 -2.3186 -1.7857
   62MOL0     H 8317   0.335  10.058   9.218 -2.7183  0.4005  1.4893
   62MOL0     H 8318   0.201  10.161   9.149 -0.9255 -1.1286  1.2889
   62MOL0     H 8319   0.225   9.917   9.041 -0.6637  1.3974  0.0381
   62MOL0     H 8320   0.389   9.950   9.017  0.3597 -0.4611  2.2959
   62MOL0     H 8321   0.413   9.952   8.762  1.9723  1.1215  1.8175
   62MOL0     H 8322   0.368  10.004   8.514 -0.5642  1.2543 -0.9730
   62MOL0     H 8323   0.196   9.947   8.526 -1.6204  0.3104  5.8132
   62MOL0     H 8324   0.299  10.229   8.471  1.1516 -2.7565  1.6604
   62MOL0     H 8325   0.117  10.179   8.499 -1.6102 -1.1000  0.5030
   62MOL0     H 8326   0.157  10.012   8.318 -1.3489  1.4429 -1.4389
   62MOL0     H 8327   0.294  10.108   8.263 -0.1317 -3.7005 -2.0753
   62MOL0     H 8328  -0.001  10.195   8.283 -1.0687 -0.4474 -0.4698
   62MOL0     H 8329   0.089  10.166   8.141 -1.9437  1.8817  0.8973
   62MOL0     H 8330   0.247  10.227   8.009 -1.8133  0.8335 -5.4015
   62MOL0     H 8331   0.380  10.219   7.827 -0.3455 -0.0057  0.6854
   62MOL0     H 8332   0.328  10.367   7.735 -0.7393  2.1237  1.4349
   62MOL0     H 8333   0.490  10.341   7.805 -0.2962 -0.2133 -0.0219
   62MOL0     H 8334   0.724  10.778   7.870  3.6639  1.2416  0.1906
   62MOL0     H 8335   0.841  10.911   7.681 -0.1761  1.3531 -2.6382
   62MOL0     H 8336   0.863  11.019   7.479  3.2713  2.4638 -0.3979
   62MOL0     H 8337   1.000  10.904   7.447 -2.1278 -3.9476  0.4881
   62MOL0     H 8338   0.934  10.925   7.201 -1.3350  2.2791 -0.8037
   62MOL0     H 8339   0.809  11.030   7.247 -0.5360  1.3387  2.1292
   62MOL0     H 8340   1.078  11.095   7.173  0.4245 -0.4190  0.6082
   62MOL0     H 8341   1.067  11.132   7.349 -3.4898  3.4028  1.4486
   62MOL0     H 8342   0.878  11.221   7.130 -4.4991 -0.3594  1.7924
   62MOL0     H 8343   0.865  11.275   7.307 -0.7280 -0.4130 -0.7518
   62MOL0     H 8344   1.121  11.325   7.145 -0.5112 -0.3860  0.4983
   62MOL0     H 8345   1.067  11.395   7.290 -1.1793  0.4758  1.8785
   62MOL0     H 8346   0.902  11.409   7.025 -0.5218  0.9920 -0.0887
   62MOL0     H 8347   0.858  11.506   7.170  1.2935  2.0098 -0.2845
   62MOL0     H 8348   0.950  11.623   7.001 -2.6307  0.4286  3.8176
   62MOL0     H 8349   1.117  11.548   7.019  1.6659  0.0985  1.4706
   62MOL0     H 8350   1.142  11.630   7.241  1.0490  2.6161  0.9748
   62MOL0     H 8351   0.984  11.681   7.259 -0.6388 -4.6245  0.1951
   62MOL0     H 8352   0.720  10.595   7.412  1.3950  0.3775 -0.6340
   62MOL0     H 8353   0.612  10.469   7.623 -1.5962  0.3931  3.4988
   62MOL0     H 8354   0.387  10.686   8.122  2.8007 -0.2383 -0.0328
   62MOL0     H 8355   0.230  10.578   8.253  3.3588 -0.0208  0.6072
   62MOL0     H 8356   1.064  10.367   8.860  0.8677  0.0067 -0.2953
   62MOL0     H 8357   1.258  10.333   8.741 -3.0419  1.6091  1.0993
   62MOL0     H 8358   1.569  10.122   8.586  1.2903 -2.4921 -0.9557
   62MOL0     H 8359   1.712  10.133   8.381 -0.5165 -0.8804  0.9878
   62MOL0     H 8360   2.080  10.420   8.383 -0.1359 -0.0476  2.1174
   62MOL0     H 8361   2.102  10.255   8.455  1.0967  0.6777 -1.3636
   62MOL0     H 8362   2.186  10.161   8.276  1.9828  0.9404  3.1700
   62MOL0     H 8363   2.238  10.323   8.261 -0.8499  1.3425 -1.9504
   62MOL0     H 8364   2.046  10.365   8.102  1.3005  1.1426  0.1689
   62MOL0     H 8365   2.021  10.189   8.100  0.2496  0.0903 -2.3207
   62MOL0     H 8366   2.143  10.219   7.912  0.9824 -1.7431 -0.2935
   62MOL0     H 8367   2.248  10.141   8.038  0.9016  0.6153  0.4412
   62MOL0     H 8368   2.485  10.459   7.979 -0.6412 -1.4010 -1.2017
   62MOL0     H 8369   1.964  10.412   8.592  0.5406 -1.3201 -0.7173
   62MOL0     H 8370   1.821  10.425   8.762  0.6707  1.6571 -1.3313
   63MOL0     O 8371   1.762   3.590   6.790 -0.1089 -0.0516  0.9991
   63MOL0     C 8372   1.679   3.501   6.790 -0.0686  0.2661 -0.6842
   63MOL0     O 8373   1.701   3.386   6.721 -0.1339 -0.6007 -1.2283
   63MOL0     C 8374   1.764   3.371   6.594 -0.4547  1.0906 -0.8766
   63MOL0     C 8375   1.764   3.234   6.559  0.5962  0.1758  0.7928
   63MOL0     C 8376   1.801   3.194   6.422  1.3398 -0.4092 -1.1328
   63MOL0     C 8377   1.848   3.290   6.335  0.3144 -0.2334  0.4021
   63MOL0     O 8378   1.854   3.272   6.202  0.5105  0.3843  0.1238
   63MOL0     C 8379   1.936   3.170   6.159 -0.1193  0.0851 -0.4891
   63MOL0     C 8380   2.002   3.217   6.027 -0.0052  0.1325  0.1379
   63MOL0     C 8381   2.100   3.341   6.039  0.3199 -0.1644  0.5887
   63MOL0     C 8382   2.155   3.365   5.898 -0.0698  0.3975  0.2411
   63MOL0     C 8383   2.290   3.451   5.899  0.3590  0.4453 -0.0855
   63MOL0     C 8384   2.408   3.370   5.943 -0.5376  0.8728 -0.2372
   63MOL0     C 8385   2.537   3.448   5.935 -0.2458 -0.4316 -0.8204
   63MOL0     C 8386   2.614   3.451   6.069  0.0788 -0.2429 -0.5717
   63MOL0     N 8387   2.651   3.315   6.110 -0.1646 -0.0809 -0.4898
   63MOL0     C 8388   2.767   3.251   6.068  0.4671  0.3234  0.7777
   63MOL0     C 8389   2.744   3.130   6.130 -0.5190 -0.1738  0.8546
   63MOL0     C 8390   2.821   3.005   6.089  0.3939 -0.3663  0.4903
   63MOL0     C 8391   2.947   2.975   6.166 -0.1252 -0.2804 -0.2199
   63MOL0     C 8392   3.004   2.840   6.145 -0.3216  0.2659 -0.4365
   63MOL0     C 8393   3.088   2.822   6.023 -0.0951  0.2242 -0.3814
   63MOL0     O 8394   3.018   2.865   5.904  0.1457  0.2361 -0.6893
   63MOL0     C 8395   2.939   2.778   5.834 -0.3677  0.3637  0.6766
   63MOL0     C 8396   2.918   2.639   5.841  0.0556 -0.1318 -0.9393
   63MOL0     C 8397   2.830   2.574   5.751  0.3093 -0.5114 -0.6725
   63MOL0     C 8398   2.808   2.431   5.774  0.1246  0.2572  0.5464
   63MOL0     C 8399   2.756   2.646   5.653  0.0902  0.4704 -0.2389
   63MOL0     C 8400   2.656   2.586   5.556  0.1912  0.5564 -0.9417
   63MOL0     O 8401   2.620   2.449   5.563 -0.8889  0.6523  0.3394
   63MOL0     C 8402   2.569   2.394   5.448  0.7502 -1.0247  0.0085
   63MOL0     C 8403   2.435   2.373   5.429  0.1919  0.7685 -0.4034
   63MOL0     C 8404   2.393   2.317   5.306  0.0706  0.5537  0.2113
   63MOL0     C 8405   2.477   2.277   5.204 -0.9472  0.2055  0.3265
   63MOL0     O 8406   2.436   2.213   5.093 -0.6558 -0.1126  0.1264
   63MOL0     C 8407   2.503   2.228   4.967 -0.4926  0.0691 -0.0212
   63MOL0     C 8408   2.558   2.090   4.921  1.5071  0.1434 -1.0163
   63MOL0     C 8409   2.631   2.092   4.782  1.0683 -0.2279 -0.3613
   63MOL0     C 8410   2.642   1.957   4.719  0.4397 -0.8687 -0.7016
   63MOL0     C 8411   2.713   1.956   4.588  0.5878  0.3623 -0.7735
   63MOL0     C 8412   2.730   1.814   4.529  0.2765 -0.0657 -0.2731
   63MOL0     C 8413   2.774   1.830   4.385  0.8608 -0.4835  0.6671
   63MOL0     C 8414   2.654   1.876   4.301 -0.4391  0.7094 -0.0922
   63MOL0    Cl 8415   2.540   1.748   4.281 -0.1223  0.5294 -0.5941
   63MOL0     C 8416   2.615   2.295   5.232  0.0951 -0.2663 -0.1974
   63MOL0     C 8417   2.659   2.362   5.350 -0.2346 -0.4750  0.6562
   63MOL0     O 8418   2.605   2.661   5.471 -0.1443 -0.1618  0.2299
   63MOL0     C 8419   2.784   2.781   5.646 -0.4931 -1.0125  0.3067
   63MOL0     C 8420   2.875   2.843   5.732 -0.3107 -0.2929 -1.0899
   63MOL0     N 8421   2.644   3.132   6.219 -0.3240 -0.2257 -0.3885
   63MOL0     N 8422   2.591   3.244   6.217  0.0637 -0.0178  0.4588
   63MOL0     C 8423   1.850   3.422   6.375 -0.1395  0.2742  0.5121
   63MOL0     C 8424   1.806   3.457   6.501  1.2386  0.3477  0.4764
   63MOL0     C 8425   1.548   3.514   6.861  0.6436  1.5056 -0.4099
   63MOL0     C 8426   1.490   3.389   6.909  0.0729 -0.3509  0.9688
   63MOL0     C 8427   1.378   3.405   6.991  0.6562  0.5256 -0.2578
   63MOL0     C 8428   1.314   3.531   7.018 -1.0241 -0.0852  0.1918
   63MOL0     O 8429   1.209   3.530   7.105 -0.5141  0.0567 -0.2230
   63MOL0     C 8430   1.083   3.535   7.046  0.0121  1.0123  0.3756
   63MOL0     C 8431   0.968   3.498   7.151 -0.3656 -0.4746  1.0427
   63MOL0     C 8432   0.962   3.359   7.182 -0.8823  0.5074 -0.1627
   63MOL0     C 8433   0.878   3.335   7.310 -0.6099  0.6757  0.3504
   63MOL0     C 8434   0.870   3.189   7.340  0.3839  0.6557 -0.2660
   63MOL0     C 8435   0.877   3.072   7.371  0.8504 -0.4551 -0.1300
   63MOL0     C 8436   1.380   3.646   6.970  0.8522 -0.1882  0.1313
   63MOL0     C 8437   1.499   3.641   6.902 -0.4637 -0.0652 -0.5872
   63MOL0     H 8438   1.727   3.162   6.631 -1.0436 -0.2909 -0.4656
   63MOL0     H 8439   1.794   3.090   6.391 -0.6857 -1.2613  1.7619
   63MOL0     H 8440   2.019   3.162   6.230 -0.1252  1.4043 -0.3062
   63MOL0     H 8441   1.886   3.073   6.164 -1.3376  0.7491  3.3639
   63MOL0     H 8442   2.054   3.137   5.974 -4.7018 -2.9599 -0.3749
   63MOL0     H 8443   1.923   3.246   5.956 -1.2243 -2.7658  0.1984
   63MOL0     H 8444   2.035   3.427   6.057 -4.9706 -3.1182 -1.8470
   63MOL0     H 8445   2.179   3.325   6.114  2.3809 -1.6675 -1.7569
   63MOL0     H 8446   2.178   3.272   5.845  1.0842 -0.1654  1.6663
   63MOL0     H 8447   2.082   3.422   5.840  0.8016 -1.7571 -3.2764
   63MOL0     H 8448   2.303   3.483   5.795 -0.5291 -1.8786 -0.9898
   63MOL0     H 8449   2.283   3.542   5.958  4.8127  1.0252 -0.0748
   63MOL0     H 8450   2.385   3.346   6.047  0.6783 -1.8690 -0.5009
   63MOL0     H 8451   2.423   3.274   5.891  2.9918  0.9878  0.2843
   63MOL0     H 8452   2.604   3.410   5.858  2.2907  2.0350 -0.0438
   63MOL0     H 8453   2.515   3.553   5.912  5.5777  1.4189  0.3245
   63MOL0     H 8454   2.563   3.501   6.152  4.1845 -0.4695  2.3890
   63MOL0     H 8455   2.702   3.516   6.065  2.1866 -2.9538 -1.4529
   63MOL0     H 8456   2.841   3.281   5.995 -0.5061  0.2859 -0.2686
   63MOL0     H 8457   2.753   2.919   6.091 -1.3613  0.7862 -2.5746
   63MOL0     H 8458   2.847   3.012   5.983 -0.3025 -0.8145  0.2800
   63MOL0     H 8459   2.925   2.987   6.273 -0.1458 -0.4530 -0.2046
   63MOL0     H 8460   3.032   3.039   6.142  1.8680 -1.6386  2.6473
   63MOL0     H 8461   2.932   2.758   6.149 -1.1430  1.0180  0.9290
   63MOL0     H 8462   3.079   2.832   6.224  1.9337  2.5246 -2.1542
   63MOL0     H 8463   3.127   2.720   6.028 -1.2797 -0.2755 -1.0923
   63MOL0     H 8464   3.179   2.881   6.038 -0.0898 -0.0098  0.5585
   63MOL0     H 8465   2.962   2.585   5.924 -1.0037  2.1914  1.2299
   63MOL0     H 8466   2.704   2.416   5.805  0.0705 -0.7511 -0.0964
   63MOL0     H 8467   2.824   2.386   5.676 -1.7176  3.0802 -1.2053
   63MOL0     H 8468   2.876   2.393   5.851  1.5731 -0.3829 -1.0053
   63MOL0     H 8469   2.365   2.397   5.508 -1.2741 -2.5487 -0.5256
   63MOL0     H 8470   2.286   2.302   5.295 -0.0580 -0.9564  2.7298
   63MOL0     H 8471   2.434   2.263   4.890 -0.6487  0.4335  0.2780
   63MOL0     H 8472   2.580   2.305   4.965 -1.2484  0.8364 -0.1590
   63MOL0     H 8473   2.632   2.074   5.000  3.3818  2.3211 -2.1990
   63MOL0     H 8474   2.483   2.010   4.916  2.4598 -0.7876 -0.6561
   63MOL0     H 8475   2.733   2.133   4.785 -0.7951  5.3902 -0.8537
   63MOL0     H 8476   2.573   2.157   4.715 -0.5734 -0.4139  0.8234
   63MOL0     H 8477   2.700   1.895   4.788 -3.5152 -1.3467  2.5686
   63MOL0     H 8478   2.538   1.926   4.701  0.3617  0.3470 -2.5122
   63MOL0     H 8479   2.814   1.996   4.597  1.2567 -1.6824  1.7719
   63MOL0     H 8480   2.659   2.027   4.524  0.1143 -0.7046 -1.6064
   63MOL0     H 8481   2.801   1.757   4.590  0.3267  0.2388 -0.0462
   63MOL0     H 8482   2.637   1.757   4.542  0.1334 -0.4291 -2.5367
   63MOL0     H 8483   2.819   1.739   4.345  1.3349  1.2282 -3.1725
   63MOL0     H 8484   2.852   1.906   4.379  1.0428 -0.5802  1.7427
   63MOL0     H 8485   2.679   1.910   4.200  0.5623 -1.5907 -0.6885
   63MOL0     H 8486   2.599   1.962   4.341  1.5775  1.6126  0.8462
   63MOL0     H 8487   2.689   2.263   5.158  3.1267 -3.0780  3.5883
   63MOL0     H 8488   2.762   2.395   5.359 -0.2801 -0.2494  0.3750
   63MOL0     H 8489   2.762   2.853   5.568  1.3304  0.2932  0.9328
   63MOL0     H 8490   2.888   2.946   5.702  0.0645 -0.0454 -0.1239
   63MOL0     H 8491   1.885   3.495   6.303  3.3472 -1.3298  0.3616
   63MOL0     H 8492   1.796   3.560   6.531 -1.3372  0.3430 -0.1868
   63MOL0     H 8493   1.531   3.289   6.901  0.4221 -0.1345 -0.1779
   63MOL0     H 8494   1.335   3.320   7.042  1.6613  1.4947  2.3962
   63MOL0     H 8495   1.083   3.639   7.011 -1.1037  1.1040  0.6136
   63MOL0     H 8496   1.074   3.463   6.964  5.4859 -2.2374  2.1216
   63MOL0     H 8497   0.867   3.524   7.121 -0.2696  0.8414  1.7693
   63MOL0     H 8498   1.004   3.552   7.240  0.7717  1.5652 -0.5581
   63MOL0     H 8499   1.068   3.333   7.190 -1.3446 -1.4568  0.0245
   63MOL0     H 8500   0.922   3.297   7.101 -1.1109  0.7133 -0.2106
   63MOL0     H 8501   0.777   3.369   7.285  0.3407  2.0966 -1.8616
   63MOL0     H 8502   0.927   3.392   7.389  0.6376  1.0761 -0.6631
   63MOL0     H 8503   0.892   2.970   7.399  0.7608 -0.2840  0.5595
   63MOL0     H 8504   1.324   3.737   6.992  1.6539  0.5126 -0.6643
   63MOL0     H 8505   1.555   3.729   6.872 -0.6058 -0.5068 -2.2333
   64MOL0     O 8506   9.425   8.499  11.139  0.1779  0.1598 -0.3455
   64MOL0     C 8507   9.486   8.453  11.240 -0.6446  0.6526 -0.7269
   64MOL0     O 8508   9.470   8.324  11.293  0.3549 -0.4470  0.1109
   64MOL0     C 8509   9.361   8.238  11.249  0.2480  1.3418  0.8191
   64MOL0     C 8510   9.384   8.097  11.243  0.5353  0.3334  0.3221
   64MOL0     C 8511   9.280   8.003  11.205 -0.9845 -0.4723  0.9914
   64MOL0     C 8512   9.168   8.051  11.148 -0.6202  0.3339  0.1200
   64MOL0     O 8513   9.066   7.982  11.087 -0.2190 -1.1074 -0.6963
   64MOL0     C 8514   9.083   7.842  11.058  0.6707 -0.1656  0.0296
   64MOL0     C 8515   8.947   7.795  11.016  0.8030  0.4567  0.2441
   64MOL0     C 8516   8.895   7.866  10.884 -0.3465 -1.5909  0.2170
   64MOL0     C 8517   8.748   7.860  10.853  1.1839 -0.2313  0.4705
   64MOL0     C 8518   8.708   7.952  10.742 -0.2595 -0.1635 -0.2329
   64MOL0     C 8519   8.719   8.111  10.768  0.5332  0.7954 -0.5655
   64MOL0     C 8520   8.666   8.178  10.647 -0.6592  0.2380  0.4263
   64MOL0     C 8521   8.518   8.222  10.645 -0.4475  0.0095  0.1267
   64MOL0     N 8522   8.485   8.317  10.546  0.2202 -0.3874  0.6712
   64MOL0     C 8523   8.568   8.343  10.431  0.4761  0.3933  0.4759
   64MOL0     C 8524   8.506   8.450  10.370 -0.2901  0.3128  0.6776
   64MOL0     C 8525   8.559   8.529  10.244  1.1209  0.0220 -0.2623
   64MOL0     C 8526   8.465   8.491  10.132 -0.5566  0.9108  0.6108
   64MOL0     C 8527   8.520   8.526   9.992  0.8654 -0.5195 -0.4084
   64MOL0     C 8528   8.648   8.451   9.943 -0.5863  0.0899 -0.0849
   64MOL0     O 8529   8.624   8.306   9.953 -0.2577 -0.1612 -0.1198
   64MOL0     C 8530   8.608   8.235   9.837 -0.3110 -0.0093  0.1708
   64MOL0     C 8531   8.719   8.212   9.756 -0.4122 -0.2628 -0.4574
   64MOL0     C 8532   8.693   8.143   9.639 -0.0018  0.1338  0.1691
   64MOL0     C 8533   8.826   8.108   9.570  0.1107 -0.0385  0.2179
   64MOL0     C 8534   8.566   8.101   9.591  0.3976 -0.8404  0.4322
   64MOL0     C 8535   8.542   8.027   9.464 -0.4247  0.3552 -0.7072
   64MOL0     O 8536   8.644   8.023   9.369  0.8873  0.1119  0.3656
   64MOL0     C 8537   8.650   7.904   9.293 -0.0265 -0.9681 -0.1668
   64MOL0     C 8538   8.752   7.816   9.304  0.4360 -0.4542  0.1782
   64MOL0     C 8539   8.767   7.712   9.218  0.1675  0.0688  0.8156
   64MOL0     C 8540   8.673   7.689   9.122 -0.1812 -0.0213 -0.0768
   64MOL0     O 8541   8.710   7.575   9.059  0.3172 -0.1597 -0.7120
   64MOL0     C 8542   8.686   7.564   8.923 -0.1033  0.2903 -0.2118
   64MOL0     C 8543   8.807   7.488   8.864  0.4317 -0.5638 -0.4392
   64MOL0     C 8544   8.785   7.460   8.720  0.2089 -0.4669 -1.1374
   64MOL0     C 8545   8.907   7.497   8.633 -0.6964 -0.8589 -0.5736
   64MOL0     C 8546   9.037   7.415   8.663  0.4174  0.4506 -0.4508
   64MOL0     C 8547   9.042   7.276   8.603  0.1516 -0.4900 -0.0482
   64MOL0     C 8548   9.165   7.199   8.637 -0.6187 -0.0746 -0.2783
   64MOL0     C 8549   9.170   7.058   8.576  0.1176 -0.3056 -0.2597
   64MOL0    Cl 8550   9.030   6.957   8.629 -0.4508 -0.6757 -0.2222
   64MOL0     C 8551   8.568   7.777   9.111 -0.3956  0.4826  0.1027
   64MOL0     C 8552   8.566   7.888   9.191 -0.4741  1.0611  1.2595
   64MOL0     O 8553   8.428   7.984   9.455 -0.3304 -1.1753  0.6558
   64MOL0     C 8554   8.456   8.141   9.676  0.3395 -0.2716  0.0634
   64MOL0     C 8555   8.480   8.211   9.791  0.0547 -0.2014 -0.0060
   64MOL0     N 8556   8.385   8.482  10.445  0.2690 -0.8038 -0.1030
   64MOL0     N 8557   8.382   8.402  10.540 -0.0578  0.9067  0.5615
   64MOL0     C 8558   9.148   8.185  11.155 -0.3591 -0.9742  0.0913
   64MOL0     C 8559   9.234   8.281  11.211 -0.2797 -0.5228  0.3198
   64MOL0     C 8560   9.579   8.549  11.299 -0.3757 -0.3595  0.1111
   64MOL0     C 8561   9.584   8.680  11.248  0.7927  0.2261  0.6432
   64MOL0     C 8562   9.660   8.782  11.290  0.4435  0.6256  0.5834
   64MOL0     C 8563   9.748   8.755  11.406  0.5262 -0.0808  0.0014
   64MOL0     O 8564   9.818   8.846  11.469 -0.7847  0.6221  0.3379
   64MOL0     C 8565   9.829   8.976  11.416 -0.1210 -0.4063 -0.5864
   64MOL0     C 8566   9.958   9.050  11.465 -0.1489  0.4081  0.0330
   64MOL0     C 8567   9.964   9.204  11.460 -0.1858 -0.4685 -1.0678
   64MOL0     C 8568   9.973   9.257  11.316 -0.5891  0.2704  0.0791
   64MOL0     C 8569   9.844   9.231  11.253  1.2372  0.5931  0.2708
   64MOL0     C 8570   9.732   9.199  11.221 -0.7427 -0.1395  0.1645
   64MOL0     C 8571   9.740   8.623  11.459  0.7616  0.8211 -0.5406
   64MOL0     C 8572   9.652   8.526  11.416  0.8493 -0.3648  0.2423
   64MOL0     H 8573   9.484   8.065  11.270  0.3836 -2.8227 -2.3051
   64MOL0     H 8574   9.303   7.897  11.199  0.2163 -0.2129  0.6345
   64MOL0     H 8575   9.148   7.822  10.973 -0.4134  0.5368 -1.0077
   64MOL0     H 8576   9.112   7.786  11.147 -2.1037  0.4944  1.4677
   64MOL0     H 8577   8.957   7.690  10.987  3.8115  0.3279  1.4076
   64MOL0     H 8578   8.873   7.799  11.097  1.1689  2.5099  0.5386
   64MOL0     H 8579   8.930   7.969  10.897 -0.7899 -1.8012  4.0964
   64MOL0     H 8580   8.951   7.818  10.803  2.6523  0.5705  0.7949
   64MOL0     H 8581   8.734   7.760  10.811  3.8421  0.7459 -3.2482
   64MOL0     H 8582   8.686   7.875  10.942 -0.7995  0.6448 -0.9949
   64MOL0     H 8583   8.773   7.933  10.657  2.3482  1.5126  1.2495
   64MOL0     H 8584   8.604   7.934  10.711 -0.4067  1.2557 -0.5970
   64MOL0     H 8585   8.668   8.137  10.861 -1.0967 -1.1535 -0.8327
   64MOL0     H 8586   8.824   8.141  10.782 -0.1461  2.8088  0.6168
   64MOL0     H 8587   8.728   8.268  10.648  1.4239 -1.1169  0.3791
   64MOL0     H 8588   8.696   8.111  10.565  0.2099 -1.0623  1.7698
   64MOL0     H 8589   8.495   8.267  10.742 -0.4511  0.5894 -0.1391
   64MOL0     H 8590   8.469   8.125  10.631 -1.3624  0.5984 -0.9608
   64MOL0     H 8591   8.669   8.312  10.406  0.0272  1.5657 -3.5278
   64MOL0     H 8592   8.564   8.637  10.259  1.3632 -0.3343  2.6678
   64MOL0     H 8593   8.657   8.484  10.222  0.6269 -1.0357 -0.3632
   64MOL0     H 8594   8.380   8.558  10.151 -0.4215  3.1750 -4.9319
   64MOL0     H 8595   8.437   8.388  10.156 -2.7223  2.0287  3.4439
   64MOL0     H 8596   8.540   8.633   9.980  0.3306 -0.6856 -3.3243
   64MOL0     H 8597   8.442   8.497   9.922 -1.0680  0.9579  1.0296
   64MOL0     H 8598   8.724   8.474  10.019 -0.6031  0.4313 -0.1664
   64MOL0     H 8599   8.674   8.493   9.845 -1.0832  1.3459  0.2962
   64MOL0     H 8600   8.814   8.253   9.790 -2.0488  3.2722  0.3086
   64MOL0     H 8601   8.820   8.000   9.551 -1.2178  0.1090 -0.3636
   64MOL0     H 8602   8.841   8.149   9.470  0.3026  2.4317  1.1862
   64MOL0     H 8603   8.911   8.139   9.630 -0.7986  3.7268 -0.2061
   64MOL0     H 8604   8.819   7.835   9.388 -0.8011 -0.7202  1.2497
   64MOL0     H 8605   8.853   7.647   9.234 -0.3537 -0.3010  2.2777
   64MOL0     H 8606   8.596   7.508   8.895 -1.1172  1.3049  0.9066
   64MOL0     H 8607   8.684   7.664   8.879  1.6063  0.9635  1.0994
   64MOL0     H 8608   8.903   7.538   8.882  1.0303 -1.5809 -0.7085
   64MOL0     H 8609   8.812   7.389   8.911  1.3709 -2.3728 -3.9615
   64MOL0     H 8610   8.695   7.503   8.676  0.4615  1.3968  0.0630
   64MOL0     H 8611   8.769   7.352   8.710 -3.2961 -0.2130  0.3934
   64MOL0     H 8612   8.875   7.494   8.529  3.2497  2.0177 -2.0853
   64MOL0     H 8613   8.938   7.600   8.655  0.6101 -1.6928  1.9340
   64MOL0     H 8614   9.034   7.412   8.773  3.5177  4.7733  0.0519
   64MOL0     H 8615   9.121   7.476   8.628 -1.0450  3.4692  0.9534
   64MOL0     H 8616   8.961   7.222   8.653  0.0870  0.9810  1.5047
   64MOL0     H 8617   9.024   7.273   8.495 -3.7124 -1.8146  0.4730
   64MOL0     H 8618   9.180   7.196   8.745 -1.2931 -0.1339 -0.1810
   64MOL0     H 8619   9.246   7.249   8.583 -0.0942 -1.3779 -0.7262
   64MOL0     H 8620   9.264   7.007   8.598 -0.2836 -1.2814 -0.7225
   64MOL0     H 8621   9.161   7.055   8.467  0.0070  1.5285 -0.3292
   64MOL0     H 8622   8.506   7.767   9.022 -1.5260  0.7856  0.8398
   64MOL0     H 8623   8.490   7.961   9.163 -1.0597  0.9115  2.3983
   64MOL0     H 8624   8.353   8.125   9.650 -0.0682  0.9467  0.8265
   64MOL0     H 8625   8.400   8.237   9.860  0.8577  2.1914  0.1109
   64MOL0     H 8626   9.051   8.206  11.112  0.4444 -1.6420 -2.1669
   64MOL0     H 8627   9.211   8.386  11.199  3.1300  0.0645 -3.0882
   64MOL0     H 8628   9.529   8.696  11.156  0.8503  2.1610  0.9096
   64MOL0     H 8629   9.662   8.878  11.240  1.0938 -0.9710 -2.7152
   64MOL0     H 8630   9.835   8.987  11.307  0.2149  0.6977 -0.4668
   64MOL0     H 8631   9.744   9.037  11.445 -0.4928 -0.7615 -0.9125
   64MOL0     H 8632  10.048   9.002  11.425  0.8243  2.0393  0.1563
   64MOL0     H 8633   9.968   9.032  11.572 -2.2268  1.1585  0.3982
   64MOL0     H 8634  10.046   9.242  11.522 -0.6455 -0.9194 -0.1710
   64MOL0     H 8635   9.883   9.246  11.521 -0.6972 -1.9837 -0.6720
   64MOL0     H 8636  10.056   9.211  11.262 -0.3161  0.9809 -0.1284
   64MOL0     H 8637   9.997   9.364  11.316  0.4495  0.0583  1.0965
   64MOL0     H 8638   9.634   9.172  11.189 -0.0587 -1.0414 -1.2511
   64MOL0     H 8639   9.794   8.600  11.550 -1.0685 -0.2247  0.3391
   64MOL0     H 8640   9.660   8.429  11.463 -2.7390 -0.3306  1.2473
   65MOL0     O 8641   2.702   7.715   0.511  0.7443 -0.1330 -0.0790
   65MOL0     C 8642   2.583   7.721   0.521  0.4162 -0.8139 -0.0278
   65MOL0     O 8643   2.511   7.719   0.644  0.0962  0.8421 -0.2084
   65MOL0     C 8644   2.561   7.667   0.760 -0.6232 -0.0485  0.5592
   65MOL0     C 8645   2.671   7.590   0.769  0.3954 -0.3834  0.1530
   65MOL0     C 8646   2.703   7.534   0.894 -0.1658  0.4860  0.4736
   65MOL0     C 8647   2.630   7.564   1.012 -0.5360  0.1150  0.9934
   65MOL0     O 8648   2.653   7.518   1.136  0.2947  0.7933 -0.4136
   65MOL0     C 8649   2.788   7.495   1.181  0.6808 -1.0298  1.1721
   65MOL0     C 8650   2.812   7.585   1.305  0.6825  0.2142  0.2664
   65MOL0     C 8651   2.950   7.578   1.368 -1.2433  0.1557  0.1077
   65MOL0     C 8652   2.938   7.574   1.508 -0.1345  0.1618 -1.2038
   65MOL0     C 8653   3.074   7.550   1.576  0.8909 -0.2431 -0.6070
   65MOL0     C 8654   3.057   7.545   1.731 -0.1846 -0.3887 -0.2279
   65MOL0     C 8655   3.188   7.572   1.813 -0.4110  0.0140 -0.0287
   65MOL0     C 8656   3.160   7.641   1.950 -0.5172 -0.0894  0.0586
   65MOL0     N 8657   3.076   7.553   2.036 -0.0086  0.3752  0.1061
   65MOL0     C 8658   3.087   7.427   2.076 -0.0307  0.5842 -0.8106
   65MOL0     C 8659   2.978   7.406   2.152 -0.4607 -0.2967 -0.0790
   65MOL0     C 8660   2.932   7.259   2.204  0.0212 -0.2359 -0.3080
   65MOL0     C 8661   2.895   7.169   2.090 -0.1409  0.0797 -0.1377
   65MOL0     C 8662   2.777   7.217   2.022  1.0669  0.2566  0.1969
   65MOL0     C 8663   2.741   7.136   1.906  0.7849 -1.0618  0.7117
   65MOL0     O 8664   2.822   7.169   1.795 -0.2626 -0.2089  0.5289
   65MOL0     C 8665   2.785   7.125   1.674 -0.4804 -1.1692  0.1154
   65MOL0     C 8666   2.664   7.041   1.649 -0.4780 -0.1704  0.0013
   65MOL0     C 8667   2.640   6.993   1.523  0.5872  0.9394  0.1250
   65MOL0     C 8668   2.521   6.895   1.513 -0.3414  0.1195  0.4335
   65MOL0     C 8669   2.720   7.042   1.407  0.5092 -0.2423 -0.3778
   65MOL0     C 8670   2.688   7.016   1.261  0.3359 -0.4762 -0.3324
   65MOL0     O 8671   2.789   7.041   1.172  0.0787 -0.1502  0.0272
   65MOL0     C 8672   2.754   7.059   1.038 -0.2434 -0.3853  0.2561
   65MOL0     C 8673   2.659   7.158   0.996  0.7172  0.5247 -0.2803
   65MOL0     C 8674   2.625   7.162   0.860 -0.1987  0.3062 -0.5217
   65MOL0     C 8675   2.685   7.079   0.768  0.4094 -0.1830 -0.5722
   65MOL0     O 8676   2.668   7.098   0.634 -0.0403  0.3084  0.9797
   65MOL0     C 8677   2.731   7.210   0.577 -0.3271  0.0195 -0.0018
   65MOL0     C 8678   2.614   7.290   0.502  0.3448 -0.2728 -0.4630
   65MOL0     C 8679   2.662   7.325   0.365  0.6128 -0.3887 -0.5632
   65MOL0     C 8680   2.551   7.405   0.300  0.5005 -0.3737 -0.0630
   65MOL0     C 8681   2.585   7.439   0.158  0.1971  0.1531 -0.2952
   65MOL0     C 8682   2.716   7.509   0.135  0.6506  0.1482  0.5021
   65MOL0     C 8683   2.730   7.576  -0.005 -0.1594 -0.5679  0.1108
   65MOL0     C 8684   2.858   7.662  -0.019 -1.1910  0.0303 -0.1801
   65MOL0    Cl 8685   2.877   7.731  -0.173 -0.3014 -0.0757  0.0421
   65MOL0     C 8686   2.790   6.984   0.808 -0.1431  0.0369  0.4012
   65MOL0     C 8687   2.825   6.977   0.946  0.8179  0.9174 -0.4906
   65MOL0     O 8688   2.570   6.987   1.232 -0.7256 -0.8427 -0.4118
   65MOL0     C 8689   2.827   7.130   1.441  0.4565 -0.7688  1.0169
   65MOL0     C 8690   2.863   7.168   1.570  0.0090 -0.5967 -0.7203
   65MOL0     N 8691   2.902   7.521   2.163 -0.2125 -0.1077  0.2275
   65MOL0     N 8692   2.970   7.616   2.104 -0.4743 -0.0934 -0.1192
   65MOL0     C 8693   2.516   7.655   0.991 -0.4987 -0.0476  0.0103
   65MOL0     C 8694   2.486   7.703   0.863  0.2338 -0.1652 -0.2453
   65MOL0     C 8695   2.507   7.750   0.400  0.3728  0.3459  0.4154
   65MOL0     C 8696   2.569   7.797   0.282  0.0833  0.2972 -0.7893
   65MOL0     C 8697   2.497   7.852   0.181 -0.3276 -0.2483 -0.5180
   65MOL0     C 8698   2.358   7.845   0.171  0.5818  0.0274 -0.3905
   65MOL0     O 8699   2.285   7.901   0.072 -0.5746  0.0171 -0.5688
   65MOL0     C 8700   2.341   7.946  -0.050 -1.0289  0.0999  0.1208
   65MOL0     C 8701   2.258   7.927  -0.178  0.5281 -1.2998 -0.0397
   65MOL0     C 8702   2.219   7.788  -0.201 -0.3266 -0.4487  0.3341
   65MOL0     C 8703   2.125   7.777  -0.321  0.4630 -0.2407 -0.2352
   65MOL0     C 8704   2.113   7.641  -0.379 -0.8323 -0.5399  0.9299
   65MOL0     C 8705   2.119   7.521  -0.410  0.4672 -0.1280  0.8685
   65MOL0     C 8706   2.290   7.795   0.287  0.2656 -0.0940  0.4389
   65MOL0     C 8707   2.371   7.740   0.397  0.2081 -0.1124  0.6819
   65MOL0     H 8708   2.735   7.554   0.689  2.0616 -0.0483  1.2655
   65MOL0     H 8709   2.782   7.462   0.910 -2.4255 -2.1372  0.4889
   65MOL0     H 8710   2.797   7.391   1.212  2.0489 -1.7098 -1.2783
   65MOL0     H 8711   2.870   7.517   1.113 -0.3831 -1.5444 -0.3283
   65MOL0     H 8712   2.801   7.682   1.256  2.0486 -1.0441 -2.8054
   65MOL0     H 8713   2.726   7.564   1.368  1.6894 -2.4543  0.9177
   65MOL0     H 8714   3.010   7.495   1.331  0.5248  1.0420  0.8635
   65MOL0     H 8715   3.017   7.660   1.338 -1.0774  0.0933  0.3054
   65MOL0     H 8716   2.898   7.667   1.550 -1.4882 -0.4245 -1.1795
   65MOL0     H 8717   2.872   7.490   1.532 -0.0973 -0.9287 -4.4882
   65MOL0     H 8718   3.121   7.456   1.546 -1.2483 -2.3235  1.9994
   65MOL0     H 8719   3.134   7.636   1.546  1.3912 -1.0780 -2.0894
   65MOL0     H 8720   2.971   7.606   1.761 -1.4225 -1.7489 -0.8991
   65MOL0     H 8721   3.023   7.443   1.751 -0.5740  0.0045  1.2494
   65MOL0     H 8722   3.249   7.482   1.826 -1.1893 -0.2727  2.1912
   65MOL0     H 8723   3.247   7.646   1.759  2.0633 -1.0896  0.9968
   65MOL0     H 8724   3.119   7.740   1.926  0.8699  0.8291  1.2914
   65MOL0     H 8725   3.257   7.649   2.000 -0.3605 -2.4812  0.2290
   65MOL0     H 8726   3.159   7.352   2.044 -2.1254 -1.6132 -0.6057
   65MOL0     H 8727   3.015   7.211   2.255 -1.5346 -1.7712  0.8968
   65MOL0     H 8728   2.845   7.249   2.269 -1.9018  1.4588 -2.4308
   65MOL0     H 8729   2.879   7.067   2.128  2.2466  0.3372  1.7813
   65MOL0     H 8730   2.978   7.158   2.020  0.2336 -2.8037  0.6190
   65MOL0     H 8731   2.794   7.319   1.987 -1.9626  1.0448  0.7560
   65MOL0     H 8732   2.693   7.214   2.092  0.4293  1.6303 -0.4861
   65MOL0     H 8733   2.635   7.157   1.889  0.9988  2.1519  2.4601
   65MOL0     H 8734   2.746   7.030   1.931  1.9338 -1.4786 -1.1504
   65MOL0     H 8735   2.588   7.012   1.720 -1.3422 -3.5733 -2.0978
   65MOL0     H 8736   2.510   6.830   1.426 -3.5363  1.5175 -0.3486
   65MOL0     H 8737   2.507   6.839   1.606 -0.3569 -0.1979  0.2411
   65MOL0     H 8738   2.439   6.965   1.498  1.3063  1.7697 -1.6629
   65MOL0     H 8739   2.606   7.217   1.070  1.7383 -1.4949  2.2544
   65MOL0     H 8740   2.553   7.240   0.836 -1.5255 -0.6236  0.2596
   65MOL0     H 8741   2.766   7.270   0.661 -1.3292  0.4507  0.1310
   65MOL0     H 8742   2.819   7.189   0.516 -2.1938  1.1452 -3.3949
   65MOL0     H 8743   2.519   7.234   0.502 -0.3440  0.7178 -3.4327
   65MOL0     H 8744   2.588   7.374   0.566 -0.1127 -0.5501 -0.2773
   65MOL0     H 8745   2.679   7.228   0.317  1.6052  0.1394 -1.3105
   65MOL0     H 8746   2.754   7.382   0.373 -0.2280  1.0133 -0.5036
   65MOL0     H 8747   2.459   7.345   0.304 -2.4267  3.7143  0.2268
   65MOL0     H 8748   2.523   7.494   0.358 -0.0927  0.5815 -1.7474
   65MOL0     H 8749   2.510   7.506   0.115  1.9570  2.5582  0.1818
   65MOL0     H 8750   2.588   7.343   0.105  1.1485  0.7389 -1.3432
   65MOL0     H 8751   2.735   7.579   0.217 -1.2866  0.1099  1.0462
   65MOL0     H 8752   2.803   7.443   0.145  0.6793  0.5341  4.3022
   65MOL0     H 8753   2.647   7.647  -0.014  2.2295  2.7965  2.0830
   65MOL0     H 8754   2.737   7.493  -0.075 -0.2690 -2.5420  2.3194
   65MOL0     H 8755   2.945   7.606   0.018 -2.0718 -0.9153  0.5080
   65MOL0     H 8756   2.856   7.745   0.052 -1.3189  1.9357 -2.3047
   65MOL0     H 8757   2.850   6.921   0.744  1.1916 -1.2739  2.7723
   65MOL0     H 8758   2.898   6.910   0.991  0.9063  2.5415  2.0078
   65MOL0     H 8759   2.898   7.168   1.368  0.7031  0.4527  1.8528
   65MOL0     H 8760   2.937   7.246   1.588 -1.3797  0.7231 -0.5524
   65MOL0     H 8761   2.456   7.684   1.077 -0.0896  1.5018 -0.2153
   65MOL0     H 8762   2.396   7.763   0.850  0.7593  1.2843  2.1240
   65MOL0     H 8763   2.675   7.779   0.264  0.0125 -0.0645 -0.8615
   65MOL0     H 8764   2.546   7.887   0.091 -1.6764  1.4249 -0.6596
   65MOL0     H 8765   2.357   8.054  -0.041  2.6996 -0.1570 -1.4730
   65MOL0     H 8766   2.437   7.896  -0.066 -0.6586  1.0757 -0.8134
   65MOL0     H 8767   2.317   7.949  -0.267 -1.2505  5.1323 -0.0857
   65MOL0     H 8768   2.180   8.004  -0.175  1.9014  0.1928 -1.1044
   65MOL0     H 8769   2.180   7.741  -0.110 -0.3314 -1.4406 -0.1630
   65MOL0     H 8770   2.313   7.741  -0.233  2.5985  3.5425  2.1578
   65MOL0     H 8771   2.153   7.840  -0.405 -4.9215  4.1943  0.7189
   65MOL0     H 8772   2.030   7.819  -0.287  0.3578  2.0122 -2.9320
   65MOL0     H 8773   2.122   7.415  -0.425  1.3176 -0.0246  0.2674
   65MOL0     H 8774   2.182   7.797   0.278  0.4045  3.6486 -2.6240
   65MOL0     H 8775   2.318   7.696   0.480 -0.5201  1.2027  0.9506
   66MOL0     O 8776   4.330  11.082  10.725  0.4516  0.4367 -0.3382
   66MOL0     C 8777   4.408  11.037  10.642 -0.4756 -0.3366  0.1022
   66MOL0     O 8778   4.465  10.923  10.636 -0.0716 -0.4204  1.0979
   66MOL0     C 8779   4.454  10.848  10.752 -0.2893  0.2242 -0.3128
   66MOL0     C 8780   4.373  10.727  10.758  0.2550  0.1215 -0.0848
   66MOL0     C 8781   4.380  10.640  10.866  0.1415  0.1278 -0.2460
   66MOL0     C 8782   4.486  10.658  10.966  1.1660  0.7702  0.7222
   66MOL0     O 8783   4.503  10.550  11.044  0.9853 -0.1949 -0.6737
   66MOL0     C 8784   4.634  10.554  11.123 -0.5284 -0.1283 -0.6194
   66MOL0     C 8785   4.755  10.524  11.034 -0.3653  0.1917 -0.9709
   66MOL0     C 8786   4.895  10.548  11.107 -0.1864 -0.7676  0.1518
   66MOL0     C 8787   4.932  10.694  11.126 -0.2554  0.0310 -0.9351
   66MOL0     C 8788   5.079  10.722  11.105  1.2352 -0.3183 -0.0766
   66MOL0     C 8789   5.112  10.864  11.130  0.0846  0.0113 -0.2731
   66MOL0     C 8790   5.260  10.887  11.116  0.0955  0.6099 -0.6266
   66MOL0     C 8791   5.307  11.032  11.142  0.3631 -0.7051 -0.3258
   66MOL0     N 8792   5.452  11.061  11.102 -0.2720  0.6311 -0.2623
   66MOL0     C 8793   5.566  10.998  11.146 -0.4171  0.3020  0.4147
   66MOL0     C 8794   5.677  11.069  11.101 -0.1496 -0.0500 -0.8092
   66MOL0     C 8795   5.826  11.064  11.115  0.5106  0.5135  0.7885
   66MOL0     C 8796   5.876  10.915  11.119  0.5480 -0.0685  0.3964
   66MOL0     C 8797   6.028  10.911  11.107  0.4338 -0.6038  0.2957
   66MOL0     C 8798   6.067  10.763  11.104  0.3976 -0.3200  0.2387
   66MOL0     O 8799   6.067  10.721  11.237 -0.2523 -0.1421 -0.1376
   66MOL0     C 8800   6.175  10.748  11.317  0.0178 -0.1449 -0.3975
   66MOL0     C 8801   6.158  10.737  11.459  0.4868 -0.3976 -0.4153
   66MOL0     C 8802   6.266  10.745  11.551  0.8076 -0.2449  0.3971
   66MOL0     C 8803   6.231  10.725  11.699  0.3041 -0.4120 -0.2703
   66MOL0     C 8804   6.393  10.787  11.496 -0.0410  0.2942 -0.1887
   66MOL0     C 8805   6.510  10.827  11.581  0.1621  0.3892 -0.7465
   66MOL0     O 8806   6.645  10.828  11.539  0.3911 -0.8033  0.2037
   66MOL0     C 8807   6.757  10.841  11.630 -0.0468  0.3046  0.5913
   66MOL0     C 8808   6.882  10.891  11.575  0.9071  0.9540  0.6001
   66MOL0     C 8809   6.997  10.882  11.646 -1.4856 -0.8608  0.2716
   66MOL0     C 8810   7.001  10.840  11.785  0.1546 -0.1439  0.1434
   66MOL0     O 8811   7.124  10.855  11.853 -0.6070 -0.3368 -0.3744
   66MOL0     C 8812   7.215  10.750  11.837  0.2223  1.0326  0.7340
   66MOL0     C 8813   7.310  10.754  11.953 -0.1088  0.1875  0.4128
   66MOL0     C 8814   7.381  10.620  11.973  1.3154  0.0009  0.4124
   66MOL0     C 8815   7.511  10.637  12.057  0.1106 -0.1191  0.1155
   66MOL0     C 8816   7.572  10.488  12.069  0.0256  0.2071  0.4971
   66MOL0     C 8817   7.661  10.456  12.187  0.2918 -0.1430  0.1680
   66MOL0     C 8818   7.769  10.553  12.225 -0.8061 -0.9076 -0.5820
   66MOL0     C 8819   7.884  10.576  12.112  0.6912  0.4955  0.3660
   66MOL0    Cl 8820   8.001  10.688  12.186  0.5143 -0.2050 -0.1232
   66MOL0     C 8821   6.883  10.798  11.845  1.4652  0.5978  0.7603
   66MOL0     C 8822   6.763  10.780  11.759 -0.7665  0.0566  0.1472
   66MOL0     O 8823   6.470  10.880  11.688 -0.1747  0.4283  0.3262
   66MOL0     C 8824   6.407  10.804  11.357 -0.9640  0.4357  0.4104
   66MOL0     C 8825   6.299  10.773  11.269 -1.1724  0.6693 -0.3827
   66MOL0     N 8826   5.624  11.170  11.021  0.2868 -0.2177 -0.6233
   66MOL0     N 8827   5.489  11.166  11.028  0.1721 -0.5714 -0.5716
   66MOL0     C 8828   4.559  10.776  10.964  0.0494 -0.4805 -0.4193
   66MOL0     C 8829   4.544  10.871  10.859 -0.1023 -0.2580  1.4270
   66MOL0     C 8830   4.428  11.137  10.540 -0.4013 -1.2367  0.6907
   66MOL0     C 8831   4.352  11.258  10.534  0.4701  0.1685 -0.1600
   66MOL0     C 8832   4.380  11.350  10.438  0.2169  0.5772 -0.9504
   66MOL0     C 8833   4.470  11.326  10.328 -0.4899 -1.2251  0.3703
   66MOL0     O 8834   4.510  11.414  10.234 -1.1191  0.0855  0.8390
   66MOL0     C 8835   4.534  11.545  10.283 -0.5444  0.2097 -0.4145
   66MOL0     C 8836   4.623  11.552  10.411 -0.1027  0.8885  0.5190
   66MOL0     C 8837   4.756  11.467  10.393 -0.6315 -0.0767 -0.6409
   66MOL0     C 8838   4.857  11.524  10.494 -0.5224  0.0562 -0.2523
   66MOL0     C 8839   4.984  11.449  10.477  0.7212  0.1540  0.0678
   66MOL0     C 8840   5.062  11.371  10.436 -0.1819  0.0904 -0.0957
   66MOL0     C 8841   4.541  11.209  10.332 -0.3937 -0.0296 -0.4913
   66MOL0     C 8842   4.525  11.112  10.437 -0.0810 -0.4815 -0.3456
   66MOL0     H 8843   4.317  10.693  10.671  2.0044 -0.9138 -0.8557
   66MOL0     H 8844   4.319  10.550  10.868 -0.3599  0.4502  2.5478
   66MOL0     H 8845   4.648  10.652  11.171  1.7285 -1.9745  2.9377
   66MOL0     H 8846   4.635  10.484  11.207  0.6076 -1.9348 -2.0564
   66MOL0     H 8847   4.752  10.419  11.004 -3.1175  0.5518 -2.2735
   66MOL0     H 8848   4.760  10.578  10.939 -1.7861 -0.1517 -1.2579
   66MOL0     H 8849   4.897  10.497  11.203  1.0929  1.0171  1.1392
   66MOL0     H 8850   4.972  10.491  11.056 -0.2825 -0.2147 -0.6411
   66MOL0     H 8851   4.865  10.749  11.059 -1.9726 -1.4122 -0.5012
   66MOL0     H 8852   4.905  10.716  11.230 -0.9365 -0.9041 -0.9014
   66MOL0     H 8853   5.133  10.656  11.175  0.6335 -0.1550  0.5533
   66MOL0     H 8854   5.115  10.700  11.004  1.8438 -0.6624  0.2051
   66MOL0     H 8855   5.059  10.934  11.065 -2.7414 -0.5023  1.3092
   66MOL0     H 8856   5.077  10.879  11.233  1.1478  5.0755 -0.4009
   66MOL0     H 8857   5.301  10.810  11.182 -0.1168  0.0648 -1.1236
   66MOL0     H 8858   5.285  10.867  11.012  0.7296  1.9409 -0.7413
   66MOL0     H 8859   5.295  11.065  11.246  0.8914  0.0082 -0.4765
   66MOL0     H 8860   5.234  11.088  11.084  0.5812 -0.3543 -0.2648
   66MOL0     H 8861   5.572  10.908  11.208  0.6710 -1.4148 -2.0456
   66MOL0     H 8862   5.874  11.105  11.026 -0.0241 -0.0091  0.2508
   66MOL0     H 8863   5.863  11.116  11.205 -1.1281  1.2230  1.0952
   66MOL0     H 8864   5.842  10.865  11.027 -0.5922  0.5682  0.4635
   66MOL0     H 8865   5.844  10.861  11.208  0.7864 -0.4385  0.2611
   66MOL0     H 8866   6.068  10.964  11.194  1.6576 -0.7680 -0.1340
   66MOL0     H 8867   6.067  10.958  11.016 -0.2250 -1.4690 -0.4581
   66MOL0     H 8868   6.165  10.757  11.056  2.4957  0.1469  4.0719
   66MOL0     H 8869   5.998  10.698  11.049 -0.6956 -0.3448  1.5984
   66MOL0     H 8870   6.056  10.710  11.482  0.4746 -0.1095 -0.1324
   66MOL0     H 8871   6.317  10.674  11.744  1.2294  1.7751  0.5801
   66MOL0     H 8872   6.224  10.824  11.747 -0.2643 -0.1810 -0.8240
   66MOL0     H 8873   6.145  10.661  11.718 -0.3585  0.8214  1.0615
   66MOL0     H 8874   6.877  10.932  11.474  2.3600 -1.1507 -0.4225
   66MOL0     H 8875   7.086  10.928  11.606 -2.5909  1.7371  0.5799
   66MOL0     H 8876   7.161  10.655  11.837  1.8926 -0.0070 -1.2411
   66MOL0     H 8877   7.262  10.758  11.738 -3.8631 -1.1064 -1.6618
   66MOL0     H 8878   7.381  10.832  11.925 -0.5408  0.3926 -0.1205
   66MOL0     H 8879   7.255  10.781  12.044  1.9287  0.5504  1.6143
   66MOL0     H 8880   7.411  10.574  11.878 -1.6034 -0.7845 -0.2500
   66MOL0     H 8881   7.307  10.552  12.017 -2.2789  0.7388 -3.7229
   66MOL0     H 8882   7.579  10.708  12.009 -0.5209  0.0380 -0.5618
   66MOL0     H 8883   7.491  10.675  12.158 -0.7236  1.1302 -0.4894
   66MOL0     H 8884   7.625  10.454  11.979 -0.1778 -0.0606  0.4776
   66MOL0     H 8885   7.495  10.412  12.087  0.8423 -0.7704 -0.0346
   66MOL0     H 8886   7.598  10.446  12.276  0.0460  0.7566  0.1010
   66MOL0     H 8887   7.720  10.365  12.175  0.9755 -0.1858  2.9536
   66MOL0     H 8888   7.794  10.522  12.327 -1.1971  0.8606  0.0918
   66MOL0     H 8889   7.718  10.649  12.241 -0.5980 -0.9375  0.3452
   66MOL0     H 8890   7.835  10.633  12.032  0.2472 -1.6123 -0.9426
   66MOL0     H 8891   7.925  10.479  12.083 -0.5120  0.0779 -0.0224
   66MOL0     H 8892   6.874  10.779  11.951 -1.1334  1.5221  0.7663
   66MOL0     H 8893   6.679  10.737  11.811 -0.9245  0.2923  0.0845
   66MOL0     H 8894   6.508  10.835  11.332 -0.7268  1.1858  2.1799
   66MOL0     H 8895   6.325  10.795  11.166  2.8611 -2.7620 -0.3725
   66MOL0     H 8896   4.620  10.806  11.049  0.1450 -4.4510  1.1186
   66MOL0     H 8897   4.586  10.971  10.857  1.2755 -0.7328 -2.7508
   66MOL0     H 8898   4.272  11.292  10.599 -3.1450 -3.3412 -2.3512
   66MOL0     H 8899   4.340  11.451  10.440  1.9164  1.3286 -2.0469
   66MOL0     H 8900   4.575  11.603  10.200  0.3624 -1.3966 -1.1431
   66MOL0     H 8901   4.437  11.592  10.298  0.0285  0.6856  2.3466
   66MOL0     H 8902   4.575  11.517  10.502 -2.3751  1.0951 -0.5209
   66MOL0     H 8903   4.661  11.655  10.414  2.2211  0.1605 -0.9706
   66MOL0     H 8904   4.792  11.467  10.289  1.9332 -0.4579  0.1800
   66MOL0     H 8905   4.747  11.361  10.420  0.3186 -0.0417 -0.1338
   66MOL0     H 8906   4.823  11.510  10.597  1.2111 -3.5320 -0.0329
   66MOL0     H 8907   4.868  11.630  10.471  1.2040 -0.0551 -0.0632
   66MOL0     H 8908   5.121  11.299  10.382  1.2406  1.8760 -1.0346
   66MOL0     H 8909   4.609  11.188  10.250 -1.3284 -0.3313 -1.2043
   66MOL0     H 8910   4.589  11.024  10.432  2.0873  0.7807  2.4850
   67MOL0     O 8911   5.890   3.118   2.617 -0.0517  0.2312 -0.4691
   67MOL0     C 8912   5.950   3.063   2.708  0.0889 -0.2582 -0.5425
   67MOL0     O 8913   5.957   3.111   2.834  0.7353  0.2615  0.2966
   67MOL0     C 8914   5.897   3.239   2.847 -0.6176 -0.1092 -0.5754
   67MOL0     C 8915   5.985   3.352   2.835 -0.3879  0.1290 -0.5251
   67MOL0     C 8916   5.941   3.474   2.856  0.6907 -0.4067 -0.3634
   67MOL0     C 8917   5.803   3.499   2.884 -0.2893 -0.1750 -0.0275
   67MOL0     O 8918   5.773   3.631   2.901 -0.0624  0.6270  0.2940
   67MOL0     C 8919   5.646   3.670   2.967 -0.4042  0.1153 -0.1022
   67MOL0     C 8920   5.634   3.817   3.010 -1.0386 -0.2902  0.9003
   67MOL0     C 8921   5.491   3.850   3.060  0.4892  0.1361  0.1956
   67MOL0     C 8922   5.461   3.981   3.133 -0.1635  0.5244  0.8223
   67MOL0     C 8923   5.327   3.973   3.214  0.3307  0.5875  0.0493
   67MOL0     C 8924   5.279   4.103   3.276 -0.2755  0.2801  0.3900
   67MOL0     C 8925   5.152   4.086   3.365  0.3509 -0.4820  1.3744
   67MOL0     C 8926   5.082   4.226   3.396  0.2566 -0.1931 -0.1949
   67MOL0     N 8927   4.952   4.221   3.458 -0.7316 -0.4724 -0.8272
   67MOL0     C 8928   4.858   4.123   3.428  0.0384  1.1974  0.1519
   67MOL0     C 8929   4.764   4.127   3.530  0.1462  0.9783  0.3528
   67MOL0     C 8930   4.634   4.049   3.563 -0.1829 -0.4177  0.0288
   67MOL0     C 8931   4.648   3.902   3.537 -0.3646  0.2852  0.3953
   67MOL0     C 8932   4.527   3.834   3.588  0.3430  0.3961  0.3901
   67MOL0     C 8933   4.527   3.682   3.537 -0.3051 -1.3424 -1.0286
   67MOL0     O 8934   4.522   3.682   3.392 -0.4980 -0.5863 -0.4696
   67MOL0     C 8935   4.547   3.565   3.318 -0.3131  0.4659  0.0058
   67MOL0     C 8936   4.555   3.444   3.381 -0.4990 -0.6559 -0.1973
   67MOL0     C 8937   4.563   3.323   3.308 -0.2181 -0.6999  0.2064
   67MOL0     C 8938   4.569   3.188   3.387 -0.2699 -0.1761  0.0849
   67MOL0     C 8939   4.564   3.329   3.174 -0.8037 -0.4672 -0.4534
   67MOL0     C 8940   4.568   3.209   3.100  1.2066 -0.4422 -0.3478
   67MOL0     O 8941   4.682   3.156   3.061  0.4459  0.1086 -0.0804
   67MOL0     C 8942   4.668   3.038   2.989  0.5244 -0.1506  0.6569
   67MOL0     C 8943   4.686   3.031   2.854  0.1340 -0.3896  0.5230
   67MOL0     C 8944   4.653   2.916   2.774 -0.3738 -0.8197  0.4159
   67MOL0     C 8945   4.618   2.800   2.839 -1.4956 -0.0573  0.1042
   67MOL0     O 8946   4.592   2.683   2.785 -0.3679  0.4607  0.0949
   67MOL0     C 8947   4.687   2.578   2.814  0.4788 -0.3323 -0.5578
   67MOL0     C 8948   4.671   2.445   2.750  0.0452 -0.1047 -0.0904
   67MOL0     C 8949   4.589   2.447   2.624 -0.3402  1.1628  0.5872
   67MOL0     C 8950   4.538   2.312   2.566  0.7148 -0.5003  0.5516
   67MOL0     C 8951   4.464   2.305   2.429  0.6261 -0.1505  0.9165
   67MOL0     C 8952   4.330   2.386   2.446 -0.1110  0.3498 -0.2413
   67MOL0     C 8953   4.246   2.395   2.320  0.9456 -0.6226  0.1174
   67MOL0     C 8954   4.156   2.526   2.308  0.0659  0.4448  0.4896
   67MOL0    Cl 8955   4.243   2.673   2.332 -0.2056  0.1462  0.1953
   67MOL0     C 8956   4.600   2.808   2.984 -0.2857  0.5910  0.4103
   67MOL0     C 8957   4.625   2.925   3.057 -0.3637  0.3006 -0.5238
   67MOL0     O 8958   4.455   3.163   3.070 -0.2670 -0.4832  1.4060
   67MOL0     C 8959   4.565   3.453   3.113 -0.7598  0.3555  0.3804
   67MOL0     C 8960   4.558   3.575   3.184 -0.7286  1.1547 -0.9250
   67MOL0     N 8961   4.816   4.217   3.623  0.0585 -0.3353 -0.5240
   67MOL0     N 8962   4.932   4.270   3.581  0.3238 -0.1831 -0.2752
   67MOL0     C 8963   5.712   3.391   2.888  0.7165  0.1743  1.0419
   67MOL0     C 8964   5.763   3.262   2.866 -0.2558 -0.1310  0.1793
   67MOL0     C 8965   6.017   2.936   2.694 -0.2325 -0.2766 -0.1703
   67MOL0     C 8966   6.011   2.846   2.809 -0.1308 -0.2422  0.9503
   67MOL0     C 8967   6.058   2.720   2.783  0.9892  0.5055 -0.9982
   67MOL0     C 8968   6.099   2.671   2.663 -0.3631  0.0403  0.7141
   67MOL0     O 8969   6.140   2.537   2.631 -1.0050 -0.4663 -0.0960
   67MOL0     C 8970   6.186   2.454   2.735 -0.6720 -0.3286 -0.7368
   67MOL0     C 8971   6.089   2.344   2.761  0.3765  0.3118  0.6849
   67MOL0     C 8972   6.154   2.243   2.860  0.2408 -0.0914  0.1817
   67MOL0     C 8973   6.219   2.130   2.800  0.4120  0.2970  0.0705
   67MOL0     C 8974   6.231   2.024   2.903  0.8881  0.2712  0.0977
   67MOL0     C 8975   6.230   1.940   2.990 -1.1367 -0.5313  0.5415
   67MOL0     C 8976   6.103   2.762   2.558  1.1459 -0.6738 -0.0441
   67MOL0     C 8977   6.061   2.890   2.568 -0.8425  0.2573 -0.0090
   67MOL0     H 8978   6.091   3.334   2.821 -0.5417 -2.0171  0.5571
   67MOL0     H 8979   6.013   3.556   2.850 -1.2633  1.2955 -3.6140
   67MOL0     H 8980   5.559   3.642   2.906 -2.4843 -0.6142  2.9410
   67MOL0     H 8981   5.626   3.608   3.054 -0.6622 -3.3595 -2.4564
   67MOL0     H 8982   5.706   3.842   3.089 -0.5500 -1.1840  0.7565
   67MOL0     H 8983   5.661   3.888   2.931  1.1010 -3.0624 -1.0886
   67MOL0     H 8984   5.433   3.849   2.968  1.9975 -2.6599 -0.8587
   67MOL0     H 8985   5.446   3.763   3.110 -0.8759 -1.1489 -3.0160
   67MOL0     H 8986   5.535   4.005   3.210 -0.4829 -0.9724  1.6416
   67MOL0     H 8987   5.469   4.058   3.056  1.4079  0.1166  0.5292
   67MOL0     H 8988   5.253   3.945   3.139  0.2869 -0.2452  0.3925
   67MOL0     H 8989   5.340   3.890   3.283 -0.3696  1.0149  0.7110
   67MOL0     H 8990   5.353   4.141   3.348  0.3595  1.1035 -0.6712
   67MOL0     H 8991   5.258   4.179   3.201 -1.3592 -0.6688 -0.2902
   67MOL0     H 8992   5.078   4.020   3.319  3.0692 -0.8132 -3.1882
   67MOL0     H 8993   5.167   4.028   3.457 -1.2371 -2.5100  0.4241
   67MOL0     H 8994   5.059   4.276   3.302  1.8741  2.3839  0.6815
   67MOL0     H 8995   5.148   4.293   3.453 -0.4913 -0.9998  1.7272
   67MOL0     H 8996   4.853   4.051   3.347 -1.3884  1.8450 -0.3699
   67MOL0     H 8997   4.609   4.072   3.667 -1.0560 -0.0523 -0.2572
   67MOL0     H 8998   4.550   4.073   3.497 -0.3433 -2.5839 -0.6138
   67MOL0     H 8999   4.730   3.864   3.599  0.9509  1.0573 -0.7839
   67MOL0     H 9000   4.684   3.876   3.437 -2.2877 -1.1856  0.0467
   67MOL0     H 9001   4.436   3.875   3.543  0.6920  0.3838 -0.3455
   67MOL0     H 9002   4.529   3.845   3.697  0.1077  0.7721  0.3592
   67MOL0     H 9003   4.447   3.622   3.582  0.8582 -0.6616  2.2237
   67MOL0     H 9004   4.620   3.634   3.568 -0.5134 -2.1143 -1.5605
   67MOL0     H 9005   4.541   3.436   3.489  2.7387 -1.4113  0.2792
   67MOL0     H 9006   4.518   3.110   3.331 -1.5694 -0.9159  2.1685
   67MOL0     H 9007   4.671   3.164   3.419  0.5110  2.2890 -0.3314
   67MOL0     H 9008   4.513   3.212   3.478  1.3321 -2.8366  1.8948
   67MOL0     H 9009   4.719   3.120   2.800  0.5110 -2.3135 -2.6910
   67MOL0     H 9010   4.664   2.916   2.666 -1.5598  3.2092  0.1438
   67MOL0     H 9011   4.778   2.622   2.773 -2.2616  5.9667 -1.1841
   67MOL0     H 9012   4.704   2.568   2.921 -0.0558 -4.5971 -0.7221
   67MOL0     H 9013   4.767   2.394   2.738  1.6197  2.6790 -0.1601
   67MOL0     H 9014   4.615   2.386   2.823 -1.9080  1.1367 -0.4982
   67MOL0     H 9015   4.643   2.496   2.543 -0.5616 -2.5068 -1.9980
   67MOL0     H 9016   4.506   2.515   2.644 -0.8370  0.5461  0.6473
   67MOL0     H 9017   4.626   2.247   2.560 -0.1574 -1.6175 -0.9368
   67MOL0     H 9018   4.468   2.285   2.646  1.1663 -2.7614  0.2628
   67MOL0     H 9019   4.437   2.200   2.418 -1.2387  0.1679  1.9631
   67MOL0     H 9020   4.525   2.343   2.347 -1.1699  0.9923  0.0475
   67MOL0     H 9021   4.271   2.332   2.521 -1.6575  0.3274 -1.4161
   67MOL0     H 9022   4.349   2.480   2.499 -0.3135 -0.0031  0.4604
   67MOL0     H 9023   4.175   2.314   2.301 -1.2144  1.4750 -1.3112
   67MOL0     H 9024   4.302   2.403   2.226 -0.0160 -3.5923 -0.8282
   67MOL0     H 9025   4.072   2.533   2.378 -0.4943  4.1558 -0.3462
   67MOL0     H 9026   4.119   2.538   2.206  1.7759 -4.6854 -1.0506
   67MOL0     H 9027   4.560   2.730   3.047  2.2022 -1.1124  0.0044
   67MOL0     H 9028   4.601   2.921   3.163  0.4491 -1.1010 -0.3703
   67MOL0     H 9029   4.573   3.470   3.006  0.1398  2.8607  0.7750
   67MOL0     H 9030   4.576   3.671   3.135 -1.1135  1.9857  0.5213
   67MOL0     H 9031   5.609   3.405   2.920  0.2020 -0.6071 -0.1796
   67MOL0     H 9032   5.703   3.172   2.863  0.9974 -1.0079 -2.3891
   67MOL0     H 9033   5.965   2.869   2.905  0.9464 -3.1973  2.3315
   67MOL0     H 9034   6.028   2.642   2.851 -2.9836  3.0735  0.5433
   67MOL0     H 9035   6.282   2.418   2.698  0.8691  0.5953  2.0553
   67MOL0     H 9036   6.208   2.504   2.830  2.0997 -2.6244 -0.0653
   67MOL0     H 9037   6.078   2.305   2.660  0.5367  1.5004  0.1893
   67MOL0     H 9038   5.995   2.384   2.801  0.4264  3.1300 -1.6851
   67MOL0     H 9039   6.076   2.226   2.935  1.5985  0.8110  1.8645
   67MOL0     H 9040   6.223   2.304   2.919  1.1894 -1.1268  0.1666
   67MOL0     H 9041   6.317   2.159   2.760  0.1571  0.2992 -0.5527
   67MOL0     H 9042   6.171   2.083   2.714  2.5592 -1.6071 -0.1965
   67MOL0     H 9043   6.232   1.849   3.047 -0.2969  0.4289  2.1115
   67MOL0     H 9044   6.155   2.739   2.466 -0.6812 -0.4719 -1.1606
   67MOL0     H 9045   6.058   2.967   2.491 -1.1077  3.0726  2.6186
   68MOL0     O 9046   2.442   5.374   1.640  0.1221  0.1797 -0.2282
   68MOL0     C 9047   2.466   5.312   1.740  0.3380 -0.4170  0.6018
   68MOL0     O 9048   2.565   5.346   1.834 -0.3895 -0.8844  0.6839
   68MOL0     C 9049   2.621   5.469   1.827 -0.4098  0.3920 -1.0768
   68MOL0     C 9050   2.711   5.519   1.728 -0.2205  0.9296  0.8402
   68MOL0     C 9051   2.779   5.645   1.738  0.5923  0.2209  1.0919
   68MOL0     C 9052   2.754   5.724   1.855  0.6724  0.6882  1.5229
   68MOL0     O 9053   2.799   5.845   1.874  0.4020 -0.4309 -0.1217
   68MOL0     C 9054   2.698   5.943   1.885 -0.6018 -0.1558  0.0374
   68MOL0     C 9055   2.756   6.073   1.904 -0.6796 -1.0242 -0.4513
   68MOL0     C 9056   2.785   6.121   2.056 -0.4328 -0.6238 -0.0175
   68MOL0     C 9057   2.856   6.021   2.146  0.2124 -0.4782 -0.3621
   68MOL0     C 9058   2.856   6.057   2.296 -0.2200  0.0153  0.2000
   68MOL0     C 9059   2.950   6.177   2.337 -0.5631 -0.0046 -0.5454
   68MOL0     C 9060   2.937   6.192   2.485  0.6744 -0.0075  0.3861
   68MOL0     C 9061   2.975   6.328   2.534  0.1960 -0.2309 -0.5022
   68MOL0     N 9062   2.942   6.327   2.679 -0.7655  0.3958 -0.3299
   68MOL0     C 9063   3.034   6.287   2.763  0.7609 -0.3953 -0.3166
   68MOL0     C 9064   2.998   6.331   2.888  0.3953 -0.0606  0.8147
   68MOL0     C 9065   3.063   6.312   3.019 -0.0475  0.4668 -0.4578
   68MOL0     C 9066   3.060   6.171   3.080  0.2081  0.1464  0.6557
   68MOL0     C 9067   3.174   6.131   3.177  0.1622 -0.4348 -0.2383
   68MOL0     C 9068   3.209   6.234   3.286  0.6697  0.5356  0.2921
   68MOL0     O 9069   3.114   6.210   3.391 -0.2867 -0.9783 -0.4065
   68MOL0     C 9070   3.006   6.295   3.403  0.0832  0.2939 -0.2312
   68MOL0     C 9071   2.882   6.232   3.404  0.3611  0.1476  0.6429
   68MOL0     C 9072   2.761   6.305   3.403  0.3452 -0.6811  1.3072
   68MOL0     C 9073   2.633   6.228   3.419  0.2308  0.1704 -0.5570
   68MOL0     C 9074   2.768   6.446   3.376  0.5180  0.2424  0.1321
   68MOL0     C 9075   2.647   6.530   3.341  0.5074  0.4247 -0.8172
   68MOL0     O 9076   2.541   6.463   3.286  0.3676 -0.1287  0.3310
   68MOL0     C 9077   2.465   6.527   3.185 -0.4221 -0.5122 -1.6841
   68MOL0     C 9078   2.373   6.636   3.210  0.3305  0.3235  0.9233
   68MOL0     C 9079   2.315   6.697   3.096  0.0625 -0.1047 -0.6839
   68MOL0     C 9080   2.360   6.665   2.972 -0.3484  0.0886 -0.5322
   68MOL0     O 9081   2.300   6.718   2.855 -0.1316 -0.3488 -0.1860
   68MOL0     C 9082   2.155   6.725   2.857  0.6083  0.1231 -0.7057
   68MOL0     C 9083   2.083   6.771   2.724  0.0077 -0.1373 -0.3347
   68MOL0     C 9084   2.152   6.898   2.677 -0.1584 -0.2630 -1.2595
   68MOL0     C 9085   2.127   6.915   2.522 -0.5267 -0.6370  0.2445
   68MOL0     C 9086   2.196   7.046   2.479 -0.2037 -0.7053 -0.1386
   68MOL0     C 9087   2.140   7.079   2.336  0.3181 -0.6977  0.7496
   68MOL0     C 9088   2.202   6.986   2.224 -0.0855  0.3821 -0.9110
   68MOL0     C 9089   2.244   7.061   2.098  0.5173  0.6230 -1.4324
   68MOL0    Cl 9090   2.334   6.955   1.983 -0.0206  0.0580 -0.2788
   68MOL0     C 9091   2.466   6.579   2.947 -0.5470 -0.9446 -1.0558
   68MOL0     C 9092   2.512   6.508   3.053 -0.5255 -0.5173 -0.7048
   68MOL0     O 9093   2.657   6.649   3.363  0.4998  0.1767  0.6801
   68MOL0     C 9094   2.893   6.508   3.373  0.1426  0.0687 -0.0202
   68MOL0     C 9095   3.013   6.430   3.393  0.1125  0.8344  0.3584
   68MOL0     N 9096   2.878   6.391   2.870  0.4606  0.2660 -0.0012
   68MOL0     N 9097   2.843   6.383   2.746  1.2743 -0.0927  0.1593
   68MOL0     C 9098   2.675   5.674   1.958 -0.6453  0.8456  0.3868
   68MOL0     C 9099   2.612   5.551   1.943  0.7498 -0.4832  0.2925
   68MOL0     C 9100   2.404   5.177   1.766 -0.4932  0.7409 -0.0222
   68MOL0     C 9101   2.375   5.089   1.655 -0.2323  0.3149 -0.0751
   68MOL0     C 9102   2.323   4.959   1.675 -0.0433  0.7894  0.1377
   68MOL0     C 9103   2.309   4.913   1.805  0.5876  0.2749 -0.3462
   68MOL0     O 9104   2.278   4.785   1.835 -0.8377 -0.5034 -0.0419
   68MOL0     C 9105   2.205   4.702   1.751 -0.0200  0.6391 -0.2046
   68MOL0     C 9106   2.105   4.615   1.825 -0.3588 -0.1420 -0.5831
   68MOL0     C 9107   1.983   4.698   1.901 -1.0348 -0.3494 -0.3219
   68MOL0     C 9108   1.902   4.802   1.817  0.2938 -1.0057  0.0060
   68MOL0     C 9109   1.826   4.719   1.724  1.1050  0.0274 -1.3249
   68MOL0     C 9110   1.776   4.647   1.642  0.4507  0.1641  0.3596
   68MOL0     C 9111   2.342   4.990   1.914 -0.4000 -1.0258 -0.4989
   68MOL0     C 9112   2.388   5.127   1.894  0.1083  0.1974 -0.6136
   68MOL0     H 9113   2.727   5.451   1.645  2.6663  1.2548  1.0181
   68MOL0     H 9114   2.826   5.692   1.652  0.5213  2.6406  2.2650
   68MOL0     H 9115   2.653   5.951   1.785  1.9042  1.9283 -1.0377
   68MOL0     H 9116   2.628   5.921   1.966 -0.0001 -0.2564  0.5332
   68MOL0     H 9117   2.853   6.078   1.854  0.0050  0.1653  0.9182
   68MOL0     H 9118   2.698   6.155   1.862 -1.8556 -0.0350  2.8086
   68MOL0     H 9119   2.850   6.208   2.055 -0.5320 -0.4028  2.9030
   68MOL0     H 9120   2.692   6.162   2.097 -1.1119 -1.4401 -0.6985
   68MOL0     H 9121   2.811   5.922   2.130 -0.4588 -0.2988  0.3489
   68MOL0     H 9122   2.960   6.011   2.112 -0.0017  0.7426 -1.4255
   68MOL0     H 9123   2.750   6.060   2.326 -0.0910 -0.6440  0.7298
   68MOL0     H 9124   2.896   5.975   2.355  1.3218  2.9640  3.6435
   68MOL0     H 9125   3.054   6.153   2.312 -0.0969  1.2493  0.1015
   68MOL0     H 9126   2.908   6.262   2.283  0.3300  0.2658 -0.8302
   68MOL0     H 9127   2.833   6.166   2.504  0.3046  1.4685  0.4475
   68MOL0     H 9128   2.997   6.117   2.538  2.3546  1.2286  0.3257
   68MOL0     H 9129   2.919   6.410   2.491  3.3516  2.4658  0.0941
   68MOL0     H 9130   3.082   6.351   2.529  1.2691 -4.0352  1.2048
   68MOL0     H 9131   3.128   6.237   2.739  2.1859  0.4092  3.0740
   68MOL0     H 9132   3.166   6.346   3.008  0.9996 -1.7978  1.6522
   68MOL0     H 9133   3.012   6.384   3.084  0.4333 -1.7089  2.5217
   68MOL0     H 9134   3.063   6.093   3.004  1.1645  2.2641 -1.6095
   68MOL0     H 9135   2.965   6.150   3.130  0.8252 -4.5854  0.2908
   68MOL0     H 9136   3.266   6.120   3.120  2.0169 -0.8528  2.6524
   68MOL0     H 9137   3.152   6.032   3.220  1.8922 -0.5094  0.5523
   68MOL0     H 9138   3.217   6.335   3.245  1.5175  0.1017 -0.6459
   68MOL0     H 9139   3.306   6.202   3.328  1.0332  0.6044 -0.4812
   68MOL0     H 9140   2.877   6.123   3.406 -1.4725  0.1438 -1.1799
   68MOL0     H 9141   2.648   6.133   3.472 -3.3854 -0.0151  0.4232
   68MOL0     H 9142   2.566   6.281   3.488 -1.3423 -1.3117 -0.8708
   68MOL0     H 9143   2.582   6.198   3.327 -1.5377 -1.1659  0.7805
   68MOL0     H 9144   2.357   6.656   3.315  2.3639 -1.0084  1.5452
   68MOL0     H 9145   2.241   6.776   3.108  0.8916  0.9048 -1.9549
   68MOL0     H 9146   2.116   6.624   2.868 -0.4370  0.6556  0.6909
   68MOL0     H 9147   2.116   6.789   2.936 -0.2118  0.7973 -1.6322
   68MOL0     H 9148   2.095   6.696   2.645  2.8909 -1.5851  1.3284
   68MOL0     H 9149   1.976   6.780   2.746 -0.2603 -1.6928 -0.8508
   68MOL0     H 9150   2.257   6.896   2.706 -0.6409 -0.2718  0.6112
   68MOL0     H 9151   2.113   6.982   2.736  3.2370  0.6522 -0.0732
   68MOL0     H 9152   2.184   6.836   2.471  2.0277  0.9689  0.4213
   68MOL0     H 9153   2.020   6.917   2.499 -0.6091 -1.0327  0.5830
   68MOL0     H 9154   2.303   7.021   2.481 -0.5656 -2.7628 -2.1870
   68MOL0     H 9155   2.192   7.120   2.559 -0.0286 -1.3258  0.4487
   68MOL0     H 9156   2.032   7.064   2.330  0.4234 -5.2536  4.4008
   68MOL0     H 9157   2.155   7.185   2.317 -2.8990  0.3533  3.2028
   68MOL0     H 9158   2.140   6.897   2.211  1.8976 -1.6665  2.3000
   68MOL0     H 9159   2.292   6.937   2.264  0.0454  1.0508 -0.3716
   68MOL0     H 9160   2.313   7.142   2.125  2.3582 -1.8700  2.1363
   68MOL0     H 9161   2.158   7.104   2.046 -1.2024 -1.1815 -0.2244
   68MOL0     H 9162   2.516   6.569   2.851  0.4458  0.7743 -0.7427
   68MOL0     H 9163   2.597   6.440   3.048  0.9254  0.7717  3.1934
   68MOL0     H 9164   2.901   6.616   3.358 -2.1041  0.5400  1.6270
   68MOL0     H 9165   3.110   6.477   3.410  1.1361 -1.2646  0.6402
   68MOL0     H 9166   2.648   5.737   2.042 -0.6156 -0.5726  1.4951
   68MOL0     H 9167   2.544   5.515   2.020 -3.2428  0.5403 -2.4666
   68MOL0     H 9168   2.397   5.124   1.555  1.6887  1.7421  0.7879
   68MOL0     H 9169   2.306   4.890   1.593 -1.0935 -2.7475  3.0670
   68MOL0     H 9170   2.151   4.763   1.678 -1.6776 -0.0091  0.4252
   68MOL0     H 9171   2.264   4.628   1.697 -0.6523 -0.2090  0.2386
   68MOL0     H 9172   2.170   4.566   1.899 -1.7232 -1.4948 -0.2475
   68MOL0     H 9173   2.064   4.532   1.767  1.5658 -1.8395  0.3463
   68MOL0     H 9174   2.030   4.762   1.976 -0.3318  1.0906 -1.9155
   68MOL0     H 9175   1.908   4.633   1.947 -0.2353 -1.0208  0.0441
   68MOL0     H 9176   1.977   4.866   1.770 -2.1145  0.9317 -1.4682
   68MOL0     H 9177   1.837   4.859   1.884 -0.0415 -2.1988  0.7280
   68MOL0     H 9178   1.744   4.571   1.574 -0.1561  0.0825  0.7357
   68MOL0     H 9179   2.324   4.965   2.018 -0.9762  2.7507  0.4489
   68MOL0     H 9180   2.420   5.186   1.979  3.2376 -0.2471 -1.3704
   69MOL0     O 9181   6.951   0.972   3.372 -0.3832 -0.5036  0.2789
   69MOL0     C 9182   6.927   1.075   3.309 -0.7343 -0.6364  0.7039
   69MOL0     O 9183   6.989   1.198   3.335 -0.1017  0.0022 -0.9748
   69MOL0     C 9184   7.116   1.211   3.370  0.1192 -0.4790  0.3309
   69MOL0     C 9185   7.183   1.323   3.322  0.0275  0.0036  1.4326
   69MOL0     C 9186   7.312   1.370   3.359  0.5618  0.6633  0.3730
   69MOL0     C 9187   7.373   1.291   3.458 -0.4096 -0.1092 -0.3765
   69MOL0     O 9188   7.503   1.309   3.497 -0.5036  0.2779  0.3031
   69MOL0     C 9189   7.553   1.442   3.532  0.0055  0.4791  0.6877
   69MOL0     C 9190   7.670   1.433   3.625 -0.0357  0.0810  0.5655
   69MOL0     C 9191   7.797   1.395   3.556 -0.4717 -0.5860 -0.2199
   69MOL0     C 9192   7.902   1.344   3.655 -0.4121  0.0674 -0.0738
   69MOL0     C 9193   7.996   1.249   3.591  1.1996 -0.1098  0.4828
   69MOL0     C 9194   8.100   1.303   3.492  0.1518  0.0702 -0.3094
   69MOL0     C 9195   8.208   1.395   3.557 -0.1133 -0.0770  0.4566
   69MOL0     C 9196   8.316   1.473   3.469  0.2600 -0.5413 -0.7029
   69MOL0     N 9197   8.403   1.387   3.391 -0.5040  0.9915 -0.7973
   69MOL0     C 9198   8.371   1.346   3.261 -0.0324  0.2771 -1.4801
   69MOL0     C 9199   8.491   1.332   3.193  0.1721  0.3377 -0.2562
   69MOL0     C 9200   8.509   1.276   3.040 -0.9600 -0.4242 -0.1368
   69MOL0     C 9201   8.438   1.145   3.000 -0.4951 -0.4844 -0.8593
   69MOL0     C 9202   8.490   1.048   3.101 -0.6486  0.5192  1.3839
   69MOL0     C 9203   8.473   0.890   3.065  0.7086 -0.5948 -0.0715
   69MOL0     O 9204   8.555   0.803   3.140  0.2685 -0.0829  0.1979
   69MOL0     C 9205   8.550   0.662   3.131 -0.8379  0.4069  0.4717
   69MOL0     C 9206   8.487   0.595   3.026 -0.0378 -0.6345  0.4307
   69MOL0     C 9207   8.479   0.461   3.018 -0.8884 -0.7095 -0.0414
   69MOL0     C 9208   8.411   0.402   2.890  0.4131 -0.5943 -0.7212
   69MOL0     C 9209   8.535   0.383   3.126 -0.1265  0.0339  0.5887
   69MOL0     C 9210   8.515   0.237   3.160  0.5113  0.5333 -0.2633
   69MOL0     O 9211   8.484   0.156   3.056 -0.7533 -0.5141 -0.0669
   69MOL0     C 9212   8.462   0.022   3.084 -0.3124 -0.3667  0.1792
   69MOL0     C 9213   8.558  -0.066   3.042  0.3375  0.4821  0.2055
   69MOL0     C 9214   8.526  -0.207   3.048  0.5852 -0.2427  1.7470
   69MOL0     C 9215   8.401  -0.242   3.088  0.9840  0.8888 -0.4827
   69MOL0     O 9216   8.375  -0.375   3.086 -0.3640  0.4597 -0.6994
   69MOL0     C 9217   8.258  -0.429   3.156  0.6906  0.0639  0.3730
   69MOL0     C 9218   8.263  -0.581   3.152  0.6433  1.0052 -0.3628
   69MOL0     C 9219   8.156  -0.649   3.236 -0.3385 -0.3269 -0.2264
   69MOL0     C 9220   8.017  -0.665   3.166  0.1542 -0.4688  0.0524
   69MOL0     C 9221   7.910  -0.702   3.269  0.0505 -0.5250 -0.1564
   69MOL0     C 9222   7.776  -0.743   3.212 -0.8793 -0.1977  0.3324
   69MOL0     C 9223   7.659  -0.736   3.309  0.1652 -0.8268  0.4111
   69MOL0     C 9224   7.656  -0.809   3.436 -0.0883  0.0826  0.2857
   69MOL0    Cl 9225   7.774  -0.745   3.548  0.1480  0.0668  0.5337
   69MOL0     C 9226   8.301  -0.148   3.135 -1.5372  0.1903 -0.6909
   69MOL0     C 9227   8.336  -0.012   3.128  0.6204 -0.1956  0.1180
   69MOL0     O 9228   8.522   0.197   3.281  0.0188 -0.0624  0.8063
   69MOL0     C 9229   8.609   0.449   3.217 -0.0305  0.3980 -0.3798
   69MOL0     C 9230   8.612   0.587   3.229  1.3354 -0.0623  0.3573
   69MOL0     N 9231   8.589   1.375   3.278 -0.1620 -0.6387 -0.1018
   69MOL0     N 9232   8.542   1.411   3.392  0.8855  0.0563  0.6518
   69MOL0     C 9233   7.305   1.176   3.514 -0.1845  0.2651 -0.1978
   69MOL0     C 9234   7.179   1.139   3.471 -0.9147  0.3950  0.2092
   69MOL0     C 9235   6.815   1.077   3.216 -0.7156  0.4532  0.9449
   69MOL0     C 9236   6.756   0.948   3.181 -1.0880  0.7626 -0.9490
   69MOL0     C 9237   6.657   0.948   3.081  0.6537  0.9658  1.1358
   69MOL0     C 9238   6.624   1.054   3.006  0.9765  0.4029  0.4618
   69MOL0     O 9239   6.525   1.036   2.910 -0.0793 -0.2208 -0.4013
   69MOL0     C 9240   6.497   1.146   2.823  0.6871 -0.4534  0.7755
   69MOL0     C 9241   6.375   1.220   2.885 -0.2465  0.1625 -0.3784
   69MOL0     C 9242   6.323   1.313   2.768  0.4409  0.5127  0.7168
   69MOL0     C 9243   6.215   1.414   2.812 -0.5766 -0.0857 -0.6034
   69MOL0     C 9244   6.279   1.506   2.903 -0.2177  0.8578  1.1969
   69MOL0     C 9245   6.330   1.581   2.981 -0.4793 -0.8739  0.5452
   69MOL0     C 9246   6.668   1.175   3.051  1.1373 -0.4784 -0.0479
   69MOL0     C 9247   6.763   1.191   3.150 -0.0344  1.2193 -0.4820
   69MOL0     H 9248   7.135   1.374   3.239 -0.4387 -1.9805  0.4168
   69MOL0     H 9249   7.357   1.446   3.297  1.8962  0.1956  0.7231
   69MOL0     H 9250   7.581   1.502   3.445  2.4752 -0.5709  0.6658
   69MOL0     H 9251   7.470   1.493   3.580 -0.6076 -2.6686  3.3327
   69MOL0     H 9252   7.669   1.532   3.671  1.8493  1.7092 -2.5090
   69MOL0     H 9253   7.654   1.359   3.704 -1.0718 -0.1477  0.1514
   69MOL0     H 9254   7.766   1.307   3.498 -1.7322 -0.4451  0.2068
   69MOL0     H 9255   7.836   1.475   3.492  3.3269 -0.8841  1.4849
   69MOL0     H 9256   7.963   1.423   3.699  1.4935 -1.0120 -0.6700
   69MOL0     H 9257   7.849   1.303   3.742  0.7287 -0.0105  0.6140
   69MOL0     H 9258   8.043   1.196   3.674 -0.8573 -0.2418  1.6263
   69MOL0     H 9259   7.945   1.162   3.547  3.3154 -1.1129 -0.1291
   69MOL0     H 9260   8.142   1.212   3.449 -4.5307 -3.0345  0.8580
   69MOL0     H 9261   8.052   1.367   3.417 -0.4160  0.8782  0.7213
   69MOL0     H 9262   8.161   1.477   3.612 -1.7793 -0.8725  0.2850
   69MOL0     H 9263   8.259   1.334   3.631  1.1674 -0.7270 -0.9045
   69MOL0     H 9264   8.384   1.530   3.532 -2.5529 -0.3632  2.4426
   69MOL0     H 9265   8.268   1.541   3.397 -1.4192 -0.6049  0.3107
   69MOL0     H 9266   8.267   1.351   3.231 -0.3382  3.9923 -0.4112
   69MOL0     H 9267   8.482   1.357   2.971  0.7849 -1.9778 -2.8221
   69MOL0     H 9268   8.616   1.264   3.022 -1.1627 -0.8283 -1.1374
   69MOL0     H 9269   8.466   1.113   2.899  2.4329  0.9354 -0.6124
   69MOL0     H 9270   8.331   1.163   3.007 -0.3764  0.3397 -1.0627
   69MOL0     H 9271   8.435   1.073   3.192 -2.6571 -0.1160  0.4032
   69MOL0     H 9272   8.596   1.062   3.123  0.5774 -2.9099 -1.3600
   69MOL0     H 9273   8.490   0.865   2.959  0.3251 -1.6715  0.1038
   69MOL0     H 9274   8.370   0.867   3.092  1.1413  0.5057  2.7519
   69MOL0     H 9275   8.433   0.653   2.952 -0.5368  0.2244  1.4394
   69MOL0     H 9276   8.466   0.315   2.853  0.4112 -1.0083  0.2273
   69MOL0     H 9277   8.305   0.383   2.909  0.1913  0.3468 -0.9512
   69MOL0     H 9278   8.420   0.478   2.811 -1.0587  0.0764 -0.2851
   69MOL0     H 9279   8.656  -0.023   3.024  0.1719  1.1297  0.8011
   69MOL0     H 9280   8.606  -0.274   3.016  0.7145  1.9313 -3.4914
   69MOL0     H 9281   8.258  -0.404   3.263 -0.0235 -4.3486  1.6020
   69MOL0     H 9282   8.165  -0.404   3.105  2.5876  3.2125 -1.9316
   69MOL0     H 9283   8.263  -0.616   3.048  1.0308  1.7216 -0.6126
   69MOL0     H 9284   8.355  -0.610   3.205 -0.7060 -1.9956  0.5880
   69MOL0     H 9285   8.134  -0.588   3.324 -5.6432 -1.3243 -0.5528
   69MOL0     H 9286   8.186  -0.751   3.261 -3.8617 -1.0697  1.4418
   69MOL0     H 9287   7.979  -0.577   3.114 -0.5071  0.2171  1.6216
   69MOL0     H 9288   8.017  -0.748   3.095 -2.7461  1.8439 -2.9331
   69MOL0     H 9289   7.897  -0.602   3.312 -0.1617 -0.1731 -1.0077
   69MOL0     H 9290   7.947  -0.774   3.342  0.7489 -1.6932 -1.6162
   69MOL0     H 9291   7.764  -0.681   3.123  0.6663 -1.7359 -1.0114
   69MOL0     H 9292   7.790  -0.846   3.179  0.1916 -0.2642  0.9490
   69MOL0     H 9293   7.570  -0.764   3.252 -0.7769  1.2156  0.7769
   69MOL0     H 9294   7.644  -0.631   3.335  1.0067  0.1868 -2.7202
   69MOL0     H 9295   7.672  -0.916   3.422 -3.4286 -0.5602  0.3817
   69MOL0     H 9296   7.555  -0.800   3.478 -0.1049 -0.0113  0.2656
   69MOL0     H 9297   8.212  -0.192   3.178 -2.4288  0.6046 -2.0511
   69MOL0     H 9298   8.263   0.067   3.145  1.3453  0.3270  0.9662
   69MOL0     H 9299   8.665   0.395   3.293  1.2803 -2.5046 -3.1937
   69MOL0     H 9300   8.654   0.634   3.318  0.6607  0.2362  0.5294
   69MOL0     H 9301   7.361   1.129   3.595  0.9922  0.0940 -1.0804
   69MOL0     H 9302   7.135   1.058   3.529 -0.1445  2.4334  3.9202
   69MOL0     H 9303   6.787   0.864   3.243 -1.4825  1.6455  0.4815
   69MOL0     H 9304   6.602   0.858   3.056 -2.0397  3.2605 -2.1378
   69MOL0     H 9305   6.585   1.208   2.800 -0.3217  0.7601  0.0182
   69MOL0     H 9306   6.463   1.109   2.726  0.0028  1.3000  0.3014
   69MOL0     H 9307   6.418   1.271   2.971  0.9601 -3.5600  1.4601
   69MOL0     H 9308   6.304   1.140   2.906  1.3103 -1.1805 -0.0039
   69MOL0     H 9309   6.283   1.258   2.683 -0.6423 -0.1771  1.6348
   69MOL0     H 9310   6.412   1.365   2.732  1.6799 -2.6721 -1.2697
   69MOL0     H 9311   6.126   1.374   2.862 -1.2272  0.5522 -1.2212
   69MOL0     H 9312   6.193   1.471   2.721  0.7700  1.1533 -0.2059
   69MOL0     H 9313   6.370   1.646   3.056 -1.2163  1.4508 -0.9724
   69MOL0     H 9314   6.638   1.266   3.000  2.3533  1.0739  1.8768
   69MOL0     H 9315   6.809   1.286   3.176 -0.2007  0.9673  0.7927
   70MOL0     O 9316   7.148   5.019   2.545  0.7208 -0.5673  0.1080
   70MOL0     C 9317   7.046   5.092   2.539 -0.1123 -0.1295  0.0560
   70MOL0     O 9318   6.966   5.129   2.642  0.7464  0.8491  0.1413
   70MOL0     C 9319   7.003   5.082   2.766 -0.5883 -0.1587  1.1901
   70MOL0     C 9320   7.088   5.159   2.848  0.9115 -0.7790  0.1697
   70MOL0     C 9321   7.129   5.108   2.970  0.0081  0.3349 -0.7564
   70MOL0     C 9322   7.080   4.990   3.013 -0.5780 -0.2874 -1.5865
   70MOL0     O 9323   7.115   4.951   3.135 -0.1301  0.4870 -1.0894
   70MOL0     C 9324   7.149   4.808   3.152  0.2021 -1.2296 -1.4238
   70MOL0     C 9325   7.225   4.804   3.294  0.7316  0.0077 -0.2103
   70MOL0     C 9326   7.151   4.857   3.417  1.0140  0.8034  0.1159
   70MOL0     C 9327   7.039   4.754   3.451 -0.2421 -0.6534  0.3395
   70MOL0     C 9328   7.082   4.623   3.517  0.3221  0.0592 -0.2374
   70MOL0     C 9329   7.178   4.634   3.635 -0.1892 -0.6148  0.3163
   70MOL0     C 9330   7.159   4.529   3.752 -0.1827 -0.0041 -0.2355
   70MOL0     C 9331   7.013   4.512   3.810  0.0825 -0.4760  0.2114
   70MOL0     N 9332   7.003   4.427   3.933 -0.8145 -0.0883 -1.6226
   70MOL0     C 9333   6.890   4.398   4.009  0.1062 -0.2261  0.2711
   70MOL0     C 9334   6.934   4.322   4.107 -0.6013 -0.1384 -0.7089
   70MOL0     C 9335   6.863   4.280   4.225  0.3041 -0.3605  0.6295
   70MOL0     C 9336   6.838   4.128   4.242 -0.8493  0.0869  0.1332
   70MOL0     C 9337   6.715   4.098   4.331  0.3433 -0.5916 -0.2241
   70MOL0     C 9338   6.594   4.065   4.241  0.8218  0.2498  1.0855
   70MOL0     O 9339   6.470   4.056   4.307  0.3442  0.0427  0.0345
   70MOL0     C 9340   6.358   4.075   4.235  0.6678 -1.5543 -0.8611
   70MOL0     C 9341   6.251   3.989   4.256 -0.1082  0.6411 -0.7934
   70MOL0     C 9342   6.127   4.003   4.194 -0.1127  0.4645  0.8735
   70MOL0     C 9343   6.018   3.899   4.216  0.1809 -0.2186 -0.0590
   70MOL0     C 9344   6.102   4.116   4.113 -0.1779  0.5512 -0.2438
   70MOL0     C 9345   5.976   4.149   4.048 -0.1762  0.3680 -0.0107
   70MOL0     O 9346   5.988   4.159   3.913  0.1925 -0.5211  0.4662
   70MOL0     C 9347   5.881   4.218   3.844  0.0062  0.8867 -0.8206
   70MOL0     C 9348   5.827   4.348   3.873  0.4004  0.0052  0.3986
   70MOL0     C 9349   5.714   4.389   3.801  0.4602 -0.0522 -0.5746
   70MOL0     C 9350   5.641   4.297   3.721 -0.9924 -0.7587 -0.1737
   70MOL0     O 9351   5.521   4.335   3.657 -0.3236  0.3043 -0.4250
   70MOL0     C 9352   5.549   4.422   3.548  0.1600 -0.1019  0.0123
   70MOL0     C 9353   5.416   4.459   3.472 -1.0467 -0.6767 -0.0025
   70MOL0     C 9354   5.432   4.512   3.328  0.1181  0.0885 -0.1790
   70MOL0     C 9355   5.291   4.566   3.270  0.6960  0.5352 -0.9647
   70MOL0     C 9356   5.310   4.613   3.131 -0.6082 -0.7381 -0.2037
   70MOL0     C 9357   5.171   4.660   3.083  0.0342 -0.4130  0.1008
   70MOL0     C 9358   5.159   4.669   2.928 -0.1370 -0.3708  0.0271
   70MOL0     C 9359   5.020   4.704   2.864  0.5637  1.0958 -0.4720
   70MOL0    Cl 9360   5.046   4.774   2.693 -0.4628 -0.0140 -0.0915
   70MOL0     C 9361   5.691   4.171   3.703 -0.3473  0.1381  0.1775
   70MOL0     C 9362   5.819   4.137   3.752 -0.4248  0.0666  0.5514
   70MOL0     O 9363   5.876   4.172   4.112 -0.2311 -0.2342 -0.9145
   70MOL0     C 9364   6.216   4.191   4.077 -0.4082  0.3220 -0.4843
   70MOL0     C 9365   6.338   4.181   4.149  0.3183  0.2362  1.5961
   70MOL0     N 9366   7.074   4.298   4.093 -0.4911 -0.6268  0.0910
   70MOL0     N 9367   7.116   4.374   3.997  0.4026 -0.6273 -0.5863
   70MOL0     C 9368   6.992   4.910   2.934  0.9670 -0.6480 -0.6443
   70MOL0     C 9369   6.956   4.956   2.807 -0.1579  0.6136  0.2601
   70MOL0     C 9370   6.992   5.139   2.406 -0.2460 -0.2183  1.5796
   70MOL0     C 9371   6.893   5.239   2.400  0.4684  0.1322 -0.6327
   70MOL0     C 9372   6.851   5.290   2.274  0.7093  1.2002  0.4038
   70MOL0     C 9373   6.905   5.251   2.160  0.3768 -0.3042  0.5230
   70MOL0     O 9374   6.882   5.307   2.034  0.1545  0.2172  1.0635
   70MOL0     C 9375   6.798   5.425   2.020 -0.7325  0.4849 -0.5102
   70MOL0     C 9376   6.843   5.496   1.895  0.7702  0.3758  0.2540
   70MOL0     C 9377   6.767   5.624   1.853 -0.0325 -0.2679  0.6337
   70MOL0     C 9378   6.773   5.729   1.953 -0.7425  0.6083 -0.7612
   70MOL0     C 9379   6.694   5.844   1.904  1.1587 -0.9335  0.2499
   70MOL0     C 9380   6.623   5.938   1.868 -0.4303  0.6979 -0.0113
   70MOL0     C 9381   6.990   5.140   2.156  0.2770 -0.1329 -0.0077
   70MOL0     C 9382   7.033   5.086   2.277 -0.0115  1.6629 -0.4031
   70MOL0     H 9383   7.137   5.253   2.826 -0.1568 -0.6958 -2.1315
   70MOL0     H 9384   7.184   5.175   3.036  0.2822  0.4690 -1.1178
   70MOL0     H 9385   7.057   4.748   3.161 -0.7829 -0.0070 -2.8640
   70MOL0     H 9386   7.218   4.773   3.074  0.4271 -1.3663 -1.1643
   70MOL0     H 9387   7.248   4.699   3.310 -0.2537  0.0561  1.9277
   70MOL0     H 9388   7.311   4.871   3.281  0.7705  0.6917  2.8144
   70MOL0     H 9389   7.226   4.873   3.495 -0.5188  0.9945  1.5787
   70MOL0     H 9390   7.104   4.953   3.395 -3.9117 -0.7717  2.3308
   70MOL0     H 9391   6.968   4.797   3.522  0.8549  0.3621  0.8526
   70MOL0     H 9392   6.984   4.719   3.363  0.6041  1.4753 -1.0903
   70MOL0     H 9393   6.986   4.586   3.555  0.8359 -0.7988  0.2355
   70MOL0     H 9394   7.115   4.550   3.442 -1.7770  0.9832 -2.2135
   70MOL0     H 9395   7.284   4.629   3.609  0.2816  0.5301  1.8733
   70MOL0     H 9396   7.156   4.730   3.682  2.9950  0.0998  0.5819
   70MOL0     H 9397   7.205   4.432   3.730  1.6904  1.5442 -4.1881
   70MOL0     H 9398   7.222   4.555   3.837 -2.5619 -1.5402  2.1550
   70MOL0     H 9399   6.953   4.462   3.734 -2.2106 -0.1123  1.6586
   70MOL0     H 9400   6.975   4.612   3.834 -0.2067 -0.2467 -1.1424
   70MOL0     H 9401   6.785   4.415   3.985  1.1403  1.8831 -3.6716
   70MOL0     H 9402   6.923   4.318   4.309 -0.2628 -1.9665  1.8345
   70MOL0     H 9403   6.767   4.329   4.240  0.8188  0.2161  2.3593
   70MOL0     H 9404   6.918   4.082   4.300 -0.5765 -3.1306 -2.4671
   70MOL0     H 9405   6.823   4.071   4.149  0.2148 -1.6606  0.9826
   70MOL0     H 9406   6.702   4.180   4.402  2.5008 -1.2707  1.0484
   70MOL0     H 9407   6.738   4.008   4.388 -2.5960 -0.7188  0.9503
   70MOL0     H 9408   6.630   3.971   4.198 -0.0973  0.9870 -1.4635
   70MOL0     H 9409   6.595   4.142   4.163  1.0195  1.7387  2.4969
   70MOL0     H 9410   6.261   3.912   4.332 -1.9349  3.3712  2.4496
   70MOL0     H 9411   6.065   3.800   4.217 -1.0094 -0.7983  0.4226
   70MOL0     H 9412   5.969   3.925   4.310 -1.3856  0.8538 -1.1273
   70MOL0     H 9413   5.945   3.890   4.135 -0.4025  0.6007  0.3640
   70MOL0     H 9414   5.878   4.400   3.953  2.6683 -1.4922  0.0214
   70MOL0     H 9415   5.672   4.489   3.809 -0.1339  0.1222 -4.1461
   70MOL0     H 9416   5.598   4.516   3.574  2.0244 -0.8290 -0.6914
   70MOL0     H 9417   5.618   4.370   3.480  1.6096  2.5518 -0.7093
   70MOL0     H 9418   5.356   4.367   3.470 -1.4452 -0.5354  2.4267
   70MOL0     H 9419   5.356   4.525   3.535  1.3778 -1.7908  3.8807
   70MOL0     H 9420   5.470   4.433   3.263  2.6163  1.2073 -0.1653
   70MOL0     H 9421   5.503   4.594   3.329 -0.7979  0.8976  0.2459
   70MOL0     H 9422   5.216   4.487   3.282  1.2416  0.1339 -0.0402
   70MOL0     H 9423   5.268   4.652   3.333  1.6494 -1.2359  2.0456
   70MOL0     H 9424   5.356   4.539   3.066 -0.4692 -0.2288 -0.6938
   70MOL0     H 9425   5.374   4.702   3.139 -0.7109 -0.6904  0.1165
   70MOL0     H 9426   5.094   4.589   3.116  2.2240 -2.7840  0.3949
   70MOL0     H 9427   5.139   4.756   3.125 -1.9692 -1.0530  0.1601
   70MOL0     H 9428   5.189   4.575   2.881 -1.4919  0.6165 -3.0806
   70MOL0     H 9429   5.220   4.755   2.899 -0.2303  0.2482  1.5680
   70MOL0     H 9430   4.957   4.769   2.925  0.6897  0.1265  0.7533
   70MOL0     H 9431   4.965   4.610   2.852  0.5732  0.6932  2.0171
   70MOL0     H 9432   5.633   4.094   3.653  0.5307 -0.2807 -0.2329
   70MOL0     H 9433   5.872   4.047   3.723 -1.1960 -0.5503  1.0020
   70MOL0     H 9434   6.217   4.263   3.996 -2.6774  1.7574  0.6533
   70MOL0     H 9435   6.422   4.243   4.119 -3.1199  3.7163 -2.1687
   70MOL0     H 9436   6.959   4.812   2.967  1.0841  0.2052  2.2681
   70MOL0     H 9437   6.914   4.886   2.736  3.0304  0.7911 -2.0140
   70MOL0     H 9438   6.839   5.261   2.492  0.6805  2.3168 -0.9760
   70MOL0     H 9439   6.770   5.362   2.277  0.0600  0.7096 -2.4487
   70MOL0     H 9440   6.695   5.392   2.000 -1.3673  0.9012  1.7797
   70MOL0     H 9441   6.800   5.492   2.107 -1.5880 -0.6934  0.4600
   70MOL0     H 9442   6.819   5.430   1.811  1.3036  0.7756 -0.2182
   70MOL0     H 9443   6.950   5.503   1.914  1.0195 -2.9492  0.7856
   70MOL0     H 9444   6.665   5.588   1.839 -0.8460 -0.3839  5.2066
   70MOL0     H 9445   6.811   5.670   1.764  0.2988  0.4697  1.1625
   70MOL0     H 9446   6.874   5.766   1.976  0.5255 -1.4887 -2.5372
   70MOL0     H 9447   6.724   5.696   2.045  4.1610 -0.7647  1.7385
   70MOL0     H 9448   6.565   6.029   1.862  0.2833  1.2155  0.7359
   70MOL0     H 9449   7.024   5.094   2.064  0.6854 -2.1008  1.0807
   70MOL0     H 9450   7.089   4.993   2.277 -3.1829 -0.4006  0.3979
   71MOL0     O 9451   4.188  11.107   0.699  0.1979  0.2592  0.2190
   71MOL0     C 9452   4.298  11.165   0.705 -0.5054  0.7494 -0.0743
   71MOL0     O 9453   4.320  11.294   0.684 -0.4652  0.4629 -0.5734
   71MOL0     C 9454   4.208  11.370   0.636 -0.2346 -0.9880  0.4880
   71MOL0     C 9455   4.205  11.432   0.504  0.3919 -0.8334 -0.5976
   71MOL0     C 9456   4.106  11.516   0.460 -0.1144  0.7566  0.2015
   71MOL0     C 9457   3.999  11.540   0.548  0.8878  0.1195  0.5647
   71MOL0     O 9458   3.903  11.625   0.513 -0.0958 -0.0499 -0.1052
   71MOL0     C 9459   3.786  11.565   0.455  0.5610  0.0334  1.1458
   71MOL0     C 9460   3.679  11.669   0.484  1.1693  0.7772 -0.1016
   71MOL0     C 9461   3.539  11.625   0.441 -0.3215  0.1660 -0.4831
   71MOL0     C 9462   3.426  11.683   0.533 -0.7341 -0.2534 -0.3484
   71MOL0     C 9463   3.285  11.682   0.468  0.0561  0.3031  0.0437
   71MOL0     C 9464   3.245  11.801   0.376 -0.2298  0.6091  0.0764
   71MOL0     C 9465   3.094  11.805   0.334  1.0428 -0.8866 -0.5888
   71MOL0     C 9466   2.997  11.823   0.450  1.0614 -0.2156 -0.6775
   71MOL0     N 9467   3.043  11.937   0.536 -0.7528  0.5743 -1.3339
   71MOL0     C 9468   3.013  12.071   0.505 -0.1614 -0.2297  0.5077
   71MOL0     C 9469   3.064  12.142   0.606 -0.3425 -0.2054  0.2326
   71MOL0     C 9470   3.034  12.284   0.629 -0.0885  0.2605  1.2013
   71MOL0     C 9471   3.153  12.360   0.564 -0.3938 -0.2011  0.2630
   71MOL0     C 9472   3.171  12.511   0.577 -0.5215  0.4853 -0.1286
   71MOL0     C 9473   3.055  12.586   0.530 -0.6817  0.4270  0.0028
   71MOL0     O 9474   3.042  12.567   0.384  0.5023  0.2806 -0.3211
   71MOL0     C 9475   2.963  12.658   0.324 -0.8646 -0.1450  0.6386
   71MOL0     C 9476   2.846  12.723   0.366 -0.1929 -0.2552 -0.0395
   71MOL0     C 9477   2.780  12.822   0.302 -1.2301 -0.6008 -0.6203
   71MOL0     C 9478   2.649  12.873   0.362 -0.5569  0.5368  0.1684
   71MOL0     C 9479   2.835  12.879   0.187  0.2331 -0.1130  0.4916
   71MOL0     C 9480   2.782  12.996   0.111 -1.0899 -1.0215  0.9118
   71MOL0     O 9481   2.869  13.051   0.025 -0.5377  0.4692 -0.2483
   71MOL0     C 9482   2.834  13.158  -0.053  0.6449 -1.0762  0.5872
   71MOL0     C 9483   2.814  13.283   0.001 -0.1983 -0.4795  0.3401
   71MOL0     C 9484   2.775  13.390  -0.086 -0.2800  0.5835 -0.2424
   71MOL0     C 9485   2.752  13.365  -0.217  0.0292  0.9285 -0.6837
   71MOL0     O 9486   2.734  13.469  -0.300  0.4000 -0.2636 -0.0803
   71MOL0     C 9487   2.614  13.536  -0.275 -0.4062  0.4983 -0.4405
   71MOL0     C 9488   2.488  13.458  -0.315 -1.4037 -0.6458  0.8560
   71MOL0     C 9489   2.378  13.556  -0.318  0.0418 -0.8212  0.2016
   71MOL0     C 9490   2.253  13.467  -0.351  0.6734 -0.0102 -0.5330
   71MOL0     C 9491   2.130  13.523  -0.285  0.0962 -0.7831 -0.4883
   71MOL0     C 9492   2.130  13.508  -0.137 -0.3613 -0.5953  0.0442
   71MOL0     C 9493   1.976  13.507  -0.098 -0.3473 -0.8545  0.0284
   71MOL0     C 9494   1.972  13.536   0.047  0.4071  0.5847  0.7744
   71MOL0    Cl 9495   2.036  13.699   0.101 -0.0095 -0.0432  0.3285
   71MOL0     C 9496   2.779  13.239  -0.273 -0.1879 -0.8551  0.2644
   71MOL0     C 9497   2.824  13.136  -0.187  0.0267 -0.1227  0.1310
   71MOL0     O 9498   2.686  13.062   0.151  0.0195 -0.7308 -0.0026
   71MOL0     C 9499   2.966  12.833   0.152  0.3321 -0.6599 -2.2102
   71MOL0     C 9500   3.028  12.726   0.217 -0.6822  0.0828 -1.2726
   71MOL0     N 9501   3.120  12.060   0.698 -0.6015  0.1708 -1.0179
   71MOL0     N 9502   3.112  11.934   0.653 -0.5261 -0.2260 -0.4675
   71MOL0     C 9503   3.992  11.472   0.674 -1.1122  0.3539  0.0804
   71MOL0     C 9504   4.102  11.401   0.716  0.6771  0.7660 -0.4358
   71MOL0     C 9505   4.405  11.083   0.775  1.0441 -0.1315 -0.7443
   71MOL0     C 9506   4.368  10.958   0.824 -0.1987  0.8376 -0.4610
   71MOL0     C 9507   4.461  10.875   0.887  0.7021  0.0364 -0.2199
   71MOL0     C 9508   4.590  10.918   0.909 -0.2352 -1.1137 -0.2964
   71MOL0     O 9509   4.690  10.829   0.939  0.1128 -0.1747  0.8140
   71MOL0     C 9510   4.692  10.776   1.074 -0.0919 -0.1597 -1.0136
   71MOL0     C 9511   4.692  10.877   1.200  0.0653 -0.0440  1.6119
   71MOL0     C 9512   4.793  10.983   1.188 -0.1344 -0.3977  0.8316
   71MOL0     C 9513   4.861  11.019   1.322  1.0400 -0.8276 -1.5120
   71MOL0     C 9514   4.765  11.081   1.414 -0.2459 -1.0044 -0.1564
   71MOL0     C 9515   4.686  11.130   1.487  0.0378  0.7222  0.3918
   71MOL0     C 9516   4.628  11.047   0.862  0.4441  0.0778 -0.6783
   71MOL0     C 9517   4.534  11.124   0.803  0.7279 -0.1976  0.1787
   71MOL0     H 9518   4.296  11.410   0.449  0.1395 -0.4974 -1.1501
   71MOL0     H 9519   4.103  11.551   0.358  3.3141 -3.4881 -1.6903
   71MOL0     H 9520   3.789  11.542   0.348  1.0961  0.4668  1.0621
   71MOL0     H 9521   3.752  11.471   0.500 -2.8269  1.1344  1.1635
   71MOL0     H 9522   3.681  11.698   0.589  3.8201 -0.0827  0.1545
   71MOL0     H 9523   3.696  11.762   0.430  1.0860  0.7479 -0.1781
   71MOL0     H 9524   3.530  11.653   0.336  2.3900  1.0454 -0.5736
   71MOL0     H 9525   3.527  11.517   0.433  0.1273 -0.1775  2.2986
   71MOL0     H 9526   3.429  11.635   0.631  1.8887  1.0954  0.3227
   71MOL0     H 9527   3.453  11.786   0.556  0.1476 -0.8722  1.6396
   71MOL0     H 9528   3.268  11.582   0.427 -0.2608  1.1964 -2.1296
   71MOL0     H 9529   3.221  11.683   0.557 -1.6672  0.0379 -1.1518
   71MOL0     H 9530   3.280  11.892   0.426 -1.3846  0.4276  1.2717
   71MOL0     H 9531   3.318  11.793   0.295 -0.8829  0.8252 -0.5437
   71MOL0     H 9532   3.083  11.876   0.252 -1.1108 -1.0633 -0.5141
   71MOL0     H 9533   3.071  11.708   0.289 -1.0664 -1.0220  0.6219
   71MOL0     H 9534   3.009  11.729   0.504  1.5301 -0.9383 -2.0005
   71MOL0     H 9535   2.900  11.849   0.408  1.0234  0.0897 -0.4029
   71MOL0     H 9536   2.949  12.108   0.426 -1.7805  0.5872  2.1216
   71MOL0     H 9537   2.936  12.312   0.590 -0.0133  0.9957  1.5352
   71MOL0     H 9538   3.042  12.296   0.737 -0.1659 -2.5229  1.5880
   71MOL0     H 9539   3.181  12.315   0.469  3.2860  1.8441  0.1786
   71MOL0     H 9540   3.239  12.325   0.622 -0.6458 -1.8794 -0.3256
   71MOL0     H 9541   3.258  12.552   0.526  0.8632 -0.6499  1.2314
   71MOL0     H 9542   3.180  12.542   0.682 -2.0855  2.4341 -0.5067
   71MOL0     H 9543   3.072  12.692   0.550  2.7705  0.4964 -2.5048
   71MOL0     H 9544   2.967  12.559   0.589  1.9949 -4.7941  2.2239
   71MOL0     H 9545   2.810  12.681   0.460  0.4517 -0.0395  0.3049
   71MOL0     H 9546   2.627  12.835   0.462  3.5896 -1.9908  0.3327
   71MOL0     H 9547   2.644  12.981   0.380  0.6839  0.3954  1.4508
   71MOL0     H 9548   2.571  12.855   0.287  1.0109 -1.0281 -1.1671
   71MOL0     H 9549   2.834  13.286   0.108  4.0226 -2.8578 -0.1424
   71MOL0     H 9550   2.770  13.491  -0.045 -0.7948  0.6275 -0.4024
   71MOL0     H 9551   2.615  13.563  -0.169  2.0956 -1.2023  0.0628
   71MOL0     H 9552   2.609  13.623  -0.341 -1.7048  2.1598  1.7218
   71MOL0     H 9553   2.504  13.392  -0.401  0.2195  0.5985  0.1509
   71MOL0     H 9554   2.467  13.380  -0.240 -2.6987 -3.4034 -2.1379
   71MOL0     H 9555   2.386  13.641  -0.387 -1.5552  0.6309  1.7053
   71MOL0     H 9556   2.366  13.596  -0.217 -1.0213  1.7874 -0.8662
   71MOL0     H 9557   2.235  13.489  -0.457  1.6787  1.4261 -0.4373
   71MOL0     H 9558   2.274  13.361  -0.336  1.5769  0.3796  1.1866
   71MOL0     H 9559   2.043  13.475  -0.329 -1.1132  1.4557 -0.6827
   71MOL0     H 9560   2.133  13.625  -0.323  2.2508 -0.2675  0.8467
   71MOL0     H 9561   2.185  13.417  -0.110  1.2851 -0.9425 -3.7839
   71MOL0     H 9562   2.178  13.592  -0.087 -3.6045  1.6724 -0.3005
   71MOL0     H 9563   1.932  13.408  -0.116  1.9717 -1.9495  0.0130
   71MOL0     H 9564   1.920  13.581  -0.156 -2.2539 -1.2757  1.2185
   71MOL0     H 9565   2.030  13.457   0.095  0.1601 -0.3984 -0.4883
   71MOL0     H 9566   1.865  13.527   0.067 -0.1960  1.1756 -1.7579
   71MOL0     H 9567   2.775  13.234  -0.381 -1.4655 -0.7367  0.2927
   71MOL0     H 9568   2.866  13.046  -0.230  1.3486  0.7981 -0.5796
   71MOL0     H 9569   3.030  12.881   0.079  0.3970  1.8853 -0.6265
   71MOL0     H 9570   3.122  12.682   0.184 -0.9235 -1.7543  0.3043
   71MOL0     H 9571   3.910  11.498   0.740 -1.8850  1.2289 -1.1742
   71MOL0     H 9572   4.092  11.361   0.816 -2.0157  1.0886 -0.5093
   71MOL0     H 9573   4.270  10.912   0.818  0.3277 -0.2562 -1.0409
   71MOL0     H 9574   4.431  10.773   0.910  0.4568 -0.2748 -1.7988
   71MOL0     H 9575   4.612  10.702   1.083  1.3725 -1.9254 -1.7619
   71MOL0     H 9576   4.779  10.713   1.096 -0.6331 -0.3769  0.6412
   71MOL0     H 9577   4.726  10.831   1.293  0.9396  0.3735  1.5123
   71MOL0     H 9578   4.589  10.912   1.213 -1.3129 -1.7409 -2.8527
   71MOL0     H 9579   4.749  11.074   1.145 -0.5473  0.6797  3.3883
   71MOL0     H 9580   4.872  10.954   1.119 -1.2383  2.9213 -2.1631
   71MOL0     H 9581   4.948  11.083   1.303  1.8154 -0.2218  3.0316
   71MOL0     H 9582   4.886  10.932   1.383 -0.9058  0.3128  1.0732
   71MOL0     H 9583   4.610  11.166   1.553 -1.0686 -0.1155 -0.3840
   71MOL0     H 9584   4.731  11.078   0.870  0.6185 -0.8781  1.2019
   71MOL0     H 9585   4.558  11.222   0.762  0.1077  0.9741  2.4360
   72MOL0     O 9586   2.538   9.657   6.408 -0.4329  0.7164  0.0392
   72MOL0     C 9587   2.612   9.754   6.414 -0.6643  0.3132 -0.2470
   72MOL0     O 9588   2.598   9.866   6.485  0.1144 -0.3033 -0.0681
   72MOL0     C 9589   2.469   9.923   6.516 -0.1205  0.5545 -0.1579
   72MOL0     C 9590   2.469  10.002   6.637 -1.2411  0.5712  0.5415
   72MOL0     C 9591   2.353  10.055   6.687 -0.3758  0.6594  0.4064
   72MOL0     C 9592   2.232  10.034   6.621  0.2303 -0.5225 -0.6728
   72MOL0     O 9593   2.131  10.108   6.671  0.2457 -0.5245  0.1850
   72MOL0     C 9594   1.997  10.080   6.631 -0.1634 -0.1065 -0.4419
   72MOL0     C 9595   1.911  10.188   6.700  1.0399  1.5479  0.0494
   72MOL0     C 9596   1.952  10.327   6.658  1.0088 -0.6716 -0.5040
   72MOL0     C 9597   1.861  10.427   6.734  0.5368 -0.4237 -0.4598
   72MOL0     C 9598   1.929  10.566   6.742 -1.0760 -0.3830 -0.1776
   72MOL0     C 9599   1.943  10.642   6.615 -0.1509  0.0638  0.1728
   72MOL0     C 9600   2.020  10.775   6.632 -0.8570  1.3165 -0.2122
   72MOL0     C 9601   2.069  10.843   6.497  0.3735  0.4015 -0.0859
   72MOL0     N 9602   1.962  10.858   6.400 -0.3397 -0.4114 -0.0354
   72MOL0     C 9603   1.827  10.860   6.428 -0.9950 -0.2333 -0.3350
   72MOL0     C 9604   1.762  10.875   6.312  0.6519  0.2080 -0.1318
   72MOL0     C 9605   1.618  10.905   6.307 -0.1034 -0.0013  0.0679
   72MOL0     C 9606   1.598  11.036   6.242 -0.1478  0.6936  0.3458
   72MOL0     C 9607   1.649  11.152   6.332  0.1584  0.8820 -1.0712
   72MOL0     C 9608   1.641  11.281   6.245 -0.3080  0.1200 -0.1350
   72MOL0     O 9609   1.664  11.401   6.316 -0.6068 -0.1338 -0.4401
   72MOL0     C 9610   1.563  11.457   6.393  0.1605  0.3234  0.2157
   72MOL0     C 9611   1.584  11.589   6.439  0.7280 -0.2385  1.3156
   72MOL0     C 9612   1.485  11.651   6.516  0.5320 -0.0293  0.1214
   72MOL0     C 9613   1.515  11.799   6.551 -0.1337  1.1731  0.1391
   72MOL0     C 9614   1.358  11.586   6.533  0.4061 -0.4491 -0.4166
   72MOL0     C 9615   1.255  11.649   6.617 -0.6372  1.2278 -0.1685
   72MOL0     O 9616   1.192  11.750   6.558 -0.0414 -0.2569  0.3332
   72MOL0     C 9617   1.094  11.826   6.617 -0.2009  0.2022 -0.4341
   72MOL0     C 9618   0.981  11.862   6.542 -0.7723 -0.2167  1.0134
   72MOL0     C 9619   0.870  11.933   6.589 -0.2526 -0.2177  0.1678
   72MOL0     C 9620   0.866  11.960   6.727  0.8535 -0.1369 -0.1901
   72MOL0     O 9621   0.753  12.003   6.794  0.4714  0.0434  0.1680
   72MOL0     C 9622   0.707  11.948   6.924 -0.8584 -0.6769  0.9451
   72MOL0     C 9623   0.675  11.800   6.904  0.2862 -0.4100  0.4858
   72MOL0     C 9624   0.595  11.747   7.022 -0.3087 -0.0908 -0.1107
   72MOL0     C 9625   0.579  11.600   7.006  0.5513 -0.1930 -0.0987
   72MOL0     C 9626   0.449  11.536   7.072 -0.1200 -0.0760  0.3320
   72MOL0     C 9627   0.322  11.569   6.985 -0.0327 -0.3537 -0.0964
   72MOL0     C 9628   0.188  11.536   7.063 -0.1178 -0.3890 -0.4295
   72MOL0     C 9629   0.103  11.424   7.003  0.8128 -0.7293 -0.1304
   72MOL0    Cl 9630   0.192  11.278   6.945  0.0024 -0.2720 -0.0870
   72MOL0     C 9631   0.978  11.932   6.803  0.1178  0.5566 -1.7639
   72MOL0     C 9632   1.089  11.870   6.753  0.5276 -0.1645 -0.3925
   72MOL0     O 9633   1.234  11.592   6.727 -0.4334  0.1202  0.4565
   72MOL0     C 9634   1.341  11.459   6.485 -0.2887  0.1076 -0.5431
   72MOL0     C 9635   1.443  11.391   6.427  0.5619 -0.0465 -0.0380
   72MOL0     N 9636   1.860  10.881   6.206  0.0367  0.2697 -0.8493
   72MOL0     N 9637   1.979  10.863   6.263 -1.4005 -0.2585  0.2863
   72MOL0     C 9638   2.233   9.955   6.501  0.5029 -0.2055  0.6033
   72MOL0     C 9639   2.347   9.901   6.449 -0.2450  0.9756 -0.5202
   72MOL0     C 9640   2.753   9.744   6.353 -1.0075 -0.4689  0.2974
   72MOL0     C 9641   2.830   9.862   6.319  0.4947  0.2507 -0.2085
   72MOL0     C 9642   2.954   9.847   6.258  1.1216 -0.7281  0.4979
   72MOL0     C 9643   3.010   9.723   6.230 -0.0020  0.5234 -0.2699
   72MOL0     O 9644   3.123   9.711   6.159 -0.0832 -0.9855 -0.8796
   72MOL0     C 9645   3.240   9.765   6.215 -0.9928 -0.1120 -0.2013
   72MOL0     C 9646   3.317   9.827   6.096 -1.1408 -0.2052 -0.5290
   72MOL0     C 9647   3.299   9.974   6.079  0.2088 -0.5375 -0.0847
   72MOL0     C 9648   3.185  10.013   5.970  0.4023  1.1654  0.4558
   72MOL0     C 9649   3.222   9.971   5.827 -0.1384 -0.2200  0.1581
   72MOL0     C 9650   3.245   9.946   5.706  0.7555 -0.7750  0.4411
   72MOL0     C 9651   2.938   9.606   6.253  0.5505  0.3660  1.0806
   72MOL0     C 9652   2.812   9.624   6.306  0.3605  0.8336  0.2434
   72MOL0     H 9653   2.565  10.027   6.682 -0.3742  3.0880 -2.3542
   72MOL0     H 9654   2.364  10.125   6.769  1.6170  2.2516 -1.1216
   72MOL0     H 9655   1.979  10.076   6.523  1.0132 -3.3912 -0.6224
   72MOL0     H 9656   1.964   9.981   6.663  1.0035 -0.5920 -0.7074
   72MOL0     H 9657   1.810  10.186   6.657 -1.1537  3.3512  4.4889
   72MOL0     H 9658   1.902  10.169   6.807 -0.5717  2.3862  0.0950
   72MOL0     H 9659   2.057  10.350   6.680  0.0012  3.2267  1.2895
   72MOL0     H 9660   1.941  10.328   6.550  2.4471 -0.5769 -0.6737
   72MOL0     H 9661   1.759  10.429   6.692 -0.3142  5.7935  0.9263
   72MOL0     H 9662   1.845  10.395   6.837 -2.4543 -1.0766 -1.0230
   72MOL0     H 9663   1.877  10.635   6.809  0.1900  2.3859 -1.9062
   72MOL0     H 9664   2.024  10.541   6.790 -1.5261 -5.4173 -1.3526
   72MOL0     H 9665   1.999  10.588   6.537  0.6290  2.0267 -0.7075
   72MOL0     H 9666   1.839  10.664   6.589 -0.1468  0.9560  0.8540
   72MOL0     H 9667   1.961  10.847   6.690  0.5295  2.4377 -0.1357
   72MOL0     H 9668   2.106  10.757   6.696 -0.9829  4.2810  0.9513
   72MOL0     H 9669   2.144  10.782   6.445 -0.7449 -0.6424 -0.5038
   72MOL0     H 9670   2.109  10.942   6.522 -1.5089  1.3232 -0.5209
   72MOL0     H 9671   1.772  10.853   6.521 -2.1357  1.2132 -0.8552
   72MOL0     H 9672   1.563  10.823   6.260  2.1810 -1.5065 -0.1707
   72MOL0     H 9673   1.574  10.911   6.406  0.8312 -0.1213  0.5051
   72MOL0     H 9674   1.490  11.051   6.230 -0.1808 -0.6998 -1.4787
   72MOL0     H 9675   1.652  11.036   6.147  0.8446  1.0846  0.8962
   72MOL0     H 9676   1.744  11.116   6.373  2.0799  2.1785 -4.0145
   72MOL0     H 9677   1.582  11.168   6.418  0.4607  0.0423 -0.6724
   72MOL0     H 9678   1.553  11.282   6.181  3.0377  1.3924 -5.4007
   72MOL0     H 9679   1.730  11.270   6.182 -0.6380 -2.3905 -0.2663
   72MOL0     H 9680   1.687  11.623   6.443  1.1455 -1.2782  0.3064
   72MOL0     H 9681   1.430  11.847   6.601  0.3155 -0.4468  2.6467
   72MOL0     H 9682   1.594  11.806   6.626 -0.6650 -0.8015  0.9306
   72MOL0     H 9683   1.549  11.854   6.463  3.2745  1.1648  1.2892
   72MOL0     H 9684   0.990  11.826   6.440 -0.7369  1.7230  0.2919
   72MOL0     H 9685   0.784  11.955   6.527 -0.1729 -1.0296 -0.2482
   72MOL0     H 9686   0.780  11.977   7.000 -0.2525 -1.3186  0.6233
   72MOL0     H 9687   0.613  11.998   6.946 -0.9499  0.9196 -2.4947
   72MOL0     H 9688   0.618  11.780   6.813  0.1383  1.4074  0.1339
   72MOL0     H 9689   0.767  11.742   6.894 -1.1738 -2.7417 -0.2671
   72MOL0     H 9690   0.495  11.791   7.019 -0.4145 -0.2340 -3.9396
   72MOL0     H 9691   0.645  11.776   7.115 -1.0247  0.8859 -0.0189
   72MOL0     H 9692   0.572  11.573   6.901 -0.7093 -0.3517  0.0115
   72MOL0     H 9693   0.663  11.548   7.053 -0.4642 -1.8977 -0.0881
   72MOL0     H 9694   0.425  11.564   7.175 -2.6279  1.2271 -0.5366
   72MOL0     H 9695   0.459  11.428   7.067  0.1864  0.0154 -2.3331
   72MOL0     H 9696   0.310  11.675   6.964  0.4455 -0.4007 -0.6496
   72MOL0     H 9697   0.327  11.518   6.888 -0.7036 -0.9679  0.1812
   72MOL0     H 9698   0.128  11.626   7.076 -0.3345 -0.7302  1.1232
   72MOL0     H 9699   0.218  11.513   7.166 -0.8180 -1.3494 -0.4247
   72MOL0     H 9700   0.047  11.459   6.916  1.1071 -0.8199 -0.3550
   72MOL0     H 9701   0.031  11.401   7.082  1.0623  0.1528  0.3747
   72MOL0     H 9702   0.993  11.955   6.908  0.4878  0.9602 -1.9015
   72MOL0     H 9703   1.170  11.833   6.815  1.2050  0.4618 -0.8784
   72MOL0     H 9704   1.242  11.419   6.503  0.8832 -3.1393 -0.7334
   72MOL0     H 9705   1.411  11.297   6.380 -0.5339 -0.7790  2.0497
   72MOL0     H 9706   2.132   9.934   6.467  0.1652  2.0368  0.0901
   72MOL0     H 9707   2.321   9.826   6.375 -0.6287 -1.4206  1.8832
   72MOL0     H 9708   2.802   9.961   6.353 -2.5412 -0.2642 -0.8772
   72MOL0     H 9709   3.013   9.938   6.249 -0.8920  0.4651 -1.6898
   72MOL0     H 9710   3.231   9.839   6.295 -0.7318  1.0199 -1.1947
   72MOL0     H 9711   3.310   9.688   6.250 -0.5688 -1.1345 -3.0310
   72MOL0     H 9712   3.305   9.773   6.001 -3.4295  1.2341 -1.1363
   72MOL0     H 9713   3.421   9.816   6.128 -1.7605 -2.7009  0.8268
   72MOL0     H 9714   3.391  10.018   6.040 -0.7044  0.0932 -1.6120
   72MOL0     H 9715   3.269  10.022   6.173 -1.0857  0.3756 -0.9310
   72MOL0     H 9716   3.162  10.119   5.976  2.4788  1.7449 -0.9267
   72MOL0     H 9717   3.092   9.960   5.991  1.8161 -2.0401 -0.6965
   72MOL0     H 9718   3.252   9.916   5.604 -0.5200  0.4208 -0.0332
   72MOL0     H 9719   2.969   9.507   6.219  1.2678  1.6717 -2.4548
   72MOL0     H 9720   2.763   9.529   6.328 -1.6002  1.0226 -2.7008
   73MOL0     O 9721   2.876   6.275   4.174  0.2351 -0.3035  0.3157
   73MOL0     C 9722   2.838   6.390   4.211 -1.1338  1.1909 -0.1280
   73MOL0     O 9723   2.719   6.409   4.282  0.6599  0.0859 -0.2304
   73MOL0     C 9724   2.640   6.295   4.280  1.3680 -0.3290  0.1425
   73MOL0     C 9725   2.638   6.201   4.382  0.2094  0.6012 -0.0817
   73MOL0     C 9726   2.561   6.084   4.365 -0.5210  0.3998  0.2500
   73MOL0     C 9727   2.472   6.066   4.257  0.1670  0.1195  0.3562
   73MOL0     O 9728   2.392   5.956   4.246  0.4443 -0.2894  0.6838
   73MOL0     C 9729   2.437   5.824   4.284 -0.4437 -0.2096 -0.8049
   73MOL0     C 9730   2.305   5.746   4.305  0.9128 -0.5624  0.3530
   73MOL0     C 9731   2.336   5.607   4.364 -0.3910 -0.8237  0.7751
   73MOL0     C 9732   2.217   5.503   4.344 -0.3432 -0.8597 -0.2369
   73MOL0     C 9733   2.086   5.539   4.419  0.1323 -0.0585 -0.9629
   73MOL0     C 9734   1.965   5.453   4.390 -0.0146 -0.1540 -0.7550
   73MOL0     C 9735   1.826   5.468   4.462 -0.0387 -0.3265 -0.3322
   73MOL0     C 9736   1.722   5.526   4.365 -0.1587 -0.6038  0.0358
   73MOL0     N 9737   1.659   5.430   4.282 -1.5882 -0.7714  0.5950
   73MOL0     C 9738   1.594   5.321   4.324  0.1339 -0.3206 -0.1290
   73MOL0     C 9739   1.555   5.253   4.207 -0.6325 -0.7663  0.3099
   73MOL0     C 9740   1.499   5.118   4.193 -0.1871  0.1654 -0.3646
   73MOL0     C 9741   1.597   5.025   4.118 -0.3918 -0.2958  0.3854
   73MOL0     C 9742   1.731   5.024   4.182 -1.0250 -0.2020 -0.1299
   73MOL0     C 9743   1.816   4.916   4.121  0.0177  0.0706 -0.4179
   73MOL0     O 9744   1.959   4.946   4.136  0.0511  0.4177  0.5880
   73MOL0     C 9745   2.015   5.050   4.066 -0.2611  0.0588 -0.6482
   73MOL0     C 9746   1.955   5.149   3.985  0.8935 -0.4704 -0.3535
   73MOL0     C 9747   2.024   5.265   3.955 -0.4424  0.8100 -0.3603
   73MOL0     C 9748   1.939   5.377   3.895  0.7694  0.2957  0.1066
   73MOL0     C 9749   2.161   5.283   4.002 -0.8429  0.3110  0.1784
   73MOL0     C 9750   2.248   5.395   3.953  0.3107  0.1597 -1.0162
   73MOL0     O 9751   2.355   5.409   4.026 -0.0628 -0.2081 -0.2482
   73MOL0     C 9752   2.453   5.488   3.984  0.7249 -0.1220 -0.5612
   73MOL0     C 9753   2.576   5.429   3.959  0.3214  0.1090 -0.1568
   73MOL0     C 9754   2.680   5.506   3.910 -0.2150  0.4043 -0.6279
   73MOL0     C 9755   2.666   5.646   3.898 -0.2132  0.1767  0.0936
   73MOL0     O 9756   2.762   5.723   3.850 -0.3475  0.4517 -0.8912
   73MOL0     C 9757   2.846   5.796   3.939 -0.0478 -0.2018 -0.1221
   73MOL0     C 9758   2.898   5.926   3.883 -0.1576  0.2217 -0.3074
   73MOL0     C 9759   2.942   6.025   3.990  0.7609  0.0650  0.8189
   73MOL0     C 9760   3.078   5.979   4.054 -0.8072  0.1837  0.8613
   73MOL0     C 9761   3.142   6.094   4.124  1.0241 -0.5959 -0.2558
   73MOL0     C 9762   3.277   6.053   4.177  0.0868 -0.4434 -0.1978
   73MOL0     C 9763   3.341   6.179   4.246  0.6522 -0.6370  0.3763
   73MOL0     C 9764   3.484   6.154   4.293  0.0645  0.0893 -0.9162
   73MOL0    Cl 9765   3.572   6.307   4.307 -0.0466 -0.6819  0.1798
   73MOL0     C 9766   2.544   5.710   3.935  0.0933  1.2537 -0.2060
   73MOL0     C 9767   2.435   5.633   3.976 -0.8185  0.7832 -0.4608
   73MOL0     O 9768   2.224   5.457   3.850 -0.6773 -0.3122  1.0017
   73MOL0     C 9769   2.219   5.179   4.075  0.5495  0.0646 -0.1252
   73MOL0     C 9770   2.147   5.067   4.108  0.2476  0.3235  0.1639
   73MOL0     N 9771   1.602   5.324   4.095  0.5530  0.0940  0.4255
   73MOL0     N 9772   1.654   5.438   4.138  0.4505  0.1445 -0.4209
   73MOL0     C 9773   2.461   6.177   4.166  0.1200 -0.5398 -0.8673
   73MOL0     C 9774   2.549   6.289   4.174  0.4530  1.2017 -0.4235
   73MOL0     C 9775   2.920   6.510   4.186  0.1551 -0.5117  0.4642
   73MOL0     C 9776   2.865   6.646   4.169  0.1364  0.0370 -0.6829
   73MOL0     C 9777   2.943   6.754   4.126 -0.8289  0.5763  0.2183
   73MOL0     C 9778   3.080   6.749   4.111  0.8328  1.0691  1.5416
   73MOL0     O 9779   3.158   6.860   4.096  0.3175 -0.3397 -0.8309
   73MOL0     C 9780   3.096   6.983   4.073  0.2416 -0.3928  0.0151
   73MOL0     C 9781   3.067   7.006   3.928 -0.0156 -0.4238 -0.9792
   73MOL0     C 9782   2.960   6.915   3.863  0.0654  0.5469  0.7325
   73MOL0     C 9783   2.985   6.921   3.713 -0.2818 -1.0319  0.0382
   73MOL0     C 9784   2.982   7.061   3.653  0.5444  0.8647  0.0977
   73MOL0     C 9785   2.975   7.174   3.614 -0.6476  0.0236 -0.2424
   73MOL0     C 9786   3.134   6.623   4.131 -0.6686  0.2811  0.5763
   73MOL0     C 9787   3.063   6.505   4.160 -0.3002  0.5595 -0.3829
   73MOL0     H 9788   2.716   6.196   4.457  1.0999 -2.4353 -1.0589
   73MOL0     H 9789   2.571   5.999   4.431  0.0854  1.6260  1.7952
   73MOL0     H 9790   2.516   5.791   4.216  1.3633 -1.2803  1.6652
   73MOL0     H 9791   2.493   5.842   4.376  0.0922 -3.0719 -0.4802
   73MOL0     H 9792   2.249   5.801   4.380  0.5688  1.7859 -1.4786
   73MOL0     H 9793   2.253   5.737   4.209  2.0550 -2.3192 -0.1533
   73MOL0     H 9794   2.431   5.568   4.326  3.0541  3.5036  3.8362
   73MOL0     H 9795   2.347   5.622   4.472 -0.5987  0.6252  0.6084
   73MOL0     H 9796   2.205   5.505   4.235 -0.0224  1.9854 -0.3066
   73MOL0     H 9797   2.247   5.402   4.373 -1.4312 -0.6614  1.8279
   73MOL0     H 9798   2.098   5.526   4.527  1.0895  0.1383 -1.0338
   73MOL0     H 9799   2.055   5.643   4.404  2.1996  1.1723  2.1072
   73MOL0     H 9800   1.950   5.457   4.281  1.0670  1.8255 -0.8721
   73MOL0     H 9801   1.990   5.350   4.416  0.2852  0.1638  0.2262
   73MOL0     H 9802   1.787   5.376   4.504  1.3997 -0.8116  0.0077
   73MOL0     H 9803   1.847   5.529   4.550  0.4453  0.0222 -0.6804
   73MOL0     H 9804   1.779   5.596   4.302  1.8752  1.2881  3.6329
   73MOL0     H 9805   1.651   5.592   4.416 -1.4406 -2.6387  0.9945
   73MOL0     H 9806   1.586   5.296   4.429  0.1714  3.0762  0.8064
   73MOL0     H 9807   1.495   5.080   4.296 -5.0896  0.4822 -0.2013
   73MOL0     H 9808   1.398   5.107   4.153 -0.9306 -0.9978  1.6483
   73MOL0     H 9809   1.612   5.056   4.014  0.7108  2.3138  1.2251
   73MOL0     H 9810   1.544   4.930   4.126 -0.6361 -0.1998 -0.0729
   73MOL0     H 9811   1.729   5.005   4.290  1.0223  2.2440  0.4087
   73MOL0     H 9812   1.777   5.119   4.157 -2.8304  0.3579 -1.5940
   73MOL0     H 9813   1.794   4.911   4.014 -1.9060  4.4159 -0.4201
   73MOL0     H 9814   1.791   4.820   4.167 -0.0348 -0.5926 -1.7611
   73MOL0     H 9815   1.849   5.143   3.967  0.5605  1.6493  0.6852
   73MOL0     H 9816   1.835   5.351   3.872  0.9659 -0.9785  0.5731
   73MOL0     H 9817   1.936   5.466   3.958  1.2455  0.3941 -0.0090
   73MOL0     H 9818   1.995   5.404   3.805  1.3901 -1.1502  0.0273
   73MOL0     H 9819   2.579   5.321   3.958  0.2517  0.0694  1.6433
   73MOL0     H 9820   2.766   5.460   3.863  0.3294 -0.8284  1.4687
   73MOL0     H 9821   2.783   5.830   4.021  1.5645 -0.7202  1.3885
   73MOL0     H 9822   2.916   5.725   3.983 -1.9224  0.2151  4.0035
   73MOL0     H 9823   2.961   5.910   3.795 -0.4773 -0.7305 -0.3765
   73MOL0     H 9824   2.809   5.977   3.844  0.6469  0.8894 -1.3292
   73MOL0     H 9825   2.867   6.031   4.070 -0.4579  0.0841 -0.2971
   73MOL0     H 9826   2.947   6.130   3.958 -2.1364  0.8184  2.4965
   73MOL0     H 9827   3.066   5.907   4.136  2.6615  1.0549  2.2812
   73MOL0     H 9828   3.147   5.941   3.979 -0.6289  1.3811  0.4044
   73MOL0     H 9829   3.077   6.130   4.204  2.6572  1.7111  0.1155
   73MOL0     H 9830   3.162   6.168   4.046  0.2027  0.2280  0.3012
   73MOL0     H 9831   3.265   5.977   4.255  0.4471 -1.2907 -0.9553
   73MOL0     H 9832   3.337   5.998   4.104  1.5055 -2.3832  2.2794
   73MOL0     H 9833   3.273   6.221   4.321 -0.9841  1.7157 -2.2107
   73MOL0     H 9834   3.333   6.251   4.163 -0.3388 -0.0556  0.9522
   73MOL0     H 9835   3.549   6.098   4.225 -0.2274  2.0481 -2.9290
   73MOL0     H 9836   3.498   6.104   4.389  1.5876  0.3495 -0.9770
   73MOL0     H 9837   2.544   5.818   3.930  1.2621  1.2102 -1.7563
   73MOL0     H 9838   2.336   5.663   4.008 -1.0449  0.2335 -0.6356
   73MOL0     H 9839   2.325   5.181   4.099  1.1257  0.0843 -2.4742
   73MOL0     H 9840   2.188   4.988   4.170 -2.2784 -1.6656 -0.5250
   73MOL0     H 9841   2.390   6.182   4.084 -0.9414  0.7020  0.0873
   73MOL0     H 9842   2.558   6.368   4.100  2.2952  1.8999  0.4856
   73MOL0     H 9843   2.762   6.665   4.198  1.3750  2.3123  3.0248
   73MOL0     H 9844   2.889   6.847   4.114 -0.8751  0.5265  0.0324
   73MOL0     H 9845   3.004   7.009   4.127  0.6290 -2.1526  1.6155
   73MOL0     H 9846   3.170   7.056   4.107 -0.3131 -0.3943  1.2745
   73MOL0     H 9847   3.161   6.988   3.875  1.1694  1.8637  0.1980
   73MOL0     H 9848   3.035   7.108   3.903  1.5959  0.1824 -0.6863
   73MOL0     H 9849   2.858   6.951   3.883  0.3721  1.1251  1.2794
   73MOL0     H 9850   2.977   6.815   3.903 -0.6359 -0.0016 -0.3093
   73MOL0     H 9851   2.911   6.852   3.673  1.1696 -3.4619  1.3567
   73MOL0     H 9852   3.081   6.878   3.682 -1.2511 -1.4226 -2.7559
   73MOL0     H 9853   2.977   7.271   3.569  3.2604  0.5733  0.6907
   73MOL0     H 9854   3.239   6.631   4.103  0.0995  4.2699  3.6706
   73MOL0     H 9855   3.121   6.415   4.146  0.1897  0.3520  2.4350
   74MOL0     O 9856   1.112   9.084  10.263 -0.0489 -1.1644  0.1772
   74MOL0     C 9857   1.181   9.080  10.362  1.0671 -0.4154  0.1076
   74MOL0     O 9858   1.220   8.968  10.424 -0.1712 -0.9136 -0.3067
   74MOL0     C 9859   1.156   8.857  10.373 -1.2683  0.2010 -0.3186
   74MOL0     C 9860   1.028   8.840  10.428  0.9052  0.4017 -0.6656
   74MOL0     C 9861   0.947   8.734  10.382  0.2723 -0.5890  0.8489
   74MOL0     C 9862   0.990   8.642  10.286  0.4494  0.5756 -0.1798
   74MOL0     O 9863   0.907   8.551  10.229 -0.4819 -0.4677  0.5642
   74MOL0     C 9864   0.769   8.586  10.213  0.2572 -0.5289 -0.6104
   74MOL0     C 9865   0.690   8.503  10.122  0.0570  0.4519  0.5184
   74MOL0     C 9866   0.760   8.518   9.980  0.1505  0.7162 -0.2100
   74MOL0     C 9867   0.712   8.416   9.884  1.0151 -0.4532 -0.1014
   74MOL0     C 9868   0.712   8.472   9.744 -0.5174  0.4731  0.1963
   74MOL0     C 9869   0.632   8.390   9.635  0.1968 -0.5004  0.0354
   74MOL0     C 9870   0.631   8.453   9.492  0.2416  0.0354 -0.1884
   74MOL0     C 9871   0.520   8.385   9.406  1.1641  0.3555  1.0745
   74MOL0     N 9872   0.524   8.466   9.285  0.0680 -0.4639 -0.3987
   74MOL0     C 9873   0.413   8.547   9.261  0.5014 -0.0338  0.6787
   74MOL0     C 9874   0.402   8.549   9.125 -0.6611 -0.4492 -0.5202
   74MOL0     C 9875   0.287   8.609   9.053 -0.9570 -0.1560  0.0535
   74MOL0     C 9876   0.149   8.562   9.103 -0.1734  0.1998  1.0068
   74MOL0     C 9877   0.041   8.645   9.040  0.0667  0.7141  0.1385
   74MOL0     C 9878   0.020   8.780   9.110  0.8173 -0.1256  0.2290
   74MOL0     O 9879  -0.117   8.832   9.083  0.2123  0.1282  0.7285
   74MOL0     C 9880  -0.146   8.886   8.958 -0.0824  0.6300 -0.7736
   74MOL0     C 9881  -0.260   8.850   8.903  0.3074 -0.3375  0.2165
   74MOL0     C 9882  -0.300   8.916   8.786  0.7091  0.4723  0.2357
   74MOL0     C 9883  -0.443   8.880   8.727  0.4911  0.6710 -0.2125
   74MOL0     C 9884  -0.223   9.009   8.715  0.9099 -0.6350 -0.9383
   74MOL0     C 9885  -0.259   9.083   8.586 -0.5236 -0.7060  0.0302
   74MOL0     O 9886  -0.378   9.067   8.534  0.9867 -0.0194 -0.1175
   74MOL0     C 9887  -0.412   9.086   8.400  0.1382 -1.2669 -0.3065
   74MOL0     C 9888  -0.533   9.142   8.378  0.9850 -0.4150  0.2152
   74MOL0     C 9889  -0.584   9.164   8.241 -0.3730  0.7257 -1.3885
   74MOL0     C 9890  -0.504   9.129   8.131  0.5044  0.0195  0.4891
   74MOL0     O 9891  -0.523   9.162   8.001  0.3415 -0.6782  0.2276
   74MOL0     C 9892  -0.635   9.243   7.969 -0.5596  0.0851  0.0182
   74MOL0     C 9893  -0.625   9.304   7.832 -0.3505  0.9323  0.5178
   74MOL0     C 9894  -0.652   9.214   7.712 -0.6000 -0.1804  0.1562
   74MOL0     C 9895  -0.608   9.280   7.583 -0.0071  1.0027  0.9581
   74MOL0     C 9896  -0.642   9.187   7.454  0.3752 -0.0354 -0.8730
   74MOL0     C 9897  -0.584   9.258   7.331  0.2966  0.3902  0.0175
   74MOL0     C 9898  -0.610   9.184   7.192 -0.5336 -0.0009  0.0567
   74MOL0     C 9899  -0.513   9.227   7.078 -0.3668 -0.5496 -0.3659
   74MOL0    Cl 9900  -0.552   9.105   6.947  0.3070 -0.9772 -0.3176
   74MOL0     C 9901  -0.371   9.093   8.158 -1.4945 -0.0849 -0.7679
   74MOL0     C 9902  -0.329   9.068   8.291 -0.1377  0.0938  0.9411
   74MOL0     O 9903  -0.160   9.134   8.524 -0.0514  0.1572  0.1067
   74MOL0     C 9904  -0.095   9.033   8.768  0.5376  1.0666  0.5150
   74MOL0     C 9905  -0.062   8.976   8.888  0.2145  0.2898  0.1625
   74MOL0     N 9906   0.508   8.488   9.068  0.6819  1.0768  0.0516
   74MOL0     N 9907   0.580   8.438   9.168 -0.9326 -0.8845  0.2957
   74MOL0     C 9908   1.128   8.650  10.248 -0.0369 -0.3888  0.6516
   74MOL0     C 9909   1.211   8.761  10.296  0.4058 -0.3614  0.2327
   74MOL0     C 9910   1.216   9.210  10.420  0.0098 -0.5356  0.4335
   74MOL0     C 9911   1.262   9.218  10.552  0.1811  0.0098  0.0494
   74MOL0     C 9912   1.313   9.340  10.610 -0.3964 -0.1037 -0.7153
   74MOL0     C 9913   1.324   9.458  10.538  0.0736 -0.6788  0.7758
   74MOL0     O 9914   1.395   9.564  10.607 -0.0959 -0.0804  0.5095
   74MOL0     C 9915   1.391   9.697  10.563 -0.4008  0.0043  1.3656
   74MOL0     C 9916   1.299   9.775  10.652 -0.4990 -0.1470  0.4564
   74MOL0     C 9917   1.335   9.779  10.805 -0.0482 -0.3464 -0.2709
   74MOL0     C 9918   1.467   9.865  10.821 -0.1122 -0.1614 -0.3986
   74MOL0     C 9919   1.425  10.007  10.816 -0.4374 -0.7807  1.0062
   74MOL0     C 9920   1.406  10.131  10.813 -0.2307 -0.6718 -1.0322
   74MOL0     C 9921   1.277   9.444  10.405  1.0091 -0.1642  0.2283
   74MOL0     C 9922   1.221   9.324  10.348  0.5045  0.5804 -0.0843
   74MOL0     H 9923   0.987   8.910  10.500 -0.5374 -1.0232 -0.0304
   74MOL0     H 9924   0.844   8.729  10.417  0.0852 -1.1612  0.2406
   74MOL0     H 9925   0.713   8.587  10.307 -0.5409  1.5485 -1.0550
   74MOL0     H 9926   0.763   8.687  10.171  0.8455  0.2965  1.1730
   74MOL0     H 9927   0.704   8.396  10.143  1.8572  0.8014  1.3458
   74MOL0     H 9928   0.584   8.527  10.116 -0.8286 -2.8091  1.1669
   74MOL0     H 9929   0.756   8.619   9.939  2.7186  0.7686 -0.4554
   74MOL0     H 9930   0.866   8.496   9.992 -0.2074 -2.4478 -1.7283
   74MOL0     H 9931   0.759   8.317   9.895 -0.6913 -1.3976 -0.8001
   74MOL0     H 9932   0.608   8.387   9.904  0.8270  0.3405  0.0773
   74MOL0     H 9933   0.679   8.576   9.739  0.1014  0.6927  0.5198
   74MOL0     H 9934   0.817   8.478   9.716 -1.3079  1.4912 -2.9883
   74MOL0     H 9935   0.669   8.287   9.631 -1.3206 -1.0848 -3.7933
   74MOL0     H 9936   0.534   8.377   9.682 -0.6044 -1.3786 -1.7438
   74MOL0     H 9937   0.610   8.560   9.499  1.4831  0.3520 -0.9484
   74MOL0     H 9938   0.734   8.439   9.459  0.7539  2.7260  0.0311
   74MOL0     H 9939   0.423   8.384   9.457  2.3388  1.8973  3.4891
   74MOL0     H 9940   0.555   8.287   9.371 -2.9910 -1.2171  0.7489
   74MOL0     H 9941   0.347   8.595   9.332  0.3427  1.2940 -0.3376
   74MOL0     H 9942   0.291   8.718   9.061  1.9686  0.0085 -2.2214
   74MOL0     H 9943   0.297   8.569   8.952  0.7588 -0.6620  0.3952
   74MOL0     H 9944   0.156   8.577   9.211  3.1403 -0.6229  1.0338
   74MOL0     H 9945   0.143   8.456   9.076  2.1121 -0.1016  1.4941
   74MOL0     H 9946  -0.054   8.593   9.056  2.6450 -3.8610  2.5246
   74MOL0     H 9947   0.064   8.650   8.933  5.3011 -2.0438  0.8004
   74MOL0     H 9948   0.096   8.854   9.085 -1.5415  2.1895 -0.5886
   74MOL0     H 9949   0.034   8.773   9.218  1.0388 -0.0223  0.2063
   74MOL0     H 9950  -0.321   8.777   8.956  1.3619 -1.4476 -0.0373
   74MOL0     H 9951  -0.454   8.845   8.624 -0.3419 -0.3354  0.2055
   74MOL0     H 9952  -0.485   8.795   8.782  2.9333 -0.9204 -0.6421
   74MOL0     H 9953  -0.507   8.968   8.742 -0.1978 -0.0000  0.8623
   74MOL0     H 9954  -0.602   9.156   8.461 -0.6083  0.4402 -1.1916
   74MOL0     H 9955  -0.686   9.198   8.225 -0.3644  2.2688  1.2868
   74MOL0     H 9956  -0.730   9.188   7.971  0.1441 -1.2852 -1.5747
   74MOL0     H 9957  -0.649   9.318   8.047  0.7889  2.7365 -2.1368
   74MOL0     H 9958  -0.700   9.385   7.830 -3.3910 -1.6424  1.6965
   74MOL0     H 9959  -0.523   9.343   7.825  1.5443 -3.6231 -1.1928
   74MOL0     H 9960  -0.758   9.191   7.720 -1.2726  2.9623  1.8481
   74MOL0     H 9961  -0.607   9.118   7.740 -1.7237 -0.5382  0.7909
   74MOL0     H 9962  -0.638   9.386   7.577 -1.2152  0.5974 -2.2563
   74MOL0     H 9963  -0.499   9.285   7.588  0.0815 -1.0999  1.8325
   74MOL0     H 9964  -0.752   9.180   7.455  0.2350  1.6966  0.3047
   74MOL0     H 9965  -0.603   9.085   7.465  0.1944 -0.0493 -0.3337
   74MOL0     H 9966  -0.621   9.360   7.315 -2.0047 -0.6025 -1.5876
   74MOL0     H 9967  -0.475   9.268   7.342  0.9996 -0.5790 -4.1183
   74MOL0     H 9968  -0.708   9.214   7.155 -1.5205 -0.8788  1.8120
   74MOL0     H 9969  -0.600   9.076   7.205  0.5290 -0.2485 -2.4555
   74MOL0     H 9970  -0.410   9.207   7.108 -0.0041  0.2213 -1.0665
   74MOL0     H 9971  -0.542   9.330   7.058 -0.0539 -0.3025  0.4160
   74MOL0     H 9972  -0.303   9.091   8.074 -0.7106  0.7341 -0.1653
   74MOL0     H 9973  -0.224   9.042   8.299 -1.1126 -4.8432  0.5213
   74MOL0     H 9974  -0.028   9.100   8.715  1.5304 -1.8222 -2.2353
   74MOL0     H 9975   0.035   8.997   8.932  0.3530 -0.3720  0.1887
   74MOL0     H 9976   1.165   8.581  10.173 -1.3951  0.4790 -0.8965
   74MOL0     H 9977   1.314   8.775  10.266 -0.1487  2.1456 -0.7899
   74MOL0     H 9978   1.265   9.121  10.600  0.1391 -0.7689 -1.4898
   74MOL0     H 9979   1.353   9.349  10.710  0.8059  2.9043 -1.3508
   74MOL0     H 9980   1.490   9.741  10.578 -1.1784  1.2380  3.2767
   74MOL0     H 9981   1.367   9.696  10.456 -3.8677 -0.3360  2.0205
   74MOL0     H 9982   1.192   9.751  10.656 -0.3511 -0.8791  0.0905
   74MOL0     H 9983   1.308   9.875  10.609 -0.6998 -0.9903 -1.6603
   74MOL0     H 9984   1.340   9.674  10.835  2.9972  0.3869  2.3346
   74MOL0     H 9985   1.251   9.825  10.857  0.0117 -0.4407 -0.0903
   74MOL0     H 9986   1.541   9.828  10.749 -0.5181 -1.9727  0.0704
   74MOL0     H 9987   1.515   9.854  10.919  1.5926 -1.3285 -1.3034
   74MOL0     H 9988   1.396  10.238  10.808  0.0641 -0.5825  0.0025
   74MOL0     H 9989   1.286   9.530  10.339  0.9788  0.9165  1.5802
   74MOL0     H 9990   1.198   9.308  10.243 -2.0555 -0.7417  0.5983
   75MOL0     O 9991   5.571   1.856   0.102 -0.3214 -0.6227 -0.2292
   75MOL0     C 9992   5.677   1.806   0.073  0.7788 -0.1190  0.2441
   75MOL0     O 9993   5.769   1.762   0.163 -0.7311 -0.2613 -0.1952
   75MOL0     C 9994   5.736   1.774   0.299  0.3311 -0.5547 -0.8624
   75MOL0     C 9995   5.825   1.849   0.380  0.1663  0.9668 -0.0411
   75MOL0     C 9996   5.805   1.854   0.522 -1.4938 -0.1748 -0.3552
   75MOL0     C 9997   5.688   1.801   0.581  0.6144  0.2709  0.0714
   75MOL0     O 9998   5.654   1.805   0.711  0.2544 -0.4181  0.4917
   75MOL0     C 9999   5.739   1.878   0.802  0.4039 -0.4100  0.7076
   75MOL0     C10000   5.665   1.914   0.936 -0.2100 -0.2437 -0.5428
   75MOL0     C10001   5.779   1.957   1.035 -1.1123 -1.0113 -0.1378
   75MOL0     C10002   5.723   1.998   1.172  0.1562  0.1378  1.5285
   75MOL0     C10003   5.842   2.010   1.270  0.2603  0.1193 -0.1911
   75MOL0     C10004   5.790   2.065   1.404  0.7954  0.9039 -0.3476
   75MOL0     C10005   5.709   1.943   1.469 -0.4087 -0.0307  0.5411
   75MOL0     C10006   5.810   1.846   1.525  0.9436 -0.3223 -0.8505
   75MOL0     N10007   5.776   1.807   1.659 -0.1351  1.0081 -0.7330
   75MOL0     C10008   5.848   1.838   1.776  0.5101 -0.9972  0.6052
   75MOL0     C10009   5.806   1.749   1.878  0.7451  0.4463  0.2846
   75MOL0     C10010   5.861   1.726   2.020  0.4643  0.2725  1.5672
   75MOL0     C10011   5.819   1.586   2.075  0.1070 -0.4503  1.0341
   75MOL0     C10012   5.899   1.463   2.037  0.5078 -0.2581 -0.1002
   75MOL0     C10013   6.024   1.452   2.119  0.3789 -0.0437 -0.0852
   75MOL0     O10014   6.094   1.334   2.077 -0.1184 -0.3436  0.8241
   75MOL0     C10015   6.217   1.314   2.147  0.3525  0.2019 -0.0168
   75MOL0     C10016   6.333   1.269   2.086  0.5449  0.7790  0.2550
   75MOL0     C10017   6.454   1.242   2.162  0.9780  1.2526 -0.2814
   75MOL0     C10018   6.576   1.187   2.090 -0.1154 -0.4835 -0.8897
   75MOL0     C10019   6.447   1.264   2.305 -0.1780 -0.0383  0.1157
   75MOL0     C10020   6.565   1.249   2.396  0.4308  0.9769 -1.0709
   75MOL0     O10021   6.665   1.168   2.365  0.2852 -0.5096  0.1743
   75MOL0     C10022   6.770   1.150   2.442 -1.0673  0.8977  0.2888
   75MOL0     C10023   6.750   1.109   2.574 -0.5139  0.9055 -0.6684
   75MOL0     C10024   6.864   1.079   2.654  0.2034  0.2737  0.0988
   75MOL0     C10025   6.996   1.092   2.614 -0.8847  0.2943 -0.1049
   75MOL0     O10026   7.109   1.071   2.701 -0.0070 -0.0313  0.9758
   75MOL0     C10027   7.094   1.035   2.836 -0.1406 -0.6752 -0.1509
   75MOL0     C10028   7.055   1.154   2.931  0.6477 -0.6355 -0.2094
   75MOL0     C10029   7.148   1.282   2.907 -0.1097  0.9042 -0.3291
   75MOL0     C10030   7.282   1.242   2.964 -0.5170 -0.2157  0.8612
   75MOL0     C10031   7.381   1.364   2.986  0.2585  0.2666  0.0794
   75MOL0     C10032   7.515   1.322   3.034 -0.6728 -0.0693  0.3245
   75MOL0     C10033   7.615   1.438   3.084 -0.8706 -0.3651 -0.1738
   75MOL0     C10034   7.747   1.377   3.151  0.2471 -0.3835  1.4375
   75MOL0    Cl10035   7.863   1.514   3.156 -0.2508 -0.0382  0.1033
   75MOL0     C10036   7.011   1.138   2.483  0.2013  0.9877 -0.3030
   75MOL0     C10037   6.902   1.167   2.397  0.7703 -0.4629  0.4245
   75MOL0     O10038   6.553   1.297   2.510  0.7858 -0.8257 -0.1204
   75MOL0     C10039   6.333   1.324   2.358  0.2079  0.0901  0.2419
   75MOL0     C10040   6.218   1.344   2.283 -0.0487 -0.2310  0.8594
   75MOL0     N10041   5.708   1.671   1.823  0.0132  0.0384 -0.2235
   75MOL0     N10042   5.694   1.700   1.692  0.1313  0.7811  0.0546
   75MOL0     C10043   5.592   1.733   0.501  0.4333  0.1551  0.1269
   75MOL0     C10044   5.619   1.720   0.357 -0.0114  0.0798  0.4171
   75MOL0     C10045   5.728   1.817  -0.069 -0.3445  0.0620 -0.7968
   75MOL0     C10046   5.648   1.850  -0.170 -0.2433  0.1713 -0.3863
   75MOL0     C10047   5.704   1.862  -0.300  0.0880 -0.3932  0.4900
   75MOL0     C10048   5.845   1.846  -0.324 -0.6391 -0.5161  0.2212
   75MOL0     O10049   5.913   1.838  -0.448 -0.6127 -0.0054 -0.7042
   75MOL0     C10050   5.850   1.901  -0.561 -0.0089 -0.6875 -0.2839
   75MOL0     C10051   5.954   1.866  -0.670  0.6128  0.6222  0.1255
   75MOL0     C10052   5.939   1.934  -0.808 -1.0077 -0.4082  0.5115
   75MOL0     C10053   5.834   1.876  -0.897 -0.0447  0.9998 -0.0496
   75MOL0     C10054   5.701   1.911  -0.846 -0.2921 -0.0663 -1.2117
   75MOL0     C10055   5.586   1.932  -0.810  0.1269 -0.0996 -0.5117
   75MOL0     C10056   5.922   1.818  -0.207  0.4858 -0.5314  0.2025
   75MOL0     C10057   5.866   1.794  -0.090  0.3957  0.3795 -1.2114
   75MOL0     H10058   5.906   1.904   0.332 -2.3372  2.9107 -2.3527
   75MOL0     H10059   5.879   1.912   0.577 -2.0087 -0.5929  0.8221
   75MOL0     H10060   5.829   1.818   0.819 -0.2665 -1.5897  0.2661
   75MOL0     H10061   5.775   1.974   0.766  0.4290 -1.7109 -3.2175
   75MOL0     H10062   5.580   1.982   0.931  0.5305  1.1158  2.7858
   75MOL0     H10063   5.614   1.828   0.980 -0.4017 -1.0539 -2.2790
   75MOL0     H10064   5.857   1.881   1.045  0.9981  1.3048  3.0182
   75MOL0     H10065   5.828   2.048   0.998 -0.8288 -1.8858 -2.0571
   75MOL0     H10066   5.670   2.093   1.160 -1.8778 -1.2001 -1.6816
   75MOL0     H10067   5.648   1.923   1.198  0.3184 -0.4794  0.2984
   75MOL0     H10068   5.890   1.912   1.279 -1.8052 -0.8363  1.1766
   75MOL0     H10069   5.905   2.088   1.226  2.1903 -0.9814  0.4803
   75MOL0     H10070   5.866   2.103   1.472  0.1096 -0.1028  1.0248
   75MOL0     H10071   5.722   2.150   1.396  1.0035  1.0999 -0.0347
   75MOL0     H10072   5.637   1.969   1.547 -2.7651 -1.0576 -1.1904
   75MOL0     H10073   5.645   1.913   1.386 -2.9644  0.9140  2.0684
   75MOL0     H10074   5.901   1.905   1.533 -1.0891  2.8538  2.0800
   75MOL0     H10075   5.832   1.763   1.458  3.7325 -2.0108  1.9026
   75MOL0     H10076   5.921   1.918   1.775 -0.9152  0.3861 -1.5411
   75MOL0     H10077   5.969   1.739   2.010 -0.1476  4.8245 -2.2392
   75MOL0     H10078   5.825   1.802   2.091 -0.9762  0.6052  0.5271
   75MOL0     H10079   5.714   1.566   2.053 -0.4653  2.3190  0.8172
   75MOL0     H10080   5.810   1.598   2.183  0.0957  0.8312  0.9163
   75MOL0     H10081   5.926   1.461   1.931  1.0337 -2.4661  0.0248
   75MOL0     H10082   5.843   1.369   2.041 -2.4604  1.3423 -1.1074
   75MOL0     H10083   5.987   1.442   2.221 -1.0888 -2.7230 -0.7726
   75MOL0     H10084   6.088   1.540   2.103  0.4103 -0.0929 -0.2298
   75MOL0     H10085   6.338   1.244   1.980 -1.0120 -0.9535  0.5245
   75MOL0     H10086   6.610   1.091   2.131  0.4594 -1.0944 -2.7102
   75MOL0     H10087   6.551   1.166   1.986 -4.3849  0.4239 -0.2335
   75MOL0     H10088   6.657   1.258   2.108 -0.1599 -0.9988  1.7718
   75MOL0     H10089   6.647   1.094   2.605 -0.6654  1.8391 -0.6826
   75MOL0     H10090   6.832   1.033   2.747  0.0061  1.1183  0.4496
   75MOL0     H10091   7.028   0.948   2.844 -0.2430 -0.7729 -1.8065
   75MOL0     H10092   7.196   1.007   2.863 -0.1339 -2.1237 -1.5306
   75MOL0     H10093   6.955   1.184   2.900  0.8968 -0.4287 -0.8141
   75MOL0     H10094   7.042   1.112   3.032  3.0154 -0.4736  0.2389
   75MOL0     H10095   7.101   1.361   2.966 -1.8330 -0.7962  0.7092
   75MOL0     H10096   7.171   1.311   2.804 -0.2667 -1.1395 -0.9876
   75MOL0     H10097   7.278   1.203   3.066  0.4115  0.3252  1.1143
   75MOL0     H10098   7.335   1.172   2.898 -3.3179  0.2938 -2.2286
   75MOL0     H10099   7.328   1.427   3.058 -0.9124 -0.7024  0.0907
   75MOL0     H10100   7.395   1.426   2.897 -1.5275  0.0523 -0.3940
   75MOL0     H10101   7.511   1.255   3.120  3.8676  1.5474  2.1101
   75MOL0     H10102   7.565   1.265   2.955  1.1225 -2.4802  2.9696
   75MOL0     H10103   7.563   1.502   3.157 -0.4218  0.0894 -0.2448
   75MOL0     H10104   7.635   1.510   3.004 -3.9673  1.3327  0.4305
   75MOL0     H10105   7.786   1.294   3.091 -4.4556 -1.0506 -1.1167
   75MOL0     H10106   7.731   1.352   3.256  1.6302 -1.4097  1.4369
   75MOL0     H10107   7.115   1.141   2.453 -0.0175  0.4440 -1.2019
   75MOL0     H10108   6.914   1.200   2.294 -1.0349  2.5112  1.0419
   75MOL0     H10109   6.335   1.357   2.461  1.8910 -0.0242  0.2819
   75MOL0     H10110   6.131   1.378   2.339  0.1067  0.6082  0.6005
   75MOL0     H10111   5.505   1.693   0.552  1.4905  1.8158  3.5952
   75MOL0     H10112   5.554   1.663   0.293  0.3264 -1.7105  1.5846
   75MOL0     H10113   5.539   1.854  -0.171 -0.2517 -0.0338 -0.7997
   75MOL0     H10114   5.639   1.878  -0.386  0.3304 -1.3078  0.1212
   75MOL0     H10115   5.747   1.867  -0.570 -0.8084  1.9345 -2.0405
   75MOL0     H10116   5.849   2.009  -0.542 -1.6455 -0.6186 -0.6293
   75MOL0     H10117   5.953   1.757  -0.677 -0.6622  0.3918  2.5993
   75MOL0     H10118   6.050   1.895  -0.625  1.0022 -2.0921  1.2486
   75MOL0     H10119   6.033   1.923  -0.863  0.3289  0.0502  2.5879
   75MOL0     H10120   5.929   2.043  -0.796 -2.6035 -0.7182  2.7610
   75MOL0     H10121   5.843   1.767  -0.899  0.9992  0.9070  3.2210
   75MOL0     H10122   5.848   1.909  -1.000  1.9019 -1.0287 -0.5107
   75MOL0     H10123   5.493   1.938  -0.758  0.4043 -1.1431  0.1488
   75MOL0     H10124   6.027   1.792  -0.220  0.1865 -2.5468  1.4126
   75MOL0     H10125   5.932   1.762  -0.009  0.9023 -1.1692 -2.2089
   76MOL0     O10126   0.733   8.600   5.515  0.2685  0.6308  0.1439
   76MOL0     C10127   0.660   8.571   5.421  0.5164 -0.7254  0.1691
   76MOL0     O10128   0.605   8.652   5.330 -0.2954 -0.4961  0.3480
   76MOL0     C10129   0.647   8.783   5.320  0.6690  0.3024  0.2769
   76MOL0     C10130   0.564   8.887   5.365 -0.4887  0.5643 -0.2158
   76MOL0     C10131   0.605   9.016   5.347 -0.0807 -0.0265  0.8060
   76MOL0     C10132   0.714   9.053   5.275 -0.3532  0.1066  1.7946
   76MOL0     O10133   0.749   9.185   5.282 -0.7363 -0.0817 -1.3175
   76MOL0     C10134   0.876   9.226   5.234 -0.5941  0.0473  0.0228
   76MOL0     C10135   0.911   9.369   5.271 -0.0149 -0.4713  0.1152
   76MOL0     C10136   0.860   9.422   5.404 -0.1386 -0.5471  0.2004
   76MOL0     C10137   0.888   9.579   5.418  0.0910 -0.2797  0.2442
   76MOL0     C10138   0.863   9.641   5.552 -0.9810  1.1491  0.0807
   76MOL0     C10139   0.873   9.795   5.563  0.0300 -0.0649 -0.1515
   76MOL0     C10140   1.018   9.840   5.592  0.4731  0.7020 -0.0531
   76MOL0     C10141   1.051   9.974   5.531  0.5053 -1.5066  0.1202
   76MOL0     N10142   1.098   9.951   5.393  0.9255 -0.7831 -0.1824
   76MOL0     C10143   1.206  10.004   5.321  1.1731  0.5394 -0.1288
   76MOL0     C10144   1.189   9.963   5.193 -0.3825 -1.1319 -0.0064
   76MOL0     C10145   1.298   9.977   5.093 -0.2327 -0.0005  1.1646
   76MOL0     C10146   1.332   9.849   5.022  0.6159  0.3888  0.6647
   76MOL0     C10147   1.456   9.858   4.925  0.2540  0.2803 -0.4252
   76MOL0     C10148   1.468   9.724   4.851  0.7158 -0.2291 -0.3364
   76MOL0     O10149   1.349   9.669   4.785 -0.5132 -0.1324 -0.4883
   76MOL0     C10150   1.378   9.626   4.662  0.2134  0.0788  0.0283
   76MOL0     C10151   1.387   9.699   4.541 -0.2389  0.5148 -0.6750
   76MOL0     C10152   1.437   9.637   4.424 -0.2124  0.3146 -0.4423
   76MOL0     C10153   1.437   9.726   4.303 -0.5614 -0.6606  0.0485
   76MOL0     C10154   1.469   9.499   4.430 -0.3027 -0.3746  0.2211
   76MOL0     C10155   1.518   9.423   4.310  0.9304  0.9718 -0.3517
   76MOL0     O10156   1.458   9.456   4.200  0.1343 -0.3478 -0.5534
   76MOL0     C10157   1.472   9.392   4.085 -0.5385  0.2896  0.4439
   76MOL0     C10158   1.467   9.453   3.963  1.0506 -0.3060  0.5266
   76MOL0     C10159   1.452   9.393   3.836  0.2062  0.3562 -0.7804
   76MOL0     C10160   1.431   9.256   3.831 -0.5434 -0.2445 -0.8383
   76MOL0     O10161   1.397   9.186   3.721 -0.0779  0.8597 -0.3641
   76MOL0     C10162   1.322   9.244   3.621  0.2134 -0.5310 -0.0649
   76MOL0     C10163   1.295   9.127   3.520  0.2422 -0.3343 -0.7774
   76MOL0     C10164   1.163   9.051   3.556  0.2119 -0.1579 -0.2506
   76MOL0     C10165   1.046   9.144   3.532  0.4754 -0.2982  0.1130
   76MOL0     C10166   0.914   9.103   3.600  0.2504 -0.5789  0.5954
   76MOL0     C10167   0.803   9.195   3.531  0.4825 -0.5169  0.0473
   76MOL0     C10168   0.780   9.180   3.393 -0.0322  0.4601  0.5926
   76MOL0     C10169   0.660   9.266   3.340 -0.9989 -0.3506  0.2922
   76MOL0    Cl10170   0.581   9.173   3.192 -0.2845  0.4487 -0.5816
   76MOL0     C10171   1.438   9.184   3.953  0.2626 -0.0960  0.9265
   76MOL0     C10172   1.468   9.247   4.072 -0.8289 -0.3345 -1.2569
   76MOL0     O10173   1.607   9.336   4.326  0.0127 -0.2041  0.9856
   76MOL0     C10174   1.447   9.417   4.546  0.2566 -0.8911 -0.5172
   76MOL0     C10175   1.405   9.487   4.662  0.7040 -0.2357  0.1022
   76MOL0     N10176   1.068   9.906   5.172 -0.3558  0.2858  0.6671
   76MOL0     N10177   1.014   9.903   5.285 -0.1916  0.0215 -0.6270
   76MOL0     C10178   0.791   8.948   5.210 -0.4426 -1.2478  0.5996
   76MOL0     C10179   0.757   8.821   5.243 -0.4083  0.9467 -0.0577
   76MOL0     C10180   0.604   8.433   5.428  0.7834 -1.1771 -0.0289
   76MOL0     C10181   0.524   8.400   5.318 -0.1884  0.2661 -0.6882
   76MOL0     C10182   0.458   8.278   5.312  0.6418 -0.5623 -0.1830
   76MOL0     C10183   0.461   8.187   5.418  0.7081 -0.4534  0.8378
   76MOL0     O10184   0.392   8.066   5.425  0.3286 -0.5450 -0.0175
   76MOL0     C10185   0.276   8.059   5.346  0.0656  0.9646 -0.0219
   76MOL0     C10186   0.180   7.956   5.405  0.6814  0.1952  0.2884
   76MOL0     C10187   0.045   7.933   5.326 -0.6914  0.1098 -1.2411
   76MOL0     C10188  -0.075   8.035   5.342 -0.1618 -0.2124  0.4685
   76MOL0     C10189  -0.043   8.160   5.259 -0.0698 -0.3964  0.3012
   76MOL0     C10190  -0.036   8.257   5.191 -0.7087 -0.2593 -0.4625
   76MOL0     C10191   0.532   8.222   5.526 -0.1342 -1.0675  0.1376
   76MOL0     C10192   0.605   8.346   5.542  0.3001 -0.0548 -0.2059
   76MOL0     H10193   0.473   8.869   5.421 -0.1514 -0.2043  0.1010
   76MOL0     H10194   0.546   9.098   5.387 -1.7601 -1.1362  0.7108
   76MOL0     H10195   0.941   9.161   5.294 -2.5544  0.5942  2.9678
   76MOL0     H10196   0.879   9.217   5.125 -1.5786 -1.3481  0.0854
   76MOL0     H10197   1.019   9.386   5.258 -0.6604  2.1121 -4.1276
   76MOL0     H10198   0.861   9.430   5.195  1.5480  0.7719  0.0296
   76MOL0     H10199   0.755   9.396   5.418 -0.7057  0.9220 -1.0551
   76MOL0     H10200   0.912   9.360   5.478  2.8224 -1.4322 -2.3618
   76MOL0     H10201   0.994   9.588   5.396  0.1806  0.9285  1.0824
   76MOL0     H10202   0.840   9.642   5.342  4.6781  3.2938 -0.1146
   76MOL0     H10203   0.766   9.601   5.585 -0.9297  0.4149 -0.6411
   76MOL0     H10204   0.940   9.593   5.613  0.3990 -0.1884 -2.5464
   76MOL0     H10205   0.829   9.833   5.470  0.9576 -2.3889 -1.6568
   76MOL0     H10206   0.808   9.838   5.639  2.3214  0.5233  1.5839
   76MOL0     H10207   1.019   9.848   5.701 -1.0629  0.4196 -0.0067
   76MOL0     H10208   1.093   9.772   5.549  0.1156  0.6029 -0.5270
   76MOL0     H10209   1.118  10.030   5.597  0.5308  0.2484 -1.3081
   76MOL0     H10210   0.962  10.035   5.517  2.7816  1.7029 -1.4832
   76MOL0     H10211   1.286  10.057   5.373  1.6082  2.3402 -2.4920
   76MOL0     H10212   1.267  10.047   5.014 -0.0880 -1.1924  0.0228
   76MOL0     H10213   1.385  10.025   5.140 -1.0476 -1.7693  4.8156
   76MOL0     H10214   1.247   9.809   4.966  2.2298  0.7667 -2.3139
   76MOL0     H10215   1.350   9.767   5.092 -1.7376 -1.5995 -0.9100
   76MOL0     H10216   1.541   9.900   4.979 -0.1673  2.9558 -1.6780
   76MOL0     H10217   1.445   9.927   4.842  0.0713  0.6922 -0.0638
   76MOL0     H10218   1.491   9.652   4.930 -1.4439 -0.2263  0.3549
   76MOL0     H10219   1.550   9.728   4.779 -1.0642 -0.7148 -2.5050
   76MOL0     H10220   1.364   9.804   4.558  2.6263  0.9173  1.6401
   76MOL0     H10221   1.404   9.827   4.330  0.5473  0.7805 -3.3245
   76MOL0     H10222   1.540   9.756   4.282 -1.0813  2.7137  1.6225
   76MOL0     H10223   1.382   9.677   4.222 -0.5651 -2.0472  0.8596
   76MOL0     H10224   1.473   9.561   3.968 -0.8722 -0.2210  3.1952
   76MOL0     H10225   1.427   9.453   3.749 -0.1735  0.0590 -0.8815
   76MOL0     H10226   1.228   9.274   3.669  1.7124 -0.1439  2.8243
   76MOL0     H10227   1.378   9.330   3.583  1.3564 -0.6490  1.2840
   76MOL0     H10228   1.300   9.155   3.415  0.6198 -1.0008 -0.9386
   76MOL0     H10229   1.366   9.045   3.538 -2.0101 -1.9351  1.6623
   76MOL0     H10230   1.167   9.004   3.655  2.4506  1.3454  0.4816
   76MOL0     H10231   1.147   8.966   3.489 -0.5999  0.5059 -0.9174
   76MOL0     H10232   1.060   9.249   3.559 -1.0811 -0.7140  2.8980
   76MOL0     H10233   1.034   9.139   3.423 -2.0770 -2.8511  0.3791
   76MOL0     H10234   0.934   9.117   3.707 -2.5487 -0.5367  1.1803
   76MOL0     H10235   0.893   8.999   3.573 -1.3743  0.0508 -0.7396
   76MOL0     H10236   0.711   9.169   3.585  0.2512  0.7268  0.2815
   76MOL0     H10237   0.817   9.302   3.552 -1.6777 -0.1751 -0.0290
   76MOL0     H10238   0.762   9.074   3.371  0.5914  0.7216 -1.3199
   76MOL0     H10239   0.868   9.219   3.341  0.1028 -2.4406 -1.6068
   76MOL0     H10240   0.684   9.369   3.309  0.8655 -0.6079  0.7648
   76MOL0     H10241   0.581   9.278   3.414 -1.5000  0.8671 -0.3992
   76MOL0     H10242   1.419   9.077   3.949 -0.1368 -0.0023  0.0978
   76MOL0     H10243   1.475   9.189   4.164 -2.4833 -2.4316 -2.3467
   76MOL0     H10244   1.475   9.312   4.548  0.2997 -0.8718  0.8840
   76MOL0     H10245   1.403   9.432   4.756 -0.5428 -1.6630 -0.7004
   76MOL0     H10246   0.877   8.966   5.146 -0.5672 -1.0294  0.4934
   76MOL0     H10247   0.809   8.751   5.178 -2.3899 -0.4014 -0.2824
   76MOL0     H10248   0.529   8.456   5.225 -2.1272  2.2179  0.3065
   76MOL0     H10249   0.407   8.253   5.219 -3.0163  1.3157  1.0919
   76MOL0     H10250   0.236   8.160   5.335  2.5804  2.1846  1.1036
   76MOL0     H10251   0.299   8.018   5.247 -1.1286 -0.9530  0.4386
   76MOL0     H10252   0.144   8.002   5.498  3.0411 -0.6963  1.7379
   76MOL0     H10253   0.222   7.857   5.424  1.6885  0.3628 -0.9981
   76MOL0     H10254   0.007   7.842   5.372  0.0595  1.2497  1.9067
   76MOL0     H10255   0.057   7.907   5.221 -4.2176  1.9821 -2.2799
   76MOL0     H10256  -0.089   8.066   5.446  1.5858  1.6354  0.2390
   76MOL0     H10257  -0.160   7.979   5.304 -2.3400  2.2850  1.4053
   76MOL0     H10258  -0.004   8.346   5.142  3.3902 -2.2229 -1.7473
   76MOL0     H10259   0.529   8.150   5.608  1.9409 -1.6780 -0.2444
   76MOL0     H10260   0.665   8.373   5.628  0.7514 -2.9605  0.4826
   77MOL0     O10261   9.827   7.577   5.597 -0.5223 -0.6686 -0.8801
   77MOL0     C10262   9.785   7.462   5.601  0.0485 -0.9137  0.4407
   77MOL0     O10263   9.863   7.358   5.606 -0.0805  0.6916  0.1788
   77MOL0     C10264   9.990   7.363   5.561 -0.3190 -0.0758 -0.0755
   77MOL0     C10265  10.011   7.387   5.423 -0.4023 -0.8487  1.1083
   77MOL0     C10266  10.147   7.370   5.379 -0.0711  0.2804  0.8693
   77MOL0     C10267  10.258   7.345   5.459  1.0187  0.1426 -0.8651
   77MOL0     O10268  10.384   7.342   5.412 -1.4699 -0.2893  0.0567
   77MOL0     C10269  10.473   7.223   5.415  0.4027 -0.4068  0.1942
   77MOL0     C10270  10.411   7.091   5.369 -0.2781  0.1241 -0.3873
   77MOL0     C10271  10.473   7.048   5.234 -0.6338  0.9945  0.5387
   77MOL0     C10272  10.458   7.137   5.110 -0.1981  0.5842 -0.3243
   77MOL0     C10273  10.565   7.110   5.001  0.3987  0.2158  1.5703
   77MOL0     C10274  10.530   7.185   4.870 -0.8161 -0.0682 -0.2878
   77MOL0     C10275  10.589   7.108   4.748 -0.6997  0.3925 -0.1387
   77MOL0     C10276  10.742   7.113   4.751  0.4645  0.4406  0.2542
   77MOL0     N10277  10.788   7.051   4.634  1.0403 -0.1648 -0.2839
   77MOL0     C10278  10.835   6.924   4.628 -0.0265 -0.4350 -0.3645
   77MOL0     C10279  10.832   6.894   4.498 -0.1376 -0.1343 -0.3031
   77MOL0     C10280  10.887   6.768   4.439  0.5213 -0.3588 -0.2077
   77MOL0     C10281  11.017   6.778   4.362 -0.4168  0.1690 -0.1272
   77MOL0     C10282  11.122   6.863   4.423  0.1616 -0.1757 -0.8849
   77MOL0     C10283  11.248   6.871   4.335  0.2189  0.6275  0.0331
   77MOL0     O10284  11.333   6.980   4.375 -0.6907  0.2143 -1.4592
   77MOL0     C10285  11.472   6.968   4.351  0.3127 -0.2235  0.0358
   77MOL0     C10286  11.515   6.907   4.233 -0.5055 -0.6660  0.0052
   77MOL0     C10287  11.648   6.910   4.191  0.2330  0.4989 -0.3998
   77MOL0     C10288  11.687   6.844   4.062  1.3330  1.0212 -0.5528
   77MOL0     C10289  11.736   7.000   4.264  0.1470  0.7432 -0.9648
   77MOL0     C10290  11.878   7.036   4.231  0.0365  0.3172 -0.8313
   77MOL0     O10291  11.942   7.127   4.318 -0.0802 -0.0515  0.1545
   77MOL0     C10292  12.076   7.129   4.304  0.1568  0.2882 -0.9781
   77MOL0     C10293  12.148   7.234   4.255 -0.0749 -0.6921  0.2398
   77MOL0     C10294  12.286   7.213   4.240  0.2534 -0.8551  0.9024
   77MOL0     C10295  12.350   7.095   4.280 -0.4423 -0.7942 -0.3714
   77MOL0     O10296  12.476   7.056   4.267 -0.7276  0.3533 -0.5640
   77MOL0     C10297  12.577   7.144   4.206  0.5714  0.0900  0.2017
   77MOL0     C10298  12.716   7.090   4.212 -0.7959  0.0691 -0.0518
   77MOL0     C10299  12.750   7.015   4.355 -0.5999  0.3416 -0.0479
   77MOL0     C10300  12.897   6.992   4.375  0.8900  0.4396  0.1710
   77MOL0     C10301  12.927   6.944   4.520  0.4391 -1.0016  0.6164
   77MOL0     C10302  13.062   6.870   4.542 -0.7530 -0.7828 -0.1252
   77MOL0     C10303  13.092   6.863   4.694 -0.8270 -0.2882  0.0619
   77MOL0     C10304  13.237   6.837   4.712 -0.4962  0.5366  0.1246
   77MOL0    Cl10305  13.333   6.965   4.627  0.2143 -0.1390 -0.1102
   77MOL0     C10306  12.268   6.992   4.344  0.0798 -1.0204 -0.5742
   77MOL0     C10307  12.133   7.008   4.348  1.1784  0.4698 -0.7379
   77MOL0     O10308  11.926   7.001   4.122  0.3786  1.0429 -0.0208
   77MOL0     C10309  11.686   7.064   4.379  0.4186  0.2690 -0.0082
   77MOL0     C10310  11.558   7.038   4.432 -0.0556  0.7619  0.4214
   77MOL0     N10311  10.787   7.005   4.425 -0.0472 -0.2700 -0.0100
   77MOL0     N10312  10.766   7.098   4.512  0.9304 -0.9197 -0.3330
   77MOL0     C10313  10.232   7.323   5.595  0.1233 -0.8097 -0.3740
   77MOL0     C10314  10.103   7.333   5.640  0.2518 -0.0581 -0.6417
   77MOL0     C10315   9.640   7.446   5.618  0.5656  0.4415 -0.0118
   77MOL0     C10316   9.583   7.315   5.604  0.0822  0.6705  0.4128
   77MOL0     C10317   9.453   7.283   5.653 -0.0920  0.3190  0.4885
   77MOL0     C10318   9.379   7.381   5.716 -0.0332 -0.3014 -0.8092
   77MOL0     O10319   9.266   7.352   5.795  0.1606  0.7435 -0.6515
   77MOL0     C10320   9.222   7.219   5.822  0.1436 -0.2105  0.7529
   77MOL0     C10321   9.132   7.206   5.940 -0.1711 -0.3668  0.0331
   77MOL0     C10322   9.223   7.220   6.063 -0.3327  0.7578  0.6018
   77MOL0     C10323   9.161   7.192   6.201 -0.7063 -0.0020 -0.6176
   77MOL0     C10324   9.048   7.280   6.223  0.7850 -0.2708 -0.1199
   77MOL0     C10325   8.945   7.345   6.232 -0.5118  0.4481 -0.8471
   77MOL0     C10326   9.437   7.509   5.733 -0.2790 -0.9724 -0.1954
   77MOL0     C10327   9.566   7.538   5.683 -0.0664  0.5905 -0.4883
   77MOL0     H10328   9.932   7.400   5.350 -1.0806  1.3689  2.1410
   77MOL0     H10329  10.173   7.377   5.274 -0.8536 -1.2093  0.5480
   77MOL0     H10330  10.570   7.245   5.369  1.1864  3.1349  3.0399
   77MOL0     H10331  10.496   7.219   5.522 -2.4679 -0.6131  0.8860
   77MOL0     H10332  10.436   7.016   5.445  0.1898  1.2720  0.6351
   77MOL0     H10333  10.302   7.087   5.373 -0.2642 -3.6007  0.4904
   77MOL0     H10334  10.576   7.011   5.245 -0.7619 -0.4405 -2.1574
   77MOL0     H10335  10.427   6.955   5.200  1.7940  1.1625 -4.0101
   77MOL0     H10336  10.351   7.137   5.088 -0.2581 -0.2515 -0.0765
   77MOL0     H10337  10.488   7.236   5.146  1.9399 -0.6311  1.5002
   77MOL0     H10338  10.662   7.148   5.035  0.8830 -0.6805  1.2168
   77MOL0     H10339  10.573   7.003   4.982 -0.6300  0.6904 -2.5628
   77MOL0     H10340  10.421   7.195   4.861 -1.2007 -1.4021  2.0060
   77MOL0     H10341  10.575   7.282   4.892  1.1446 -0.3912 -2.5163
   77MOL0     H10342  10.549   7.006   4.743 -1.1796  0.4645  1.4897
   77MOL0     H10343  10.555   7.160   4.658 -1.1464  2.5191  1.1986
   77MOL0     H10344  10.790   7.057   4.832  1.2680 -1.0770 -1.2199
   77MOL0     H10345  10.773   7.218   4.749 -1.2298  0.9644 -1.6769
   77MOL0     H10346  10.849   6.854   4.710  1.0825  2.0666  1.7090
   77MOL0     H10347  10.896   6.699   4.524 -1.0716  0.3751  0.6088
   77MOL0     H10348  10.806   6.722   4.381 -0.7522 -0.4777  1.5700
   77MOL0     H10349  10.985   6.815   4.264 -0.0423 -2.6608 -1.4516
   77MOL0     H10350  11.058   6.677   4.346  2.1311  0.7260  2.2264
   77MOL0     H10351  11.159   6.824   4.519 -0.7347 -0.1512 -0.5232
   77MOL0     H10352  11.085   6.966   4.430  1.2702  0.2736 -1.4188
   77MOL0     H10353  11.219   6.890   4.231  1.1085  3.2454  0.1710
   77MOL0     H10354  11.307   6.779   4.337  1.6303  1.4970  0.9487
   77MOL0     H10355  11.441   6.850   4.177  0.0584 -0.3584 -1.0885
   77MOL0     H10356  11.638   6.747   4.068  1.9527  0.7444  4.1732
   77MOL0     H10357  11.655   6.913   3.983  1.2475  1.4357 -0.1603
   77MOL0     H10358  11.794   6.825   4.057  1.0757 -1.2100  1.0093
   77MOL0     H10359  12.096   7.326   4.227 -0.8863 -0.5376  2.1624
   77MOL0     H10360  12.348   7.297   4.208 -2.8094  0.8282 -1.0805
   77MOL0     H10361  12.558   7.154   4.099 -0.8531 -5.8512 -0.4815
   77MOL0     H10362  12.581   7.243   4.252  5.4038 -0.1172  0.6967
   77MOL0     H10363  12.750   7.020   4.134  3.0625 -0.3045  1.7088
   77MOL0     H10364  12.784   7.175   4.198 -2.8768  1.5685 -1.8254
   77MOL0     H10365  12.695   6.921   4.356  0.4542 -0.2836 -0.0628
   77MOL0     H10366  12.725   7.072   4.445  3.8252  1.4834  0.6669
   77MOL0     H10367  12.934   6.923   4.298 -1.1347  2.1271 -2.5218
   77MOL0     H10368  12.949   7.085   4.350  2.4461 -0.7153 -1.2137
   77MOL0     H10369  12.841   6.888   4.559  0.3130 -0.6064  0.9233
   77MOL0     H10370  12.928   7.042   4.570  0.4151  2.0979 -4.7330
   77MOL0     H10371  13.045   6.768   4.505 -1.0174 -0.1497 -1.8599
   77MOL0     H10372  13.135   6.921   4.478 -3.6689  0.4444 -2.7253
   77MOL0     H10373  13.035   6.791   4.753 -1.9407  2.5692  2.8277
   77MOL0     H10374  13.078   6.962   4.739 -1.3710  0.7512 -2.2503
   77MOL0     H10375  13.259   6.734   4.683  0.9780  0.7498  0.4516
   77MOL0     H10376  13.249   6.852   4.820 -1.6743 -0.8664  0.4856
   77MOL0     H10377  12.310   6.897   4.374  3.1552  0.2955 -0.3484
   77MOL0     H10378  12.082   6.933   4.407 -0.4601  1.4040 -0.8859
   77MOL0     H10379  11.747   7.129   4.442 -0.8057  0.9527  0.5132
   77MOL0     H10380  11.523   7.087   4.522 -0.8557  1.3193 -0.1790
   77MOL0     H10381  10.315   7.300   5.660 -0.0692 -0.3874  0.0278
   77MOL0     H10382  10.100   7.318   5.748  1.1848  1.0789 -0.4500
   77MOL0     H10383   9.641   7.242   5.548  1.8234  2.1137  0.2659
   77MOL0     H10384   9.431   7.176   5.653 -0.6266  0.4148 -0.7055
   77MOL0     H10385   9.173   7.169   5.739  2.3848 -2.1547  0.4917
   77MOL0     H10386   9.319   7.171   5.838  2.2525  2.8470 -1.6804
   77MOL0     H10387   9.078   7.111   5.930  3.4231 -2.3466 -3.4844
   77MOL0     H10388   9.059   7.288   5.938 -0.6061 -0.7425  0.2297
   77MOL0     H10389   9.263   7.321   6.070  0.5121  1.1145 -4.9661
   77MOL0     H10390   9.307   7.151   6.054 -0.2958  1.0165 -1.6251
   77MOL0     H10391   9.235   7.220   6.277  0.1226 -0.5786 -1.2026
   77MOL0     H10392   9.126   7.088   6.209 -0.4397 -0.2266 -2.1130
   77MOL0     H10393   8.855   7.403   6.220 -0.7264 -0.2099 -2.7450
   77MOL0     H10394   9.378   7.585   5.784  0.4019 -1.8336  1.9899
   77MOL0     H10395   9.619   7.633   5.693  0.9692  0.1823 -1.7750
   78MOL0     O10396   9.341   9.692   5.262 -0.3847  0.5297  0.1742
   78MOL0     C10397   9.441   9.759   5.288 -0.2300  0.6756  0.6090
   78MOL0     O10398   9.463   9.818   5.399 -0.2221 -0.9762 -0.0952
   78MOL0     C10399   9.385   9.802   5.506  0.3075 -0.0222 -0.8960
   78MOL0     C10400   9.375   9.695   5.595  0.9919 -0.2757 -0.2274
   78MOL0     C10401   9.269   9.695   5.685  0.0485  0.2642 -0.2427
   78MOL0     C10402   9.169   9.794   5.683 -0.2152 -0.2225 -0.0118
   78MOL0     O10403   9.056   9.788   5.759 -0.2045  0.0886 -0.3338
   78MOL0     C10404   9.077   9.719   5.882  0.5445  1.4635  0.2367
   78MOL0     C10405   8.962   9.759   5.969  0.2966  0.6849  0.0905
   78MOL0     C10406   8.834   9.687   5.937 -0.1340 -0.2859  0.8304
   78MOL0     C10407   8.715   9.728   6.027  0.1500  0.7187 -0.3251
   78MOL0     C10408   8.677   9.874   6.020 -0.1011 -0.1703  1.1231
   78MOL0     C10409   8.652   9.923   5.867  0.1065 -0.4869 -0.5298
   78MOL0     C10410   8.561  10.044   5.876 -0.4052 -0.9684  0.0496
   78MOL0     C10411   8.557  10.121   5.739 -0.5216 -0.0809 -0.5273
   78MOL0     N10412   8.479  10.250   5.766  0.0011  0.0592  0.6775
   78MOL0     C10413   8.365  10.284   5.838 -0.2383  0.4590 -0.1809
   78MOL0     C10414   8.354  10.418   5.834  0.3557 -0.1217 -0.6881
   78MOL0     C10415   8.252  10.503   5.894 -0.4895 -0.4460  0.0701
   78MOL0     C10416   8.110  10.447   5.914  0.3128 -0.5337 -0.3627
   78MOL0     C10417   7.999  10.559   5.943  0.3666  1.2218 -0.7314
   78MOL0     C10418   7.858  10.501   5.950 -0.3971  0.4365 -0.4841
   78MOL0     O10419   7.855  10.426   6.069  0.2406 -0.6367  0.2169
   78MOL0     C10420   7.747  10.443   6.154  1.3707 -0.3426  0.4737
   78MOL0     C10421   7.759  10.484   6.286 -0.6063 -0.0884  1.2907
   78MOL0     C10422   7.647  10.485   6.377  0.0822  0.3849 -0.4992
   78MOL0     C10423   7.668  10.527   6.527 -0.9654  0.2662 -0.2764
   78MOL0     C10424   7.519  10.453   6.324  0.2037 -0.1635  0.4280
   78MOL0     C10425   7.398  10.457   6.408  0.1755 -0.3922  0.2471
   78MOL0     O10426   7.272  10.460   6.336 -0.1035  0.0403  0.1437
   78MOL0     C10427   7.152  10.443   6.399  0.4024  0.0713  0.2432
   78MOL0     C10428   7.125  10.350   6.499  0.0050  1.0071  0.0298
   78MOL0     C10429   7.007  10.345   6.567 -0.2211  0.3467  0.4419
   78MOL0     C10430   6.896  10.415   6.524  0.5343  0.3138 -0.4041
   78MOL0     O10431   6.783  10.405   6.601 -0.2067 -0.3863  0.1822
   78MOL0     C10432   6.688  10.513   6.566  0.6468 -0.4155 -0.4613
   78MOL0     C10433   6.564  10.502   6.655 -0.0241 -0.3767 -0.5746
   78MOL0     C10434   6.519  10.635   6.703 -0.0497 -0.1663 -0.0284
   78MOL0     C10435   6.383  10.617   6.769 -0.0724 -0.9828 -0.6907
   78MOL0     C10436   6.363  10.747   6.857 -0.5805  0.0466 -0.3598
   78MOL0     C10437   6.209  10.773   6.882  0.0725  0.4044 -0.5158
   78MOL0     C10438   6.131  10.843   6.763 -0.0184 -0.3320 -0.3920
   78MOL0     C10439   5.990  10.869   6.810  0.5478 -0.5844 -0.7262
   78MOL0    Cl10440   5.874  10.915   6.668  0.0701  0.1910 -0.2770
   78MOL0     C10441   6.912  10.497   6.416 -0.1098 -0.4289  0.0871
   78MOL0     C10442   7.040  10.514   6.355 -0.3665 -0.2902  0.3861
   78MOL0     O10443   7.400  10.438   6.532 -0.1430  0.1422  0.0820
   78MOL0     C10444   7.509  10.406   6.188 -0.7293 -0.1092 -0.5161
   78MOL0     C10445   7.624  10.392   6.104 -0.6643  0.4367 -0.3467
   78MOL0     N10446   8.465  10.471   5.770  0.5638 -0.6720 -0.0510
   78MOL0     N10447   8.526  10.370   5.726 -1.0026  0.2809  0.2884
   78MOL0     C10448   9.194   9.907   5.610 -0.0490  0.7518  1.3046
   78MOL0     C10449   9.296   9.912   5.523 -0.8794  0.8045 -0.4420
   78MOL0     C10450   9.537   9.763   5.182  0.3559  0.0156 -0.2215
   78MOL0     C10451   9.541   9.674   5.077 -0.5249  0.0219  0.2655
   78MOL0     C10452   9.641   9.677   4.984 -0.5708  0.0239  0.1827
   78MOL0     C10453   9.744   9.781   4.987 -0.1490  1.3854 -0.6817
   78MOL0     O10454   9.846   9.794   4.893 -0.0650  0.1603 -0.1049
   78MOL0     C10455   9.861   9.700   4.791 -0.1944  1.1473  0.4585
   78MOL0     C10456   9.918   9.561   4.842 -0.1180 -0.6351  0.2076
   78MOL0     C10457  10.061   9.551   4.873 -0.8311  0.1865  0.4589
   78MOL0     C10458  10.126   9.409   4.881 -0.6913  0.1870 -0.4516
   78MOL0     C10459  10.033   9.306   4.935  1.0366  0.2262 -0.3290
   78MOL0     C10460   9.950   9.218   4.954  0.1793  0.2122  0.3592
   78MOL0     C10461   9.741   9.864   5.101  0.5877  0.7074 -0.2639
   78MOL0     C10462   9.642   9.855   5.198  1.0702  0.4715 -0.3797
   78MOL0     H10463   9.437   9.607   5.580  0.3314 -1.1515  1.8111
   78MOL0     H10464   9.257   9.609   5.751  1.2962  0.2032 -0.0800
   78MOL0     H10465   9.074   9.611   5.868  2.0388  1.3137  0.9723
   78MOL0     H10466   9.171   9.742   5.932  0.9594 -0.3582  0.3478
   78MOL0     H10467   8.999   9.744   6.071  1.1761 -1.7540 -0.5169
   78MOL0     H10468   8.944   9.866   5.956  0.0909  0.6123 -0.2312
   78MOL0     H10469   8.811   9.715   5.834 -0.1874 -2.0873  0.3093
   78MOL0     H10470   8.843   9.578   5.942  1.9935 -0.1541  0.8909
   78MOL0     H10471   8.631   9.680   5.976  1.6752 -2.2986 -0.2656
   78MOL0     H10472   8.728   9.699   6.132 -1.0591  0.7194 -0.1619
   78MOL0     H10473   8.587   9.902   6.075 -0.1049  0.8823  0.6087
   78MOL0     H10474   8.759   9.930   6.067  1.1102  0.4369 -1.5100
   78MOL0     H10475   8.737   9.964   5.811 -1.5058  1.0734 -1.9447
   78MOL0     H10476   8.612   9.842   5.806 -0.6109  0.2775 -1.1013
   78MOL0     H10477   8.459  10.012   5.898 -0.1080 -2.7522 -0.9876
   78MOL0     H10478   8.589  10.116   5.952 -0.7082  1.1607 -1.7462
   78MOL0     H10479   8.506  10.070   5.657 -1.7893  0.2182  0.0492
   78MOL0     H10480   8.657  10.150   5.707 -0.4056  2.7514  1.8991
   78MOL0     H10481   8.311  10.215   5.903  1.9680  1.1892  2.6344
   78MOL0     H10482   8.270  10.523   6.000  1.2481 -3.1549  0.3878
   78MOL0     H10483   8.245  10.595   5.834 -3.3172 -1.6850 -1.7062
   78MOL0     H10484   8.100  10.370   5.991 -1.7091 -1.3219 -1.3206
   78MOL0     H10485   8.084  10.411   5.814 -0.2462 -2.0154  0.2846
   78MOL0     H10486   8.004  10.630   5.859  1.3114  0.9244 -0.9378
   78MOL0     H10487   8.023  10.607   6.038 -3.0174 -0.9285  1.4071
   78MOL0     H10488   7.833  10.453   5.854  0.8678  1.8828 -1.5919
   78MOL0     H10489   7.786  10.582   5.948 -2.5015 -1.3151  0.5814
   78MOL0     H10490   7.857  10.514   6.321  0.7320  0.5150 -2.5055
   78MOL0     H10491   7.769  10.568   6.539 -0.2082 -1.4603 -0.4331
   78MOL0     H10492   7.599  10.609   6.553 -2.2788  0.1658 -3.0717
   78MOL0     H10493   7.662  10.440   6.593 -3.3507 -0.0292 -0.7995
   78MOL0     H10494   7.202  10.278   6.528 -0.6998 -0.8831 -2.4408
   78MOL0     H10495   6.986  10.275   6.648  3.5057 -4.3063 -2.0761
   78MOL0     H10496   6.741  10.606   6.586  1.6517 -1.2526  0.9960
   78MOL0     H10497   6.649  10.499   6.465  0.3764 -0.5290 -0.3429
   78MOL0     H10498   6.475  10.460   6.608  0.5211 -0.9934 -1.0805
   78MOL0     H10499   6.591  10.431   6.734  2.3528 -0.2628 -1.2028
   78MOL0     H10500   6.511  10.709   6.623 -2.1311 -0.4084 -0.0855
   78MOL0     H10501   6.600  10.666   6.771  0.4199 -0.4132 -0.4689
   78MOL0     H10502   6.299  10.610   6.699 -1.3424 -3.4022  0.9163
   78MOL0     H10503   6.395  10.535   6.841 -1.2495  0.6272  1.4953
   78MOL0     H10504   6.397  10.844   6.821 -3.1163  0.7612 -1.0656
   78MOL0     H10505   6.413  10.728   6.953 -0.6799  0.3190 -0.2542
   78MOL0     H10506   6.160  10.675   6.890 -1.2447  1.0634 -0.2559
   78MOL0     H10507   6.190  10.827   6.975  3.9438 -0.1960  0.7968
   78MOL0     H10508   6.136  10.769   6.683  0.4443 -0.9605  0.2042
   78MOL0     H10509   6.170  10.939   6.729  0.8763 -0.0487  1.3083
   78MOL0     H10510   5.998  10.946   6.887 -0.0324 -2.6133  1.4956
   78MOL0     H10511   5.955  10.782   6.866  2.4563  1.3759  4.0216
   78MOL0     H10512   6.826  10.555   6.386 -1.3260 -1.1422  2.0000
   78MOL0     H10513   7.044  10.587   6.274  0.7637  1.3519  1.8341
   78MOL0     H10514   7.415  10.383   6.139 -1.5204  2.1919 -0.2171
   78MOL0     H10515   7.614  10.358   6.001 -1.3421  0.9689 -0.4622
   78MOL0     H10516   9.131   9.996   5.620 -0.7797  0.1775  1.9375
   78MOL0     H10517   9.296   9.996   5.455 -3.3106  1.0813 -0.2081
   78MOL0     H10518   9.465   9.598   5.062  1.1055 -1.7545  0.5796
   78MOL0     H10519   9.640   9.606   4.903  4.0603 -0.0039 -0.0701
   78MOL0     H10520   9.767   9.666   4.746 -1.2621  0.9057  2.6982
   78MOL0     H10521   9.916   9.743   4.707 -2.8903 -0.8077 -2.5832
   78MOL0     H10522   9.913   9.485   4.763 -0.2901 -0.4245  0.0125
   78MOL0     H10523   9.855   9.537   4.928  0.3219 -0.4211  0.5875
   78MOL0     H10524  10.074   9.597   4.972  1.3646  1.5208 -0.3700
   78MOL0     H10525  10.111   9.614   4.799 -1.6804  0.5136  0.1483
   78MOL0     H10526  10.208   9.423   4.951 -0.5516  0.1824 -0.6130
   78MOL0     H10527  10.153   9.372   4.782  0.3584 -1.6201  0.4666
   78MOL0     H10528   9.885   9.136   4.976 -1.6027  1.9080  1.8032
   78MOL0     H10529   9.805   9.952   5.103  0.7088  0.6786 -1.9062
   78MOL0     H10530   9.655   9.927   5.278 -2.0060  1.8769 -1.0033
   79MOL0     O10531  10.162   0.753   7.053 -0.2555 -0.4173  0.2142
   79MOL0     C10532  10.047   0.801   7.044 -0.6660 -0.2027 -0.3886
   79MOL0     O10533  10.015   0.898   6.958  0.3507  0.0232  0.2733
   79MOL0     C10534  10.115   0.933   6.870  0.1438  0.9199 -0.1289
   79MOL0     C10535  10.199   1.033   6.900 -0.1172  0.6245 -0.7121
   79MOL0     C10536  10.305   1.075   6.817 -0.7007 -0.2764 -0.8979
   79MOL0     C10537  10.323   1.010   6.699 -0.7519 -0.3595  0.1003
   79MOL0     O10538  10.429   1.055   6.615  0.5387  0.1510  0.9977
   79MOL0     C10539  10.402   1.160   6.527 -0.9834 -0.0142 -0.2345
   79MOL0     C10540  10.319   1.121   6.400  0.7913 -0.2159 -0.0747
   79MOL0     C10541  10.401   1.048   6.297  0.1739  0.6619  0.4071
   79MOL0     C10542  10.504   1.130   6.217  0.0305  0.5505 -0.5582
   79MOL0     C10543  10.434   1.234   6.128 -0.5617 -0.7280  0.6940
   79MOL0     C10544  10.518   1.276   6.000  0.3050  0.1769  0.4948
   79MOL0     C10545  10.456   1.383   5.916  0.4507 -0.1956 -0.0700
   79MOL0     C10546  10.339   1.335   5.828 -0.2177 -0.2521 -0.2528
   79MOL0     N10547  10.344   1.192   5.778 -0.1557  0.0768 -0.5941
   79MOL0     C10548  10.450   1.134   5.713  0.5722 -0.3447 -0.2775
   79MOL0     C10549  10.407   1.008   5.691 -0.7061  0.0500  0.1219
   79MOL0     C10550  10.482   0.893   5.632  0.3747  0.2955  0.8059
   79MOL0     C10551  10.453   0.873   5.480  0.4002 -0.1842 -0.3485
   79MOL0     C10552  10.543   0.762   5.426  0.7699 -0.8890  1.0366
   79MOL0     C10553  10.664   0.803   5.336  0.4170 -0.4312 -1.1353
   79MOL0     O10554  10.762   0.876   5.419  0.0645  0.2043 -0.0276
   79MOL0     C10555  10.887   0.902   5.381  0.0165  0.4467  0.8920
   79MOL0     C10556  10.983   0.927   5.474  0.3079 -0.2097 -0.8918
   79MOL0     C10557  11.115   0.944   5.445  0.3854 -0.5934  0.8124
   79MOL0     C10558  11.216   1.001   5.541 -0.6997 -0.8513  0.5711
   79MOL0     C10559  11.164   0.907   5.317  0.8245  0.0056  1.0463
   79MOL0     C10560  11.299   0.903   5.280 -0.8303 -0.4640  0.2222
   79MOL0     O10561  11.328   0.942   5.151 -0.2762 -0.5026  0.2396
   79MOL0     C10562  11.445   0.908   5.082  0.7613  0.2036 -1.1182
   79MOL0     C10563  11.529   0.802   5.111 -0.6095  0.4768  0.4756
   79MOL0     C10564  11.643   0.771   5.034  0.2526  0.3719 -0.4480
   79MOL0     C10565  11.664   0.836   4.908 -1.8082  0.9764 -0.8701
   79MOL0     O10566  11.762   0.812   4.805 -0.0472  0.1630 -0.9236
   79MOL0     C10567  11.777   0.676   4.771 -0.1071 -0.3039 -0.8318
   79MOL0     C10568  11.659   0.621   4.678 -0.2535  0.1744 -0.7171
   79MOL0     C10569  11.634   0.706   4.554  1.5434  0.0853 -0.5988
   79MOL0     C10570  11.588   0.614   4.434 -0.5275 -0.2608 -1.8713
   79MOL0     C10571  11.508   0.707   4.334 -0.5450 -0.2529  0.1463
   79MOL0     C10572  11.518   0.657   4.180  0.2040  0.1501  0.1822
   79MOL0     C10573  11.456   0.752   4.067 -0.9900 -0.9033  0.6048
   79MOL0     C10574  11.311   0.791   4.088 -0.4070  0.0954  0.2240
   79MOL0    Cl10575  11.274   0.915   3.959 -0.1050  0.9828 -0.3300
   79MOL0     C10576  11.589   0.947   4.883  0.1037 -0.2471  0.0183
   79MOL0     C10577  11.477   0.985   4.972 -0.0116  0.6580 -0.3005
   79MOL0     O10578  11.387   0.863   5.357  0.0082 -0.7404 -0.9876
   79MOL0     C10579  11.066   0.881   5.219  1.4783 -0.5449 -0.4837
   79MOL0     C10580  10.931   0.885   5.249  0.0896 -0.3232 -0.5739
   79MOL0     N10581  10.279   0.995   5.743  0.4692  0.1423 -0.2880
   79MOL0     N10582  10.240   1.106   5.789  0.0060  0.4756 -0.1467
   79MOL0     C10583  10.236   0.908   6.652 -0.9122 -0.3450  0.5721
   79MOL0     C10584  10.141   0.867   6.745 -0.2280 -0.0488  0.1259
   79MOL0     C10585   9.936   0.752   7.127 -0.7361  0.0075 -0.0738
   79MOL0     C10586   9.960   0.657   7.225 -0.6692 -0.2801 -0.2316
   79MOL0     C10587   9.845   0.604   7.298  0.0191 -1.2543  0.0427
   79MOL0     C10588   9.718   0.650   7.273  0.2889  1.0264 -0.6817
   79MOL0     O10589   9.609   0.575   7.330 -0.5097  0.0892 -0.6271
   79MOL0     C10590   9.474   0.620   7.309  0.6782  0.7616 -0.3386
   79MOL0     C10591   9.378   0.502   7.341  0.4241  0.3995  0.6102
   79MOL0     C10592   9.308   0.515   7.479 -0.2750  0.3936  0.2634
   79MOL0     C10593   9.169   0.458   7.490 -0.5534  0.3334 -0.7193
   79MOL0     C10594   9.157   0.318   7.473 -0.1970  1.1508  0.1733
   79MOL0     C10595   9.147   0.207   7.427  0.0068  0.2155  0.1085
   79MOL0     C10596   9.698   0.751   7.177 -0.1922  1.5832 -0.8583
   79MOL0     C10597   9.803   0.801   7.105  0.0706 -0.5562  0.1781
   79MOL0     H10598  10.196   1.082   6.997 -2.1401 -1.4062  0.3331
   79MOL0     H10599  10.371   1.156   6.846 -1.4973  0.4360 -1.0300
   79MOL0     H10600  10.344   1.231   6.588  1.2631 -0.6604  2.9604
   79MOL0     H10601  10.490   1.214   6.490 -0.9552 -0.7388 -1.2491
   79MOL0     H10602  10.226   1.065   6.419  2.3192 -3.3367 -1.1162
   79MOL0     H10603  10.289   1.217   6.357 -0.3644  0.1024  1.3595
   79MOL0     H10604  10.462   0.981   6.359 -1.4778  0.7410  2.2168
   79MOL0     H10605  10.339   0.999   6.222  1.5219  2.8035 -2.2936
   79MOL0     H10606  10.578   1.188   6.274 -0.4593 -0.3523  1.0564
   79MOL0     H10607  10.554   1.048   6.166  0.7841  1.6442 -1.6298
   79MOL0     H10608  10.341   1.184   6.098 -0.9337 -0.2468  1.0358
   79MOL0     H10609  10.426   1.326   6.187 -0.8140  1.4424 -2.4852
   79MOL0     H10610  10.605   1.320   6.050 -1.5468  0.1799  4.0662
   79MOL0     H10611  10.566   1.198   5.941 -1.6299 -0.9325  0.3091
   79MOL0     H10612  10.443   1.470   5.981  0.6760  0.3842 -0.7898
   79MOL0     H10613  10.530   1.426   5.847  0.8399  0.9103  0.9941
   79MOL0     H10614  10.310   1.404   5.748 -2.6966 -0.6825  0.1908
   79MOL0     H10615  10.250   1.328   5.890  0.6531  3.0317  1.5849
   79MOL0     H10616  10.542   1.179   5.680 -0.2038 -1.0827 -3.8395
   79MOL0     H10617  10.585   0.920   5.653  0.3956  2.4955 -1.5610
   79MOL0     H10618  10.451   0.801   5.682  0.3057  0.6012  1.3284
   79MOL0     H10619  10.474   0.968   5.431 -1.6146  1.7142  2.1912
   79MOL0     H10620  10.350   0.839   5.465 -0.1987  2.0565 -1.6907
   79MOL0     H10621  10.487   0.711   5.347  0.9867 -0.4794  0.6159
   79MOL0     H10622  10.557   0.683   5.501 -0.8393 -0.3912  1.9217
   79MOL0     H10623  10.622   0.868   5.257 -2.5238 -0.5512  0.1839
   79MOL0     H10624  10.698   0.708   5.295 -1.2274 -2.6077  2.1462
   79MOL0     H10625  10.943   0.945   5.574 -0.6144  1.5120 -1.5205
   79MOL0     H10626  11.174   1.015   5.641  3.3218 -0.2464  2.3902
   79MOL0     H10627  11.295   0.928   5.562  3.3288  2.5153 -1.2252
   79MOL0     H10628  11.267   1.093   5.510  0.1741 -0.9872  1.5435
   79MOL0     H10629  11.507   0.748   5.202  0.8466  2.2336  1.9690
   79MOL0     H10630  11.713   0.692   5.057 -1.5125 -1.3966 -0.7918
   79MOL0     H10631  11.872   0.665   4.717 -0.6074 -3.2779 -1.2941
   79MOL0     H10632  11.787   0.609   4.857  2.5897  2.9089  1.6382
   79MOL0     H10633  11.671   0.516   4.651  1.4887  0.1994 -0.1366
   79MOL0     H10634  11.568   0.632   4.738  1.7300 -0.4289  2.6226
   79MOL0     H10635  11.716   0.768   4.517 -1.5616  3.4596 -2.5838
   79MOL0     H10636  11.556   0.781   4.571  1.5431 -0.4641  2.2887
   79MOL0     H10637  11.675   0.579   4.377  0.6687  0.8342 -0.7914
   79MOL0     H10638  11.534   0.525   4.468 -1.8038  1.5325  1.1498
   79MOL0     H10639  11.551   0.807   4.341 -1.3215 -0.0121  2.1809
   79MOL0     H10640  11.404   0.712   4.369 -0.4504  1.8104  0.2310
   79MOL0     H10641  11.623   0.637   4.154 -0.0796  0.9617 -1.8073
   79MOL0     H10642  11.474   0.557   4.181 -0.3350  0.3573 -0.7533
   79MOL0     H10643  11.471   0.714   3.965  0.2260 -1.5934  1.0244
   79MOL0     H10644  11.517   0.841   4.083  0.9288 -2.2866  1.3246
   79MOL0     H10645  11.288   0.822   4.190  0.2631  0.9629  0.1331
   79MOL0     H10646  11.257   0.700   4.063  1.1720 -0.5201 -1.1328
   79MOL0     H10647  11.614   1.004   4.794 -2.3564 -0.7731 -1.0923
   79MOL0     H10648  11.419   1.076   4.956  2.6977  2.2754 -1.6395
   79MOL0     H10649  11.109   0.865   5.121  0.9707  0.4987 -0.8888
   79MOL0     H10650  10.855   0.854   5.178  1.8279  0.7967 -3.0587
   79MOL0     H10651  10.253   0.856   6.558 -1.5964  0.2758  0.0898
   79MOL0     H10652  10.081   0.780   6.722 -0.1202  0.4629 -2.3971
   79MOL0     H10653  10.061   0.620   7.239 -0.9165 -0.9710 -0.2454
   79MOL0     H10654   9.860   0.518   7.362  2.5889 -1.0732 -0.2149
   79MOL0     H10655   9.450   0.704   7.375  2.0335  1.0497 -0.2026
   79MOL0     H10656   9.445   0.644   7.207  0.3297 -0.3374 -0.5173
   79MOL0     H10657   9.430   0.405   7.335 -2.0544 -1.0506  1.0537
   79MOL0     H10658   9.311   0.492   7.255 -0.8917 -1.9720  1.7844
   79MOL0     H10659   9.305   0.618   7.515  3.0756  0.7063 -0.0284
   79MOL0     H10660   9.370   0.459   7.550 -0.5318  0.2231  0.3541
   79MOL0     H10661   9.111   0.510   7.412 -1.8900 -1.9457 -1.3265
   79MOL0     H10662   9.133   0.487   7.589  0.8586  1.5100 -0.5198
   79MOL0     H10663   9.121   0.109   7.391 -0.8950 -0.1449  1.6851
   79MOL0     H10664   9.600   0.791   7.158 -0.7890  1.3136  1.3002
   79MOL0     H10665   9.789   0.875   7.027 -0.3995 -0.5169  0.3017
   80MOL0     O10666   2.014  11.207   7.842  0.3075  0.2639 -0.0445
   80MOL0     C10667   2.134  11.211   7.838 -0.4127  0.9571  0.7381
   80MOL0     O10668   2.218  11.160   7.741 -0.0548 -0.6236  0.0138
   80MOL0     C10669   2.180  11.062   7.659  0.5004  0.1658 -0.2357
   80MOL0     C10670   2.072  10.972   7.674 -0.5556  0.1566  0.3338
   80MOL0     C10671   2.037  10.872   7.577 -0.2678  0.5879 -0.6924
   80MOL0     C10672   2.114  10.865   7.464 -0.8484  0.8813  1.3363
   80MOL0     O10673   2.077  10.770   7.367  0.4961  0.2092 -0.0721
   80MOL0     C10674   1.941  10.782   7.311 -0.1499  0.0406  0.7487
   80MOL0     C10675   1.936  10.757   7.158  0.9682 -0.7570  0.0132
   80MOL0     C10676   2.007  10.629   7.115 -0.7291 -0.2424  1.0647
   80MOL0     C10677   1.936  10.493   7.150 -0.8443  0.0706 -0.0670
   80MOL0     C10678   2.029  10.382   7.097  0.0552 -0.5913 -0.7873
   80MOL0     C10679   1.995  10.250   7.155  0.5540 -0.6981 -0.4027
   80MOL0     C10680   2.098  10.143   7.106  0.8635  0.1482  0.0552
   80MOL0     C10681   2.221  10.142   7.195  0.0680  1.0477 -0.1588
   80MOL0     N10682   2.276  10.005   7.202 -0.3916 -0.5047 -0.4773
   80MOL0     C10683   2.314   9.922   7.095 -0.6828 -0.0880 -0.7354
   80MOL0     C10684   2.348   9.806   7.164 -0.5894  0.3854  0.5954
   80MOL0     C10685   2.374   9.671   7.111 -0.8814 -0.4036  0.3568
   80MOL0     C10686   2.518   9.624   7.108 -0.2947  0.3464  0.5349
   80MOL0     C10687   2.613   9.722   7.027  0.0455 -0.0730  0.2358
   80MOL0     C10688   2.571   9.760   6.889  0.1438 -0.1480  0.2628
   80MOL0     O10689   2.673   9.733   6.788  0.4580  0.5833  1.0668
   80MOL0     C10690   2.773   9.824   6.772  0.2224  0.1850  0.0787
   80MOL0     C10691   2.887   9.786   6.698 -0.5172 -0.5334 -1.1252
   80MOL0     C10692   3.007   9.864   6.680 -0.4312 -0.1262 -0.2716
   80MOL0     C10693   3.117   9.807   6.600  0.4841  0.2220  0.1895
   80MOL0     C10694   3.015  10.002   6.735  0.4190 -0.2531 -0.0389
   80MOL0     C10695   3.130  10.088   6.723  1.0653 -0.3923 -0.3687
   80MOL0     O10696   3.246  10.049   6.665 -0.4568 -0.0113 -0.3381
   80MOL0     C10697   3.323  10.140   6.601  0.4200  0.5101 -0.3151
   80MOL0     C10698   3.404  10.216   6.679 -1.5747  0.0614 -0.3484
   80MOL0     C10699   3.475  10.323   6.630  0.1529  0.0220  0.0307
   80MOL0     C10700   3.477  10.351   6.491 -0.6543  1.0186  0.3421
   80MOL0     O10701   3.520  10.466   6.429  1.0782 -0.1693  0.3064
   80MOL0     C10702   3.610  10.560   6.491  0.9267 -0.7758 -1.1291
   80MOL0     C10703   3.537  10.666   6.573  0.1005 -1.1256 -0.1563
   80MOL0     C10704   3.474  10.782   6.489  0.8247 -0.0814  0.1647
   80MOL0     C10705   3.355  10.845   6.568 -0.1908 -0.0946  0.8143
   80MOL0     C10706   3.287  10.955   6.482 -0.4520 -0.1802 -0.0902
   80MOL0     C10707   3.230  10.903   6.341  0.4103  0.0159 -0.5079
   80MOL0     C10708   3.103  10.998   6.303 -0.1048  0.7862  0.4600
   80MOL0     C10709   3.167  11.131   6.271  0.5128  0.1033  0.4204
   80MOL0    Cl10710   3.033  11.226   6.208 -0.5822 -0.2218 -0.1913
   80MOL0     C10711   3.406  10.267   6.408  0.0971  0.0965 -0.3532
   80MOL0     C10712   3.332  10.160   6.460 -0.5109  0.0295  0.3488
   80MOL0     O10713   3.112  10.201   6.765 -0.8760 -0.1301 -0.5941
   80MOL0     C10714   2.902  10.036   6.816 -0.0593  0.7367 -0.2552
   80MOL0     C10715   2.789   9.953   6.833 -0.0093  0.6322 -0.2127
   80MOL0     N10716   2.365   9.829   7.297  0.4649 -0.1796 -0.4775
   80MOL0     N10717   2.318   9.954   7.320 -0.6272  0.2376 -0.2495
   80MOL0     C10718   2.234  10.934   7.461  0.5731  0.2372  0.8772
   80MOL0     C10719   2.263  11.037   7.551  0.7681 -0.3507 -0.1429
   80MOL0     C10720   2.197  11.287   7.945 -0.4352 -0.4190  0.1280
   80MOL0     C10721   2.130  11.331   8.065 -0.5792  0.7271 -0.1365
   80MOL0     C10722   2.202  11.393   8.178  0.0663 -0.5878 -0.0646
   80MOL0     C10723   2.341  11.400   8.184 -1.0076 -0.7503  0.0277
   80MOL0     O10724   2.417  11.469   8.278 -0.0265 -0.2255 -0.2722
   80MOL0     C10725   2.368  11.470   8.414  1.2250 -0.1288  0.4888
   80MOL0     C10726   2.291  11.597   8.454 -0.7496 -0.4814  0.2131
   80MOL0     C10727   2.367  11.720   8.424  0.7541  0.1657  0.5156
   80MOL0     C10728   2.283  11.854   8.456 -0.3339  0.4764  0.6551
   80MOL0     C10729   2.160  11.855   8.380 -1.1426 -0.1357 -0.0419
   80MOL0     C10730   2.063  11.834   8.320  0.6717 -0.7684 -0.3601
   80MOL0     C10731   2.403  11.351   8.065  0.4504  0.6736 -0.8941
   80MOL0     C10732   2.340  11.299   7.955 -0.3255 -0.5959  0.1564
   80MOL0     H10733   2.015  10.972   7.766  0.5315  2.9021  1.0976
   80MOL0     H10734   1.950  10.808   7.579 -0.4372  0.7631 -1.6909
   80MOL0     H10735   1.878  10.709   7.363  0.4727 -0.5856  0.6377
   80MOL0     H10736   1.907  10.881   7.344  1.9940  0.5507  1.6112
   80MOL0     H10737   1.832  10.749   7.125  0.2956 -1.5442  2.1562
   80MOL0     H10738   1.981  10.847   7.114  0.6184 -0.3590  0.4643
   80MOL0     H10739   2.026  10.642   7.008  3.7128  0.6992  1.7817
   80MOL0     H10740   2.111  10.635   7.147  0.3787 -2.6833 -1.6292
   80MOL0     H10741   1.917  10.485   7.257 -4.0111 -2.2001 -0.6298
   80MOL0     H10742   1.844  10.470   7.095  0.7112 -4.7536 -1.1307
   80MOL0     H10743   2.023  10.378   6.988 -1.6916  2.0324 -0.8812
   80MOL0     H10744   2.127  10.412   7.134 -0.8304  0.8435  0.5317
   80MOL0     H10745   1.972  10.258   7.262  1.8407 -0.5773 -0.1135
   80MOL0     H10746   1.898  10.229   7.108  0.6847  1.9270 -2.0266
   80MOL0     H10747   2.040  10.051   7.118  2.8522 -1.0013  1.2498
   80MOL0     H10748   2.122  10.150   6.999 -1.3178 -2.2132 -0.6994
   80MOL0     H10749   2.202  10.171   7.299  1.6131  1.1617  0.1089
   80MOL0     H10750   2.301  10.206   7.156  1.2255 -0.7003 -0.7603
   80MOL0     H10751   2.298   9.933   6.988  0.0054 -2.3164 -1.1152
   80MOL0     H10752   2.317   9.601   7.173  0.3451 -2.5980 -0.8401
   80MOL0     H10753   2.343   9.658   7.007  1.4710 -0.8484 -0.3524
   80MOL0     H10754   2.523   9.526   7.061  0.5143 -0.7351  2.7189
   80MOL0     H10755   2.548   9.617   7.213 -1.3831 -0.8405  0.7947
   80MOL0     H10756   2.700   9.659   7.006  1.2518  0.8840  2.1326
   80MOL0     H10757   2.637   9.798   7.102  1.4519  0.4307 -0.6860
   80MOL0     H10758   2.533   9.863   6.880  1.8837  0.3363 -2.8967
   80MOL0     H10759   2.486   9.695   6.865 -1.6781  2.3283 -0.4956
   80MOL0     H10760   2.887   9.682   6.667 -0.6099 -0.6698 -0.6840
   80MOL0     H10761   3.070   9.722   6.550  0.3567  1.2925 -1.6148
   80MOL0     H10762   3.146   9.872   6.517 -1.1363  3.2854  1.8193
   80MOL0     H10763   3.197   9.767   6.662 -0.3847 -1.2741  0.3756
   80MOL0     H10764   3.410  10.217   6.788  3.2294  1.5323 -0.3934
   80MOL0     H10765   3.517  10.384   6.709 -1.5121  1.8571 -0.4213
   80MOL0     H10766   3.674  10.509   6.563 -1.2219  1.3552  2.6869
   80MOL0     H10767   3.675  10.621   6.428  2.3390  0.6194  1.4999
   80MOL0     H10768   3.457  10.621   6.633 -0.5648  2.1372  1.6100
   80MOL0     H10769   3.597  10.712   6.652 -4.6016  0.2318  3.0790
   80MOL0     H10770   3.431  10.738   6.398 -3.3851  0.3647  1.7498
   80MOL0     H10771   3.552  10.851   6.454  0.6545  1.3517  2.4324
   80MOL0     H10772   3.294  10.762   6.606  1.8423 -4.0302 -3.4092
   80MOL0     H10773   3.398  10.900   6.651  2.5698 -0.9838  0.0980
   80MOL0     H10774   3.354  11.041   6.470 -0.7312 -0.2177 -2.4084
   80MOL0     H10775   3.208  11.011   6.532  0.6215  0.4727  0.9382
   80MOL0     H10776   3.309  10.893   6.267  1.6177 -1.5638  0.9259
   80MOL0     H10777   3.189  10.802   6.355 -2.2789  1.3073  2.0634
   80MOL0     H10778   3.025  11.000   6.379 -2.8300  0.5157 -2.1795
   80MOL0     H10779   3.059  10.947   6.217  1.8501 -0.0783 -0.1046
   80MOL0     H10780   3.239  11.123   6.189 -0.6978 -4.0232 -0.4782
   80MOL0     H10781   3.213  11.180   6.356 -1.4814  1.5471  0.7408
   80MOL0     H10782   3.402  10.271   6.299 -1.6597 -2.6640 -0.4863
   80MOL0     H10783   3.279  10.088   6.398  1.4882 -0.0971 -1.3536
   80MOL0     H10784   2.888  10.137   6.851 -3.3961  0.4341 -0.3695
   80MOL0     H10785   2.712   9.999   6.894  0.3138  1.1602 -0.1947
   80MOL0     H10786   2.308  10.900   7.389  0.5680  3.4859 -0.8404
   80MOL0     H10787   2.352  11.099   7.542  1.6764 -1.7549 -1.2852
   80MOL0     H10788   2.022  11.338   8.054 -1.1226 -1.4103  2.7507
   80MOL0     H10789   2.144  11.421   8.266  1.1451  1.0376  0.1732
   80MOL0     H10790   2.298  11.389   8.437 -1.9968  1.9872 -1.0196
   80MOL0     H10791   2.449  11.467   8.487 -1.8940  0.7848  4.3178
   80MOL0     H10792   2.277  11.606   8.562 -0.3840  1.3155  0.1444
   80MOL0     H10793   2.190  11.586   8.413 -0.9092 -0.5084  0.6138
   80MOL0     H10794   2.393  11.723   8.318  1.5627  5.0581  0.6036
   80MOL0     H10795   2.457  11.730   8.486  0.6191  0.1453  0.7150
   80MOL0     H10796   2.349  11.936   8.427 -2.1900  1.5968 -0.6020
   80MOL0     H10797   2.271  11.852   8.564  1.2751 -1.9143  0.8759
   80MOL0     H10798   1.976  11.805   8.264  0.4757  0.5903 -0.8001
   80MOL0     H10799   2.510  11.366   8.061  0.3709  1.4334 -0.4669
   80MOL0     H10800   2.389  11.257   7.867 -0.5358  0.1994 -0.3501
   81MOL0     O10801   2.479   8.777   4.395 -0.8558 -0.2457 -0.2651
   81MOL0     C10802   2.570   8.868   4.403 -0.8380  0.6367  0.1683
   81MOL0     O10803   2.559   9.000   4.405 -0.1198 -0.0210  0.5737
   81MOL0     C10804   2.442   9.058   4.385  0.5247  0.6715  0.5613
   81MOL0     C10805   2.329   9.023   4.459 -0.2341  0.5364 -0.0991
   81MOL0     C10806   2.210   9.075   4.414 -0.1263 -0.1283  0.1045
   81MOL0     C10807   2.196   9.161   4.305  0.1504 -0.2309 -0.5386
   81MOL0     O10808   2.066   9.198   4.269 -0.6601 -0.2077 -0.0995
   81MOL0     C10809   2.036   9.208   4.129  0.1589 -0.3276 -0.0320
   81MOL0     C10810   1.899   9.186   4.101  1.0026  0.4999 -0.7564
   81MOL0     C10811   1.851   9.153   3.949  0.7261 -0.3507  0.3566
   81MOL0     C10812   1.925   9.238   3.855 -0.1189 -1.0882  0.5936
   81MOL0     C10813   1.894   9.204   3.709  0.3443 -0.5383  0.3219
   81MOL0     C10814   1.753   9.259   3.672 -0.6849  0.5398 -0.3803
   81MOL0     C10815   1.739   9.295   3.531 -1.0317  0.1974  0.8144
   81MOL0     C10816   1.687   9.179   3.454 -0.3507 -0.3036 -0.1580
   81MOL0     N10817   1.675   9.201   3.312  0.2943 -0.0662 -0.0618
   81MOL0     C10818   1.682   9.102   3.211 -0.3494 -0.3732  0.0371
   81MOL0     C10819   1.675   9.176   3.099  0.6308 -0.2062 -0.8888
   81MOL0     C10820   1.667   9.113   2.960  0.1428  0.8271  0.1759
   81MOL0     C10821   1.806   9.045   2.922  0.3630 -0.4783  1.1963
   81MOL0     C10822   1.778   8.964   2.793  0.0247  0.2059  0.5506
   81MOL0     C10823   1.896   8.879   2.770 -0.3659 -0.0339  0.2052
   81MOL0     O10824   1.907   8.802   2.649  0.0569  0.3786 -0.1727
   81MOL0     C10825   1.957   8.856   2.527 -0.1171  0.1334 -1.1630
   81MOL0     C10826   1.978   8.997   2.497  0.1212  1.1553  0.2966
   81MOL0     C10827   2.029   9.042   2.374 -0.6101  0.5420 -0.3464
   81MOL0     C10828   2.049   9.190   2.356 -0.4121  0.4844  0.0575
   81MOL0     C10829   2.057   8.946   2.271  0.0801 -0.3322  1.0660
   81MOL0     C10830   2.083   8.981   2.126  0.4629  0.0857  0.3131
   81MOL0     O10831   2.144   8.892   2.048  0.0562 -0.7192  0.7188
   81MOL0     C10832   2.196   8.902   1.925  0.2867 -0.9240  1.1180
   81MOL0     C10833   2.181   8.795   1.843 -0.2957  1.0480  0.9937
   81MOL0     C10834   2.215   8.799   1.709  0.2473 -0.3022  0.2832
   81MOL0     C10835   2.276   8.909   1.646  0.1947  0.2594 -0.5137
   81MOL0     O10836   2.321   8.910   1.508  0.3212  0.7136 -0.9361
   81MOL0     C10837   2.351   8.786   1.442 -0.2157  0.5650 -1.1748
   81MOL0     C10838   2.483   8.729   1.491 -0.5035  0.8574  0.3586
   81MOL0     C10839   2.586   8.838   1.454  0.2090 -0.1151  0.0892
   81MOL0     C10840   2.724   8.774   1.448  0.5050  0.2134  0.7640
   81MOL0     C10841   2.765   8.733   1.588  0.0934  0.0451  0.6588
   81MOL0     C10842   2.914   8.695   1.610 -0.7780  0.6171  0.0309
   81MOL0     C10843   2.973   8.591   1.513 -0.2549  0.0214  1.0112
   81MOL0     C10844   3.087   8.505   1.562  0.1356 -0.4250 -0.2347
   81MOL0    Cl10845   3.239   8.601   1.562 -0.4844  0.0519 -0.0900
   81MOL0     C10846   2.292   9.024   1.737  0.1428 -0.1057  1.4849
   81MOL0     C10847   2.246   9.023   1.868 -0.5625  0.7308  0.3609
   81MOL0     O10848   2.052   9.092   2.081 -0.5690 -0.5851 -0.5877
   81MOL0     C10849   2.025   8.810   2.299  0.5383  0.2787 -0.1180
   81MOL0     C10850   1.990   8.775   2.420  0.2495  0.5119 -1.2311
   81MOL0     N10851   1.648   9.305   3.124 -0.2377 -0.7843 -0.1702
   81MOL0     N10852   1.655   9.323   3.253 -0.1431 -0.0984 -0.1655
   81MOL0     C10853   2.313   9.189   4.229 -0.1979  0.3416  0.8420
   81MOL0     C10854   2.432   9.134   4.274 -0.6661  0.1059  1.0039
   81MOL0     C10855   2.712   8.823   4.421  0.3367 -1.4929  0.6237
   81MOL0     C10856   2.815   8.915   4.444 -0.1615 -0.4671 -1.1650
   81MOL0     C10857   2.947   8.876   4.467 -0.2152  0.6521 -0.0414
   81MOL0     C10858   2.976   8.739   4.449 -0.3506 -0.1225 -0.8142
   81MOL0     O10859   3.101   8.685   4.478  0.3533 -0.0296  0.6968
   81MOL0     C10860   3.211   8.749   4.555  0.9666  0.7549  0.1549
   81MOL0     C10861   3.332   8.774   4.462  0.2763 -0.7138 -0.1208
   81MOL0     C10862   3.311   8.898   4.362 -0.1307  0.1009  0.0897
   81MOL0     C10863   3.245   8.854   4.230 -0.2320 -1.5503  0.3998
   81MOL0     C10864   3.225   8.969   4.139 -0.5648 -0.5034  0.7883
   81MOL0     C10865   3.202   9.063   4.062  0.2344 -1.1093  0.5190
   81MOL0     C10866   2.871   8.651   4.421  0.9208 -0.0160  0.1898
   81MOL0     C10867   2.741   8.691   4.405 -0.0958 -0.0205  0.0357
   81MOL0     H10868   2.357   8.968   4.548 -2.0777  1.2304  0.9696
   81MOL0     H10869   2.122   9.072   4.477 -0.5977  3.5378 -0.1319
   81MOL0     H10870   2.071   9.303   4.087 -1.4191  1.1248  1.7512
   81MOL0     H10871   2.085   9.118   4.092  2.2169  0.4732  0.6345
   81MOL0     H10872   1.871   9.103   4.166  2.3438  2.7514  3.0237
   81MOL0     H10873   1.841   9.271   4.138 -0.0024 -0.3292 -0.3795
   81MOL0     H10874   1.869   9.046   3.934 -0.1304 -0.3102 -1.1299
   81MOL0     H10875   1.742   9.154   3.933  0.8690 -1.9618 -0.9635
   81MOL0     H10876   1.920   9.347   3.862  5.0800 -0.4605 -1.0485
   81MOL0     H10877   2.029   9.210   3.873 -0.8999 -2.6653  3.3635
   81MOL0     H10878   1.969   9.256   3.649 -0.5969  0.3992 -0.0627
   81MOL0     H10879   1.890   9.095   3.705 -2.1732 -0.6442  2.9005
   81MOL0     H10880   1.676   9.182   3.686  1.2875 -1.0869  2.4850
   81MOL0     H10881   1.715   9.340   3.735 -2.4571 -1.1771  0.9032
   81MOL0     H10882   1.673   9.379   3.509  0.8665  1.1840 -1.6377
   81MOL0     H10883   1.831   9.329   3.481 -1.6853  2.2468  0.9046
   81MOL0     H10884   1.588   9.146   3.487 -0.6431 -2.0916 -2.5915
   81MOL0     H10885   1.766   9.108   3.480 -0.1132  0.4337  1.2491
   81MOL0     H10886   1.693   8.995   3.220 -0.3341 -0.2473  2.0137
   81MOL0     H10887   1.604   9.024   2.968  2.4661 -0.9569 -0.2775
   81MOL0     H10888   1.636   9.185   2.884  0.8295 -0.6223 -1.5603
   81MOL0     H10889   1.834   8.971   2.997 -2.3238 -2.4677  0.4274
   81MOL0     H10890   1.884   9.120   2.907 -0.1886 -0.1332 -0.1411
   81MOL0     H10891   1.760   9.029   2.707  1.4042  1.5905  1.2670
   81MOL0     H10892   1.693   8.897   2.809  0.8308 -0.5181  1.9744
   81MOL0     H10893   1.907   8.813   2.857 -0.4318 -0.6226 -0.2269
   81MOL0     H10894   1.990   8.935   2.779  0.8712 -1.9771  0.0152
   81MOL0     H10895   1.958   9.071   2.574 -0.3541  0.0745  1.2406
   81MOL0     H10896   2.093   9.233   2.447  0.4623  1.0927 -0.6348
   81MOL0     H10897   2.124   9.206   2.278 -0.0790 -0.8746  0.0793
   81MOL0     H10898   1.967   9.257   2.331  0.5667  2.7287  2.3230
   81MOL0     H10899   2.127   8.708   1.880  0.7512 -1.0134 -1.9125
   81MOL0     H10900   2.183   8.707   1.661 -2.1150  0.1500  0.9018
   81MOL0     H10901   2.271   8.712   1.457 -1.7675  2.3876 -0.0159
   81MOL0     H10902   2.366   8.799   1.335  1.6750 -2.8464 -1.5082
   81MOL0     H10903   2.486   8.710   1.599 -0.6567 -1.4004  0.0327
   81MOL0     H10904   2.503   8.632   1.445 -0.6498 -0.7405  3.3776
   81MOL0     H10905   2.580   8.911   1.536 -5.6659 -0.5021  0.3963
   81MOL0     H10906   2.573   8.885   1.356 -1.2884  1.7972  1.1491
   81MOL0     H10907   2.725   8.694   1.373 -0.2254  0.0604  0.9050
   81MOL0     H10908   2.794   8.845   1.403 -1.3351  1.9177  0.4411
   81MOL0     H10909   2.696   8.657   1.626 -0.0195 -0.1962 -0.0211
   81MOL0     H10910   2.755   8.821   1.652  2.4616  1.2440 -0.4929
   81MOL0     H10911   2.958   8.793   1.592 -1.2343  0.6370 -1.0305
   81MOL0     H10912   2.921   8.661   1.714 -1.8502 -1.2441 -0.4547
   81MOL0     H10913   2.993   8.638   1.416 -1.9702  0.5422  0.8846
   81MOL0     H10914   2.888   8.525   1.494  0.7600 -0.8341 -0.8905
   81MOL0     H10915   3.114   8.414   1.507 -0.6540 -1.3858  0.9208
   81MOL0     H10916   3.072   8.487   1.669 -0.4803  0.5548 -0.1455
   81MOL0     H10917   2.341   9.116   1.709  0.2535 -1.0848 -1.9347
   81MOL0     H10918   2.257   9.117   1.922 -0.0264  1.3653 -0.8027
   81MOL0     H10919   2.032   8.740   2.216  0.4592  1.1986 -0.9188
   81MOL0     H10920   1.981   8.671   2.450 -0.4002  0.9185  0.0635
   81MOL0     H10921   2.309   9.246   4.136  1.2917  4.1016  2.8620
   81MOL0     H10922   2.525   9.144   4.219  0.2327 -1.6340  2.1198
   81MOL0     H10923   2.804   9.023   4.452  1.9380 -0.2399 -0.8498
   81MOL0     H10924   3.015   8.954   4.501 -0.2258  0.3683  0.6472
   81MOL0     H10925   3.174   8.837   4.607 -2.9392 -1.4808  1.5977
   81MOL0     H10926   3.239   8.669   4.624  2.7587 -2.2467 -3.6095
   81MOL0     H10927   3.363   8.690   4.400  4.1464  1.6530 -1.7723
   81MOL0     H10928   3.412   8.804   4.532  0.6925 -0.4381 -0.7062
   81MOL0     H10929   3.409   8.939   4.336  1.4463 -2.6272  1.2007
   81MOL0     H10930   3.256   8.978   4.410  2.8626  1.5234  1.4234
   81MOL0     H10931   3.147   8.808   4.248  0.5869 -2.6711  2.3985
   81MOL0     H10932   3.301   8.776   4.178  3.1382 -0.0564  1.5297
   81MOL0     H10933   3.190   9.156   4.010 -1.9577  0.2679  3.1433
   81MOL0     H10934   2.886   8.544   4.431  0.7993 -0.3068 -2.1827
   81MOL0     H10935   2.668   8.615   4.379 -0.3943  0.8611 -1.8526
   82MOL0     O10936  11.351   7.160  10.775 -0.0493 -1.0997  0.3084
   82MOL0     C10937  11.402   7.195  10.670  0.3966 -0.0486  0.4386
   82MOL0     O10938  11.329   7.212  10.560 -0.0323 -0.6234  0.1769
   82MOL0     C10939  11.194   7.181  10.550  0.1059  0.0131 -0.6167
   82MOL0     C10940  11.160   7.045  10.533  1.0458 -0.6058 -0.2458
   82MOL0     C10941  11.025   7.023  10.499 -0.2299  1.3088 -0.0406
   82MOL0     C10942  10.926   7.120  10.474 -0.8811 -0.8906 -0.1912
   82MOL0     O10943  10.794   7.108  10.452 -0.0498  0.0157  0.1375
   82MOL0     C10944  10.721   7.008  10.538 -0.3110  0.9912  0.5118
   82MOL0     C10945  10.674   6.893  10.453 -0.2335  0.0459 -1.0498
   82MOL0     C10946  10.560   6.930  10.362 -0.9242  0.1306 -0.2674
   82MOL0     C10947  10.435   6.980  10.433  0.3941  0.1132 -0.4222
   82MOL0     C10948  10.322   6.988  10.333 -0.2011 -0.1449 -0.5554
   82MOL0     C10949  10.315   7.121  10.278 -0.5284  0.2537 -0.7920
   82MOL0     C10950  10.167   7.160  10.250 -1.2420  0.2553 -0.0394
   82MOL0     C10951  10.158   7.309  10.215 -0.8328  0.5536  1.0050
   82MOL0     N10952  10.225   7.346  10.090 -0.2478  0.1858  0.0969
   82MOL0     C10953  10.191   7.293   9.965  0.4630 -0.8740  0.3684
   82MOL0     C10954  10.310   7.282   9.907 -1.0960 -0.6466  0.3807
   82MOL0     C10955  10.346   7.206   9.781 -1.1430  0.3565 -0.5485
   82MOL0     C10956  10.295   7.267   9.655  0.2335 -0.5604 -1.2811
   82MOL0     C10957  10.344   7.209   9.528 -0.1883  0.3172  0.0992
   82MOL0     C10958  10.238   7.243   9.419 -0.1065  0.3772  0.3339
   82MOL0     O10959  10.277   7.164   9.305  0.4178  1.0092 -0.9628
   82MOL0     C10960  10.366   7.212   9.215 -0.3874  0.3305  0.0473
   82MOL0     C10961  10.374   7.133   9.103 -1.2129  0.5137 -1.1244
   82MOL0     C10962  10.451   7.167   8.991  0.0337  0.5314  0.2070
   82MOL0     C10963  10.452   7.063   8.879  0.4263 -1.1775  0.6941
   82MOL0     C10964  10.515   7.292   8.990  0.4626 -0.2003  0.1337
   82MOL0     C10965  10.601   7.346   8.877  0.3637 -0.4086  0.8287
   82MOL0     O10966  10.688   7.448   8.911  0.2701 -0.2356 -0.5371
   82MOL0     C10967  10.755   7.520   8.827 -0.2516 -0.3202 -0.7012
   82MOL0     C10968  10.697   7.588   8.715 -0.1916 -0.6344 -0.9355
   82MOL0     C10969  10.775   7.659   8.628 -0.2575  1.0258 -0.1893
   82MOL0     C10970  10.907   7.670   8.646 -2.0588 -0.7161  0.3933
   82MOL0     O10971  10.998   7.745   8.565  0.2339  0.1839  0.5239
   82MOL0     C10972  10.943   7.841   8.475 -0.7450 -0.7577  0.0654
   82MOL0     C10973  11.052   7.938   8.428 -0.3327  0.5825  0.0407
   82MOL0     C10974  11.181   7.872   8.372 -0.0496  0.1631 -0.1422
   82MOL0     C10975  11.293   7.972   8.344  0.6713  0.2939 -0.0143
   82MOL0     C10976  11.411   7.891   8.281  0.2083 -0.6246 -0.3387
   82MOL0     C10977  11.533   7.981   8.273 -0.4343 -0.4998  0.5920
   82MOL0     C10978  11.506   8.084   8.158  0.2684  0.4682  0.3547
   82MOL0     C10979  11.644   8.145   8.112  0.1389  0.1793  0.1112
   82MOL0    Cl10980  11.791   8.116   8.226 -0.0051 -0.2187  0.6115
   82MOL0     C10981  10.967   7.604   8.755 -0.0535  0.2196  0.8771
   82MOL0     C10982  10.890   7.530   8.844  0.5039 -0.2653  0.5187
   82MOL0     O10983  10.586   7.295   8.761  0.7304 -0.1222 -0.5055
   82MOL0     C10984  10.499   7.377   9.095 -1.2682  0.3662  1.2473
   82MOL0     C10985  10.429   7.338   9.209 -0.8144  0.1327 -1.1799
   82MOL0     N10986  10.408   7.356   9.975 -0.2646 -0.4382  2.1042
   82MOL0     N10987  10.354   7.395  10.083  0.1886 -0.8204 -0.3189
   82MOL0     C10988  10.979   7.253  10.493  0.8740 -0.4655 -0.2447
   82MOL0     C10989  11.102   7.279  10.539  0.2866 -0.9389  0.1510
   82MOL0     C10990  11.543   7.235  10.661 -0.8445 -0.8999  0.5828
   82MOL0     C10991  11.614   7.230  10.534 -0.7985  0.5612 -0.6109
   82MOL0     C10992  11.750   7.247  10.544 -0.7368 -0.2903 -0.7405
   82MOL0     C10993  11.827   7.281  10.657 -0.3017  0.0303  0.3022
   82MOL0     O10994  11.962   7.297  10.632  0.0377 -0.0368  0.6193
   82MOL0     C10995  12.046   7.362  10.722 -0.2853  0.1831 -0.3146
   82MOL0     C10996  12.187   7.323  10.654 -1.2851 -0.7070 -0.1107
   82MOL0     C10997  12.226   7.366  10.512  1.0219 -0.7351 -0.5308
   82MOL0     C10998  12.279   7.510  10.496 -0.6134 -0.6293  0.6048
   82MOL0     C10999  12.168   7.608  10.527  0.3162  0.6537  1.3156
   82MOL0     C11000  12.072   7.683  10.553 -0.5237  0.4315 -0.6506
   82MOL0     C11001  11.755   7.290  10.773 -0.1919  0.1869  0.6573
   82MOL0     C11002  11.621   7.265  10.784  1.1632 -0.9781  0.4386
   82MOL0     H11003  11.233   6.968  10.556 -0.8821 -2.6349 -0.4685
   82MOL0     H11004  10.995   6.919  10.493  0.5935  1.0551  0.1561
   82MOL0     H11005  10.788   6.970  10.616 -2.0108 -3.8723 -0.0829
   82MOL0     H11006  10.637   7.050  10.593 -1.1773 -1.8879  1.5504
   82MOL0     H11007  10.757   6.854  10.394  3.0621 -0.0694  3.1931
   82MOL0     H11008  10.648   6.807  10.515 -0.0423  0.1889 -0.7681
   82MOL0     H11009  10.590   7.013  10.298  1.1913  2.5265  3.4870
   82MOL0     H11010  10.538   6.853  10.287 -1.2212  2.9400 -3.2941
   82MOL0     H11011  10.410   6.909  10.512  0.1114  0.4075 -0.2429
   82MOL0     H11012  10.449   7.070  10.494  2.5711  0.3456 -1.1954
   82MOL0     H11013  10.318   6.899  10.270 -2.2439 -0.2532 -0.3340
   82MOL0     H11014  10.239   6.978  10.403  2.0775  2.4650  2.8817
   82MOL0     H11015  10.355   7.191  10.352 -3.1933  2.8881 -1.6148
   82MOL0     H11016  10.379   7.126  10.189  2.4474 -4.2388  0.7798
   82MOL0     H11017  10.126   7.095  10.171 -1.2323 -1.8414  1.5866
   82MOL0     H11018  10.108   7.142  10.340  0.3780  1.8008  1.4142
   82MOL0     H11019  10.197   7.361  10.302 -1.0901 -1.4532  2.3897
   82MOL0     H11020  10.052   7.329  10.194 -1.1209 -0.5548  1.3509
   82MOL0     H11021  10.098   7.245   9.936 -0.9857  0.5402  2.3709
   82MOL0     H11022  10.453   7.185   9.782  0.2597  6.0427  0.4451
   82MOL0     H11023  10.288   7.113   9.785  0.7732 -0.9076 -0.9847
   82MOL0     H11024  10.307   7.375   9.664  0.2800 -0.7497  2.3170
   82MOL0     H11025  10.188   7.249   9.665  0.3052 -0.4766 -0.2554
   82MOL0     H11026  10.353   7.100   9.534 -0.4308  0.2587 -0.5217
   82MOL0     H11027  10.442   7.254   9.510  0.2968 -0.8667 -0.3118
   82MOL0     H11028  10.232   7.352   9.410 -2.1766  0.3108  0.3921
   82MOL0     H11029  10.146   7.205   9.464  1.3120  1.7506  4.9785
   82MOL0     H11030  10.334   7.033   9.118 -3.0585  1.4021  0.2495
   82MOL0     H11031  10.553   7.035   8.849  1.5817  3.1846 -0.1547
   82MOL0     H11032  10.403   6.968   8.899  0.0409 -0.9434  0.8756
   82MOL0     H11033  10.405   7.120   8.798  3.5386  0.1685 -0.3059
   82MOL0     H11034  10.593   7.566   8.694  0.2424 -2.1440 -1.6624
   82MOL0     H11035  10.729   7.700   8.539 -1.5658 -2.4928 -1.3088
   82MOL0     H11036  10.914   7.800   8.378  0.8581  0.7473 -1.1076
   82MOL0     H11037  10.865   7.901   8.523 -0.6885 -1.1291  0.6307
   82MOL0     H11038  11.013   8.023   8.371 -0.9633  1.2949  1.4715
   82MOL0     H11039  11.098   7.976   8.520 -2.1314  3.0643  0.0515
   82MOL0     H11040  11.159   7.812   8.283  2.8352 -1.5495  0.1758
   82MOL0     H11041  11.212   7.794   8.441 -0.1116 -1.1136 -1.5075
   82MOL0     H11042  11.260   8.050   8.276 -1.5547 -2.9943 -3.1122
   82MOL0     H11043  11.323   8.010   8.442 -3.0804 -1.4491  2.0583
   82MOL0     H11044  11.364   7.852   8.190 -1.7977 -1.9195  1.1677
   82MOL0     H11045  11.427   7.810   8.352  1.7082  0.6692  0.8717
   82MOL0     H11046  11.559   8.033   8.366 -0.3763 -0.0422  0.3232
   82MOL0     H11047  11.626   7.926   8.262  0.5848  1.1511  0.6096
   82MOL0     H11048  11.441   8.162   8.199  0.4099 -1.1934  4.1964
   82MOL0     H11049  11.457   8.038   8.071  0.0651  2.1899 -0.4876
   82MOL0     H11050  11.634   8.254   8.115 -0.2309  0.1427  0.2893
   82MOL0     H11051  11.674   8.101   8.017  3.0963 -0.6780  1.3288
   82MOL0     H11052  11.073   7.624   8.763 -0.4618  2.6645  0.7728
   82MOL0     H11053  10.910   7.475   8.936  1.2085 -2.0709 -0.6592
   82MOL0     H11054  10.548   7.473   9.107  1.1899 -0.7624  0.9289
   82MOL0     H11055  10.411   7.409   9.289  0.6753  1.0342 -1.6077
   82MOL0     H11056  10.907   7.334  10.485  0.3546 -0.7477  1.2013
   82MOL0     H11057  11.140   7.372  10.580 -1.4158  0.6790 -1.7362
   82MOL0     H11058  11.556   7.213  10.443 -0.9745 -2.2077 -0.0681
   82MOL0     H11059  11.799   7.249  10.447  2.1730  2.5533  0.5801
   82MOL0     H11060  12.026   7.468  10.734 -1.1930 -0.0707  0.5930
   82MOL0     H11061  12.045   7.324  10.825 -0.6296  0.7919 -0.0883
   82MOL0     H11062  12.200   7.215  10.667 -0.9928 -0.5211  1.2950
   82MOL0     H11063  12.262   7.374  10.715 -0.6785  0.5969 -1.8532
   82MOL0     H11064  12.144   7.359  10.439  2.1331 -0.9621 -1.7902
   82MOL0     H11065  12.304   7.298  10.478  1.0855 -0.7305 -0.3962
   82MOL0     H11066  12.320   7.510  10.395  2.5892 -2.7878  1.7571
   82MOL0     H11067  12.369   7.526  10.556  0.3205 -0.5360 -0.7825
   82MOL0     H11068  11.977   7.726  10.576 -1.9243 -2.7480  0.0875
   82MOL0     H11069  11.805   7.326  10.862  0.2147  1.7077 -0.1612
   82MOL0     H11070  11.583   7.284  10.884 -1.4376  0.0660 -0.6355
   83MOL0     O11071   0.933   1.006   8.300  0.3029 -1.3278  0.2852
   83MOL0     C11072   0.819   0.967   8.317  0.1304  0.0418 -0.4341
   83MOL0     O11073   0.738   0.993   8.429 -0.1066 -0.1610 -0.2054
   83MOL0     C11074   0.773   1.094   8.515  0.0859  1.0178 -0.1506
   83MOL0     C11075   0.684   1.197   8.545  0.6662  0.0345  0.5756
   83MOL0     C11076   0.710   1.281   8.653  0.0266 -0.5498  0.2860
   83MOL0     C11077   0.826   1.271   8.725 -0.6164 -0.2137  0.1963
   83MOL0     O11078   0.832   1.363   8.828 -0.0763 -0.0943 -0.0385
   83MOL0     C11079   0.957   1.382   8.892  0.3594 -0.1427  0.2104
   83MOL0     C11080   0.902   1.473   9.010 -0.3087 -0.5122 -1.3377
   83MOL0     C11081   1.008   1.482   9.125  0.2661  0.5000 -0.3850
   83MOL0     C11082   0.986   1.587   9.234 -0.7791  0.8504  0.9237
   83MOL0     C11083   1.085   1.580   9.350  0.1507 -0.1008  0.4078
   83MOL0     C11084   1.082   1.455   9.439 -0.0284  0.3147 -0.1781
   83MOL0     C11085   1.173   1.468   9.565  0.1938 -0.1798 -0.8025
   83MOL0     C11086   1.191   1.602   9.634 -0.9055 -0.6931  0.0011
   83MOL0     N11087   1.239   1.588   9.772 -0.4100 -0.4786  0.1504
   83MOL0     C11088   1.332   1.499   9.819  0.0419 -0.5403 -1.0729
   83MOL0     C11089   1.350   1.540   9.946  1.0272  0.7951  0.5405
   83MOL0     C11090   1.443   1.486  10.044  0.0077 -0.0244  0.5575
   83MOL0     C11091   1.563   1.580  10.043 -0.8407  0.4943 -0.2230
   83MOL0     C11092   1.527   1.728  10.065 -0.5389 -0.7266 -0.0202
   83MOL0     C11093   1.471   1.749  10.203 -0.4872 -0.2705  0.1552
   83MOL0     O11094   1.464   1.885  10.241  0.0679  0.5924 -0.2027
   83MOL0     C11095   1.340   1.933  10.253 -0.0078 -0.4527 -0.5111
   83MOL0     C11096   1.276   1.949  10.375  0.2085  0.1686 -0.4118
   83MOL0     C11097   1.145   2.001  10.384  0.9370 -0.4291  0.1368
   83MOL0     C11098   1.095   2.013  10.524  0.0357 -0.0683  0.2881
   83MOL0     C11099   1.068   2.040  10.270  0.1754 -0.6555  0.4276
   83MOL0     C11100   0.943   2.114  10.287 -0.1149  0.5838  0.0071
   83MOL0     O11101   0.944   2.231  10.358 -0.6768  0.1488 -0.5030
   83MOL0     C11102   0.837   2.280  10.419  0.8175  0.2233 -0.8680
   83MOL0     C11103   0.753   2.215  10.514 -0.1251 -0.8729 -0.0262
   83MOL0     C11104   0.637   2.274  10.556  0.9006 -0.5739 -0.4528
   83MOL0     C11105   0.584   2.399  10.510 -0.1440 -0.3217 -0.6824
   83MOL0     O11106   0.480   2.470  10.580 -0.3485 -0.1624  0.0752
   83MOL0     C11107   0.374   2.398  10.655  0.0856  0.2011 -0.6172
   83MOL0     C11108   0.412   2.349  10.792  0.1984 -0.0650 -0.2753
   83MOL0     C11109   0.351   2.437  10.908  0.1589 -0.4936  0.1521
   83MOL0     C11110   0.444   2.554  10.937  1.2795 -1.2099  0.4958
   83MOL0     C11111   0.357   2.634  11.042 -0.3772  0.2287 -0.8262
   83MOL0     C11112   0.427   2.759  11.095 -0.0939 -0.5703 -0.1511
   83MOL0     C11113   0.331   2.848  11.169 -0.2236 -0.9618 -0.0318
   83MOL0     C11114   0.230   2.911  11.069  0.0563 -0.1557 -1.0985
   83MOL0    Cl11115   0.097   2.967  11.165  0.0776  0.3195  0.6701
   83MOL0     C11116   0.667   2.462  10.416 -0.1370  0.2619  0.2193
   83MOL0     C11117   0.786   2.406  10.372 -1.2890  0.0484  0.0256
   83MOL0     O11118   0.846   2.049  10.247 -0.2052  0.2917 -0.3317
   83MOL0     C11119   1.135   2.024  10.149 -0.2326 -0.6726  0.1240
   83MOL0     C11120   1.264   1.972  10.141  0.4609  0.4239  0.1547
   83MOL0     N11121   1.245   1.638   9.985  0.4151  1.1585  0.4015
   83MOL0     N11122   1.180   1.660   9.874 -0.4352  0.4588  1.1355
   83MOL0     C11123   0.914   1.165   8.692  0.4463  0.0181 -0.1896
   83MOL0     C11124   0.889   1.087   8.589 -0.3901  0.0552  1.1886
   83MOL0     C11125   0.755   0.887   8.212  1.0438 -0.0638  0.7882
   83MOL0     C11126   0.607   0.877   8.215 -0.1980 -0.6732 -0.1907
   83MOL0     C11127   0.537   0.797   8.123 -0.8859  0.3170 -0.1308
   83MOL0     C11128   0.602   0.749   8.008  0.4814  0.6600  0.2837
   83MOL0     O11129   0.536   0.678   7.913 -0.1726 -0.3569  0.2761
   83MOL0     C11130   0.524   0.540   7.935 -0.0481  0.6376  0.3780
   83MOL0     C11131   0.424   0.463   7.857 -0.3578  0.0463 -0.0079
   83MOL0     C11132   0.274   0.504   7.856  0.2121 -0.2216  0.4104
   83MOL0     C11133   0.248   0.636   7.779  0.3194 -0.2010  1.1662
   83MOL0     C11134   0.103   0.672   7.797  0.6462 -0.7604  0.2119
   83MOL0     C11135  -0.004   0.733   7.809 -0.2067 -0.7145 -0.1810
   83MOL0     C11136   0.741   0.748   8.009 -0.8887 -0.3444 -0.3747
   83MOL0     C11137   0.820   0.815   8.108 -0.0234  0.2264 -1.1571
   83MOL0     H11138   0.582   1.188   8.509  2.1313 -0.4224 -4.1932
   83MOL0     H11139   0.638   1.353   8.689 -1.2243 -1.1828 -0.8636
   83MOL0     H11140   1.008   1.290   8.923  2.0081  0.9745  0.9722
   83MOL0     H11141   1.016   1.457   8.838  0.4657 -0.8785 -0.7177
   83MOL0     H11142   0.877   1.576   8.982 -0.5236 -0.1157  0.2651
   83MOL0     H11143   0.822   1.417   9.059 -2.7847  2.4745 -1.6425
   83MOL0     H11144   1.008   1.385   9.174  0.2206  0.5401 -0.3056
   83MOL0     H11145   1.106   1.496   9.077 -1.1628  0.6398 -3.4832
   83MOL0     H11146   0.998   1.683   9.184 -1.9406 -1.3997 -4.3189
   83MOL0     H11147   0.882   1.573   9.266 -0.4373 -0.0847  1.6808
   83MOL0     H11148   1.187   1.606   9.322  0.0499  0.5665  0.6246
   83MOL0     H11149   1.059   1.668   9.411  1.4123 -0.3742  1.3945
   83MOL0     H11150   0.978   1.439   9.470  0.3769 -3.2417 -0.1714
   83MOL0     H11151   1.107   1.363   9.385 -1.3789  0.1977 -0.6216
   83MOL0     H11152   1.141   1.396   9.641 -1.1254 -0.0114 -1.1713
   83MOL0     H11153   1.271   1.434   9.531  0.6507  1.0289 -0.7536
   83MOL0     H11154   1.099   1.661   9.636 -0.1884  0.4671  0.0553
   83MOL0     H11155   1.268   1.658   9.580 -0.7778  0.6110  1.4229
   83MOL0     H11156   1.365   1.407   9.773 -1.1651 -3.3394  3.0854
   83MOL0     H11157   1.413   1.492  10.149 -2.8059  1.9695 -0.2415
   83MOL0     H11158   1.463   1.381  10.021  0.2808  0.5492 -2.2578
   83MOL0     H11159   1.611   1.572   9.945 -2.6386 -3.5608 -0.9844
   83MOL0     H11160   1.634   1.554  10.122  1.2429  3.6431 -0.8709
   83MOL0     H11161   1.452   1.768   9.997 -3.8563  0.0571  3.6841
   83MOL0     H11162   1.616   1.791  10.058  0.3008 -2.0797 -3.3566
   83MOL0     H11163   1.552   1.711  10.267  1.1251 -1.7116 -2.5440
   83MOL0     H11164   1.381   1.689  10.217 -2.0323  2.1289  1.0163
   83MOL0     H11165   1.332   1.923  10.464 -0.4382  0.5487  0.1150
   83MOL0     H11166   1.030   1.929  10.549  2.2207 -2.7035 -2.1129
   83MOL0     H11167   1.177   2.020  10.597  0.4873 -2.0290  0.0153
   83MOL0     H11168   1.047   2.110  10.537  2.5255  1.2091  0.5894
   83MOL0     H11169   0.783   2.121  10.559 -0.9685 -1.2412 -0.2127
   83MOL0     H11170   0.583   2.215  10.631  1.4034 -1.8965 -1.1034
   83MOL0     H11171   0.285   2.461  10.656  0.4839  1.0308 -4.3035
   83MOL0     H11172   0.340   2.310  10.600  0.9169 -1.2044  0.9955
   83MOL0     H11173   0.371   2.248  10.799  0.7685 -0.1843  2.1901
   83MOL0     H11174   0.520   2.344  10.807  0.3665  1.3557 -0.8171
   83MOL0     H11175   0.360   2.374  10.996  3.7072  1.1929  1.1946
   83MOL0     H11176   0.246   2.466  10.892 -0.0811 -1.4485 -0.0571
   83MOL0     H11177   0.541   2.520  10.973  2.2217 -0.8962 -1.5966
   83MOL0     H11178   0.467   2.612  10.847 -0.4240  0.7723  1.2646
   83MOL0     H11179   0.335   2.568  11.126  0.2632  1.4408  0.3332
   83MOL0     H11180   0.260   2.656  10.997 -1.1410 -0.9675  0.2045
   83MOL0     H11181   0.518   2.730  11.147  0.9527  0.5007 -1.3158
   83MOL0     H11182   0.459   2.816  11.007 -3.9885  0.8454 -0.8520
   83MOL0     H11183   0.401   2.920  11.211  0.8381 -2.2874  0.5280
   83MOL0     H11184   0.278   2.793  11.248 -1.9637 -0.7461 -0.9891
   83MOL0     H11185   0.188   2.850  10.990 -2.0946 -0.8172  0.4697
   83MOL0     H11186   0.284   2.995  11.022  0.0175  2.8406  3.5196
   83MOL0     H11187   0.635   2.554  10.368 -1.8756  0.1026  1.0276
   83MOL0     H11188   0.861   2.460  10.315  0.7383 -1.4986  1.0824
   83MOL0     H11189   1.076   2.045  10.060  0.6087  4.0064  0.4026
   83MOL0     H11190   1.295   1.955  10.039  0.2308  2.2250 -0.2636
   83MOL0     H11191   1.008   1.167   8.746  2.0909 -1.2101 -2.8233
   83MOL0     H11192   0.964   1.010   8.569 -0.7641 -0.7314  2.6370
   83MOL0     H11193   0.546   0.914   8.297 -0.2923  1.7208 -1.2541
   83MOL0     H11194   0.433   0.781   8.150  0.3335 -1.7942  4.2170
   83MOL0     H11195   0.620   0.492   7.914 -1.0331 -0.5554 -1.8417
   83MOL0     H11196   0.514   0.521   8.042 -0.8640  2.4051  0.6503
   83MOL0     H11197   0.439   0.360   7.889  0.5224  0.3572  0.6294
   83MOL0     H11198   0.464   0.457   7.755  1.9234  0.7746  0.7859
   83MOL0     H11199   0.234   0.499   7.958 -1.6510 -0.6944 -0.3064
   83MOL0     H11200   0.214   0.426   7.808  0.6941  0.3181 -1.1317
   83MOL0     H11201   0.275   0.631   7.673 -3.2389  0.3917  0.1149
   83MOL0     H11202   0.298   0.723   7.823 -1.0997  1.4287 -0.2928
   83MOL0     H11203  -0.098   0.784   7.812  0.7278  1.1656 -1.3017
   83MOL0     H11204   0.797   0.698   7.931  3.3144  0.6671  1.6929
   83MOL0     H11205   0.929   0.814   8.108  0.0727 -1.6976  1.9329
   84MOL0     O11206  10.487   2.474  10.966  0.2346  0.3949  0.1399
   84MOL0     C11207  10.513   2.390  10.878  0.4665  0.7834  0.3659
   84MOL0     O11208  10.485   2.244  10.888 -0.1837 -1.1079 -0.0387
   84MOL0     C11209  10.474   2.182  11.011 -0.1041 -0.3931 -0.4295
   84MOL0     C11210  10.571   2.179  11.099  0.1413 -0.5649 -0.6918
   84MOL0     C11211  10.570   2.093  11.215  0.8591 -1.3594  0.6425
   84MOL0     C11212  10.454   2.020  11.241  0.3316 -0.8122 -0.8798
   84MOL0     O11213  10.470   1.928  11.330 -0.1609  0.6613 -0.2336
   84MOL0     C11214  10.376   1.932  11.435 -0.2553 -0.8115  0.3548
   84MOL0     C11215  10.423   1.835  11.549  0.0037 -0.0447 -0.3291
   84MOL0     C11216  10.377   1.692  11.521  0.2144 -0.5209 -0.5534
   84MOL0     C11217  10.454   1.587  11.593 -0.0790  0.6233 -0.7416
   84MOL0     C11218  10.431   1.579  11.750  1.0248 -0.9407  0.0476
   84MOL0     C11219  10.521   1.471  11.809 -0.1574  0.3629 -0.0494
   84MOL0     C11220  10.510   1.476  11.964  0.4443  0.1335 -1.0057
   84MOL0     C11221  10.571   1.359  12.042 -0.5924  0.4994 -0.5550
   84MOL0     N11222  10.707   1.386  12.065 -0.8449 -0.5925 -0.0236
   84MOL0     C11223  10.773   1.402  12.188  0.9108 -0.0064  1.0293
   84MOL0     C11224  10.902   1.387  12.174 -0.0126 -0.3452  0.6401
   84MOL0     C11225  11.005   1.391  12.286 -0.3045  0.1043  0.1774
   84MOL0     C11226  11.140   1.385  12.217 -0.2184 -0.0722 -0.8167
   84MOL0     C11227  11.247   1.337  12.313  1.1509  0.7432 -0.1094
   84MOL0     C11228  11.381   1.331  12.245 -0.2409 -0.1130  0.0548
   84MOL0     O11229  11.473   1.239  12.313 -1.3502 -0.2778 -0.1649
   84MOL0     C11230  11.559   1.289  12.414  0.0362 -0.8845 -0.1572
   84MOL0     C11231  11.669   1.211  12.439 -0.5492  0.1710  0.3984
   84MOL0     C11232  11.768   1.260  12.523 -0.0780  0.0749 -0.7646
   84MOL0     C11233  11.896   1.186  12.533  0.0777 -0.0099  0.2942
   84MOL0     C11234  11.758   1.378  12.593  0.2234 -0.4746 -1.0636
   84MOL0     C11235  11.870   1.428  12.698  0.2033  0.4222 -1.1717
   84MOL0     O11236  11.978   1.353  12.748  0.3038  0.5836 -0.5829
   84MOL0     C11237  12.082   1.424  12.815  0.1361 -0.0785  0.2774
   84MOL0     C11238  12.194   1.452  12.741  0.1018  0.1318 -1.1300
   84MOL0     C11239  12.286   1.532  12.809 -0.3285  0.5711 -0.5365
   84MOL0     C11240  12.267   1.593  12.933 -1.1965 -0.2648  0.0496
   84MOL0     O11241  12.369   1.681  12.975  0.6311 -0.2055 -0.4946
   84MOL0     C11242  12.382   1.705  13.118  0.4687  0.4652  0.0904
   84MOL0     C11243  12.529   1.754  13.132  0.4788  0.7947 -0.5788
   84MOL0     C11244  12.546   1.834  13.256 -0.8007 -0.0443 -0.2430
   84MOL0     C11245  12.691   1.889  13.287  0.6494  0.2131  0.1211
   84MOL0     C11246  12.704   1.992  13.414  1.1827  0.1405  0.9031
   84MOL0     C11247  12.718   2.138  13.364 -0.2812  0.1546 -0.4342
   84MOL0     C11248  12.802   2.223  13.449  1.1255 -0.5639  0.5851
   84MOL0     C11249  12.947   2.230  13.396  0.2582 -0.0856  0.4426
   84MOL0    Cl11250  13.049   2.348  13.480 -0.0698  0.0757 -0.3563
   84MOL0     C11251  12.152   1.563  12.996 -0.0544 -0.9638  0.3409
   84MOL0     C11252  12.054   1.470  12.936 -0.4189 -0.3546 -1.0341
   84MOL0     O11253  11.855   1.547  12.722  0.6147 -0.5005 -0.1290
   84MOL0     C11254  11.651   1.464  12.564  0.3879  0.0047  0.8802
   84MOL0     C11255  11.552   1.417  12.473  0.0007 -1.1172 -1.3166
   84MOL0     N11256  10.923   1.349  12.038 -0.0489  0.4058 -0.9782
   84MOL0     N11257  10.810   1.345  11.982  0.6870  0.7369 -0.4079
   84MOL0     C11258  10.353   2.036  11.156  0.8564  0.9189 -0.7082
   84MOL0     C11259  10.358   2.111  11.039  0.3198  0.0600 -0.9524
   84MOL0     C11260  10.586   2.435  10.761  0.2739 -0.0024 -0.3877
   84MOL0     C11261  10.629   2.356  10.659 -0.1034  0.2704  0.5309
   84MOL0     C11262  10.689   2.402  10.541  1.5005 -0.0744 -0.3154
   84MOL0     C11263  10.699   2.535  10.528 -0.2770 -0.6022  0.7114
   84MOL0     O11264  10.736   2.607  10.411 -0.0575  0.0793  0.1287
   84MOL0     C11265  10.743   2.523  10.297 -0.4239  0.4716  0.0436
   84MOL0     C11266  10.621   2.470  10.229 -0.3015  0.1284 -0.4404
   84MOL0     C11267  10.656   2.411  10.092 -0.4533 -0.2573  0.4419
   84MOL0     C11268  10.537   2.382   9.998  0.0126 -0.3736  1.1092
   84MOL0     C11269  10.598   2.349   9.866  0.3759  0.0177 -0.0251
   84MOL0     C11270  10.654   2.341   9.757 -0.3867 -0.2635 -0.6613
   84MOL0     C11271  10.654   2.622  10.622  0.7582 -0.2355  0.0669
   84MOL0     C11272  10.596   2.573  10.739 -0.0105 -0.4751  0.5325
   84MOL0     H11273  10.661   2.236  11.078  0.1783 -0.2349  0.3068
   84MOL0     H11274  10.654   2.074  11.281  0.6053  0.9429  1.7566
   84MOL0     H11275  10.392   2.029  11.483  2.9266 -0.3344 -1.3385
   84MOL0     H11276  10.276   1.918  11.392  0.8986  1.3207 -3.6014
   84MOL0     H11277  10.529   1.828  11.573 -0.6101  0.7286  3.2823
   84MOL0     H11278  10.373   1.878  11.636 -0.6538  1.3099 -1.3538
   84MOL0     H11279  10.269   1.678  11.535 -0.3562  2.0372 -1.7807
   84MOL0     H11280  10.394   1.669  11.416 -1.0349 -0.0873 -0.8706
   84MOL0     H11281  10.432   1.488  11.553 -2.7728  0.6490  0.4732
   84MOL0     H11282  10.559   1.602  11.565 -0.1050  1.2247 -0.5361
   84MOL0     H11283  10.438   1.677  11.798 -2.9977 -1.1302  1.3954
   84MOL0     H11284  10.329   1.540  11.758  1.0059 -0.8830  0.0827
   84MOL0     H11285  10.480   1.375  11.775  0.6674  0.1235 -0.4066
   84MOL0     H11286  10.624   1.487  11.774  0.7303 -1.3177  1.5357
   84MOL0     H11287  10.564   1.570  11.981  0.2824 -0.4911  5.4349
   84MOL0     H11288  10.404   1.480  11.990  1.2604 -1.5599  3.5237
   84MOL0     H11289  10.554   1.257  12.008  2.9042 -1.2869  2.3614
   84MOL0     H11290  10.526   1.364  12.142 -2.1149  0.5112 -1.2069
   84MOL0     H11291  10.720   1.404  12.283 -2.1470 -1.3383 -0.5202
   84MOL0     H11292  11.003   1.484  12.342  0.4935 -0.3446  0.9622
   84MOL0     H11293  10.992   1.308  12.357 -1.1237  0.3252  0.2988
   84MOL0     H11294  11.155   1.489  12.188  0.0353 -0.0551 -0.6224
   84MOL0     H11295  11.151   1.324  12.127 -1.5270 -1.7963  0.1224
   84MOL0     H11296  11.221   1.237  12.350 -1.7005  1.2883 -0.4782
   84MOL0     H11297  11.251   1.395  12.405  2.2437 -2.9837  2.4439
   84MOL0     H11298  11.411   1.436  12.237  0.9465 -0.5906 -3.3260
   84MOL0     H11299  11.376   1.298  12.140  1.2354  0.5200 -0.2402
   84MOL0     H11300  11.694   1.116  12.392 -2.4130 -0.5030  0.6770
   84MOL0     H11301  11.984   1.251  12.533  0.4168 -0.4225  1.8376
   84MOL0     H11302  11.899   1.141  12.632 -1.1704  3.1391  1.9019
   84MOL0     H11303  11.915   1.117  12.450 -0.6670  2.0193 -1.6651
   84MOL0     H11304  12.224   1.400  12.651  2.6194  1.9957 -1.4776
   84MOL0     H11305  12.387   1.532  12.769 -0.2704  1.1591 -0.3945
   84MOL0     H11306  12.310   1.780  13.149 -0.5738  0.0329 -1.2047
   84MOL0     H11307  12.377   1.610  13.173  1.8745 -0.7598 -1.7581
   84MOL0     H11308  12.599   1.670  13.138 -0.7541 -0.2382  5.3179
   84MOL0     H11309  12.559   1.817  13.047  2.2898  1.7857  0.7152
   84MOL0     H11310  12.524   1.779  13.349 -1.7489  3.3982  1.7755
   84MOL0     H11311  12.474   1.916  13.261 -1.7571 -0.9251  2.2557
   84MOL0     H11312  12.757   1.805  13.309  1.9482  1.1629 -0.0450
   84MOL0     H11313  12.710   1.932  13.188 -1.4840 -0.8669 -0.8257
   84MOL0     H11314  12.802   1.977  13.460  2.2876  2.8925 -0.3203
   84MOL0     H11315  12.618   1.987  13.481  1.1222 -0.9101  0.7705
   84MOL0     H11316  12.749   2.138  13.259  0.8174 -1.4050 -0.1586
   84MOL0     H11317  12.614   2.170  13.356 -0.3149 -0.0517 -0.9182
   84MOL0     H11318  12.791   2.191  13.553  0.8354 -1.2996  0.3347
   84MOL0     H11319  12.757   2.322  13.432 -1.4620 -2.0436 -2.1358
   84MOL0     H11320  12.949   2.241  13.287 -0.4971 -1.8763  0.2139
   84MOL0     H11321  13.007   2.145  13.429  1.6117 -0.2457 -2.1920
   84MOL0     H11322  12.138   1.601  13.097 -2.3089  1.8942 -0.9171
   84MOL0     H11323  11.960   1.441  12.982 -0.2655 -2.2218 -1.7989
   84MOL0     H11324  11.646   1.566  12.602 -0.7732  0.4190 -0.3157
   84MOL0     H11325  11.466   1.480  12.449  0.6822  0.8610  1.0462
   84MOL0     H11326  10.277   1.963  11.182  2.3076 -0.0484  1.0516
   84MOL0     H11327  10.267   2.121  10.981 -1.9092  0.4619  2.3767
   84MOL0     H11328  10.631   2.247  10.662 -1.0336  0.1917 -0.8156
   84MOL0     H11329  10.739   2.327  10.479  2.0815  1.6498 -2.0275
   84MOL0     H11330  10.798   2.580  10.221  0.9441 -2.9957 -1.8034
   84MOL0     H11331  10.806   2.436  10.319 -2.7998 -1.5447 -0.5738
   84MOL0     H11332  10.555   2.557  10.222  0.1908  0.6433  0.9028
   84MOL0     H11333  10.549   2.400  10.274 -1.8278 -0.0294 -2.9553
   84MOL0     H11334  10.708   2.316  10.105 -0.3696 -0.2164  0.4113
   84MOL0     H11335  10.729   2.472  10.037 -2.3104  0.1965 -1.6371
   84MOL0     H11336  10.482   2.475   9.985  2.2235  1.0296  1.2135
   84MOL0     H11337  10.477   2.294  10.024 -2.2353  0.2159 -1.6427
   84MOL0     H11338  10.682   2.324   9.655  0.3681 -0.4923 -0.4205
   84MOL0     H11339  10.657   2.726  10.591 -2.4841 -0.8966 -3.2735
   84MOL0     H11340  10.569   2.654  10.805  3.4142  2.0021 -0.8162
   85MOL0     O11341   2.350   1.486   3.754 -0.7079  0.1443  0.1144
   85MOL0     C11342   2.453   1.404   3.747 -0.5218  0.0208 -0.5063
   85MOL0     O11343   2.504   1.360   3.638 -0.5855  0.0944  0.4172
   85MOL0     C11344   2.451   1.395   3.518 -1.1931  0.0547 -0.7022
   85MOL0     C11345   2.485   1.517   3.458  0.2920 -0.1862 -0.4546
   85MOL0     C11346   2.439   1.545   3.331  0.2457  0.4861 -0.1905
   85MOL0     C11347   2.361   1.459   3.255 -0.5691  0.3104  0.5831
   85MOL0     O11348   2.317   1.473   3.121  0.7407  0.5642 -0.2057
   85MOL0     C11349   2.367   1.585   3.039 -0.7366 -0.7534 -0.8599
   85MOL0     C11350   2.286   1.597   2.919 -0.8976 -0.2257  0.4603
   85MOL0     C11351   2.314   1.505   2.803 -0.3776 -1.6018 -0.2649
   85MOL0     C11352   2.233   1.545   2.680  0.2241 -0.3544  0.6352
   85MOL0     C11353   2.222   1.458   2.552 -0.8211 -0.0532  0.7280
   85MOL0     C11354   2.356   1.453   2.487 -0.1232  0.1147  0.7983
   85MOL0     C11355   2.340   1.413   2.342 -0.2202  1.7534  0.2096
   85MOL0     C11356   2.473   1.370   2.277  0.1066  0.2913 -0.7423
   85MOL0     N11357   2.448   1.336   2.139  0.6875  0.7186  0.4613
   85MOL0     C11358   2.357   1.255   2.080  0.2097 -0.2376  0.3048
   85MOL0     C11359   2.395   1.258   1.945  0.3169 -1.1403  0.7313
   85MOL0     C11360   2.355   1.163   1.830 -0.1392 -0.6374 -0.6544
   85MOL0     C11361   2.217   1.102   1.875 -0.7526 -0.1251 -0.8616
   85MOL0     C11362   2.158   0.998   1.784  0.0730 -0.4423  0.2873
   85MOL0     C11363   2.120   1.054   1.647 -0.1641 -0.4352  1.0926
   85MOL0     O11364   2.072   0.941   1.573 -1.1436 -0.1487 -0.4850
   85MOL0     C11365   2.019   0.963   1.453  0.4341 -0.9370 -0.1994
   85MOL0     C11366   2.067   1.043   1.357  0.2963  0.4063 -0.2868
   85MOL0     C11367   2.007   1.058   1.234 -0.6184  0.1210 -0.0690
   85MOL0     C11368   2.051   1.166   1.139 -0.6218 -0.0315 -0.6850
   85MOL0     C11369   1.918   0.953   1.187 -0.1062 -0.0733  0.7040
   85MOL0     C11370   1.855   0.940   1.048  0.8318  1.0640  0.0412
   85MOL0     O11371   1.893   1.029   0.954 -0.8156  0.3461  0.2663
   85MOL0     C11372   1.848   1.026   0.824  0.4842  0.2331 -0.9000
   85MOL0     C11373   1.708   1.027   0.800  0.0594 -0.5291 -0.5779
   85MOL0     C11374   1.659   1.027   0.671 -0.7716 -0.4560 -0.4121
   85MOL0     C11375   1.755   1.034   0.564  0.2971  0.3715  0.6104
   85MOL0     O11376   1.726   1.043   0.437 -0.2237 -0.1052 -0.5159
   85MOL0     C11377   1.618   1.130   0.394 -0.6116 -0.2237 -0.0147
   85MOL0     C11378   1.605   1.147   0.238 -0.5075  0.3892 -1.5172
   85MOL0     C11379   1.562   1.011   0.183 -0.4054 -0.1704 -0.6551
   85MOL0     C11380   1.631   1.001   0.036 -0.0910  0.7991 -0.7186
   85MOL0     C11381   1.675   0.867  -0.016  0.5414 -0.4476  0.1529
   85MOL0     C11382   1.729   0.888  -0.154 -0.4451 -0.0265  0.7538
   85MOL0     C11383   1.629   0.903  -0.274 -0.8254 -0.0990 -0.9341
   85MOL0     C11384   1.688   0.898  -0.411  0.9507  0.7562 -0.8372
   85MOL0    Cl11385   1.847   0.979  -0.439  0.2011 -0.2603  0.4745
   85MOL0     C11386   1.897   1.025   0.588 -0.3868 -0.0142  0.8364
   85MOL0     C11387   1.942   1.014   0.720  0.5770 -0.7490 -0.2588
   85MOL0     O11388   1.781   0.840   1.024 -0.0331  0.4781  0.8981
   85MOL0     C11389   1.859   0.873   1.291 -0.4790 -0.6399  0.1571
   85MOL0     C11390   1.908   0.880   1.418 -0.0373  0.0314  0.4391
   85MOL0     N11391   2.492   1.352   1.919  0.4743  0.2569  0.2411
   85MOL0     N11392   2.519   1.394   2.038 -0.0083 -0.4140 -0.3027
   85MOL0     C11393   2.328   1.340   3.316 -1.0132 -0.1766  0.1477
   85MOL0     C11394   2.372   1.305   3.447 -0.4652 -0.1602 -0.3421
   85MOL0     C11395   2.524   1.361   3.882  0.7038  0.7423  0.8554
   85MOL0     C11396   2.627   1.270   3.881 -0.4705  0.2117 -0.2562
   85MOL0     C11397   2.705   1.241   3.997 -0.7276 -0.1737  0.2883
   85MOL0     C11398   2.665   1.291   4.120  0.3164  0.1347  0.1646
   85MOL0     O11399   2.742   1.266   4.236 -0.4818 -0.6326 -0.6025
   85MOL0     C11400   2.847   1.165   4.244  0.2001 -0.2664 -0.8236
   85MOL0     C11401   2.790   1.035   4.305  0.9037 -0.0056 -0.0686
   85MOL0     C11402   2.891   0.950   4.385  0.3862  0.7837  0.2983
   85MOL0     C11403   3.019   0.912   4.310  0.6967 -0.2638  1.3110
   85MOL0     C11404   3.129   0.888   4.405 -0.3249 -0.2785  0.0444
   85MOL0     C11405   3.237   0.865   4.451  0.2848 -0.2145 -0.0708
   85MOL0     C11406   2.547   1.371   4.120  0.7826  0.5300  1.0963
   85MOL0     C11407   2.475   1.397   4.001 -0.0570  0.3007  0.6194
   85MOL0     H11408   2.555   1.568   3.524  1.0360 -2.2931  0.4682
   85MOL0     H11409   2.457   1.641   3.283 -1.5623  1.1604  0.3519
   85MOL0     H11410   2.368   1.681   3.091  2.6149 -0.4575 -1.2605
   85MOL0     H11411   2.468   1.560   3.004 -1.0144  0.3831 -2.5898
   85MOL0     H11412   2.179   1.585   2.943 -1.8356  2.3063 -1.9421
   85MOL0     H11413   2.289   1.698   2.877  2.9074  0.1348  1.2611
   85MOL0     H11414   2.419   1.523   2.779 -0.3761 -0.7447  0.3257
   85MOL0     H11415   2.294   1.400   2.826 -0.1259 -1.4246  0.8464
   85MOL0     H11416   2.127   1.559   2.702 -0.0058 -0.6680 -0.2471
   85MOL0     H11417   2.259   1.648   2.653  0.1791 -0.5838 -0.3110
   85MOL0     H11418   2.190   1.357   2.577  3.0001 -1.1206  2.0806
   85MOL0     H11419   2.149   1.503   2.485 -0.3168 -1.9277 -1.1839
   85MOL0     H11420   2.401   1.552   2.490  0.8085 -0.1694 -1.2850
   85MOL0     H11421   2.409   1.374   2.542  1.2652 -0.9840 -1.8907
   85MOL0     H11422   2.273   1.327   2.338 -1.3202  2.5324  0.9315
   85MOL0     H11423   2.290   1.492   2.283 -1.3690 -0.6487 -2.2436
   85MOL0     H11424   2.491   1.282   2.340  1.7257  1.5397  0.6088
   85MOL0     H11425   2.553   1.443   2.284  0.9442 -0.5594 -1.2555
   85MOL0     H11426   2.292   1.182   2.127  1.2998 -1.6030 -0.2455
   85MOL0     H11427   2.345   1.220   1.737  0.6407  1.1200  0.2760
   85MOL0     H11428   2.422   1.077   1.821 -0.2795 -0.8155 -0.0965
   85MOL0     H11429   2.145   1.179   1.905  0.1335  1.4642 -2.6259
   85MOL0     H11430   2.242   1.056   1.972 -0.0903  2.3373  0.2249
   85MOL0     H11431   2.077   0.943   1.834 -0.4883 -0.9234 -1.0972
   85MOL0     H11432   2.230   0.920   1.757 -1.2418 -0.6407 -3.1608
   85MOL0     H11433   2.205   1.102   1.598 -1.6220  3.3482  1.9315
   85MOL0     H11434   2.035   1.123   1.654 -1.6247 -1.9516 -0.4594
   85MOL0     H11435   2.147   1.110   1.387  2.4023 -2.9103  2.2692
   85MOL0     H11436   1.970   1.234   1.110  1.0861  2.5563  0.2747
   85MOL0     H11437   2.124   1.236   1.181 -1.7031  0.6563  0.1255
   85MOL0     H11438   2.100   1.125   1.051  2.4994  2.8873 -0.4952
   85MOL0     H11439   1.635   1.026   0.881 -1.1451  1.7286 -1.5404
   85MOL0     H11440   1.554   1.022   0.641 -0.8006 -0.1751 -0.3560
   85MOL0     H11441   1.528   1.091   0.442  2.0796 -3.7992  2.7271
   85MOL0     H11442   1.648   1.231   0.425  0.9020 -0.0420 -1.9185
   85MOL0     H11443   1.535   1.225   0.206 -1.8542 -0.7882 -1.5794
   85MOL0     H11444   1.704   1.183   0.210  0.8670  0.0040  2.2980
   85MOL0     H11445   1.454   0.998   0.191 -0.6878  2.4373  1.3000
   85MOL0     H11446   1.606   0.929   0.240  2.4093  2.0900  0.6755
   85MOL0     H11447   1.574   1.059  -0.037  1.6947  2.9141 -0.5672
   85MOL0     H11448   1.722   1.061   0.049 -1.1309  3.0133 -2.8858
   85MOL0     H11449   1.586   0.804  -0.015  0.2242 -0.0791 -1.3973
   85MOL0     H11450   1.750   0.824   0.051  0.9477 -0.3286 -0.2165
   85MOL0     H11451   1.801   0.970  -0.147  2.8253 -2.6095  0.2282
   85MOL0     H11452   1.782   0.798  -0.186  2.1306  1.7665 -0.3598
   85MOL0     H11453   1.568   0.991  -0.251  1.7226  0.7388  4.0072
   85MOL0     H11454   1.567   0.814  -0.265 -1.5697  0.3990 -1.0018
   85MOL0     H11455   1.611   0.923  -0.485 -1.3985 -1.1971  0.7522
   85MOL0     H11456   1.703   0.791  -0.432 -1.3366 -0.0773  1.1717
   85MOL0     H11457   1.964   1.028   0.503 -0.5750  5.1184  0.5360
   85MOL0     H11458   2.046   1.004   0.747  0.9297 -0.9783 -1.6532
   85MOL0     H11459   1.784   0.802   1.258 -2.9365  2.0219 -0.3769
   85MOL0     H11460   1.864   0.825   1.500 -1.5988 -3.6786 -2.5198
   85MOL0     H11461   2.264   1.274   3.259 -0.4361 -1.8767  1.3781
   85MOL0     H11462   2.356   1.202   3.477 -0.0069 -1.1113 -3.0863
   85MOL0     H11463   2.657   1.218   3.791  2.7193 -1.3062  1.5531
   85MOL0     H11464   2.776   1.159   3.985 -0.3795  0.1028  0.4498
   85MOL0     H11465   2.903   1.145   4.152  1.8106 -0.9256  0.2419
   85MOL0     H11466   2.922   1.211   4.310 -1.2792  2.1409 -0.7177
   85MOL0     H11467   2.736   0.978   4.229 -2.4946 -0.2212  2.2802
   85MOL0     H11468   2.715   1.071   4.377  0.1445 -2.1905  0.3106
   85MOL0     H11469   2.836   0.867   4.430  0.9576 -0.3802 -1.0815
   85MOL0     H11470   2.922   1.004   4.475  2.1627  1.4911 -0.6827
   85MOL0     H11471   3.045   0.990   4.239 -1.4717 -0.1545  0.5583
   85MOL0     H11472   3.003   0.826   4.244 -2.5470  0.7133  0.6465
   85MOL0     H11473   3.333   0.840   4.491  0.2678  1.6387  1.2580
   85MOL0     H11474   2.509   1.409   4.214 -4.0626 -1.5733  0.3177
   85MOL0     H11475   2.387   1.461   4.000 -1.2525 -1.0954  3.6237
   86MOL0     O11476   4.921   9.278   7.092 -0.7186  0.7556  0.5875
   86MOL0     C11477   4.960   9.228   6.983 -0.4139 -0.3029 -0.4927
   86MOL0     O11478   5.075   9.253   6.921 -0.8171  0.5548 -0.4492
   86MOL0     C11479   5.132   9.380   6.936 -0.1971 -0.1667  0.1584
   86MOL0     C11480   5.274   9.400   6.949  0.2186 -0.3671  0.0731
   86MOL0     C11481   5.329   9.528   6.969 -0.8715  0.2013  0.2394
   86MOL0     C11482   5.253   9.642   6.968  0.0798  0.7858 -0.2528
   86MOL0     O11483   5.313   9.768   6.992 -0.4443 -0.7523  0.5520
   86MOL0     C11484   5.231   9.878   6.953 -0.1921  0.3203 -0.0325
   86MOL0     C11485   5.316  10.002   6.914 -0.1356  0.0022 -0.5515
   86MOL0     C11486   5.251  10.108   6.838 -0.0075  0.2618  0.0335
   86MOL0     C11487   5.365  10.221   6.828 -0.1251  0.6468 -0.0238
   86MOL0     C11488   5.308  10.335   6.745  0.5686  0.1024 -0.6669
   86MOL0     C11489   5.401  10.460   6.753 -0.4309  1.0466 -0.6715
   86MOL0     C11490   5.551  10.445   6.719 -0.1608 -0.4269  1.1353
   86MOL0     C11491   5.634  10.576   6.688  0.7339  1.0942  0.3584
   86MOL0     N11492   5.671  10.638   6.816  0.0991 -0.6006 -0.0508
   86MOL0     C11493   5.604  10.741   6.889 -0.2233 -0.9240 -0.0263
   86MOL0     C11494   5.648  10.731   7.016 -0.9558  0.4584 -0.3814
   86MOL0     C11495   5.591  10.809   7.132 -0.3444  0.1557 -0.7063
   86MOL0     C11496   5.690  10.915   7.194 -0.2475 -0.1353 -0.2530
   86MOL0     C11497   5.753  11.011   7.095 -0.2320  1.2186 -0.1341
   86MOL0     C11498   5.816  11.123   7.176 -0.1736 -0.8905 -0.6844
   86MOL0     O11499   5.945  11.097   7.221 -1.4841 -0.5298  0.1166
   86MOL0     C11500   6.045  11.125   7.132  0.2013  0.6113 -0.1793
   86MOL0     C11501   6.049  11.195   7.010 -0.6756 -0.1517 -0.0113
   86MOL0     C11502   6.169  11.219   6.935  0.5108 -0.1509 -0.7407
   86MOL0     C11503   6.149  11.290   6.809 -0.3864  0.2099  1.1929
   86MOL0     C11504   6.295  11.171   6.988 -0.4675  0.5610  0.5789
   86MOL0     C11505   6.415  11.159   6.897 -0.5968  0.7398  0.1976
   86MOL0     O11506   6.527  11.103   6.964  0.0613 -0.0220  0.2265
   86MOL0     C11507   6.634  11.052   6.900  0.1671  0.2429  0.4106
   86MOL0     C11508   6.644  11.008   6.763  0.2705  0.1936  0.0772
   86MOL0     C11509   6.760  10.961   6.717 -0.3662  0.8254  0.8421
   86MOL0     C11510   6.871  10.939   6.804 -0.3225 -0.4111 -0.2033
   86MOL0     O11511   6.990  10.891   6.761 -0.1742 -0.2543  0.6870
   86MOL0     C11512   6.993  10.863   6.619 -0.7203 -1.2049  0.3517
   86MOL0     C11513   7.130  10.808   6.582  0.1434 -0.7472 -0.0385
   86MOL0     C11514   7.229  10.932   6.577  0.7328  0.3582 -0.0888
   86MOL0     C11515   7.366  10.895   6.536 -0.1877  1.1910 -0.1268
   86MOL0     C11516   7.410  10.932   6.393 -0.6597 -0.1509  0.3351
   86MOL0     C11517   7.550  10.863   6.365  0.5033  0.0688 -0.3858
   86MOL0     C11518   7.612  10.895   6.225 -0.2215 -0.4310 -0.2363
   86MOL0     C11519   7.707  10.785   6.173  0.8843  0.6623 -0.0269
   86MOL0    Cl11520   7.792  10.849   6.031 -0.5931 -0.1597  0.2990
   86MOL0     C11521   6.862  10.973   6.941  0.2082  1.1344  0.0844
   86MOL0     C11522   6.739  11.019   6.986  0.7881  0.2273  0.4463
   86MOL0     O11523   6.405  11.173   6.774  0.2281 -0.7961  0.1793
   86MOL0     C11524   6.284  11.100   7.116 -0.1132  0.9604  0.3724
   86MOL0     C11525   6.162  11.078   7.182 -0.3033 -0.0917  0.2741
   86MOL0     N11526   5.756  10.641   7.021  1.6809 -0.1225 -0.4046
   86MOL0     N11527   5.766  10.598   6.901 -0.2932 -0.3182  0.0055
   86MOL0     C11528   5.119   9.623   6.955  0.6418 -0.6528 -0.1323
   86MOL0     C11529   5.062   9.499   6.949  0.4384 -0.9084  0.7655
   86MOL0     C11530   4.852   9.160   6.917 -0.3089  0.2759 -0.3506
   86MOL0     C11531   4.882   9.101   6.790  0.9524 -0.0885 -0.1968
   86MOL0     C11532   4.790   9.007   6.729 -0.5903  0.4119  0.7436
   86MOL0     C11533   4.668   8.974   6.778 -0.6212  0.5830 -0.3556
   86MOL0     O11534   4.589   8.893   6.704  0.0716 -0.2199  0.4909
   86MOL0     C11535   4.472   8.847   6.766  0.3705 -0.3482  0.6004
   86MOL0     C11536   4.387   8.760   6.664  0.4649 -0.4494 -0.3815
   86MOL0     C11537   4.230   8.771   6.688  0.2633  0.2600 -1.0579
   86MOL0     C11538   4.185   8.705   6.822 -0.6701 -0.3810  1.4602
   86MOL0     C11539   4.071   8.616   6.793 -0.2648  0.0221 -0.1191
   86MOL0     C11540   3.984   8.538   6.757  0.6035  0.3456  0.4334
   86MOL0     C11541   4.638   9.034   6.902  0.0535  0.5022 -0.1491
   86MOL0     C11542   4.721   9.123   6.967 -0.6069  0.7810  0.7122
   86MOL0     H11543   5.335   9.310   6.950  2.2209  0.8767 -1.4430
   86MOL0     H11544   5.437   9.537   6.972 -0.7589 -0.1852 -1.4422
   86MOL0     H11545   5.186   9.850   6.857 -1.0235  2.3812 -0.2893
   86MOL0     H11546   5.154   9.914   7.022  3.4164  2.0785  3.4824
   86MOL0     H11547   5.349  10.052   7.006 -0.3442  2.5243 -1.7632
   86MOL0     H11548   5.410   9.960   6.876  0.0196 -1.1951  1.0402
   86MOL0     H11549   5.235  10.067   6.738 -1.3448 -0.1494  0.3983
   86MOL0     H11550   5.162  10.153   6.882  1.8521  1.7079  2.5558
   86MOL0     H11551   5.387  10.266   6.925 -0.1827 -0.1882  0.3843
   86MOL0     H11552   5.456  10.176   6.788  0.4952  0.6950  1.2867
   86MOL0     H11553   5.290  10.294   6.646 -3.3019 -0.2587  0.0317
   86MOL0     H11554   5.207  10.367   6.774  0.7747  0.4460 -0.3054
   86MOL0     H11555   5.355  10.536   6.690 -1.0915 -1.2205 -3.1299
   86MOL0     H11556   5.402  10.500   6.855  4.3583 -2.3132  1.0192
   86MOL0     H11557   5.596  10.398   6.807  0.9783  0.9414  1.3055
   86MOL0     H11558   5.557  10.373   6.636 -0.2048 -0.3341  1.0522
   86MOL0     H11559   5.575  10.650   6.633  1.0072  0.3105 -1.0095
   86MOL0     H11560   5.723  10.557   6.628 -1.2080 -0.8619 -2.1427
   86MOL0     H11561   5.516  10.801   6.866  1.0766  2.0345  2.0111
   86MOL0     H11562   5.500  10.851   7.089  0.4327  2.4418 -0.2504
   86MOL0     H11563   5.555  10.739   7.209 -2.7641  3.5517  1.5450
   86MOL0     H11564   5.768  10.863   7.250 -0.6242 -0.2537  0.1608
   86MOL0     H11565   5.618  10.969   7.256 -2.7694 -3.2246 -0.2311
   86MOL0     H11566   5.669  11.054   7.039  0.2962  1.6895 -0.5763
   86MOL0     H11567   5.816  10.972   7.014 -1.7832  1.2570 -1.4287
   86MOL0     H11568   5.760  11.159   7.263  1.7929  1.3507 -0.2575
   86MOL0     H11569   5.811  11.201   7.100 -0.5773 -0.1886  0.0421
   86MOL0     H11570   5.960  11.242   6.971 -0.1312  1.8680  1.0596
   86MOL0     H11571   6.223  11.372   6.806  2.3363 -2.1168 -0.7234
   86MOL0     H11572   6.176  11.231   6.720  0.6338 -0.3465  1.8476
   86MOL0     H11573   6.046  11.319   6.788 -0.9747 -2.5132 -0.0653
   86MOL0     H11574   6.558  11.016   6.698  2.0348  0.7152 -2.3337
   86MOL0     H11575   6.769  10.944   6.610 -1.8158  0.3646  0.7738
   86MOL0     H11576   6.922  10.783   6.595  0.6457 -1.6687 -2.5321
   86MOL0     H11577   6.966  10.953   6.562 -0.4178 -0.9624  0.5888
   86MOL0     H11578   7.161  10.741   6.663  0.5193  1.5239  1.7937
   86MOL0     H11579   7.136  10.760   6.484  1.5452  0.3470 -0.5193
   86MOL0     H11580   7.237  10.973   6.678  1.4839  1.2004 -0.4840
   86MOL0     H11581   7.187  11.008   6.510 -2.2053 -0.2850  0.8874
   86MOL0     H11582   7.428  10.949   6.608  2.2577  0.8058 -1.8146
   86MOL0     H11583   7.395  10.794   6.567 -1.4056  0.8676  0.0244
   86MOL0     H11584   7.403  11.040   6.384 -0.6164 -0.1177  0.6750
   86MOL0     H11585   7.332  10.897   6.326 -0.4378 -0.2938  0.1496
   86MOL0     H11586   7.607  10.888   6.456  1.3229 -1.1297 -0.5433
   86MOL0     H11587   7.541  10.754   6.362 -0.4983  0.0992  0.8451
   86MOL0     H11588   7.673  10.986   6.228  2.0621 -1.9002  2.8058
   86MOL0     H11589   7.542  10.923   6.146  0.2286 -0.2082 -0.5589
   86MOL0     H11590   7.643  10.704   6.138  1.4668  0.5469 -0.8362
   86MOL0     H11591   7.773  10.747   6.252 -0.3893 -0.4220  0.5489
   86MOL0     H11592   6.944  10.940   7.004  0.7053  1.3538 -0.4378
   86MOL0     H11593   6.718  11.024   7.092 -1.1959  0.7921  0.0744
   86MOL0     H11594   6.366  11.051   7.167  3.5592  4.7496 -1.2506
   86MOL0     H11595   6.145  11.020   7.272 -4.9531  0.8190  0.2218
   86MOL0     H11596   5.060   9.714   6.957 -0.3244 -1.1763  3.6530
   86MOL0     H11597   4.953   9.499   6.951  0.4289  0.5940  1.8630
   86MOL0     H11598   4.956   9.152   6.730 -0.3598  3.2887  0.8074
   86MOL0     H11599   4.821   8.970   6.631 -0.6017 -1.8912  1.5475
   86MOL0     H11600   4.503   8.802   6.862  2.5105 -1.2802 -0.4561
   86MOL0     H11601   4.414   8.935   6.793  1.3282  1.6522 -3.2425
   86MOL0     H11602   4.405   8.654   6.683  2.5516  0.0184  0.5731
   86MOL0     H11603   4.432   8.781   6.567  3.2719  0.7080  1.0495
   86MOL0     H11604   4.189   8.723   6.599 -0.4597  1.6636 -1.5027
   86MOL0     H11605   4.204   8.877   6.691  1.9229  0.7335 -2.1198
   86MOL0     H11606   4.166   8.774   6.905 -1.1248  0.5746  0.5780
   86MOL0     H11607   4.251   8.623   6.853  0.3893 -0.3656 -0.5650
   86MOL0     H11608   3.912   8.478   6.704  1.8068 -1.2601  0.5586
   86MOL0     H11609   4.539   9.031   6.947 -0.6106  0.8262 -1.5488
   86MOL0     H11610   4.692   9.175   7.058 -0.0212 -0.3195  1.5461
   87MOL0     O11611   7.106   5.359   6.261 -0.2966  0.0036 -1.0891
   87MOL0     C11612   7.196   5.414   6.195 -0.0543  0.1051 -0.5388
   87MOL0     O11613   7.311   5.482   6.239 -0.3137  0.4174 -0.1721
   87MOL0     C11614   7.326   5.506   6.376 -0.1077  0.0159 -0.1332
   87MOL0     C11615   7.404   5.425   6.459  0.9917  0.2252  0.5630
   87MOL0     C11616   7.401   5.443   6.599  0.9691 -0.4727 -0.2334
   87MOL0     C11617   7.344   5.553   6.655 -0.5575 -0.2546 -0.4035
   87MOL0     O11618   7.331   5.577   6.783  0.0239 -0.1147  0.5812
   87MOL0     C11619   7.398   5.496   6.889  0.1171 -0.3793  0.2918
   87MOL0     C11620   7.318   5.497   7.012  0.7026  0.6330 -0.4432
   87MOL0     C11621   7.405   5.485   7.145 -0.3964  0.5576  0.3899
   87MOL0     C11622   7.504   5.366   7.142  0.0570 -0.4491 -0.7926
   87MOL0     C11623   7.617   5.383   7.252  0.0028  0.0117  0.4737
   87MOL0     C11624   7.723   5.469   7.219 -0.2263 -0.9669 -0.6512
   87MOL0     C11625   7.849   5.445   7.311  0.0070 -1.1705  0.4485
   87MOL0     C11626   7.926   5.580   7.318  0.3514  1.0323  0.3598
   87MOL0     N11627   8.033   5.578   7.412  0.9939 -0.7241 -0.0873
   87MOL0     C11628   8.172   5.572   7.386 -0.4183  0.2338 -1.1937
   87MOL0     C11629   8.221   5.625   7.503 -0.3579 -0.2303 -0.0123
   87MOL0     C11630   8.377   5.661   7.534  0.3416 -0.2508 -0.7302
   87MOL0     C11631   8.432   5.561   7.636  0.5045  0.4397  0.4343
   87MOL0     C11632   8.580   5.564   7.636 -0.3321 -0.2435 -0.0417
   87MOL0     C11633   8.649   5.461   7.726  0.5288 -0.8793 -0.5956
   87MOL0     O11634   8.574   5.348   7.759  0.7090 -0.5540  0.4444
   87MOL0     C11635   8.623   5.273   7.859 -0.6096 -1.0218  0.5500
   87MOL0     C11636   8.544   5.163   7.896  0.2336 -0.4527  0.0894
   87MOL0     C11637   8.566   5.069   7.998 -0.3914  0.0131 -0.6762
   87MOL0     C11638   8.467   4.953   8.011  0.2837 -1.3246 -0.3469
   87MOL0     C11639   8.678   5.090   8.077  0.3599 -0.7710 -0.1798
   87MOL0     C11640   8.726   5.009   8.185 -0.4421  0.5081  0.7107
   87MOL0     O11641   8.684   4.883   8.189 -0.0697 -0.5406  0.6138
   87MOL0     C11642   8.682   4.813   8.302 -0.1561  0.7050  0.4409
   87MOL0     C11643   8.798   4.765   8.363  0.7161  0.2597  0.1945
   87MOL0     C11644   8.789   4.699   8.485 -0.1697 -0.0508  0.5765
   87MOL0     C11645   8.666   4.691   8.546  0.1779  0.8218 -0.9025
   87MOL0     O11646   8.646   4.610   8.655  0.0927  0.1499  0.4170
   87MOL0     C11647   8.708   4.631   8.784  0.2668 -0.0015  0.1666
   87MOL0     C11648   8.792   4.512   8.821  0.4850 -0.2237 -0.5567
   87MOL0     C11649   8.738   4.468   8.960 -0.3685 -0.0070  0.1532
   87MOL0     C11650   8.829   4.354   9.003 -0.6991 -0.5993  0.3815
   87MOL0     C11651   8.803   4.314   9.147 -0.3274  0.8403  0.0248
   87MOL0     C11652   8.931   4.261   9.205 -1.1506 -0.0082 -0.4642
   87MOL0     C11653   8.941   4.287   9.359  0.4083 -0.5597 -0.6812
   87MOL0     C11654   9.086   4.314   9.390  0.5578  0.9455  0.5728
   87MOL0    Cl11655   9.111   4.489   9.392 -0.7799 -0.5388 -0.0875
   87MOL0     C11656   8.551   4.752   8.498 -0.4812 -0.0942  0.7125
   87MOL0     C11657   8.555   4.813   8.370 -0.7106  1.1089  0.1280
   87MOL0     O11658   8.800   5.063   8.266  0.3545  0.3090 -0.4312
   87MOL0     C11659   8.762   5.204   8.042  0.1309  0.1252 -0.0281
   87MOL0     C11660   8.736   5.295   7.942  0.3199 -0.1512 -0.4857
   87MOL0     N11661   8.120   5.633   7.603 -1.2399  0.2295 -0.4249
   87MOL0     N11662   8.012   5.601   7.542  0.2912 -1.0988 -1.0040
   87MOL0     C11663   7.290   5.643   6.569 -0.3206 -0.3488 -0.6840
   87MOL0     C11664   7.273   5.619   6.429  0.2145  0.4035 -0.2517
   87MOL0     C11665   7.178   5.414   6.047  0.3826  0.9053 -0.4337
   87MOL0     C11666   7.285   5.444   5.966  0.5964  0.7880 -0.2771
   87MOL0     C11667   7.255   5.473   5.829  0.3044  0.1659 -0.4563
   87MOL0     C11668   7.128   5.449   5.777 -0.9062 -1.0652 -0.4563
   87MOL0     O11669   7.117   5.478   5.646  0.5377  0.5264  0.7113
   87MOL0     C11670   6.990   5.492   5.583 -0.2364 -0.7233 -0.3080
   87MOL0     C11671   6.988   5.564   5.452 -1.5375  0.0524  0.0960
   87MOL0     C11672   7.034   5.707   5.455 -0.4263 -0.7285  0.6697
   87MOL0     C11673   6.959   5.800   5.355 -1.3361  0.5391 -0.2182
   87MOL0     C11674   6.965   5.754   5.220  0.3691  0.0197 -0.9336
   87MOL0     C11675   6.967   5.727   5.105 -0.5206  0.6988  0.6695
   87MOL0     C11676   7.034   5.395   5.855 -0.0937  1.6381  0.1555
   87MOL0     C11677   7.057   5.383   5.993  0.2518 -1.0602 -0.0645
   87MOL0     H11678   7.472   5.357   6.409  1.3431  1.4584 -0.7255
   87MOL0     H11679   7.452   5.368   6.658  1.7464  0.3557  0.1600
   87MOL0     H11680   7.439   5.400   6.858  0.8658  0.1279 -0.3491
   87MOL0     H11681   7.484   5.560   6.913  0.9779 -1.9379  1.5110
   87MOL0     H11682   7.241   5.575   7.016 -0.8672 -0.6820 -2.7311
   87MOL0     H11683   7.252   5.410   7.012 -2.2647  2.6753  1.1061
   87MOL0     H11684   7.475   5.569   7.142 -1.1858  1.3132  1.7740
   87MOL0     H11685   7.336   5.489   7.230 -0.2296  1.8590  0.4959
   87MOL0     H11686   7.450   5.272   7.154  1.6045 -1.3571 -0.6168
   87MOL0     H11687   7.541   5.356   7.039 -1.1155  2.5242 -1.5864
   87MOL0     H11688   7.574   5.408   7.350  3.5849  2.7585  1.5491
   87MOL0     H11689   7.649   5.280   7.271 -1.1812 -0.2372  1.2482
   87MOL0     H11690   7.747   5.451   7.113  2.4276  1.0747 -0.5008
   87MOL0     H11691   7.682   5.568   7.240 -0.3391 -1.4530  1.6591
   87MOL0     H11692   7.809   5.421   7.410 -1.4255  0.2171  0.2326
   87MOL0     H11693   7.903   5.359   7.269 -0.5425 -0.5633 -1.6249
   87MOL0     H11694   7.849   5.650   7.350  0.0790  1.6351 -1.5218
   87MOL0     H11695   7.954   5.595   7.214 -3.5499 -0.9930 -1.2099
   87MOL0     H11696   8.227   5.558   7.293 -0.0374  2.7978 -1.4187
   87MOL0     H11697   8.443   5.662   7.446  1.4161 -1.6182  0.0021
   87MOL0     H11698   8.372   5.758   7.583 -0.7908 -1.4508  1.7296
   87MOL0     H11699   8.392   5.462   7.611  0.6632 -0.0212  1.8867
   87MOL0     H11700   8.392   5.589   7.734 -0.1498  1.7850 -0.1882
   87MOL0     H11701   8.616   5.662   7.668 -0.4773 -0.1038 -0.3038
   87MOL0     H11702   8.621   5.557   7.535 -0.3569 -0.5615 -0.0314
   87MOL0     H11703   8.674   5.520   7.815  2.3704  0.0131 -1.6488
   87MOL0     H11704   8.740   5.426   7.677  1.5420  3.4058 -2.2244
   87MOL0     H11705   8.456   5.147   7.834  1.2381  0.4624 -1.6480
   87MOL0     H11706   8.405   4.960   8.100 -0.8322  0.5140 -1.2134
   87MOL0     H11707   8.402   4.956   7.923  1.4017 -0.1524 -1.1758
   87MOL0     H11708   8.518   4.856   8.013  2.0351 -0.5266 -2.1525
   87MOL0     H11709   8.890   4.785   8.308 -0.3014  2.8252 -0.7270
   87MOL0     H11710   8.870   4.648   8.535  2.0486  0.4062 -2.2869
   87MOL0     H11711   8.768   4.722   8.784  2.9644 -1.6802  0.3381
   87MOL0     H11712   8.616   4.633   8.843  0.3553 -0.4152  0.3180
   87MOL0     H11713   8.782   4.429   8.751  0.5962 -0.4719 -0.2834
   87MOL0     H11714   8.894   4.550   8.819  0.3903  0.1472  0.6899
   87MOL0     H11715   8.632   4.444   8.963 -0.2848 -0.2987  1.2525
   87MOL0     H11716   8.733   4.554   9.027 -2.0468  0.0357  0.0035
   87MOL0     H11717   8.805   4.275   8.931  1.4018 -1.2312  0.2834
   87MOL0     H11718   8.933   4.387   8.992 -0.5978 -0.3604  1.9057
   87MOL0     H11719   8.724   4.238   9.149  0.9503 -0.4895  1.6978
   87MOL0     H11720   8.763   4.403   9.197 -2.1805  0.5612 -0.8560
   87MOL0     H11721   8.918   4.154   9.186 -0.9861  0.0336 -0.8057
   87MOL0     H11722   9.027   4.293   9.165  0.0843  0.6164  2.7362
   87MOL0     H11723   8.898   4.205   9.419  0.9450  0.4075  1.1022
   87MOL0     H11724   8.885   4.377   9.386 -2.1796 -2.9554  3.0111
   87MOL0     H11725   9.156   4.274   9.316 -0.8889 -0.6724  0.0092
   87MOL0     H11726   9.108   4.260   9.482 -1.6311 -1.8270 -0.3627
   87MOL0     H11727   8.459   4.747   8.555  1.0518 -2.3697  3.2685
   87MOL0     H11728   8.468   4.849   8.315 -1.9259 -2.4131 -0.4796
   87MOL0     H11729   8.846   5.218   8.109 -0.2293 -2.6995  1.1295
   87MOL0     H11730   8.804   5.378   7.925  0.4179  0.1285  1.1033
   87MOL0     H11731   7.231   5.728   6.601 -0.0617 -0.1584 -0.7032
   87MOL0     H11732   7.218   5.683   6.361 -1.5069  0.8313  1.4579
   87MOL0     H11733   7.383   5.467   6.006 -0.7464  1.2755  2.9982
   87MOL0     H11734   7.330   5.526   5.770 -1.0982  1.2017 -1.3891
   87MOL0     H11735   6.965   5.389   5.556  0.5987 -0.9600 -0.2173
   87MOL0     H11736   6.909   5.541   5.637  0.3026  0.0067 -0.1436
   87MOL0     H11737   6.890   5.562   5.403 -0.3824  0.0004 -2.3902
   87MOL0     H11738   7.050   5.514   5.376 -0.8785  0.6384  0.2370
   87MOL0     H11739   7.141   5.704   5.433 -0.8458  0.9276 -2.1155
   87MOL0     H11740   7.024   5.757   5.551  1.1503  2.1664 -0.5324
   87MOL0     H11741   7.007   5.898   5.361  2.9106 -1.3761  1.5494
   87MOL0     H11742   6.857   5.819   5.390 -1.5695 -0.0760 -0.5472
   87MOL0     H11743   6.960   5.712   4.999  0.4379  1.2882  0.5044
   87MOL0     H11744   6.934   5.379   5.819 -0.7091 -1.1592  2.6872
   87MOL0     H11745   6.971   5.365   6.057 -1.3235  1.7793 -1.1934
   88MOL0     O11746   5.698  10.458   9.381 -0.2907  0.2638  0.3466
   88MOL0     C11747   5.704  10.372   9.466  0.3837 -0.1411 -0.0623
   88MOL0     O11748   5.653  10.246   9.457  0.2811  0.4109  0.2999
   88MOL0     C11749   5.591  10.218   9.334 -0.1093 -0.0255 -0.4496
   88MOL0     C11750   5.645  10.234   9.204  0.7921 -0.3963 -0.0858
   88MOL0     C11751   5.571  10.211   9.085  0.8883 -1.5408 -0.2011
   88MOL0     C11752   5.445  10.145   9.095 -0.4842 -0.5539  0.3038
   88MOL0     O11753   5.384  10.102   8.979  0.6059  0.4201  0.1568
   88MOL0     C11754   5.266  10.017   8.987 -0.2274 -0.2383 -0.1975
   88MOL0     C11755   5.199  10.024   8.848 -0.8527  0.3013  0.5833
   88MOL0     C11756   5.141  10.164   8.824  0.2441 -0.6026  1.1851
   88MOL0     C11757   5.152  10.191   8.667 -0.0299  0.3941  0.6279
   88MOL0     C11758   5.031  10.295   8.631 -0.9126  0.0199  0.2541
   88MOL0     C11759   5.005  10.324   8.480 -0.3867  0.7677 -0.1409
   88MOL0     C11760   5.130  10.404   8.434  1.2142  0.0393  0.7842
   88MOL0     C11761   5.117  10.408   8.282 -0.4499  0.7091  0.1799
   88MOL0     N11762   5.228  10.483   8.215 -0.1419 -0.5892 -0.1015
   88MOL0     C11763   5.363  10.433   8.200  0.4326  0.5017  0.7862
   88MOL0     C11764   5.425  10.533   8.139  0.3180  0.3040 -0.5071
   88MOL0     C11765   5.572  10.550   8.101 -0.5535  0.9822  0.5140
   88MOL0     C11766   5.660  10.586   8.218  0.7176  1.0601 -1.6449
   88MOL0     C11767   5.687  10.736   8.224  1.0183 -0.8865 -0.6890
   88MOL0     C11768   5.773  10.805   8.119  0.5480  0.5630 -0.3684
   88MOL0     O11769   5.904  10.740   8.124  0.6293  0.1286  0.3093
   88MOL0     C11770   5.981  10.746   8.014 -1.1083 -0.5624 -0.3995
   88MOL0     C11771   5.957  10.818   7.901  0.6021  0.0850  0.6335
   88MOL0     C11772   6.045  10.824   7.787  0.4148  0.3840 -0.1398
   88MOL0     C11773   6.008  10.900   7.666  0.3605 -0.1528 -1.0909
   88MOL0     C11774   6.164  10.749   7.792  0.7060 -0.0288  0.5992
   88MOL0     C11775   6.259  10.740   7.678 -0.1168 -0.0629 -0.2345
   88MOL0     O11776   6.290  10.861   7.613  0.3530  0.3626 -0.4355
   88MOL0     C11777   6.418  10.882   7.573  0.2845  0.1622 -1.0826
   88MOL0     C11778   6.423  10.975   7.472  0.9883 -1.2299 -0.9924
   88MOL0     C11779   6.552  11.016   7.432 -0.1063  0.1899  0.4124
   88MOL0     C11780   6.677  10.965   7.475 -0.7547 -1.0123  0.6457
   88MOL0     O11781   6.789  11.011   7.415 -0.5171 -1.4359  0.1123
   88MOL0     C11782   6.913  10.939   7.431 -0.1508  0.2898  0.4547
   88MOL0     C11783   7.017  10.991   7.332  0.0163 -0.6236 -0.4959
   88MOL0     C11784   7.137  10.897   7.319 -0.1952  0.9340  0.5842
   88MOL0     C11785   7.247  10.940   7.216  0.4381  0.0721  0.3500
   88MOL0     C11786   7.348  10.821   7.208  0.5068 -0.0328 -1.0602
   88MOL0     C11787   7.471  10.845   7.123  0.3446 -0.0067 -1.3260
   88MOL0     C11788   7.546  10.707   7.099  0.4543  0.5432 -0.4193
   88MOL0     C11789   7.491  10.617   6.989 -0.2946 -0.1393 -0.2053
   88MOL0    Cl11790   7.483  10.708   6.840  0.7022  0.2024  0.4079
   88MOL0     C11791   6.669  10.870   7.577  1.0176 -0.1134  0.5597
   88MOL0     C11792   6.541  10.825   7.624  0.3484 -0.6000 -0.1314
   88MOL0     O11793   6.297  10.627   7.651  0.3550 -1.0531  0.2694
   88MOL0     C11794   6.197  10.676   7.910  0.2366  0.3774  0.4274
   88MOL0     C11795   6.109  10.685   8.013  0.1152 -0.7243  0.2021
   88MOL0     N11796   5.328  10.632   8.107  0.1331 -0.9088  0.1361
   88MOL0     N11797   5.210  10.590   8.141 -0.7937 -0.0718 -0.2771
   88MOL0     C11798   5.396  10.122   9.224  0.1573  0.0807 -0.1128
   88MOL0     C11799   5.461  10.173   9.345  0.0155 -0.3712 -0.0624
   88MOL0     C11800   5.776  10.397   9.599  0.6328  0.3261  0.3076
   88MOL0     C11801   5.803  10.528   9.655  0.3113  0.2646 -0.2697
   88MOL0     C11802   5.871  10.532   9.778 -0.4178  0.3157 -0.3789
   88MOL0     C11803   5.918  10.423   9.850 -0.2626 -0.6627 -0.9541
   88MOL0     O11804   6.001  10.449   9.959 -0.7201  0.4780 -0.3216
   88MOL0     C11805   6.082  10.356  10.028 -0.8514  0.2494 -0.6145
   88MOL0     C11806   6.030  10.337  10.171  1.0080 -0.6959  0.1194
   88MOL0     C11807   5.881  10.295  10.163  0.6951  0.2439 -1.1496
   88MOL0     C11808   5.837  10.245  10.302  1.2182  0.7702  0.5634
   88MOL0     C11809   5.857  10.346  10.408  0.3758 -0.4894 -0.3101
   88MOL0     C11810   5.868  10.431  10.492 -0.1423 -0.6206 -0.4099
   88MOL0     C11811   5.903  10.302   9.787  1.1386  0.1908 -0.5392
   88MOL0     C11812   5.830  10.290   9.667  0.0244  0.9536 -0.0680
   88MOL0     H11813   5.730  10.301   9.199 -0.2926  1.2351  1.6075
   88MOL0     H11814   5.602  10.247   8.987 -0.4881  1.5546  0.3544
   88MOL0     H11815   5.291   9.913   9.005 -1.7772 -0.4585  0.8532
   88MOL0     H11816   5.188  10.045   9.059  0.4006 -6.2019  3.3921
   88MOL0     H11817   5.280   9.994   8.780 -1.0329 -5.7305  2.4363
   88MOL0     H11818   5.124   9.947   8.826 -0.1864 -1.0081  2.5616
   88MOL0     H11819   5.037  10.153   8.855 -0.1947 -2.3029 -0.6974
   88MOL0     H11820   5.194  10.236   8.887  0.0676  0.6923 -0.0935
   88MOL0     H11821   5.250  10.233   8.646  0.1804  0.8239  2.3146
   88MOL0     H11822   5.144  10.099   8.610  0.3164  0.4213  0.5368
   88MOL0     H11823   4.940  10.253   8.675  0.7575 -3.5688  0.6486
   88MOL0     H11824   5.066  10.388   8.677  0.1358  1.2584 -2.7485
   88MOL0     H11825   5.002  10.229   8.426  1.6127  0.5008  0.1465
   88MOL0     H11826   4.907  10.371   8.467 -0.5807  0.1226 -1.0948
   88MOL0     H11827   5.130  10.501   8.485  1.1077 -1.3026  3.5315
   88MOL0     H11828   5.228  10.358   8.453  1.5444  0.0478 -0.7438
   88MOL0     H11829   5.022  10.448   8.243  1.3760  3.0508 -2.3187
   88MOL0     H11830   5.122  10.308   8.238  1.9609  0.8440  0.0141
   88MOL0     H11831   5.409  10.341   8.236  0.8329 -0.4176 -1.8376
   88MOL0     H11832   5.608  10.452   8.068  0.4615 -0.0246  4.0454
   88MOL0     H11833   5.582  10.633   8.031  3.2815 -1.5979 -2.4422
   88MOL0     H11834   5.759  10.545   8.196  2.5639  3.4448  1.3408
   88MOL0     H11835   5.621  10.550   8.314  0.7888  1.9572 -1.2691
   88MOL0     H11836   5.725  10.756   8.325 -2.1255  1.0930  0.2515
   88MOL0     H11837   5.593  10.790   8.212  0.5071 -1.7429 -0.6684
   88MOL0     H11838   5.780  10.913   8.137  0.1002  0.4735  0.3755
   88MOL0     H11839   5.724  10.794   8.022  0.1366  2.0632 -0.3557
   88MOL0     H11840   5.868  10.880   7.896  2.1524  2.3096 -1.9711
   88MOL0     H11841   5.899  10.913   7.665  0.3151 -0.5201 -0.9023
   88MOL0     H11842   6.054  10.999   7.663 -1.6135  0.8042 -1.4852
   88MOL0     H11843   6.044  10.864   7.570 -0.7183 -0.5829 -1.3473
   88MOL0     H11844   6.328  11.014   7.435  0.5712 -1.7267 -0.4488
   88MOL0     H11845   6.545  11.092   7.355 -1.6600 -1.0527 -0.7343
   88MOL0     H11846   6.944  10.956   7.534 -1.5730  0.1930  0.9292
   88MOL0     H11847   6.897  10.831   7.423 -1.2723  0.3649  1.3362
   88MOL0     H11848   6.962  10.996   7.237  1.4071 -1.0889 -1.3481
   88MOL0     H11849   7.046  11.090   7.367 -1.1976 -0.3270 -0.2772
   88MOL0     H11850   7.094  10.803   7.282  1.3245  1.2115 -2.1899
   88MOL0     H11851   7.191  10.893   7.414  2.3673  2.9082 -0.6674
   88MOL0     H11852   7.201  10.937   7.116  2.2194 -1.0623 -0.4930
   88MOL0     H11853   7.283  11.039   7.244  2.5418 -0.8412  1.0477
   88MOL0     H11854   7.287  10.737   7.175 -2.0963  0.6565  1.5632
   88MOL0     H11855   7.383  10.788   7.306 -1.3991 -0.0873 -0.3604
   88MOL0     H11856   7.442  10.893   7.029 -2.6469  0.8351 -0.0835
   88MOL0     H11857   7.542  10.907   7.180  1.0454 -0.2994 -1.8653
   88MOL0     H11858   7.537  10.667   7.200 -1.4849  0.8034 -0.4419
   88MOL0     H11859   7.646  10.731   7.063  0.8798 -2.2905 -1.4112
   88MOL0     H11860   7.399  10.573   7.029  1.0059 -3.0523 -0.1591
   88MOL0     H11861   7.571  10.546   6.968 -0.1878 -0.1799  0.3224
   88MOL0     H11862   6.759  10.816   7.607  1.1396 -0.3980 -0.2732
   88MOL0     H11863   6.542  10.742   7.694 -0.2501 -2.8889 -2.6600
   88MOL0     H11864   6.293  10.626   7.922  0.3971 -0.6354 -3.7338
   88MOL0     H11865   6.148  10.637   8.102  0.4532 -1.5363 -0.3650
   88MOL0     H11866   5.297  10.078   9.233  1.0810 -1.9359  0.9088
   88MOL0     H11867   5.414  10.180   9.443 -1.5244  0.1985 -0.8019
   88MOL0     H11868   5.764  10.621   9.614 -3.5742 -1.8155 -1.8466
   88MOL0     H11869   5.875  10.617   9.845  1.8070 -2.2722  3.1400
   88MOL0     H11870   6.090  10.253   9.991  0.5665 -2.3204  5.6246
   88MOL0     H11871   6.185  10.391  10.036 -0.0706 -2.1347  0.6981
   88MOL0     H11872   6.040  10.431  10.225  0.6117  1.7803 -3.7820
   88MOL0     H11873   6.093  10.262  10.220  0.6780 -0.0313  1.6069
   88MOL0     H11874   5.859  10.214  10.092 -0.6563  0.0575 -0.5511
   88MOL0     H11875   5.825  10.384  10.135  0.9184  0.1284 -1.9889
   88MOL0     H11876   5.893  10.155  10.329 -1.3076 -0.4457  2.1423
   88MOL0     H11877   5.734  10.209  10.301  1.6632 -0.5273  0.5524
   88MOL0     H11878   5.879  10.511  10.562  3.0108 -0.5400 -0.8778
   88MOL0     H11879   5.960  10.217   9.824  0.8257  1.7916  4.4489
   88MOL0     H11880   5.814  10.189   9.632  0.1948  2.1911 -4.1513
   89MOL0     O11881  11.357  10.993   0.682  0.5596 -0.8726 -0.3520
   89MOL0     C11882  11.340  11.088   0.597  0.1624  0.5550 -0.4290
   89MOL0     O11883  11.367  11.219   0.609 -0.2477 -0.3528  1.0279
   89MOL0     C11884  11.376  11.260   0.735 -1.0612  0.8092  0.7613
   89MOL0     C11885  11.266  11.288   0.820  0.6220 -0.3221 -0.9961
   89MOL0     C11886  11.280  11.327   0.961  0.1492 -0.5307  0.7740
   89MOL0     C11887  11.410  11.344   1.013  0.3309 -0.9669  0.2235
   89MOL0     O11888  11.418  11.402   1.139 -0.0522 -0.3873  0.5838
   89MOL0     C11889  11.525  11.377   1.229  0.0233 -0.5482  0.1033
   89MOL0     C11890  11.506  11.458   1.354 -0.1733 -0.1095 -0.4696
   89MOL0     C11891  11.509  11.608   1.321  1.0725 -0.6630 -0.9391
   89MOL0     C11892  11.478  11.702   1.440 -0.8747 -0.5495  0.4460
   89MOL0     C11893  11.324  11.693   1.496 -0.6081 -0.0702 -0.1185
   89MOL0     C11894  11.303  11.819   1.589 -0.3190  0.9616  0.5053
   89MOL0     C11895  11.228  11.944   1.521  0.0332 -0.4002 -0.9711
   89MOL0     C11896  11.212  12.056   1.625  0.0410 -0.2444 -1.4270
   89MOL0     N11897  11.149  12.014   1.762  0.1279  0.3193  0.4684
   89MOL0     C11898  11.020  12.034   1.805  0.4634  0.8490  0.5417
   89MOL0     C11899  11.025  12.012   1.943 -0.3383  0.2091  0.3404
   89MOL0     C11900  10.908  12.006   2.040 -0.2220 -0.3629 -0.1130
   89MOL0     C11901  10.952  12.047   2.174 -0.1185  0.0851 -1.0572
   89MOL0     C11902  10.885  11.987   2.295 -0.2881 -0.4043  0.2651
   89MOL0     C11903  10.913  12.058   2.427 -0.3520  0.0777 -0.4307
   89MOL0     O11904  10.804  12.013   2.517 -0.3745 -0.4430  0.1713
   89MOL0     C11905  10.747  12.088   2.613  0.5063  0.8663  0.5712
   89MOL0     C11906  10.630  12.032   2.675  0.2397  0.1414 -0.0153
   89MOL0     C11907  10.575  12.087   2.788  0.9376  0.2975  0.0253
   89MOL0     C11908  10.444  12.022   2.840  0.8280 -0.3515 -0.7491
   89MOL0     C11909  10.633  12.206   2.839  0.5029  0.8551  0.7382
   89MOL0     C11910  10.584  12.273   2.964  0.0863  0.9356 -0.3736
   89MOL0     O11911  10.510  12.201   3.054 -0.1791 -0.3590  0.6103
   89MOL0     C11912  10.442  12.260   3.157 -0.9001  0.2799  0.0408
   89MOL0     C11913  10.356  12.374   3.137  0.3496 -0.6182  0.0346
   89MOL0     C11914  10.284  12.429   3.251  0.4498  0.2391  0.0666
   89MOL0     C11915  10.289  12.363   3.371  0.2479  0.4766 -0.4825
   89MOL0     O11916  10.207  12.406   3.477  0.5960  0.9306  0.2627
   89MOL0     C11917  10.103  12.313   3.515 -0.7307  0.4532  0.0561
   89MOL0     C11918   9.960  12.374   3.493 -0.5188  0.0242 -0.0911
   89MOL0     C11919   9.865  12.262   3.508  0.5484  0.4043  0.7505
   89MOL0     C11920   9.866  12.138   3.406  0.0423  0.3593  0.1781
   89MOL0     C11921   9.749  12.049   3.432 -0.0656  0.2492  0.2610
   89MOL0     C11922   9.599  12.105   3.438 -0.3396 -0.6884 -0.9051
   89MOL0     C11923   9.563  12.171   3.305 -0.0881  0.6488 -0.2594
   89MOL0     C11924   9.420  12.220   3.306 -0.7734  0.6468  0.5569
   89MOL0    Cl11925   9.387  12.332   3.444  0.3835 -0.0077 -0.4651
   89MOL0     C11926  10.369  12.248   3.383  1.0181 -0.8793 -0.0646
   89MOL0     C11927  10.448  12.198   3.283 -0.0777 -1.8955  0.1440
   89MOL0     O11928  10.614  12.390   2.976 -0.3456 -0.4471 -0.2637
   89MOL0     C11929  10.734  12.273   2.768  0.2833 -0.0563 -0.1267
   89MOL0     C11930  10.792  12.211   2.656  0.0827  0.2693  1.0413
   89MOL0     N11931  11.162  11.979   1.973  0.8381  0.9257 -0.8151
   89MOL0     N11932  11.228  11.976   1.869 -0.4730  0.5259 -0.1341
   89MOL0     C11933  11.515  11.304   0.931  0.2683 -0.1894  0.2826
   89MOL0     C11934  11.502  11.267   0.792 -0.1582 -0.4457  0.0925
   89MOL0     C11935  11.271  11.059   0.467  0.5290 -0.2811 -0.0236
   89MOL0     C11936  11.286  11.149   0.362 -0.0599  0.5720  0.3766
   89MOL0     C11937  11.248  11.100   0.234 -0.0566 -0.2075 -0.2922
   89MOL0     C11938  11.178  10.980   0.212 -0.4744  0.0754 -0.1651
   89MOL0     O11939  11.143  10.948   0.089 -0.1572  0.4007  0.4169
   89MOL0     C11940  11.180  10.830   0.015 -0.7566 -0.2953  0.4921
   89MOL0     C11941  11.304  10.871  -0.067 -0.2061 -0.1924 -0.1972
   89MOL0     C11942  11.363  10.765  -0.143 -0.3095  0.1613 -0.0060
   89MOL0     C11943  11.479  10.806  -0.232  0.7674  0.5350 -0.4627
   89MOL0     C11944  11.533  10.681  -0.289 -0.2182  1.2526  1.1927
   89MOL0     C11945  11.590  10.585  -0.343 -0.5450  0.6929 -0.8516
   89MOL0     C11946  11.149  10.903   0.326 -0.1237  0.5082 -0.7238
   89MOL0     C11947  11.200  10.941   0.455  0.2307  0.6857 -0.5457
   89MOL0     H11948  11.174  11.258   0.772  0.1440 -1.8929  0.7781
   89MOL0     H11949  11.187  11.364   1.005 -0.6452  0.2830 -1.4098
   89MOL0     H11950  11.545  11.271   1.249 -3.5609 -0.6364  5.2126
   89MOL0     H11951  11.612  11.424   1.182 -0.9923  4.2916  2.4331
   89MOL0     H11952  11.408  11.417   1.381 -0.5800 -1.5039 -3.6680
   89MOL0     H11953  11.577  11.436   1.434 -2.4811 -0.4940  1.5960
   89MOL0     H11954  11.612  11.629   1.289  0.6900 -0.6518 -2.2340
   89MOL0     H11955  11.450  11.633   1.232 -2.5389 -1.8072  0.9373
   89MOL0     H11956  11.558  11.684   1.513 -0.9394 -2.6143  0.0482
   89MOL0     H11957  11.485  11.795   1.382 -0.2817 -1.8502 -1.6525
   89MOL0     H11958  11.246  11.690   1.420 -1.6921 -1.4560  1.0098
   89MOL0     H11959  11.321  11.597   1.546  1.6649 -0.3057 -0.3348
   89MOL0     H11960  11.241  11.788   1.673 -0.1872  1.0124  0.6203
   89MOL0     H11961  11.399  11.862   1.617 -1.4934  2.7888  1.9272
   89MOL0     H11962  11.295  11.983   1.443  0.5066 -0.3636 -0.5479
   89MOL0     H11963  11.134  11.911   1.475 -0.7109 -2.8517  2.0124
   89MOL0     H11964  11.150  12.131   1.576 -1.2909 -0.3966 -0.0519
   89MOL0     H11965  11.314  12.090   1.644  0.4327 -3.2080  3.6113
   89MOL0     H11966  10.929  12.047   1.746  1.1506 -0.3110 -0.8146
   89MOL0     H11967  10.833  12.083   2.018 -4.7314 -3.0327  3.9647
   89MOL0     H11968  10.862  11.907   2.040  0.2518 -0.5898 -0.8846
   89MOL0     H11969  10.936  12.155   2.171 -1.1929  0.1214  2.2115
   89MOL0     H11970  11.059  12.028   2.187 -0.0148  0.3674 -1.4727
   89MOL0     H11971  10.912  11.882   2.309  2.6050  0.3349  0.7725
   89MOL0     H11972  10.778  11.979   2.272 -0.1630 -0.3995 -0.3110
   89MOL0     H11973  10.902  12.165   2.409 -2.0667  0.6447  3.1494
   89MOL0     H11974  11.009  12.033   2.473 -1.2020  1.7233  2.5219
   89MOL0     H11975  10.582  11.942   2.638 -2.5057  1.3861  0.3000
   89MOL0     H11976  10.469  11.935   2.901  0.7015  0.3541  0.3601
   89MOL0     H11977  10.387  12.094   2.900  0.0733  0.1738 -2.0637
   89MOL0     H11978  10.376  11.991   2.761 -0.6055  1.0224 -0.1211
   89MOL0     H11979  10.353  12.420   3.039 -0.4975  0.7374  0.6701
   89MOL0     H11980  10.220  12.516   3.241 -0.6396 -0.3020  1.8305
   89MOL0     H11981  10.112  12.208   3.485  0.7218  0.0109  1.9173
   89MOL0     H11982  10.102  12.306   3.624 -1.6411 -2.6355 -0.0404
   89MOL0     H11983   9.951  12.450   3.571 -0.9522  1.3710 -1.3983
   89MOL0     H11984   9.952  12.428   3.399 -0.0083  1.2165  0.5321
   89MOL0     H11985   9.766  12.303   3.489  0.4030 -0.9429 -1.9003
   89MOL0     H11986   9.862  12.231   3.613  0.4009  4.9648  2.2810
   89MOL0     H11987   9.861  12.177   3.304 -0.6377  0.4382  0.2373
   89MOL0     H11988   9.963  12.088   3.416  0.1166  0.4391 -0.1338
   89MOL0     H11989   9.773  11.997   3.526 -0.4176 -1.5604 -0.5967
   89MOL0     H11990   9.749  11.975   3.351  1.1456 -0.9484  1.2907
   89MOL0     H11991   9.526  12.027   3.464 -0.6915 -0.1348 -0.2058
   89MOL0     H11992   9.600  12.182   3.515  0.0128 -1.2652 -0.3211
   89MOL0     H11993   9.572  12.093   3.228 -0.1843  0.2208  0.1584
   89MOL0     H11994   9.645  12.242   3.291  1.8593 -1.1748  1.1188
   89MOL0     H11995   9.360  12.129   3.304 -0.9236  0.6934  2.0238
   89MOL0     H11996   9.390  12.279   3.219 -4.3472  1.2726  2.0566
   89MOL0     H11997  10.363  12.195   3.477 -1.3187 -4.0010 -1.7668
   89MOL0     H11998  10.520  12.121   3.307  1.5696  0.0439  1.8569
   89MOL0     H11999  10.764  12.376   2.789  1.7663 -0.8497  2.0176
   89MOL0     H12000  10.875  12.267   2.616 -3.5061  5.1107 -0.6151
   89MOL0     H12001  11.614  11.305   0.974  0.7286 -2.9608 -0.5092
   89MOL0     H12002  11.592  11.248   0.733  0.7045  0.4500  1.0811
   89MOL0     H12003  11.339  11.243   0.371  0.3954  0.6974 -2.5528
   89MOL0     H12004  11.262  11.162   0.146 -1.2284 -0.5108 -0.7167
   89MOL0     H12005  11.209  10.755   0.090  4.1300  2.9150  2.3244
   89MOL0     H12006  11.102  10.787  -0.049 -0.9950  1.1086 -0.1980
   89MOL0     H12007  11.366  10.929   0.002 -1.8581  1.6766 -0.2104
   89MOL0     H12008  11.280  10.944  -0.144  1.8325  0.0241 -0.6729
   89MOL0     H12009  11.289  10.699  -0.189  0.7006  0.5240 -2.2394
   89MOL0     H12010  11.404  10.692  -0.072 -1.1979 -0.5433 -0.2040
   89MOL0     H12011  11.548  10.871  -0.178 -0.9109  1.3275  0.8212
   89MOL0     H12012  11.439  10.870  -0.311 -2.6161  0.6521  1.1596
   89MOL0     H12013  11.637  10.503  -0.392  0.7038  0.0183  1.3368
   89MOL0     H12014  11.086  10.818   0.305 -1.5745  0.7150  2.2894
   89MOL0     H12015  11.188  10.882   0.546 -0.0593 -0.7594 -1.4926
   90MOL0     O12016   5.669  10.660  11.085  0.1161 -0.9439  0.3473
   90MOL0     C12017   5.647  10.573  11.000 -0.1754 -0.6189  0.5283
   90MOL0     O12018   5.665  10.437  11.012  0.2406  0.4743 -0.5506
   90MOL0     C12019   5.739  10.388  11.121  0.2243 -0.4161  0.9325
   90MOL0     C12020   5.681  10.311  11.210  0.7210 -0.0710  0.4950
   90MOL0     C12021   5.743  10.266  11.332 -0.6858 -0.5153 -0.5672
   90MOL0     C12022   5.871  10.313  11.364  0.6591  1.0213 -0.1473
   90MOL0     O12023   5.920  10.276  11.486 -0.8257 -0.0250 -0.5629
   90MOL0     C12024   6.037  10.339  11.544 -0.0414  0.0327  0.0543
   90MOL0     C12025   6.053  10.283  11.694  1.0347  0.1527  0.3932
   90MOL0     C12026   6.175  10.335  11.767 -0.0856  0.2826  0.2053
   90MOL0     C12027   6.150  10.352  11.913  0.5817 -0.0593 -0.7803
   90MOL0     C12028   6.277  10.343  12.006  0.0739 -0.8244  0.2093
   90MOL0     C12029   6.354  10.473  12.006 -0.0678  0.2329 -0.1535
   90MOL0     C12030   6.462  10.473  12.110 -0.5551  0.2290  0.6080
   90MOL0     C12031   6.516  10.621  12.132 -0.4352  0.2434 -0.3647
   90MOL0     N12032   6.628  10.600  12.232 -0.2406  0.2196 -0.0756
   90MOL0     C12033   6.746  10.666  12.230  0.6644  0.4372 -0.7141
   90MOL0     C12034   6.806  10.615  12.344  0.2259 -0.2076  0.7180
   90MOL0     C12035   6.943  10.657  12.389  0.3356 -0.0194 -0.1027
   90MOL0     C12036   6.940  10.795  12.454  0.0047 -0.0512 -0.2446
   90MOL0     C12037   7.081  10.832  12.480 -0.3710 -0.3704 -0.5101
   90MOL0     C12038   7.106  10.959  12.559  0.0809 -0.4553 -0.3678
   90MOL0     O12039   7.249  10.987  12.591  0.7481  0.3364 -0.0307
   90MOL0     C12040   7.321  10.899  12.653  0.7865  0.0796  0.2163
   90MOL0     C12041   7.423  10.848  12.576  0.5547  0.0218  0.1178
   90MOL0     C12042   7.502  10.737  12.631  0.6274 -0.8620  0.4815
   90MOL0     C12043   7.610  10.675  12.539  0.5937 -0.1984  0.0934
   90MOL0     C12044   7.476  10.693  12.765  0.0669  0.2738 -0.6412
   90MOL0     C12045   7.553  10.590  12.826  0.3525  0.2890 -0.9341
   90MOL0     O12046   7.562  10.587  12.963 -0.4900 -0.6155  1.0473
   90MOL0     C12047   7.605  10.477  13.037  1.2534  0.5835 -0.5842
   90MOL0     C12048   7.516  10.366  13.051 -1.5694  0.6531 -0.7253
   90MOL0     C12049   7.558  10.261  13.140  0.5257 -0.2981 -0.4979
   90MOL0     C12050   7.696  10.248  13.189 -0.1187  0.5941  0.0385
   90MOL0     O12051   7.719  10.129  13.267 -1.4132 -0.7717  0.3255
   90MOL0     C12052   7.863  10.096  13.282  0.4738  0.1150  0.8953
   90MOL0     C12053   7.898   9.955  13.312  0.0406 -0.5209 -0.2581
   90MOL0     C12054   7.776   9.868  13.269  0.0776 -0.2934  0.1073
   90MOL0     C12055   7.803   9.723  13.287 -0.7135 -0.3055 -0.8079
   90MOL0     C12056   7.816   9.660  13.424  0.1537  0.4127  0.0727
   90MOL0     C12057   7.706   9.709  13.530 -0.2746  0.4161  0.5298
   90MOL0     C12058   7.566   9.666  13.492  0.2625  0.5971  0.4250
   90MOL0     C12059   7.454   9.719  13.585 -0.3615  0.2519  1.0955
   90MOL0    Cl12060   7.306   9.739  13.474 -0.4301  0.3240  0.5307
   90MOL0     C12061   7.783  10.359  13.170  0.1094 -0.1850 -0.0597
   90MOL0     C12062   7.731  10.473  13.097  0.1726  1.2312  0.7159
   90MOL0     O12063   7.598  10.485  12.760  0.2647 -0.7263  0.4416
   90MOL0     C12064   7.380  10.766  12.833  0.3013  0.2423 -0.3408
   90MOL0     C12065   7.305  10.860  12.781  0.5927  1.1818  0.1910
   90MOL0     N12066   6.720  10.539  12.416  0.0667  0.9797  0.4571
   90MOL0     N12067   6.608  10.521  12.349  0.0132 -0.7828 -0.8920
   90MOL0     C12068   5.930  10.399  11.272  0.4450 -1.3891  0.8199
   90MOL0     C12069   5.873  10.416  11.137 -0.1427 -1.2251 -0.6089
   90MOL0     C12070   5.572  10.595  10.882 -0.1325  0.2021  0.0723
   90MOL0     C12071   5.499  10.711  10.873 -0.6260 -0.5175  0.3706
   90MOL0     C12072   5.430  10.738  10.758 -0.6469 -0.3006 -0.2661
   90MOL0     C12073   5.439  10.653  10.647  0.7771 -0.4558 -0.4230
   90MOL0     O12074   5.352  10.679  10.543 -0.2731  0.1690 -0.2182
   90MOL0     C12075   5.394  10.790  10.466 -0.6604  0.0241 -1.0837
   90MOL0     C12076   5.274  10.865  10.425 -0.2197 -0.0159 -0.4790
   90MOL0     C12077   5.298  10.938  10.300 -0.3994 -0.2663 -1.6083
   90MOL0     C12078   5.202  11.050  10.288  0.3553  0.2343 -0.2129
   90MOL0     C12079   5.257  11.148  10.198 -0.4794 -1.1234  0.0741
   90MOL0     C12080   5.280  11.232  10.108  0.1590  0.0240 -0.3481
   90MOL0     C12081   5.506  10.527  10.663 -0.1245  0.5638 -0.8068
   90MOL0     C12082   5.580  10.507  10.775 -0.1316  0.4750  0.0815
   90MOL0     H12083   5.574  10.295  11.201  0.6684 -0.0266  0.9788
   90MOL0     H12084   5.701  10.202  11.410 -0.2846 -0.6601 -0.4643
   90MOL0     H12085   6.121  10.302  11.484 -0.2066  1.4589 -1.1466
   90MOL0     H12086   6.035  10.448  11.536 -2.2742  0.0726  0.3981
   90MOL0     H12087   5.960  10.307  11.746 -2.1361  0.6281 -4.8393
   90MOL0     H12088   6.047  10.176  11.675 -2.0879 -0.0726  1.9508
   90MOL0     H12089   6.267  10.280  11.746  0.8128  1.3999  1.0712
   90MOL0     H12090   6.192  10.436  11.729 -0.2000  0.1552 -0.1886
   90MOL0     H12091   6.109  10.449  11.942  3.2212  0.9952 -0.3334
   90MOL0     H12092   6.086  10.268  11.944  2.3309 -0.7126  1.3174
   90MOL0     H12093   6.233  10.316  12.103 -2.6892  0.9367 -0.4394
   90MOL0     H12094   6.337  10.261  11.968  0.3180 -1.0381  1.0508
   90MOL0     H12095   6.388  10.485  11.903  1.0972  0.3400  0.2310
   90MOL0     H12096   6.288  10.556  12.035  1.6917  1.5003  0.3832
   90MOL0     H12097   6.426  10.429  12.203 -1.8552 -0.9889 -0.4185
   90MOL0     H12098   6.547  10.413  12.075  0.1451  0.0741  2.4684
   90MOL0     H12099   6.436  10.691  12.158  0.4284  1.8887 -1.9413
   90MOL0     H12100   6.558  10.657  12.038 -1.1243  1.0289 -0.3882
   90MOL0     H12101   6.788  10.736  12.159  0.4214 -0.7063 -2.0283
   90MOL0     H12102   6.973  10.578  12.459 -1.7619  1.5057  2.7203
   90MOL0     H12103   7.010  10.655  12.302  0.3274 -2.3543 -0.1299
   90MOL0     H12104   6.891  10.780  12.551  0.1531  1.7894  0.1470
   90MOL0     H12105   6.901  10.875  12.392  3.9292  2.0669 -0.3422
   90MOL0     H12106   7.128  10.846  12.383  1.5040  0.7570  0.4974
   90MOL0     H12107   7.135  10.743  12.514 -1.8801 -1.9048 -1.9431
   90MOL0     H12108   7.042  10.958  12.648 -0.5929 -0.9050 -0.8468
   90MOL0     H12109   7.077  11.051  12.508 -1.4013 -0.0700  1.0799
   90MOL0     H12110   7.437  10.896  12.480  2.3210 -0.4697  0.0869
   90MOL0     H12111   7.635  10.746  12.460 -2.9309  1.2182  0.0330
   90MOL0     H12112   7.701  10.638  12.586  2.5488  1.3521 -2.2516
   90MOL0     H12113   7.564  10.585  12.498 -0.0245 -1.0782  2.4904
   90MOL0     H12114   7.411  10.371  13.022 -2.2284  0.2362  1.3664
   90MOL0     H12115   7.489  10.179  13.156 -0.3599  0.6724  0.8526
   90MOL0     H12116   7.905  10.124  13.185 -1.3297  1.2440  0.3830
   90MOL0     H12117   7.903  10.163  13.359 -1.4693  0.8924  1.2847
   90MOL0     H12118   7.986   9.924  13.255  0.2796 -0.1714 -0.0814
   90MOL0     H12119   7.916   9.971  13.419 -2.4508  2.4833 -0.1596
   90MOL0     H12120   7.738   9.876  13.167  0.0980  0.5700  0.1584
   90MOL0     H12121   7.697   9.886  13.343  0.4122 -1.1738  0.6910
   90MOL0     H12122   7.736   9.662  13.226  0.4940 -0.7867 -1.7083
   90MOL0     H12123   7.900   9.700  13.241 -0.8134 -0.6244 -0.8614
   90MOL0     H12124   7.915   9.674  13.469  0.7364 -1.9761 -0.3175
   90MOL0     H12125   7.808   9.552  13.405  2.6695  0.3902 -1.2362
   90MOL0     H12126   7.721   9.654  13.624 -1.5786 -3.2200 -1.2141
   90MOL0     H12127   7.710   9.817  13.547  2.0660  0.8861 -2.2064
   90MOL0     H12128   7.570   9.557  13.490 -1.9959  0.4816  0.3196
   90MOL0     H12129   7.546   9.706  13.392  0.9148 -0.2046 -0.0398
   90MOL0     H12130   7.475   9.812  13.639 -1.6041  0.3641  1.4298
   90MOL0     H12131   7.431   9.645  13.663 -1.6218  0.3454  0.8346
   90MOL0     H12132   7.879  10.354  13.220 -0.0535  1.2068  0.4507
   90MOL0     H12133   7.801  10.548  13.063  2.0370 -0.6469  0.2420
   90MOL0     H12134   7.354  10.746  12.937 -0.1408 -0.0540 -0.5058
   90MOL0     H12135   7.225  10.907  12.837 -0.9581 -0.9512 -0.1207
   90MOL0     H12136   6.022  10.451  11.296  0.6397  0.6693 -3.3604
   90MOL0     H12137   5.923  10.485  11.071  3.1558 -2.1074  0.7546
   90MOL0     H12138   5.511  10.793  10.943  2.7126 -0.7592  0.2530
   90MOL0     H12139   5.372  10.830  10.750 -0.5702 -0.0976  1.1443
   90MOL0     H12140   5.463  10.856  10.521  1.0075 -0.7888 -2.1136
   90MOL0     H12141   5.445  10.757  10.375 -1.5446 -1.2151 -1.1502
   90MOL0     H12142   5.242  10.921  10.513  1.1885 -2.8076  2.0081
   90MOL0     H12143   5.191  10.796  10.405  1.7605 -1.6895 -3.8834
   90MOL0     H12144   5.300  10.863  10.221  0.7907  0.2516 -2.0996
   90MOL0     H12145   5.399  10.980  10.304 -0.6442  0.3345 -1.5293
   90MOL0     H12146   5.193  11.089  10.390 -2.4098 -1.3615  0.2491
   90MOL0     H12147   5.101  11.023  10.258 -0.1013 -0.0397  1.4661
   90MOL0     H12148   5.297  11.306  10.032 -1.2420 -1.8253 -2.6248
   90MOL0     H12149   5.488  10.464  10.577 -4.7797  0.2709  0.1079
   90MOL0     H12150   5.650  10.424  10.769 -0.9565 -0.3395  1.3219
   91MOL0     O12151   5.341   9.984  10.224 -0.1036 -0.2663 -0.0093
   91MOL0     C12152   5.298   9.923  10.123 -0.1668  0.2463 -0.5834
   91MOL0     O12153   5.367   9.854  10.036 -0.7725 -0.3890 -0.3494
   91MOL0     C12154   5.506   9.882  10.039 -0.2039 -0.0031  0.6583
   91MOL0     C12155   5.598   9.819  10.125  0.2517  0.1667 -0.5612
   91MOL0     C12156   5.736   9.847  10.117 -0.3200 -0.9587 -0.3231
   91MOL0     C12157   5.790   9.931  10.018  0.2262 -1.0329 -0.2007
   91MOL0     O12158   5.925   9.962   9.994  0.3862 -0.1299  0.1090
   91MOL0     C12159   6.024   9.879  10.056 -0.1769  0.2722 -0.6753
   91MOL0     C12160   6.162   9.946  10.030  0.2062 -0.4026  0.6874
   91MOL0     C12161   6.278   9.842  10.049  0.5485 -0.3323  0.3343
   91MOL0     C12162   6.424   9.877  10.015 -0.5402 -0.3994  1.0381
   91MOL0     C12163   6.473   9.971  10.130  0.0108 -0.1992 -0.2969
   91MOL0     C12164   6.547  10.086  10.054  0.4722  0.4337  0.1949
   91MOL0     C12165   6.448  10.193  10.011 -0.7358 -0.4104  0.3892
   91MOL0     C12166   6.523  10.302   9.936  0.6372  1.3334 -0.3596
   91MOL0     N12167   6.424  10.404   9.901  0.0785  0.0885 -0.4044
   91MOL0     C12168   6.403  10.531   9.952 -0.1356  0.1497 -0.1706
   91MOL0     C12169   6.300  10.591   9.883 -0.2083 -0.5481  0.6617
   91MOL0     C12170   6.256  10.725   9.904  0.0649 -1.3962 -0.0925
   91MOL0     C12171   6.204  10.746  10.048  0.0522 -1.0262 -0.9807
   91MOL0     C12172   6.068  10.822  10.045 -0.2315  0.6319  0.1518
   91MOL0     C12173   6.012  10.820  10.177  0.7517  0.0166 -0.2948
   91MOL0     O12174   5.879  10.884  10.169 -0.0800 -0.7213 -0.2600
   91MOL0     C12175   5.762  10.828  10.133  1.3556  0.7302  1.2557
   91MOL0     C12176   5.645  10.902  10.096  1.1065 -0.0660 -0.5237
   91MOL0     C12177   5.523  10.843  10.038  0.1152 -0.2752 -0.0717
   91MOL0     C12178   5.419  10.932   9.959 -0.3959 -0.7513  0.0730
   91MOL0     C12179   5.516  10.706  10.041  0.1163 -0.2723 -0.4636
   91MOL0     C12180   5.395  10.635  10.008 -0.5301  0.4870 -0.6369
   91MOL0     O12181   5.407  10.505   9.959  0.0490  0.3164 -0.1406
   91MOL0     C12182   5.301  10.453   9.877  1.3091 -0.2911  0.5237
   91MOL0     C12183   5.307  10.307   9.858 -0.3753  0.4424  0.3027
   91MOL0     C12184   5.223  10.248   9.758  0.1567  0.5822  0.1246
   91MOL0     C12185   5.110  10.314   9.695 -0.1590 -0.4355  0.0974
   91MOL0     O12186   5.021  10.270   9.609 -0.0829  0.9905  0.0353
   91MOL0     C12187   4.986  10.129   9.621 -0.0798  1.1578 -0.2776
   91MOL0     C12188   4.863  10.114   9.531  0.3218  0.3945  0.0517
   91MOL0     C12189   4.822   9.967   9.499 -0.4664 -0.4075  0.1783
   91MOL0     C12190   4.686   9.989   9.440  0.4422 -1.4188 -0.5480
   91MOL0     C12191   4.623   9.864   9.368  0.3933  0.0620 -0.5381
   91MOL0     C12192   4.674   9.738   9.438 -0.4137  0.0334  0.2750
   91MOL0     C12193   4.608   9.622   9.376  0.0897  0.9491  0.2380
   91MOL0     C12194   4.666   9.478   9.404 -0.7984 -0.2436 -0.1231
   91MOL0    Cl12195   4.575   9.399   9.538 -0.2128  0.0071 -0.3229
   91MOL0     C12196   5.103  10.452   9.714  0.2682 -0.3259 -0.9523
   91MOL0     C12197   5.198  10.516   9.800  0.0258  0.2085  0.4094
   91MOL0     O12198   5.284  10.684  10.032 -0.2150  0.0895 -0.3346
   91MOL0     C12199   5.629  10.631  10.085 -1.0761 -0.3259 -0.8392
   91MOL0     C12200   5.743  10.688  10.121 -0.9508  0.0274  0.4742
   91MOL0     N12201   6.262  10.492   9.787  0.6847  0.6731  0.3687
   91MOL0     N12202   6.339  10.388   9.803 -0.1306  0.3835  0.1631
   91MOL0     C12203   5.691   9.988   9.936 -0.9205  0.0839  0.1976
   91MOL0     C12204   5.561   9.956   9.933  0.5638  0.1797  0.7812
   91MOL0     C12205   5.152   9.933  10.091  0.0406 -0.0376  0.2848
   91MOL0     C12206   5.096   9.939   9.965  0.2539  0.6764 -0.4295
   91MOL0     C12207   4.960   9.946   9.949  0.8925  0.0941 -0.1506
   91MOL0     C12208   4.873   9.955  10.056 -0.0025 -0.2744 -0.0178
   91MOL0     O12209   4.742   9.960  10.032 -0.9164 -0.3205  0.1739
   91MOL0     C12210   4.638   9.886  10.092  0.4380 -0.7416 -0.3448
   91MOL0     C12211   4.630   9.739  10.045  0.4074 -0.1326 -0.7724
   91MOL0     C12212   4.728   9.647  10.112  0.3714  0.5858 -0.0881
   91MOL0     C12213   4.681   9.604  10.252 -0.1389  0.6705 -0.3461
   91MOL0     C12214   4.794   9.554  10.325 -0.1913  0.3817 -0.1879
   91MOL0     C12215   4.882   9.526  10.400  0.4908  0.0676 -0.0778
   91MOL0     C12216   4.925   9.970  10.185  0.4446  0.5928  0.2722
   91MOL0     C12217   5.063   9.958  10.198  1.1960  0.1067 -0.4820
   91MOL0     H12218   5.559   9.757  10.205 -1.4984 -0.7143 -2.0248
   91MOL0     H12219   5.809   9.804  10.185 -0.4186  0.3693  0.6780
   91MOL0     H12220   6.016   9.877  10.165  3.1974  0.0165 -0.3282
   91MOL0     H12221   6.017   9.782  10.004  1.1909 -0.1137 -0.1714
   91MOL0     H12222   6.155   9.982   9.927 -2.9260 -0.9707  0.6072
   91MOL0     H12223   6.169  10.037  10.090  0.2693  1.0810 -1.4733
   91MOL0     H12224   6.272   9.813  10.154  1.9339  0.7303  0.7323
   91MOL0     H12225   6.248   9.758   9.986 -1.2493  0.3410  0.2155
   91MOL0     H12226   6.491   9.793   9.992 -0.0081  0.7616 -2.1218
   91MOL0     H12227   6.414   9.927   9.918 -2.0543 -3.5363 -0.5994
   91MOL0     H12228   6.395  10.018  10.190  1.6197  1.0068  0.9468
   91MOL0     H12229   6.542   9.918  10.196  0.9610  1.2388 -0.0949
   91MOL0     H12230   6.615  10.130  10.128 -0.0428 -0.2050  1.0629
   91MOL0     H12231   6.624  10.062   9.981  1.6267 -0.4483  1.6401
   91MOL0     H12232   6.381  10.132   9.949 -0.1847 -1.1712  0.5341
   91MOL0     H12233   6.403  10.234  10.102  0.8645  0.9055  0.6367
   91MOL0     H12234   6.574  10.269   9.846 -0.0141 -0.6487 -0.0482
   91MOL0     H12235   6.595  10.343  10.007  1.6259  1.3738 -1.3524
   91MOL0     H12236   6.467  10.573  10.028  0.4208 -3.6226  1.6417
   91MOL0     H12237   6.338  10.796   9.890 -2.8775  2.4730  0.5324
   91MOL0     H12238   6.178  10.744   9.829  0.5040 -0.6195 -0.3587
   91MOL0     H12239   6.265  10.808  10.115 -1.0614 -1.6803  0.7192
   91MOL0     H12240   6.201  10.651  10.101 -1.6973 -1.0594 -1.0666
   91MOL0     H12241   5.994  10.780   9.977 -0.0747  0.2727  0.1990
   91MOL0     H12242   6.083  10.925  10.012 -2.4228  0.3988 -1.7741
   91MOL0     H12243   6.069  10.866  10.258 -0.9452 -0.7788  1.4355
   91MOL0     H12244   5.997  10.719  10.216  0.7075 -0.5287 -1.6516
   91MOL0     H12245   5.656  11.009  10.110  1.9493 -0.5937  4.8899
   91MOL0     H12246   5.464  11.029   9.937 -0.5582 -1.5080 -4.6133
   91MOL0     H12247   5.386  10.892   9.863  3.1290 -0.9766 -1.1654
   91MOL0     H12248   5.334  10.943  10.028 -0.0402  0.6993  0.3149
   91MOL0     H12249   5.386  10.250   9.906  0.1452  0.0801 -0.9490
   91MOL0     H12250   5.239  10.146   9.725  1.7850  0.5090  1.0189
   91MOL0     H12251   5.067  10.070   9.576  0.4878  1.5991  0.1406
   91MOL0     H12252   4.965  10.101   9.724 -1.6224  4.5447  0.4468
   91MOL0     H12253   4.781  10.160   9.586  0.2242 -1.5293  1.6426
   91MOL0     H12254   4.886  10.165   9.437  2.0257 -1.0405 -0.3555
   91MOL0     H12255   4.807   9.912   9.592 -0.4348  0.5315  0.7494
   91MOL0     H12256   4.886   9.917   9.425 -0.8786 -1.5305  0.5623
   91MOL0     H12257   4.625  10.006   9.529  0.2146  1.0846 -1.1141
   91MOL0     H12258   4.680  10.076   9.374  1.7984 -0.1661  0.9306
   91MOL0     H12259   4.621   9.867   9.259 -2.6986  0.4433 -0.5693
   91MOL0     H12260   4.518   9.872   9.396  0.5322  2.6561 -0.5265
   91MOL0     H12261   4.778   9.707   9.419 -0.9932 -3.6057  2.1033
   91MOL0     H12262   4.657   9.747   9.545 -3.2634  0.3535 -0.1494
   91MOL0     H12263   4.608   9.647   9.269 -1.5107  1.4192  0.3132
   91MOL0     H12264   4.507   9.629   9.417 -0.1983  1.6519 -0.5608
   91MOL0     H12265   4.775   9.485   9.407 -0.6977 -1.4565  2.5260
   91MOL0     H12266   4.640   9.401   9.331 -1.9332 -3.4396  3.3359
   91MOL0     H12267   5.020  10.504   9.668  0.4217  0.1846 -0.6577
   91MOL0     H12268   5.189  10.624   9.805  2.1821  0.4337  0.0131
   91MOL0     H12269   5.621  10.524  10.066 -0.2549 -0.5574  0.0700
   91MOL0     H12270   5.821  10.615  10.141 -0.8958 -0.3956 -1.1275
   91MOL0     H12271   5.736  10.051   9.861  1.5531 -1.0041  0.6677
   91MOL0     H12272   5.485   9.996   9.867 -1.9109 -2.4143  1.8352
   91MOL0     H12273   5.156   9.921   9.876  1.5563 -0.1581  0.5894
   91MOL0     H12274   4.912   9.920   9.856  1.3248 -0.0362 -0.3400
   91MOL0     H12275   4.656   9.892  10.200 -0.2627 -2.8593 -0.0618
   91MOL0     H12276   4.544   9.940  10.078  0.4979 -0.9689 -1.7330
   91MOL0     H12277   4.661   9.752   9.941  0.9769 -1.2274 -0.7472
   91MOL0     H12278   4.527   9.702  10.043 -1.8376  5.1937 -0.3440
   91MOL0     H12279   4.823   9.698  10.127  1.2503 -0.9136 -0.3166
   91MOL0     H12280   4.757   9.554  10.063  1.8994  0.0650  1.6726
   91MOL0     H12281   4.608   9.523  10.254 -1.0315  1.4259  2.4949
   91MOL0     H12282   4.633   9.679  10.316 -0.9830 -1.1007  1.1812
   91MOL0     H12283   4.939   9.485  10.481  0.6756 -2.2723 -1.2923
   91MOL0     H12284   4.871   9.997  10.276  1.3864 -2.2889  1.7988
   91MOL0     H12285   5.102   9.992  10.293  1.2935  2.3867 -1.2675
   92MOL0     O12286   4.609   0.767   6.758  0.1044  0.2619 -0.5103
   92MOL0     C12287   4.486   0.739   6.745 -0.3921  0.1357 -0.1845
   92MOL0     O12288   4.418   0.742   6.631  0.2321 -0.4590  0.1741
   92MOL0     C12289   4.500   0.772   6.527  1.0046  0.0956 -0.6367
   92MOL0     C12290   4.538   0.659   6.454 -0.2062  0.1424 -0.1286
   92MOL0     C12291   4.601   0.687   6.334  0.1214  0.1910 -0.7975
   92MOL0     C12292   4.609   0.816   6.283 -1.6220 -0.9726  0.6477
   92MOL0     O12293   4.643   0.823   6.155 -0.1805  0.6060 -0.4178
   92MOL0     C12294   4.725   0.933   6.109  1.0084  0.6022 -0.8665
   92MOL0     C12295   4.633   1.053   6.047 -0.3044  0.0810  0.0988
   92MOL0     C12296   4.734   1.155   5.997  0.1606 -0.4745 -0.1488
   92MOL0     C12297   4.661   1.277   5.939 -0.4463 -0.2007  0.3425
   92MOL0     C12298   4.608   1.381   6.046 -1.3152  0.1013 -0.8608
   92MOL0     C12299   4.574   1.520   5.984 -0.5372 -1.0111  0.1528
   92MOL0     C12300   4.698   1.606   5.979  0.1207  0.2680 -0.2189
   92MOL0     C12301   4.744   1.648   6.123  0.1626  0.1166 -0.0501
   92MOL0     N12302   4.851   1.747   6.132 -0.7260 -0.2951 -0.3824
   92MOL0     C12303   4.983   1.715   6.125  1.3004  0.3983 -0.0507
   92MOL0     C12304   5.047   1.837   6.099 -1.4092 -0.0817 -0.0475
   92MOL0     C12305   5.200   1.869   6.075  0.7346  0.2933  0.3474
   92MOL0     C12306   5.243   1.853   5.932 -0.5586 -0.2567  0.3982
   92MOL0     C12307   5.240   1.707   5.878  0.3569  0.4204 -0.1112
   92MOL0     C12308   5.332   1.701   5.759 -0.0199  0.4235  0.7401
   92MOL0     O12309   5.465   1.670   5.790  0.1901 -0.2663 -0.3497
   92MOL0     C12310   5.489   1.542   5.836 -1.0505 -0.4773  0.8317
   92MOL0     C12311   5.624   1.517   5.862  0.2176 -0.0648  0.1490
   92MOL0     C12312   5.669   1.395   5.912  0.1488 -0.3527 -0.1525
   92MOL0     C12313   5.814   1.404   5.966  0.1013 -0.5381 -0.4677
   92MOL0     C12314   5.572   1.293   5.937 -0.5158 -0.0422  0.0958
   92MOL0     C12315   5.610   1.160   5.981 -0.4641  0.7262 -0.3393
   92MOL0     O12316   5.522   1.110   6.067  0.5955 -0.0074  0.0439
   92MOL0     C12317   5.540   0.978   6.089  0.7388 -1.0272 -0.3322
   92MOL0     C12318   5.451   0.895   6.034 -0.1321  0.5177 -0.4379
   92MOL0     C12319   5.469   0.759   6.046 -0.1675  0.4493 -0.8227
   92MOL0     C12320   5.579   0.706   6.103 -1.1679  0.0524 -0.2216
   92MOL0     O12321   5.573   0.568   6.114 -1.0658 -0.3648  0.6811
   92MOL0     C12322   5.680   0.497   6.152 -0.8028 -0.4093 -0.0183
   92MOL0     C12323   5.639   0.346   6.145  0.3276  0.1796  0.4484
   92MOL0     C12324   5.536   0.316   6.256 -0.2499 -0.1413  0.1063
   92MOL0     C12325   5.549   0.169   6.294  0.2145 -0.6900 -0.3872
   92MOL0     C12326   5.467   0.120   6.410  0.2684  0.1131  0.4856
   92MOL0     C12327   5.536   0.146   6.545 -0.2324 -0.2069 -0.9288
   92MOL0     C12328   5.439   0.133   6.668  0.2560  0.2755 -0.2145
   92MOL0     C12329   5.446   0.259   6.751  0.1193  1.2115  0.6739
   92MOL0    Cl12330   5.613   0.296   6.798  0.0498  0.3436 -0.1544
   92MOL0     C12331   5.673   0.792   6.164  1.2991  0.7783  0.1610
   92MOL0     C12332   5.651   0.935   6.160  0.3031  0.3072  0.3098
   92MOL0     O12333   5.712   1.106   5.937 -0.0703 -1.2242  0.4389
   92MOL0     C12334   5.432   1.321   5.915 -1.2692  0.8072 -0.1780
   92MOL0     C12335   5.393   1.448   5.875  0.6328  0.1499  0.9678
   92MOL0     N12336   4.956   1.936   6.099 -0.3760  0.1293  0.0940
   92MOL0     N12337   4.838   1.879   6.100  0.1857 -0.4716 -0.1737
   92MOL0     C12338   4.574   0.922   6.359 -0.4116 -0.5173 -0.5833
   92MOL0     C12339   4.522   0.900   6.479 -0.5856 -0.6969 -0.1097
   92MOL0     C12340   4.408   0.737   6.871 -0.1885  0.0967 -0.0511
   92MOL0     C12341   4.273   0.774   6.886  0.0602 -0.4841 -0.2142
   92MOL0     C12342   4.208   0.778   7.008  1.1182  0.3048  0.1984
   92MOL0     C12343   4.280   0.757   7.126  0.2528 -0.3415  0.1577
   92MOL0     O12344   4.216   0.785   7.250 -0.1677  0.4628 -0.2691
   92MOL0     C12345   4.295   0.798   7.369 -0.2272  0.7776  0.2922
   92MOL0     C12346   4.219   0.789   7.499  0.1577 -0.0731  0.1739
   92MOL0     C12347   4.290   0.812   7.636  0.8888  0.3927 -0.0068
   92MOL0     C12348   4.394   0.704   7.667  0.3285 -0.8191 -0.0627
   92MOL0     C12349   4.512   0.712   7.585 -0.6976  0.5407  0.9192
   92MOL0     C12350   4.613   0.692   7.515  0.7779 -0.0473 -0.5909
   92MOL0     C12351   4.418   0.716   7.116  0.9924  0.6244 -0.1112
   92MOL0     C12352   4.477   0.704   6.991 -0.6677  0.1192 -0.4297
   92MOL0     H12353   4.532   0.554   6.484 -2.2063 -0.4798 -2.4495
   92MOL0     H12354   4.638   0.603   6.277  1.4749  0.2216 -0.0120
   92MOL0     H12355   4.793   0.975   6.183  1.5831  1.0541 -1.6307
   92MOL0     H12356   4.792   0.897   6.030  0.8409 -3.5015  0.6194
   92MOL0     H12357   4.553   1.029   5.976 -0.7797 -0.0772  0.6728
   92MOL0     H12358   4.585   1.105   6.131  0.7974  0.5579  0.4583
   92MOL0     H12359   4.799   1.185   6.079 -0.2386  0.4288 -0.1493
   92MOL0     H12360   4.794   1.115   5.914 -0.3858  1.2353 -1.4249
   92MOL0     H12361   4.719   1.321   5.858 -2.5236 -0.3238 -1.3128
   92MOL0     H12362   4.566   1.247   5.893 -0.6448  1.9441 -0.7547
   92MOL0     H12363   4.518   1.333   6.086 -0.3334 -0.8497  0.2897
   92MOL0     H12364   4.676   1.391   6.131 -4.9233 -0.6126  2.3900
   92MOL0     H12365   4.537   1.508   5.882  0.4777 -1.4461 -0.1788
   92MOL0     H12366   4.503   1.583   6.038 -1.8072  0.3639 -2.8863
   92MOL0     H12367   4.781   1.555   5.932  0.0456 -2.0956  1.9972
   92MOL0     H12368   4.681   1.697   5.921 -1.2843  0.3961  0.3371
   92MOL0     H12369   4.789   1.563   6.175 -1.0914  0.7662  2.1972
   92MOL0     H12370   4.656   1.686   6.175  0.3353 -0.5016  0.7131
   92MOL0     H12371   5.029   1.617   6.118  0.2691 -0.2528  1.6975
   92MOL0     H12372   5.209   1.975   6.101 -0.5446  0.3892  0.4633
   92MOL0     H12373   5.272   1.804   6.125  1.2232 -1.3210 -2.2338
   92MOL0     H12374   5.342   1.899   5.923  0.9077 -3.4798 -2.2274
   92MOL0     H12375   5.169   1.908   5.873 -0.1961  0.3437  0.4974
   92MOL0     H12376   5.135   1.694   5.850 -1.3917  3.9352  3.6351
   92MOL0     H12377   5.255   1.639   5.962  2.6363  1.5727  0.4874
   92MOL0     H12378   5.333   1.799   5.709 -0.9930  0.4061  0.6720
   92MOL0     H12379   5.287   1.641   5.680 -0.5093  0.5904  0.8844
   92MOL0     H12380   5.698   1.593   5.840 -2.0557  1.1888 -4.2566
   92MOL0     H12381   5.874   1.342   5.899  0.5339 -0.5313 -0.0909
   92MOL0     H12382   5.849   1.507   5.953 -0.8167 -0.2661 -0.8684
   92MOL0     H12383   5.827   1.375   6.071  0.9989  0.9108 -0.1443
   92MOL0     H12384   5.373   0.928   5.967  0.8586  2.1500 -0.8474
   92MOL0     H12385   5.387   0.696   6.010  0.5457 -1.3295  0.5172
   92MOL0     H12386   5.770   0.509   6.092 -1.2956 -1.2284 -0.9576
   92MOL0     H12387   5.714   0.529   6.251  2.0957  1.1389 -1.3982
   92MOL0     H12388   5.591   0.325   6.050 -1.1214 -0.9843  1.3930
   92MOL0     H12389   5.726   0.281   6.157  0.4292  0.2592  0.1445
   92MOL0     H12390   5.432   0.346   6.238 -1.9460 -3.5399  3.0748
   92MOL0     H12391   5.565   0.371   6.346 -0.6931  1.8540 -0.9078
   92MOL0     H12392   5.529   0.121   6.197 -3.1186 -0.9582  0.3375
   92MOL0     H12393   5.654   0.140   6.307  0.9067  2.2175  1.2810
   92MOL0     H12394   5.465   0.010   6.418  2.9929  0.1075  3.0172
   92MOL0     H12395   5.372   0.173   6.408  0.8353  1.1636 -1.8148
   92MOL0     H12396   5.624   0.082   6.544 -1.1789 -1.5673 -2.1389
   92MOL0     H12397   5.586   0.242   6.528 -0.5799 -0.2496 -2.4098
   92MOL0     H12398   5.483   0.046   6.719 -2.7060 -2.1286 -1.4417
   92MOL0     H12399   5.338   0.114   6.630 -0.4059  2.5354  0.3139
   92MOL0     H12400   5.388   0.243   6.843  0.5685  1.2618  0.9675
   92MOL0     H12401   5.410   0.339   6.685 -0.0331  0.8647  0.3359
   92MOL0     H12402   5.745   0.753   6.236  1.8525  1.7114  0.1298
   92MOL0     H12403   5.718   1.001   6.214  0.8931 -1.7581  2.2460
   92MOL0     H12404   5.353   1.248   5.930 -1.0011  0.9103  2.1055
   92MOL0     H12405   5.285   1.458   5.868  0.9264  2.4998 -2.9882
   92MOL0     H12406   4.597   1.024   6.330 -1.0340 -0.0741  0.4177
   92MOL0     H12407   4.490   0.985   6.538  0.1565 -0.4779 -0.0195
   92MOL0     H12408   4.205   0.807   6.808 -2.9059  5.5088  4.1123
   92MOL0     H12409   4.104   0.799   6.990  0.3693 -2.4962  0.7837
   92MOL0     H12410   4.355   0.707   7.372 -1.1225  0.2146  1.6260
   92MOL0     H12411   4.349   0.893   7.375 -1.6746  1.5533  1.7425
   92MOL0     H12412   4.160   0.697   7.499 -2.2958  1.3582 -2.2816
   92MOL0     H12413   4.138   0.862   7.492 -0.6682 -0.7920  1.6346
   92MOL0     H12414   4.208   0.830   7.706 -2.3885 -1.1059 -3.1456
   92MOL0     H12415   4.347   0.905   7.629  1.5788 -0.1679 -4.1961
   92MOL0     H12416   4.364   0.600   7.648  0.7879 -1.4079  2.1484
   92MOL0     H12417   4.423   0.724   7.770  1.7715 -0.7237 -0.4765
   92MOL0     H12418   4.704   0.701   7.458  1.1503 -1.1132 -0.2073
   92MOL0     H12419   4.476   0.677   7.200 -1.0404 -5.6154 -1.0499
   92MOL0     H12420   4.575   0.656   6.991 -1.1720 -0.9320 -0.5002
   93MOL0     O12421   2.073   8.911   0.699 -0.0529  0.1587 -0.0241
   93MOL0     C12422   2.061   8.797   0.746 -0.6228  0.0709 -0.1739
   93MOL0     O12423   2.074   8.681   0.674  0.5423  0.3045  0.1147
   93MOL0     C12424   2.076   8.696   0.535 -0.1814 -0.3058 -0.7507
   93MOL0     C12425   1.984   8.620   0.467  0.2943 -0.6324  0.2147
   93MOL0     C12426   1.966   8.625   0.329 -0.4086  0.7463  0.0216
   93MOL0     C12427   2.056   8.694   0.252  0.0237 -0.6732  0.6494
   93MOL0     O12428   2.037   8.706   0.119  0.3716  0.0284 -0.2888
   93MOL0     C12429   2.078   8.819   0.047 -0.2730 -0.4008  0.3113
   93MOL0     C12430   1.993   8.821  -0.079  0.6387  0.3219  0.7214
   93MOL0     C12431   1.849   8.803  -0.056 -0.1264  0.8728 -0.2811
   93MOL0     C12432   1.767   8.810  -0.191  0.6376  0.0689  0.3416
   93MOL0     C12433   1.781   8.952  -0.254  0.1511  0.5309  1.1564
   93MOL0     C12434   1.664   8.994  -0.346 -0.1093 -0.0701  0.9608
   93MOL0     C12435   1.653   8.898  -0.476  0.0781  0.4726 -0.7155
   93MOL0     C12436   1.571   8.963  -0.598 -0.6895 -0.3159 -0.6092
   93MOL0     N12437   1.442   9.004  -0.553  0.7106 -0.8340  0.2399
   93MOL0     C12438   1.346   8.912  -0.507  0.8609 -0.2384 -0.1508
   93MOL0     C12439   1.236   8.990  -0.466  0.5499  0.7910  0.2880
   93MOL0     C12440   1.101   8.930  -0.440  0.3245 -1.1854  0.1351
   93MOL0     C12441   1.018   8.927  -0.581  0.2492 -0.0735 -0.0057
   93MOL0     C12442   0.868   8.908  -0.561 -0.5784  0.2086  0.0110
   93MOL0     C12443   0.778   8.946  -0.681  0.5747 -0.7004  0.6535
   93MOL0     O12444   0.790   8.852  -0.790 -0.4129 -0.2647 -0.0044
   93MOL0     C12445   0.690   8.862  -0.885  0.1687  0.9470  0.1708
   93MOL0     C12446   0.620   8.738  -0.882 -0.2866  0.4078 -0.0295
   93MOL0     C12447   0.511   8.720  -0.974 -0.4354  0.1100  1.3799
   93MOL0     C12448   0.427   8.598  -0.957  0.4894 -1.0171  0.1512
   93MOL0     C12449   0.478   8.821  -1.070 -0.6507 -0.2821 -0.1892
   93MOL0     C12450   0.369   8.804  -1.170 -0.5009 -0.4055 -0.8813
   93MOL0     O12451   0.320   8.920  -1.229 -0.0607  0.2710  0.3463
   93MOL0     C12452   0.248   8.902  -1.350  0.0509 -0.0900  0.5085
   93MOL0     C12453   0.112   8.946  -1.358  0.2240  0.2019  0.1424
   93MOL0     C12454   0.046   8.930  -1.479  1.1838 -0.4173  0.3307
   93MOL0     C12455   0.109   8.889  -1.601  0.0439  0.5107 -0.1302
   93MOL0     O12456   0.058   8.888  -1.726  0.3461 -0.1120 -0.1352
   93MOL0     C12457  -0.080   8.937  -1.738  0.3053 -0.1072  0.5003
   93MOL0     C12458  -0.131   8.897  -1.880 -0.3854  0.3858  0.1192
   93MOL0     C12459  -0.087   8.764  -1.915 -0.4717  0.7461  0.0595
   93MOL0     C12460  -0.163   8.722  -2.038 -0.3717 -0.0591 -0.3469
   93MOL0     C12461  -0.114   8.586  -2.087  0.4091  0.7237  1.0153
   93MOL0     C12462  -0.214   8.517  -2.178  0.2671  0.0244 -0.3664
   93MOL0     C12463  -0.175   8.369  -2.209  0.4021  0.2314 -0.0178
   93MOL0     C12464  -0.285   8.299  -2.291  0.1573 -0.0897 -0.1943
   93MOL0    Cl12465  -0.278   8.118  -2.274 -0.3731 -0.0060 -0.3100
   93MOL0     C12466   0.237   8.836  -1.586 -0.1876 -0.3328 -0.1608
   93MOL0     C12467   0.310   8.847  -1.469 -0.0319 -0.5142  0.3908
   93MOL0     O12468   0.347   8.690  -1.207  0.3011 -0.4049  0.4901
   93MOL0     C12469   0.545   8.942  -1.069 -1.1556 -0.5890  0.1021
   93MOL0     C12470   0.656   8.962  -0.978  0.0622  0.5730 -0.2939
   93MOL0     N12471   1.269   9.120  -0.500  1.2473  0.4890  0.7991
   93MOL0     N12472   1.381   9.130  -0.557 -0.0389  0.6179  0.5675
   93MOL0     C12473   2.164   8.758   0.319 -0.0988  0.4114 -1.1096
   93MOL0     C12474   2.176   8.758   0.461 -1.0627  0.2592 -0.1627
   93MOL0     C12475   2.036   8.792   0.889 -0.7704  0.3696 -0.2778
   93MOL0     C12476   2.017   8.913   0.965 -0.2118 -0.0347  0.2993
   93MOL0     C12477   2.001   8.912   1.104  0.6747 -0.4399  1.1132
   93MOL0     C12478   2.018   8.792   1.176  0.6027 -0.3395 -0.5221
   93MOL0     O12479   2.002   8.782   1.310 -0.5918 -0.2582 -0.9939
   93MOL0     C12480   1.893   8.845   1.366  0.2521 -0.4148  0.2219
   93MOL0     C12481   1.829   8.750   1.472  0.1166 -0.6043 -0.6029
   93MOL0     C12482   1.831   8.607   1.428  0.0648 -0.4535 -0.1454
   93MOL0     C12483   1.742   8.511   1.514  0.5209  0.3207  0.9297
   93MOL0     C12484   1.768   8.376   1.459 -0.5333  0.4669 -0.7647
   93MOL0     C12485   1.771   8.257   1.419  0.2239 -0.4206  0.7271
   93MOL0     C12486   2.030   8.675   1.107  0.6425  0.2369 -0.5114
   93MOL0     C12487   2.057   8.673   0.967 -0.1078 -0.4587  1.3824
   93MOL0     H12488   1.926   8.548   0.525  0.5561 -0.7423  0.3444
   93MOL0     H12489   1.885   8.569   0.283  0.6008  1.1771 -2.4387
   93MOL0     H12490   2.058   8.913   0.099 -2.0543 -0.5174 -0.1142
   93MOL0     H12491   2.184   8.815   0.019  0.3697  1.6375  2.1867
   93MOL0     H12492   2.020   8.908  -0.140 -0.6759  0.6084  0.5262
   93MOL0     H12493   2.038   8.739  -0.136  2.5393  1.6113  0.2740
   93MOL0     H12494   1.836   8.698  -0.027  0.8553  0.5526 -0.9492
   93MOL0     H12495   1.805   8.875   0.014 -1.0268  1.3756 -1.3206
   93MOL0     H12496   1.821   8.743  -0.258  0.2505 -0.7885  0.8770
   93MOL0     H12497   1.661   8.787  -0.177  0.3647 -2.4255 -3.9605
   93MOL0     H12498   1.768   9.032  -0.181 -0.7294  2.4597 -0.9738
   93MOL0     H12499   1.875   8.942  -0.310 -0.9610 -0.0437 -0.6802
   93MOL0     H12500   1.565   8.984  -0.299  0.0714 -1.5469  1.0571
   93MOL0     H12501   1.682   9.098  -0.377  1.7301 -0.5154  0.4431
   93MOL0     H12502   1.753   8.862  -0.502 -0.3020 -0.2197 -1.2426
   93MOL0     H12503   1.590   8.812  -0.454 -0.7762  0.7331 -2.0269
   93MOL0     H12504   1.569   8.887  -0.676  1.3815 -3.4035  2.0481
   93MOL0     H12505   1.622   9.056  -0.624  1.1019 -0.4607  1.9804
   93MOL0     H12506   1.350   8.804  -0.509  0.4443 -0.2471 -0.6974
   93MOL0     H12507   1.125   8.832  -0.397 -0.9930 -2.1618 -1.2462
   93MOL0     H12508   1.036   8.981  -0.368  1.0739 -0.7738  0.5203
   93MOL0     H12509   1.074   8.851  -0.637  1.4929  0.3897  0.5618
   93MOL0     H12510   1.025   9.024  -0.632 -0.1446 -0.0025  0.0768
   93MOL0     H12511   0.830   8.957  -0.470  0.1683 -3.9783  2.8877
   93MOL0     H12512   0.843   8.804  -0.541  2.6798 -0.8303 -0.7580
   93MOL0     H12513   0.802   9.048  -0.714 -2.5955 -0.0438 -0.0235
   93MOL0     H12514   0.676   8.952  -0.642 -0.0665 -0.1095 -0.9996
   93MOL0     H12515   0.634   8.659  -0.808  1.1915  1.0604  0.4388
   93MOL0     H12516   0.423   8.533  -1.044  0.7191  0.0641 -0.6851
   93MOL0     H12517   0.450   8.546  -0.863  0.2466  2.2277  2.1934
   93MOL0     H12518   0.325   8.631  -0.935  1.4109  1.7173  0.7114
   93MOL0     H12519   0.053   8.979  -1.273  3.7202 -0.3170  3.0315
   93MOL0     H12520  -0.057   8.959  -1.497  1.2090 -1.1346 -1.1105
   93MOL0     H12521  -0.149   8.891  -1.667 -1.2203 -3.5012 -2.8364
   93MOL0     H12522  -0.078   9.046  -1.737 -0.6410 -0.0473 -0.7910
   93MOL0     H12523  -0.240   8.904  -1.880 -0.3500  1.0111  0.1205
   93MOL0     H12524  -0.089   8.968  -1.952  1.5441  3.1860  3.6466
   93MOL0     H12525  -0.118   8.692  -1.839  1.0061  0.7769  0.7253
   93MOL0     H12526   0.021   8.751  -1.925 -0.6648 -2.1595  0.8762
   93MOL0     H12527  -0.269   8.726  -2.012 -0.1924  1.8739  0.2152
   93MOL0     H12528  -0.147   8.798  -2.115  3.1503  2.1546  2.2810
   93MOL0     H12529  -0.088   8.531  -1.996  3.9989  1.9805  0.9241
   93MOL0     H12530  -0.018   8.602  -2.136  1.8210 -1.9818  2.6581
   93MOL0     H12531  -0.312   8.518  -2.131  0.1116 -3.7782 -0.2896
   93MOL0     H12532  -0.227   8.581  -2.266  0.4149  3.0699  1.6451
   93MOL0     H12533  -0.167   8.314  -2.115 -0.5192 -0.0089 -0.0733
   93MOL0     H12534  -0.077   8.373  -2.258  0.4058 -1.7835 -0.2543
   93MOL0     H12535  -0.263   8.320  -2.396 -1.6452 -2.7149 -1.1970
   93MOL0     H12536  -0.386   8.336  -2.270 -0.7849 -1.0506 -2.7297
   93MOL0     H12537   0.298   8.793  -1.665  0.4749 -1.3829  0.8931
   93MOL0     H12538   0.408   8.801  -1.455  0.4966  0.9459  1.9274
   93MOL0     H12539   0.524   9.022  -1.139  1.7310  1.1898  1.1292
   93MOL0     H12540   0.723   9.048  -0.978  0.3271  0.3849  1.3057
   93MOL0     H12541   2.234   8.820   0.263  2.2682 -2.1185 -1.2042
   93MOL0     H12542   2.263   8.813   0.496 -0.7715 -1.7249  2.5257
   93MOL0     H12543   2.020   9.007   0.909  1.9691  0.6836  1.4928
   93MOL0     H12544   1.986   9.004   1.159 -1.8603  0.6354 -1.1484
   93MOL0     H12545   1.928   8.939   1.410  0.7748 -1.9244  3.2528
   93MOL0     H12546   1.822   8.864   1.285  0.1781  2.0358  0.7925
   93MOL0     H12547   1.734   8.791   1.508  2.8660  3.3326  3.1004
   93MOL0     H12548   1.885   8.761   1.565 -1.8707 -0.4387  0.6190
   93MOL0     H12549   1.931   8.565   1.423 -0.6226 -2.0665 -1.2470
   93MOL0     H12550   1.796   8.615   1.324 -1.6530  1.9341  0.5372
   93MOL0     H12551   1.644   8.547   1.483  1.3841  1.2449 -0.9147
   93MOL0     H12552   1.763   8.515   1.621  0.5003  0.5859  0.9252
   93MOL0     H12553   1.748   8.156   1.392 -1.2592 -0.1331  0.8284
   93MOL0     H12554   2.026   8.576   1.152  1.3485  1.4279  2.4256
   93MOL0     H12555   2.063   8.575   0.921 -1.9849 -0.3552  0.8080
   94MOL0     O12556   7.441   7.684   0.532 -1.0058 -0.5511  0.6044
   94MOL0     C12557   7.464   7.807   0.519 -0.3821 -0.0081  1.0045
   94MOL0     O12558   7.578   7.857   0.466  0.4636  0.5177 -0.2936
   94MOL0     C12559   7.679   7.779   0.405  0.6043  0.2352  0.1118
   94MOL0     C12560   7.733   7.824   0.288 -0.6973 -0.0991 -0.0960
   94MOL0     C12561   7.832   7.752   0.220  0.5775 -0.2374  0.0333
   94MOL0     C12562   7.894   7.637   0.273  0.7198 -0.4727 -0.0922
   94MOL0     O12563   8.001   7.578   0.206  0.2843  0.9822 -0.0059
   94MOL0     C12564   7.994   7.434   0.205  0.8525  0.6234 -0.9767
   94MOL0     C12565   8.137   7.395   0.179  0.6359  0.0018 -0.3660
   94MOL0     C12566   8.181   7.429   0.037  0.1365 -0.0955 -0.8684
   94MOL0     C12567   8.310   7.366   0.011 -0.0727  0.1128 -0.9298
   94MOL0     C12568   8.349   7.371  -0.144  0.2555 -0.7020 -0.0612
   94MOL0     C12569   8.375   7.515  -0.190 -0.4148  0.0681 -0.8807
   94MOL0     C12570   8.490   7.536  -0.294  1.4832  0.5004 -1.6215
   94MOL0     C12571   8.477   7.674  -0.365 -0.0787 -1.0236  0.2720
   94MOL0     N12572   8.403   7.668  -0.491 -0.1866 -0.0720  0.2718
   94MOL0     C12573   8.303   7.583  -0.510 -0.2846  0.0715 -0.2353
   94MOL0     C12574   8.247   7.612  -0.634  0.5930 -0.1381  0.2625
   94MOL0     C12575   8.122   7.538  -0.692 -1.2382 -0.0292  0.5196
   94MOL0     C12576   8.147   7.388  -0.725  0.5733 -0.0594 -0.5855
   94MOL0     C12577   8.278   7.353  -0.807  0.3019 -1.0089 -0.0623
   94MOL0     C12578   8.290   7.410  -0.942 -0.2515 -0.4192  0.0843
   94MOL0     O12579   8.212   7.316  -1.014  0.3351  0.4505 -0.4745
   94MOL0     C12580   8.145   7.354  -1.134  0.2182 -0.0544  0.4303
   94MOL0     C12581   8.043   7.269  -1.179 -1.4443  0.2953 -0.8956
   94MOL0     C12582   7.958   7.306  -1.294 -0.7085 -0.4164 -0.4057
   94MOL0     C12583   7.849   7.201  -1.327  0.1113  0.5562  0.6898
   94MOL0     C12584   7.986   7.429  -1.359 -0.1018  0.2941  0.6933
   94MOL0     C12585   7.903   7.482  -1.469  0.0132  0.1012  0.1011
   94MOL0     O12586   7.933   7.611  -1.498  0.8176 -0.4064  0.5231
   94MOL0     C12587   7.848   7.677  -1.590 -0.4287  0.4373  0.1725
   94MOL0     C12588   7.849   7.817  -1.572 -0.1664 -0.1688  0.0675
   94MOL0     C12589   7.793   7.905  -1.657 -0.0815  0.2052  0.0770
   94MOL0     C12590   7.705   7.850  -1.754 -0.1124  0.3074  0.3864
   94MOL0     O12591   7.633   7.928  -1.840  0.1066  0.0383 -0.5947
   94MOL0     C12592   7.684   8.057  -1.886  0.2047  0.5844  0.2905
   94MOL0     C12593   7.606   8.182  -1.848 -0.1872 -0.6143  0.5301
   94MOL0     C12594   7.453   8.147  -1.823  0.1099 -0.2110  0.8484
   94MOL0     C12595   7.368   8.277  -1.805 -0.5082  0.5694 -0.1363
   94MOL0     C12596   7.220   8.246  -1.818  0.1203  0.2042  0.0978
   94MOL0     C12597   7.159   8.234  -1.961 -0.3256  0.1146 -0.3512
   94MOL0     C12598   7.005   8.198  -1.965  0.6127 -0.3299  0.1531
   94MOL0     C12599   6.973   8.103  -2.081 -0.5853 -0.2150 -1.8551
   94MOL0    Cl12600   7.014   8.181  -2.239 -0.2065  0.3600 -0.2825
   94MOL0     C12601   7.685   7.709  -1.777 -0.1400 -0.4682  0.2957
   94MOL0     C12602   7.765   7.630  -1.690 -0.5388 -0.2108  0.7877
   94MOL0     O12603   7.814   7.411  -1.517 -0.3770 -0.2748 -0.4153
   94MOL0     C12604   8.097   7.507  -1.309  0.6465 -0.5894  0.0380
   94MOL0     C12605   8.177   7.469  -1.209 -0.0433 -0.0224  0.2951
   94MOL0     N12606   8.328   7.702  -0.690  0.6844 -1.6241  0.3213
   94MOL0     N12607   8.416   7.746  -0.609  0.6541  0.0120  0.0109
   94MOL0     C12608   7.839   7.598   0.396 -0.5064 -0.5338 -0.6147
   94MOL0     C12609   7.730   7.660   0.458  1.1134 -0.4950 -0.0225
   94MOL0     C12610   7.361   7.904   0.558 -0.7545  0.6467  0.9465
   94MOL0     C12611   7.362   8.042   0.541  0.0379 -0.7518 -0.7460
   94MOL0     C12612   7.264   8.125   0.596  0.1621 -0.2126  0.5712
   94MOL0     C12613   7.162   8.083   0.681 -0.1501  0.3003 -0.1004
   94MOL0     O12614   7.078   8.154   0.758  0.4681  0.6091  0.1986
   94MOL0     C12615   7.027   8.273   0.717 -0.5310  0.0704  0.9530
   94MOL0     C12616   6.902   8.318   0.781 -0.4572 -0.0432 -0.2060
   94MOL0     C12617   6.844   8.430   0.697  0.3813  0.3249 -0.2937
   94MOL0     C12618   6.700   8.455   0.735 -0.0539  0.6216 -0.6480
   94MOL0     C12619   6.644   8.572   0.665 -0.1364  0.0487 -0.3488
   94MOL0     C12620   6.585   8.658   0.605 -1.2255 -0.4347 -0.0393
   94MOL0     C12621   7.165   7.944   0.699 -0.3939 -0.5835 -0.5192
   94MOL0     C12622   7.262   7.858   0.652  0.1538 -0.4050 -0.5916
   94MOL0     H12623   7.690   7.916   0.249 -2.0748 -0.3680  0.7259
   94MOL0     H12624   7.874   7.782   0.124 -0.1503  1.4109  0.1962
   94MOL0     H12625   7.960   7.385   0.298 -0.4452  2.0762 -0.6399
   94MOL0     H12626   7.925   7.403   0.126  1.5276  1.3825 -1.8818
   94MOL0     H12627   8.198   7.443   0.257 -1.0429 -1.3102  1.8656
   94MOL0     H12628   8.149   7.288   0.196 -0.4492 -0.3077 -1.4186
   94MOL0     H12629   8.096   7.397  -0.024 -0.5196 -1.4125  0.6738
   94MOL0     H12630   8.182   7.536   0.015 -1.6057  0.7227  2.4308
   94MOL0     H12631   8.378   7.419   0.078 -0.0984  0.3639 -1.0997
   94MOL0     H12632   8.303   7.259   0.031 -3.2574  0.2607 -0.7048
   94MOL0     H12633   8.436   7.309  -0.165  0.8506  1.1387 -3.7446
   94MOL0     H12634   8.262   7.338  -0.202 -2.9034 -0.0974  3.7950
   94MOL0     H12635   8.278   7.557  -0.220  0.7089  3.0116 -0.6982
   94MOL0     H12636   8.424   7.578  -0.116  0.9237 -3.6914  1.6867
   94MOL0     H12637   8.588   7.534  -0.245  0.5950  2.3438  0.4128
   94MOL0     H12638   8.493   7.456  -0.368 -0.9852  0.4230 -1.6879
   94MOL0     H12639   8.574   7.721  -0.387 -1.6164  3.2744  1.7043
   94MOL0     H12640   8.410   7.740  -0.310  0.8418  0.3662 -0.2441
   94MOL0     H12641   8.267   7.506  -0.443 -2.2843 -0.2859 -1.6114
   94MOL0     H12642   8.031   7.549  -0.633 -0.0623 -1.4445  2.7516
   94MOL0     H12643   8.120   7.585  -0.790 -1.0427 -1.1364 -0.0385
   94MOL0     H12644   8.058   7.349  -0.774 -0.0277 -0.1990  0.5922
   94MOL0     H12645   8.157   7.335  -0.630  2.4924 -0.9350 -1.2288
   94MOL0     H12646   8.291   7.245  -0.816  2.2135 -0.6501 -2.9121
   94MOL0     H12647   8.367   7.388  -0.755 -0.7473  0.0536  1.1066
   94MOL0     H12648   8.391   7.400  -0.984 -1.3115 -3.5925 -2.0383
   94MOL0     H12649   8.256   7.514  -0.949  0.7189 -0.1137 -0.2558
   94MOL0     H12650   8.021   7.173  -1.135 -0.7561  0.2040 -0.7390
   94MOL0     H12651   7.804   7.170  -1.231 -3.0196  2.4603 -0.0270
   94MOL0     H12652   7.761   7.255  -1.362  1.8379  2.0075 -1.7155
   94MOL0     H12653   7.880   7.126  -1.400  0.8666 -0.0371  1.5917
   94MOL0     H12654   7.924   7.855  -1.504 -0.1875 -1.6880  0.9786
   94MOL0     H12655   7.794   8.009  -1.628 -1.6774  0.1030  0.6123
   94MOL0     H12656   7.788   8.072  -1.855  0.4587  0.4572 -0.4901
   94MOL0     H12657   7.682   8.045  -1.994  0.1835 -0.7177  0.4268
   94MOL0     H12658   7.645   8.216  -1.752  0.0181 -0.6983  0.4762
   94MOL0     H12659   7.614   8.268  -1.915 -2.5610 -0.3216  0.5327
   94MOL0     H12660   7.436   8.082  -1.737 -1.5730 -0.4817  0.3456
   94MOL0     H12661   7.415   8.092  -1.909 -3.6460  0.0443  2.1396
   94MOL0     H12662   7.395   8.317  -1.707  0.4376  2.7616 -1.2457
   94MOL0     H12663   7.403   8.344  -1.884  1.6735  2.1350  2.0159
   94MOL0     H12664   7.158   8.317  -1.763  1.2829 -1.0999  3.2850
   94MOL0     H12665   7.213   8.150  -1.767 -0.4789 -0.7754 -1.7360
   94MOL0     H12666   7.167   8.326  -2.018 -0.3748  0.2881 -0.0775
   94MOL0     H12667   7.203   8.155  -2.022  1.9065  1.0615 -0.0663
   94MOL0     H12668   6.936   8.283  -1.975 -1.2609 -1.9756 -2.1541
   94MOL0     H12669   6.982   8.155  -1.867 -0.1483 -2.6605 -0.9891
   94MOL0     H12670   6.866   8.080  -2.071 -0.2349 -1.4584 -0.5839
   94MOL0     H12671   7.039   8.017  -2.063 -1.2892 -0.1911  1.4898
   94MOL0     H12672   7.618   7.664  -1.849  0.8187  0.9977 -1.6042
   94MOL0     H12673   7.749   7.523  -1.699  1.8265 -0.5891  0.1988
   94MOL0     H12674   8.124   7.599  -1.360  1.5098 -0.2264  1.1282
   94MOL0     H12675   8.261   7.532  -1.183 -1.6744  4.0288 -3.0525
   94MOL0     H12676   7.886   7.512   0.441 -0.0401  0.5961  1.1635
   94MOL0     H12677   7.686   7.618   0.548  1.3109 -1.6007 -0.4294
   94MOL0     H12678   7.440   8.086   0.479  0.2013 -1.3914 -1.0010
   94MOL0     H12679   7.276   8.233   0.586  2.2239 -0.3833  0.6289
   94MOL0     H12680   7.088   8.363   0.717 -0.6645  0.1925 -1.0978
   94MOL0     H12681   7.004   8.265   0.611  1.3340 -0.0805  0.5295
   94MOL0     H12682   6.923   8.362   0.879  1.9567 -1.4184 -0.0153
   94MOL0     H12683   6.835   8.232   0.783  2.0509 -2.2440 -2.3308
   94MOL0     H12684   6.827   8.389   0.597 -4.1809 -1.0604  0.8342
   94MOL0     H12685   6.907   8.520   0.692 -1.9104  2.3630  3.1357
   94MOL0     H12686   6.707   8.477   0.842 -0.8875  0.7447 -0.6104
   94MOL0     H12687   6.640   8.367   0.709  0.8451  0.6055 -2.8770
   94MOL0     H12688   6.527   8.716   0.536 -0.2540  1.0353  0.3164
   94MOL0     H12689   7.091   7.895   0.762 -0.9051 -0.6281 -1.1440
   94MOL0     H12690   7.252   7.754   0.681 -0.8271  0.1928  1.3806
   95MOL0     O12691   3.710   8.981   2.986  0.1837 -0.5325  0.1972
   95MOL0     C12692   3.680   9.067   2.901  0.1924 -0.6968 -0.7180
   95MOL0     O12693   3.652   9.046   2.772 -0.2838 -0.2173  0.1669
   95MOL0     C12694   3.669   8.937   2.703  0.1895 -0.2899 -0.9509
   95MOL0     C12695   3.641   8.948   2.569 -0.3017  0.0653 -1.0257
   95MOL0     C12696   3.663   8.840   2.476 -0.2279 -0.4238  0.9275
   95MOL0     C12697   3.728   8.725   2.516  0.0485  0.8344 -0.4111
   95MOL0     O12698   3.764   8.626   2.431  1.2182  0.4844  0.6882
   95MOL0     C12699   3.705   8.627   2.302 -0.6868 -0.1215  0.3538
   95MOL0     C12700   3.749   8.495   2.235  1.2012 -0.3155 -0.2919
   95MOL0     C12701   3.658   8.472   2.112  0.6614 -0.0114  1.3511
   95MOL0     C12702   3.700   8.351   2.024  0.3050  0.1773  0.3535
   95MOL0     C12703   3.575   8.263   2.006 -1.0215  0.4274 -0.8195
   95MOL0     C12704   3.472   8.312   1.909  0.2292 -0.9439  0.6194
   95MOL0     C12705   3.523   8.286   1.767  0.2982 -0.5959 -0.6880
   95MOL0     C12706   3.436   8.347   1.655 -0.5772 -0.4604  0.0005
   95MOL0     N12707   3.470   8.305   1.515  0.4916  0.4744  0.5765
   95MOL0     C12708   3.426   8.186   1.454 -0.7560 -0.8783 -0.5123
   95MOL0     C12709   3.456   8.195   1.323  0.6569 -0.1688 -0.9194
   95MOL0     C12710   3.427   8.080   1.231 -0.7629 -0.0469  0.6949
   95MOL0     C12711   3.304   8.124   1.149  0.2947  0.6702 -0.0701
   95MOL0     C12712   3.263   8.022   1.047 -0.0485  0.1560 -0.9912
   95MOL0     C12713   3.380   7.964   0.959  0.0155 -0.0724 -0.5589
   95MOL0     O12714   3.327   7.886   0.858  0.0610  0.3230 -0.5674
   95MOL0     C12715   3.398   7.873   0.740 -0.0346 -0.7197 -0.2806
   95MOL0     C12716   3.380   7.970   0.641 -0.0728 -0.8318  0.2598
   95MOL0     C12717   3.443   7.972   0.513  0.3393  0.1361  0.1514
   95MOL0     C12718   3.398   8.074   0.413 -0.4561  1.2701  1.1921
   95MOL0     C12719   3.542   7.873   0.491  0.0617  0.5451  1.5967
   95MOL0     C12720   3.637   7.870   0.370 -0.7277 -0.5456 -0.7722
   95MOL0     O12721   3.723   7.758   0.365 -0.3803  0.2376  0.1178
   95MOL0     C12722   3.822   7.771   0.269 -0.5689 -0.0099  0.5897
   95MOL0     C12723   3.938   7.831   0.311 -0.0234  0.0903 -0.4453
   95MOL0     C12724   4.032   7.846   0.224 -0.5238 -0.2772  0.3242
   95MOL0     C12725   4.027   7.815   0.088 -0.5130 -0.4741  0.4312
   95MOL0     O12726   4.124   7.831  -0.005 -0.0145 -0.0833  0.6548
   95MOL0     C12727   4.254   7.889   0.027  0.9153  0.2613 -1.0710
   95MOL0     C12728   4.351   7.855  -0.091 -0.1224  0.3740  1.0503
   95MOL0     C12729   4.389   7.977  -0.177 -0.0036  0.6633 -0.8606
   95MOL0     C12730   4.508   7.954  -0.271  0.1786 -0.5749  0.2067
   95MOL0     C12731   4.538   8.065  -0.378 -0.0498 -0.2053  0.1381
   95MOL0     C12732   4.544   8.213  -0.319  0.5926 -1.3926  0.2044
   95MOL0     C12733   4.563   8.305  -0.441  1.4259 -0.7188 -0.0845
   95MOL0     C12734   4.425   8.354  -0.500  0.0385 -0.6185  0.3921
   95MOL0    Cl12735   4.377   8.496  -0.396 -0.2817 -0.4050 -0.0142
   95MOL0     C12736   3.913   7.752   0.045 -0.6425 -1.7928  1.1016
   95MOL0     C12737   3.809   7.739   0.138  0.0809 -0.0885  0.8472
   95MOL0     O12738   3.630   7.953   0.274 -0.0093 -0.1270 -0.4002
   95MOL0     C12739   3.548   7.770   0.588 -0.4860  0.6872  0.5996
   95MOL0     C12740   3.491   7.775   0.712 -0.0996  0.4364 -0.3130
   95MOL0     N12741   3.523   8.324   1.302  0.5787  0.7768 -0.1648
   95MOL0     N12742   3.521   8.383   1.417  0.2318 -0.1107  0.1021
   95MOL0     C12743   3.750   8.706   2.660  1.2460  0.6882  0.6607
   95MOL0     C12744   3.724   8.815   2.746 -0.3748  0.1337 -0.2326
   95MOL0     C12745   3.684   9.212   2.941 -0.2643 -0.2308  0.0050
   95MOL0     C12746   3.660   9.316   2.851 -1.0853  0.1082  1.1536
   95MOL0     C12747   3.660   9.449   2.894 -0.1862  0.0003  0.4227
   95MOL0     C12748   3.692   9.490   3.023  0.2787  0.4450  0.3982
   95MOL0     O12749   3.691   9.622   3.053 -0.3125 -0.6954 -0.4276
   95MOL0     C12750   3.658   9.669   3.180  0.5514 -0.5911 -0.2745
   95MOL0     C12751   3.607   9.807   3.172 -0.1309 -1.1792 -0.4104
   95MOL0     C12752   3.499   9.836   3.054  0.5609  1.0026 -0.6019
   95MOL0     C12753   3.386   9.734   3.055 -0.0674 -0.3106  0.4539
   95MOL0     C12754   3.309   9.736   3.183  0.0785 -0.1378  0.9995
   95MOL0     C12755   3.282   9.731   3.298  1.2455  0.2498 -1.6712
   95MOL0     C12756   3.716   9.382   3.114  0.1872  0.0640 -0.2039
   95MOL0     C12757   3.714   9.247   3.079 -0.2104  0.6429  0.3920
   95MOL0     H12758   3.606   9.043   2.532 -0.8951 -0.3775 -1.6326
   95MOL0     H12759   3.640   8.848   2.370  1.1442  0.8573  0.6992
   95MOL0     H12760   3.596   8.632   2.302 -0.7670 -1.3807  0.2761
   95MOL0     H12761   3.748   8.708   2.242 -1.3075  0.1740  0.3051
   95MOL0     H12762   3.852   8.494   2.199  1.1227  0.6600 -0.5792
   95MOL0     H12763   3.743   8.416   2.310 -0.1468 -2.1526 -2.1994
   95MOL0     H12764   3.562   8.448   2.159 -0.5112 -0.6548 -1.2252
   95MOL0     H12765   3.655   8.564   2.053  1.0904  0.9832  2.8203
   95MOL0     H12766   3.747   8.389   1.932  1.6074  1.3854  1.4670
   95MOL0     H12767   3.779   8.291   2.071  0.0386 -0.7963 -0.4058
   95MOL0     H12768   3.612   8.164   1.976  0.0036  0.4124  0.4095
   95MOL0     H12769   3.531   8.245   2.105  0.2905  1.8807  0.0730
   95MOL0     H12770   3.373   8.266   1.917 -1.2121  1.8735  0.3358
   95MOL0     H12771   3.453   8.420   1.918  1.1448 -0.7822  0.7069
   95MOL0     H12772   3.626   8.322   1.758 -1.3814  5.1521 -1.2527
   95MOL0     H12773   3.517   8.177   1.762 -0.4480 -0.7881  2.2380
   95MOL0     H12774   3.444   8.456   1.648 -0.6531 -0.2754  2.1222
   95MOL0     H12775   3.333   8.329   1.688 -0.4031 -0.7804  0.3898
   95MOL0     H12776   3.382   8.098   1.500  0.2296 -0.2823  1.7018
   95MOL0     H12777   3.517   8.076   1.170 -1.7620 -0.7013 -0.7961
   95MOL0     H12778   3.408   7.988   1.287  0.4229 -1.2800 -0.8418
   95MOL0     H12779   3.330   8.221   1.105  1.1640  2.6668  4.3884
   95MOL0     H12780   3.219   8.139   1.216 -1.7409 -0.3447 -2.2631
   95MOL0     H12781   3.196   8.067   0.974 -0.8787  0.7497  0.1035
   95MOL0     H12782   3.216   7.940   1.103  0.6945  0.6236  0.3533
   95MOL0     H12783   3.439   7.902   1.027 -1.9080 -1.3382  0.0419
   95MOL0     H12784   3.444   8.040   0.914 -0.5324  0.0373 -1.1639
   95MOL0     H12785   3.315   8.053   0.665 -0.7414 -0.9913 -0.8935
   95MOL0     H12786   3.383   8.027   0.315 -4.6966 -1.7207  2.9812
   95MOL0     H12787   3.308   8.131   0.440 -1.1938  1.1522 -0.8644
   95MOL0     H12788   3.474   8.150   0.393  1.1682 -0.6305 -0.2086
   95MOL0     H12789   3.954   7.876   0.409  1.4101 -0.3199 -0.4691
   95MOL0     H12790   4.119   7.895   0.266 -1.4472  1.3972  0.3770
   95MOL0     H12791   4.251   7.996   0.049  2.4950 -0.1453  1.4550
   95MOL0     H12792   4.289   7.840   0.118 -1.0597  0.8686  0.0876
   95MOL0     H12793   4.454   7.830  -0.062  1.0828  2.7208 -0.7858
   95MOL0     H12794   4.305   7.772  -0.144  0.2991 -0.0896  1.4039
   95MOL0     H12795   4.422   8.063  -0.119  2.4512  1.2255 -2.9155
   95MOL0     H12796   4.302   8.003  -0.237 -0.8183 -2.0933 -1.0181
   95MOL0     H12797   4.597   7.958  -0.208 -0.6251 -1.0639  1.4072
   95MOL0     H12798   4.504   7.857  -0.323  4.5921 -0.1643 -1.3137
   95MOL0     H12799   4.459   8.067  -0.453 -1.5482 -0.9053  1.6387
   95MOL0     H12800   4.626   8.042  -0.439 -1.2366  0.3144 -1.8270
   95MOL0     H12801   4.451   8.247  -0.272 -0.3422  1.2088 -3.1440
   95MOL0     H12802   4.631   8.223  -0.252  1.7732 -4.6603 -0.6879
   95MOL0     H12803   4.617   8.242  -0.513  0.5183  0.8640 -2.2779
   95MOL0     H12804   4.632   8.387  -0.423  0.6186 -0.0894  0.2238
   95MOL0     H12805   4.342   8.283  -0.506 -0.5151  0.0379  0.0808
   95MOL0     H12806   4.431   8.398  -0.600 -2.8123 -2.3304 -0.6573
   95MOL0     H12807   3.901   7.730  -0.061  0.4105  0.6127  0.4234
   95MOL0     H12808   3.719   7.695   0.096  1.6045 -2.1343 -0.3733
   95MOL0     H12809   3.597   7.679   0.554  0.2521  2.1034 -2.4412
   95MOL0     H12810   3.520   7.702   0.787  2.6049  0.6710 -1.0510
   95MOL0     H12811   3.786   8.614   2.704  2.1373 -0.0935 -1.5968
   95MOL0     H12812   3.744   8.803   2.852  2.7920  1.2479 -0.5882
   95MOL0     H12813   3.641   9.290   2.747 -0.1114  2.2427  0.4019
   95MOL0     H12814   3.646   9.522   2.815  0.9313  1.3318  1.4080
   95MOL0     H12815   3.591   9.604   3.236  1.9677 -1.4770  0.4328
   95MOL0     H12816   3.751   9.681   3.235 -1.3872  2.0014  2.8051
   95MOL0     H12817   3.687   9.876   3.140 -1.0745 -0.3897 -1.1577
   95MOL0     H12818   3.574   9.847   3.268  4.2221  1.7785  0.1587
   95MOL0     H12819   3.542   9.830   2.954  0.7009 -0.5057 -0.4801
   95MOL0     H12820   3.450   9.933   3.064 -0.7991  0.2123  1.0706
   95MOL0     H12821   3.423   9.635   3.027 -0.6576 -0.8652  1.5641
   95MOL0     H12822   3.328   9.756   2.965  3.5008  0.4111 -1.8683
   95MOL0     H12823   3.282   9.729   3.405 -0.0466 -1.1613 -1.6661
   95MOL0     H12824   3.710   9.414   3.218 -0.3784 -2.2356  0.5286
   95MOL0     H12825   3.737   9.177   3.159  1.7257  0.6524 -0.1014
   96MOL0     O12826   3.702  10.081   9.744 -0.5429 -0.4736 -1.0843
   96MOL0     C12827   3.639  10.101   9.642 -1.0567  0.6331  1.0213
   96MOL0     O12828   3.687  10.191   9.552 -0.8051  0.2821 -0.0892
   96MOL0     C12829   3.691  10.324   9.587  0.6057 -0.1178 -0.3890
   96MOL0     C12830   3.626  10.374   9.708  0.4487 -0.9294 -0.2907
   96MOL0     C12831   3.616  10.507   9.734 -0.3852 -0.2021 -0.7397
   96MOL0     C12832   3.667  10.596   9.642 -0.4398  0.0600  0.5696
   96MOL0     O12833   3.649  10.725   9.667  0.3819  0.2618 -0.6413
   96MOL0     C12834   3.760  10.814   9.657 -0.6863 -0.9409  0.4277
   96MOL0     C12835   3.744  10.934   9.754  0.3999 -0.6132  0.6245
   96MOL0     C12836   3.724  10.901   9.901  0.2851 -0.2297 -0.2458
   96MOL0     C12837   3.683  11.025   9.979 -0.1355  0.0923 -0.7396
   96MOL0     C12838   3.701  11.001  10.133 -0.3044 -0.2710 -0.0968
   96MOL0     C12839   3.669  11.118  10.213  0.2748 -0.8653 -0.4703
   96MOL0     C12840   3.546  11.200  10.180 -0.0180  0.6336 -0.4607
   96MOL0     C12841   3.404  11.141  10.198  1.1088 -0.1534  0.3346
   96MOL0     N12842   3.349  11.103  10.069  0.4652 -0.2807  0.0713
   96MOL0     C12843   3.303  10.983  10.035  0.3041 -0.1869 -0.6413
   96MOL0     C12844   3.255  11.000   9.907 -0.2897  0.6875 -0.5322
   96MOL0     C12845   3.212  10.891   9.813  0.3642 -0.2659 -0.0937
   96MOL0     C12846   3.268  10.911   9.673 -1.4742 -0.1891  1.3968
   96MOL0     C12847   3.218  10.799   9.582  0.4717 -0.9794  0.3775
   96MOL0     C12848   3.202  10.851   9.441 -0.0318  0.1933  0.5164
   96MOL0     O12849   3.174  10.745   9.345 -0.1715 -0.1535  0.6925
   96MOL0     C12850   3.198  10.763   9.206  0.4349  0.4948 -0.7922
   96MOL0     C12851   3.187  10.656   9.119 -0.5683  0.1050  0.0671
   96MOL0     C12852   3.218  10.662   8.988 -0.4218  0.0750  0.5333
   96MOL0     C12853   3.255  10.533   8.918  0.4727 -0.0507  0.3293
   96MOL0     C12854   3.236  10.785   8.939 -0.7028  0.5076 -0.1608
   96MOL0     C12855   3.266  10.806   8.802  0.2319 -0.9368 -0.4544
   96MOL0     O12856   3.383  10.858   8.757  0.1222 -0.7902 -0.6278
   96MOL0     C12857   3.403  10.867   8.620 -0.8659 -0.2056 -0.5948
   96MOL0     C12858   3.364  10.768   8.529 -0.8406  0.3408 -1.1281
   96MOL0     C12859   3.373  10.783   8.390  0.0218 -0.0024 -0.4351
   96MOL0     C12860   3.424  10.902   8.340  1.0927 -1.2713 -0.9440
   96MOL0     O12861   3.426  10.933   8.210 -0.2457  0.5395  0.0620
   96MOL0     C12862   3.457  10.823   8.124 -0.6506 -0.5240  0.1915
   96MOL0     C12863   3.495  10.882   7.994  0.0135  0.0854  0.8028
   96MOL0     C12864   3.636  10.913   7.963  0.4576  0.2797  0.6167
   96MOL0     C12865   3.700  11.024   8.041  0.1450 -0.5011  0.1293
   96MOL0     C12866   3.816  11.087   7.969  0.1633 -0.6907 -0.4926
   96MOL0     C12867   3.782  11.208   7.878  0.3499  0.0415  0.1152
   96MOL0     C12868   3.699  11.184   7.744  0.3451  0.7139 -0.4340
   96MOL0     C12869   3.798  11.126   7.639 -0.3613 -0.2222  0.1795
   96MOL0    Cl12870   3.730  11.121   7.466 -0.6358  0.3081 -0.1335
   96MOL0     C12871   3.477  10.994   8.432 -0.0912 -0.1367 -0.6341
   96MOL0     C12872   3.451  10.985   8.567 -0.2815  0.6778  0.0258
   96MOL0     O12873   3.165  10.793   8.733 -0.2943  0.7886  0.0040
   96MOL0     C12874   3.229  10.900   9.012 -1.0759  0.2703 -1.4455
   96MOL0     C12875   3.218  10.882   9.146 -0.4264 -0.0760  0.5177
   96MOL0     N12876   3.261  11.133   9.872 -0.8852 -0.4957 -0.8600
   96MOL0     N12877   3.309  11.198   9.976 -0.7045 -0.0756 -0.4617
   96MOL0     C12878   3.732  10.553   9.528  0.0571  0.3638 -0.2666
   96MOL0     C12879   3.736  10.412   9.488 -0.0195  0.4177 -1.0862
   96MOL0     C12880   3.517  10.009   9.631 -0.3116  0.3619 -0.4397
   96MOL0     C12881   3.434  10.013   9.521  0.4428 -0.4768  0.2319
   96MOL0     C12882   3.321   9.932   9.515  0.2075  0.9943 -0.0377
   96MOL0     C12883   3.282   9.841   9.621  0.4791 -0.3664 -1.3895
   96MOL0     O12884   3.169   9.770   9.623 -0.0756 -0.5609 -1.0553
   96MOL0     C12885   3.065   9.834   9.704  0.2130  1.2028 -0.7002
   96MOL0     C12886   2.995   9.941   9.622 -0.3838  0.2404 -0.4003
   96MOL0     C12887   2.906  10.025   9.721 -0.5108  0.6735  0.4312
   96MOL0     C12888   2.842  10.135   9.641  0.1378  0.6591  0.3446
   96MOL0     C12889   2.743  10.206   9.722 -0.1189  0.5787 -0.0573
   96MOL0     C12890   2.661  10.274   9.771  0.6223 -0.3760 -0.2425
   96MOL0     C12891   3.380   9.826   9.725  1.1301 -0.0726  0.8370
   96MOL0     C12892   3.487   9.913   9.733  0.5907 -0.4041 -0.1441
   96MOL0     H12893   3.581  10.305   9.778 -0.7838  0.3593  0.2186
   96MOL0     H12894   3.568  10.545   9.824  1.2388  0.0844  0.0397
   96MOL0     H12895   3.856  10.763   9.672 -1.2431 -2.7616 -1.7053
   96MOL0     H12896   3.745  10.867   9.563 -2.9489  1.4027  1.9409
   96MOL0     H12897   3.831  11.000   9.747  3.0728 -3.8765  0.4770
   96MOL0     H12898   3.651  10.990   9.737 -0.1554  0.2135  5.1871
   96MOL0     H12899   3.634  10.838   9.908 -2.4680  3.0635 -2.7327
   96MOL0     H12900   3.801  10.850   9.960  0.7505  0.2590 -0.4196
   96MOL0     H12901   3.764  11.095   9.956  2.8771 -3.0417 -0.4890
   96MOL0     H12902   3.589  11.071   9.947  0.3415  3.2019  1.7792
   96MOL0     H12903   3.640  10.913  10.156 -0.5601 -0.2482 -0.6740
   96MOL0     H12904   3.805  10.971  10.151  0.2203  1.3335 -0.3457
   96MOL0     H12905   3.684  11.102  10.320 -1.5984 -0.4993 -0.1079
   96MOL0     H12906   3.754  11.184  10.191 -2.3781  2.9311 -0.5007
   96MOL0     H12907   3.559  11.302  10.216 -0.6911  1.0358 -1.3075
   96MOL0     H12908   3.541  11.223  10.073 -2.5494 -2.8282 -1.2742
   96MOL0     H12909   3.346  11.220  10.248  1.7299 -0.7540  2.0815
   96MOL0     H12910   3.412  11.056  10.267 -0.3815  0.3424  1.1655
   96MOL0     H12911   3.323  10.891  10.090 -1.4612  0.3528  1.0252
   96MOL0     H12912   3.246  10.797   9.858 -0.7396  0.1190  1.6483
   96MOL0     H12913   3.103  10.898   9.827  0.6130  0.2672  1.8217
   96MOL0     H12914   3.377  10.901   9.668 -1.6775 -2.6057  0.2965
   96MOL0     H12915   3.242  11.001   9.616 -4.6622 -1.1209  1.1872
   96MOL0     H12916   3.117  10.772   9.614 -0.1480 -0.8055 -1.3584
   96MOL0     H12917   3.286  10.714   9.574  1.6376 -0.1564  1.2552
   96MOL0     H12918   3.290  10.913   9.422  0.0957 -0.3065 -0.5790
   96MOL0     H12919   3.114  10.915   9.433 -0.8011 -0.8126  0.8655
   96MOL0     H12920   3.155  10.557   9.149 -2.2700 -0.9690 -4.4362
   96MOL0     H12921   3.244  10.443   8.979 -1.8156  0.7728  1.2406
   96MOL0     H12922   3.189  10.531   8.831 -1.1194  2.1240  1.3934
   96MOL0     H12923   3.361  10.540   8.891  0.3859 -2.2859 -0.8054
   96MOL0     H12924   3.310  10.686   8.575 -0.3941  1.4018  1.4595
   96MOL0     H12925   3.320  10.705   8.336 -0.9410  0.9597 -0.9124
   96MOL0     H12926   3.545  10.769   8.162 -1.0943 -1.5290 -0.1593
   96MOL0     H12927   3.374  10.752   8.117 -3.2284  2.4017 -0.6834
   96MOL0     H12928   3.455  10.812   7.920 -0.8709 -0.2685  1.5943
   96MOL0     H12929   3.442  10.974   7.970  1.7063  0.0802 -4.0607
   96MOL0     H12930   3.648  10.922   7.854  0.3420 -2.1009  0.3638
   96MOL0     H12931   3.692  10.822   7.988 -1.6302 -0.8153  1.5254
   96MOL0     H12932   3.618  11.095   8.056 -1.3577 -1.8390 -1.3567
   96MOL0     H12933   3.735  10.983   8.136 -0.1283 -1.0313  0.0061
   96MOL0     H12934   3.870  11.016   7.906  0.6147  0.7304 -1.7399
   96MOL0     H12935   3.889  11.123   8.042  1.1653 -0.9100 -1.3754
   96MOL0     H12936   3.724  11.285   7.929 -0.0791  0.9258 -1.6275
   96MOL0     H12937   3.869  11.263   7.841  0.2859  1.3808  1.8658
   96MOL0     H12938   3.670  11.283   7.708 -3.3622  0.1550  0.6489
   96MOL0     H12939   3.614  11.117   7.759  2.2067 -1.7386 -0.2694
   96MOL0     H12940   3.800  11.018   7.660  2.3236 -0.2920 -0.0400
   96MOL0     H12941   3.902  11.160   7.639 -0.2529 -0.5281 -0.5366
   96MOL0     H12942   3.518  11.083   8.384  2.0618  0.2184  1.6526
   96MOL0     H12943   3.494  11.051   8.641  0.5099 -1.7798  1.8774
   96MOL0     H12944   3.249  11.000   8.974  0.1657  0.7904  0.4124
   96MOL0     H12945   3.226  10.966   9.214 -0.2718  0.5878 -0.3020
   96MOL0     H12946   3.775  10.623   9.456  0.4025  0.3815 -0.0460
   96MOL0     H12947   3.777  10.373   9.395 -1.4892  1.0907 -2.0443
   96MOL0     H12948   3.453  10.093   9.451 -0.7509  0.4913  0.9820
   96MOL0     H12949   3.248   9.947   9.436 -0.6549  0.5977  0.6609
   96MOL0     H12950   3.001   9.752   9.739  2.3439  0.3745  1.6294
   96MOL0     H12951   3.101   9.878   9.797  3.7377 -2.8121  0.1644
   96MOL0     H12952   2.937   9.894   9.543 -3.1020 -0.5612  1.9138
   96MOL0     H12953   3.071  10.012   9.587 -0.3960 -0.5010 -1.9923
   96MOL0     H12954   2.966  10.058   9.806  0.3924 -3.0993  1.4324
   96MOL0     H12955   2.826   9.964   9.763 -0.4962  1.7343  2.1060
   96MOL0     H12956   2.787  10.094   9.555  1.1011  0.7269 -0.3126
   96MOL0     H12957   2.920  10.199   9.599  2.6465 -4.4404 -3.9639
   96MOL0     H12958   2.600  10.349   9.817 -0.0589 -1.5495  0.8624
   96MOL0     H12959   3.370   9.755   9.807 -0.0994  0.1662  0.9137
   96MOL0     H12960   3.549   9.902   9.821 -0.8488 -1.8814  0.7475
   97MOL0     O12961   4.675  10.209   6.605 -0.4186 -0.8275 -0.7802
   97MOL0     C12962   4.754  10.182   6.702  1.5617 -0.6483  0.4597
   97MOL0     O12963   4.879  10.119   6.693 -0.7375  0.3204 -0.2291
   97MOL0     C12964   4.921  10.051   6.582 -0.2191  0.3069  0.3282
   97MOL0     C12965   5.000  10.115   6.477  0.2846 -1.2021  1.4894
   97MOL0     C12966   5.043  10.049   6.356  0.2255  0.6368 -0.3733
   97MOL0     C12967   5.012   9.913   6.341 -0.6859  0.1943  0.2526
   97MOL0     O12968   5.054   9.837   6.236 -0.0451 -1.0192  0.2385
   97MOL0     C12969   4.960   9.729   6.197  0.3087  0.4635  1.3621
   97MOL0     C12970   4.997   9.681   6.061 -0.2334 -0.3082  0.7803
   97MOL0     C12971   4.932   9.554   6.004 -0.2075  0.0262  0.0377
   97MOL0     C12972   4.995   9.427   6.060 -0.1920 -0.6072 -0.1171
   97MOL0     C12973   4.984   9.297   5.970  0.1093  0.2932 -0.4647
   97MOL0     C12974   5.104   9.290   5.875  0.3900  0.5866 -0.8208
   97MOL0     C12975   5.238   9.283   5.951  0.5554 -1.0921  1.0803
   97MOL0     C12976   5.359   9.211   5.873  0.4428  0.6135 -0.0787
   97MOL0     N12977   5.324   9.067   5.852  0.6353 -0.6180  0.5845
   97MOL0     C12978   5.299   8.987   5.959  0.1178 -0.4183  0.1321
   97MOL0     C12979   5.215   8.895   5.900  0.9071 -0.3846  0.1411
   97MOL0     C12980   5.150   8.772   5.972  0.7218  0.6333  0.4620
   97MOL0     C12981   5.001   8.825   6.003  0.4935 -0.0468  0.1053
   97MOL0     C12982   4.901   8.723   6.040 -0.4547  0.0529 -0.1632
   97MOL0     C12983   4.764   8.779   6.065 -0.5025 -0.4616  0.6792
   97MOL0     O12984   4.674   8.682   6.122  0.0475  0.7852  0.7075
   97MOL0     C12985   4.550   8.732   6.152  0.3386  0.0965 -0.1493
   97MOL0     C12986   4.474   8.831   6.082  0.7150  0.1692  0.6710
   97MOL0     C12987   4.336   8.854   6.094  0.6757  0.2416 -0.0360
   97MOL0     C12988   4.275   8.949   5.989  0.1505 -0.0895  0.3027
   97MOL0     C12989   4.261   8.777   6.180 -0.3117 -0.0399  0.2632
   97MOL0     C12990   4.110   8.784   6.194 -0.1848 -0.3107  1.1682
   97MOL0     O12991   4.051   8.682   6.276  0.8018  0.0718  0.7302
   97MOL0     C12992   3.922   8.704   6.306  0.2460  0.0150  0.5875
   97MOL0     C12993   3.822   8.693   6.202  0.4958  0.2396  1.4370
   97MOL0     C12994   3.688   8.718   6.215 -0.6574  0.0507 -0.0372
   97MOL0     C12995   3.641   8.760   6.344  0.4347  0.6146 -0.5120
   97MOL0     O12996   3.509   8.790   6.355  0.5000 -0.2717 -0.2421
   97MOL0     C12997   3.436   8.796   6.480 -0.3368  0.6943  0.5255
   97MOL0     C12998   3.452   8.672   6.566 -0.3340 -0.5415 -0.5491
   97MOL0     C12999   3.475   8.703   6.725 -1.0306 -0.2948 -0.1147
   97MOL0     C13000   3.500   8.574   6.812  0.3044  0.3713 -0.2398
   97MOL0     C13001   3.452   8.602   6.964 -0.3703  0.3223  0.4664
   97MOL0     C13002   3.509   8.489   7.062  0.3115 -1.2775  0.3006
   97MOL0     C13003   3.502   8.541   7.211  0.0466 -0.5055  1.4196
   97MOL0     C13004   3.361   8.551   7.263  0.0973 -0.0049  0.2008
   97MOL0    Cl13005   3.297   8.387   7.278  0.1317 -0.0660 -0.2030
   97MOL0     C13006   3.741   8.759   6.447  0.0532  0.1749 -0.9935
   97MOL0     C13007   3.879   8.729   6.434  0.1250 -0.4160 -0.3814
   97MOL0     O13008   4.044   8.864   6.132  0.4386  0.0583 -0.5309
   97MOL0     C13009   4.335   8.685   6.257  0.0654  0.2628 -0.2250
   97MOL0     C13010   4.473   8.665   6.241  0.2007 -0.4434  0.6440
   97MOL0     N13011   5.196   8.916   5.762  0.0034  0.0082 -0.3686
   97MOL0     N13012   5.270   9.017   5.734  0.2207 -0.2217 -0.2374
   97MOL0     C13013   4.943   9.843   6.440 -0.1286 -0.8755  0.5281
   97MOL0     C13014   4.899   9.912   6.556 -0.3156 -0.2856  0.5767
   97MOL0     C13015   4.718  10.252   6.836 -0.3291 -0.0962  0.0174
   97MOL0     C13016   4.817  10.241   6.935 -0.4668 -0.3633  0.5443
   97MOL0     C13017   4.793  10.309   7.050 -0.7785  0.4576  0.7312
   97MOL0     C13018   4.685  10.393   7.070  0.0457  0.5512 -0.0331
   97MOL0     O13019   4.653  10.442   7.199 -0.1590  0.2362  0.3765
   97MOL0     C13020   4.736  10.546   7.233  0.7411  0.4366  0.4661
   97MOL0     C13021   4.699  10.669   7.137  0.4232  0.0676 -0.7865
   97MOL0     C13022   4.551  10.728   7.153 -1.8458 -0.9450 -0.1990
   97MOL0     C13023   4.526  10.854   7.088  0.0116  0.8810  0.4005
   97MOL0     C13024   4.388  10.881   7.076  0.6213  0.1247 -0.3395
   97MOL0     C13025   4.268  10.899   7.081  0.2122 -0.4192 -0.0052
   97MOL0     C13026   4.596  10.418   6.974 -0.0978 -0.1449 -0.5575
   97MOL0     C13027   4.609  10.341   6.853  0.6515 -0.1374  0.5021
   97MOL0     H13028   5.040  10.215   6.493  2.6133 -1.7931 -0.1331
   97MOL0     H13029   5.103  10.087   6.273 -2.0875  1.0459 -1.9621
   97MOL0     H13030   4.953   9.643   6.264 -0.8582 -0.5870 -0.0428
   97MOL0     H13031   4.854   9.758   6.193 -0.1182 -1.1262 -0.2202
   97MOL0     H13032   4.977   9.767   5.996 -1.8599 -1.2511 -0.0243
   97MOL0     H13033   5.104   9.660   6.068 -0.4328 -1.1970  1.2367
   97MOL0     H13034   4.828   9.561   6.034 -0.3191 -2.2297  0.3386
   97MOL0     H13035   4.938   9.547   5.895 -2.6822 -1.2745 -0.0726
   97MOL0     H13036   5.100   9.447   6.085 -0.8371  2.8974  0.2613
   97MOL0     H13037   4.948   9.405   6.156 -0.1976 -0.2953 -0.0479
   97MOL0     H13038   4.977   9.201   6.022 -1.2821 -0.6525 -2.2913
   97MOL0     H13039   4.892   9.302   5.910  1.8549  2.5534 -3.2046
   97MOL0     H13040   5.086   9.210   5.803 -1.1426  1.8030 -1.8555
   97MOL0     H13041   5.092   9.385   5.823  0.4723  0.7516 -0.5434
   97MOL0     H13042   5.265   9.388   5.957 -2.7617 -0.2006  2.3494
   97MOL0     H13043   5.232   9.239   6.051 -1.0979  1.4516  2.1737
   97MOL0     H13044   5.450   9.207   5.934  0.1130  0.2863  0.3958
   97MOL0     H13045   5.386   9.263   5.780  0.6757 -0.0334 -0.3808
   97MOL0     H13046   5.325   9.001   6.063 -0.2420  2.2949 -0.0620
   97MOL0     H13047   5.149   8.682   5.911 -2.4002  0.4667  0.5896
   97MOL0     H13048   5.203   8.751   6.066 -1.1059  0.2515  1.4752
   97MOL0     H13049   4.955   8.877   5.919  2.2466  0.6761 -0.4618
   97MOL0     H13050   5.009   8.904   6.078  0.7112 -0.0600  0.0982
   97MOL0     H13051   4.940   8.667   6.126 -0.0252 -0.4350 -0.6674
   97MOL0     H13052   4.891   8.646   5.963 -0.3739  1.6040 -1.7795
   97MOL0     H13053   4.727   8.815   5.969  0.6291  0.5599  0.6017
   97MOL0     H13054   4.772   8.861   6.136 -0.5032 -0.3451  0.5441
   97MOL0     H13055   4.525   8.892   6.007 -0.4466  1.7284  1.1053
   97MOL0     H13056   4.354   8.992   5.927 -1.4051  1.8615 -0.4325
   97MOL0     H13057   4.204   8.905   5.919 -0.3278  0.9781  0.0864
   97MOL0     H13058   4.210   9.023   6.037 -2.5255 -0.3015 -2.7119
   97MOL0     H13059   3.846   8.655   6.103 -1.6340 -3.9167  2.2856
   97MOL0     H13060   3.618   8.698   6.134  1.6730 -1.6591 -1.7554
   97MOL0     H13061   3.464   8.886   6.536  0.3139  1.1339 -0.4699
   97MOL0     H13062   3.331   8.807   6.451 -0.4763 -0.1702  0.6687
   97MOL0     H13063   3.367   8.606   6.549  0.0508 -1.2179  0.0439
   97MOL0     H13064   3.535   8.609   6.533 -2.3348 -3.7600  0.1457
   97MOL0     H13065   3.394   8.757   6.776 -0.1441 -0.3368  1.4093
   97MOL0     H13066   3.565   8.766   6.728 -1.4367  0.2844  0.1369
   97MOL0     H13067   3.436   8.498   6.766 -1.8965  1.4534  0.8830
   97MOL0     H13068   3.604   8.540   6.814  0.1639 -0.3921  4.4934
   97MOL0     H13069   3.343   8.602   6.973 -0.2389 -0.0736  2.5806
   97MOL0     H13070   3.484   8.702   6.996  0.8556  0.8194 -2.1103
   97MOL0     H13071   3.458   8.394   7.044 -0.2590 -0.3844 -3.7561
   97MOL0     H13072   3.616   8.480   7.041  0.1247 -0.6522 -1.0381
   97MOL0     H13073   3.547   8.640   7.222  0.4138 -0.6468  1.1967
   97MOL0     H13074   3.556   8.473   7.277 -0.1377 -2.2372 -0.1345
   97MOL0     H13075   3.291   8.609   7.201 -3.7133 -1.0145  3.1678
   97MOL0     H13076   3.371   8.610   7.355 -1.1260  0.4095  0.0875
   97MOL0     H13077   3.728   8.794   6.549  2.3880  0.3639 -0.7085
   97MOL0     H13078   3.938   8.750   6.523 -1.2914 -1.4875  0.8782
   97MOL0     H13079   4.285   8.613   6.321  1.3488  0.1797  0.7176
   97MOL0     H13080   4.505   8.570   6.284 -1.0337 -0.2161  2.1698
   97MOL0     H13081   4.913   9.739   6.429  1.8248 -1.5489  1.0755
   97MOL0     H13082   4.858   9.855   6.638  0.3860  4.2139  4.5009
   97MOL0     H13083   4.909  10.184   6.937 -1.2036 -1.6511 -0.2382
   97MOL0     H13084   4.868  10.301   7.127 -0.3084  2.6720  0.5542
   97MOL0     H13085   4.713  10.573   7.337  2.5207  0.4548  0.8876
   97MOL0     H13086   4.841  10.513   7.238  0.4687 -0.3613  1.2560
   97MOL0     H13087   4.707  10.647   7.030 -0.6400 -1.8718 -0.4978
   97MOL0     H13088   4.779  10.742   7.155 -0.9845  1.6223 -0.6573
   97MOL0     H13089   4.520  10.744   7.257 -0.8727 -0.9732  0.1028
   97MOL0     H13090   4.487  10.650   7.111 -0.4491 -3.0136  1.3147
   97MOL0     H13091   4.564  10.845   6.986  0.4024  0.0550  0.6161
   97MOL0     H13092   4.574  10.934   7.146  1.0856  0.4665  0.1015
   97MOL0     H13093   4.170  10.932   7.110 -0.1187 -1.6488  0.3048
   97MOL0     H13094   4.515  10.488   6.992 -0.0218 -0.0151 -0.7155
   97MOL0     H13095   4.538  10.330   6.772  0.1544 -0.7157  1.0019
   98MOL0     O13096   8.570   1.886   6.874 -0.5458 -0.3075 -0.3745
   98MOL0     C13097   8.541   1.869   6.994  0.4298  0.4689 -0.0084
   98MOL0     O13098   8.625   1.814   7.089  0.1995 -0.4836 -0.2276
   98MOL0     C13099   8.753   1.775   7.074 -0.5457  0.3186  0.2686
   98MOL0     C13100   8.833   1.762   6.951  0.3282  0.9493 -0.3886
   98MOL0     C13101   8.966   1.731   6.958 -0.8942 -0.4350  0.8314
   98MOL0     C13102   9.034   1.735   7.082 -0.4832 -0.3108  0.0648
   98MOL0     O13103   9.165   1.715   7.106  0.3583 -0.3604  0.1501
   98MOL0     C13104   9.240   1.807   7.025 -0.5885  0.4338  0.6978
   98MOL0     C13105   9.327   1.734   6.926  0.2921 -0.9258  0.3092
   98MOL0     C13106   9.409   1.834   6.840  0.2442  0.0766 -0.0800
   98MOL0     C13107   9.513   1.917   6.934 -0.0088  0.4206 -0.1184
   98MOL0     C13108   9.626   1.837   7.005 -0.7533 -1.5905  0.0376
   98MOL0     C13109   9.736   1.934   7.053 -0.4547 -0.3810  0.0418
   98MOL0     C13110   9.856   1.853   7.093 -0.4152 -0.1612 -0.2179
   98MOL0     C13111   9.955   1.942   7.177  0.1369  0.5255 -0.3990
   98MOL0     N13112   9.898   1.957   7.316 -0.2755 -0.5336 -0.3374
   98MOL0     C13113   9.840   2.067   7.379  0.1735 -0.4396 -0.2695
   98MOL0     C13114   9.813   2.041   7.510  0.0889  0.8265 -0.3981
   98MOL0     C13115   9.724   2.118   7.598  0.0281  0.1685 -0.1168
   98MOL0     C13116   9.784   2.249   7.642 -0.0771  0.2055  0.4146
   98MOL0     C13117   9.695   2.320   7.742  0.5743  0.7226  0.1373
   98MOL0     C13118   9.585   2.404   7.687 -0.2345 -0.2664  0.3214
   98MOL0     O13119   9.507   2.469   7.794  0.0865 -0.3430  0.4087
   98MOL0     C13120   9.379   2.428   7.825  0.3271  0.4969  0.6929
   98MOL0     C13121   9.331   2.300   7.809 -0.1861 -0.0133  0.3062
   98MOL0     C13122   9.199   2.260   7.829  0.4650 -0.2962 -0.3847
   98MOL0     C13123   9.153   2.113   7.810 -0.8777 -0.2243 -0.5058
   98MOL0     C13124   9.109   2.360   7.871  0.2584 -0.4713 -0.2234
   98MOL0     C13125   8.957   2.338   7.886 -0.5990 -0.5394 -0.5222
   98MOL0     O13126   8.882   2.449   7.914  0.3721  0.6933  0.2914
   98MOL0     C13127   8.744   2.441   7.895 -0.3798  0.5420  0.3736
   98MOL0     C13128   8.667   2.523   7.972  0.6903 -0.2571  0.8177
   98MOL0     C13129   8.525   2.521   7.951  0.3181 -0.0547  0.1362
   98MOL0     C13130   8.466   2.447   7.851 -0.1424 -0.2282  0.1795
   98MOL0     O13131   8.338   2.481   7.817 -0.0877 -0.1549  0.2608
   98MOL0     C13132   8.246   2.368   7.828 -0.0357 -0.2829  0.5313
   98MOL0     C13133   8.159   2.392   7.944  0.1570  0.6732 -0.8843
   98MOL0     C13134   8.042   2.306   7.928 -1.3336  0.2679  0.0285
   98MOL0     C13135   7.947   2.341   8.044 -0.0507  1.0808 -0.6117
   98MOL0     C13136   7.808   2.267   8.026 -1.3293  0.5816  0.1152
   98MOL0     C13137   7.708   2.290   8.137  0.2370  0.0834  0.2405
   98MOL0     C13138   7.682   2.441   8.174  0.0914  0.4390  0.1642
   98MOL0     C13139   7.617   2.463   8.302  1.4912  0.2753 -0.0543
   98MOL0    Cl13140   7.586   2.631   8.330  0.1669 -0.1368  0.2091
   98MOL0     C13141   8.546   2.385   7.767 -0.3925  0.3843 -0.7369
   98MOL0     C13142   8.691   2.382   7.782  0.8069 -0.4274  0.5535
   98MOL0     O13143   8.912   2.225   7.876 -0.3045 -0.1491 -1.1722
   98MOL0     C13144   9.162   2.488   7.898  0.9676 -0.1779 -0.9657
   98MOL0     C13145   9.288   2.521   7.873 -1.0356  0.8082 -0.6320
   98MOL0     N13146   9.859   1.919   7.528  0.9754  0.0157 -0.1514
   98MOL0     N13147   9.910   1.866   7.417  0.1631 -0.6857 -0.3756
   98MOL0     C13148   8.951   1.751   7.193 -0.0046  0.2466 -0.3748
   98MOL0     C13149   8.814   1.768   7.201 -0.5881  0.7866  0.0782
   98MOL0     C13150   8.400   1.892   7.031 -0.5750 -0.5328 -0.5072
   98MOL0     C13151   8.351   1.892   7.161  0.9766  0.0095 -0.4574
   98MOL0     C13152   8.213   1.921   7.183  0.1296  0.1343  0.3820
   98MOL0     C13153   8.116   1.935   7.079  1.2243 -0.0520  0.1018
   98MOL0     O13154   7.984   1.961   7.106  0.2468  0.3472  0.5655
   98MOL0     C13155   7.949   2.085   7.170  0.1328 -0.2117  0.1264
   98MOL0     C13156   7.924   2.199   7.060  1.0155  0.4525 -0.0328
   98MOL0     C13157   7.843   2.329   7.109  0.5791 -0.3211 -0.0923
   98MOL0     C13158   7.717   2.287   7.175  0.2152  0.7280  0.6291
   98MOL0     C13159   7.640   2.407   7.191 -1.2022  0.2680  0.1559
   98MOL0     C13160   7.554   2.496   7.194 -0.1248 -0.1268  0.6661
   98MOL0     C13161   8.160   1.931   6.950  0.4670 -0.3276  0.1930
   98MOL0     C13162   8.300   1.922   6.925 -0.3555  0.7467 -0.1296
   98MOL0     H13163   8.782   1.760   6.855 -0.5939  0.9900  0.0899
   98MOL0     H13164   9.025   1.714   6.868  0.1350 -2.2398  1.8018
   98MOL0     H13165   9.175   1.887   6.987 -0.5965  0.8641  1.5904
   98MOL0     H13166   9.304   1.855   7.099  2.0241  1.5169 -2.0712
   98MOL0     H13167   9.391   1.672   6.989 -1.6781 -3.0458  0.3626
   98MOL0     H13168   9.279   1.658   6.864  0.0597 -2.0966  1.8646
   98MOL0     H13169   9.457   1.770   6.766  1.5679  1.4396 -0.4393
   98MOL0     H13170   9.344   1.901   6.783  1.3006  0.0250 -1.3843
   98MOL0     H13171   9.558   1.999   6.876  1.2551 -0.7536 -0.8625
   98MOL0     H13172   9.455   1.969   7.011  0.6141  1.7463 -0.5219
   98MOL0     H13173   9.587   1.774   7.087  3.5239 -0.2229  3.5288
   98MOL0     H13174   9.674   1.772   6.931  0.7860  1.2919 -1.6413
   98MOL0     H13175   9.769   1.998   6.972 -0.7994 -0.9042 -0.5235
   98MOL0     H13176   9.705   2.011   7.124 -0.2001 -0.0439 -0.2120
   98MOL0     H13177   9.823   1.772   7.159 -0.8064  0.1872  0.0217
   98MOL0     H13178   9.904   1.806   7.007 -1.2061 -2.3878  0.4788
   98MOL0     H13179   9.973   2.044   7.141  1.2499  1.1291  1.7385
   98MOL0     H13180  10.053   1.895   7.184  0.1290  0.5558 -0.0491
   98MOL0     H13181   9.820   2.164   7.335  1.1246 -0.3671 -0.5613
   98MOL0     H13182   9.635   2.147   7.542  0.5251  0.1305 -0.9306
   98MOL0     H13183   9.683   2.058   7.680  0.4981 -1.1943 -0.8612
   98MOL0     H13184   9.801   2.315   7.557  2.5785 -0.7942  0.0811
   98MOL0     H13185   9.882   2.233   7.688  1.4602  3.0600 -1.5707
   98MOL0     H13186   9.756   2.386   7.805  1.0465  1.6625 -1.2476
   98MOL0     H13187   9.644   2.249   7.807  1.5149 -0.6843 -0.5923
   98MOL0     H13188   9.527   2.345   7.616  0.8781  1.0346 -1.7914
   98MOL0     H13189   9.631   2.472   7.614 -0.4304 -0.4679  0.0108
   98MOL0     H13190   9.385   2.218   7.764  0.6973  2.0796 -2.7495
   98MOL0     H13191   9.241   2.052   7.786  0.1597  1.3929 -0.9209
   98MOL0     H13192   9.112   2.079   7.906  1.8414  2.9287  2.0171
   98MOL0     H13193   9.084   2.120   7.725  1.1003  5.3851 -2.0807
   98MOL0     H13194   8.710   2.591   8.045  1.3822 -0.5366  0.6804
   98MOL0     H13195   8.466   2.592   8.009 -0.9022 -1.7652  1.0719
   98MOL0     H13196   8.173   2.360   7.746 -0.2798 -3.0525  0.9207
   98MOL0     H13197   8.291   2.269   7.839  0.0569 -0.1330  1.6177
   98MOL0     H13198   8.209   2.384   8.041  1.3106  3.6318 -1.1318
   98MOL0     H13199   8.123   2.496   7.938 -2.4595  0.0655  1.8283
   98MOL0     H13200   8.083   2.205   7.936  2.8364  1.6340 -1.3167
   98MOL0     H13201   7.988   2.318   7.834 -1.9788 -0.3727  0.3139
   98MOL0     H13202   7.992   2.338   8.143 -0.8896  3.6045 -0.0970
   98MOL0     H13203   7.931   2.448   8.026  2.1100  2.2513  3.3120
   98MOL0     H13204   7.837   2.164   8.004  0.8471  1.1622  0.0307
   98MOL0     H13205   7.768   2.310   7.933 -0.1939  3.3380  0.8078
   98MOL0     H13206   7.613   2.244   8.109 -0.8596  3.1149 -1.3940
   98MOL0     H13207   7.755   2.241   8.224 -1.4172 -2.4424 -0.1925
   98MOL0     H13208   7.617   2.488   8.100  0.1025 -2.5574 -1.9112
   98MOL0     H13209   7.778   2.493   8.184  0.3692  0.1696 -0.9328
   98MOL0     H13210   7.684   2.436   8.384  2.3158  2.6340  0.0947
   98MOL0     H13211   7.528   2.399   8.303  1.5628 -0.0260 -2.9522
   98MOL0     H13212   8.492   2.340   7.684 -1.2816  0.5001 -0.2385
   98MOL0     H13213   8.757   2.328   7.714  0.1908 -1.3315  0.6550
   98MOL0     H13214   9.091   2.562   7.932  0.7619 -0.6023 -0.4598
   98MOL0     H13215   9.342   2.610   7.904  2.0713 -1.1275 -0.0360
   98MOL0     H13216   9.007   1.777   7.282  1.0042 -1.8863 -0.3346
   98MOL0     H13217   8.764   1.772   7.297 -0.8350  2.6403 -0.1031
   98MOL0     H13218   8.415   1.870   7.245  0.9988 -0.6790 -0.6544
   98MOL0     H13219   8.175   1.916   7.285 -2.3639 -0.3291 -0.4911
   98MOL0     H13220   7.856   2.068   7.225  0.4006 -2.0317  0.0822
   98MOL0     H13221   8.030   2.116   7.237 -0.8267  0.4396  1.0160
   98MOL0     H13222   7.872   2.137   6.986  0.7280 -1.6183  1.7981
   98MOL0     H13223   8.017   2.231   7.011  1.7622 -0.9811  0.3938
   98MOL0     H13224   7.821   2.398   7.027 -0.6647  0.2808  0.7204
   98MOL0     H13225   7.906   2.384   7.179  3.2674  0.5106 -2.8898
   98MOL0     H13226   7.735   2.243   7.273 -0.8709  1.6907  1.2786
   98MOL0     H13227   7.662   2.214   7.114  1.8242  0.3533 -0.4590
   98MOL0     H13228   7.483   2.576   7.203  1.7421  1.6918 -0.2645
   98MOL0     H13229   8.097   1.947   6.863  1.2828  2.3770  0.0138
   98MOL0     H13230   8.329   1.938   6.821 -1.9078  0.8466 -0.5650
   99MOL0     O13231   7.246   1.346  10.229  0.8607 -0.3307  0.0083
   99MOL0     C13232   7.132   1.302  10.253 -0.6219  0.2296 -0.1328
   99MOL0     O13233   7.091   1.242  10.376 -0.0730 -0.3441  0.4862
   99MOL0     C13234   7.185   1.236  10.477  0.7141 -0.4619 -0.7051
   99MOL0     C13235   7.239   1.111  10.526  0.1666  0.2411 -0.1806
   99MOL0     C13236   7.338   1.107  10.618  0.0996  0.4868 -0.7337
   99MOL0     C13237   7.386   1.236  10.677  1.0883  0.3800  0.2261
   99MOL0     O13238   7.483   1.242  10.767  0.1449 -0.5274 -0.5572
   99MOL0     C13239   7.498   1.129  10.851 -0.5091 -0.2818 -1.2586
   99MOL0     C13240   7.606   1.038  10.780  0.3605  0.0021 -0.2794
   99MOL0     C13241   7.729   1.116  10.748  0.1086  0.4102 -0.7117
   99MOL0     C13242   7.739   1.184  10.612 -0.2373  0.4112 -0.3813
   99MOL0     C13243   7.882   1.173  10.562  1.0603 -0.4741 -0.0504
   99MOL0     C13244   7.983   1.232  10.650  0.1757  0.7508  0.4084
   99MOL0     C13245   8.101   1.263  10.554  0.2532 -0.2601  0.1536
   99MOL0     C13246   8.242   1.281  10.614  0.4778  0.1666  0.0066
   99MOL0     N13247   8.242   1.378  10.724  0.4539 -0.7223  0.0049
   99MOL0     C13248   8.241   1.512  10.709 -0.0313  0.5196 -0.5496
   99MOL0     C13249   8.266   1.551  10.842  1.0184  0.1412  0.2953
   99MOL0     C13250   8.247   1.692  10.870 -0.4783  1.0701  0.0132
   99MOL0     C13251   8.128   1.731  10.951 -0.2517  0.1897 -0.1518
   99MOL0     C13252   7.992   1.699  10.888 -0.1487 -0.2892  0.8484
   99MOL0     C13253   7.874   1.756  10.969 -0.1913  0.6683  0.0512
   99MOL0     O13254   7.869   1.683  11.094  0.6944 -0.1723  0.2493
   99MOL0     C13255   7.759   1.699  11.170  0.7863 -0.2879 -0.0192
   99MOL0     C13256   7.630   1.751  11.136  0.7360  0.0848 -0.6484
   99MOL0     C13257   7.521   1.744  11.226  0.8814 -0.6590  1.0840
   99MOL0     C13258   7.388   1.801  11.179 -0.1187 -1.2164 -0.1601
   99MOL0     C13259   7.545   1.701  11.359 -0.3277 -0.0656  0.3217
   99MOL0     C13260   7.443   1.696  11.464  0.2662 -0.5467  0.0541
   99MOL0     O13261   7.454   1.603  11.566  0.5897 -0.2045 -0.0264
   99MOL0     C13262   7.398   1.604  11.693 -0.2276 -0.9539 -0.7516
   99MOL0     C13263   7.405   1.724  11.756  0.0796  0.0785  1.6159
   99MOL0     C13264   7.332   1.742  11.874 -0.4801 -0.1783  0.0601
   99MOL0     C13265   7.256   1.643  11.935  0.2192 -0.2009  0.7761
   99MOL0     O13266   7.194   1.654  12.057 -0.6548 -0.9388 -0.5110
   99MOL0     C13267   7.231   1.760  12.151  0.0135 -0.0352 -0.3958
   99MOL0     C13268   7.380   1.749  12.203  0.6227 -0.1121 -0.4122
   99MOL0     C13269   7.414   1.830  12.329 -0.6549  0.9241 -0.7680
   99MOL0     C13270   7.386   1.982  12.318  0.4040 -0.5643 -0.2007
   99MOL0     C13271   7.416   2.049  12.451  0.2862 -0.1822  0.7769
   99MOL0     C13272   7.418   2.201  12.426  1.2153  0.6932 -1.1974
   99MOL0     C13273   7.515   2.256  12.540 -0.1659 -0.9897 -0.9139
   99MOL0     C13274   7.577   2.393  12.495  0.2840 -0.4885 -0.6114
   99MOL0    Cl13275   7.657   2.483  12.619 -0.2845 -0.2018 -0.3995
   99MOL0     C13276   7.260   1.521  11.871  0.4233  1.5204 -0.8360
   99MOL0     C13277   7.314   1.500  11.740  0.3349  0.1413 -0.9572
   99MOL0     O13278   7.339   1.767  11.444 -0.3995  0.0241 -1.0949
   99MOL0     C13279   7.672   1.651  11.383 -0.1026 -0.2944 -1.3133
   99MOL0     C13280   7.783   1.657  11.293  0.1307 -0.5819 -0.7745
   99MOL0     N13281   8.277   1.447  10.933 -0.1525 -0.2332 -0.3656
   99MOL0     N13282   8.267   1.342  10.854 -0.5805 -0.2379 -0.3271
   99MOL0     C13283   7.334   1.354  10.625  0.5625  0.0546  0.8782
   99MOL0     C13284   7.237   1.357  10.525 -0.0524 -0.2083 -0.5891
   99MOL0     C13285   7.042   1.289  10.139  0.8790  0.7169  0.5636
   99MOL0     C13286   6.902   1.245  10.160  0.0288  0.0081  0.4165
   99MOL0     C13287   6.802   1.262  10.058 -0.0344  0.1049 -1.0987
   99MOL0     C13288   6.836   1.320   9.943  0.5768 -0.7770  1.2313
   99MOL0     O13289   6.741   1.346   9.840  0.1272 -0.8788  0.5980
   99MOL0     C13290   6.749   1.487   9.787 -0.2094 -0.4249 -0.5506
   99MOL0     C13291   6.637   1.530   9.683  0.0087  0.0471 -1.3821
   99MOL0     C13292   6.644   1.448   9.561  0.2982 -0.7799  0.7280
   99MOL0     C13293   6.543   1.467   9.443  0.0374  0.8580  0.1669
   99MOL0     C13294   6.406   1.448   9.490  0.7816 -0.1682 -0.5033
   99MOL0     C13295   6.289   1.448   9.528 -0.4562  0.5485 -0.4826
   99MOL0     C13296   6.971   1.340   9.911 -0.4573  0.2880  0.6365
   99MOL0     C13297   7.068   1.333  10.008  1.4209 -0.4705 -0.2525
   99MOL0     H13298   7.204   1.013  10.497  1.7259 -0.6230  0.6720
   99MOL0     H13299   7.372   1.007  10.646 -0.1042 -0.4204 -3.4657
   99MOL0     H13300   7.534   1.164  10.948  0.9733 -1.7465 -1.2284
   99MOL0     H13301   7.410   1.065  10.857  0.4906 -2.2479 -4.5670
   99MOL0     H13302   7.626   0.958  10.851  0.8770  1.1932  0.9594
   99MOL0     H13303   7.565   0.996  10.688 -0.5298 -2.3994  1.1149
   99MOL0     H13304   7.743   1.190  10.827 -0.8738 -0.6594  0.5149
   99MOL0     H13305   7.809   1.046  10.773 -0.8828 -1.0428 -1.4756
   99MOL0     H13306   7.681   1.124  10.541 -0.0742 -0.4787  0.2151
   99MOL0     H13307   7.704   1.287  10.607 -2.9631 -0.4548 -1.6805
   99MOL0     H13308   7.900   1.067  10.539  0.7797 -0.5826  0.2165
   99MOL0     H13309   7.886   1.233  10.471 -3.1435  2.5460  1.4223
   99MOL0     H13310   7.953   1.322  10.704  1.5449  2.1323 -1.0346
   99MOL0     H13311   8.011   1.155  10.722 -0.6716 -0.3133 -0.3767
   99MOL0     H13312   8.110   1.185  10.478 -1.3069 -0.5262  0.2134
   99MOL0     H13313   8.079   1.353  10.497  2.3289  0.8521  1.0080
   99MOL0     H13314   8.315   1.312  10.538 -0.5998  1.1554 -0.6567
   99MOL0     H13315   8.274   1.182  10.647 -0.0211 -0.4456 -1.3166
   99MOL0     H13316   8.213   1.572  10.623 -0.3671  0.5498 -0.4200
   99MOL0     H13317   8.336   1.724  10.926 -0.6382  0.8994  0.3662
   99MOL0     H13318   8.240   1.751  10.778 -2.7566 -1.4318 -1.5756
   99MOL0     H13319   8.138   1.837  10.977 -1.4745  0.0768  0.8554
   99MOL0     H13320   8.150   1.680  11.045  1.7309  2.8863  1.0125
   99MOL0     H13321   7.982   1.592  10.871 -1.4137 -0.3109  1.6009
   99MOL0     H13322   7.999   1.749  10.791  2.9991 -0.4365  0.9026
   99MOL0     H13323   7.783   1.738  10.912 -1.4660  0.8088  1.9285
   99MOL0     H13324   7.866   1.863  10.989 -1.1571  0.9936 -1.9454
   99MOL0     H13325   7.610   1.793  11.037 -3.2558  0.9948  0.3908
   99MOL0     H13326   7.394   1.909  11.197  1.6129 -0.7822 -2.8150
   99MOL0     H13327   7.382   1.791  11.070  2.7617  0.3725 -0.5551
   99MOL0     H13328   7.297   1.752  11.214  0.2795 -2.7632 -1.1614
   99MOL0     H13329   7.465   1.809  11.724  1.9559 -1.0013  2.1264
   99MOL0     H13330   7.339   1.836  11.930 -2.4324 -2.0950  3.9631
   99MOL0     H13331   7.217   1.860  12.108  0.5107  0.2538  0.0907
   99MOL0     H13332   7.162   1.756  12.236 -0.6151 -0.5553 -0.9185
   99MOL0     H13333   7.390   1.648  12.245 -2.5317 -0.0466  0.7629
   99MOL0     H13334   7.452   1.775  12.125  0.5464  0.5042 -0.2763
   99MOL0     H13335   7.521   1.813  12.348 -0.6544 -1.6291 -2.5159
   99MOL0     H13336   7.365   1.774  12.409  1.2035  1.1461  0.6006
   99MOL0     H13337   7.449   2.027  12.241 -0.7088  0.8940 -0.3145
   99MOL0     H13338   7.282   2.002  12.292 -0.3924  1.0492  3.5200
   99MOL0     H13339   7.513   2.001  12.469 -0.4005 -1.5143  1.0937
   99MOL0     H13340   7.336   2.017  12.519 -1.6928  0.1830 -1.2904
   99MOL0     H13341   7.460   2.213  12.325 -0.2333 -1.1266 -2.0816
   99MOL0     H13342   7.317   2.243  12.437  0.7871 -0.7190  0.7675
   99MOL0     H13343   7.597   2.187  12.560  1.0669  0.7058  0.1776
   99MOL0     H13344   7.461   2.284  12.631  1.1667 -0.2801 -0.3006
   99MOL0     H13345   7.493   2.450  12.453  1.0437 -0.7123 -2.5745
   99MOL0     H13346   7.643   2.378  12.408  2.1035 -2.5723  1.0211
   99MOL0     H13347   7.211   1.436  11.919  1.4372  2.7579  2.7180
   99MOL0     H13348   7.309   1.407  11.683 -1.3037  0.0446 -0.7259
   99MOL0     H13349   7.693   1.608  11.481  1.3060  1.7579 -0.6536
   99MOL0     H13350   7.884   1.628  11.317 -0.1270  0.0974  1.2966
   99MOL0     H13351   7.367   1.451  10.661 -1.5180  0.6014  1.4926
   99MOL0     H13352   7.183   1.447  10.501  0.4544  0.4803  0.7531
   99MOL0     H13353   6.866   1.210  10.256  0.9429 -0.0881  0.7279
   99MOL0     H13354   6.697   1.268  10.083  0.0623  0.3785 -0.7532
   99MOL0     H13355   6.767   1.559   9.868  2.3075 -2.2144  0.5908
   99MOL0     H13356   6.849   1.491   9.743 -0.0802 -2.7289 -0.5444
   99MOL0     H13357   6.649   1.633   9.650 -0.3005 -0.4758 -3.2005
   99MOL0     H13358   6.540   1.519   9.732  1.1709 -0.1199  1.0355
   99MOL0     H13359   6.637   1.346   9.600  1.8906 -0.4433  1.9582
   99MOL0     H13360   6.745   1.461   9.521 -0.5646 -0.1803 -1.4562
   99MOL0     H13361   6.574   1.392   9.369  0.2246 -1.3090  2.3286
   99MOL0     H13362   6.572   1.568   9.410  2.5334 -0.0118 -0.5348
   99MOL0     H13363   6.185   1.461   9.550 -0.3873  1.1123 -0.4860
   99MOL0     H13364   7.006   1.378   9.815 -0.3138  2.2347  1.4168
   99MOL0     H13365   7.170   1.360   9.982  1.6175  0.5466  1.3984
  100MOL0     O13366   2.148   6.415   0.378 -0.7305 -0.3227  0.1150
  100MOL0     C13367   2.197   6.494   0.455  0.4339  0.0698 -0.2157
  100MOL0     O13368   2.326   6.504   0.491  1.2101 -1.1842  0.4912
  100MOL0     C13369   2.418   6.409   0.469 -0.7042  0.1570 -0.1598
  100MOL0     C13370   2.485   6.365   0.576 -0.8898 -0.0863  0.2315
  100MOL0     C13371   2.572   6.253   0.558 -0.4083 -0.0139 -0.1894
  100MOL0     C13372   2.608   6.214   0.431  0.2477  0.0945 -0.0001
  100MOL0     O13373   2.723   6.133   0.427  0.2077  0.6177 -0.8037
  100MOL0     C13374   2.791   6.108   0.310  0.4533  0.7871 -0.0842
  100MOL0     C13375   2.920   6.028   0.334  0.9679 -0.5527  0.1058
  100MOL0     C13376   2.990   6.024   0.205  0.3645  0.5499 -0.0136
  100MOL0     C13377   3.124   5.943   0.224  0.2344 -1.0299  0.1095
  100MOL0     C13378   3.154   5.868   0.105 -0.8537 -0.3931 -0.6942
  100MOL0     C13379   3.310   5.809   0.108  0.1170 -0.2534  0.2932
  100MOL0     C13380   3.331   5.699   0.210 -0.1733  0.5559  0.1246
  100MOL0     C13381   3.476   5.636   0.237  0.0882  0.2052  0.0013
  100MOL0     N13382   3.547   5.576   0.118 -0.0737  0.4234  0.1392
  100MOL0     C13383   3.538   5.454   0.056  0.3898  1.0019  0.2601
  100MOL0     C13384   3.631   5.457  -0.034  0.3329  0.7470 -0.6505
  100MOL0     C13385   3.658   5.334  -0.120  0.3789  0.8315 -1.1019
  100MOL0     C13386   3.769   5.262  -0.042  0.3040 -0.0291  0.5005
  100MOL0     C13387   3.798   5.126  -0.109 -0.2244 -0.2149  1.2674
  100MOL0     C13388   3.692   5.020  -0.080 -0.4699 -0.1435 -0.4158
  100MOL0     O13389   3.595   5.031  -0.178 -1.2257 -0.1975 -0.5004
  100MOL0     C13390   3.479   4.960  -0.164 -0.0100 -1.3136  0.0422
  100MOL0     C13391   3.387   4.970  -0.269 -0.8729 -0.4164 -0.0327
  100MOL0     C13392   3.265   4.908  -0.279 -0.4595  0.2453 -0.6986
  100MOL0     C13393   3.186   4.909  -0.401 -0.1739  0.6492  0.5827
  100MOL0     C13394   3.235   4.827  -0.168  0.6209 -0.5946  0.2944
  100MOL0     C13395   3.107   4.749  -0.152 -0.3233 -0.6456 -0.7159
  100MOL0     O13396   3.104   4.633  -0.074  0.2249 -0.5674  0.1411
  100MOL0     C13397   2.972   4.600  -0.033 -0.5410  0.9632  0.2435
  100MOL0     C13398   2.866   4.553  -0.110 -0.6408  0.3759 -0.1551
  100MOL0     C13399   2.743   4.508  -0.048  0.4116 -0.2143  0.4506
  100MOL0     C13400   2.723   4.500   0.091 -0.2847  0.3398 -0.1588
  100MOL0     O13401   2.610   4.448   0.146 -0.4031  0.1202 -0.1352
  100MOL0     C13402   2.610   4.449   0.293 -0.7018  0.5105 -0.0946
  100MOL0     C13403   2.473   4.407   0.344  0.7279 -0.1250 -0.2668
  100MOL0     C13404   2.422   4.264   0.308 -0.0838  0.0681 -0.2175
  100MOL0     C13405   2.268   4.257   0.302 -0.8429 -0.5590  0.6285
  100MOL0     C13406   2.243   4.107   0.265  1.0413  1.1445  0.5594
  100MOL0     C13407   2.089   4.082   0.281  0.2313  0.8433 -0.1151
  100MOL0     C13408   2.036   3.944   0.233 -0.8073 -0.4330  0.4265
  100MOL0     C13409   1.886   3.942   0.245 -0.5229  0.0798  0.5929
  100MOL0    Cl13410   1.822   3.787   0.174  0.1872 -0.0895  0.2349
  100MOL0     C13411   2.844   4.545   0.169 -0.4299  0.1338 -0.4250
  100MOL0     C13412   2.956   4.602   0.106 -0.1140 -0.4885  0.0719
  100MOL0     O13413   3.016   4.795  -0.218 -0.2365 -0.1870  0.0947
  100MOL0     C13414   3.315   4.817  -0.059 -0.0815  0.0362 -0.6491
  100MOL0     C13415   3.450   4.874  -0.058  0.6516 -0.3092  0.5482
  100MOL0     N13416   3.699   5.570  -0.035 -0.1469 -0.0645  0.1907
  100MOL0     N13417   3.642   5.641   0.049 -0.1743  0.1046 -0.3159
  100MOL0     C13418   2.544   6.264   0.319 -1.9605 -0.3462  0.0907
  100MOL0     C13419   2.452   6.364   0.340  0.4718  0.5053  0.1744
  100MOL0     C13420   2.116   6.591   0.527 -0.7474 -0.1613 -0.8823
  100MOL0     C13421   2.166   6.696   0.603  0.2683  0.5245  0.0139
  100MOL0     C13422   2.083   6.780   0.679  0.3038  0.3919  0.8172
  100MOL0     C13423   1.946   6.756   0.676  0.9958  0.3796 -0.4926
  100MOL0     O13424   1.849   6.830   0.741  0.5842 -0.4560  0.2428
  100MOL0     C13425   1.888   6.921   0.849  0.3773  0.6057  0.1615
  100MOL0     C13426   1.954   6.859   0.969 -0.4452 -0.5407 -0.1693
  100MOL0     C13427   1.970   6.960   1.083  0.7774 -0.1853 -0.3607
  100MOL0     C13428   2.060   6.908   1.201 -0.0885 -0.4134 -0.0362
  100MOL0     C13429   2.052   7.004   1.314  0.3263  0.3178 -0.5444
  100MOL0     C13430   2.060   7.067   1.418  0.0906  0.8489  0.1209
  100MOL0     C13431   1.894   6.658   0.589  0.1246  0.1616  0.5863
  100MOL0     C13432   1.974   6.573   0.513 -1.2177 -0.1632 -0.6468
  100MOL0     H13433   2.469   6.412   0.672 -0.8818  1.0848 -0.3300
  100MOL0     H13434   2.624   6.210   0.642 -1.5441 -0.0866  0.5034
  100MOL0     H13435   2.738   6.056   0.230  1.5642  0.6853 -0.7728
  100MOL0     H13436   2.819   6.209   0.280  4.3600  0.0886  0.7153
  100MOL0     H13437   2.986   6.064   0.413  3.6690  0.4929 -2.4294
  100MOL0     H13438   2.881   5.933   0.370 -0.8304  0.5362  1.1842
  100MOL0     H13439   2.923   5.976   0.132 -1.1347 -0.2414  1.7884
  100MOL0     H13440   3.002   6.130   0.183  1.6505  0.5665  0.6640
  100MOL0     H13441   3.203   6.017   0.245 -2.0412  1.3774  0.6772
  100MOL0     H13442   3.140   5.873   0.306 -0.3036  0.4413  1.5182
  100MOL0     H13443   3.080   5.791   0.083 -3.2318  1.1227  1.4663
  100MOL0     H13444   3.150   5.936   0.019  0.7970 -0.1854 -0.6492
  100MOL0     H13445   3.334   5.775   0.007 -2.1173  1.5770 -0.9810
  100MOL0     H13446   3.376   5.895   0.125 -0.7463  1.2902 -3.1629
  100MOL0     H13447   3.294   5.744   0.303  0.5918 -2.8794  2.2849
  100MOL0     H13448   3.265   5.622   0.168  0.4710  1.4327 -2.6832
  100MOL0     H13449   3.471   5.573   0.326 -2.3635 -0.0092 -0.2385
  100MOL0     H13450   3.548   5.713   0.270  1.7291 -2.2574  2.6120
  100MOL0     H13451   3.466   5.376   0.082 -1.0779  2.5962  1.1776
  100MOL0     H13452   3.571   5.270  -0.138 -0.5994  1.7971  0.0898
  100MOL0     H13453   3.704   5.366  -0.214  3.1633  0.8950  0.1857
  100MOL0     H13454   3.751   5.252   0.066  2.2395  0.5345  0.9140
  100MOL0     H13455   3.862   5.318  -0.059 -0.6808  0.7165 -3.3095
  100MOL0     H13456   3.895   5.085  -0.081  1.3240  0.8977 -2.0018
  100MOL0     H13457   3.789   5.153  -0.215 -2.1528  1.1698  1.6991
  100MOL0     H13458   3.665   5.019   0.025  5.7798 -1.2228  1.6300
  100MOL0     H13459   3.742   4.925  -0.103 -4.1447 -2.2561 -0.3817
  100MOL0     H13460   3.398   5.028  -0.360 -2.4792  1.4829  0.9188
  100MOL0     H13461   3.235   4.961  -0.484 -0.8406  1.4996  0.7087
  100MOL0     H13462   3.165   4.810  -0.443 -2.0631  2.0795 -2.1491
  100MOL0     H13463   3.088   4.956  -0.390  0.8018  2.1525  4.2581
  100MOL0     H13464   2.902   4.552  -0.213  0.4900  2.5918  0.1614
  100MOL0     H13465   2.662   4.468  -0.108  0.1860  0.6502  0.1621
  100MOL0     H13466   2.687   4.385   0.335 -2.6652 -1.0310  1.3026
  100MOL0     H13467   2.637   4.552   0.320 -1.3061  1.4417 -2.6420
  100MOL0     H13468   2.471   4.433   0.450 -1.5439  2.0478 -0.7432
  100MOL0     H13469   2.396   4.473   0.302 -0.0674 -0.3111  0.8495
  100MOL0     H13470   2.457   4.184   0.374  0.4716  0.2019 -0.3462
  100MOL0     H13471   2.457   4.239   0.207 -1.3995 -1.6318 -0.3103
  100MOL0     H13472   2.236   4.276   0.405 -1.2347 -1.3033  0.6513
  100MOL0     H13473   2.218   4.330   0.237  1.2973  0.0298 -0.4624
  100MOL0     H13474   2.306   4.040   0.324 -0.0436  2.3641  3.2607
  100MOL0     H13475   2.269   4.089   0.160  2.3902  0.5510  0.9756
  100MOL0     H13476   2.083   4.088   0.390  4.6130 -0.4013  0.3979
  100MOL0     H13477   2.033   4.163   0.233 -0.9571  0.4150  0.5100
  100MOL0     H13478   2.059   3.853   0.289 -1.8667 -1.5811 -0.8972
  100MOL0     H13479   2.066   3.927   0.129  2.4112 -1.2427  1.3819
  100MOL0     H13480   1.835   4.030   0.206  1.2552  1.2234  0.7085
  100MOL0     H13481   1.868   3.948   0.353  2.0210  0.0794  1.0991
  100MOL0     H13482   2.838   4.565   0.275  1.2719  0.3458 -0.3494
  100MOL0     H13483   3.036   4.642   0.167 -0.3088 -0.6420  0.4254
  100MOL0     H13484   3.271   4.769   0.029  1.3123  1.1570  0.7203
  100MOL0     H13485   3.520   4.868   0.024 -1.3050  0.9183  2.3974
  100MOL0     H13486   2.566   6.237   0.216 -4.3924 -0.3716 -0.4735
  100MOL0     H13487   2.404   6.400   0.250  0.7291  2.0004  0.6076
  100MOL0     H13488   2.273   6.713   0.611  0.7311 -2.1106 -0.0007
  100MOL0     H13489   2.129   6.856   0.741 -0.9045 -1.2250  3.9051
  100MOL0     H13490   1.941   7.010   0.812 -0.6302  1.7379  1.3644
  100MOL0     H13491   1.798   6.970   0.887 -0.7732 -0.7129 -0.7855
  100MOL0     H13492   2.056   6.833   0.936  0.3161  1.3180  0.5920
  100MOL0     H13493   1.896   6.772   0.999  0.7601 -1.9806 -1.7908
  100MOL0     H13494   1.866   6.974   1.112 -0.8484 -0.9558 -4.8753
  100MOL0     H13495   2.013   7.057   1.053 -1.8336  0.5561 -2.0698
  100MOL0     H13496   2.157   6.868   1.171  0.9234 -1.0809  3.6060
  100MOL0     H13497   2.016   6.815   1.240 -0.3691 -0.3102 -0.1062
  100MOL0     H13498   2.048   7.134   1.500  0.4461  1.4368 -0.3061
  100MOL0     H13499   1.787   6.637   0.590  0.1720 -0.0540  1.0390
  100MOL0     H13500   1.940   6.499   0.441 -1.1320 -0.6308 -0.2176
  101MOL0     O13501   5.332  10.710   2.153  0.0798  0.4916 -0.6971
  101MOL0     C13502   5.237  10.761   2.092 -0.5676  0.5876 -1.3617
  101MOL0     O13503   5.169  10.707   1.998 -1.2968  0.6687 -0.7887
  101MOL0     C13504   5.203  10.580   1.971 -0.7314  0.5354 -0.0019
  101MOL0     C13505   5.125  10.483   2.016  0.9654 -0.3994 -0.5989
  101MOL0     C13506   5.169  10.348   2.010 -0.6568  0.4557  0.5614
  101MOL0     C13507   5.295  10.312   1.959  0.5116 -0.2929 -0.7273
  101MOL0     O13508   5.346  10.186   1.945 -0.7290  0.5825 -0.3748
  101MOL0     C13509   5.305  10.091   2.044 -0.3250 -0.0385 -0.2955
  101MOL0     C13510   5.336   9.953   1.995 -0.0269  0.9198  0.6731
  101MOL0     C13511   5.286   9.908   1.857  0.1512 -0.1690  0.0229
  101MOL0     C13512   5.399   9.849   1.777  0.2011  0.5177  0.0049
  101MOL0     C13513   5.370   9.842   1.627 -0.3766 -0.0134 -0.0704
  101MOL0     C13514   5.469   9.921   1.550 -0.1467  0.4666 -0.8135
  101MOL0     C13515   5.460  10.071   1.590  1.1920  0.0838  0.3922
  101MOL0     C13516   5.583  10.144   1.540  0.4050  0.6163  0.1977
  101MOL0     N13517   5.593  10.284   1.580 -0.2143  0.1543  1.5086
  101MOL0     C13518   5.494  10.383   1.582  0.6088  0.5372  0.3698
  101MOL0     C13519   5.567  10.496   1.592  0.3944 -0.2987  0.4149
  101MOL0     C13520   5.509  10.636   1.564 -0.6542 -0.0094  0.9251
  101MOL0     C13521   5.599  10.749   1.606  1.0452 -0.8053 -0.4468
  101MOL0     C13522   5.699  10.781   1.494  0.5534 -0.6344 -0.6567
  101MOL0     C13523   5.821  10.860   1.551  0.4095  0.3515  0.4618
  101MOL0     O13524   5.776  10.964   1.635 -0.2076 -0.3106 -0.1934
  101MOL0     C13525   5.796  11.088   1.589  0.5181 -0.7969  0.4659
  101MOL0     C13526   5.838  11.190   1.679 -0.2584 -0.5970  0.8514
  101MOL0     C13527   5.842  11.327   1.638  0.0262 -0.2835 -1.4339
  101MOL0     C13528   5.896  11.443   1.739 -0.0335 -0.7420 -0.7659
  101MOL0     C13529   5.804  11.368   1.510 -0.6517  0.4287 -0.0272
  101MOL0     C13530   5.801  11.502   1.466  0.0022  0.0035  0.1776
  101MOL0     O13531   5.698  11.577   1.524 -0.5170  0.4768 -0.5978
  101MOL0     C13532   5.692  11.716   1.556 -0.0733  0.0126  0.7118
  101MOL0     C13533   5.786  11.812   1.526  0.6715 -1.2837  0.6648
  101MOL0     C13534   5.773  11.945   1.569 -0.2062  0.6991  0.0104
  101MOL0     C13535   5.669  11.982   1.651  0.7499 -1.3785 -0.4499
  101MOL0     O13536   5.663  12.111   1.707 -0.6289  0.4188  0.4232
  101MOL0     C13537   5.669  12.119   1.856 -1.0607  0.9329 -0.3451
  101MOL0     C13538   5.798  12.058   1.915 -0.0418  0.2820  0.0494
  101MOL0     C13539   5.801  11.913   1.913  0.3557  2.0397 -0.3274
  101MOL0     C13540   5.877  11.854   2.037  0.0065 -0.1679 -0.5188
  101MOL0     C13541   5.874  11.705   2.032  0.0456 -0.3946  0.5727
  101MOL0     C13542   5.931  11.639   2.158 -0.0313 -0.1699  0.2638
  101MOL0     C13543   5.931  11.486   2.155  0.7531 -0.1517  0.2171
  101MOL0     C13544   6.014  11.423   2.272  0.7703  0.0413 -0.9280
  101MOL0    Cl13545   5.979  11.486   2.441  0.1557  0.9919  0.1821
  101MOL0     C13546   5.568  11.885   1.687  0.1574  0.7289  0.4950
  101MOL0     C13547   5.573  11.752   1.638 -0.6224  0.6482  0.3557
  101MOL0     O13548   5.872  11.543   1.368  0.5553  0.3674 -0.7038
  101MOL0     C13549   5.771  11.260   1.416 -0.0570  0.0270 -0.1522
  101MOL0     C13550   5.752  11.128   1.462 -0.1439  0.0097 -0.0051
  101MOL0     N13551   5.704  10.466   1.611 -0.2107  0.4278 -0.5236
  101MOL0     N13552   5.713  10.337   1.601 -0.2916 -0.6306  0.0555
  101MOL0     C13553   5.371  10.416   1.907  0.1974 -0.4857 -0.3075
  101MOL0     C13554   5.330  10.549   1.909  0.4906  0.1400 -0.0719
  101MOL0     C13555   5.208  10.894   2.141  0.3991  0.8045 -0.3058
  101MOL0     C13556   5.110  10.970   2.073  0.9845 -0.7769  0.7013
  101MOL0     C13557   5.073  11.094   2.118  0.2916 -0.1703 -0.5635
  101MOL0     C13558   5.131  11.148   2.238 -0.6809 -0.0058  0.7702
  101MOL0     O13559   5.110  11.268   2.290 -0.6382 -0.1934  0.2137
  101MOL0     C13560   5.049  11.368   2.210 -0.3723  0.0761  0.4729
  101MOL0     C13561   5.055  11.495   2.295 -1.3246  1.2801  0.2982
  101MOL0     C13562   5.214  11.533   2.294 -0.1623  0.9028  1.0963
  101MOL0     C13563   5.233  11.649   2.395  0.5874  0.7266  0.0273
  101MOL0     C13564   5.148  11.769   2.382 -0.6176  0.1582  1.4947
  101MOL0     C13565   5.066  11.852   2.353 -0.0018 -0.3457  0.6476
  101MOL0     C13566   5.218  11.067   2.307  0.2029 -0.3152  0.2404
  101MOL0     C13567   5.256  10.945   2.266 -0.1971 -0.2311 -0.1260
  101MOL0     H13568   5.030  10.515   2.059  1.8669 -0.4337  1.5452
  101MOL0     H13569   5.096  10.281   2.055  1.0656 -1.9398 -0.0455
  101MOL0     H13570   5.357  10.106   2.139 -0.5118 -1.5081  0.0628
  101MOL0     H13571   5.197  10.093   2.061 -0.4916 -1.4341 -1.0015
  101MOL0     H13572   5.443   9.936   2.007 -0.2578 -1.5024 -0.1167
  101MOL0     H13573   5.287   9.890   2.070  1.5963 -1.0799  0.1461
  101MOL0     H13574   5.211   9.829   1.864 -0.4955  0.4921  0.8943
  101MOL0     H13575   5.232   9.994   1.815 -2.6815 -2.2219 -0.8626
  101MOL0     H13576   5.494   9.898   1.801 -0.0203 -0.6271  3.9919
  101MOL0     H13577   5.406   9.743   1.805 -0.4594  0.8270  1.4491
  101MOL0     H13578   5.402   9.743   1.594  1.2588  0.0780  1.0812
  101MOL0     H13579   5.266   9.860   1.600 -0.4576 -1.7963 -1.0776
  101MOL0     H13580   5.569   9.883   1.571  0.4584  2.1636 -0.4350
  101MOL0     H13581   5.451   9.913   1.443  0.6946  0.5708 -0.9701
  101MOL0     H13582   5.364  10.106   1.550  0.6124 -0.5843  1.1702
  101MOL0     H13583   5.442  10.082   1.697 -1.8784  1.6630 -0.1806
  101MOL0     H13584   5.589  10.136   1.431  1.5581  3.4183 -0.0609
  101MOL0     H13585   5.665  10.086   1.583  0.2805  1.1737  1.2402
  101MOL0     H13586   5.388  10.372   1.559  0.2805 -0.2065  2.0893
  101MOL0     H13587   5.485  10.641   1.458  1.5555 -1.9523  0.2626
  101MOL0     H13588   5.417  10.640   1.623  0.3043 -0.3179  2.5178
  101MOL0     H13589   5.651  10.729   1.700 -1.3995  2.3080  1.7612
  101MOL0     H13590   5.541  10.836   1.637  3.0629 -0.4145  2.6671
  101MOL0     H13591   5.639  10.845   1.429 -0.9119 -0.1107  1.1224
  101MOL0     H13592   5.727  10.693   1.437  2.0704 -0.3046 -0.4627
  101MOL0     H13593   5.874  10.905   1.466  0.3837  2.8801  1.6910
  101MOL0     H13594   5.887  10.789   1.602 -0.6248 -0.9110  0.1007
  101MOL0     H13595   5.875  11.157   1.775 -2.1848  1.5090  2.4436
  101MOL0     H13596   5.917  11.409   1.841  0.0261  1.1803 -0.0977
  101MOL0     H13597   5.987  11.487   1.697 -0.1462  0.2160 -0.0247
  101MOL0     H13598   5.819  11.517   1.764  0.4161 -0.1450 -1.1275
  101MOL0     H13599   5.880  11.796   1.474  1.0711  2.6572 -0.1711
  101MOL0     H13600   5.851  12.014   1.538  0.9000 -1.1163 -1.4784
  101MOL0     H13601   5.667  12.218   1.901 -1.3410  0.7304  0.1008
  101MOL0     H13602   5.582  12.068   1.898  0.1133 -1.6775 -0.8570
  101MOL0     H13603   5.881  12.099   1.858  0.0428 -3.3075 -2.7536
  101MOL0     H13604   5.797  12.088   2.021 -0.5738  1.5272 -0.2936
  101MOL0     H13605   5.851  11.880   1.822 -0.1061 -0.9153  0.3981
  101MOL0     H13606   5.706  11.861   1.911  1.6104 -0.4322 -3.0731
  101MOL0     H13607   5.976  11.899   2.050 -0.0606  0.1382 -1.0364
  101MOL0     H13608   5.812  11.880   2.121 -1.5619  0.1000 -1.7597
  101MOL0     H13609   5.938  11.666   1.952  0.4893 -0.8190  1.1307
  101MOL0     H13610   5.776  11.663   2.006  0.1737  0.7685 -2.1043
  101MOL0     H13611   6.028  11.685   2.177 -0.2437  0.7889 -0.8691
  101MOL0     H13612   5.878  11.673   2.248 -0.8602  3.0539 -1.3018
  101MOL0     H13613   5.968  11.453   2.058  0.3636  0.6297 -0.2115
  101MOL0     H13614   5.825  11.458   2.157  0.9837 -1.0193  0.7775
  101MOL0     H13615   6.119  11.436   2.243  0.4008  2.6641 -1.2816
  101MOL0     H13616   5.986  11.317   2.277  1.3011 -0.1346 -1.5738
  101MOL0     H13617   5.491  11.918   1.756 -1.6094  1.2068 -1.5601
  101MOL0     H13618   5.501  11.676   1.668  1.2360 -1.6701 -0.6347
  101MOL0     H13619   5.749  11.283   1.312 -0.2186  2.4040  0.3394
  101MOL0     H13620   5.702  11.050   1.404 -0.0416 -1.3470  1.6407
  101MOL0     H13621   5.469  10.397   1.863  1.2282 -1.6670  2.3034
  101MOL0     H13622   5.381  10.632   1.861  0.6854  0.4712  0.6834
  101MOL0     H13623   5.068  10.929   1.982 -0.9353  0.0582  1.1710
  101MOL0     H13624   4.991  11.149   2.073  2.2156  3.1774 -0.2656
  101MOL0     H13625   5.104  11.386   2.117  1.0811 -0.2821  1.2376
  101MOL0     H13626   4.946  11.335   2.195 -0.3034 -0.9351  2.0140
  101MOL0     H13627   5.013  11.476   2.394  2.9744  1.5849  2.4254
  101MOL0     H13628   5.001  11.581   2.256  0.2785  1.8988 -0.6864
  101MOL0     H13629   5.251  11.563   2.196 -2.4759  1.7939  0.4362
  101MOL0     H13630   5.281  11.455   2.332  1.3383  1.5141 -0.2083
  101MOL0     H13631   5.335  11.687   2.381  0.4759  0.6616 -1.0430
  101MOL0     H13632   5.221  11.615   2.498  0.3503 -0.1652 -0.2833
  101MOL0     H13633   4.996  11.932   2.339  0.0725 -0.2972  0.5568
  101MOL0     H13634   5.250  11.111   2.400 -3.4972 -1.5366  2.2707
  101MOL0     H13635   5.319  10.890   2.335 -0.9409  0.2695  0.9797
  102MOL0     O13636   5.126   7.923   6.183 -0.1637 -0.7532  0.6521
  102MOL0     C13637   5.216   7.985   6.248 -0.0422  1.0947  0.0294
  102MOL0     O13638   5.260   8.116   6.233 -0.6088 -0.3732  0.2404
  102MOL0     C13639   5.214   8.193   6.133  0.5109 -1.0782  0.0756
  102MOL0     C13640   5.266   8.172   5.999  0.4362 -0.2404 -0.6074
  102MOL0     C13641   5.215   8.247   5.897  0.9533 -0.5800 -0.8634
  102MOL0     C13642   5.122   8.351   5.913 -0.8750  0.8674  0.4144
  102MOL0     O13643   5.092   8.430   5.811 -0.2866 -0.3937  0.0579
  102MOL0     C13644   4.949   8.411   5.777 -0.0791 -0.1268  0.1105
  102MOL0     C13645   4.914   8.523   5.675 -0.4864  0.4044 -0.3054
  102MOL0     C13646   4.761   8.530   5.650 -0.0677  0.3676  0.3900
  102MOL0     C13647   4.734   8.629   5.534 -0.0315 -0.8929  0.5005
  102MOL0     C13648   4.582   8.661   5.533  0.3213  0.2085 -0.1951
  102MOL0     C13649   4.534   8.720   5.396  0.3066  0.2973 -0.0686
  102MOL0     C13650   4.385   8.773   5.415 -0.6237  0.2299  0.4860
  102MOL0     C13651   4.324   8.849   5.292  0.0819  0.4506 -0.6790
  102MOL0     N13652   4.291   8.764   5.176  0.7815  0.2648  0.3311
  102MOL0     C13653   4.249   8.633   5.167  0.7125  0.0300  0.3469
  102MOL0     C13654   4.278   8.595   5.039 -0.7517  0.0731 -0.6873
  102MOL0     C13655   4.271   8.456   4.974  0.2983 -0.4482  0.3023
  102MOL0     C13656   4.379   8.349   5.006  0.0296 -0.1687 -0.3096
  102MOL0     C13657   4.365   8.224   4.928 -0.3513 -0.2540  0.7499
  102MOL0     C13658   4.461   8.115   4.947 -0.7742  0.1325 -0.6836
  102MOL0     O13659   4.475   8.062   5.085  0.7059 -0.9807  0.5651
  102MOL0     C13660   4.582   7.984   5.108 -0.3698  1.3039  0.3715
  102MOL0     C13661   4.639   7.894   5.019 -0.5418 -0.6062  0.0296
  102MOL0     C13662   4.746   7.811   5.051 -0.0492  0.6503 -0.5566
  102MOL0     C13663   4.803   7.718   4.938 -0.2645  0.1800  0.1589
  102MOL0     C13664   4.806   7.817   5.181  0.5807 -0.7434  1.3473
  102MOL0     C13665   4.918   7.735   5.224 -0.5493 -0.5856 -1.1229
  102MOL0     O13666   5.011   7.698   5.136 -0.3293 -0.2048  1.2844
  102MOL0     C13667   5.115   7.618   5.158 -0.1088  0.0713  0.6833
  102MOL0     C13668   5.110   7.501   5.233 -0.6443  0.7320 -0.9050
  102MOL0     C13669   5.218   7.407   5.238  0.9566  0.1301 -0.1050
  102MOL0     C13670   5.324   7.434   5.149  0.6780  1.2357  0.5811
  102MOL0     O13671   5.431   7.348   5.163  0.5527  0.4616  0.2056
  102MOL0     C13672   5.557   7.370   5.091  0.2064 -0.1155 -0.3488
  102MOL0     C13673   5.663   7.263   5.127 -0.2337  0.5604 -0.0683
  102MOL0     C13674   5.644   7.157   5.018 -0.2674  0.7073 -0.2427
  102MOL0     C13675   5.713   7.030   5.065  0.5042  0.7361 -0.2136
  102MOL0     C13676   5.726   6.923   4.956 -0.4106  0.1107 -0.3985
  102MOL0     C13677   5.597   6.888   4.886 -0.3875  0.8097  0.9310
  102MOL0     C13678   5.603   6.739   4.839  0.9113 -0.0859  0.0333
  102MOL0     C13679   5.507   6.645   4.921 -0.6485  0.3268  0.2625
  102MOL0    Cl13680   5.469   6.501   4.825  0.3069 -0.5199 -0.0649
  102MOL0     C13681   5.331   7.555   5.076  0.4816  0.7196  0.3469
  102MOL0     C13682   5.225   7.645   5.082 -0.4084  0.2656  1.0320
  102MOL0     O13683   4.920   7.707   5.347 -0.1240  0.6713 -0.3887
  102MOL0     C13684   4.733   7.899   5.271 -0.3531 -0.3172 -0.4750
  102MOL0     C13685   4.626   7.975   5.238  0.2498  0.0843 -0.4092
  102MOL0     N13686   4.334   8.702   4.972  0.3779 -1.0111 -0.1707
  102MOL0     N13687   4.343   8.798   5.053 -0.5556 -0.6922 -0.0542
  102MOL0     C13688   5.071   8.374   6.040  0.6824 -0.6361 -0.1651
  102MOL0     C13689   5.116   8.294   6.153  0.4303 -0.4549  0.1646
  102MOL0     C13690   5.275   7.908   6.353 -0.0348 -0.0640 -0.4343
  102MOL0     C13691   5.216   7.797   6.396  1.2391 -0.4221 -0.5479
  102MOL0     C13692   5.285   7.710   6.485  1.3952 -1.1653 -0.2318
  102MOL0     C13693   5.405   7.749   6.541  0.1120 -0.2576 -0.2753
  102MOL0     O13694   5.459   7.663   6.628 -0.0625  0.6470 -0.2815
  102MOL0     C13695   5.599   7.675   6.668  0.1022 -0.8285  0.7028
  102MOL0     C13696   5.634   7.628   6.801  0.4971 -0.7804 -0.3212
  102MOL0     C13697   5.569   7.728   6.904 -0.2634  0.6580  0.3012
  102MOL0     C13698   5.647   7.732   7.039 -0.3595 -0.3999  0.2823
  102MOL0     C13699   5.581   7.814   7.142  0.7664  0.6944  0.1863
  102MOL0     C13700   5.535   7.882   7.230  0.9561  0.4076  0.0795
  102MOL0     C13701   5.467   7.862   6.488  1.9453  0.0597  0.1882
  102MOL0     C13702   5.407   7.942   6.391 -0.6929  0.5032  0.0889
  102MOL0     H13703   5.332   8.091   5.968 -1.6337 -1.4400 -2.2232
  102MOL0     H13704   5.254   8.232   5.797  2.2216 -0.9916 -0.3155
  102MOL0     H13705   4.930   8.313   5.732 -1.4906  0.0144  0.3567
  102MOL0     H13706   4.885   8.429   5.864  1.7751  4.8549  0.7950
  102MOL0     H13707   4.958   8.621   5.695  2.0832 -0.9660  1.3303
  102MOL0     H13708   4.969   8.488   5.587  3.0161  0.2141  1.7767
  102MOL0     H13709   4.718   8.435   5.617  1.9600  0.5578 -3.2761
  102MOL0     H13710   4.701   8.557   5.737 -0.8954 -0.2669  0.0240
  102MOL0     H13711   4.793   8.720   5.545  1.2916 -1.5773 -0.5614
  102MOL0     H13712   4.759   8.591   5.434  1.6931  1.2275  0.0471
  102MOL0     H13713   4.519   8.573   5.555  2.7463 -1.4408  0.6094
  102MOL0     H13714   4.554   8.737   5.606 -4.4128 -0.3254 -1.1374
  102MOL0     H13715   4.599   8.803   5.367  2.0466 -1.2583 -0.8131
  102MOL0     H13716   4.533   8.647   5.314 -1.9281  1.6457 -1.3421
  102MOL0     H13717   4.332   8.680   5.435  0.8395 -0.7725 -0.1716
  102MOL0     H13718   4.382   8.847   5.496  0.5052  0.0644  0.6969
  102MOL0     H13719   4.386   8.933   5.258 -1.0760  0.6473 -2.3959
  102MOL0     H13720   4.233   8.897   5.328  0.9304  1.9740 -0.4780
  102MOL0     H13721   4.203   8.570   5.242  1.2371 -0.7349  0.0385
  102MOL0     H13722   4.170   8.420   4.999 -1.0475  2.9169  0.3097
  102MOL0     H13723   4.288   8.462   4.866 -0.2612 -2.2719  0.0798
  102MOL0     H13724   4.379   8.326   5.113 -0.2987  0.1788 -0.2332
  102MOL0     H13725   4.476   8.389   4.975  0.7382 -2.4798 -1.2397
  102MOL0     H13726   4.373   8.249   4.821 -0.3783  1.9017  1.1954
  102MOL0     H13727   4.262   8.196   4.953 -0.0116 -2.1347  0.1890
  102MOL0     H13728   4.561   8.149   4.917 -1.2522  2.6864  0.3471
  102MOL0     H13729   4.416   8.037   4.885 -6.4205  1.4144  1.2694
  102MOL0     H13730   4.600   7.904   4.918  2.3264 -0.1677 -1.1292
  102MOL0     H13731   4.857   7.636   4.985 -0.9897 -0.5937 -0.3508
  102MOL0     H13732   4.729   7.674   4.871 -0.2133 -1.6396  1.2560
  102MOL0     H13733   4.886   7.770   4.887 -0.8464 -0.7387 -1.8209
  102MOL0     H13734   5.033   7.474   5.305  0.6600  1.8691  0.9951
  102MOL0     H13735   5.215   7.321   5.304 -2.6364  1.8815  2.3123
  102MOL0     H13736   5.552   7.368   4.981 -0.4816  1.3925 -0.3718
  102MOL0     H13737   5.585   7.466   5.135 -2.1320  1.2387 -1.6012
  102MOL0     H13738   5.761   7.311   5.133 -1.1931  2.5622  0.5337
  102MOL0     H13739   5.643   7.219   5.225  0.5605  0.2034 -0.0590
  102MOL0     H13740   5.693   7.201   4.930 -0.9604  3.6515  0.7251
  102MOL0     H13741   5.539   7.139   4.994  0.2308 -1.5289 -0.9868
  102MOL0     H13742   5.813   7.044   5.106 -0.5582 -3.2673  4.5663
  102MOL0     H13743   5.656   6.997   5.152  0.5382 -0.7381 -0.7342
  102MOL0     H13744   5.765   6.833   5.004 -1.1943  0.5494  1.1250
  102MOL0     H13745   5.794   6.957   4.877 -2.7969  0.6896 -2.3115
  102MOL0     H13746   5.508   6.906   4.946 -1.9753 -0.7291 -0.8242
  102MOL0     H13747   5.582   6.963   4.807  1.3619  1.7865  1.4796
  102MOL0     H13748   5.704   6.698   4.848  0.7974 -0.4597 -0.3677
  102MOL0     H13749   5.575   6.743   4.733 -1.0141  3.1055  0.5400
  102MOL0     H13750   5.411   6.693   4.944  0.5132  3.3874 -0.7607
  102MOL0     H13751   5.550   6.615   5.017 -2.0741  0.0723  0.8509
  102MOL0     H13752   5.412   7.594   5.016  2.4602 -0.3177  2.2278
  102MOL0     H13753   5.221   7.732   5.017  2.8579 -0.6169 -0.5863
  102MOL0     H13754   4.771   7.922   5.370 -2.5669 -0.2302  0.3993
  102MOL0     H13755   4.591   8.035   5.322 -1.7424  0.9136 -1.7469
  102MOL0     H13756   5.008   8.461   6.050 -1.4613 -2.2679  1.5542
  102MOL0     H13757   5.078   8.315   6.253 -1.5792  1.5371 -0.9143
  102MOL0     H13758   5.125   7.770   6.344  2.2160 -1.2750 -1.8708
  102MOL0     H13759   5.243   7.618   6.524  0.4799  1.0080  4.7922
  102MOL0     H13760   5.653   7.621   6.590  3.5589  1.9558  0.9341
  102MOL0     H13761   5.633   7.778   6.663 -2.1319 -0.1119 -2.4078
  102MOL0     H13762   5.743   7.625   6.808  0.5145 -0.0496 -0.2250
  102MOL0     H13763   5.598   7.525   6.812 -2.9894 -0.0076 -2.6974
  102MOL0     H13764   5.468   7.693   6.926 -0.1365  0.3007  0.3113
  102MOL0     H13765   5.563   7.834   6.874  0.3466  0.8662  0.8815
  102MOL0     H13766   5.741   7.782   7.013 -1.7563  1.8944 -0.6987
  102MOL0     H13767   5.655   7.633   7.084  1.0886  0.3127  1.7097
  102MOL0     H13768   5.500   7.935   7.316  0.8933  1.0901 -0.3576
  102MOL0     H13769   5.570   7.889   6.506  2.5116  1.6942 -4.1952
  102MOL0     H13770   5.462   8.021   6.342  4.7785 -1.3751  2.3828
  103MOL0     O13771   3.014   5.274   9.572  0.3630 -0.5228  0.3074
  103MOL0     C13772   3.100   5.295   9.488 -0.0716 -0.6647 -0.5784
  103MOL0     O13773   3.087   5.380   9.383 -0.2472 -0.3501  0.2065
  103MOL0     C13774   2.971   5.444   9.352 -0.2557 -0.1202 -0.1691
  103MOL0     C13775   2.902   5.413   9.234 -1.2009 -0.8186 -0.4753
  103MOL0     C13776   2.771   5.471   9.212 -0.1025  0.5433  0.1211
  103MOL0     C13777   2.724   5.570   9.290 -0.0546  0.6573 -0.2775
  103MOL0     O13778   2.608   5.643   9.260  0.3014 -0.3437  1.1516
  103MOL0     C13779   2.558   5.653   9.125 -0.7997  0.4170  0.3857
  103MOL0     C13780   2.440   5.746   9.127  0.5495 -0.5995 -0.4686
  103MOL0     C13781   2.476   5.878   9.194  0.0986 -0.2132 -0.7119
  103MOL0     C13782   2.541   5.966   9.089  0.0652  0.1785  0.7265
  103MOL0     C13783   2.584   6.102   9.154  0.4140  0.8832  0.1058
  103MOL0     C13784   2.679   6.175   9.058 -0.8223  1.2330 -0.5432
  103MOL0     C13785   2.688   6.318   9.102 -0.1997  0.0538 -0.2906
  103MOL0     C13786   2.771   6.345   9.229 -0.0940  0.0128  0.0780
  103MOL0     N13787   2.921   6.350   9.206 -0.6717  0.1182  0.2916
  103MOL0     C13788   2.987   6.463   9.151 -0.0371  0.2276 -0.6937
  103MOL0     C13789   3.119   6.419   9.168  0.5411 -0.3199  0.1770
  103MOL0     C13790   3.245   6.496   9.134  0.2362 -0.5936 -0.3531
  103MOL0     C13791   3.244   6.640   9.176  0.4613 -0.4787 -0.1693
  103MOL0     C13792   3.376   6.719   9.175  0.0195  0.7746 -0.1534
  103MOL0     C13793   3.480   6.680   9.287  0.5795 -0.3200 -0.4065
  103MOL0     O13794   3.433   6.715   9.422 -0.0466 -0.6529 -0.1231
  103MOL0     C13795   3.518   6.704   9.530 -0.2307  0.0124 -0.6259
  103MOL0     C13796   3.464   6.767   9.649 -1.0480 -0.0464  0.3892
  103MOL0     C13797   3.544   6.752   9.763 -1.3411 -0.1824  0.9683
  103MOL0     C13798   3.491   6.819   9.889  0.0030 -0.0988  0.1658
  103MOL0     C13799   3.676   6.712   9.758  0.9111  0.0157  0.7345
  103MOL0     C13800   3.770   6.709   9.870 -1.0802 -0.2273 -0.1679
  103MOL0     O13801   3.738   6.627   9.971 -0.2131 -0.2131 -0.6340
  103MOL0     C13802   3.827   6.610  10.070  0.3609  0.7233 -0.2572
  103MOL0     C13803   3.932   6.510  10.061 -0.7030 -0.1723  0.3113
  103MOL0     C13804   4.013   6.490  10.170  0.1463 -0.1795 -0.2390
  103MOL0     C13805   3.991   6.557  10.290  1.4903 -0.1552  0.3090
  103MOL0     O13806   4.062   6.532  10.406  0.0965 -0.3643  0.0032
  103MOL0     C13807   4.130   6.411  10.442  0.1548  0.3110 -0.2449
  103MOL0     C13808   4.268   6.453  10.483 -0.2371  0.2553  0.6659
  103MOL0     C13809   4.348   6.501  10.360  0.2188 -0.7856  0.9989
  103MOL0     C13810   4.483   6.555  10.405  0.5866  0.3719 -0.1543
  103MOL0     C13811   4.580   6.637  10.319  0.3327  0.9778  0.8223
  103MOL0     C13812   4.509   6.749  10.257 -0.0382 -0.5264  1.0379
  103MOL0     C13813   4.606   6.861  10.225 -1.2057  0.1205 -0.4747
  103MOL0     C13814   4.719   6.821  10.111  0.8517 -0.0388  0.0227
  103MOL0    Cl13815   4.634   6.742   9.971  0.1790 -0.1293 -0.2331
  103MOL0     C13816   3.882   6.652  10.301  0.2817  1.0277 -0.6523
  103MOL0     C13817   3.806   6.680  10.189  0.7349  0.2822 -0.2165
  103MOL0     O13818   3.877   6.770   9.856 -0.2357  0.1926 -0.0246
  103MOL0     C13819   3.726   6.654   9.640  0.1145  0.4034  0.8617
  103MOL0     C13820   3.648   6.662   9.519 -0.2930  0.8806 -0.4606
  103MOL0     N13821   3.117   6.290   9.209 -0.5949 -0.1438  0.6920
  103MOL0     N13822   3.005   6.244   9.231  0.0413 -0.4686 -0.3365
  103MOL0     C13823   2.792   5.595   9.412  0.1355  0.4938 -0.5263
  103MOL0     C13824   2.911   5.531   9.445  0.5797  0.6392  0.2130
  103MOL0     C13825   3.235   5.241   9.505 -0.8107  0.1454  0.3758
  103MOL0     C13826   3.284   5.219   9.636  0.1384 -0.3622  0.0112
  103MOL0     C13827   3.415   5.169   9.658 -1.2177  0.2762 -0.0604
  103MOL0     C13828   3.501   5.143   9.550  0.6488 -0.7269  0.1698
  103MOL0     O13829   3.630   5.114   9.577 -0.3466  0.7512  0.1996
  103MOL0     C13830   3.728   5.067   9.480 -0.3716  0.1029 -0.6908
  103MOL0     C13831   3.692   4.918   9.450 -0.4147 -0.3495  0.0061
  103MOL0     C13832   3.809   4.836   9.392 -0.4730 -0.0343 -1.0148
  103MOL0     C13833   3.873   4.888   9.267 -0.0547 -0.3382  0.2587
  103MOL0     C13834   3.775   4.915   9.161 -0.1644 -0.5211 -0.4414
  103MOL0     C13835   3.695   4.957   9.087  0.1633  0.4412  0.6871
  103MOL0     C13836   3.459   5.163   9.411 -0.4855  0.6693  0.3702
  103MOL0     C13837   3.328   5.205   9.402  0.1635 -0.6762  0.5236
  103MOL0     H13838   2.958   5.348   9.167  0.3975  1.8976 -1.9304
  103MOL0     H13839   2.710   5.440   9.128 -2.0397 -2.0946  2.3331
  103MOL0     H13840   2.640   5.696   9.066 -2.3042 -0.4050 -2.4712
  103MOL0     H13841   2.535   5.559   9.072 -0.4314  1.9537 -2.7466
  103MOL0     H13842   2.405   5.762   9.025  3.0048 -4.0177 -2.0403
  103MOL0     H13843   2.363   5.698   9.190  2.2898  1.4103  3.5473
  103MOL0     H13844   2.381   5.921   9.226  1.0483  0.5154  1.2846
  103MOL0     H13845   2.552   5.868   9.272  0.3879  0.4899 -0.8977
  103MOL0     H13846   2.634   5.920   9.052 -0.2898  1.0566 -1.3834
  103MOL0     H13847   2.473   5.980   9.005  1.4655  1.4861 -0.2409
  103MOL0     H13848   2.494   6.161   9.171  0.6792  1.5970 -0.8630
  103MOL0     H13849   2.644   6.084   9.244  1.5165 -0.6381 -0.8800
  103MOL0     H13850   2.777   6.127   9.058  0.0723  2.9721 -0.9643
  103MOL0     H13851   2.660   6.160   8.951  3.1255 -3.1359 -0.9666
  103MOL0     H13852   2.717   6.375   9.013 -1.6876  4.2439  1.6200
  103MOL0     H13853   2.585   6.348   9.123 -0.5333 -2.1789  1.6768
  103MOL0     H13854   2.754   6.267   9.303 -0.0055  0.6380  0.7655
  103MOL0     H13855   2.729   6.435   9.274  0.1599  0.7989 -1.1993
  103MOL0     H13856   2.935   6.556   9.128 -1.5897  0.4303  2.8620
  103MOL0     H13857   3.323   6.453   9.197 -2.3366 -0.4331  3.2433
  103MOL0     H13858   3.268   6.484   9.027  0.7309 -0.0785 -0.3097
  103MOL0     H13859   3.191   6.644   9.271 -0.5888 -4.0023 -0.4902
  103MOL0     H13860   3.183   6.695   9.104  1.0482 -0.5843 -0.7652
  103MOL0     H13861   3.361   6.826   9.192 -0.4403  0.9355 -1.5239
  103MOL0     H13862   3.421   6.700   9.077  0.9099  2.3272 -0.0744
  103MOL0     H13863   3.567   6.745   9.271 -0.1806  1.0614  0.9481
  103MOL0     H13864   3.509   6.574   9.283  5.2168  0.5947  1.7046
  103MOL0     H13865   3.369   6.821   9.644 -1.1776 -0.3431 -0.5205
  103MOL0     H13866   3.385   6.793   9.892 -0.6131  2.2061 -0.2973
  103MOL0     H13867   3.541   6.785   9.980  0.6106 -2.1095 -0.8600
  103MOL0     H13868   3.506   6.927   9.883 -0.5862  0.0571  1.1980
  103MOL0     H13869   3.947   6.448   9.973 -3.1347  0.9698 -1.0328
  103MOL0     H13870   4.096   6.422  10.157  0.5696  0.3561 -0.3681
  103MOL0     H13871   4.065   6.377  10.523 -3.2925  2.0219 -2.0532
  103MOL0     H13872   4.136   6.334  10.366 -0.8305  0.0960 -0.1219
  103MOL0     H13873   4.264   6.532  10.559  0.0540  1.0388 -0.1107
  103MOL0     H13874   4.330   6.374  10.527  2.8094  2.2202  0.1637
  103MOL0     H13875   4.302   6.587  10.311  1.4027 -1.4321 -1.3839
  103MOL0     H13876   4.355   6.424  10.283 -1.3272  0.4263 -0.4176
  103MOL0     H13877   4.472   6.616  10.495  1.0922 -0.2051  0.3060
  103MOL0     H13878   4.546   6.473  10.441  2.5507  0.0474 -3.8266
  103MOL0     H13879   4.622   6.577  10.238  1.2323  1.8114  0.6465
  103MOL0     H13880   4.652   6.675  10.393 -1.2646  0.4965  2.7174
  103MOL0     H13881   4.470   6.722  10.159  1.7112 -0.5707  0.3312
  103MOL0     H13882   4.435   6.795  10.324  0.1795  1.3317  0.0858
  103MOL0     H13883   4.671   6.899  10.304  0.2472 -0.6327 -1.2558
  103MOL0     H13884   4.545   6.946  10.193  0.3202  0.7197 -1.9631
  103MOL0     H13885   4.788   6.752  10.159  0.5899 -1.7512 -1.9089
  103MOL0     H13886   4.774   6.901  10.061  0.5380 -0.6288 -1.3176
  103MOL0     H13887   3.866   6.712  10.390  1.7288  1.7983 -0.8889
  103MOL0     H13888   3.712   6.732  10.202 -2.2766 -5.0029  1.9440
  103MOL0     H13889   3.830   6.628   9.626  0.7712  2.8461  0.6663
  103MOL0     H13890   3.688   6.620   9.428  1.1114  0.4512  0.3137
  103MOL0     H13891   2.754   5.670   9.481  2.8029  0.4662  1.1230
  103MOL0     H13892   2.933   5.530   9.551 -4.3728 -1.4391  1.5256
  103MOL0     H13893   3.214   5.243   9.715 -1.3906  2.6805 -2.0446
  103MOL0     H13894   3.448   5.147   9.759  0.8083  1.9499 -0.2759
  103MOL0     H13895   3.745   5.128   9.391  1.2091  2.1069  0.8723
  103MOL0     H13896   3.822   5.085   9.532 -1.2434  1.4387  0.5241
  103MOL0     H13897   3.612   4.926   9.376 -0.0428  1.8118 -0.2236
  103MOL0     H13898   3.668   4.861   9.540  1.1208  4.0514  3.5953
  103MOL0     H13899   3.782   4.731   9.377  0.3244 -0.1571 -1.6653
  103MOL0     H13900   3.884   4.834   9.471 -0.0429 -0.4005 -1.4291
  103MOL0     H13901   3.937   4.808   9.230  0.1937  0.4476 -1.0572
  103MOL0     H13902   3.950   4.964   9.284  1.1140 -0.9742 -1.8857
  103MOL0     H13903   3.607   4.973   9.028  0.0696 -2.6632 -0.1504
  103MOL0     H13904   3.506   5.152   9.314  0.2265  2.4307  0.4868
  103MOL0     H13905   3.286   5.216   9.302 -0.2322  1.1866  0.8655
  104MOL0     O13906  10.421   2.397   8.718  0.0997 -0.5257 -0.7781
  104MOL0     C13907  10.443   2.411   8.839  0.2591 -0.2479  0.5125
  104MOL0     O13908  10.566   2.393   8.901  0.8134 -0.5196  0.5165
  104MOL0     C13909  10.684   2.381   8.842  0.0640  0.0576 -0.7737
  104MOL0     C13910  10.704   2.363   8.703  0.5501 -0.4451 -0.3480
  104MOL0     C13911  10.833   2.335   8.658 -0.3407  0.1788  0.6486
  104MOL0     C13912  10.940   2.319   8.749 -0.2360 -0.4611  0.4977
  104MOL0     O13913  11.064   2.268   8.709  0.0108  0.5042 -0.0109
  104MOL0     C13914  11.071   2.212   8.574 -0.1596 -0.1766 -0.7614
  104MOL0     C13915  11.133   2.075   8.588  1.0692  0.1181  0.2686
  104MOL0     C13916  11.278   2.093   8.651 -0.1858  0.5205  0.4866
  104MOL0     C13917  11.347   1.963   8.651  0.4475 -0.2466 -0.4558
  104MOL0     C13918  11.499   1.971   8.699  0.4776  0.1353 -1.1727
  104MOL0     C13919  11.522   2.000   8.850 -0.4508  0.3964 -0.8457
  104MOL0     C13920  11.672   2.034   8.891  0.0203  1.0351  0.0242
  104MOL0     C13921  11.717   1.952   9.019  0.4396 -0.2849 -0.5737
  104MOL0     N13922  11.735   1.812   9.002  1.0695  0.0688  0.0089
  104MOL0     C13923  11.824   1.749   8.913  0.4248 -0.2236  0.2471
  104MOL0     C13924  11.791   1.613   8.922  0.3367 -0.0421 -0.4397
  104MOL0     C13925  11.880   1.504   8.872 -0.0061  0.0294  0.0343
  104MOL0     C13926  11.963   1.434   8.977 -0.2383  0.1327  1.4296
  104MOL0     C13927  11.888   1.360   9.085  0.3180  0.0751 -0.1374
  104MOL0     C13928  11.981   1.305   9.184 -0.5086  0.4208 -0.4375
  104MOL0     O13929  12.094   1.244   9.119  0.3244  0.0346  0.6071
  104MOL0     C13930  12.183   1.183   9.196 -0.3134  0.4057 -1.2314
  104MOL0     C13931  12.298   1.130   9.126  0.6938  0.4191 -0.0724
  104MOL0     C13932  12.407   1.063   9.196 -1.1566 -0.2818  0.5674
  104MOL0     C13933  12.522   1.015   9.112 -0.2353 -0.8485  0.7361
  104MOL0     C13934  12.402   1.060   9.339  1.6824 -0.1375  0.4918
  104MOL0     C13935  12.511   1.024   9.430  0.3130  0.5460 -1.2001
  104MOL0     O13936  12.487   1.022   9.569 -0.7049  0.5330  0.4765
  104MOL0     C13937  12.596   1.025   9.651 -0.3468  0.1237 -0.3548
  104MOL0     C13938  12.694   0.919   9.665 -0.7295 -0.1699 -0.2140
  104MOL0     C13939  12.802   0.917   9.759 -0.6852 -0.6362 -0.0996
  104MOL0     C13940  12.807   1.022   9.848  0.8416 -0.7740 -0.1656
  104MOL0     O13941  12.914   1.026   9.936 -0.7734  0.6341  0.1438
  104MOL0     C13942  12.867   0.962  10.060  0.5986  0.4831  0.9349
  104MOL0     C13943  12.978   0.918  10.141  0.5618 -0.2304  0.1566
  104MOL0     C13944  13.031   0.798  10.068  0.7804  0.1247 -0.0795
  104MOL0     C13945  13.157   0.744  10.142 -0.4910 -0.3617 -0.3398
  104MOL0     C13946  13.219   0.615  10.075 -0.0412 -0.4617  0.4095
  104MOL0     C13947  13.322   0.540  10.156 -1.0983  0.9062  0.2705
  104MOL0     C13948  13.257   0.472  10.274  0.1570 -0.2478  0.7488
  104MOL0     C13949  13.351   0.383  10.340 -0.2121 -0.4261 -0.2412
  104MOL0    Cl13950  13.265   0.335  10.479 -0.3202 -0.6004  0.3284
  104MOL0     C13951  12.720   1.140   9.845  0.6770 -0.9005 -0.3467
  104MOL0     C13952  12.622   1.134   9.747  0.5578 -0.4471  1.0270
  104MOL0     O13953  12.620   1.013   9.376 -0.0635  0.1927 -0.8892
  104MOL0     C13954  12.278   1.109   9.406 -0.4472  1.4496 -0.0363
  104MOL0     C13955  12.180   1.170   9.333  1.0312 -0.5190  0.6708
  104MOL0     N13956  11.677   1.604   9.008  0.2282 -0.5982 -0.2721
  104MOL0     N13957  11.639   1.725   9.049 -0.9655  0.5412  0.1064
  104MOL0     C13958  10.917   2.323   8.883 -0.5483  0.6512  0.1349
  104MOL0     C13959  10.796   2.367   8.935  1.0639  0.8457 -1.0489
  104MOL0     C13960  10.332   2.484   8.915 -0.9108 -0.2121  1.4782
  104MOL0     C13961  10.216   2.538   8.845 -0.1828 -0.3186  0.2439
  104MOL0     C13962  10.111   2.594   8.926 -0.5940 -0.3986 -1.0551
  104MOL0     C13963  10.125   2.606   9.069 -0.7114 -0.1492  0.3112
  104MOL0     O13964  10.018   2.638   9.143 -0.1424 -0.5426  0.3197
  104MOL0     C13965  10.024   2.736   9.251 -0.0214  0.3530 -0.2030
  104MOL0     C13966   9.900   2.740   9.334 -0.3233  0.1643 -0.9829
  104MOL0     C13967   9.804   2.828   9.262 -0.2689 -0.4969  0.6461
  104MOL0     C13968   9.697   2.871   9.348 -0.0527 -0.4639 -0.3241
  104MOL0     C13969   9.581   2.916   9.272 -0.7634  0.4330  0.5407
  104MOL0     C13970   9.488   2.954   9.212  0.0340  0.4269  0.3795
  104MOL0     C13971  10.249   2.570   9.125 -0.0379 -1.0479 -0.2869
  104MOL0     C13972  10.353   2.514   9.049  0.4709  0.0422  0.9160
  104MOL0     H13973  10.629   2.362   8.625 -0.0528  4.8276 -0.1912
  104MOL0     H13974  10.837   2.332   8.549  0.1456  0.8624  0.6430
  104MOL0     H13975  10.981   2.188   8.517 -2.7881  0.8074  2.6455
  104MOL0     H13976  11.139   2.276   8.517 -2.9995  3.4494 -0.4057
  104MOL0     H13977  11.070   1.999   8.636 -1.8436  0.9699 -1.9173
  104MOL0     H13978  11.140   2.044   8.484 -1.8601  0.4847 -0.1010
  104MOL0     H13979  11.338   2.158   8.586  1.1461 -0.4919  0.6553
  104MOL0     H13980  11.275   2.132   8.753 -1.8920  0.3881  0.5089
  104MOL0     H13981  11.293   1.889   8.712  1.0879  1.1056  1.9023
  104MOL0     H13982  11.332   1.934   8.547 -3.9164  1.3336 -0.4716
  104MOL0     H13983  11.553   1.879   8.673 -1.0998 -0.4137 -2.7554
  104MOL0     H13984  11.546   2.055   8.646 -1.2415  2.2058  0.4289
  104MOL0     H13985  11.451   2.077   8.881 -0.4012 -0.6939  2.3143
  104MOL0     H13986  11.500   1.904   8.898 -0.7867  0.1586 -1.4600
  104MOL0     H13987  11.741   2.004   8.811  1.9670 -0.2998  2.0820
  104MOL0     H13988  11.681   2.140   8.917 -1.9614  1.1909  0.2242
  104MOL0     H13989  11.632   1.962   9.086  0.5792 -3.4705  0.2464
  104MOL0     H13990  11.808   1.992   9.064 -0.0725  2.0741 -1.5073
  104MOL0     H13991  11.906   1.795   8.858  0.2475 -1.9516 -1.5861
  104MOL0     H13992  11.822   1.423   8.827  2.9795 -2.8128  0.8239
  104MOL0     H13993  11.947   1.560   8.806  0.3729  0.9147  1.1349
  104MOL0     H13994  12.030   1.503   9.029 -0.6780  1.5370  0.1898
  104MOL0     H13995  12.035   1.371   8.923 -0.7376  0.4766  0.3424
  104MOL0     H13996  11.826   1.278   9.046  1.2919 -0.2921 -0.9581
  104MOL0     H13997  11.810   1.415   9.137  0.4616  0.4198 -0.2861
  104MOL0     H13998  11.925   1.228   9.238 -3.2188  1.7075 -1.2534
  104MOL0     H13999  12.018   1.373   9.262  2.2647 -3.0570  1.6226
  104MOL0     H14000  12.295   1.139   9.018  1.7499  0.6228 -0.0983
  104MOL0     H14001  12.480   0.996   9.013 -1.0511 -3.8575  1.5582
  104MOL0     H14002  12.597   1.094   9.118 -1.1035 -0.0146  1.0028
  104MOL0     H14003  12.547   0.917   9.154 -1.1368 -0.6873  1.7198
  104MOL0     H14004  12.674   0.843   9.590 -0.7637  0.0674 -0.4483
  104MOL0     H14005  12.870   0.833   9.754 -1.0400 -0.8625 -1.5908
  104MOL0     H14006  12.804   1.020  10.128  0.9519 -0.9183  2.5305
  104MOL0     H14007  12.809   0.871  10.042  4.8737 -2.3966  0.3223
  104MOL0     H14008  13.063   0.986  10.151  3.0319 -3.1848  0.7097
  104MOL0     H14009  12.937   0.904  10.242  0.4146 -1.8094 -0.0932
  104MOL0     H14010  13.064   0.822   9.966 -4.8891  2.6596 -1.6953
  104MOL0     H14011  12.957   0.717  10.068 -1.1024  1.7076  2.7510
  104MOL0     H14012  13.229   0.825  10.157  0.5565 -0.5933 -3.3659
  104MOL0     H14013  13.132   0.717  10.245 -0.6847 -1.8943 -0.7661
  104MOL0     H14014  13.270   0.658   9.989 -0.7148 -0.9162 -0.2271
  104MOL0     H14015  13.139   0.546  10.049  0.2748 -0.8744  0.5275
  104MOL0     H14016  13.359   0.449  10.108 -0.4001 -0.2501  2.8145
  104MOL0     H14017  13.408   0.602  10.182  0.6620  0.2766 -3.3563
  104MOL0     H14018  13.173   0.407  10.248  1.2344 -2.1290  1.6650
  104MOL0     H14019  13.224   0.547  10.346  0.3925  0.5410  0.0381
  104MOL0     H14020  13.447   0.432  10.360  0.1980 -0.8681 -1.0820
  104MOL0     H14021  13.370   0.302  10.269 -1.9731 -1.8490  0.8036
  104MOL0     H14022  12.723   1.229   9.907 -3.4915  1.3073 -2.9112
  104MOL0     H14023  12.551   1.215   9.757  0.9199  0.1528 -0.9178
  104MOL0     H14024  12.270   1.121   9.514 -0.8240 -1.8224  0.3820
  104MOL0     H14025  12.097   1.213   9.388  0.0422  0.3544 -1.3986
  104MOL0     H14026  11.007   2.300   8.939 -1.1222 -3.1921 -0.2245
  104MOL0     H14027  10.776   2.387   9.039  1.0991  1.9800 -1.2492
  104MOL0     H14028  10.185   2.509   8.746 -2.0628  1.4726  0.2622
  104MOL0     H14029  10.013   2.613   8.883 -1.6025 -0.0990  1.2143
  104MOL0     H14030  10.106   2.713   9.320  0.9158  1.6403 -0.8549
  104MOL0     H14031  10.043   2.837   9.213 -3.2552  0.9370 -0.5546
  104MOL0     H14032   9.923   2.787   9.429 -0.0639  3.3644 -2.5161
  104MOL0     H14033   9.855   2.640   9.344 -0.4583 -0.2812 -4.5130
  104MOL0     H14034   9.767   2.777   9.173  0.0120 -1.8049  1.2515
  104MOL0     H14035   9.851   2.920   9.227  0.8592 -1.2197  0.1870
  104MOL0     H14036   9.739   2.948   9.414 -0.4078  0.8722 -1.6074
  104MOL0     H14037   9.676   2.788   9.417  2.4484 -0.4576  0.5556
  104MOL0     H14038   9.411   2.989   9.146  0.5992  3.2577  1.1010
  104MOL0     H14039  10.260   2.584   9.232  0.3510  1.0666 -0.5535
  104MOL0     H14040  10.439   2.480   9.107  1.7838  1.8525  0.1247
  105MOL0     O14041   0.003   0.551   0.144  0.0766  0.1068 -0.8953
  105MOL0     C14042  -0.020   0.436   0.106 -0.1720 -0.1036  0.3116
  105MOL0     O14043  -0.129   0.374   0.127  1.2451 -0.2064 -0.1336
  105MOL0     C14044  -0.220   0.405   0.233  0.6900 -0.3636 -0.1341
  105MOL0     C14045  -0.169   0.442   0.358 -0.1592 -1.1422  0.2419
  105MOL0     C14046  -0.242   0.448   0.475  0.5415  0.3954 -0.5776
  105MOL0     C14047  -0.380   0.444   0.471 -0.2858  0.0287  0.1226
  105MOL0     O14048  -0.445   0.461   0.589 -0.1005 -0.8441 -0.2689
  105MOL0     C14049  -0.537   0.569   0.595 -0.2954 -0.6541 -0.2115
  105MOL0     C14050  -0.666   0.524   0.671  0.3053 -0.1832 -0.0090
  105MOL0     C14051  -0.749   0.416   0.590 -0.2910  0.2168  0.4246
  105MOL0     C14052  -0.872   0.353   0.667  0.3977  0.7342  0.0761
  105MOL0     C14053  -0.987   0.451   0.662  0.8695 -0.1243 -0.2364
  105MOL0     C14054  -1.120   0.386   0.710  0.5779 -0.6515 -0.1065
  105MOL0     C14055  -1.239   0.479   0.737 -0.6548 -0.5064  0.1237
  105MOL0     C14056  -1.219   0.531   0.883  1.1342 -0.4899 -0.4794
  105MOL0     N14057  -1.242   0.674   0.881 -0.7366  0.0246  0.3730
  105MOL0     C14058  -1.353   0.730   0.834 -0.1681  0.3202  0.6610
  105MOL0     C14059  -1.328   0.865   0.837  0.2659  0.4397 -0.2915
  105MOL0     C14060  -1.420   0.977   0.790  0.2265  0.7019 -0.7280
  105MOL0     C14061  -1.345   1.063   0.683  0.1740  0.0977 -1.2671
  105MOL0     C14062  -1.308   0.985   0.553 -0.9203  0.3212  0.4447
  105MOL0     C14063  -1.420   0.938   0.460 -0.3510  0.7993 -0.0085
  105MOL0     O14064  -1.388   0.939   0.321 -0.6083 -0.2447  0.7260
  105MOL0     C14065  -1.429   1.046   0.240 -0.8280  0.1508  0.5083
  105MOL0     C14066  -1.479   1.164   0.293  0.1776  0.1963  0.2153
  105MOL0     C14067  -1.530   1.272   0.214 -1.7795  0.8162  0.7493
  105MOL0     C14068  -1.583   1.393   0.296  0.1501 -0.4217 -0.8194
  105MOL0     C14069  -1.515   1.257   0.073  0.7240  0.0981 -0.2194
  105MOL0     C14070  -1.548   1.369  -0.019 -1.6714 -0.3548  0.6120
  105MOL0     O14071  -1.483   1.491   0.011  0.6424  0.2945 -0.4653
  105MOL0     C14072  -1.481   1.591  -0.077  0.3047  0.0291 -0.3602
  105MOL0     C14073  -1.402   1.582  -0.196  0.6552  0.4680 -0.1030
  105MOL0     C14074  -1.384   1.690  -0.288  0.0867  0.8615 -0.2096
  105MOL0     C14075  -1.466   1.798  -0.282  0.1967  0.6955 -0.5379
  105MOL0     O14076  -1.481   1.892  -0.374 -0.5761 -0.2054  0.1400
  105MOL0     C14077  -1.457   1.859  -0.514 -0.0217 -0.0427  0.0651
  105MOL0     C14078  -1.549   1.950  -0.591  0.1141 -0.5755 -0.1802
  105MOL0     C14079  -1.519   1.964  -0.737 -0.2295  0.7219 -0.4875
  105MOL0     C14080  -1.585   2.081  -0.801 -0.0028 -0.0684  0.7775
  105MOL0     C14081  -1.573   2.056  -0.952 -0.1903 -1.1353  0.4010
  105MOL0     C14082  -1.614   2.180  -1.035 -0.0346  0.3101 -0.5883
  105MOL0     C14083  -1.748   2.245  -0.999 -0.6286  0.2124 -0.0602
  105MOL0     C14084  -1.776   2.371  -1.092 -0.7855  0.6910 -0.1850
  105MOL0    Cl14085  -1.654   2.494  -1.032 -0.2227  0.2400 -0.3621
  105MOL0     C14086  -1.545   1.814  -0.163 -0.3017  0.4333 -0.6811
  105MOL0     C14087  -1.555   1.714  -0.065 -0.5232  0.3554 -0.1735
  105MOL0     O14088  -1.636   1.359  -0.105  1.0886  0.8783 -0.1822
  105MOL0     C14089  -1.465   1.141   0.020  0.4862  0.2836 -0.3815
  105MOL0     C14090  -1.426   1.031   0.100 -0.5967  0.2373  0.7054
  105MOL0     N14091  -1.198   0.876   0.888  0.8522 -0.5928 -1.1461
  105MOL0     N14092  -1.147   0.759   0.914 -0.6536  0.0973 -0.0397
  105MOL0     C14093  -0.441   0.407   0.341 -0.3586  0.6777  0.1083
  105MOL0     C14094  -0.361   0.379   0.232  0.9059 -0.4037 -0.8203
  105MOL0     C14095   0.085   0.366   0.028 -0.2651  0.0774 -0.8184
  105MOL0     C14096   0.223   0.380   0.033 -0.3149 -0.4055  0.3360
  105MOL0     C14097   0.312   0.317  -0.047 -0.3565  0.7295  0.9878
  105MOL0     C14098   0.265   0.229  -0.141  0.4272  0.2774  0.9357
  105MOL0     O14099   0.350   0.160  -0.222  0.3186  0.0542  0.3785
  105MOL0     C14100   0.496   0.175  -0.210  0.3734 -0.8151  0.2251
  105MOL0     C14101   0.581   0.074  -0.288 -0.1307  0.5437 -0.6763
  105MOL0     C14102   0.556  -0.060  -0.236 -0.6026  0.0745 -0.1479
  105MOL0     C14103   0.667  -0.145  -0.241  0.3361 -0.0582  0.6992
  105MOL0     C14104   0.637  -0.273  -0.180  0.7411  0.2900  0.5607
  105MOL0     C14105   0.604  -0.382  -0.123 -0.0066 -0.0061  0.0895
  105MOL0     C14106   0.128   0.213  -0.156  0.3346 -0.2764  0.8089
  105MOL0     C14107   0.042   0.290  -0.080 -0.0351  1.2099  0.7548
  105MOL0     H14108  -0.062   0.459   0.372 -0.4886 -0.0255  1.5764
  105MOL0     H14109  -0.177   0.464   0.560  1.9826 -0.7825 -1.4187
  105MOL0     H14110  -0.486   0.645   0.654 -1.6662 -2.1918  3.2256
  105MOL0     H14111  -0.577   0.611   0.502 -0.5178  2.1953  1.0750
  105MOL0     H14112  -0.628   0.479   0.763  3.5910  1.5746 -0.3728
  105MOL0     H14113  -0.730   0.611   0.687  1.3934  0.8834 -1.2267
  105MOL0     H14114  -0.788   0.456   0.495 -2.1740  0.3337  1.2105
  105MOL0     H14115  -0.675   0.337   0.572 -1.5257 -0.5454 -1.6339
  105MOL0     H14116  -0.888   0.249   0.638  1.6253  0.0888  1.5699
  105MOL0     H14117  -0.846   0.336   0.771  1.9086  0.1144 -0.3730
  105MOL0     H14118  -0.970   0.537   0.727  0.7787 -1.1485  1.1928
  105MOL0     H14119  -0.996   0.477   0.557 -0.0352 -1.6984 -0.5817
  105MOL0     H14120  -1.141   0.308   0.636  3.7634  0.5346 -2.4919
  105MOL0     H14121  -1.113   0.327   0.802  1.4262 -0.0809  0.2156
  105MOL0     H14122  -1.244   0.566   0.670 -2.6859 -0.3090  0.4695
  105MOL0     H14123  -1.336   0.429   0.736 -3.2192  3.7396 -3.0204
  105MOL0     H14124  -1.119   0.504   0.918  1.9006 -2.6638 -3.8684
  105MOL0     H14125  -1.278   0.477   0.957 -0.0203 -0.7187 -1.5298
  105MOL0     H14126  -1.444   0.678   0.805  0.3947 -0.6492  0.6139
  105MOL0     H14127  -1.520   0.942   0.761  0.3670 -0.3387 -0.0128
  105MOL0     H14128  -1.437   1.042   0.877  2.7935  0.6173 -0.1027
  105MOL0     H14129  -1.261   1.108   0.738  1.1550 -0.6231 -2.1445
  105MOL0     H14130  -1.399   1.148   0.640 -0.8335  0.0255 -0.2013
  105MOL0     H14131  -1.240   0.903   0.579  2.0743  2.9720  1.7242
  105MOL0     H14132  -1.250   1.056   0.493 -2.0758  0.2983 -0.7434
  105MOL0     H14133  -1.520   0.980   0.473 -2.1473 -2.8594 -0.5834
  105MOL0     H14134  -1.422   0.830   0.478  3.1621  0.9388  2.0593
  105MOL0     H14135  -1.503   1.176   0.398 -2.6444 -5.3199  0.5598
  105MOL0     H14136  -1.502   1.466   0.304  0.1136  0.1557 -4.2915
  105MOL0     H14137  -1.655   1.451   0.237 -2.0344 -0.7454  1.4005
  105MOL0     H14138  -1.624   1.367   0.394 -0.9723  2.0310 -0.5604
  105MOL0     H14139  -1.350   1.488  -0.208 -0.3380 -0.2254  0.9063
  105MOL0     H14140  -1.322   1.680  -0.377 -0.1381  1.8846 -0.4947
  105MOL0     H14141  -1.348   1.858  -0.523  0.3095 -1.0655  3.0569
  105MOL0     H14142  -1.491   1.755  -0.527  1.5842 -0.2743 -3.2366
  105MOL0     H14143  -1.651   1.922  -0.563  0.4611 -0.7625  0.9620
  105MOL0     H14144  -1.539   2.051  -0.551  2.7640 -1.8229  2.7737
  105MOL0     H14145  -1.546   1.866  -0.775 -0.1419  0.3364  0.4086
  105MOL0     H14146  -1.412   1.973  -0.757  0.2284 -2.3312  0.1583
  105MOL0     H14147  -1.691   2.092  -0.779 -0.9037  0.3759 -3.0367
  105MOL0     H14148  -1.528   2.164  -0.758  0.3310 -2.8604  6.7716
  105MOL0     H14149  -1.628   1.963  -0.971 -2.6583  0.5171 -1.3147
  105MOL0     H14150  -1.472   2.031  -0.987 -0.6972 -1.1484 -1.1555
  105MOL0     H14151  -1.520   2.235  -1.029  0.8860 -1.1204 -1.4072
  105MOL0     H14152  -1.619   2.157  -1.141 -3.2389  1.3068 -0.7671
  105MOL0     H14153  -1.740   2.273  -0.893 -1.5350 -2.0245  0.6644
  105MOL0     H14154  -1.829   2.172  -1.000 -2.0604  1.7133 -1.6682
  105MOL0     H14155  -1.875   2.411  -1.070  0.3726  2.6543  1.9453
  105MOL0     H14156  -1.754   2.360  -1.198  4.0001  0.5293  0.6064
  105MOL0     H14157  -1.600   1.906  -0.148  0.1946  0.2856  3.1789
  105MOL0     H14158  -1.621   1.710   0.021 -0.5312 -4.2852 -0.1575
  105MOL0     H14159  -1.473   1.124  -0.087 -1.0395 -0.6638 -0.1534
  105MOL0     H14160  -1.399   0.931   0.066  3.1969  0.4477  2.5262
  105MOL0     H14161  -0.550   0.402   0.339 -0.6530  4.4347  0.3247
  105MOL0     H14162  -0.414   0.346   0.143  3.2432  0.0180 -2.4608
  105MOL0     H14163   0.272   0.453   0.097 -0.8410 -0.5996  0.9825
  105MOL0     H14164   0.418   0.341  -0.047 -0.6449  2.1206  0.2936
  105MOL0     H14165   0.526   0.274  -0.244  0.1401 -1.5629 -2.4447
  105MOL0     H14166   0.518   0.162  -0.104  1.8737 -0.7192 -0.0531
  105MOL0     H14167   0.683   0.114  -0.284  0.2142 -0.4051  0.8474
  105MOL0     H14168   0.540   0.075  -0.389  0.6493 -2.4060 -1.1113
  105MOL0     H14169   0.470  -0.099  -0.292 -2.7263  1.2776  2.1018
  105MOL0     H14170   0.533  -0.049  -0.130  1.6300 -0.1798  0.4134
  105MOL0     H14171   0.743  -0.092  -0.182 -0.7641  1.8032  0.5317
  105MOL0     H14172   0.703  -0.149  -0.344  0.2523  1.2096  0.5963
  105MOL0     H14173   0.569  -0.481  -0.101  3.1369 -1.0876  0.7600
  105MOL0     H14174   0.090   0.144  -0.231 -2.6818  0.6372  1.3933
  105MOL0     H14175  -0.065   0.275  -0.083 -0.0713  1.5770 -0.7200
  106MOL0     O14176   3.959  10.432   9.045 -0.0167 -0.4598 -0.0638
  106MOL0     C14177   4.077  10.399   9.050 -0.4480 -0.7454 -0.2518
  106MOL0     O14178   4.123  10.279   9.077 -0.2909  0.0530  0.8344
  106MOL0     C14179   4.029  10.184   9.122  1.5407 -0.3834  0.5550
  106MOL0     C14180   3.946  10.204   9.232  0.0810 -0.5316  0.3535
  106MOL0     C14181   3.850  10.110   9.270  0.7490 -0.1759  0.1575
  106MOL0     C14182   3.835   9.988   9.195 -1.5175 -0.3115  0.6895
  106MOL0     O14183   3.729   9.907   9.208  0.2114  0.8833  0.0079
  106MOL0     C14184   3.652   9.864   9.097  0.8864 -1.5393 -0.4587
  106MOL0     C14185   3.514   9.809   9.134  0.2277  0.2539  0.4993
  106MOL0     C14186   3.518   9.706   9.253  0.3977  0.5785  0.8190
  106MOL0     C14187   3.398   9.610   9.261 -0.2267  0.7051 -0.1433
  106MOL0     C14188   3.415   9.488   9.373  1.2967 -0.5889  0.5817
  106MOL0     C14189   3.430   9.536   9.523  0.7331 -0.0337  0.0903
  106MOL0     C14190   3.539   9.453   9.606 -0.4596  0.2566  0.4546
  106MOL0     C14191   3.520   9.299   9.611  0.1560 -0.0445  0.2021
  106MOL0     N14192   3.383   9.274   9.663 -0.4388  0.6208 -1.2119
  106MOL0     C14193   3.334   9.297   9.792  0.0854 -0.3965  0.8135
  106MOL0     C14194   3.200   9.268   9.782 -0.1100  0.7484  0.0419
  106MOL0     C14195   3.098   9.255   9.892 -0.0742 -0.0970 -0.6823
  106MOL0     C14196   2.973   9.349   9.881 -0.0279 -0.6220  1.4325
  106MOL0     C14197   2.898   9.372  10.004  0.8193  0.3243 -0.6077
  106MOL0     C14198   2.986   9.455  10.106 -0.3690  0.1253 -1.2625
  106MOL0     O14199   3.067   9.557  10.047  0.1472  0.1611  0.1537
  106MOL0     C14200   3.148   9.620  10.135  0.3171 -0.1654 -0.0363
  106MOL0     C14201   3.163   9.597  10.270  0.1637 -0.0058 -0.3370
  106MOL0     C14202   3.260   9.654  10.339 -0.8489  0.2610  0.0585
  106MOL0     C14203   3.269   9.639  10.492 -0.6507  0.0476  0.6198
  106MOL0     C14204   3.353   9.749  10.268 -1.1453  0.6524 -0.3991
  106MOL0     C14205   3.460   9.824  10.332  0.6458 -0.5213 -0.4585
  106MOL0     O14206   3.576   9.846  10.268 -0.2282  0.5346  0.5889
  106MOL0     C14207   3.685   9.915  10.313  0.3311 -0.4414 -0.4499
  106MOL0     C14208   3.682  10.029  10.402  0.6448  0.6600  0.5602
  106MOL0     C14209   3.789  10.113  10.421 -0.5701  0.5415 -0.4786
  106MOL0     C14210   3.906  10.079  10.370 -0.3393  0.2331  0.5318
  106MOL0     O14211   4.025  10.152  10.394 -1.1766  0.6415  0.0636
  106MOL0     C14212   4.034  10.273  10.476 -0.3433  0.2593  0.1111
  106MOL0     C14213   4.164  10.349  10.461  0.4434  0.9037  0.2359
  106MOL0     C14214   4.169  10.413  10.319  0.3389  0.0215 -0.3249
  106MOL0     C14215   4.308  10.490  10.312 -0.4590  0.2829  0.2003
  106MOL0     C14216   4.330  10.567  10.178  1.6999 -0.2529 -0.0028
  106MOL0     C14217   4.454  10.655  10.173 -0.3253  0.5348 -0.0451
  106MOL0     C14218   4.494  10.673  10.027 -0.3620 -0.8998  1.0867
  106MOL0     C14219   4.623  10.761  10.007 -1.1826  0.0250  0.3614
  106MOL0    Cl14220   4.627  10.904  10.121 -0.4668  0.0178 -0.1108
  106MOL0     C14221   3.922   9.958  10.295  0.0692  0.4161  0.7644
  106MOL0     C14222   3.811   9.879  10.268  0.7051 -0.8918  0.9545
  106MOL0     O14223   3.420   9.874  10.436 -0.3888 -0.0567 -1.2475
  106MOL0     C14224   3.332   9.769  10.131 -0.7310  0.3428 -0.6621
  106MOL0     C14225   3.236   9.700  10.070  0.3787 -0.0812  1.3830
  106MOL0     N14226   3.174   9.217   9.648 -0.2793  0.5343  0.7401
  106MOL0     N14227   3.291   9.216   9.585 -0.9096  0.8106  0.2267
  106MOL0     C14228   3.916   9.971   9.092 -1.2621  0.2870  0.9056
  106MOL0     C14229   4.012  10.064   9.050 -0.0367  0.0066  0.9952
  106MOL0     C14230   4.180  10.510   9.044 -0.3780 -0.5559  0.2990
  106MOL0     C14231   4.309  10.488   9.077 -0.4699 -0.0791  0.3775
  106MOL0     C14232   4.406  10.579   9.060  0.1628 -0.0684  0.2077
  106MOL0     C14233   4.369  10.705   9.011 -0.2340  0.5524 -0.5031
  106MOL0     O14234   4.455  10.816   9.004 -0.1256  0.9588 -0.5962
  106MOL0     C14235   4.597  10.799   9.013  0.3497 -0.4781  0.3287
  106MOL0     C14236   4.664  10.786   9.150  0.3112  0.2608  0.7530
  106MOL0     C14237   4.597  10.899   9.250  0.1050 -0.2518  1.1597
  106MOL0     C14238   4.686  11.017   9.287 -1.0322 -0.5105  0.8459
  106MOL0     C14239   4.690  11.114   9.174 -1.3981 -0.7436  0.7876
  106MOL0     C14240   4.709  11.199   9.087  0.5863  0.0236  0.1043
  106MOL0     C14241   4.244  10.725   8.960 -0.6340  0.1770  0.4259
  106MOL0     C14242   4.138  10.632   8.981  0.6227  0.2551 -0.2700
  106MOL0     H14243   3.954  10.289   9.298  0.0917 -0.4782  0.2828
  106MOL0     H14244   3.768  10.134   9.337  0.5346 -0.6833  0.0815
  106MOL0     H14245   3.639   9.950   9.031  0.4701 -1.1120  0.1706
  106MOL0     H14246   3.705   9.784   9.044  4.0261  0.7639 -1.1197
  106MOL0     H14247   3.455   9.899   9.155  2.0568  2.4687 -2.9707
  106MOL0     H14248   3.483   9.770   9.037 -0.1847 -1.5257  1.3091
  106MOL0     H14249   3.607   9.649   9.225  0.5564  0.8754  0.7133
  106MOL0     H14250   3.523   9.761   9.348  1.6181 -1.6168  2.1052
  106MOL0     H14251   3.315   9.673   9.294  0.1570  0.4831  1.3361
  106MOL0     H14252   3.372   9.563   9.166 -3.5433 -0.8714  1.3299
  106MOL0     H14253   3.332   9.416   9.375  1.4997 -0.8553 -0.1449
  106MOL0     H14254   3.500   9.434   9.330  0.4725  1.4316 -4.3450
  106MOL0     H14255   3.472   9.637   9.524  0.7964 -0.0628  1.2370
  106MOL0     H14256   3.334   9.526   9.575 -1.7784 -0.2719 -4.0801
  106MOL0     H14257   3.639   9.476   9.568 -0.0911 -2.9330 -0.8621
  106MOL0     H14258   3.543   9.484   9.710  0.0243  0.0325  0.5045
  106MOL0     H14259   3.602   9.254   9.668  0.2371  3.4237  3.1766
  106MOL0     H14260   3.523   9.265   9.507 -4.6042 -0.6246  0.0282
  106MOL0     H14261   3.378   9.332   9.885 -0.2869  0.7778  0.5576
  106MOL0     H14262   3.063   9.152   9.899  3.7866 -1.4392  2.5898
  106MOL0     H14263   3.151   9.272   9.986  1.7641  1.3781 -1.9180
  106MOL0     H14264   2.908   9.311   9.801 -0.8410 -0.5615  2.0611
  106MOL0     H14265   3.007   9.446   9.844 -0.7308 -1.2945 -1.1982
  106MOL0     H14266   2.863   9.278  10.047  1.9572  0.2941  0.3332
  106MOL0     H14267   2.815   9.432   9.967  0.0919 -1.8398 -2.7230
  106MOL0     H14268   3.045   9.383  10.163  1.6783  2.2962 -0.5007
  106MOL0     H14269   2.914   9.492  10.180  0.8825 -0.2735  0.1948
  106MOL0     H14270   3.113   9.517  10.324  3.6029 -1.3901  1.1314
  106MOL0     H14271   3.375   9.629  10.520  0.7034  0.4833 -3.6100
  106MOL0     H14272   3.234   9.727  10.546 -1.8326 -0.1095  0.1337
  106MOL0     H14273   3.211   9.550  10.515 -0.8003 -0.3561 -1.1467
  106MOL0     H14274   3.580  10.053  10.431 -0.1818  0.0896 -1.6852
  106MOL0     H14275   3.781  10.206  10.475 -0.3393 -1.3524  3.1549
  106MOL0     H14276   3.958  10.346  10.447 -0.4750  1.9750  4.0828
  106MOL0     H14277   4.011  10.248  10.580 -0.8978  0.1729 -0.0304
  106MOL0     H14278   4.169  10.425  10.540  0.7748 -0.7670  1.8656
  106MOL0     H14279   4.254  10.289  10.479 -0.3253 -1.2484 -2.3360
  106MOL0     H14280   4.087  10.481  10.294  0.4712 -0.3036 -1.7254
  106MOL0     H14281   4.168  10.339  10.238  0.8789  0.1353 -0.4422
  106MOL0     H14282   4.309  10.557  10.399  0.8382 -0.0866  0.4780
  106MOL0     H14283   4.391  10.420  10.316 -0.3180  0.1394 -2.8692
  106MOL0     H14284   4.249  10.637  10.160  2.5098  1.1668  1.6113
  106MOL0     H14285   4.343  10.495  10.097 -1.2069  0.1573 -0.9436
  106MOL0     H14286   4.422  10.749  10.219  1.0621  2.1460 -2.2271
  106MOL0     H14287   4.540  10.601  10.213  0.1052 -0.5683 -2.3118
  106MOL0     H14288   4.420  10.733   9.975  0.3972 -1.1395 -0.3160
  106MOL0     H14289   4.498  10.580   9.970 -1.1175  0.8066 -1.9635
  106MOL0     H14290   4.625  10.785   9.901  0.5606 -1.4034  0.0441
  106MOL0     H14291   4.714  10.710  10.037 -1.4347  0.0397  1.1893
  106MOL0     H14292   4.017   9.931  10.249  0.6023  0.7626  1.6326
  106MOL0     H14293   3.814   9.793  10.202 -2.5898 -0.0717 -0.4924
  106MOL0     H14294   3.391   9.844  10.078  0.3331 -1.0709 -1.5621
  106MOL0     H14295   3.209   9.724   9.968 -1.0522  0.0869  1.7865
  106MOL0     H14296   3.891   9.891   9.022 -0.2898  2.0360 -1.5977
  106MOL0     H14297   4.080  10.044   8.968 -0.2832  0.6942  0.6135
  106MOL0     H14298   4.333  10.389   9.113 -0.1716  1.0148  3.5468
  106MOL0     H14299   4.510  10.557   9.078 -0.0984 -2.6274 -0.9230
  106MOL0     H14300   4.628  10.712   8.955 -1.6415 -1.7406  1.0540
  106MOL0     H14301   4.646  10.882   8.961  0.3085 -1.4888 -1.3938
  106MOL0     H14302   4.770  10.804   9.131  0.5984 -1.8370  0.1165
  106MOL0     H14303   4.655  10.686   9.194 -0.8965  0.5864  1.3075
  106MOL0     H14304   4.588  10.849   9.347  0.7240 -1.4906  0.6118
  106MOL0     H14305   4.502  10.926   9.204  1.1806 -0.0087 -1.0585
  106MOL0     H14306   4.790  10.987   9.305  0.3339  2.0508 -1.8735
  106MOL0     H14307   4.652  11.061   9.381  1.8761  1.4396  1.1309
  106MOL0     H14308   4.724  11.268   9.008  0.6438 -0.4088 -0.2651
  106MOL0     H14309   4.223  10.824   8.919  3.6060  0.3968 -1.9158
  106MOL0     H14310   4.039  10.652   8.940  1.8778  1.6106 -2.8622
  107MOL0     O14311   7.468   5.108   9.482 -0.4780 -0.6704 -0.4585
  107MOL0     C14312   7.443   5.020   9.570 -0.0567  0.7317  0.3799
  107MOL0     O14313   7.386   5.044   9.686 -0.4854  0.4870 -0.6143
  107MOL0     C14314   7.351   5.174   9.706  0.4195 -0.6724  0.5270
  107MOL0     C14315   7.442   5.282   9.733  0.9826 -0.6143 -0.4994
  107MOL0     C14316   7.398   5.413   9.736 -0.2003  0.8784 -0.4699
  107MOL0     C14317   7.270   5.445   9.728  0.7541 -0.0374  0.7784
  107MOL0     O14318   7.219   5.571   9.716 -0.6138 -0.1682  0.8806
  107MOL0     C14319   7.313   5.675   9.695  0.1961 -0.3929 -0.2772
  107MOL0     C14320   7.330   5.740   9.837 -0.1645 -0.6985  0.4287
  107MOL0     C14321   7.368   5.890   9.817 -0.3302  0.1250  0.2303
  107MOL0     C14322   7.378   5.946   9.957  0.2214  0.0819 -0.2984
  107MOL0     C14323   7.433   6.093   9.966  0.2858  0.3038  0.4128
  107MOL0     C14324   7.586   6.089   9.941 -0.8987  0.2278  0.0621
  107MOL0     C14325   7.653   6.211   9.997 -0.3083 -1.0353 -0.8085
  107MOL0     C14326   7.802   6.242   9.958  0.6364  0.4826  0.4479
  107MOL0     N14327   7.814   6.299   9.822  0.2640  0.0049 -0.3233
  107MOL0     C14328   7.808   6.429   9.802 -0.1411  0.1805 -0.0709
  107MOL0     C14329   7.782   6.449   9.663 -0.1744 -0.2810 -0.2270
  107MOL0     C14330   7.746   6.576   9.587 -0.0078 -0.1450  0.1087
  107MOL0     C14331   7.853   6.642   9.505 -0.7168  0.4043 -0.8088
  107MOL0     C14332   7.911   6.554   9.392  0.0227 -0.9928  0.3328
  107MOL0     C14333   8.040   6.610   9.321  0.0228  0.0659  0.3775
  107MOL0     O14334   8.020   6.742   9.255 -0.0689 -0.0110  0.0615
  107MOL0     C14335   8.105   6.772   9.154 -1.0214  0.3519  0.2639
  107MOL0     C14336   8.236   6.730   9.136 -0.0117  0.0270 -0.0626
  107MOL0     C14337   8.318   6.787   9.035  0.7579  0.5371 -0.4222
  107MOL0     C14338   8.467   6.763   9.049 -0.4685  0.6333  0.8941
  107MOL0     C14339   8.270   6.871   8.942  0.2783 -0.0350 -0.2571
  107MOL0     C14340   8.346   6.922   8.817  1.5783 -0.2193  0.1880
  107MOL0     O14341   8.434   6.836   8.755  0.0757  0.2081 -0.0189
  107MOL0     C14342   8.525   6.873   8.658 -0.1634 -0.4585  1.8468
  107MOL0     C14343   8.575   7.006   8.637 -0.9123  0.2751 -0.4698
  107MOL0     C14344   8.647   7.038   8.527 -0.1746 -0.2143  0.9216
  107MOL0     C14345   8.686   6.929   8.442 -0.9278  0.1430 -0.6112
  107MOL0     O14346   8.749   6.952   8.317  0.8710  0.1925  0.1095
  107MOL0     C14347   8.762   7.090   8.285 -0.3567 -0.4491 -0.3921
  107MOL0     C14348   8.818   7.110   8.143 -0.4826  0.3039  0.0806
  107MOL0     C14349   8.868   7.257   8.141 -1.3711  0.4968 -0.0831
  107MOL0     C14350   8.772   7.361   8.126  0.0427  0.7653 -0.7697
  107MOL0     C14351   8.822   7.507   8.130 -0.1917 -0.4492 -0.9754
  107MOL0     C14352   8.718   7.611   8.087  0.0759 -0.9881 -0.9965
  107MOL0     C14353   8.760   7.766   8.110  0.5329  1.0785  0.5099
  107MOL0     C14354   8.620   7.833   8.131 -0.0817 -0.5935 -0.3774
  107MOL0    Cl14355   8.534   7.856   7.978  0.0337  0.2275  0.1801
  107MOL0     C14356   8.654   6.795   8.470 -0.1005  0.6961 -0.3308
  107MOL0     C14357   8.569   6.764   8.575  0.5752  0.3295 -0.8594
  107MOL0     O14358   8.302   7.027   8.764 -0.1870  0.4895  0.3884
  107MOL0     C14359   8.141   6.920   8.964  0.8419 -0.0817 -1.0621
  107MOL0     C14360   8.050   6.866   9.070 -1.2634 -0.1381  0.3664
  107MOL0     N14361   7.785   6.324   9.595 -0.1878  0.2868 -0.4934
  107MOL0     N14362   7.803   6.233   9.699  0.4018 -0.7840  0.3219
  107MOL0     C14363   7.177   5.336   9.725 -0.2660 -1.2072  0.5211
  107MOL0     C14364   7.215   5.202   9.714 -0.2003  0.6844  0.1772
  107MOL0     C14365   7.484   4.880   9.550 -0.0219 -0.5133  0.2917
  107MOL0     C14366   7.428   4.786   9.633  0.7658  1.2646  0.1556
  107MOL0     C14367   7.477   4.647   9.626 -0.3740 -0.2718  0.5092
  107MOL0     C14368   7.563   4.607   9.524 -0.1455  0.0619 -0.6759
  107MOL0     O14369   7.597   4.481   9.517  0.4175 -0.0598 -0.3170
  107MOL0     C14370   7.711   4.444   9.592 -0.2009  0.5915 -0.5167
  107MOL0     C14371   7.773   4.309   9.557 -0.3722 -0.8275 -0.0127
  107MOL0     C14372   7.665   4.200   9.582  1.1908 -0.8622  0.1037
  107MOL0     C14373   7.716   4.050   9.587  0.2753 -0.4446  0.2600
  107MOL0     C14374   7.729   4.003   9.728 -0.8611 -0.3357 -0.4835
  107MOL0     C14375   7.738   3.945   9.827 -0.6191  0.0830 -0.8402
  107MOL0     C14376   7.619   4.707   9.445 -0.2906 -0.4969  0.8552
  107MOL0     C14377   7.586   4.839   9.466  0.1670 -0.1267 -0.0338
  107MOL0     H14378   7.543   5.241   9.734  1.9247  1.5156 -1.6178
  107MOL0     H14379   7.483   5.481   9.733  2.1880 -1.9495 -1.3680
  107MOL0     H14380   7.405   5.651   9.641 -1.6515 -0.5754 -3.6482
  107MOL0     H14381   7.288   5.750   9.619  1.2166 -1.1786 -1.4256
  107MOL0     H14382   7.238   5.724   9.894  0.0024 -0.9696  0.6253
  107MOL0     H14383   7.414   5.686   9.882  1.8858 -0.7026 -3.0600
  107MOL0     H14384   7.462   5.886   9.761  0.2365 -0.2900  1.1910
  107MOL0     H14385   7.298   5.953   9.761  1.8435  1.5308 -1.0570
  107MOL0     H14386   7.285   5.935  10.013  2.1371 -1.1457  2.9147
  107MOL0     H14387   7.454   5.886  10.008  0.0582  1.6046  1.8183
  107MOL0     H14388   7.395   6.158   9.888 -0.8595 -0.3088  0.4514
  107MOL0     H14389   7.424   6.139  10.065 -0.0131  1.7281 -0.2431
  107MOL0     H14390   7.621   5.990   9.974 -3.4335 -0.9055 -0.4507
  107MOL0     H14391   7.594   6.084   9.832 -1.0108  0.3795  0.0467
  107MOL0     H14392   7.595   6.302   9.981 -0.2627 -0.6925  0.8129
  107MOL0     H14393   7.666   6.204  10.105 -0.1382  0.5584 -0.7100
  107MOL0     H14394   7.854   6.146   9.955 -0.8958 -0.3379 -0.5294
  107MOL0     H14395   7.852   6.308  10.030  0.1765  3.3103 -1.6606
  107MOL0     H14396   7.799   6.499   9.885  0.1781 -0.7837  0.7932
  107MOL0     H14397   7.656   6.549   9.531 -0.1976 -1.1038  0.8386
  107MOL0     H14398   7.704   6.654   9.650 -0.3193 -0.2294  0.0100
  107MOL0     H14399   7.937   6.667   9.571  0.7196  0.9107 -2.7521
  107MOL0     H14400   7.819   6.739   9.469 -2.2223 -0.3711 -1.5284
  107MOL0     H14401   7.841   6.530   9.312  0.6877  2.1826 -1.3664
  107MOL0     H14402   7.944   6.462   9.441 -1.2381 -2.8658 -2.1229
  107MOL0     H14403   8.073   6.542   9.242 -1.2795 -1.8786  1.4346
  107MOL0     H14404   8.119   6.624   9.394 -0.0823 -0.1557  0.5336
  107MOL0     H14405   8.270   6.655   9.207  1.5567 -0.4384 -1.2615
  107MOL0     H14406   8.494   6.730   9.150  0.4165 -0.7543  0.2333
  107MOL0     H14407   8.509   6.699   8.971  0.2419  0.7752  1.1472
  107MOL0     H14408   8.529   6.852   9.037 -0.8743  1.2129  2.7333
  107MOL0     H14409   8.558   7.085   8.710  2.8309  0.6098  0.2418
  107MOL0     H14410   8.671   7.142   8.506  3.0872 -1.4905 -2.7675
  107MOL0     H14411   8.666   7.139   8.301 -1.0201 -1.8947  0.2438
  107MOL0     H14412   8.832   7.136   8.356 -1.4185 -0.6238  0.7846
  107MOL0     H14413   8.906   7.045   8.142 -1.4021 -1.2518  3.5803
  107MOL0     H14414   8.746   7.095   8.062 -2.0111  0.3876  1.3784
  107MOL0     H14415   8.939   7.267   8.059  0.7196 -0.0253  1.5512
  107MOL0     H14416   8.922   7.271   8.235  1.0880 -1.5648 -1.0730
  107MOL0     H14417   8.734   7.347   8.025  0.4812 -0.3214 -0.8015
  107MOL0     H14418   8.696   7.351   8.204 -0.3645  2.6822 -0.8547
  107MOL0     H14419   8.910   7.513   8.065  0.6448 -1.1236  0.0596
  107MOL0     H14420   8.858   7.543   8.226 -3.4831  3.2058 -0.8638
  107MOL0     H14421   8.720   7.599   7.978 -0.0170  2.5803 -1.5160
  107MOL0     H14422   8.616   7.578   8.108 -0.5429  0.0420 -2.2345
  107MOL0     H14423   8.797   7.812   8.018  0.2055  0.6999  0.1839
  107MOL0     H14424   8.828   7.786   8.193 -1.0543  2.2105  1.5995
  107MOL0     H14425   8.638   7.930   8.178  0.9856 -1.4166  0.9860
  107MOL0     H14426   8.552   7.774   8.192 -0.7219  0.8076  0.2904
  107MOL0     H14427   8.708   6.718   8.415  1.2467 -1.1129  3.2417
  107MOL0     H14428   8.522   6.669   8.599  1.6361  0.6430  3.2804
  107MOL0     H14429   8.095   7.001   8.908 -1.2464 -0.3468  0.1454
  107MOL0     H14430   7.950   6.904   9.087 -1.0717  1.2845 -1.4020
  107MOL0     H14431   7.072   5.363   9.710 -0.2801  0.0909  2.4412
  107MOL0     H14432   7.144   5.120   9.714  0.7945 -0.2527  1.6836
  107MOL0     H14433   7.351   4.803   9.708  2.2368  1.0364  1.7868
  107MOL0     H14434   7.448   4.572   9.699  0.1308 -1.2453 -0.2576
  107MOL0     H14435   7.785   4.524   9.584  0.3892 -0.0439 -1.7065
  107MOL0     H14436   7.688   4.438   9.698 -2.1356  1.4255 -0.8450
  107MOL0     H14437   7.858   4.286   9.621 -1.5054  0.1066  1.9081
  107MOL0     H14438   7.801   4.307   9.451 -2.1285  2.1140 -0.6487
  107MOL0     H14439   7.596   4.208   9.498 -1.0403 -0.7453  1.8478
  107MOL0     H14440   7.615   4.223   9.676  0.5085  0.7972 -0.6286
  107MOL0     H14441   7.799   4.046   9.517 -0.8447  1.1447 -1.2624
  107MOL0     H14442   7.635   3.994   9.539 -0.5259  2.9508 -2.8662
  107MOL0     H14443   7.763   3.884   9.912  0.5358 -2.1500 -2.6778
  107MOL0     H14444   7.704   4.691   9.379 -0.9553  1.0291 -0.4393
  107MOL0     H14445   7.635   4.916   9.408  1.8213  0.0741  1.5252
  108MOL0     O14446  10.416   4.848  11.403  0.1837  0.4097  0.6099
  108MOL0     C14447  10.488   4.930  11.455 -0.8918 -0.1420 -0.0021
  108MOL0     O14448  10.455   5.030  11.542 -0.1414  0.2136 -0.2153
  108MOL0     C14449  10.345   5.012  11.612  0.3294 -0.4339  0.1167
  108MOL0     C14450  10.221   4.981  11.553 -1.3480 -0.7683 -0.3726
  108MOL0     C14451  10.102   4.981  11.631 -0.9078 -0.1014  0.6824
  108MOL0     C14452  10.111   5.015  11.764 -0.3315  1.2586 -0.0158
  108MOL0     O14453   9.995   5.012  11.834 -0.3045  0.0642 -0.3543
  108MOL0     C14454   9.979   5.077  11.960 -0.2322 -1.0197  0.0388
  108MOL0     C14455   9.837   5.050  12.009  0.3202 -0.7110  0.1438
  108MOL0     C14456   9.728   5.105  11.917  0.0080  0.5171 -0.2883
  108MOL0     C14457   9.592   5.090  11.972 -1.1296  0.4019  0.1056
  108MOL0     C14458   9.490   5.123  11.862 -0.4939  0.5034  1.0039
  108MOL0     C14459   9.351   5.114  11.921 -0.2335  0.4057  0.3451
  108MOL0     C14460   9.247   5.094  11.813 -0.3066  0.1937  0.2387
  108MOL0     C14461   9.245   4.954  11.744 -0.2002  0.3019 -0.8619
  108MOL0     N14462   9.210   4.850  11.835 -0.4442 -0.3103  0.3594
  108MOL0     C14463   9.297   4.749  11.880  0.0918 -0.4242  0.3135
  108MOL0     C14464   9.228   4.647  11.926 -0.6884  0.4800  0.8035
  108MOL0     C14465   9.272   4.507  11.982 -0.7370  0.3942 -0.1826
  108MOL0     C14466   9.328   4.411  11.874 -0.1102  0.2487 -0.1035
  108MOL0     C14467   9.313   4.452  11.733  0.4184  0.4566  0.1175
  108MOL0     C14468   9.353   4.341  11.633 -0.6291 -0.5335 -0.4533
  108MOL0     O14469   9.479   4.369  11.568 -0.7469 -0.0438 -0.3782
  108MOL0     C14470   9.599   4.310  11.607 -1.1260  0.0920  0.5013
  108MOL0     C14471   9.720   4.364  11.542  0.3844 -0.1977 -0.4492
  108MOL0     C14472   9.852   4.312  11.563  0.5245  0.3252 -0.0721
  108MOL0     C14473   9.959   4.363  11.478  0.1056  0.4746 -0.4978
  108MOL0     C14474   9.869   4.206  11.657 -0.1863  0.1945  0.2070
  108MOL0     C14475   9.997   4.149  11.704 -0.0448 -0.0450 -0.0423
  108MOL0     O14476   9.984   4.079  11.823  0.5918  0.1648  0.0791
  108MOL0     C14477  10.085   4.052  11.912  0.4723  0.3998  0.9204
  108MOL0     C14478  10.047   3.986  12.019 -0.3063 -0.0110 -0.4656
  108MOL0     C14479  10.136   3.945  12.118 -0.2014 -1.1829  0.2833
  108MOL0     C14480  10.271   3.961  12.099 -0.3122 -0.3320 -0.3600
  108MOL0     O14481  10.374   3.914  12.179 -0.1075 -0.7841  0.1074
  108MOL0     C14482  10.342   3.905  12.324  0.3894 -1.1156 -0.4833
  108MOL0     C14483  10.459   3.825  12.382  0.3546  0.7573 -0.3933
  108MOL0     C14484  10.435   3.774  12.526  0.8467 -0.1958 -0.4476
  108MOL0     C14485  10.319   3.667  12.555  0.4487 -1.0304 -0.2806
  108MOL0     C14486  10.348   3.522  12.521 -1.5747  0.4498  0.7107
  108MOL0     C14487  10.448   3.451  12.604  0.0207  1.1019 -0.4402
  108MOL0     C14488  10.467   3.313  12.555  0.2495  0.4206  0.6385
  108MOL0     C14489  10.390   3.196  12.620  0.3214 -0.1029  0.9290
  108MOL0    Cl14490  10.502   3.059  12.638  0.2349 -0.1793 -0.1355
  108MOL0     C14491  10.316   4.028  11.978 -0.7426  0.1680 -0.6543
  108MOL0     C14492  10.222   4.079  11.892  0.5818  0.8558 -0.2776
  108MOL0     O14493  10.100   4.161  11.639 -0.0242 -0.1365 -0.5051
  108MOL0     C14494   9.751   4.158  11.725 -0.3651  0.7114  0.3020
  108MOL0     C14495   9.622   4.206  11.700 -0.5592  0.2063 -0.5333
  108MOL0     N14496   9.092   4.675  11.913  0.6811  0.7881 -0.0499
  108MOL0     N14497   9.086   4.797  11.863 -0.9925 -0.6081  0.4438
  108MOL0     C14498  10.235   5.040  11.824  0.2701 -0.1974  0.1969
  108MOL0     C14499  10.346   5.045  11.744  0.0089 -0.1217  0.0941
  108MOL0     C14500  10.630   4.923  11.422  0.2964  0.0116 -0.3246
  108MOL0     C14501  10.683   4.870  11.302  0.7143 -0.4410  0.4279
  108MOL0     C14502  10.823   4.873  11.283  0.2789 -0.4630 -0.5035
  108MOL0     C14503  10.899   4.929  11.390 -0.3943  0.0985  0.1392
  108MOL0     O14504  11.038   4.952  11.381  0.6028 -0.0058  0.9838
  108MOL0     C14505  11.092   5.018  11.264 -0.2131  0.5535 -0.8821
  108MOL0     C14506  11.046   5.161  11.263 -0.2699 -0.2769 -0.0261
  108MOL0     C14507  11.116   5.247  11.377 -1.2259  1.2387 -0.4895
  108MOL0     C14508  11.051   5.385  11.406  0.1202  0.8093  0.5599
  108MOL0     C14509  11.078   5.486  11.306  0.0222 -0.7507 -0.0502
  108MOL0     C14510  11.091   5.565  11.210 -0.5749 -0.4700 -0.2681
  108MOL0     C14511  10.846   4.963  11.514  0.6263 -0.7506  0.4649
  108MOL0     C14512  10.714   4.971  11.530  0.0149  1.2751  0.1315
  108MOL0     H14513  10.223   4.951  11.449  0.2585 -0.4810 -0.4455
  108MOL0     H14514  10.010   4.945  11.587  0.1757 -0.3604 -1.4606
  108MOL0     H14515  10.050   5.034  12.030 -0.6203 -0.7389  0.6116
  108MOL0     H14516  10.003   5.182  11.939 -1.2498 -1.1243 -1.8816
  108MOL0     H14517   9.814   4.947  12.038 -0.4016 -1.3081 -2.3136
  108MOL0     H14518   9.818   5.103  12.103  1.5680 -0.2268  0.1448
  108MOL0     H14519   9.744   5.213  11.908  0.4398  0.6084  1.2730
  108MOL0     H14520   9.740   5.063  11.816  0.0001  0.2233 -0.1663
  108MOL0     H14521   9.588   4.984  11.996 -1.3717 -0.0280 -1.7029
  108MOL0     H14522   9.589   5.151  12.063  0.2958  0.6543  0.0069
  108MOL0     H14523   9.494   5.225  11.823 -0.7006  0.5783  1.1750
  108MOL0     H14524   9.507   5.058  11.776  0.7696  1.5245  0.4472
  108MOL0     H14525   9.340   5.026  11.986 -2.6051 -0.0358 -0.5412
  108MOL0     H14526   9.334   5.207  11.976  1.2366  0.4736  0.7253
  108MOL0     H14527   9.147   5.111  11.853  0.1447 -0.3053  1.6225
  108MOL0     H14528   9.261   5.168  11.733  2.2942 -0.5390 -0.0693
  108MOL0     H14529   9.328   4.927  11.678 -0.0493  1.0782 -0.9941
  108MOL0     H14530   9.176   4.974  11.661  0.6085  1.9031 -1.1865
  108MOL0     H14531   9.406   4.751  11.882  0.1418 -1.4187 -0.5859
  108MOL0     H14532   9.338   4.530  12.066 -1.0705  1.5965 -0.2267
  108MOL0     H14533   9.180   4.463  12.022 -0.1037 -0.3526  0.4706
  108MOL0     H14534   9.293   4.308  11.876  2.1279 -0.5804  1.8013
  108MOL0     H14535   9.435   4.410  11.896  0.7534  3.4507 -3.2790
  108MOL0     H14536   9.365   4.545  11.707  1.1893  0.1265  0.4300
  108MOL0     H14537   9.208   4.478  11.722 -0.9264 -3.0051  2.8904
  108MOL0     H14538   9.269   4.347  11.564 -1.3165  0.4032  0.4428
  108MOL0     H14539   9.348   4.242  11.679 -0.0480 -0.0935  0.6148
  108MOL0     H14540   9.695   4.439  11.468 -0.9678  0.9790  1.1116
  108MOL0     H14541   9.909   4.416  11.396 -2.6719  0.6116  1.1396
  108MOL0     H14542  10.030   4.428  11.529 -0.4921  2.9095 -2.5664
  108MOL0     H14543  10.018   4.281  11.438  2.4793  2.0189 -0.3888
  108MOL0     H14544   9.941   3.966  12.033 -0.5718 -0.9271 -3.2748
  108MOL0     H14545  10.095   3.887  12.199 -0.5961  1.4195  2.0748
  108MOL0     H14546  10.334   3.997  12.382 -3.5146 -2.7019  1.9387
  108MOL0     H14547  10.243   3.862  12.342  0.1377  0.2294  1.7675
  108MOL0     H14548  10.499   3.744  12.319  1.6041  2.3503 -1.7341
  108MOL0     H14549  10.536   3.902  12.378 -0.7953  1.9308 -1.1476
  108MOL0     H14550  10.415   3.869  12.577  0.1586 -0.9322  0.7120
  108MOL0     H14551  10.526   3.731  12.567 -0.9172 -3.4586  0.3860
  108MOL0     H14552  10.297   3.663  12.662 -1.0051  1.5898 -0.3957
  108MOL0     H14553  10.232   3.705  12.499  0.9623 -0.2558 -0.5700
  108MOL0     H14554  10.381   3.531  12.417  0.9383 -0.7563  1.3219
  108MOL0     H14555  10.254   3.466  12.516  0.5732 -3.4454  0.4254
  108MOL0     H14556  10.544   3.503  12.599  0.0669  0.8892 -2.3873
  108MOL0     H14557  10.417   3.448  12.709 -0.7523  0.3331 -0.6809
  108MOL0     H14558  10.573   3.287  12.552  0.4019  1.0108  0.8275
  108MOL0     H14559  10.441   3.309  12.449 -2.7585  0.7443  1.2683
  108MOL0     H14560  10.305   3.174  12.555 -0.0446 -0.5961  1.5718
  108MOL0     H14561  10.348   3.207  12.720  1.0108  0.1943  1.1957
  108MOL0     H14562  10.422   4.031  11.954 -1.0004 -3.6526 -3.2790
  108MOL0     H14563  10.268   4.127  11.807  2.6036 -1.0291 -0.3259
  108MOL0     H14564   9.763   4.072  11.791 -2.9523 -1.4259 -1.7766
  108MOL0     H14565   9.536   4.153  11.739 -0.8309  0.9961 -0.0475
  108MOL0     H14566  10.238   5.062  11.931 -2.4256 -2.2110  0.8044
  108MOL0     H14567  10.438   5.074  11.794 -1.5192  1.3086  2.2440
  108MOL0     H14568  10.633   4.837  11.211  0.6969  1.4546 -0.2994
  108MOL0     H14569  10.874   4.840  11.194 -1.8480 -2.3796 -1.1136
  108MOL0     H14570  11.201   5.020  11.265 -0.1414  2.0136  2.6617
  108MOL0     H14571  11.067   4.965  11.172 -3.1898 -2.4724  1.4022
  108MOL0     H14572  10.937   5.178  11.265 -0.7753 -2.1629 -3.6530
  108MOL0     H14573  11.075   5.194  11.163  0.6012 -3.0948 -0.7922
  108MOL0     H14574  11.222   5.264  11.355 -1.0685  0.6420 -0.2131
  108MOL0     H14575  11.118   5.192  11.472 -0.1688  2.5981  0.3293
  108MOL0     H14576  11.096   5.416  11.501  2.9736 -0.0223 -0.4060
  108MOL0     H14577  10.943   5.375  11.417  0.0453  2.0802  1.2512
  108MOL0     H14578  11.137   5.624  11.133 -0.9897 -2.0504 -1.7976
  108MOL0     H14579  10.901   4.998  11.601 -2.0067  2.5141  1.0543
  108MOL0     H14580  10.678   5.010  11.625  0.9831  1.4021  0.4572
  109MOL0     O14581   7.339   0.721   2.743  0.5484  0.1448 -0.0186
  109MOL0     C14582   7.448   0.724   2.803 -0.0040  0.5069  0.2223
  109MOL0     O14583   7.531   0.837   2.820  0.5978  0.6871 -0.6331
  109MOL0     C14584   7.516   0.953   2.748  0.3941 -0.3896 -0.8152
  109MOL0     C14585   7.627   1.034   2.752  0.5724  0.3270  0.2793
  109MOL0     C14586   7.634   1.158   2.682  0.3919  0.0963 -0.5688
  109MOL0     C14587   7.523   1.200   2.606 -0.6458  1.0175  0.2513
  109MOL0     O14588   7.541   1.314   2.522  0.1879 -0.1499 -0.1364
  109MOL0     C14589   7.508   1.322   2.384  0.2340 -0.9422  0.0676
  109MOL0     C14590   7.619   1.274   2.299 -0.4178  0.2093  0.1206
  109MOL0     C14591   7.585   1.283   2.153 -0.2839  0.2089  0.5609
  109MOL0     C14592   7.693   1.200   2.082  0.1874  0.6789  0.1135
  109MOL0     C14593   7.696   1.204   1.927  0.0551 -0.1914 -0.1195
  109MOL0     C14594   7.556   1.168   1.864 -0.2359  1.3778  0.8680
  109MOL0     C14595   7.539   1.187   1.717 -0.6262  1.0591  0.3842
  109MOL0     C14596   7.638   1.094   1.637  1.0456  0.7393  0.7602
  109MOL0     N14597   7.583   0.963   1.616 -0.2235  1.0647 -0.4023
  109MOL0     C14598   7.565   0.873   1.725  0.8909  0.4743  0.5497
  109MOL0     C14599   7.471   0.780   1.685 -0.6620 -0.0722 -0.8001
  109MOL0     C14600   7.413   0.662   1.760  0.8296 -0.1273 -0.7837
  109MOL0     C14601   7.526   0.589   1.829 -0.8204 -0.2179  0.1995
  109MOL0     C14602   7.480   0.464   1.907 -0.5063  0.3632  0.2877
  109MOL0     C14603   7.606   0.401   1.972 -0.3471  0.0918 -0.2372
  109MOL0     O14604   7.686   0.341   1.875  0.5987  0.2779  0.6488
  109MOL0     C14605   7.792   0.272   1.920  0.2912 -0.5980 -0.7758
  109MOL0     C14606   7.910   0.281   1.847  0.9141  0.5804 -0.2635
  109MOL0     C14607   8.037   0.238   1.891 -0.6966  0.8528 -0.5746
  109MOL0     C14608   8.159   0.292   1.813 -0.0923  0.5800 -0.7238
  109MOL0     C14609   8.044   0.161   2.002  0.0261  0.5685  0.8168
  109MOL0     C14610   8.167   0.094   2.049 -0.9949  0.7280 -0.0917
  109MOL0     O14611   8.151  -0.032   2.110  0.8759  0.4977 -0.4875
  109MOL0     C14612   8.258  -0.122   2.136 -0.3174 -0.8585  0.8614
  109MOL0     C14613   8.221  -0.230   2.211 -0.3133  0.3963 -0.3497
  109MOL0     C14614   8.312  -0.320   2.254 -1.2867 -0.6047 -1.0365
  109MOL0     C14615   8.453  -0.316   2.224  0.0450 -0.9641 -0.2738
  109MOL0     O14616   8.547  -0.405   2.284 -0.5294  0.1004 -0.6379
  109MOL0     C14617   8.646  -0.472   2.202  0.4881 -0.0376  0.8903
  109MOL0     C14618   8.783  -0.483   2.274  0.8571 -0.8721  0.5451
  109MOL0     C14619   8.874  -0.356   2.286 -0.2661 -0.0698  0.0420
  109MOL0     C14620   8.987  -0.377   2.179  1.0301  0.7027  0.1842
  109MOL0     C14621   9.027  -0.257   2.097  0.6048  0.5994  0.1108
  109MOL0     C14622   9.102  -0.144   2.173  0.8116  0.3844  0.8553
  109MOL0     C14623   8.999  -0.075   2.274 -0.2069 -0.3011  1.2156
  109MOL0     C14624   9.039   0.068   2.305  0.4301 -0.3912  0.0261
  109MOL0    Cl14625   9.206   0.055   2.374  0.1573  0.0008  0.2170
  109MOL0     C14626   8.494  -0.210   2.141 -0.2055  0.2355 -0.0073
  109MOL0     C14627   8.393  -0.114   2.098  0.1225 -1.1009 -0.2906
  109MOL0     O14628   8.270   0.160   2.054  0.4950 -1.1627  0.5715
  109MOL0     C14629   7.921   0.136   2.072 -0.0224 -0.2458 -0.6213
  109MOL0     C14630   7.797   0.194   2.037  0.1670 -1.3467  0.0055
  109MOL0     N14631   7.435   0.815   1.560  1.3631 -0.3599 -0.1712
  109MOL0     N14632   7.503   0.912   1.516  0.7055  0.7907 -0.1388
  109MOL0     C14633   7.403   1.123   2.606  0.4536 -0.1902  0.0011
  109MOL0     C14634   7.405   0.998   2.677  0.2514 -1.3329  0.4602
  109MOL0     C14635   7.483   0.603   2.880 -0.0420 -0.0339 -0.2925
  109MOL0     C14636   7.400   0.490   2.882  0.1854 -0.5851 -1.0093
  109MOL0     C14637   7.439   0.364   2.932  0.4172  0.2585  0.4938
  109MOL0     C14638   7.564   0.343   2.989  0.2529 -0.7036 -0.1079
  109MOL0     O14639   7.606   0.220   3.037 -0.8484 -0.3610  0.0280
  109MOL0     C14640   7.516   0.109   3.021  0.1529  0.6924 -0.1116
  109MOL0     C14641   7.606  -0.017   3.047  0.0616 -0.1901 -0.5511
  109MOL0     C14642   7.511  -0.130   3.045 -0.7411 -1.0212  0.6922
  109MOL0     C14643   7.583  -0.262   3.013 -0.1790  0.0988  0.1525
  109MOL0     C14644   7.575  -0.294   2.872  0.0840  0.9064  1.0339
  109MOL0     C14645   7.557  -0.298   2.752 -0.7386  0.0665  0.5489
  109MOL0     C14646   7.645   0.454   3.001  0.3519 -0.6659  0.4138
  109MOL0     C14647   7.599   0.585   2.959 -0.1520 -0.0562 -0.5864
  109MOL0     H14648   7.712   1.005   2.814  1.2745 -0.0118 -0.8044
  109MOL0     H14649   7.719   1.225   2.688 -0.1263  0.7584 -0.4420
  109MOL0     H14650   7.407   1.281   2.375  0.5644 -2.1389  1.3358
  109MOL0     H14651   7.494   1.424   2.348  2.3118 -1.4133 -2.2911
  109MOL0     H14652   7.711   1.329   2.321 -0.3334  0.8282 -1.6129
  109MOL0     H14653   7.635   1.170   2.329 -3.6365 -0.3974  0.0916
  109MOL0     H14654   7.483   1.249   2.137 -1.0118  2.8175 -0.9435
  109MOL0     H14655   7.610   1.379   2.106  0.8051 -1.2907 -2.1799
  109MOL0     H14656   7.796   1.234   2.095  1.1595 -1.0340 -2.3188
  109MOL0     H14657   7.690   1.093   2.105  0.5451  0.3123 -1.4080
  109MOL0     H14658   7.725   1.305   1.899 -1.2050 -0.5184 -2.9311
  109MOL0     H14659   7.779   1.144   1.888  2.5025  1.7451  1.7720
  109MOL0     H14660   7.519   1.068   1.891 -3.3995  1.6633 -1.7066
  109MOL0     H14661   7.483   1.235   1.912 -1.4137 -0.7391  2.2004
  109MOL0     H14662   7.433   1.189   1.692 -0.8920 -0.6081  1.2251
  109MOL0     H14663   7.565   1.289   1.689  0.8635  0.3664 -0.9433
  109MOL0     H14664   7.739   1.083   1.677  3.3509  0.0265 -4.4739
  109MOL0     H14665   7.643   1.137   1.536 -0.2326  0.6901  0.6586
  109MOL0     H14666   7.624   0.879   1.816 -1.9762  0.7475  2.5257
  109MOL0     H14667   7.349   0.712   1.834  2.5528  2.2280 -0.7675
  109MOL0     H14668   7.351   0.590   1.706 -2.0705 -0.4269  2.5847
  109MOL0     H14669   7.580   0.660   1.894  0.2040 -1.7876  1.1212
  109MOL0     H14670   7.610   0.551   1.770 -0.7446  2.4808 -1.6357
  109MOL0     H14671   7.449   0.388   1.835  3.6702  0.3768 -1.7810
  109MOL0     H14672   7.391   0.482   1.968 -0.7118  0.5824 -0.0719
  109MOL0     H14673   7.582   0.335   2.056  4.2070  2.7670  3.6442
  109MOL0     H14674   7.671   0.473   2.023  0.1890  1.2410 -2.4226
  109MOL0     H14675   7.911   0.338   1.754  1.2073  0.1933 -0.4979
  109MOL0     H14676   8.218   0.359   1.877 -0.4015 -1.0565  1.3915
  109MOL0     H14677   8.222   0.207   1.786  1.1393  1.2937 -0.1892
  109MOL0     H14678   8.137   0.354   1.726 -2.2968  0.3655 -0.3710
  109MOL0     H14679   8.117  -0.255   2.232  0.2591 -2.5325 -0.5881
  109MOL0     H14680   8.277  -0.406   2.311  0.0895 -0.7453 -0.3640
  109MOL0     H14681   8.601  -0.570   2.183  0.4717 -0.5897  3.4483
  109MOL0     H14682   8.666  -0.413   2.112 -0.3969 -1.7948 -0.5217
  109MOL0     H14683   8.767  -0.493   2.382 -2.0646  0.6257  0.3278
  109MOL0     H14684   8.830  -0.574   2.235 -0.2541 -0.6377 -1.4626
  109MOL0     H14685   8.903  -0.359   2.391  0.2699  1.5776 -0.0212
  109MOL0     H14686   8.814  -0.265   2.275  0.7532  0.8497  1.6799
  109MOL0     H14687   9.069  -0.417   2.239  0.2039 -0.3313  0.6560
  109MOL0     H14688   8.974  -0.462   2.111  0.0458  1.9022 -1.1983
  109MOL0     H14689   8.942  -0.218   2.040 -0.1593 -0.7976  0.2441
  109MOL0     H14690   9.098  -0.302   2.026  0.6605  1.3992 -0.3539
  109MOL0     H14691   9.191  -0.183   2.224 -0.6419  0.8595  4.0345
  109MOL0     H14692   9.144  -0.066   2.109  1.9267 -0.8527  0.0344
  109MOL0     H14693   8.999  -0.140   2.362 -0.1970 -0.0833  1.3769
  109MOL0     H14694   8.899  -0.085   2.232  1.1202 -3.4689 -1.6400
  109MOL0     H14695   8.972   0.121   2.373  1.0436 -0.0097  0.3511
  109MOL0     H14696   9.045   0.114   2.206  0.0009 -1.9688 -0.7627
  109MOL0     H14697   8.597  -0.204   2.109  0.3824 -1.3028  1.4192
  109MOL0     H14698   8.424  -0.041   2.024  1.4157 -1.4443 -0.1171
  109MOL0     H14699   7.919   0.077   2.163 -2.2908 -0.0680 -0.5021
  109MOL0     H14700   7.719   0.179   2.111 -0.4242 -0.4193 -0.4115
  109MOL0     H14701   7.316   1.168   2.558  0.9864  0.2474 -0.5815
  109MOL0     H14702   7.314   0.939   2.663 -0.8726  0.7829 -2.1157
  109MOL0     H14703   7.304   0.487   2.830 -0.1260 -0.1044 -0.4774
  109MOL0     H14704   7.360   0.291   2.916 -2.8575  3.9043 -1.6190
  109MOL0     H14705   7.438   0.108   3.097 -0.7531 -0.1729 -1.0325
  109MOL0     H14706   7.478   0.106   2.919  0.9229 -2.0342 -0.3746
  109MOL0     H14707   7.655  -0.024   3.144 -3.9508 -1.1281  1.6259
  109MOL0     H14708   7.684  -0.012   2.970 -0.4921  1.5701 -1.0641
  109MOL0     H14709   7.433  -0.109   2.972  2.3039  1.5808 -2.1355
  109MOL0     H14710   7.457  -0.148   3.138 -0.6074 -1.1378  0.7496
  109MOL0     H14711   7.531  -0.339   3.070 -1.2807 -0.5115 -1.6312
  109MOL0     H14712   7.684  -0.268   3.056  0.4730  3.4362 -0.6387
  109MOL0     H14713   7.549  -0.310   2.646 -1.1479  1.4367  0.4054
  109MOL0     H14714   7.738   0.443   3.055 -1.2351 -3.5429  2.8551
  109MOL0     H14715   7.655   0.676   2.978 -0.9867  0.7836 -1.9202
  110MOL0     O14716   6.021   6.219   0.621  0.3317  0.0136  0.2285
  110MOL0     C14717   6.140   6.219   0.651  0.0202 -0.3087  1.0035
  110MOL0     O14718   6.211   6.330   0.695 -1.4897  0.2080  0.5934
  110MOL0     C14719   6.174   6.459   0.667 -0.1635  0.8669  1.1033
  110MOL0     C14720   6.269   6.557   0.667  1.3680  0.0981  0.0471
  110MOL0     C14721   6.235   6.691   0.654 -0.2258 -0.8426  0.7698
  110MOL0     C14722   6.104   6.731   0.611 -1.0099  0.9383  0.1170
  110MOL0     O14723   6.071   6.858   0.576 -0.0701  0.2334  0.1278
  110MOL0     C14724   6.177   6.935   0.509  0.3453  1.1773  0.2694
  110MOL0     C14725   6.129   7.072   0.465  0.6481 -0.1934  0.3614
  110MOL0     C14726   6.243   7.180   0.450  0.1161 -0.9753  0.2615
  110MOL0     C14727   6.332   7.142   0.326  0.3049  0.0787  0.6052
  110MOL0     C14728   6.415   7.253   0.266 -1.2402  0.6511  0.1357
  110MOL0     C14729   6.341   7.310   0.148 -0.6287 -0.7148  0.1082
  110MOL0     C14730   6.438   7.402   0.065  0.6436 -0.4606 -0.2248
  110MOL0     C14731   6.394   7.434  -0.083  0.2958 -1.2200 -1.0483
  110MOL0     N14732   6.251   7.484  -0.086  0.1579  0.3566  0.2914
  110MOL0     C14733   6.153   7.438  -0.182  0.3734  0.2906 -0.8931
  110MOL0     C14734   6.054   7.531  -0.168 -0.5101 -0.3863 -0.0139
  110MOL0     C14735   5.946   7.551  -0.276  0.9281  0.0374  1.0526
  110MOL0     C14736   5.865   7.417  -0.273 -0.0098  0.6271 -0.6453
  110MOL0     C14737   5.732   7.418  -0.350  0.2128  0.0894 -0.1123
  110MOL0     C14738   5.612   7.471  -0.272 -0.7947  0.5794 -0.1739
  110MOL0     O14739   5.564   7.369  -0.191 -0.0977  0.1548 -0.5540
  110MOL0     C14740   5.450   7.395  -0.108  0.3977 -0.1350  0.2702
  110MOL0     C14741   5.356   7.489  -0.136  0.0595 -0.8820 -0.6759
  110MOL0     C14742   5.249   7.509  -0.058  0.6780  0.1667 -0.4304
  110MOL0     C14743   5.152   7.617  -0.101 -0.0156 -0.0093 -0.8254
  110MOL0     C14744   5.234   7.421   0.052  0.5797 -0.3542  0.2214
  110MOL0     C14745   5.126   7.439   0.158 -0.0147 -0.4379 -0.1529
  110MOL0     O14746   5.139   7.360   0.264  0.2810  0.4910 -0.6099
  110MOL0     C14747   5.087   7.407   0.382 -1.0017  0.1888 -0.2783
  110MOL0     C14748   5.105   7.545   0.432 -0.7489  0.3034 -0.1729
  110MOL0     C14749   5.063   7.587   0.558 -0.1900 -0.0692 -0.0602
  110MOL0     C14750   4.989   7.500   0.632 -0.0689  0.4783 -0.2834
  110MOL0     O14751   4.920   7.546   0.742  0.2913 -0.3554 -0.3419
  110MOL0     C14752   4.847   7.457   0.832 -0.4278  0.7450 -0.5556
  110MOL0     C14753   4.822   7.534   0.964 -0.8091  0.6808  0.4711
  110MOL0     C14754   4.741   7.446   1.054  0.5013  0.2735 -0.3816
  110MOL0     C14755   4.678   7.542   1.159  0.4407  0.3260 -0.1749
  110MOL0     C14756   4.786   7.600   1.257  0.5890  0.9551  0.1544
  110MOL0     C14757   4.731   7.620   1.397  0.0816  0.4980  1.7175
  110MOL0     C14758   4.827   7.679   1.484 -0.0588 -0.6397 -0.0420
  110MOL0     C14759   4.763   7.756   1.600  0.4685 -0.0497 -0.3718
  110MOL0    Cl14760   4.687   7.902   1.531 -0.4438 -0.0734  0.3436
  110MOL0     C14761   4.981   7.364   0.588 -0.6767  0.2892  0.2586
  110MOL0     C14762   5.029   7.317   0.465  0.6006  0.4917  0.3978
  110MOL0     O14763   5.038   7.525   0.145  0.0288  0.4121 -0.2430
  110MOL0     C14764   5.328   7.325   0.084 -0.5807 -0.5942 -0.4931
  110MOL0     C14765   5.445   7.322   0.010  0.0613 -0.0288  0.5930
  110MOL0     N14766   6.085   7.615  -0.065  0.2865 -0.0911 -0.1072
  110MOL0     N14767   6.201   7.585  -0.016  0.1942  0.4941  0.6872
  110MOL0     C14768   6.016   6.633   0.598 -0.5134 -0.1075 -0.7473
  110MOL0     C14769   6.041   6.501   0.635 -0.3418 -1.6046  0.0580
  110MOL0     C14770   6.194   6.079   0.662 -0.3309 -1.0969  0.6246
  110MOL0     C14771   6.330   6.061   0.710 -0.8364  0.1515 -0.6448
  110MOL0     C14772   6.395   5.933   0.709  0.1691  0.2085  0.7611
  110MOL0     C14773   6.319   5.824   0.673  0.6942 -0.8779  0.5745
  110MOL0     O14774   6.370   5.696   0.654 -0.6267 -0.4471 -0.4510
  110MOL0     C14775   6.412   5.628   0.773  0.1667 -0.5635  0.5718
  110MOL0     C14776   6.291   5.585   0.857 -0.1784 -1.1221  0.0123
  110MOL0     C14777   6.223   5.470   0.788  0.1102  0.1297  0.5578
  110MOL0     C14778   6.150   5.361   0.877 -0.2579 -0.6730  0.0604
  110MOL0     C14779   6.157   5.233   0.809  1.5370 -0.8024 -0.1303
  110MOL0     C14780   6.156   5.120   0.756 -0.5829 -0.4751  0.3844
  110MOL0     C14781   6.189   5.839   0.628  0.1347 -0.4717  0.4794
  110MOL0     C14782   6.125   5.964   0.621  0.9395  0.6836 -1.1231
  110MOL0     H14783   6.366   6.527   0.705 -0.6178 -3.6261  2.8692
  110MOL0     H14784   6.311   6.765   0.680 -1.6071  1.9709 -2.4424
  110MOL0     H14785   6.263   6.944   0.576 -1.0760 -0.5017  2.4607
  110MOL0     H14786   6.214   6.883   0.420  0.9949 -0.1608  1.2891
  110MOL0     H14787   6.082   7.068   0.366  1.2963  3.1635 -0.1953
  110MOL0     H14788   6.056   7.096   0.542 -2.3274  0.3624 -2.4039
  110MOL0     H14789   6.189   7.274   0.435 -1.6443 -1.6779  1.8362
  110MOL0     H14790   6.310   7.179   0.537  0.3073 -0.0561  0.1385
  110MOL0     H14791   6.386   7.054   0.361 -3.8708 -2.6050  1.0777
  110MOL0     H14792   6.266   7.098   0.250 -3.5840  0.6940  3.3112
  110MOL0     H14793   6.435   7.321   0.349  0.2054  0.0529  0.3099
  110MOL0     H14794   6.511   7.210   0.235 -1.6420 -0.9138  0.9360
  110MOL0     H14795   6.315   7.229   0.079 -0.8442 -1.6555  1.2645
  110MOL0     H14796   6.248   7.364   0.167 -0.4955  0.4686 -2.2346
  110MOL0     H14797   6.481   7.483   0.123  2.2688 -2.5057  1.5887
  110MOL0     H14798   6.524   7.335   0.054 -0.1396 -1.4672 -0.4657
  110MOL0     H14799   6.401   7.345  -0.146 -1.6247 -0.8943 -1.7914
  110MOL0     H14800   6.468   7.500  -0.129  0.1777 -1.2480 -1.2854
  110MOL0     H14801   6.174   7.360  -0.255  0.0155 -1.1654  0.4952
  110MOL0     H14802   5.882   7.638  -0.262  0.3665  0.4418 -2.9701
  110MOL0     H14803   5.991   7.564  -0.375 -2.4587 -4.2617 -1.4514
  110MOL0     H14804   5.847   7.395  -0.167 -1.9035  3.3312 -0.2921
  110MOL0     H14805   5.933   7.347  -0.322  0.4037  1.1855 -0.8834
  110MOL0     H14806   5.717   7.313  -0.376  0.9568 -0.3368  1.0702
  110MOL0     H14807   5.738   7.473  -0.444  0.7377  1.4091  0.6551
  110MOL0     H14808   5.536   7.481  -0.350 -1.6085 -2.2020  0.1453
  110MOL0     H14809   5.624   7.569  -0.226 -1.7510  1.7300 -2.2560
  110MOL0     H14810   5.364   7.546  -0.228 -1.7028 -0.7121 -0.7690
  110MOL0     H14811   5.148   7.686  -0.017  0.2427 -2.8686  1.6790
  110MOL0     H14812   5.186   7.662  -0.195 -0.7462  0.0152 -1.0772
  110MOL0     H14813   5.054   7.569  -0.110 -0.4571  0.3220  1.5432
  110MOL0     H14814   5.163   7.611   0.368  1.6468  1.2159  2.6870
  110MOL0     H14815   5.093   7.685   0.594  0.3575 -0.4886  0.6503
  110MOL0     H14816   4.757   7.412   0.789  0.6166 -0.5985 -1.4183
  110MOL0     H14817   4.912   7.381   0.875 -0.9809  1.0812  0.9149
  110MOL0     H14818   4.915   7.573   1.008  0.1822 -0.4718 -0.5394
  110MOL0     H14819   4.771   7.623   0.927  0.9672  1.9167  0.8381
  110MOL0     H14820   4.794   7.354   1.081 -0.1297  0.3947  1.4219
  110MOL0     H14821   4.654   7.417   0.994  1.8896 -1.7534 -1.5524
  110MOL0     H14822   4.620   7.622   1.113  0.7102  1.1429  0.8664
  110MOL0     H14823   4.595   7.494   1.210 -0.0674  1.1205 -0.2355
  110MOL0     H14824   4.824   7.694   1.215  0.9272  0.2722 -1.1160
  110MOL0     H14825   4.869   7.529   1.259  0.6543  1.0056  2.6389
  110MOL0     H14826   4.637   7.676   1.392  0.9021  2.1048 -4.3068
  110MOL0     H14827   4.695   7.520   1.423  0.0100 -0.1094 -0.4817
  110MOL0     H14828   4.901   7.739   1.431 -0.3871  0.0824  0.3040
  110MOL0     H14829   4.888   7.594   1.519 -3.0021 -1.8586  2.5907
  110MOL0     H14830   4.844   7.784   1.668  0.5257  0.6639 -0.7161
  110MOL0     H14831   4.694   7.696   1.660 -0.8014  1.2897 -0.4433
  110MOL0     H14832   4.923   7.294   0.648  1.0549 -0.9485  0.5803
  110MOL0     H14833   5.011   7.219   0.422  2.6606  0.2892 -0.0771
  110MOL0     H14834   5.325   7.259   0.170 -0.1248  0.4944  0.3751
  110MOL0     H14835   5.532   7.257   0.016  0.2856  0.3254  1.3542
  110MOL0     H14836   5.916   6.658   0.564 -1.4099 -1.7825  0.5049
  110MOL0     H14837   5.956   6.435   0.648 -0.4471 -1.8077 -1.4686
  110MOL0     H14838   6.386   6.148   0.743  1.8056 -1.6656 -0.0523
  110MOL0     H14839   6.498   5.925   0.740  0.2542  2.5020  1.2311
  110MOL0     H14840   6.482   5.545   0.758 -3.9623 -4.2315 -0.4327
  110MOL0     H14841   6.465   5.701   0.836 -0.2736 -0.2650  0.5968
  110MOL0     H14842   6.207   5.653   0.873 -2.0870 -3.4019  0.1641
  110MOL0     H14843   6.325   5.549   0.954 -0.6107 -6.2303 -1.4686
  110MOL0     H14844   6.311   5.421   0.746  0.9089  0.3584  1.9144
  110MOL0     H14845   6.150   5.512   0.717  1.3718  0.6243 -0.4850
  110MOL0     H14846   6.048   5.385   0.907  0.1286  0.0981  0.7930
  110MOL0     H14847   6.212   5.347   0.966  1.8818 -1.5878 -1.4993
  110MOL0     H14848   6.164   5.022   0.714  4.2967 -0.1726  0.0804
  110MOL0     H14849   6.130   5.754   0.597  2.4313 -1.7736 -0.5521
  110MOL0     H14850   6.024   5.982   0.587  0.8485  2.0596 -0.2272
  111MOL0     O14851   4.840   0.775   4.896  0.4517  0.0201  0.3349
  111MOL0     C14852   4.921   0.689   4.859  1.2223  0.8362 -0.3839
  111MOL0     O14853   4.966   0.678   4.729 -0.1687  0.4269 -0.2525
  111MOL0     C14854   4.930   0.776   4.638 -0.0119  0.6852 -0.5207
  111MOL0     C14855   4.819   0.758   4.555 -0.6525  0.0558 -0.3213
  111MOL0     C14856   4.787   0.860   4.453 -0.0135  0.6937 -0.0950
  111MOL0     C14857   4.859   0.972   4.441  0.6799  0.3396 -0.5642
  111MOL0     O14858   4.832   1.060   4.339  0.0278 -0.4274 -0.3662
  111MOL0     C14859   4.929   1.063   4.237 -0.3156 -0.1948 -0.1895
  111MOL0     C14860   4.898   1.180   4.140  0.6644  0.6929 -0.2996
  111MOL0     C14861   4.981   1.177   4.010 -0.3617 -0.8361 -0.0008
  111MOL0     C14862   5.122   1.223   4.043  0.7703 -1.4525  0.2089
  111MOL0     C14863   5.207   1.232   3.916  0.0124  1.2390  0.5712
  111MOL0     C14864   5.356   1.236   3.954 -0.8225  0.5568  0.4759
  111MOL0     C14865   5.434   1.270   3.831 -0.3023 -0.4935  0.3388
  111MOL0     C14866   5.584   1.282   3.853 -0.6949 -0.2552  0.6468
  111MOL0     N14867   5.655   1.166   3.914 -0.1313  0.2366 -0.2388
  111MOL0     C14868   5.625   1.036   3.902  0.2535  0.2939 -0.2813
  111MOL0     C14869   5.719   0.970   3.983 -0.1254 -0.5087  0.1579
  111MOL0     C14870   5.762   0.823   3.981 -0.0580 -0.0172  0.2766
  111MOL0     C14871   5.748   0.756   4.115 -0.7751  0.4499  0.3444
  111MOL0     C14872   5.612   0.750   4.195 -0.2124 -0.5989 -0.0919
  111MOL0     C14873   5.635   0.717   4.339  0.6052  0.1259  0.3939
  111MOL0     O14874   5.704   0.598   4.350 -0.4055 -0.1915  0.1987
  111MOL0     C14875   5.646   0.479   4.335 -0.4247  0.1271  0.7714
  111MOL0     C14876   5.518   0.460   4.293  0.1050 -0.0772 -0.1822
  111MOL0     C14877   5.461   0.339   4.284 -0.4318  0.8899  0.0195
  111MOL0     C14878   5.324   0.326   4.234  0.2442 -0.1680  0.2226
  111MOL0     C14879   5.540   0.228   4.330  0.3251 -0.2195  1.5156
  111MOL0     C14880   5.488   0.084   4.313 -0.5755  0.2167 -0.4477
  111MOL0     O14881   5.526  -0.009   4.408  0.5634 -0.6223  0.4224
  111MOL0     C14882   5.495  -0.140   4.396 -0.1782  0.0685 -0.3818
  111MOL0     C14883   5.604  -0.227   4.391 -0.0017  0.7794 -0.5111
  111MOL0     C14884   5.584  -0.367   4.387  1.2566  0.0931 -0.0468
  111MOL0     C14885   5.455  -0.425   4.386  0.0328  0.6107 -0.9058
  111MOL0     O14886   5.431  -0.562   4.367 -0.3498  0.2998 -0.5012
  111MOL0     C14887   5.532  -0.667   4.373  0.6397 -1.2035 -0.7223
  111MOL0     C14888   5.641  -0.673   4.260 -0.6181 -0.7529 -0.1704
  111MOL0     C14889   5.602  -0.783   4.161 -0.7832  0.2517 -0.0187
  111MOL0     C14890   5.706  -0.776   4.051 -0.0774  1.1742  0.6087
  111MOL0     C14891   5.653  -0.837   3.926  0.4180  1.0557  0.6105
  111MOL0     C14892   5.769  -0.860   3.821  0.3740  0.3324 -0.3095
  111MOL0     C14893   5.695  -0.889   3.689 -0.0678  0.0173  0.8971
  111MOL0     C14894   5.801  -0.908   3.573  1.1088  0.4378 -0.4890
  111MOL0    Cl14895   5.692  -0.901   3.431  0.4501  0.2342  0.3691
  111MOL0     C14896   5.344  -0.342   4.369 -0.3321  0.6859  0.2461
  111MOL0     C14897   5.368  -0.199   4.372  0.3211 -0.4888 -0.2665
  111MOL0     O14898   5.422   0.057   4.213 -0.0927 -0.4912 -0.2266
  111MOL0     C14899   5.671   0.244   4.374 -0.3404 -0.2559  0.5048
  111MOL0     C14900   5.728   0.374   4.369  0.2535  1.1579  0.6155
  111MOL0     N14901   5.797   1.057   4.049  0.8340 -0.1613  0.4367
  111MOL0     N14902   5.749   1.175   4.016 -0.6823 -0.4463 -0.1519
  111MOL0     C14903   4.965   0.990   4.528 -0.3608 -0.0549 -0.5023
  111MOL0     C14904   5.001   0.896   4.628 -0.4403  0.7352 -0.1391
  111MOL0     C14905   5.009   0.624   4.962 -0.3785  0.2930  0.3990
  111MOL0     C14906   5.005   0.649   5.104 -0.2909 -0.6364  0.4337
  111MOL0     C14907   5.087   0.573   5.189  0.9188 -1.5045 -0.1326
  111MOL0     C14908   5.174   0.481   5.138  0.4681 -0.4120 -0.3979
  111MOL0     O14909   5.268   0.414   5.219 -0.0702  0.0034  0.6808
  111MOL0     C14910   5.278   0.405   5.361  0.2816 -0.8746 -0.8278
  111MOL0     C14911   5.355   0.281   5.389  0.3852 -1.0108 -0.8247
  111MOL0     C14912   5.323   0.232   5.532  0.1881 -0.6879 -0.7784
  111MOL0     C14913   5.369   0.327   5.649  0.0819  0.7445 -0.3581
  111MOL0     C14914   5.269   0.336   5.757  0.7867 -0.3447 -0.8158
  111MOL0     C14915   5.201   0.332   5.856 -0.0473  0.1836 -0.0117
  111MOL0     C14916   5.172   0.453   5.003 -0.4619  0.4688 -0.5718
  111MOL0     C14917   5.079   0.514   4.919 -0.1287  0.0741  0.2173
  111MOL0     H14918   4.777   0.658   4.559  0.5182 -0.4277  0.4399
  111MOL0     H14919   4.706   0.824   4.390 -0.0285 -0.9982  0.8126
  111MOL0     H14920   5.028   1.089   4.276 -0.6840  1.8552 -0.5008
  111MOL0     H14921   4.930   0.964   4.191 -0.6071 -0.6263  0.7120
  111MOL0     H14922   4.794   1.174   4.107 -0.2743  2.6813  1.9512
  111MOL0     H14923   4.902   1.276   4.192 -0.3497  1.2535 -1.2098
  111MOL0     H14924   4.995   1.079   3.962  2.6235  0.5034 -2.1438
  111MOL0     H14925   4.931   1.247   3.943  0.9974 -0.1094 -0.2868
  111MOL0     H14926   5.128   1.324   4.085  0.8642 -0.5453 -1.8579
  111MOL0     H14927   5.178   1.157   4.109  1.1601 -2.7170 -1.3246
  111MOL0     H14928   5.190   1.147   3.848  2.6558  0.4511  0.7836
  111MOL0     H14929   5.177   1.328   3.875  1.3869  2.7745  2.9463
  111MOL0     H14930   5.379   1.308   4.033  1.4897  1.6137 -1.0659
  111MOL0     H14931   5.388   1.133   3.974  1.4495  0.6655 -2.1025
  111MOL0     H14932   5.430   1.187   3.760  1.6526 -0.6681  0.3853
  111MOL0     H14933   5.398   1.357   3.775  1.7834 -1.1298 -2.2060
  111MOL0     H14934   5.607   1.361   3.925  0.3624 -1.4838  1.7097
  111MOL0     H14935   5.627   1.319   3.759  0.8039  0.7976  1.6894
  111MOL0     H14936   5.555   0.982   3.839 -1.1926  1.5536  0.1985
  111MOL0     H14937   5.697   0.769   3.912 -0.5779  2.6150 -1.4211
  111MOL0     H14938   5.866   0.814   3.947 -0.6107  1.8501 -2.1154
  111MOL0     H14939   5.825   0.795   4.182  0.8938  1.4054 -2.0000
  111MOL0     H14940   5.774   0.650   4.102  1.3491  0.7425  1.6761
  111MOL0     H14941   5.545   0.674   4.156  1.9852 -1.3208 -2.7583
  111MOL0     H14942   5.552   0.841   4.182 -0.5207 -0.9979 -1.6217
  111MOL0     H14943   5.548   0.718   4.405  0.4482  0.1149  0.1862
  111MOL0     H14944   5.707   0.791   4.377  1.4203 -0.8107  0.7215
  111MOL0     H14945   5.454   0.544   4.266  1.7490  1.4998  0.5818
  111MOL0     H14946   5.280   0.426   4.233 -0.8170 -0.6083 -2.0551
  111MOL0     H14947   5.330   0.277   4.136 -2.2191  0.2712 -0.2025
  111MOL0     H14948   5.261   0.266   4.299  1.0633 -0.0507  1.1474
  111MOL0     H14949   5.710  -0.203   4.385  0.5504 -1.6986 -1.9939
  111MOL0     H14950   5.677  -0.422   4.380  1.3513  0.4465 -2.2397
  111MOL0     H14951   5.590  -0.642   4.463  2.4184  1.1882 -2.4164
  111MOL0     H14952   5.489  -0.766   4.389 -3.0467  0.3651 -0.0410
  111MOL0     H14953   5.640  -0.581   4.200  1.0716  0.2738  1.2924
  111MOL0     H14954   5.735  -0.714   4.298 -1.7506 -1.4964  1.9950
  111MOL0     H14955   5.500  -0.761   4.127 -1.2067 -0.8510  0.4613
  111MOL0     H14956   5.592  -0.884   4.202 -2.1003 -0.4541 -1.9169
  111MOL0     H14957   5.739  -0.676   4.022  0.6305  0.7115 -0.2393
  111MOL0     H14958   5.801  -0.817   4.086  0.0393  1.7490  0.9719
  111MOL0     H14959   5.579  -0.763   3.895  0.4810  0.7521 -0.2912
  111MOL0     H14960   5.599  -0.930   3.943  1.9422  0.3344  1.7866
  111MOL0     H14961   5.832  -0.770   3.824  1.4897 -0.4422  0.3458
  111MOL0     H14962   5.825  -0.949   3.851 -2.7776 -0.9561  2.3549
  111MOL0     H14963   5.634  -0.803   3.662  0.0332 -0.9691 -3.2435
  111MOL0     H14964   5.632  -0.977   3.705  0.2688 -0.1093  1.5712
  111MOL0     H14965   5.841  -1.009   3.571  0.4133  0.1498 -0.1520
  111MOL0     H14966   5.870  -0.823   3.575 -2.4434  3.5980  1.2685
  111MOL0     H14967   5.245  -0.379   4.344 -0.4865  2.1085 -1.4193
  111MOL0     H14968   5.286  -0.131   4.347  0.4624 -0.7459 -1.5153
  111MOL0     H14969   5.726   0.151   4.383 -0.1272 -0.6015 -3.1324
  111MOL0     H14970   5.828   0.385   4.409  2.1545  0.8803 -3.5542
  111MOL0     H14971   5.028   1.078   4.534  0.7234 -0.6776 -2.0732
  111MOL0     H14972   5.079   0.909   4.703 -2.0766  1.7292  1.4567
  111MOL0     H14973   4.945   0.736   5.131  0.4785  1.6591 -4.1152
  111MOL0     H14974   5.085   0.591   5.296  0.6866 -1.5678 -0.1257
  111MOL0     H14975   5.325   0.491   5.410 -0.4678 -1.1360  0.4058
  111MOL0     H14976   5.173   0.405   5.393  0.7057 -2.0834  0.6822
  111MOL0     H14977   5.461   0.301   5.372  0.2183  3.4400  1.6714
  111MOL0     H14978   5.323   0.206   5.316  0.2217 -2.1040  0.3360
  111MOL0     H14979   5.383   0.144   5.559  0.8041  0.3936  1.6419
  111MOL0     H14980   5.218   0.208   5.551  1.0214 -2.4698  2.4603
  111MOL0     H14981   5.390   0.430   5.618  0.7179  0.3777 -1.1504
  111MOL0     H14982   5.455   0.282   5.698 -2.7282 -0.8774  3.6605
  111MOL0     H14983   5.156   0.322   5.953 -0.2116  0.7454 -0.0280
  111MOL0     H14984   5.238   0.376   4.963  0.5555  0.4822  1.0013
  111MOL0     H14985   5.069   0.473   4.819  0.2199 -2.9314  1.3133
  112MOL0     O14986   4.254   7.712   4.197 -0.4202  0.0867  0.2809
  112MOL0     C14987   4.157   7.693   4.127 -0.7217  0.3574  0.2459
  112MOL0     O14988   4.109   7.567   4.080  0.2082 -0.3951 -0.0418
  112MOL0     C14989   4.134   7.456   4.149 -0.5513  0.8391  0.9896
  112MOL0     C14990   4.116   7.454   4.280 -0.3029 -0.3752 -0.3531
  112MOL0     C14991   4.118   7.332   4.348 -0.4149  0.7880  0.1490
  112MOL0     C14992   4.153   7.212   4.292  0.1096  0.0594 -0.6578
  112MOL0     O14993   4.169   7.093   4.359  0.7369  0.8308  0.5401
  112MOL0     C14994   4.096   7.078   4.477  0.0256  1.1288  0.0867
  112MOL0     C14995   4.126   6.951   4.563  0.6509 -0.4005 -0.2581
  112MOL0     C14996   4.135   6.831   4.472  0.8366  0.0523  0.0338
  112MOL0     C14997   3.991   6.804   4.407  0.0361  1.1957 -0.2281
  112MOL0     C14998   3.982   6.670   4.340 -0.0598  0.6039 -1.0930
  112MOL0     C14999   3.841   6.637   4.269  1.0698 -0.3565 -0.1521
  112MOL0     C15000   3.724   6.618   4.365 -0.6265 -0.6092 -0.2792
  112MOL0     C15001   3.584   6.611   4.278 -0.0562  0.4052  0.6022
  112MOL0     N15002   3.548   6.734   4.206  0.1846  0.3304  0.4614
  112MOL0     C15003   3.561   6.782   4.073  0.1660 -0.1781  0.5061
  112MOL0     C15004   3.538   6.917   4.079 -0.5627 -0.7319  0.0544
  112MOL0     C15005   3.553   7.020   3.965 -0.2001  0.3745 -1.0829
  112MOL0     C15006   3.469   6.978   3.844 -0.3021 -0.5575 -1.0366
  112MOL0     C15007   3.517   7.048   3.720 -0.7643  0.0978 -0.1522
  112MOL0     C15008   3.415   7.040   3.604  0.7000 -0.0846  0.5791
  112MOL0     O15009   3.385   6.897   3.583 -0.4494  1.6512  0.5369
  112MOL0     C15010   3.377   6.847   3.453 -0.1635 -0.4217  0.0349
  112MOL0     C15011   3.416   6.719   3.423 -0.6459 -0.3357 -0.1409
  112MOL0     C15012   3.420   6.663   3.291  0.3673  0.6209 -0.3285
  112MOL0     C15013   3.455   6.526   3.277  0.7381  0.5830 -0.3272
  112MOL0     C15014   3.366   6.737   3.187  0.1187 -0.5155  1.0305
  112MOL0     C15015   3.359   6.690   3.041  0.1050 -0.0793 -0.0714
  112MOL0     O15016   3.333   6.557   3.019  0.3727 -0.7497 -0.0261
  112MOL0     C15017   3.357   6.522   2.890 -0.0055  0.4787 -0.4264
  112MOL0     C15018   3.458   6.436   2.876 -0.0246 -0.9948  0.3779
  112MOL0     C15019   3.486   6.383   2.746 -0.1459 -0.6765 -0.0789
  112MOL0     C15020   3.391   6.406   2.641 -0.9929  0.5013  1.6213
  112MOL0     O15021   3.404   6.357   2.511 -0.0609 -0.1988 -0.6829
  112MOL0     C15022   3.508   6.268   2.478 -0.1553  0.4300 -0.3869
  112MOL0     C15023   3.625   6.358   2.433 -0.5971 -0.3060 -0.3363
  112MOL0     C15024   3.743   6.268   2.389 -0.0761  0.2102 -0.8788
  112MOL0     C15025   3.853   6.346   2.331 -0.4571 -1.0201 -0.4124
  112MOL0     C15026   3.947   6.410   2.439 -0.2041  0.1569  0.5604
  112MOL0     C15027   4.060   6.490   2.363 -0.4435 -0.5707  0.0432
  112MOL0     C15028   4.177   6.534   2.437 -0.7024 -0.1044  0.5064
  112MOL0     C15029   4.148   6.661   2.506 -0.0905  0.6504 -0.6476
  112MOL0    Cl15030   4.081   6.617   2.672  0.0975 -0.2028 -0.2659
  112MOL0     C15031   3.288   6.501   2.662  0.2933  0.2164 -0.2483
  112MOL0     C15032   3.262   6.546   2.783 -0.6043 -0.7365 -0.6461
  112MOL0     O15033   3.360   6.780   2.960  0.3203 -0.1097 -0.1845
  112MOL0     C15034   3.337   6.871   3.213  0.5105  0.6557  0.8152
  112MOL0     C15035   3.342   6.927   3.340  0.0217  0.3661 -0.1056
  112MOL0     N15036   3.507   6.946   4.214  0.2020 -0.7157  0.6382
  112MOL0     N15037   3.504   6.836   4.277 -0.1394  0.3430  0.0882
  112MOL0     C15038   4.180   7.217   4.156  0.4008  1.1864  0.2277
  112MOL0     C15039   4.161   7.339   4.086  0.0120  0.7577  0.6907
  112MOL0     C15040   4.081   7.808   4.091  0.3312 -0.1257 -1.0529
  112MOL0     C15041   4.108   7.940   4.143 -0.1659  0.0870  1.2193
  112MOL0     C15042   4.031   8.047   4.092 -0.4472 -0.4578 -1.0993
  112MOL0     C15043   3.931   8.033   3.989 -0.9240 -0.5526 -0.3645
  112MOL0     O15044   3.863   8.149   3.956 -0.3069  0.5873 -0.8712
  112MOL0     C15045   3.775   8.133   3.846 -0.2291  1.0195  0.1348
  112MOL0     C15046   3.764   8.270   3.797 -0.1572 -0.3040  0.1354
  112MOL0     C15047   3.699   8.281   3.654  0.6793 -0.0036  0.6190
  112MOL0     C15048   3.700   8.423   3.598  0.3973  0.1263  0.6963
  112MOL0     C15049   3.600   8.427   3.490 -0.6085  0.0449 -0.1415
  112MOL0     C15050   3.546   8.434   3.381  0.4738  0.2092 -0.4023
  112MOL0     C15051   3.917   7.898   3.937  0.2979 -1.0095 -0.1566
  112MOL0     C15052   3.986   7.790   3.993  0.8100 -0.4783 -0.3948
  112MOL0     H15053   4.093   7.545   4.334  0.3205  0.4279 -1.3981
  112MOL0     H15054   4.120   7.348   4.455 -3.6894  2.3422  0.0992
  112MOL0     H15055   4.110   7.167   4.538  2.4186  0.5479  0.4888
  112MOL0     H15056   3.992   7.058   4.450 -0.2526 -1.3395  2.5409
  112MOL0     H15057   4.206   6.961   4.636  1.1722 -1.3473 -0.6810
  112MOL0     H15058   4.032   6.939   4.618 -1.5140  3.8348 -2.5196
  112MOL0     H15059   4.220   6.854   4.406 -0.1292  1.3387 -0.8122
  112MOL0     H15060   4.170   6.739   4.520 -1.5970 -1.4077 -0.8159
  112MOL0     H15061   3.909   6.796   4.479  0.1470  1.8838 -0.0144
  112MOL0     H15062   3.962   6.883   4.337  0.8105  1.5968 -0.1008
  112MOL0     H15063   4.065   6.658   4.271 -1.5802  1.1783 -3.1086
  112MOL0     H15064   4.000   6.588   4.411 -0.0007  1.5606  0.0251
  112MOL0     H15065   3.813   6.726   4.212 -1.6831  0.2434  1.8894
  112MOL0     H15066   3.853   6.554   4.199  0.9022 -0.7868  0.3230
  112MOL0     H15067   3.748   6.530   4.426  1.0916  0.9682  1.4620
  112MOL0     H15068   3.720   6.700   4.437  0.9331 -0.1058 -0.7155
  112MOL0     H15069   3.507   6.599   4.355  2.1625  0.3355  2.9178
  112MOL0     H15070   3.593   6.528   4.207  0.3012  0.4149  0.6341
  112MOL0     H15071   3.600   6.723   3.991  0.8224 -0.2406  0.8533
  112MOL0     H15072   3.529   7.121   4.000 -1.9110  0.0581 -1.2398
  112MOL0     H15073   3.654   7.030   3.923 -0.1548  0.0229 -1.0540
  112MOL0     H15074   3.369   7.017   3.863  0.4107  1.5567 -1.4238
  112MOL0     H15075   3.462   6.872   3.816 -0.6705 -0.4572 -1.3275
  112MOL0     H15076   3.608   7.000   3.684 -1.0744  1.3235 -2.8526
  112MOL0     H15077   3.549   7.149   3.748 -0.3159 -0.7802  2.8192
  112MOL0     H15078   3.450   7.094   3.516  0.3190  0.9329  1.0370
  112MOL0     H15079   3.320   7.085   3.635 -0.1270 -0.9982 -0.5576
  112MOL0     H15080   3.449   6.655   3.504 -1.5842 -1.7224 -0.8186
  112MOL0     H15081   3.533   6.521   3.200  1.2990  0.6273  0.2300
  112MOL0     H15082   3.501   6.481   3.365 -0.1698 -2.0093 -1.0931
  112MOL0     H15083   3.368   6.463   3.257 -0.0633  1.1473  1.2402
  112MOL0     H15084   3.523   6.417   2.961 -0.2344 -1.7585  0.3772
  112MOL0     H15085   3.580   6.333   2.725  0.5464  0.1100  1.0289
  112MOL0     H15086   3.532   6.191   2.552  2.7592 -0.8568 -2.4850
  112MOL0     H15087   3.467   6.216   2.391 -1.8981 -3.3030  2.3607
  112MOL0     H15088   3.604   6.431   2.354  1.4727  0.7745  0.0318
  112MOL0     H15089   3.661   6.417   2.518 -0.1824  0.5282 -1.0766
  112MOL0     H15090   3.718   6.197   2.309  0.3051 -1.8840  0.7666
  112MOL0     H15091   3.785   6.214   2.473  0.2611 -0.9927 -1.7911
  112MOL0     H15092   3.925   6.283   2.278  3.3384  4.2005 -2.2686
  112MOL0     H15093   3.812   6.417   2.258 -3.1664 -2.3202 -0.2713
  112MOL0     H15094   3.997   6.331   2.496  1.6501  0.3581 -0.6859
  112MOL0     H15095   3.889   6.469   2.511  1.6226  1.6989  0.8484
  112MOL0     H15096   4.099   6.441   2.273 -2.0661  0.2975 -1.1778
  112MOL0     H15097   4.006   6.577   2.324 -3.2814 -1.3276  1.9964
  112MOL0     H15098   4.266   6.546   2.374 -1.1512  1.4243  0.1130
  112MOL0     H15099   4.196   6.458   2.513 -0.2319 -2.4743 -1.8075
  112MOL0     H15100   4.071   6.723   2.458  0.1664  0.8850 -0.7570
  112MOL0     H15101   4.243   6.715   2.507 -0.1698  0.8604 -1.9730
  112MOL0     H15102   3.231   6.543   2.579  1.6717  0.4670 -1.1071
  112MOL0     H15103   3.177   6.610   2.802 -0.3123 -0.1833 -1.1577
  112MOL0     H15104   3.315   6.945   3.137  1.6709  1.7677  1.5317
  112MOL0     H15105   3.301   7.028   3.349  0.4389  0.9134 -3.2641
  112MOL0     H15106   4.214   7.130   4.100 -2.4637  0.3202 -0.3200
  112MOL0     H15107   4.178   7.347   3.979  3.9504  1.1513  1.2073
  112MOL0     H15108   4.176   7.960   4.225 -2.2833  2.3747  2.5556
  112MOL0     H15109   4.033   8.147   4.133 -0.1305 -0.1847 -1.7711
  112MOL0     H15110   3.804   8.078   3.755 -1.1600  2.7446 -1.2664
  112MOL0     H15111   3.682   8.084   3.877  1.1634 -1.8363  0.1939
  112MOL0     H15112   3.867   8.305   3.787 -0.1304  0.5949  2.7368
  112MOL0     H15113   3.717   8.342   3.864  2.0177  0.9968  0.3320
  112MOL0     H15114   3.594   8.252   3.665  0.1434  1.6811  0.3156
  112MOL0     H15115   3.750   8.218   3.581  0.6383 -1.0691  1.4758
  112MOL0     H15116   3.801   8.440   3.560  1.8067 -1.4123  3.4645
  112MOL0     H15117   3.685   8.498   3.676 -1.0676  1.7685 -1.0531
  112MOL0     H15118   3.503   8.433   3.283  1.2239  0.8068 -0.7401
  112MOL0     H15119   3.861   7.878   3.847 -0.7180  0.0396  0.2174
  112MOL0     H15120   3.955   7.700   3.941 -0.9499  0.8820 -1.8208
  113MOL0     O15121   3.093   0.248   3.279  0.2239 -0.2134 -0.2799
  113MOL0     C15122   2.970   0.260   3.273 -0.8213  0.2665  0.6314
  113MOL0     O15123   2.898   0.232   3.158  0.4666  0.0267  0.1114
  113MOL0     C15124   2.945   0.198   3.022  0.0242  0.7107 -0.0817
  113MOL0     C15125   3.079   0.199   2.986 -0.2941 -0.2170 -0.7053
  113MOL0     C15126   3.111   0.170   2.856 -0.4762  0.1019  0.0392
  113MOL0     C15127   3.009   0.133   2.761  0.0820 -0.6168 -0.3790
  113MOL0     O15128   3.038   0.109   2.627 -0.0302  0.3213 -0.3028
  113MOL0     C15129   3.161   0.041   2.593  0.4632  0.4632  0.1520
  113MOL0     C15130   3.197   0.046   2.448 -0.8446 -0.0626 -0.0793
  113MOL0     C15131   3.094  -0.029   2.366 -0.0758 -0.0867 -0.1787
  113MOL0     C15132   3.057   0.021   2.225  0.4409 -0.1008 -0.3765
  113MOL0     C15133   2.963  -0.059   2.147 -0.5482 -0.3105  0.2117
  113MOL0     C15134   2.928   0.008   2.015 -1.0482 -0.4033  0.0697
  113MOL0     C15135   2.831   0.133   2.040 -0.3589 -1.0910  0.8942
  113MOL0     C15136   2.781   0.188   1.902  0.3313  0.0348 -0.1409
  113MOL0     N15137   2.848   0.290   1.823  0.0865  0.0173 -0.1210
  113MOL0     C15138   2.864   0.416   1.866  0.6808  0.2332  0.3145
  113MOL0     C15139   2.939   0.470   1.769 -0.3217 -0.0149  0.6334
  113MOL0     C15140   2.982   0.614   1.746  0.3813 -0.4628 -0.0416
  113MOL0     C15141   3.132   0.643   1.769  0.7182 -0.7779 -0.3092
  113MOL0     C15142   3.190   0.785   1.736  0.0961 -1.1160 -0.2442
  113MOL0     C15143   3.220   0.811   1.589  0.3486 -0.7371  0.0142
  113MOL0     O15144   3.095   0.808   1.511 -0.6626  0.0254  0.3027
  113MOL0     C15145   3.095   0.903   1.413 -1.1411  0.8050 -0.2913
  113MOL0     C15146   3.163   0.860   1.294 -1.2105 -1.1687 -0.7263
  113MOL0     C15147   3.189   0.941   1.178  0.8299 -0.3350  0.1644
  113MOL0     C15148   3.263   0.881   1.065  0.2522 -0.5684 -0.9207
  113MOL0     C15149   3.133   1.078   1.178 -0.5342  0.2824  0.5117
  113MOL0     C15150   3.115   1.158   1.059 -0.0987 -0.3159  0.5583
  113MOL0     O15151   3.064   1.277   1.074 -0.0067 -0.6470 -0.3381
  113MOL0     C15152   3.019   1.330   0.957  0.6587 -0.2537  0.2866
  113MOL0     C15153   3.098   1.389   0.853 -0.1068  0.2750 -1.0920
  113MOL0     C15154   3.038   1.445   0.738  0.4403 -0.5074 -0.2913
  113MOL0     C15155   2.899   1.456   0.738  0.4713  0.3487 -0.0137
  113MOL0     O15156   2.835   1.520   0.641 -0.0445 -0.7301 -0.0737
  113MOL0     C15157   2.877   1.650   0.594 -0.4078  0.7596  0.0918
  113MOL0     C15158   2.798   1.754   0.664  0.2756 -0.9907 -0.7114
  113MOL0     C15159   2.825   1.892   0.601  0.4168  0.5671 -0.0344
  113MOL0     C15160   2.965   1.939   0.629 -0.3153  0.0552  0.4248
  113MOL0     C15161   2.974   2.080   0.563 -1.3119  0.6631 -1.0462
  113MOL0     C15162   3.113   2.132   0.595  0.8509  1.2982 -0.4816
  113MOL0     C15163   3.152   2.256   0.509 -0.5035  0.0195 -1.3259
  113MOL0     C15164   3.295   2.300   0.553 -0.6016 -0.3469  1.5243
  113MOL0    Cl15165   3.303   2.480   0.495 -0.1711  0.2374  0.6214
  113MOL0     C15166   2.815   1.408   0.836 -0.2462  0.0468  0.9009
  113MOL0     C15167   2.877   1.342   0.948 -0.7933  0.1091  0.0027
  113MOL0     O15168   3.131   1.104   0.952  0.5413 -0.5036  0.8418
  113MOL0     C15169   3.065   1.111   1.296  0.1641 -0.1493  0.5263
  113MOL0     C15170   3.048   1.033   1.412 -0.4966  0.6087  0.7671
  113MOL0     N15171   2.970   0.373   1.680  0.2911 -0.3652  0.2011
  113MOL0     N15172   2.914   0.261   1.705  0.0876 -0.1394 -0.3787
  113MOL0     C15173   2.875   0.135   2.802 -0.4744 -0.2723 -0.8038
  113MOL0     C15174   2.849   0.158   2.936  0.0813 -0.6213 -0.2393
  113MOL0     C15175   2.895   0.290   3.399 -0.1543  0.4613 -0.3546
  113MOL0     C15176   2.763   0.326   3.398 -0.1561  0.1251  0.0769
  113MOL0     C15177   2.693   0.358   3.518 -0.2957  0.0855  0.2299
  113MOL0     C15178   2.754   0.354   3.636 -1.0468  0.7374 -0.0709
  113MOL0     O15179   2.690   0.399   3.751  0.7012 -0.2717  0.1252
  113MOL0     C15180   2.599   0.299   3.807 -0.6915  0.5939  0.0638
  113MOL0     C15181   2.592   0.307   3.960  1.0890 -1.0656  0.1704
  113MOL0     C15182   2.565   0.459   4.013 -0.1758  0.6289  0.1663
  113MOL0     C15183   2.552   0.454   4.166  0.1061  0.2488  0.2709
  113MOL0     C15184   2.433   0.396   4.219 -0.4343 -0.2633 -0.0571
  113MOL0     C15185   2.340   0.347   4.273  0.4504 -0.4017 -0.9361
  113MOL0     C15186   2.887   0.323   3.643 -0.2311  0.1966 -0.4581
  113MOL0     C15187   2.956   0.287   3.526  0.2649 -0.6711 -0.2416
  113MOL0     H15188   3.148   0.250   3.053 -0.5933 -0.6121 -0.0880
  113MOL0     H15189   3.214   0.189   2.827 -0.6898  0.5988 -0.4227
  113MOL0     H15190   3.248   0.089   2.638  0.8549  0.6020 -0.7338
  113MOL0     H15191   3.154  -0.061   2.633 -2.5171  1.1673  1.7217
  113MOL0     H15192   3.191   0.151   2.418 -0.8258 -0.2238 -0.6514
  113MOL0     H15193   3.301   0.015   2.433 -0.9681 -0.3192 -0.4085
  113MOL0     H15194   3.145  -0.126   2.358  4.0248  1.8351 -0.0330
  113MOL0     H15195   3.006  -0.023   2.431  0.9827 -0.9998  1.4274
  113MOL0     H15196   3.017   0.122   2.236 -3.7384 -1.2217 -3.0469
  113MOL0     H15197   3.153   0.022   2.173  0.2071 -1.2362 -0.8707
  113MOL0     H15198   3.012  -0.154   2.127  1.4243  0.7034 -0.0493
  113MOL0     H15199   2.870  -0.079   2.201 -0.7314 -2.3325 -0.7867
  113MOL0     H15200   3.012   0.047   1.956 -2.7464  2.1121 -0.8356
  113MOL0     H15201   2.866  -0.058   1.955 -0.3860 -2.4586  1.5079
  113MOL0     H15202   2.747   0.117   2.108  0.1402  0.9363  2.0797
  113MOL0     H15203   2.891   0.212   2.086 -2.0237 -0.0261  1.3231
  113MOL0     H15204   2.681   0.225   1.925 -0.2722 -1.1565 -0.7422
  113MOL0     H15205   2.766   0.101   1.837 -2.8012 -0.6055  1.2840
  113MOL0     H15206   2.806   0.462   1.946 -3.2944 -1.5018 -1.3164
  113MOL0     H15207   2.958   0.646   1.645  1.4405  1.7633  0.3456
  113MOL0     H15208   2.925   0.682   1.810 -0.0553 -1.9604  1.2513
  113MOL0     H15209   3.178   0.577   1.694  1.3882  1.8364 -2.3720
  113MOL0     H15210   3.157   0.613   1.871 -0.7995  1.8052  0.9032
  113MOL0     H15211   3.275   0.806   1.801  3.6484 -3.6990 -3.6222
  113MOL0     H15212   3.110   0.857   1.760  1.2205  0.1864 -0.2566
  113MOL0     H15213   3.289   0.733   1.558  2.5037  1.7199 -1.8452
  113MOL0     H15214   3.270   0.908   1.577 -2.2957  1.0224  1.8264
  113MOL0     H15215   3.213   0.763   1.289  2.6672  0.4983  1.4605
  113MOL0     H15216   3.354   0.836   1.106  0.2214  1.1703  1.2260
  113MOL0     H15217   3.217   0.802   1.004  0.8723 -1.0732 -0.7520
  113MOL0     H15218   3.308   0.956   1.000 -0.2328  0.2096 -0.3690
  113MOL0     H15219   3.203   1.362   0.856  0.0175  0.8236  1.1849
  113MOL0     H15220   3.087   1.474   0.646 -0.6562 -0.8859 -1.0122
  113MOL0     H15221   2.983   1.676   0.603 -0.6531  2.7229 -1.8496
  113MOL0     H15222   2.856   1.657   0.487  1.2381  0.9241 -0.2477
  113MOL0     H15223   2.693   1.730   0.642 -0.0447  1.7558 -2.7269
  113MOL0     H15224   2.824   1.755   0.770 -1.1541 -2.3870 -0.3119
  113MOL0     H15225   2.753   1.959   0.648 -0.8805  0.5421 -1.8713
  113MOL0     H15226   2.797   1.887   0.495  0.6342  3.6038 -0.3105
  113MOL0     H15227   2.985   1.947   0.736 -0.0094  2.5346  0.2536
  113MOL0     H15228   3.040   1.867   0.594 -1.2546 -2.2931  2.9116
  113MOL0     H15229   2.889   2.146   0.586 -0.1618  1.2525  1.9236
  113MOL0     H15230   2.972   2.068   0.454 -4.8576 -0.1362 -1.0106
  113MOL0     H15231   3.126   2.147   0.703 -1.6723  0.8698 -0.0530
  113MOL0     H15232   3.190   2.057   0.576 -0.4877 -0.5881  1.1522
  113MOL0     H15233   3.096   2.346   0.533 -1.2148  0.1968 -3.4510
  113MOL0     H15234   3.139   2.230   0.404  1.0407 -2.6705 -0.9638
  113MOL0     H15235   3.374   2.243   0.505 -2.8926 -2.4700 -0.0102
  113MOL0     H15236   3.314   2.301   0.660  3.4862  2.1853  1.0003
  113MOL0     H15237   2.707   1.418   0.827 -0.0539  0.7689 -0.9554
  113MOL0     H15238   2.833   1.297   1.036  0.5310 -3.4876 -1.0162
  113MOL0     H15239   3.027   1.212   1.300 -0.5403 -0.4509  2.1805
  113MOL0     H15240   3.011   1.082   1.501 -0.9070  0.4688  0.6748
  113MOL0     H15241   2.789   0.132   2.736 -2.0460 -0.7700  1.1555
  113MOL0     H15242   2.748   0.154   2.975 -0.2611  1.0832 -0.8881
  113MOL0     H15243   2.717   0.351   3.303 -1.9818  1.3479  1.1979
  113MOL0     H15244   2.589   0.388   3.512 -0.1719  0.6626  0.8201
  113MOL0     H15245   2.495   0.308   3.774  0.3077  1.8293 -3.1233
  113MOL0     H15246   2.634   0.197   3.791 -1.1536  0.3381  0.6654
  113MOL0     H15247   2.671   0.254   4.012  3.3372  0.6120 -1.3528
  113MOL0     H15248   2.503   0.245   3.975  1.5370 -1.9345 -0.6670
  113MOL0     H15249   2.483   0.508   3.960  0.8801 -2.1398 -4.6743
  113MOL0     H15250   2.652   0.519   3.987 -0.1835  0.8236  0.5757
  113MOL0     H15251   2.557   0.555   4.207  0.8560  0.0137  0.7863
  113MOL0     H15252   2.638   0.400   4.206  0.6166 -0.9694 -2.2643
  113MOL0     H15253   2.258   0.308   4.329  2.2194  2.4684  4.3715
  113MOL0     H15254   2.937   0.325   3.740  2.1133 -0.3485 -1.5756
  113MOL0     H15255   3.061   0.262   3.538  0.2524 -0.0538  1.5485
  114MOL0     O15256   1.669   5.803   3.077  0.4518 -0.4676  0.2640
  114MOL0     C15257   1.732   5.902   3.041  0.0168  0.1186 -0.1945
  114MOL0     O15258   1.803   5.989   3.122 -0.2412  0.3114 -0.4309
  114MOL0     C15259   1.790   5.967   3.260 -0.0432 -0.5278  0.4675
  114MOL0     C15260   1.883   5.912   3.342 -0.0256 -0.1544 -0.7301
  114MOL0     C15261   1.857   5.885   3.478  0.4586  0.2184 -0.0115
  114MOL0     C15262   1.733   5.926   3.534 -0.8869  0.5659 -0.9500
  114MOL0     O15263   1.711   5.908   3.672  0.4781 -0.2040  0.9120
  114MOL0     C15264   1.637   5.783   3.697  0.7053  0.1318 -1.3887
  114MOL0     C15265   1.586   5.788   3.850  0.3141 -0.1282  0.3538
  114MOL0     C15266   1.670   5.747   3.966  0.4412 -0.8386  0.1360
  114MOL0     C15267   1.762   5.871   3.994  0.3865  0.3521 -0.2947
  114MOL0     C15268   1.875   5.815   4.069 -0.2213 -0.5717  0.1008
  114MOL0     C15269   1.992   5.911   4.080  0.0487 -0.2739 -0.3809
  114MOL0     C15270   2.032   5.991   3.958 -0.6162  0.7108  1.0278
  114MOL0     C15271   2.075   5.903   3.838  0.4029 -0.2734 -0.4080
  114MOL0     N15272   2.150   5.983   3.740  0.3897  0.3347 -0.3983
  114MOL0     C15273   2.089   6.065   3.647 -0.1685  0.8118  0.8634
  114MOL0     C15274   2.193   6.114   3.571 -0.0225  0.0150 -0.8117
  114MOL0     C15275   2.180   6.202   3.444  0.2737 -1.2245 -0.4764
  114MOL0     C15276   2.259   6.155   3.323  1.5660 -0.7879 -0.0593
  114MOL0     C15277   2.181   6.173   3.192 -0.2488  0.5226 -0.0599
  114MOL0     C15278   2.164   6.311   3.140  1.1782  0.5916  0.0610
  114MOL0     O15279   2.110   6.316   3.000  0.8830 -0.3669  0.8026
  114MOL0     C15280   2.005   6.403   2.964  0.4040 -0.4108  0.1108
  114MOL0     C15281   1.981   6.517   3.047 -0.4541 -0.3922  0.4392
  114MOL0     C15282   1.877   6.602   3.003  1.2081  0.6754 -0.0613
  114MOL0     C15283   1.869   6.734   3.078 -0.3090 -0.3096  0.7442
  114MOL0     C15284   1.786   6.570   2.891 -0.2143  0.5710 -0.2547
  114MOL0     C15285   1.667   6.654   2.851  0.4953 -0.0804 -0.1026
  114MOL0     O15286   1.599   6.622   2.733 -0.3669 -0.8730 -0.3879
  114MOL0     C15287   1.479   6.687   2.717 -0.7798  0.3207  0.0744
  114MOL0     C15288   1.471   6.809   2.657  0.7636 -0.1083  0.2922
  114MOL0     C15289   1.346   6.882   2.658 -0.3063 -0.6416 -0.1851
  114MOL0     C15290   1.221   6.836   2.706 -0.0459  0.4664  0.1518
  114MOL0     O15291   1.107   6.916   2.704 -0.0093 -0.4169  0.6359
  114MOL0     C15292   0.996   6.887   2.778  0.1135  0.0531  0.8153
  114MOL0     C15293   0.896   7.007   2.745 -0.5147  0.0735  0.0573
  114MOL0     C15294   0.761   6.957   2.800 -0.1423  0.2654  0.2905
  114MOL0     C15295   0.674   6.913   2.686 -0.0540  0.3416 -0.5168
  114MOL0     C15296   0.539   6.855   2.740  0.0405  0.2362 -0.3675
  114MOL0     C15297   0.473   6.775   2.633 -0.2892 -0.8728  0.6791
  114MOL0     C15298   0.383   6.875   2.565  0.3988  0.2185  0.1463
  114MOL0     C15299   0.288   6.814   2.451  0.6128  0.1770  0.1911
  114MOL0    Cl15300   0.145   6.922   2.417  0.0321 -0.3958 -0.0105
  114MOL0     C15301   1.237   6.710   2.770 -0.0222 -0.2136 -0.0385
  114MOL0     C15302   1.360   6.640   2.773 -0.3449 -0.4231 -0.3405
  114MOL0     O15303   1.649   6.748   2.923 -0.2794 -0.3011  0.8189
  114MOL0     C15304   1.814   6.459   2.809 -0.8973  0.3520 -0.8610
  114MOL0     C15305   1.930   6.381   2.847 -0.1036 -0.0898 -0.4156
  114MOL0     N15306   2.305   6.058   3.622 -0.2398 -0.2010  0.8105
  114MOL0     N15307   2.281   5.967   3.713  0.2953 -0.9222 -0.5642
  114MOL0     C15308   1.642   5.987   3.454 -0.1987 -0.8726  0.2812
  114MOL0     C15309   1.671   6.012   3.316 -0.0249  0.3094  0.1493
  114MOL0     C15310   1.706   5.944   2.904  0.6418 -0.6500 -0.3341
  114MOL0     C15311   1.792   6.042   2.837 -0.3884 -0.4100  0.6087
  114MOL0     C15312   1.773   6.065   2.698 -0.7758 -0.1043  0.2866
  114MOL0     C15313   1.672   6.005   2.628 -0.1009 -0.0864  0.2088
  114MOL0     O15314   1.649   6.038   2.494 -0.9397  0.5108 -0.4924
  114MOL0     C15315   1.643   5.922   2.417  0.6053  0.1029  0.1612
  114MOL0     C15316   1.640   5.962   2.273  0.0142  0.2029  0.4241
  114MOL0     C15317   1.741   6.073   2.228 -0.4354  0.5323 -0.4038
  114MOL0     C15318   1.791   6.056   2.083 -0.6261  0.4940 -1.7374
  114MOL0     C15319   1.860   5.930   2.066  0.8453 -0.3029  0.1144
  114MOL0     C15320   1.914   5.819   2.059  0.2809 -0.7643  0.8889
  114MOL0     C15321   1.593   5.910   2.691 -0.2141 -0.1914 -0.4292
  114MOL0     C15322   1.606   5.877   2.825 -0.5688 -0.4757 -0.6592
  114MOL0     H15323   1.982   5.886   3.305 -0.5542 -0.3365 -2.0869
  114MOL0     H15324   1.932   5.844   3.545 -1.0290  2.1487  3.0380
  114MOL0     H15325   1.550   5.783   3.630 -1.1159 -0.3280  0.8462
  114MOL0     H15326   1.707   5.699   3.694 -1.4240 -1.9620  1.6894
  114MOL0     H15327   1.537   5.885   3.867 -1.5515 -0.8727 -0.5200
  114MOL0     H15328   1.500   5.721   3.847  0.3798 -0.2930  1.5718
  114MOL0     H15329   1.613   5.720   4.055 -0.0779 -2.6879 -0.7026
  114MOL0     H15330   1.724   5.657   3.937 -1.4023 -1.1884 -2.5162
  114MOL0     H15331   1.784   5.921   3.899 -0.0241  2.7375  0.7776
  114MOL0     H15332   1.721   5.950   4.058  2.1103 -0.3965  1.8605
  114MOL0     H15333   1.842   5.782   4.168 -1.6666  0.4764 -0.0126
  114MOL0     H15334   1.916   5.729   4.015  1.4419 -0.1776  0.6494
  114MOL0     H15335   1.971   5.972   4.169  0.8497  1.5819 -1.4062
  114MOL0     H15336   2.081   5.856   4.109 -1.8862 -3.3275  0.2409
  114MOL0     H15337   1.948   6.060   3.944 -0.0531  1.8405  2.8612
  114MOL0     H15338   2.114   6.054   3.993 -0.2275  0.1189  1.1919
  114MOL0     H15339   1.993   5.851   3.788  2.7188 -1.5126 -3.1986
  114MOL0     H15340   2.142   5.823   3.872  0.3260 -3.0347 -5.6661
  114MOL0     H15341   1.984   6.076   3.623 -0.2481 -1.7888 -0.3524
  114MOL0     H15342   2.077   6.219   3.410 -0.2575  3.2143  2.4574
  114MOL0     H15343   2.217   6.300   3.477 -0.3355 -1.3888  0.7816
  114MOL0     H15344   2.284   6.049   3.336  2.0901 -0.3170  4.6923
  114MOL0     H15345   2.349   6.216   3.308  0.5975  0.8247  0.4750
  114MOL0     H15346   2.086   6.122   3.207  0.6333 -1.0284  0.5113
  114MOL0     H15347   2.233   6.116   3.114  1.1218  3.2820 -1.3013
  114MOL0     H15348   2.258   6.367   3.146  1.2749  0.2781  2.5120
  114MOL0     H15349   2.094   6.356   3.211  1.3588  2.3514 -0.8179
  114MOL0     H15350   2.054   6.540   3.124  0.8054 -0.1996 -0.7687
  114MOL0     H15351   1.849   6.826   3.023  0.8441 -0.4164  0.1236
  114MOL0     H15352   1.784   6.709   3.142  0.4752 -3.6429  0.6917
  114MOL0     H15353   1.963   6.752   3.131  0.7662  1.5097 -1.6013
  114MOL0     H15354   1.559   6.852   2.610 -0.1671 -0.1331 -1.5539
  114MOL0     H15355   1.350   6.985   2.623 -1.6553 -0.8018 -0.8854
  114MOL0     H15356   0.952   6.798   2.733 -0.1756  1.3295 -1.6491
  114MOL0     H15357   1.021   6.866   2.882  0.7132 -2.5720  0.2027
  114MOL0     H15358   0.915   7.098   2.803  0.6798  1.9573 -3.0954
  114MOL0     H15359   0.899   7.045   2.643  0.6582  0.5469  0.2508
  114MOL0     H15360   0.713   7.040   2.854 -1.0982  0.0707 -0.2319
  114MOL0     H15361   0.770   6.872   2.869  3.7674 -0.5063 -0.9506
  114MOL0     H15362   0.653   6.989   2.609  0.4990  1.3311  0.2930
  114MOL0     H15363   0.716   6.825   2.637 -0.3501  0.5590 -1.1869
  114MOL0     H15364   0.476   6.933   2.783 -0.2142  0.4517 -1.1209
  114MOL0     H15365   0.554   6.782   2.821  0.2794  0.2467 -0.4008
  114MOL0     H15366   0.545   6.740   2.558  0.6394  1.8314  0.2092
  114MOL0     H15367   0.406   6.692   2.658 -1.3155 -1.0635 -2.3003
  114MOL0     H15368   0.442   6.948   2.509 -3.3519  3.1086 -0.4491
  114MOL0     H15369   0.331   6.947   2.630  1.2304  4.0059 -2.9718
  114MOL0     H15370   0.252   6.713   2.469 -0.4855  0.0485 -2.2595
  114MOL0     H15371   0.355   6.796   2.366 -1.2378  0.0330 -1.2932
  114MOL0     H15372   1.160   6.661   2.828  1.0861 -1.3671  0.5045
  114MOL0     H15373   1.357   6.548   2.830 -1.3544  0.3232  0.8701
  114MOL0     H15374   1.763   6.427   2.719 -1.0964 -0.8900 -0.3264
  114MOL0     H15375   1.944   6.297   2.780 -2.2587  0.8472 -2.1591
  114MOL0     H15376   1.544   6.021   3.484  0.0630  0.1064  0.0591
  114MOL0     H15377   1.598   6.059   3.251 -0.2186  0.3761  0.4126
  114MOL0     H15378   1.876   6.083   2.892  0.5503  0.1163 -1.1471
  114MOL0     H15379   1.832   6.137   2.642  0.2010 -1.5522 -0.6051
  114MOL0     H15380   1.720   5.852   2.452  0.1037 -0.0013  1.0921
  114MOL0     H15381   1.552   5.865   2.440  2.0920 -1.7308  1.9027
  114MOL0     H15382   1.539   6.000   2.255 -1.7867 -3.3070  2.1763
  114MOL0     H15383   1.645   5.869   2.216 -0.3736  0.7594 -0.5240
  114MOL0     H15384   1.833   6.058   2.285  0.5639  1.7494 -1.6069
  114MOL0     H15385   1.697   6.172   2.242 -1.9023 -0.1300 -0.1296
  114MOL0     H15386   1.856   6.137   2.051  1.7170 -0.3005  0.6876
  114MOL0     H15387   1.707   6.060   2.013 -0.3404  1.8670 -2.0223
  114MOL0     H15388   1.949   5.718   2.070 -1.5315 -1.4808  0.3762
  114MOL0     H15389   1.514   5.855   2.642 -0.0522  0.1110 -1.0373
  114MOL0     H15390   1.543   5.795   2.858 -2.1731  0.5858 -1.0109
  115MOL0     O15391   2.086   6.659   8.485 -0.1337 -0.2130 -0.0296
  115MOL0     C15392   1.997   6.743   8.482  0.1338 -0.0568 -0.1861
  115MOL0     O15393   1.867   6.719   8.438  0.3255  0.7724 -0.4111
  115MOL0     C15394   1.839   6.611   8.360  0.0842  0.2047 -0.6721
  115MOL0     C15395   1.730   6.531   8.391  0.7075  0.4387  0.2430
  115MOL0     C15396   1.686   6.434   8.299 -0.1600 -0.5983  0.0365
  115MOL0     C15397   1.765   6.406   8.185  0.3135  0.4432  0.5872
  115MOL0     O15398   1.734   6.297   8.107 -0.6473 -0.2235  0.6187
  115MOL0     C15399   1.794   6.279   7.971  1.1913  0.0470  0.5516
  115MOL0     C15400   1.709   6.177   7.903  0.1623 -0.8725  0.0027
  115MOL0     C15401   1.724   6.026   7.956 -0.0470 -0.0181 -0.3777
  115MOL0     C15402   1.845   5.996   8.046 -0.2060 -0.4125 -0.1864
  115MOL0     C15403   1.834   5.852   8.095  0.5634  0.4877  0.1045
  115MOL0     C15404   1.946   5.805   8.190 -1.1083 -0.3017 -0.4117
  115MOL0     C15405   2.090   5.824   8.138 -0.1722  0.3113  0.2503
  115MOL0     C15406   2.186   5.761   8.240  0.1956  0.0414  0.4863
  115MOL0     N15407   2.178   5.613   8.237 -0.1507  0.8101  0.2406
  115MOL0     C15408   2.224   5.517   8.147  0.4367 -0.7766  0.4719
  115MOL0     C15409   2.205   5.404   8.205  0.3676 -0.6513  0.0940
  115MOL0     C15410   2.264   5.270   8.160 -0.1829 -0.1868  0.4933
  115MOL0     C15411   2.421   5.273   8.138  0.1262  0.4150  0.0440
  115MOL0     C15412   2.484   5.190   8.251 -0.9058  0.5332 -0.4607
  115MOL0     C15413   2.458   5.035   8.232 -0.4922 -0.1956 -0.9006
  115MOL0     O15414   2.477   4.985   8.367  0.5696 -0.2054  0.4094
  115MOL0     C15415   2.432   4.861   8.399 -0.0430  0.7999 -0.9503
  115MOL0     C15416   2.452   4.820   8.530 -0.2265  0.6302  0.8821
  115MOL0     C15417   2.392   4.700   8.583 -0.4080 -0.9713 -0.7539
  115MOL0     C15418   2.416   4.675   8.736  0.6419 -0.1354  0.0137
  115MOL0     C15419   2.324   4.606   8.503 -0.2253  0.5526 -0.7035
  115MOL0     C15420   2.271   4.469   8.553 -0.9528  0.6650  0.6593
  115MOL0     O15421   2.269   4.372   8.458 -0.0018 -0.4230  0.4945
  115MOL0     C15422   2.226   4.251   8.497  0.0596  0.3013  0.4460
  115MOL0     C15423   2.300   4.153   8.566 -0.3149  0.0256 -0.7233
  115MOL0     C15424   2.257   4.023   8.593 -0.3894  0.0396  0.2884
  115MOL0     C15425   2.127   3.991   8.564  0.2982 -0.1485  0.8500
  115MOL0     O15426   2.103   3.857   8.590 -0.1673  0.0176 -0.2064
  115MOL0     C15427   1.980   3.829   8.653 -1.1777  0.8628  0.4604
  115MOL0     C15428   1.946   3.691   8.608  1.2964  0.1371 -0.2738
  115MOL0     C15429   2.062   3.589   8.616 -0.1745 -0.9027 -1.1172
  115MOL0     C15430   2.155   3.598   8.490  0.4898 -1.0342 -0.2961
  115MOL0     C15431   2.267   3.489   8.500  0.0871 -0.1963  0.0277
  115MOL0     C15432   2.236   3.342   8.543  0.2417  0.6457 -1.1323
  115MOL0     C15433   2.123   3.270   8.460 -0.6232 -0.7820  0.4521
  115MOL0     C15434   2.025   3.191   8.549  0.0850  0.0926  0.3476
  115MOL0    Cl15435   2.115   3.092   8.672 -0.0257 -0.3441  0.0157
  115MOL0     C15436   2.039   4.082   8.494 -0.0862 -1.2177  0.1544
  115MOL0     C15437   2.099   4.207   8.465 -0.7125 -0.7408 -0.1644
  115MOL0     O15438   2.240   4.454   8.671 -0.5268 -0.5211  0.8902
  115MOL0     C15439   2.308   4.647   8.379  0.6458  0.4285  0.3231
  115MOL0     C15440   2.353   4.773   8.328  0.3306  1.0578  0.4262
  115MOL0     N15441   2.156   5.424   8.335  0.2855 -0.1120  0.2724
  115MOL0     N15442   2.135   5.550   8.348  0.5303 -0.2266  0.1773
  115MOL0     C15443   1.881   6.483   8.162 -0.2276 -0.0890 -0.0035
  115MOL0     C15444   1.913   6.592   8.243 -0.7418 -0.7022  0.4120
  115MOL0     C15445   2.020   6.879   8.542  0.0203 -0.6406 -0.1024
  115MOL0     C15446   2.148   6.916   8.607 -0.0821 -0.0016 -1.0317
  115MOL0     C15447   2.172   7.049   8.649 -0.5433 -0.8377 -0.4142
  115MOL0     C15448   2.070   7.141   8.651 -0.7167 -1.2918 -0.3810
  115MOL0     O15449   2.094   7.264   8.719 -0.1368  0.2808 -0.5353
  115MOL0     C15450   1.982   7.345   8.741  0.2793 -0.4101 -0.8250
  115MOL0     C15451   2.025   7.483   8.790  0.3088  0.1278  0.0138
  115MOL0     C15452   1.908   7.581   8.808 -0.0704 -0.9518  1.0014
  115MOL0     C15453   1.967   7.703   8.858 -0.7871  0.2673  0.0395
  115MOL0     C15454   1.870   7.814   8.840  0.4481  0.0358  0.3446
  115MOL0     C15455   1.792   7.909   8.837  0.2294 -0.0773  0.4328
  115MOL0     C15456   1.948   7.108   8.594  0.7877  0.2026 -0.1828
  115MOL0     C15457   1.918   6.974   8.550 -0.6116  0.5317  0.7671
  115MOL0     H15458   1.674   6.545   8.483 -0.1611  1.7842 -0.4603
  115MOL0     H15459   1.602   6.368   8.321 -0.8533 -0.6446 -2.4880
  115MOL0     H15460   1.792   6.364   7.903 -2.5378 -0.9424 -0.8374
  115MOL0     H15461   1.898   6.246   7.977  2.3719  2.3226 -3.5110
  115MOL0     H15462   1.602   6.199   7.911  0.0880 -1.7080  1.9676
  115MOL0     H15463   1.737   6.182   7.798 -1.4747  1.6404 -0.3869
  115MOL0     H15464   1.632   6.002   8.010  1.2736  1.3458  2.7066
  115MOL0     H15465   1.729   5.964   7.866  0.9579 -1.6852  0.7758
  115MOL0     H15466   1.937   6.020   7.993 -1.4075  0.1996 -2.1038
  115MOL0     H15467   1.850   6.063   8.133  0.1003 -2.4284  1.4224
  115MOL0     H15468   1.737   5.831   8.141  1.1551 -0.8360  0.7901
  115MOL0     H15469   1.837   5.786   8.008 -0.1048 -0.3464  0.7008
  115MOL0     H15470   1.922   5.849   8.288 -4.8724 -2.3453 -0.2401
  115MOL0     H15471   1.918   5.700   8.193 -0.2034 -0.5540 -0.6058
  115MOL0     H15472   2.109   5.780   8.040  2.2848 -4.1075  2.4027
  115MOL0     H15473   2.117   5.930   8.130 -1.7263  0.9028  2.0327
  115MOL0     H15474   2.157   5.810   8.334 -3.3937  2.0448 -1.4629
  115MOL0     H15475   2.291   5.787   8.222  0.7038 -1.1005  1.5842
  115MOL0     H15476   2.269   5.541   8.051 -1.6685  1.1239 -0.1362
  115MOL0     H15477   2.243   5.184   8.224  0.2390 -0.5519  0.1472
  115MOL0     H15478   2.216   5.237   8.068  1.3899 -1.8385  0.2183
  115MOL0     H15479   2.456   5.376   8.144 -0.3964  0.7186 -1.6215
  115MOL0     H15480   2.439   5.235   8.037 -3.8989 -2.8713  0.2840
  115MOL0     H15481   2.450   5.226   8.349  0.7811  1.7536 -0.2725
  115MOL0     H15482   2.593   5.200   8.253 -0.8747  0.1822 -0.2940
  115MOL0     H15483   2.534   5.000   8.161 -0.2729 -1.9616  0.1603
  115MOL0     H15484   2.359   5.001   8.203  0.5698 -3.4194 -1.1597
  115MOL0     H15485   2.518   4.880   8.591  1.1619  1.6816 -1.5174
  115MOL0     H15486   2.497   4.737   8.774  2.7831 -2.3559 -0.6281
  115MOL0     H15487   2.328   4.698   8.796  2.8602  0.7782  3.1275
  115MOL0     H15488   2.442   4.570   8.752 -0.9729 -0.6864 -0.7489
  115MOL0     H15489   2.396   4.186   8.606 -1.5911  1.3732  1.4230
  115MOL0     H15490   2.328   3.950   8.633 -0.9857 -0.3713  0.6043
  115MOL0     H15491   1.990   3.816   8.761 -0.8701 -0.4726  0.3001
  115MOL0     H15492   1.899   3.900   8.636 -2.8243 -1.1907 -0.7789
  115MOL0     H15493   1.861   3.659   8.670 -2.2284  2.4265 -3.4149
  115MOL0     H15494   1.908   3.696   8.505  0.0975 -0.1357  0.1305
  115MOL0     H15495   2.010   3.493   8.613 -1.8456 -0.1418  0.9575
  115MOL0     H15496   2.121   3.594   8.708  2.7486 -2.3269 -2.7564
  115MOL0     H15497   2.091   3.578   8.404 -1.0396 -1.5893  0.9090
  115MOL0     H15498   2.201   3.697   8.487 -0.0893 -0.6602  1.5715
  115MOL0     H15499   2.339   3.532   8.571 -2.5022  1.8582  1.6020
  115MOL0     H15500   2.322   3.486   8.406  3.6370  2.0959  1.7735
  115MOL0     H15501   2.327   3.281   8.542 -0.7216 -0.9218  0.3686
  115MOL0     H15502   2.204   3.332   8.647  0.8458 -3.1702 -1.1556
  115MOL0     H15503   2.166   3.185   8.406 -2.0021 -0.2110 -1.6488
  115MOL0     H15504   2.077   3.331   8.382  1.8819  1.0594  0.2817
  115MOL0     H15505   1.957   3.126   8.492 -0.0147  0.4565  0.0468
  115MOL0     H15506   1.969   3.268   8.604  1.2540 -0.2061  2.0399
  115MOL0     H15507   1.946   4.045   8.453  1.3983 -1.5652 -3.1626
  115MOL0     H15508   2.050   4.282   8.403  0.3634 -0.5069 -0.7607
  115MOL0     H15509   2.256   4.582   8.308  0.3354  0.7248  0.2797
  115MOL0     H15510   2.303   4.800   8.235 -0.2113  0.6195  0.5829
  115MOL0     H15511   1.934   6.452   8.073 -0.6238 -1.9636  0.3690
  115MOL0     H15512   2.001   6.642   8.203 -0.7718 -0.8774  0.1215
  115MOL0     H15513   2.223   6.838   8.595  0.0948  0.0920 -0.5671
  115MOL0     H15514   2.269   7.076   8.690  0.0644  0.7382 -2.6916
  115MOL0     H15515   1.932   7.363   8.646 -1.9279 -0.8337  0.1741
  115MOL0     H15516   1.903   7.291   8.796  0.8601  0.0135  0.4704
  115MOL0     H15517   2.092   7.533   8.719 -1.9433  1.5812 -1.2285
  115MOL0     H15518   2.080   7.463   8.882  2.6006  0.3880 -1.2339
  115MOL0     H15519   1.832   7.549   8.880 -2.4165  1.5395 -0.1510
  115MOL0     H15520   1.858   7.603   8.713  1.4350  1.4173  0.6726
  115MOL0     H15521   2.054   7.718   8.793  0.3598 -2.9136  0.6803
  115MOL0     H15522   2.008   7.691   8.958  1.9087  0.5430 -0.9260
  115MOL0     H15523   1.717   7.985   8.844 -1.3275 -1.6025  0.9437
  115MOL0     H15524   1.867   7.178   8.577 -2.8904 -2.7737  2.9082
  115MOL0     H15525   1.828   6.944   8.497 -2.1946  1.4560  2.8041
  116MOL0     O15526   2.195   8.246  11.196  0.0075 -0.4448 -1.1067
  116MOL0     C15527   2.183   8.368  11.173  0.1378 -0.4373 -0.2868
  116MOL0     O15528   2.229   8.466  11.258  0.1587  0.2413  0.3397
  116MOL0     C15529   2.296   8.433  11.370 -0.6192  0.4506  0.4270
  116MOL0     C15530   2.262   8.506  11.485  0.5610  0.1514  0.9345
  116MOL0     C15531   2.318   8.482  11.608 -0.1307  0.4701  0.2435
  116MOL0     C15532   2.412   8.378  11.628 -0.3108 -0.8296 -0.0096
  116MOL0     O15533   2.477   8.343  11.745  0.3978  0.1826  0.0779
  116MOL0     C15534   2.545   8.450  11.811 -0.3795 -0.2200  0.1387
  116MOL0     C15535   2.604   8.389  11.945 -0.8509 -0.4829  0.2784
  116MOL0     C15536   2.614   8.474  12.072 -0.0522 -0.3083 -0.1225
  116MOL0     C15537   2.478   8.497  12.134  0.2754 -1.3168 -0.3089
  116MOL0     C15538   2.468   8.614  12.240 -0.2920 -0.5757  0.1833
  116MOL0     C15539   2.590   8.633  12.334 -1.3224  0.3486  0.0746
  116MOL0     C15540   2.559   8.753  12.415 -0.3136  0.5467  0.3373
  116MOL0     C15541   2.625   8.764  12.559 -0.2388 -0.1384  0.9342
  116MOL0     N15542   2.588   8.905  12.604  0.2625  0.0531 -0.3561
  116MOL0     C15543   2.463   8.962  12.604  0.3278 -0.4664 -0.2452
  116MOL0     C15544   2.482   9.095  12.618  0.0452 -0.2259 -0.4729
  116MOL0     C15545   2.383   9.206  12.578 -0.4790 -0.5754 -0.5794
  116MOL0     C15546   2.270   9.168  12.487 -0.1268 -0.1262 -0.0628
  116MOL0     C15547   2.295   9.133  12.336 -0.3271  0.3296  0.0799
  116MOL0     C15548   2.418   9.179  12.273  0.7498 -0.2881  0.3901
  116MOL0     O15549   2.423   9.327  12.283 -0.4665 -0.4534  0.6847
  116MOL0     C15550   2.549   9.391  12.290 -0.2142 -0.9823 -0.8497
  116MOL0     C15551   2.558   9.529  12.259  0.7122 -0.3211  0.1493
  116MOL0     C15552   2.675   9.609  12.281  0.7623  0.5198  0.5778
  116MOL0     C15553   2.670   9.753  12.263  0.5743 -0.2639 -0.0007
  116MOL0     C15554   2.792   9.547  12.318  0.1975 -0.0529  0.7061
  116MOL0     C15555   2.923   9.612  12.352 -0.9232 -0.1348 -0.2203
  116MOL0     O15556   2.955   9.724  12.288  0.2567  0.1292  0.4027
  116MOL0     C15557   3.083   9.768  12.288  0.1627 -0.8231  0.3726
  116MOL0     C15558   3.162   9.777  12.175  0.1585  0.0303  0.0314
  116MOL0     C15559   3.298   9.832  12.176  0.3403  0.6917 -0.6291
  116MOL0     C15560   3.348   9.892  12.289  0.0970 -0.1923 -0.4681
  116MOL0     O15561   3.469   9.966  12.283  1.2167  0.1674 -0.8903
  116MOL0     C15562   3.455  10.104  12.330 -0.4876 -0.4311  0.3572
  116MOL0     C15563   3.596  10.154  12.347  0.2976  0.6173 -0.5774
  116MOL0     C15564   3.678  10.106  12.477 -0.3727 -0.1663 -0.2927
  116MOL0     C15565   3.635  10.191  12.600  0.0859  0.1469  0.2527
  116MOL0     C15566   3.686  10.166  12.734  0.1730  0.0824  0.0352
  116MOL0     C15567   3.837  10.203  12.742 -0.2959 -0.0083  0.4419
  116MOL0     C15568   3.885  10.178  12.885 -0.2202  0.2426  0.0397
  116MOL0     C15569   4.032  10.204  12.910  0.6606  0.8087 -0.7597
  116MOL0    Cl15570   4.123  10.108  12.796  0.4704 -0.4820  0.1672
  116MOL0     C15571   3.266   9.888  12.401  0.3364  0.6552 -0.1500
  116MOL0     C15572   3.139   9.822  12.408 -0.5969 -0.7109 -0.1252
  116MOL0     O15573   3.005   9.553  12.428  0.2226 -0.2408  0.8134
  116MOL0     C15574   2.774   9.421  12.368 -0.5395 -0.6430  0.0567
  116MOL0     C15575   2.668   9.341  12.346  0.4093 -0.7501 -0.3501
  116MOL0     N15576   2.621   9.114  12.609 -0.5947  0.5623 -0.1910
  116MOL0     N15577   2.682   9.002  12.601 -0.6465  0.5511 -0.4016
  116MOL0     C15578   2.449   8.310  11.508  0.0925 -0.2195 -0.4804
  116MOL0     C15579   2.398   8.331  11.380  0.5269 -0.0627 -0.2906
  116MOL0     C15580   2.095   8.413  11.060 -0.6302  0.0699  0.2122
  116MOL0     C15581   2.039   8.316  10.982  0.0740 -0.3587 -0.2367
  116MOL0     C15582   1.954   8.342  10.874  0.3998 -0.8042  0.2526
  116MOL0     C15583   1.922   8.479  10.849  0.3099  0.4363  0.0555
  116MOL0     O15584   1.844   8.505  10.731 -0.0366 -0.5004 -0.2515
  116MOL0     C15585   1.836   8.631  10.666 -0.0658  0.7949 -0.7294
  116MOL0     C15586   1.978   8.678  10.615  0.0261 -0.1404 -0.7701
  116MOL0     C15587   2.011   8.622  10.479  0.2261 -0.1425 -0.2500
  116MOL0     C15588   2.104   8.716  10.396 -0.3346  0.4795 -1.0056
  116MOL0     C15589   2.240   8.744  10.444 -1.2740  1.3389 -0.1667
  116MOL0     C15590   2.354   8.784  10.462 -0.2854 -0.1992 -0.6023
  116MOL0     C15591   1.972   8.578  10.932  0.4527  0.0548  0.2619
  116MOL0     C15592   2.058   8.543  11.033 -0.6433  0.4022  1.0575
  116MOL0     H15593   2.187   8.583  11.476 -1.0169 -1.0166  3.1781
  116MOL0     H15594   2.291   8.547  11.691 -0.8828  0.6106 -0.1018
  116MOL0     H15595   2.631   8.488  11.755  2.0892 -2.4105  2.1817
  116MOL0     H15596   2.480   8.538  11.826  1.4378  2.0339 -3.7791
  116MOL0     H15597   2.540   8.302  11.963  1.3833 -2.9667 -2.7402
  116MOL0     H15598   2.709   8.360  11.933 -0.5321  0.1155  1.4503
  116MOL0     H15599   2.670   8.410  12.140  0.3407 -0.5135 -0.6426
  116MOL0     H15600   2.656   8.573  12.053 -4.8394  1.9118 -0.7253
  116MOL0     H15601   2.404   8.496  12.053  1.6239  0.5997 -1.6436
  116MOL0     H15602   2.456   8.410  12.197 -0.4891 -0.1303  1.1400
  116MOL0     H15603   2.440   8.710  12.195 -6.0171 -1.6150  0.7385
  116MOL0     H15604   2.381   8.588  12.301 -1.0902 -0.1680 -0.7571
  116MOL0     H15605   2.601   8.547  12.401 -0.1378  1.0554  0.8171
  116MOL0     H15606   2.679   8.636  12.271 -2.2934 -3.1365 -1.7248
  116MOL0     H15607   2.591   8.842  12.360  0.7170  1.0143  1.6379
  116MOL0     H15608   2.453   8.751  12.440 -0.6980 -0.0290 -1.2006
  116MOL0     H15609   2.733   8.745  12.552  0.1578  1.9819  0.8149
  116MOL0     H15610   2.574   8.691  12.623  2.0716 -0.5235  2.4620
  116MOL0     H15611   2.369   8.923  12.569  0.2468  1.4140 -2.3203
  116MOL0     H15612   2.333   9.238  12.671  2.1253  2.6528 -0.1039
  116MOL0     H15613   2.430   9.300  12.549  1.2832 -0.6668  1.6565
  116MOL0     H15614   2.200   9.252  12.486 -1.3932 -1.1560  0.1712
  116MOL0     H15615   2.224   9.084  12.539 -2.1215  0.0017 -1.5175
  116MOL0     H15616   2.205   9.168  12.285 -0.2535  3.6742  1.9697
  116MOL0     H15617   2.299   9.025  12.315 -3.1116  0.1917 -0.1149
  116MOL0     H15618   2.427   9.148  12.168 -0.1343  3.9087 -1.1028
  116MOL0     H15619   2.504   9.143  12.332  2.2642  1.6401 -0.5234
  116MOL0     H15620   2.466   9.573  12.222  0.3865 -0.3976  0.8457
  116MOL0     H15621   2.565   9.782  12.251  1.3538  3.5771  1.1147
  116MOL0     H15622   2.718   9.807  12.344 -2.2996  3.0998 -0.3108
  116MOL0     H15623   2.726   9.773  12.171  0.2236  2.4450  0.2998
  116MOL0     H15624   3.121   9.745  12.080  1.0413  3.0814 -1.4924
  116MOL0     H15625   3.361   9.829  12.088  0.3420  5.0519 -0.9989
  116MOL0     H15626   3.407  10.163  12.252 -1.4913 -1.4072  0.2014
  116MOL0     H15627   3.406  10.123  12.426  1.7508  4.6045  0.7969
  116MOL0     H15628   3.658  10.114  12.266  2.1385  1.3544  0.3862
  116MOL0     H15629   3.589  10.263  12.356 -1.0583  0.6457 -1.7066
  116MOL0     H15630   3.786  10.117  12.469 -0.4440  0.2451 -0.6659
  116MOL0     H15631   3.657   9.999  12.493  3.7731 -0.8643  2.0029
  116MOL0     H15632   3.663  10.290  12.562  0.5463  0.4817  1.4161
  116MOL0     H15633   3.526  10.186  12.601 -0.0349  1.9223 -0.4335
  116MOL0     H15634   3.677  10.061  12.763 -0.7851  1.2615  4.9858
  116MOL0     H15635   3.624  10.213  12.811  2.5353 -1.1822  2.9133
  116MOL0     H15636   3.883  10.131  12.674 -0.2418  3.9267 -4.2114
  116MOL0     H15637   3.862  10.306  12.713  0.2321  0.4589  2.3850
  116MOL0     H15638   3.886  10.069  12.898  1.5784 -0.1381 -2.6210
  116MOL0     H15639   3.825  10.230  12.960 -0.5951  0.8212 -0.6525
  116MOL0     H15640   4.065  10.184  13.013 -0.1181 -1.5130 -0.9165
  116MOL0     H15641   4.045  10.310  12.888  0.4243  0.9251 -0.3588
  116MOL0     H15642   3.297   9.939  12.491  2.2773 -2.0494  0.8715
  116MOL0     H15643   3.080   9.806  12.497  0.0711  1.5711  0.7983
  116MOL0     H15644   2.856   9.368  12.416  0.9548 -1.7096 -3.3304
  116MOL0     H15645   2.670   9.244  12.396  1.3482  0.5971  2.4314
  116MOL0     H15646   2.531   8.240  11.517  1.3296  1.4302  3.4170
  116MOL0     H15647   2.461   8.278  11.308  1.7323 -0.2582  0.8630
  116MOL0     H15648   2.055   8.210  10.997 -2.3569 -0.9373 -1.2332
  116MOL0     H15649   1.898   8.267  10.819 -1.3984  0.1005  0.7894
  116MOL0     H15650   1.767   8.633  10.582 -2.0150 -0.7982  0.7458
  116MOL0     H15651   1.795   8.711  10.729  1.3428  0.8356  0.1864
  116MOL0     H15652   2.050   8.648  10.691 -1.7290  1.9337  1.9204
  116MOL0     H15653   1.981   8.787  10.605 -4.6538  0.6462  2.7697
  116MOL0     H15654   1.915   8.603  10.431  0.1562  1.9298 -0.9838
  116MOL0     H15655   2.057   8.524  10.497 -1.1262 -0.4970  1.5880
  116MOL0     H15656   2.061   8.815  10.383  0.3822  1.0236  0.5417
  116MOL0     H15657   2.107   8.671  10.296 -1.9098 -2.5154  0.1545
  116MOL0     H15658   2.450   8.832  10.470 -1.5268  2.1776  1.1547
  116MOL0     H15659   1.939   8.677  10.905  1.3512  0.3550  0.2267
  116MOL0     H15660   2.088   8.621  11.101  1.2941  0.3500  0.3297
  117MOL0     O15661   9.499   7.234   3.653  0.1135  0.1173 -0.6088
  117MOL0     C15662   9.428   7.249   3.556  0.7617  0.0303 -0.4809
  117MOL0     O15663   9.422   7.371   3.493 -0.5028 -0.3739  0.4471
  117MOL0     C15664   9.507   7.470   3.533 -1.1873 -0.4039  0.0104
  117MOL0     C15665   9.647   7.459   3.507  0.4048 -0.6455 -0.3385
  117MOL0     C15666   9.724   7.572   3.524  0.5374 -0.6426 -0.0906
  117MOL0     C15667   9.670   7.694   3.580  0.1824 -0.1928  0.5366
  117MOL0     O15668   9.737   7.803   3.631 -0.6871  0.6692  0.7471
  117MOL0     C15669   9.869   7.853   3.581 -0.9696  0.6670 -0.1121
  117MOL0     C15670   9.984   7.788   3.653  0.5207 -0.1929 -0.5883
  117MOL0     C15671  10.125   7.800   3.578 -0.1859  0.3827 -0.0733
  117MOL0     C15672  10.246   7.709   3.627 -1.0910  0.2119  0.6198
  117MOL0     C15673  10.314   7.740   3.769  0.4043  0.8530 -0.9397
  117MOL0     C15674  10.232   7.662   3.867  1.2088 -0.5045  0.3172
  117MOL0     C15675  10.273   7.522   3.897  0.2174  0.6909 -0.0289
  117MOL0     C15676  10.183   7.453   4.002  0.5282 -0.7550  0.0246
  117MOL0     N15677  10.197   7.499   4.142  0.2139 -0.2354 -0.5367
  117MOL0     C15678  10.272   7.432   4.238  0.5357  0.0342  0.4365
  117MOL0     C15679  10.233   7.490   4.356  0.4554  0.2604  0.5356
  117MOL0     C15680  10.267   7.437   4.498  0.4867  0.1534  0.9769
  117MOL0     C15681  10.364   7.531   4.574 -0.2422  0.0002  0.2405
  117MOL0     C15682  10.519   7.494   4.587  0.1535  0.6174  0.1606
  117MOL0     C15683  10.570   7.456   4.450 -0.3863 -0.7001  0.2410
  117MOL0     O15684  10.534   7.540   4.337 -0.3000 -0.2109  0.6259
  117MOL0     C15685  10.581   7.669   4.336 -0.6827  0.6736  0.5607
  117MOL0     C15686  10.524   7.749   4.247  0.8953  0.2061  0.2760
  117MOL0     C15687  10.572   7.878   4.222 -0.2126  0.4461  0.2964
  117MOL0     C15688  10.502   7.948   4.105  0.2319 -0.3294 -0.1649
  117MOL0     C15689  10.682   7.930   4.304 -0.2675  0.0589 -0.4216
  117MOL0     C15690  10.751   8.066   4.277  0.7092  0.1507  0.6349
  117MOL0     O15691  10.850   8.101   4.363  0.1442  0.0246  0.6988
  117MOL0     C15692  10.891   8.232   4.385  0.8239  0.2527 -0.1367
  117MOL0     C15693  10.965   8.289   4.283  0.4934  0.3344  0.4813
  117MOL0     C15694  11.006   8.419   4.303  0.7169  0.1396 -1.3146
  117MOL0     C15695  10.954   8.501   4.401 -0.6354 -0.6270  0.3488
  117MOL0     O15696  11.003   8.628   4.415 -0.1990 -0.6114  0.2729
  117MOL0     C15697  10.905   8.733   4.405 -0.1039  0.8244 -0.6555
  117MOL0     C15698  10.961   8.862   4.449  0.3686 -0.5173  0.7998
  117MOL0     C15699  11.008   8.861   4.598  0.2116  0.1202  0.2285
  117MOL0     C15700  11.057   8.991   4.642  0.1722 -0.2016 -0.0069
  117MOL0     C15701  11.102   8.994   4.780 -0.1122 -0.2211  0.0659
  117MOL0     C15702  10.976   8.969   4.877  0.3110 -0.0740 -1.1553
  117MOL0     C15703  11.016   9.004   5.017 -0.1360  0.2235 -0.2443
  117MOL0     C15704  10.906   9.019   5.116 -0.0066 -0.2427 -0.1983
  117MOL0    Cl15705  10.791   9.144   5.066  0.2738  0.3994  0.0723
  117MOL0     C15706  10.883   8.443   4.507  0.6803  0.1903  0.1296
  117MOL0     C15707  10.844   8.308   4.495 -0.1283  0.0405 -0.4654
  117MOL0     O15708  10.694   8.147   4.201 -0.0243  0.2632  0.2879
  117MOL0     C15709  10.736   7.850   4.404  0.4420  0.6924  0.4516
  117MOL0     C15710  10.687   7.721   4.415  0.8616  0.3388  0.6481
  117MOL0     N15711  10.124   7.581   4.332 -0.0675 -0.0930  0.6528
  117MOL0     N15712  10.107   7.590   4.204  0.1527  0.4725  0.0726
  117MOL0     C15713   9.531   7.697   3.602  1.0026  0.3532  0.1972
  117MOL0     C15714   9.449   7.591   3.569 -0.5620  0.3294  0.4721
  117MOL0     C15715   9.361   7.133   3.496  0.1264 -1.2714  0.8431
  117MOL0     C15716   9.323   7.021   3.569 -0.6981  0.2468  0.4329
  117MOL0     C15717   9.258   6.916   3.501 -0.3034 -0.6024  0.3751
  117MOL0     C15718   9.219   6.930   3.369 -0.3285  0.0823  0.3501
  117MOL0     O15719   9.140   6.826   3.309  0.7445 -0.6228 -0.6634
  117MOL0     C15720   9.019   6.799   3.381  0.0093 -0.0318 -0.3990
  117MOL0     C15721   9.022   6.673   3.467 -0.4718  0.7346 -0.2240
  117MOL0     C15722   9.025   6.540   3.386  0.0734 -0.3591 -0.4642
  117MOL0     C15723   9.069   6.440   3.482 -0.2651 -0.3681  1.0755
  117MOL0     C15724   8.971   6.418   3.582  0.9019  0.4272  1.0052
  117MOL0     C15725   8.874   6.404   3.664 -0.0986 -0.3940 -1.1207
  117MOL0     C15726   9.257   7.039   3.293 -0.5025 -1.0224  0.0802
  117MOL0     C15727   9.328   7.143   3.357 -0.0846 -0.5912 -1.3109
  117MOL0     H15728   9.685   7.370   3.459  0.1089 -0.0342 -1.7579
  117MOL0     H15729   9.828   7.544   3.511 -0.9346 -6.7768 -1.4331
  117MOL0     H15730   9.879   7.844   3.472  1.1530  0.6670  0.0231
  117MOL0     H15731   9.876   7.958   3.609 -1.7022  0.0426  2.6869
  117MOL0     H15732   9.993   7.840   3.748 -0.2360 -0.3124 -0.4445
  117MOL0     H15733   9.962   7.685   3.684 -1.8714  0.3448 -0.3367
  117MOL0     H15734  10.100   7.800   3.471 -2.3088 -0.4416  0.3624
  117MOL0     H15735  10.151   7.905   3.596 -1.5585  0.8102 -0.4093
  117MOL0     H15736  10.219   7.606   3.604 -0.3891  0.5886 -2.1824
  117MOL0     H15737  10.326   7.722   3.554  1.5209 -2.7084  2.6890
  117MOL0     H15738  10.414   7.698   3.785 -0.2955 -1.1420 -1.4507
  117MOL0     H15739  10.307   7.845   3.798 -0.7883  0.0623  2.0689
  117MOL0     H15740  10.255   7.714   3.960  1.8214 -0.1406 -0.0248
  117MOL0     H15741  10.126   7.659   3.843  1.8577  2.0972 -4.0302
  117MOL0     H15742  10.255   7.449   3.818  1.1788 -2.2489  2.3030
  117MOL0     H15743  10.379   7.521   3.924 -0.1850 -0.9991  1.6568
  117MOL0     H15744  10.199   7.345   4.006 -0.3860 -0.9044 -0.0858
  117MOL0     H15745  10.077   7.471   3.980 -0.1097  0.3858  3.4290
  117MOL0     H15746  10.352   7.359   4.232  1.9717  1.3328  2.4954
  117MOL0     H15747  10.167   7.432   4.543  0.2926  1.6211  0.7579
  117MOL0     H15748  10.304   7.336   4.479 -4.1776 -1.2344 -2.8342
  117MOL0     H15749  10.323   7.542   4.674 -3.0314  1.3852 -0.9318
  117MOL0     H15750  10.365   7.631   4.530 -1.9174  0.2601  0.7331
  117MOL0     H15751  10.548   7.413   4.655  3.6712  0.6527 -1.0679
  117MOL0     H15752  10.575   7.578   4.630 -2.1312  1.3448  1.9256
  117MOL0     H15753  10.521   7.360   4.432 -1.9139 -0.2680  1.8247
  117MOL0     H15754  10.678   7.434   4.452 -0.6240 -2.1970 -1.2314
  117MOL0     H15755  10.438   7.695   4.208  1.6787  0.6898 -2.2764
  117MOL0     H15756  10.444   7.892   4.032 -2.2338  2.5298 -0.6285
  117MOL0     H15757  10.430   8.024   4.139  0.0611 -0.8220  0.5907
  117MOL0     H15758  10.574   8.003   4.044  1.5846 -1.5949  0.2544
  117MOL0     H15759  10.987   8.241   4.189 -4.2081 -1.3789 -0.0153
  117MOL0     H15760  11.068   8.474   4.233  0.5794  2.5258  0.3367
  117MOL0     H15761  10.877   8.738   4.300 -0.9062  1.3043 -0.4280
  117MOL0     H15762  10.812   8.708   4.457  0.5007 -1.7501 -0.6793
  117MOL0     H15763  11.042   8.878   4.378  1.3462  0.3502  2.0611
  117MOL0     H15764  10.885   8.940   4.434 -2.1094 -2.5823  1.8979
  117MOL0     H15765  11.090   8.789   4.607 -1.1472 -1.6079 -0.6655
  117MOL0     H15766  10.929   8.826   4.665  1.0726 -4.2170 -0.7253
  117MOL0     H15767  11.146   9.013   4.582  1.8403 -0.8851  2.0854
  117MOL0     H15768  10.975   9.058   4.615 -0.1197 -1.9870 -4.3839
  117MOL0     H15769  11.146   9.092   4.799  1.4498 -0.5691 -1.5835
  117MOL0     H15770  11.182   8.928   4.813 -0.0570 -0.7504 -1.0771
  117MOL0     H15771  10.908   9.038   4.827  2.1537  0.8793 -2.4577
  117MOL0     H15772  10.934   8.868   4.866  1.2002 -0.3817 -1.8129
  117MOL0     H15773  11.067   9.100   5.031  0.5091 -0.3184  1.2702
  117MOL0     H15774  11.064   8.915   5.059 -1.6525 -0.2432  0.5895
  117MOL0     H15775  10.950   9.052   5.210 -0.8334 -1.5693  0.6902
  117MOL0     H15776  10.855   8.923   5.131 -2.2074  0.6537 -1.4662
  117MOL0     H15777  10.835   8.506   4.581 -0.5568 -2.4646  1.7327
  117MOL0     H15778  10.781   8.265   4.572  0.6733  0.7311  0.6021
  117MOL0     H15779  10.802   7.885   4.482 -2.3735  1.2199  2.7738
  117MOL0     H15780  10.743   7.665   4.489  0.2933 -1.3588 -0.1448
  117MOL0     H15781   9.494   7.794   3.634 -1.9278 -0.5772 -0.0753
  117MOL0     H15782   9.346   7.592   3.603 -0.9796 -0.2583 -0.7351
  117MOL0     H15783   9.353   7.012   3.673 -0.5308 -1.2469  0.2795
  117MOL0     H15784   9.240   6.826   3.559 -2.4795  0.5078  1.5298
  117MOL0     H15785   8.995   6.883   3.447 -2.6471 -0.5819 -0.5400
  117MOL0     H15786   8.932   6.803   3.315  0.3142  0.8306 -0.7669
  117MOL0     H15787   8.930   6.667   3.526  0.0175  0.5446  0.5364
  117MOL0     H15788   9.100   6.685   3.543  0.0006 -0.7679 -0.4271
  117MOL0     H15789   9.100   6.540   3.306 -0.9860 -2.7708 -1.5554
  117MOL0     H15790   8.926   6.514   3.347 -1.7142  2.5123  1.7389
  117MOL0     H15791   9.169   6.470   3.514  0.9849 -2.3075 -0.8000
  117MOL0     H15792   9.089   6.348   3.426 -1.5975 -0.8460  1.3388
  117MOL0     H15793   8.802   6.404   3.743 -1.1232  1.1553 -1.9947
  117MOL0     H15794   9.222   7.039   3.191 -1.4964 -0.4425  0.4035
  117MOL0     H15795   9.347   7.242   3.317 -4.1035  0.7835 -0.2271
  118MOL0     O15796   1.555   6.677   5.873  0.0293 -0.4847 -0.2445
  118MOL0     C15797   1.493   6.631   5.777  0.2599  0.1362 -0.4365
  118MOL0     O15798   1.546   6.565   5.673  0.3960  0.0304  0.3125
  118MOL0     C15799   1.673   6.528   5.644  0.0736 -0.2547  0.0319
  118MOL0     C15800   1.780   6.506   5.736 -1.4541  0.4052 -0.1366
  118MOL0     C15801   1.912   6.493   5.694 -0.3262  0.3512 -0.3316
  118MOL0     C15802   1.941   6.477   5.567 -0.0263 -0.6640  0.2937
  118MOL0     O15803   2.070   6.455   5.539 -0.1296 -0.3701  1.0169
  118MOL0     C15804   2.154   6.576   5.542 -0.0661 -0.4292 -0.3624
  118MOL0     C15805   2.222   6.595   5.682 -0.7444 -0.1491  0.3087
  118MOL0     C15806   2.287   6.471   5.738 -0.4004  0.2229 -0.3835
  118MOL0     C15807   2.316   6.477   5.886 -0.9665 -0.4733 -0.4909
  118MOL0     C15808   2.229   6.377   5.960  0.6734  1.1595 -1.1896
  118MOL0     C15809   2.207   6.386   6.111 -0.4595  0.2561  0.7627
  118MOL0     C15810   2.341   6.365   6.188  0.1573  1.1955 -0.9327
  118MOL0     C15811   2.304   6.353   6.338 -0.0881 -0.2688 -0.4679
  118MOL0     N15812   2.221   6.457   6.399 -0.1452  0.7760 -0.1248
  118MOL0     C15813   2.104   6.441   6.463  0.8560  0.4753  0.0731
  118MOL0     C15814   2.068   6.564   6.507 -0.0451 -0.9671 -0.2842
  118MOL0     C15815   1.944   6.610   6.585  0.1632  0.0579 -0.0219
  118MOL0     C15816   1.962   6.622   6.741 -0.0185  0.3571 -0.4296
  118MOL0     C15817   1.823   6.648   6.806 -0.0124  0.7229 -0.3968
  118MOL0     C15818   1.756   6.785   6.773 -0.4879 -1.1024  0.1067
  118MOL0     O15819   1.661   6.836   6.866  0.2508 -0.4737 -0.0851
  118MOL0     C15820   1.528   6.799   6.844 -0.0230 -0.0812  0.2476
  118MOL0     C15821   1.436   6.868   6.923  0.5481  0.4640  1.6369
  118MOL0     C15822   1.299   6.847   6.924 -0.6885  0.2064 -0.0836
  118MOL0     C15823   1.213   6.920   7.026 -0.1959 -0.4569  0.2000
  118MOL0     C15824   1.245   6.753   6.835 -0.2568  0.1324 -0.4123
  118MOL0     C15825   1.100   6.715   6.817 -0.0828 -0.3193 -0.9183
  118MOL0     O15826   1.068   6.600   6.741  0.1654  0.1616 -0.4008
  118MOL0     C15827   0.935   6.592   6.701 -0.1489 -0.2368 -0.3190
  118MOL0     C15828   0.904   6.578   6.562 -0.9042 -0.2988 -0.9442
  118MOL0     C15829   0.772   6.586   6.521  0.0533 -1.0797  0.7553
  118MOL0     C15830   0.663   6.609   6.606 -0.1074 -0.0764 -0.8291
  118MOL0     O15831   0.536   6.614   6.573  0.0859 -0.4831  0.6580
  118MOL0     C15832   0.493   6.579   6.438  0.3252 -0.5367  0.5453
  118MOL0     C15833   0.338   6.580   6.424 -0.1411 -0.6187  0.7182
  118MOL0     C15834   0.289   6.491   6.307  0.9196  0.6687 -0.1329
  118MOL0     C15835   0.133   6.476   6.293  0.3161 -0.4485  0.5364
  118MOL0     C15836   0.089   6.348   6.208  1.7949  1.0590 -0.3720
  118MOL0     C15837  -0.068   6.344   6.185  0.4169  0.6272 -0.6698
  118MOL0     C15838  -0.145   6.287   6.308 -0.1206 -0.5245 -0.6965
  118MOL0     C15839  -0.296   6.311   6.284  0.4706  0.4835 -0.7343
  118MOL0    Cl15840  -0.325   6.500   6.301 -0.0430  0.0473  0.0141
  118MOL0     C15841   0.703   6.601   6.750  1.2089  0.1866  0.7633
  118MOL0     C15842   0.829   6.587   6.789  0.0156 -0.0154 -0.4206
  118MOL0     O15843   1.014   6.797   6.852 -0.2970  0.3376  0.1669
  118MOL0     C15844   1.338   6.677   6.755  0.8268 -0.1065  0.6228
  118MOL0     C15845   1.477   6.699   6.757  0.2152 -0.2624 -0.1785
  118MOL0     N15846   2.170   6.653   6.469  0.9811  0.2860 -0.7123
  118MOL0     N15847   2.264   6.585   6.415  0.3675  0.1733  0.3430
  118MOL0     C15848   1.840   6.485   5.469 -0.5896 -1.0012 -0.3569
  118MOL0     C15849   1.708   6.508   5.504 -0.8649 -0.7069 -0.2305
  118MOL0     C15850   1.350   6.649   5.768 -0.9835  0.4099  0.1334
  118MOL0     C15851   1.276   6.736   5.853  0.1205 -0.6287  0.2984
  118MOL0     C15852   1.140   6.757   5.833  0.5017 -0.6424  0.8621
  118MOL0     C15853   1.069   6.691   5.733  0.2867 -0.2046 -0.6915
  118MOL0     O15854   0.934   6.712   5.707  0.4518  0.0863 -0.3793
  118MOL0     C15855   0.872   6.839   5.745  0.2601  0.8649  0.1073
  118MOL0     C15856   0.801   6.831   5.875 -0.1838 -0.4228  0.6534
  118MOL0     C15857   0.737   6.965   5.922 -0.6482  0.4095  0.8633
  118MOL0     C15858   0.632   6.920   6.016  0.4508 -0.8406 -0.4369
  118MOL0     C15859   0.554   7.031   6.049 -0.4342  0.6194 -0.8460
  118MOL0     C15860   0.511   7.140   6.078  0.2115 -0.0213 -0.6714
  118MOL0     C15861   1.139   6.591   5.657  0.1600 -0.2335 -0.6269
  118MOL0     C15862   1.276   6.565   5.686  0.5700 -0.2512 -0.3815
  118MOL0     H15863   1.767   6.508   5.844 -2.0576  0.2130 -0.2032
  118MOL0     H15864   1.990   6.497   5.769 -2.0625 -0.7907  1.6567
  118MOL0     H15865   2.213   6.565   5.451 -0.7747 -0.3760 -0.8309
  118MOL0     H15866   2.092   6.663   5.519  0.9571 -0.3283 -3.0099
  118MOL0     H15867   2.313   6.650   5.655 -0.9088 -0.4071 -0.8215
  118MOL0     H15868   2.166   6.647   5.760 -1.3841  1.9628 -1.4400
  118MOL0     H15869   2.239   6.374   5.717  0.0930 -0.1774  0.3078
  118MOL0     H15870   2.384   6.465   5.688  0.0007 -3.1334  0.5563
  118MOL0     H15871   2.418   6.450   5.912 -1.4326 -0.6993  1.2875
  118MOL0     H15872   2.291   6.573   5.932 -4.4782 -1.5878  0.2672
  118MOL0     H15873   2.126   6.378   5.923  0.4554 -1.1629 -0.7818
  118MOL0     H15874   2.263   6.275   5.941 -2.6145 -0.9019  2.3468
  118MOL0     H15875   2.162   6.485   6.127  0.5932  1.0187 -0.7716
  118MOL0     H15876   2.134   6.306   6.130  0.9711 -2.0115 -2.2607
  118MOL0     H15877   2.396   6.279   6.148  0.4069  2.4535 -3.5458
  118MOL0     H15878   2.390   6.459   6.163 -0.3626  1.5420 -0.6491
  118MOL0     H15879   2.398   6.351   6.393 -0.1010  0.4726 -0.4164
  118MOL0     H15880   2.257   6.254   6.345  0.2013 -0.5157 -1.7423
  118MOL0     H15881   2.041   6.353   6.473  0.3093  0.8032 -0.3860
  118MOL0     H15882   1.911   6.709   6.551 -0.8899  0.4673  2.0067
  118MOL0     H15883   1.858   6.544   6.571 -0.7931  1.5054 -1.3353
  118MOL0     H15884   2.044   6.687   6.772  1.0064 -1.0964  0.0320
  118MOL0     H15885   2.014   6.530   6.770  2.6750  1.4481 -1.4646
  118MOL0     H15886   1.829   6.649   6.915 -0.8437 -0.6920 -0.3048
  118MOL0     H15887   1.756   6.566   6.778  0.4244  0.5180 -0.8672
  118MOL0     H15888   1.710   6.785   6.674 -1.1676  0.5679  0.3862
  118MOL0     H15889   1.825   6.870   6.776  1.8419 -2.9083  1.9494
  118MOL0     H15890   1.479   6.953   6.976 -1.2718  2.6520 -0.2037
  118MOL0     H15891   1.272   6.972   7.102 -1.4062 -0.8224  1.4304
  118MOL0     H15892   1.162   6.991   6.961 -1.6372 -2.1149 -0.5604
  118MOL0     H15893   1.148   6.847   7.075  0.6365  0.7146  3.3235
  118MOL0     H15894   0.976   6.548   6.486 -3.0051  0.4821 -3.4002
  118MOL0     H15895   0.756   6.571   6.415  0.6665  0.5585  0.4021
  118MOL0     H15896   0.535   6.652   6.369  1.8422  0.5214  2.4750
  118MOL0     H15897   0.531   6.481   6.406  0.3819  0.9456 -4.6942
  118MOL0     H15898   0.284   6.538   6.509 -0.3475 -0.5026  0.6459
  118MOL0     H15899   0.298   6.680   6.404 -2.4449 -1.7514 -0.6604
  118MOL0     H15900   0.325   6.390   6.330 -2.7788 -0.5527  0.8933
  118MOL0     H15901   0.324   6.538   6.214  6.4324 -0.2584  1.1157
  118MOL0     H15902   0.085   6.485   6.391 -1.1103  2.0265 -0.3002
  118MOL0     H15903   0.100   6.571   6.250  0.5056 -0.5450  0.1761
  118MOL0     H15904   0.118   6.257   6.260  1.3036  1.7110  1.1107
  118MOL0     H15905   0.143   6.363   6.114  0.7943 -1.8678 -1.5178
  118MOL0     H15906  -0.096   6.444   6.151  2.7723  1.4107 -0.5153
  118MOL0     H15907  -0.084   6.273   6.102  1.6211 -2.4572  1.5461
  118MOL0     H15908  -0.106   6.351   6.387 -1.3235  1.5119 -1.6646
  118MOL0     H15909  -0.131   6.179   6.320  0.2682 -0.6655 -2.2009
  118MOL0     H15910  -0.365   6.260   6.352 -0.8153 -0.9568 -2.9835
  118MOL0     H15911  -0.318   6.295   6.178  2.7711  1.1062 -1.3506
  118MOL0     H15912   0.633   6.605   6.833  1.1238  0.1458  0.6933
  118MOL0     H15913   0.827   6.605   6.896 -0.3071  1.8317 -0.7050
  118MOL0     H15914   1.299   6.594   6.697  0.1996 -0.1061  1.0332
  118MOL0     H15915   1.541   6.635   6.697  2.0492 -0.6148  2.0432
  118MOL0     H15916   1.871   6.478   5.365  1.9619  0.4489  0.2216
  118MOL0     H15917   1.635   6.521   5.424 -3.5090 -2.9504  1.6373
  118MOL0     H15918   1.330   6.806   5.916 -0.8133  0.9593 -0.6144
  118MOL0     H15919   1.105   6.837   5.897  0.0782  1.1533 -1.4587
  118MOL0     H15920   0.942   6.922   5.756  2.0415 -0.5410 -0.1166
  118MOL0     H15921   0.804   6.870   5.666 -0.0764  0.8211  0.3735
  118MOL0     H15922   0.874   6.793   5.948  3.7877  1.4332 -1.9697
  118MOL0     H15923   0.717   6.762   5.868 -0.9528  0.4175  1.3457
  118MOL0     H15924   0.693   7.002   5.829 -1.6886 -3.5215 -0.3830
  118MOL0     H15925   0.804   7.042   5.962  0.5534 -0.4440  0.5608
  118MOL0     H15926   0.662   6.881   6.113 -2.2791  1.1245  1.3271
  118MOL0     H15927   0.562   6.846   5.977 -3.3432  1.5830  1.2832
  118MOL0     H15928   0.481   7.243   6.083  1.5096  0.3501 -0.0810
  118MOL0     H15929   1.081   6.539   5.582 -1.3713  0.3111  0.1296
  118MOL0     H15930   1.317   6.487   5.623 -0.0650 -0.0476 -1.0679
  119MOL0     O15931   3.353   5.128   6.059 -0.1040  0.1825 -0.0003
  119MOL0     C15932   3.378   5.245   6.103  0.5197  0.2365  0.0891
  119MOL0     O15933   3.501   5.306   6.106  0.0913 -0.2282 -0.5365
  119MOL0     C15934   3.608   5.221   6.104 -0.4351 -1.6290 -0.4502
  119MOL0     C15935   3.618   5.104   6.170 -0.1668 -0.1384  0.2205
  119MOL0     C15936   3.736   5.034   6.184 -0.1861  0.5968  0.0678
  119MOL0     C15937   3.848   5.070   6.108  0.7465  0.0304 -0.2752
  119MOL0     O15938   3.962   4.990   6.119  0.0847 -0.4677 -0.4294
  119MOL0     C15939   4.058   5.027   6.012 -0.1396  0.0679 -0.3242
  119MOL0     C15940   4.173   4.920   6.022  0.7372 -1.1084  0.2275
  119MOL0     C15941   4.292   4.962   5.935 -0.4002 -0.2247 -0.0192
  119MOL0     C15942   4.305   4.873   5.808  0.2128 -0.3533  0.3183
  119MOL0     C15943   4.418   4.921   5.723  0.4391  0.9795 -0.1305
  119MOL0     C15944   4.458   4.846   5.594  0.5337  0.4822 -0.7052
  119MOL0     C15945   4.601   4.882   5.544  0.8020  0.7768  0.2609
  119MOL0     C15946   4.626   4.824   5.403  0.5255  0.0099  0.0650
  119MOL0     N15947   4.661   4.682   5.403 -0.2530  0.1223 -1.0198
  119MOL0     C15948   4.613   4.586   5.320  0.2684  0.2081 -1.0271
  119MOL0     C15949   4.668   4.465   5.351 -0.2939 -0.3543 -0.0533
  119MOL0     C15950   4.639   4.347   5.269 -0.4181  0.8829  0.3439
  119MOL0     C15951   4.698   4.217   5.318 -0.3547 -1.0490 -0.2471
  119MOL0     C15952   4.652   4.172   5.455 -0.4941  0.0437 -0.1446
  119MOL0     C15953   4.718   4.034   5.488  0.3756 -0.0789  0.4209
  119MOL0     O15954   4.692   3.989   5.620  0.4464 -0.0356 -0.0969
  119MOL0     C15955   4.716   3.860   5.649 -0.8748  0.2587  0.8213
  119MOL0     C15956   4.799   3.781   5.570 -0.0967  0.2004 -0.2541
  119MOL0     C15957   4.821   3.649   5.590  0.1818  0.3164 -1.5393
  119MOL0     C15958   4.943   3.589   5.525 -0.6675  0.5180  0.5125
  119MOL0     C15959   4.737   3.585   5.687 -0.3762 -0.0323 -0.6804
  119MOL0     C15960   4.738   3.447   5.723 -0.2481 -0.3831 -0.7500
  119MOL0     O15961   4.623   3.396   5.766 -0.0656 -0.4406 -0.0115
  119MOL0     C15962   4.624   3.262   5.790 -0.3324 -0.0852  0.5491
  119MOL0     C15963   4.601   3.206   5.915 -0.4281 -0.4271 -0.6560
  119MOL0     C15964   4.598   3.067   5.934 -0.3311 -0.1006 -0.8085
  119MOL0     C15965   4.628   2.978   5.822 -0.4346 -0.4687  0.3466
  119MOL0     O15966   4.626   2.838   5.834  0.1720  0.1956  0.9847
  119MOL0     C15967   4.586   2.780   5.960 -0.6019  0.3897 -0.3781
  119MOL0     C15968   4.574   2.629   5.956  0.1127  0.0492  0.1710
  119MOL0     C15969   4.482   2.590   5.845  0.4864  0.0105 -0.3926
  119MOL0     C15970   4.413   2.461   5.878  0.2931  0.6170  0.0408
  119MOL0     C15971   4.515   2.345   5.886 -0.0572 -1.2590 -0.8239
  119MOL0     C15972   4.449   2.218   5.925  1.1818  0.7699 -0.6486
  119MOL0     C15973   4.547   2.112   5.882 -0.2074 -0.2315  0.5702
  119MOL0     C15974   4.495   1.971   5.896  0.7429 -0.5839 -0.1411
  119MOL0    Cl15975   4.401   1.953   6.062 -0.4386  0.3125 -0.5199
  119MOL0     C15976   4.648   3.035   5.704  0.6225 -0.9881 -0.8863
  119MOL0     C15977   4.641   3.171   5.683  0.3263  0.1303 -0.8692
  119MOL0     O15978   4.851   3.398   5.731  0.3982  0.2297  0.0778
  119MOL0     C15979   4.646   3.658   5.763  0.4437 -0.8187 -0.4729
  119MOL0     C15980   4.634   3.795   5.746  0.0006  0.4476 -0.8367
  119MOL0     N15981   4.750   4.491   5.463 -0.6854 -0.7447  0.3990
  119MOL0     N15982   4.750   4.621   5.493 -0.3358  0.0803  0.6956
  119MOL0     C15983   3.838   5.185   6.036  0.4943  0.1302  0.8111
  119MOL0     C15984   3.715   5.258   6.036 -0.6467 -0.5300  0.7673
  119MOL0     C15985   3.265   5.331   6.142 -0.0996  0.4440 -0.9227
  119MOL0     C15986   3.249   5.459   6.095  0.0381  0.7018  0.6988
  119MOL0     C15987   3.132   5.540   6.110  0.1460 -0.1613 -0.9013
  119MOL0     C15988   3.027   5.483   6.184  0.2451 -0.0533  0.9581
  119MOL0     O15989   2.902   5.541   6.192 -0.6713 -1.1207 -0.3162
  119MOL0     C15990   2.831   5.566   6.069 -0.3503  0.4140 -0.1743
  119MOL0     C15991   2.687   5.561   6.108  0.4111  0.0890 -0.5223
  119MOL0     C15992   2.585   5.552   5.995  0.3075 -0.1059 -1.0292
  119MOL0     C15993   2.452   5.500   6.058 -0.8162  0.1481  0.4608
  119MOL0     C15994   2.332   5.549   5.997  0.5156  0.2923  0.2354
  119MOL0     C15995   2.227   5.578   5.950 -0.0124 -0.0297  0.5358
  119MOL0     C15996   3.035   5.359   6.239  0.1211 -0.2580  0.2583
  119MOL0     C15997   3.156   5.279   6.224  0.6964  0.4169  0.6871
  119MOL0     H15998   3.530   5.064   6.219 -0.2279  2.4905  2.4621
  119MOL0     H15999   3.739   4.947   6.248  2.0687  0.3854 -0.2602
  119MOL0     H16000   4.011   5.033   5.913 -3.1464 -2.5662  0.8046
  119MOL0     H16001   4.107   5.124   6.030  0.5390  0.3163 -3.0137
  119MOL0     H16002   4.210   4.932   6.124  1.9360  1.6644 -0.4256
  119MOL0     H16003   4.140   4.818   6.001 -2.2003 -0.7259  2.3855
  119MOL0     H16004   4.286   5.063   5.894  0.9388 -0.8622 -1.9246
  119MOL0     H16005   4.384   4.950   5.993 -0.0658  2.0772  0.0015
  119MOL0     H16006   4.307   4.767   5.834 -2.4344 -0.3386  0.8631
  119MOL0     H16007   4.211   4.890   5.753  0.8302  1.6645 -0.1834
  119MOL0     H16008   4.383   5.016   5.682 -0.4909  0.0280 -1.6348
  119MOL0     H16009   4.504   4.930   5.790  0.6702 -0.0263 -0.2802
  119MOL0     H16010   4.442   4.739   5.609  0.3647 -0.0109 -3.7974
  119MOL0     H16011   4.404   4.881   5.505  1.2605 -1.6310 -2.0518
  119MOL0     H16012   4.605   4.991   5.556 -2.0466  1.1359 -0.9478
  119MOL0     H16013   4.679   4.836   5.604  1.7274 -1.9316 -2.7119
  119MOL0     H16014   4.718   4.873   5.369  2.0203 -1.1840  2.1715
  119MOL0     H16015   4.556   4.848   5.323  1.5856 -0.1657 -0.9417
  119MOL0     H16016   4.549   4.611   5.236  3.6266  3.4585 -2.9309
  119MOL0     H16017   4.530   4.338   5.267 -0.6099  0.9485  4.1489
  119MOL0     H16018   4.666   4.366   5.165  1.5767 -2.7931 -0.0074
  119MOL0     H16019   4.806   4.236   5.316 -0.5995  0.4022 -1.0416
  119MOL0     H16020   4.692   4.142   5.238  0.2189 -1.3315 -0.0292
  119MOL0     H16021   4.546   4.147   5.441 -0.3736  0.7460 -2.8484
  119MOL0     H16022   4.669   4.256   5.523 -0.6656  0.1120 -0.1860
  119MOL0     H16023   4.826   4.044   5.479  0.2402  1.6070  0.3831
  119MOL0     H16024   4.669   3.965   5.419 -0.6061  2.2990 -1.3994
  119MOL0     H16025   4.856   3.808   5.482 -1.3471  0.6526 -0.9457
  119MOL0     H16026   4.971   3.487   5.552 -0.8154  0.8625  2.0375
  119MOL0     H16027   4.941   3.580   5.416  3.8239 -4.5142  0.4238
  119MOL0     H16028   5.030   3.641   5.564 -2.1906  0.1498  4.9396
  119MOL0     H16029   4.590   3.284   5.989 -3.1806  1.2791 -2.6570
  119MOL0     H16030   4.574   3.045   6.038  1.9299  0.3419 -0.1376
  119MOL0     H16031   4.657   2.812   6.037 -0.0412  2.4441 -1.6771
  119MOL0     H16032   4.490   2.827   5.984 -1.7699 -2.0056 -0.1323
  119MOL0     H16033   4.676   2.592   5.945  0.8986  1.5708  1.7425
  119MOL0     H16034   4.537   2.590   6.051  2.8268 -0.6752  1.0319
  119MOL0     H16035   4.524   2.575   5.746 -1.6931 -2.1168 -1.1077
  119MOL0     H16036   4.403   2.665   5.835 -0.4207 -1.1470 -2.5223
  119MOL0     H16037   4.362   2.462   5.975 -2.1127  0.1267 -1.1407
  119MOL0     H16038   4.334   2.437   5.805 -0.4881 -0.3460  1.1494
  119MOL0     H16039   4.595   2.365   5.958  0.0889  1.0958 -1.5624
  119MOL0     H16040   4.554   2.338   5.784  2.1046 -0.9990 -0.0669
  119MOL0     H16041   4.443   2.211   6.034 -0.0183 -2.5500 -0.8249
  119MOL0     H16042   4.355   2.206   5.869  0.1813  4.8836 -0.2007
  119MOL0     H16043   4.631   2.125   5.950  2.8117  1.2447 -3.0639
  119MOL0     H16044   4.582   2.118   5.778 -0.8116 -2.4810  0.1764
  119MOL0     H16045   4.585   1.909   5.895 -0.6169 -2.6595 -0.2921
  119MOL0     H16046   4.430   1.956   5.809  0.2409 -1.7057  0.4155
  119MOL0     H16047   4.673   2.976   5.616  2.3062  0.3954 -1.3969
  119MOL0     H16048   4.645   3.206   5.580 -1.5576  1.3042 -0.6047
  119MOL0     H16049   4.589   3.605   5.839  0.1707 -1.8378 -1.3492
  119MOL0     H16050   4.561   3.848   5.806  1.4835  0.3414  1.1566
  119MOL0     H16051   3.921   5.229   5.981 -0.1877  0.3527 -0.0505
  119MOL0     H16052   3.713   5.342   5.966  1.4350 -0.6868  0.4425
  119MOL0     H16053   3.318   5.497   6.020  0.9733 -0.6006  0.8751
  119MOL0     H16054   3.132   5.632   6.053  1.0818  2.0929  2.4877
  119MOL0     H16055   2.840   5.659   6.013 -0.1852  0.5663  0.1046
  119MOL0     H16056   2.866   5.485   6.004  1.7516 -0.7437  2.2398
  119MOL0     H16057   2.679   5.642   6.181 -0.7229 -0.4439 -0.0424
  119MOL0     H16058   2.674   5.474   6.173  1.0928 -0.2370 -0.8081
  119MOL0     H16059   2.623   5.489   5.914  2.0949  0.0221 -0.3209
  119MOL0     H16060   2.569   5.653   5.957  3.5141  1.4832  1.4250
  119MOL0     H16061   2.439   5.523   6.164 -2.1925  2.5265 -0.1437
  119MOL0     H16062   2.461   5.392   6.049  2.7018  0.1837  1.7333
  119MOL0     H16063   2.143   5.618   5.898  2.0727  0.7342 -2.4819
  119MOL0     H16064   2.946   5.317   6.285 -3.3117  1.2652 -4.2326
  119MOL0     H16065   3.170   5.179   6.265 -2.1317  1.5676  5.2855
  120MOL0     O16066   8.906   0.604   1.351  0.3592  0.2344 -0.1221
  120MOL0     C16067   8.981   0.540   1.275 -0.4744 -0.6865  1.3747
  120MOL0     O16068   9.106   0.484   1.310  0.1169  0.0540  0.6050
  120MOL0     C16069   9.164   0.500   1.430 -0.2177 -0.8773  0.4881
  120MOL0     C16070   9.248   0.398   1.470 -0.0382 -0.6952  0.4238
  120MOL0     C16071   9.339   0.412   1.576 -0.2027 -0.0937  0.2372
  120MOL0     C16072   9.336   0.534   1.645 -0.7090 -0.2520  0.6255
  120MOL0     O16073   9.435   0.559   1.728 -0.3886  0.4769  0.2230
  120MOL0     C16074   9.434   0.482   1.851 -0.6745  0.2247 -0.3983
  120MOL0     C16075   9.550   0.525   1.935 -0.0434  0.4894 -0.0602
  120MOL0     C16076   9.687   0.504   1.860  0.6878  0.9062  0.0897
  120MOL0     C16077   9.795   0.588   1.938  0.3589  0.0661 -1.0684
  120MOL0     C16078   9.918   0.645   1.857 -0.0448 -0.4987  0.9192
  120MOL0     C16079  10.035   0.545   1.843  0.0430  0.1161 -0.8636
  120MOL0     C16080  10.147   0.592   1.745  0.5979 -0.0177  0.2574
  120MOL0     C16081  10.266   0.492   1.722 -0.5479 -0.5748 -0.1409
  120MOL0     N16082  10.339   0.473   1.856 -0.1061 -0.0675  0.2917
  120MOL0     C16083  10.347   0.358   1.932  0.2874 -0.3524 -0.2460
  120MOL0     C16084  10.463   0.362   2.001  0.0963 -0.5180 -0.7139
  120MOL0     C16085  10.513   0.254   2.083  0.3579 -0.2964  0.3023
  120MOL0     C16086  10.518   0.275   2.235 -0.9769  0.1034 -0.4627
  120MOL0     C16087  10.392   0.273   2.321 -0.0705  0.3320 -0.5602
  120MOL0     C16088  10.333   0.407   2.362 -0.4690 -0.0795  0.1009
  120MOL0     O16089  10.239   0.396   2.465 -0.3128 -0.1035  0.2498
  120MOL0     C16090  10.121   0.465   2.453 -0.1292 -0.7530 -1.0394
  120MOL0     C16091  10.106   0.589   2.391 -0.2236 -0.0070  0.1752
  120MOL0     C16092   9.980   0.650   2.368 -0.2374  0.2029 -0.2397
  120MOL0     C16093   9.981   0.789   2.310 -0.0949 -0.2705  0.1288
  120MOL0     C16094   9.859   0.573   2.411  0.0538  0.9450  0.5536
  120MOL0     C16095   9.719   0.608   2.376  0.4992  0.1524  0.0338
  120MOL0     O16096   9.630   0.516   2.401 -0.2605 -0.4283 -0.3180
  120MOL0     C16097   9.497   0.552   2.417 -0.2654 -0.1085 -0.0022
  120MOL0     C16098   9.452   0.665   2.491 -0.3077 -0.5582 -0.4981
  120MOL0     C16099   9.314   0.704   2.480  0.5219  0.1010 -0.2526
  120MOL0     C16100   9.226   0.621   2.418 -0.1528 -0.3904  1.4795
  120MOL0     O16101   9.093   0.645   2.406 -0.5331  0.0232  0.1519
  120MOL0     C16102   9.014   0.740   2.487 -0.0060  1.3424 -0.2385
  120MOL0     C16103   8.887   0.772   2.414  0.4093 -0.6959  0.3292
  120MOL0     C16104   8.787   0.649   2.395 -0.1424 -0.5855  0.4782
  120MOL0     C16105   8.684   0.682   2.285 -0.6231  0.0662 -0.1285
  120MOL0     C16106   8.581   0.576   2.262 -0.3524 -0.6055 -0.0149
  120MOL0     C16107   8.653   0.476   2.159  0.0509  0.8595 -0.5267
  120MOL0     C16108   8.550   0.384   2.093  0.5757 -0.5354  0.0251
  120MOL0     C16109   8.481   0.429   1.973 -0.3082  0.6454 -0.0724
  120MOL0    Cl16110   8.337   0.537   2.002  0.1537 -0.1327 -0.6213
  120MOL0     C16111   9.266   0.509   2.350 -0.0147 -0.3233 -1.1730
  120MOL0     C16112   9.405   0.472   2.353 -0.4652  0.5100 -0.0997
  120MOL0     O16113   9.692   0.710   2.317 -0.1100 -0.5394 -1.0095
  120MOL0     C16114   9.876   0.450   2.470 -0.4953  0.7758 -0.1395
  120MOL0     C16115  10.004   0.406   2.496 -0.2617  0.0273 -0.8666
  120MOL0     N16116  10.529   0.477   1.968 -0.0716 -0.5603 -0.2644
  120MOL0     N16117  10.448   0.550   1.896 -0.4665  0.2382 -0.3883
  120MOL0     C16118   9.231   0.624   1.624 -0.5543  0.0334 -0.0133
  120MOL0     C16119   9.146   0.613   1.516  0.6094 -0.6473  0.0119
  120MOL0     C16120   8.929   0.513   1.141  1.1456  0.0054  0.1989
  120MOL0     C16121   8.977   0.405   1.067  0.8085 -0.6689 -0.3876
  120MOL0     C16122   8.916   0.369   0.946 -0.3484  0.3149  0.2970
  120MOL0     C16123   8.808   0.442   0.898  0.0616 -0.0263  0.0104
  120MOL0     O16124   8.729   0.398   0.804 -0.7003 -0.2592  0.2264
  120MOL0     C16125   8.756   0.291   0.719  0.0227 -0.1568  0.8786
  120MOL0     C16126   8.662   0.281   0.600  0.1940  0.0273 -0.0300
  120MOL0     C16127   8.682   0.394   0.512 -0.2038 -0.2273  1.1268
  120MOL0     C16128   8.576   0.408   0.409 -0.0757 -0.8097  0.1091
  120MOL0     C16129   8.440   0.419   0.467 -0.4499 -0.3044  0.5415
  120MOL0     C16130   8.338   0.446   0.531  0.3529  0.1019 -0.5447
  120MOL0     C16131   8.767   0.562   0.966  0.6934  0.8849  0.3183
  120MOL0     C16132   8.827   0.596   1.088  0.0408  1.0829 -0.0584
  120MOL0     H16133   9.254   0.317   1.398  1.4843  0.1967 -0.4989
  120MOL0     H16134   9.416   0.340   1.602 -0.1773  0.2279  1.0634
  120MOL0     H16135   9.338   0.499   1.900 -0.5245  0.4991 -0.1971
  120MOL0     H16136   9.449   0.376   1.831 -0.5598  0.1791 -0.0751
  120MOL0     H16137   9.531   0.629   1.962  1.8573  1.0634 -0.7491
  120MOL0     H16138   9.562   0.472   2.030 -0.8411  2.1294  1.0081
  120MOL0     H16139   9.697   0.396   1.864  1.9185  1.0211  0.5017
  120MOL0     H16140   9.685   0.548   1.760  0.6342  2.6842  0.8271
  120MOL0     H16141   9.731   0.664   1.983  1.2626 -1.2893  2.8985
  120MOL0     H16142   9.833   0.531   2.023  2.1698  0.2257 -1.7369
  120MOL0     H16143   9.889   0.674   1.755  1.2887 -0.3163  0.5736
  120MOL0     H16144   9.975   0.725   1.906  0.1223 -0.8992  1.3729
  120MOL0     H16145  10.091   0.550   1.937  3.7687  0.7481 -2.8831
  120MOL0     H16146  10.015   0.440   1.817  2.3344 -0.3160 -1.1529
  120MOL0     H16147  10.112   0.600   1.641 -0.0854 -2.2892  0.2561
  120MOL0     H16148  10.198   0.674   1.795  1.4962 -0.7540  0.5708
  120MOL0     H16149  10.326   0.543   1.646  0.3677 -0.0931  0.8745
  120MOL0     H16150  10.219   0.397   1.697  0.9613 -1.6645  0.9534
  120MOL0     H16151  10.294   0.264   1.944  0.7789 -0.4032  2.1394
  120MOL0     H16152  10.444   0.169   2.074  0.2125 -1.0738  5.5636
  120MOL0     H16153  10.607   0.222   2.036  0.2078 -1.4570  0.7586
  120MOL0     H16154  10.548   0.378   2.253 -0.4399  0.2517 -2.1051
  120MOL0     H16155  10.581   0.200   2.284 -3.4754 -3.8343 -2.7644
  120MOL0     H16156  10.416   0.215   2.411 -0.6020  2.3976  0.9823
  120MOL0     H16157  10.320   0.224   2.254  1.7865 -3.9082  0.2294
  120MOL0     H16158  10.294   0.452   2.270 -2.5430  0.3122  1.1029
  120MOL0     H16159  10.409   0.473   2.405  2.8211 -2.3582 -1.8479
  120MOL0     H16160  10.200   0.636   2.363 -1.2068  1.6397 -0.5559
  120MOL0     H16161   9.936   0.774   2.212 -1.1183  0.6783  0.4360
  120MOL0     H16162   9.910   0.844   2.373 -1.9408  0.9656 -2.8613
  120MOL0     H16163  10.080   0.837   2.314 -0.4786  0.5609 -0.2271
  120MOL0     H16164   9.519   0.739   2.533  1.0384  1.1791 -5.0524
  120MOL0     H16165   9.267   0.776   2.547 -0.0366 -1.8278  1.5422
  120MOL0     H16166   8.990   0.695   2.584 -1.7315  1.1923 -0.6960
  120MOL0     H16167   9.070   0.834   2.498  0.2522  1.0481  1.1680
  120MOL0     H16168   8.832   0.848   2.471 -0.2970  0.2680 -1.5566
  120MOL0     H16169   8.906   0.816   2.316  1.7758 -0.6918  0.5784
  120MOL0     H16170   8.723   0.635   2.482 -1.2945 -1.5750 -0.4905
  120MOL0     H16171   8.828   0.551   2.370  0.3405 -0.8243  2.1222
  120MOL0     H16172   8.630   0.765   2.332 -1.1689 -1.7033  2.5689
  120MOL0     H16173   8.721   0.732   2.195 -0.0254  1.8051  1.0340
  120MOL0     H16174   8.490   0.628   2.229 -0.5775  1.3822  3.3488
  120MOL0     H16175   8.552   0.522   2.353  0.6455  1.2325  1.4600
  120MOL0     H16176   8.693   0.534   2.075 -1.3051  0.1055 -1.7523
  120MOL0     H16177   8.724   0.410   2.211 -2.6130 -1.1252  0.8182
  120MOL0     H16178   8.468   0.347   2.155 -1.8726  1.4677 -1.8325
  120MOL0     H16179   8.620   0.303   2.073  0.9495 -0.1412 -0.2645
  120MOL0     H16180   8.452   0.334   1.927  0.3901 -0.6264  2.0168
  120MOL0     H16181   8.550   0.476   1.902 -0.3854  0.5480 -0.2130
  120MOL0     H16182   9.189   0.448   2.304 -0.1317 -3.9768  3.1785
  120MOL0     H16183   9.447   0.379   2.314  1.4890  1.0030  0.7052
  120MOL0     H16184   9.794   0.384   2.498  2.1036 -1.8629  1.9996
  120MOL0     H16185  10.010   0.308   2.544  0.5007  0.9831  1.1342
  120MOL0     H16186   9.226   0.709   1.691  1.5714 -0.9992  1.5526
  120MOL0     H16187   9.068   0.687   1.499  0.5697 -0.2951  1.6227
  120MOL0     H16188   9.058   0.344   1.107 -0.0958 -1.8069 -0.2279
  120MOL0     H16189   8.933   0.267   0.913  1.7941 -0.3232  3.0105
  120MOL0     H16190   8.854   0.304   0.673 -0.2462 -2.4099 -0.5561
  120MOL0     H16191   8.763   0.196   0.772  1.6388 -0.6056 -0.0754
  120MOL0     H16192   8.561   0.279   0.641  1.6866 -0.2309  4.2041
  120MOL0     H16193   8.688   0.185   0.555  1.4462 -0.7134  2.1034
  120MOL0     H16194   8.773   0.359   0.463  0.0256  0.4556  1.0440
  120MOL0     H16195   8.708   0.486   0.565 -1.1824  0.0041  1.2219
  120MOL0     H16196   8.580   0.321   0.343  0.2147 -0.8451  0.1722
  120MOL0     H16197   8.608   0.501   0.361 -2.6342 -0.4784 -1.1320
  120MOL0     H16198   8.258   0.498   0.579  2.1227  3.3988 -0.8457
  120MOL0     H16199   8.679   0.618   0.934  2.3738  2.6942 -1.4249
  120MOL0     H16200   8.788   0.678   1.147 -2.3688 -0.5127  0.7293
  121MOL0     O16201   0.118   2.987  10.753  0.3625 -0.4543  0.2789
  121MOL0     C16202   0.206   3.076  10.756  0.7362  0.3221 -0.5082
  121MOL0     O16203   0.187   3.196  10.810  0.0265  0.0064 -0.6524
  121MOL0     C16204   0.068   3.234  10.874 -0.2392 -0.3077  0.2966
  121MOL0     C16205  -0.033   3.147  10.932 -0.0798 -0.5090  0.7178
  121MOL0     C16206  -0.157   3.195  10.970 -0.2010  0.0901  0.2393
  121MOL0     C16207  -0.188   3.332  10.962 -0.4112  0.1742 -0.5385
  121MOL0     O16208  -0.309   3.378  11.002 -0.1172  0.2895  0.0230
  121MOL0     C16209  -0.314   3.413  11.141 -0.1701 -0.1666 -0.1874
  121MOL0     C16210  -0.378   3.301  11.231 -0.8262 -0.8499  1.3039
  121MOL0     C16211  -0.501   3.250  11.166  0.2648  0.1013  0.2199
  121MOL0     C16212  -0.611   3.358  11.169  0.0201 -0.2380 -0.0218
  121MOL0     C16213  -0.754   3.319  11.133  0.7669 -1.1442  0.7824
  121MOL0     C16214  -0.844   3.449  11.104  0.0860 -0.2311 -0.2366
  121MOL0     C16215  -0.992   3.417  11.126 -0.0686 -0.0522  0.1379
  121MOL0     C16216  -1.062   3.291  11.054  0.7321  0.4356 -0.0478
  121MOL0     N16217  -1.192   3.276  11.114  0.8723 -0.1617  0.0797
  121MOL0     C16218  -1.308   3.263  11.043  0.0502  0.2363  0.0805
  121MOL0     C16219  -1.413   3.231  11.126  0.0851  0.2024 -0.6595
  121MOL0     C16220  -1.558   3.201  11.079  0.6485  0.6799 -0.2617
  121MOL0     C16221  -1.584   3.083  10.986  0.4123 -0.1960 -1.0751
  121MOL0     C16222  -1.555   2.952  11.059 -0.2247 -0.2589  0.4127
  121MOL0     C16223  -1.564   2.838  10.960 -0.6960  0.0201 -0.2761
  121MOL0     O16224  -1.690   2.788  10.927 -0.0659  0.2830 -0.7331
  121MOL0     C16225  -1.782   2.748  11.024 -0.6554  0.1036  0.2013
  121MOL0     C16226  -1.918   2.759  11.004 -0.5659 -0.1114  0.4272
  121MOL0     C16227  -2.009   2.712  11.098 -0.8204 -0.2809  0.7613
  121MOL0     C16228  -2.159   2.728  11.066  0.4661  0.2201 -0.4907
  121MOL0     C16229  -1.962   2.651  11.220 -0.3899 -0.2571 -0.0126
  121MOL0     C16230  -2.055   2.597  11.331 -0.3119 -0.0721  0.2587
  121MOL0     O16231  -2.013   2.491  11.392  0.3799  0.0692  0.1194
  121MOL0     C16232  -2.099   2.410  11.467  0.6193 -0.1826  0.5387
  121MOL0     C16233  -2.160   2.292  11.422 -0.4797 -0.1090  0.2077
  121MOL0     C16234  -2.215   2.213  11.519  0.0511  0.2595 -0.3132
  121MOL0     C16235  -2.215   2.247  11.658  0.2355  0.9631  0.6242
  121MOL0     O16236  -2.242   2.165  11.759  0.1380  0.4888 -0.7593
  121MOL0     C16237  -2.227   2.024  11.741 -0.2642  0.4373  0.3730
  121MOL0     C16238  -2.242   1.938  11.872 -0.2745  0.5838  0.7785
  121MOL0     C16239  -2.244   1.789  11.836 -0.0750 -0.1535  0.5739
  121MOL0     C16240  -2.374   1.740  11.763  0.3206  1.1674  0.4705
  121MOL0     C16241  -2.505   1.761  11.833 -0.1217 -0.0920  0.2249
  121MOL0     C16242  -2.626   1.739  11.741  0.8347 -0.5336 -0.1767
  121MOL0     C16243  -2.745   1.815  11.800 -0.7960 -0.6033  0.9090
  121MOL0     C16244  -2.862   1.811  11.703  0.4989 -0.3634 -0.3343
  121MOL0    Cl16245  -2.829   1.893  11.549  0.3615 -0.3178 -0.3414
  121MOL0     C16246  -2.171   2.371  11.692 -1.1748  1.0763  0.1341
  121MOL0     C16247  -2.103   2.451  11.598  0.4944 -0.2881  0.9084
  121MOL0     O16248  -2.159   2.654  11.360  0.2467  0.5403 -0.1016
  121MOL0     C16249  -1.820   2.648  11.241 -0.7672 -0.7302 -0.5379
  121MOL0     C16250  -1.731   2.694  11.144  0.2010  0.6445  0.0005
  121MOL0     N16251  -1.350   3.220  11.248 -0.0198  0.1989 -0.2372
  121MOL0     N16252  -1.219   3.245  11.239  1.1292 -0.0611  0.0204
  121MOL0     C16253  -0.091   3.417  10.902  0.3555 -0.5014  0.1274
  121MOL0     C16254   0.032   3.369  10.864  0.6328 -0.4660 -0.1654
  121MOL0     C16255   0.343   3.037  10.712 -0.2429 -0.4103 -0.6003
  121MOL0     C16256   0.374   2.899  10.706  0.0788 -0.0355 -0.1621
  121MOL0     C16257   0.504   2.854  10.665 -0.0179  0.2934  0.2172
  121MOL0     C16258   0.599   2.941  10.629 -0.0550  0.7131 -0.2668
  121MOL0     O16259   0.724   2.890  10.595  0.1420 -1.0076  0.0005
  121MOL0     C16260   0.818   2.962  10.517 -1.2457 -0.7607  0.4010
  121MOL0     C16261   0.972   2.905  10.499  1.1679 -0.1998 -0.1089
  121MOL0     C16262   0.963   2.764  10.439  0.5030 -0.5054 -0.5048
  121MOL0     C16263   1.095   2.712  10.387  0.1603 -0.2480  0.5333
  121MOL0     C16264   1.159   2.780  10.266  0.0123  0.0655 -0.7944
  121MOL0     C16265   1.229   2.831  10.180  0.4026  0.2482  0.7799
  121MOL0     C16266   0.575   3.080  10.634 -0.5637  0.5991 -1.0749
  121MOL0     C16267   0.445   3.127  10.676 -1.0995 -0.1262 -0.4673
  121MOL0     H16268  -0.011   3.040  10.928  0.7561 -0.3499  0.9093
  121MOL0     H16269  -0.236   3.135  11.015 -1.3735  0.0734 -1.6981
  121MOL0     H16270  -0.213   3.433  11.177  0.3891  1.4548 -2.4425
  121MOL0     H16271  -0.362   3.511  11.148  0.6654  0.3163 -0.9989
  121MOL0     H16272  -0.309   3.217  11.233  0.3648  0.1197  1.8959
  121MOL0     H16273  -0.389   3.337  11.334 -2.2026 -0.5348  1.0729
  121MOL0     H16274  -0.483   3.221  11.063  1.1648  0.7429  0.1896
  121MOL0     H16275  -0.536   3.153  11.203 -3.4716  0.8684 -0.8088
  121MOL0     H16276  -0.624   3.403  11.267 -1.1763 -0.1140 -0.2186
  121MOL0     H16277  -0.572   3.444  11.114  0.5564  0.0041  0.7322
  121MOL0     H16278  -0.767   3.253  11.047 -2.6422 -0.7321  0.8318
  121MOL0     H16279  -0.800   3.285  11.226  0.0368 -0.0751  0.8337
  121MOL0     H16280  -0.801   3.534  11.158  1.3140 -0.8921 -0.1264
  121MOL0     H16281  -0.824   3.460  10.997  0.7698  0.9360 -0.0161
  121MOL0     H16282  -0.997   3.389  11.232 -1.4762  1.9058  0.6309
  121MOL0     H16283  -1.058   3.504  11.120  0.7775  0.5297 -1.0365
  121MOL0     H16284  -1.010   3.195  11.056 -0.7272 -0.3859  1.7194
  121MOL0     H16285  -1.066   3.324  10.950 -1.1841  0.4725  0.0117
  121MOL0     H16286  -1.324   3.287  10.939 -0.1851 -1.9401 -0.4385
  121MOL0     H16287  -1.625   3.176  11.162  0.2546  0.6875 -0.5735
  121MOL0     H16288  -1.597   3.289  11.027 -2.1172  0.3234  1.0433
  121MOL0     H16289  -1.530   3.097  10.891  2.9056  0.0008  0.2872
  121MOL0     H16290  -1.692   3.088  10.974  0.1094 -0.3657  1.1653
  121MOL0     H16291  -1.619   2.924  11.143  1.1988 -1.2750  1.2067
  121MOL0     H16292  -1.448   2.947  11.083 -0.2080 -3.1311 -0.0266
  121MOL0     H16293  -1.502   2.758  11.001 -0.6788  0.4769  0.6037
  121MOL0     H16294  -1.514   2.872  10.868 -2.2196  3.0508 -0.1019
  121MOL0     H16295  -1.966   2.814  10.924 -0.8525 -1.1685 -0.1522
  121MOL0     H16296  -2.205   2.793  11.141  1.9259 -1.3261  1.8645
  121MOL0     H16297  -2.193   2.777  10.974  2.1156  0.8549 -0.7949
  121MOL0     H16298  -2.204   2.629  11.083 -1.1456  1.3306  2.3944
  121MOL0     H16299  -2.160   2.267  11.316  0.0413 -1.3889  0.4961
  121MOL0     H16300  -2.251   2.115  11.490  0.1098  0.9099 -2.7804
  121MOL0     H16301  -2.292   1.981  11.665  0.1173 -0.1371  0.3689
  121MOL0     H16302  -2.125   2.005  11.709 -0.9599 -2.2630 -0.4551
  121MOL0     H16303  -2.160   1.970  11.936  0.3493  3.5571 -1.2858
  121MOL0     H16304  -2.337   1.972  11.915 -0.8995 -1.4212  1.0693
  121MOL0     H16305  -2.217   1.721  11.917  4.3942 -2.1174 -2.2070
  121MOL0     H16306  -2.164   1.784  11.762  0.4563  0.6101  1.0814
  121MOL0     H16307  -2.399   1.784  11.666 -2.2087  0.0267  0.5179
  121MOL0     H16308  -2.371   1.632  11.747 -1.8497  1.0585  0.5400
  121MOL0     H16309  -2.510   1.867  11.862 -1.6078  1.7279 -5.3714
  121MOL0     H16310  -2.502   1.689  11.915  3.6919 -1.1251 -0.5995
  121MOL0     H16311  -2.612   1.789  11.644 -1.6247  3.8126  1.4004
  121MOL0     H16312  -2.647   1.632  11.736  1.5998 -0.7538  0.9421
  121MOL0     H16313  -2.721   1.919  11.820  0.5816 -0.9381  1.1196
  121MOL0     H16314  -2.773   1.759  11.890 -1.0883  0.5318  1.5376
  121MOL0     H16315  -2.941   1.863  11.759  0.2934 -1.3824  0.3485
  121MOL0     H16316  -2.907   1.713  11.685 -0.4318  0.2253 -1.3243
  121MOL0     H16317  -2.168   2.403  11.795 -1.1825  1.0443  0.1445
  121MOL0     H16318  -2.069   2.550  11.624  3.6077 -0.4747 -1.8734
  121MOL0     H16319  -1.779   2.624  11.339  1.0734  0.1221 -1.0652
  121MOL0     H16320  -1.623   2.683  11.144  0.3443  1.4693 -2.1243
  121MOL0     H16321  -0.125   3.520  10.895 -0.2503 -0.7334 -0.4082
  121MOL0     H16322   0.090   3.435  10.800 -1.2980 -0.5966 -2.1981
  121MOL0     H16323   0.302   2.823  10.736  0.3797 -0.3867 -0.3270
  121MOL0     H16324   0.525   2.748  10.658 -0.5358  0.2899 -3.9125
  121MOL0     H16325   0.764   2.968  10.422 -3.0573  0.4610  1.4549
  121MOL0     H16326   0.820   3.060  10.565 -1.0277 -1.5944  2.1554
  121MOL0     H16327   1.014   2.893  10.600 -0.4370  2.6426  1.0029
  121MOL0     H16328   1.046   2.968  10.448  0.7219  0.5433  0.1446
  121MOL0     H16329   0.898   2.760  10.351  1.1849 -2.3858 -0.9831
  121MOL0     H16330   0.909   2.691  10.500 -1.7901  0.3664 -1.3983
  121MOL0     H16331   1.078   2.610  10.353 -2.2931  0.1059  0.5377
  121MOL0     H16332   1.149   2.707  10.482  0.4504  0.1680  0.3943
  121MOL0     H16333   1.302   2.884  10.122 -2.3782  3.5613 -0.0790
  121MOL0     H16334   0.659   3.146  10.611  1.3961 -1.0344  0.9714
  121MOL0     H16335   0.426   3.234  10.685  3.1890  1.0103 -2.4789
  122MOL0     O16336  10.790   3.128  10.412 -0.2162  0.2169  0.2330
  122MOL0     C16337  10.809   3.017  10.356 -0.7296 -0.1390  0.0854
  122MOL0     O16338  10.902   2.921  10.392 -0.9706  0.6134 -0.2081
  122MOL0     C16339  10.973   2.920  10.507 -0.2311  0.5385 -0.1555
  122MOL0     C16340  10.976   2.806  10.585 -0.0913  0.7890 -0.4276
  122MOL0     C16341  11.022   2.815  10.720 -0.2044  0.1400  1.6394
  122MOL0     C16342  11.074   2.933  10.770 -0.9533  0.7227 -1.2341
  122MOL0     O16343  11.119   2.946  10.898 -0.3254 -0.0151  0.5688
  122MOL0     C16344  11.190   2.838  10.959 -0.0979 -0.4879  0.2871
  122MOL0     C16345  11.258   2.872  11.091  0.5819  0.6067 -0.4215
  122MOL0     C16346  11.146   2.864  11.200 -0.1492  1.2826 -0.2064
  122MOL0     C16347  11.208   2.885  11.340 -0.0263  0.6934  0.7804
  122MOL0     C16348  11.291   2.768  11.398 -0.3287  0.1247  1.0365
  122MOL0     C16349  11.211   2.667  11.478 -0.0730  0.0638  0.7816
  122MOL0     C16350  11.172   2.706  11.614 -0.2053 -0.2727 -0.2069
  122MOL0     C16351  11.285   2.676  11.704  0.2167  1.0674  0.0447
  122MOL0     N16352  11.293   2.764  11.815 -0.1608 -0.2997  0.3419
  122MOL0     C16353  11.417   2.824  11.836  0.6201 -0.8938  0.3089
  122MOL0     C16354  11.413   2.854  11.969 -0.7934  0.5856  0.6502
  122MOL0     C16355  11.517   2.931  12.052  0.5873 -0.3961 -0.0319
  122MOL0     C16356  11.511   2.883  12.198  0.3786 -0.8290 -0.9034
  122MOL0     C16357  11.551   3.004  12.289  0.1759 -0.1672  0.1100
  122MOL0     C16358  11.539   2.991  12.439  0.1511  0.0949 -0.4189
  122MOL0     O16359  11.414   2.933  12.491 -0.7366  0.5865 -1.3644
  122MOL0     C16360  11.329   3.019  12.562 -0.1320  0.0326 -0.3687
  122MOL0     C16361  11.230   2.951  12.635  0.4604  0.4361 -0.4754
  122MOL0     C16362  11.129   3.017  12.699 -0.1065  0.1370  0.0996
  122MOL0     C16363  11.024   2.935  12.762  0.0374  0.4191 -0.6782
  122MOL0     C16364  11.127   3.161  12.709 -0.6558  0.0534  0.4063
  122MOL0     C16365  11.033   3.246  12.786 -0.6020 -0.3552  0.7811
  122MOL0     O16366  10.936   3.189  12.867  0.4115 -0.0296  0.9513
  122MOL0     C16367  10.847   3.267  12.938 -0.2416  0.0736 -0.2973
  122MOL0     C16368  10.745   3.341  12.891  0.0687  0.4375  0.1674
  122MOL0     C16369  10.662   3.410  12.976  0.1840 -0.6829  0.1150
  122MOL0     C16370  10.670   3.396  13.119  0.8363  0.3482  0.1021
  122MOL0     O16371  10.575   3.457  13.198 -0.8588 -0.3966  0.0591
  122MOL0     C16372  10.605   3.479  13.336 -0.7035 -0.1514 -0.5331
  122MOL0     C16373  10.514   3.594  13.384 -0.5080  0.8311  0.6988
  122MOL0     C16374  10.563   3.733  13.339  0.1784  1.2579  0.3746
  122MOL0     C16375  10.541   3.839  13.440 -0.6948  0.0571 -0.9145
  122MOL0     C16376  10.564   3.978  13.370 -0.4681 -0.4447 -0.0580
  122MOL0     C16377  10.458   4.014  13.263  0.2860  0.1165 -0.0750
  122MOL0     C16378  10.483   4.157  13.214  0.1399 -1.4880  0.5418
  122MOL0     C16379  10.366   4.200  13.121 -0.7947 -0.5878  0.7336
  122MOL0    Cl16380  10.224   4.252  13.222  0.1764 -0.0806  0.3618
  122MOL0     C16381  10.779   3.325  13.163  0.3476  0.9898  0.4081
  122MOL0     C16382  10.860   3.253  13.076 -0.8944 -0.5426 -0.6338
  122MOL0     O16383  11.047   3.369  12.769  0.4731 -0.7323  0.4787
  122MOL0     C16384  11.227   3.225  12.630  0.2582 -0.5952  0.2051
  122MOL0     C16385  11.322   3.163  12.561 -0.1845  0.5757  0.1341
  122MOL0     N16386  11.299   2.807  12.026 -0.0367 -0.2155 -0.0618
  122MOL0     N16387  11.228   2.756  11.935  0.7203  0.2743  0.5248
  122MOL0     C16388  11.072   3.046  10.698 -0.6052 -0.5361 -0.4066
  122MOL0     C16389  11.022   3.041  10.565 -0.8285  0.2578  0.1828
  122MOL0     C16390  10.733   2.988  10.239  0.3377  0.4958  0.7126
  122MOL0     C16391  10.702   2.862  10.207  0.0086  0.2943 -1.3112
  122MOL0     C16392  10.628   2.833  10.092  0.0718  0.1589 -0.8506
  122MOL0     C16393  10.573   2.933  10.012 -0.5389 -0.1052 -0.4261
  122MOL0     O16394  10.477   2.918   9.915 -0.6596 -0.0434  0.4502
  122MOL0     C16395  10.448   2.780   9.874  0.2573 -1.2060 -0.2460
  122MOL0     C16396  10.350   2.781   9.752  0.1124 -0.4358  0.0284
  122MOL0     C16397  10.310   2.643   9.696 -0.5420 -0.1132 -0.2367
  122MOL0     C16398  10.256   2.657   9.559  0.0802 -0.2778  0.0374
  122MOL0     C16399  10.206   2.524   9.510  0.4460 -0.4385 -0.6157
  122MOL0     C16400  10.150   2.429   9.459 -0.2356 -0.2322 -0.2863
  122MOL0     C16401  10.603   3.066  10.046  0.1027  0.8369  0.6831
  122MOL0     C16402  10.697   3.093  10.151 -0.8882  0.1444 -0.5104
  122MOL0     H16403  10.937   2.719  10.532  0.4084 -0.5065  1.2389
  122MOL0     H16404  11.030   2.726  10.782  0.1132  1.2193  3.2180
  122MOL0     H16405  11.134   2.746  10.978  1.1845 -1.5031 -0.5926
  122MOL0     H16406  11.272   2.812  10.891 -1.0062 -1.0180 -0.6389
  122MOL0     H16407  11.336   2.799  11.116  0.8795  2.3674  4.8635
  122MOL0     H16408  11.310   2.967  11.083  0.6841  0.5943  0.1147
  122MOL0     H16409  11.057   2.926  11.184 -0.9882 -0.5680 -3.5567
  122MOL0     H16410  11.110   2.762  11.187 -1.2810  1.8416 -1.8154
  122MOL0     H16411  11.273   2.971  11.325 -2.2734  2.0081 -2.8293
  122MOL0     H16412  11.122   2.917  11.400 -1.2801  1.6853 -1.3884
  122MOL0     H16413  11.348   2.726  11.315 -2.2091 -0.3254 -0.0891
  122MOL0     H16414  11.363   2.813  11.467  2.7827 -1.3039 -1.0801
  122MOL0     H16415  11.112   2.641  11.439 -0.1222  1.6376 -0.2258
  122MOL0     H16416  11.270   2.576  11.489 -1.1151 -1.0470 -1.9285
  122MOL0     H16417  11.148   2.812  11.612  2.6709  0.4769  0.2895
  122MOL0     H16418  11.094   2.643  11.658  1.6167 -1.2283  1.8725
  122MOL0     H16419  11.384   2.671  11.657  0.3837 -0.5267  0.5308
  122MOL0     H16420  11.256   2.576  11.737  0.7561  1.2940  1.2357
  122MOL0     H16421  11.499   2.853  11.771 -0.0967  1.4054  0.3458
  122MOL0     H16422  11.614   2.915  12.005  2.1914  1.0876  2.4949
  122MOL0     H16423  11.490   3.037  12.053  0.3741 -0.3415  3.8189
  122MOL0     H16424  11.588   2.808  12.218  1.1938  0.6538  2.0584
  122MOL0     H16425  11.415   2.841  12.227  0.5851 -1.3917 -1.0213
  122MOL0     H16426  11.504   3.095  12.249 -1.0389 -0.8546 -0.0878
  122MOL0     H16427  11.658   3.016  12.268  0.9833  0.9283  4.0926
  122MOL0     H16428  11.567   3.086  12.483 -1.2594  0.1900  0.3396
  122MOL0     H16429  11.622   2.921  12.457 -0.4438 -0.4531  0.2702
  122MOL0     H16430  11.236   2.844  12.651 -0.0635  0.5179  0.3096
  122MOL0     H16431  10.926   2.975  12.734  0.4792  1.2276 -1.0844
  122MOL0     H16432  11.014   2.832  12.727 -2.6718  0.5482 -0.4928
  122MOL0     H16433  11.017   2.936  12.871  2.1286 -1.8228 -0.4486
  122MOL0     H16434  10.726   3.344  12.784 -1.4934  1.2850  0.4298
  122MOL0     H16435  10.585   3.474  12.935  2.2493  2.4514  0.8013
  122MOL0     H16436  10.577   3.385  13.383  1.4250  1.0937  3.7619
  122MOL0     H16437  10.708   3.513  13.354 -2.1782  3.3906  2.6573
  122MOL0     H16438  10.415   3.584  13.339 -1.6908  1.1540  3.0569
  122MOL0     H16439  10.482   3.584  13.488 -4.5610  0.7242 -0.4022
  122MOL0     H16440  10.519   3.745  13.239 -0.1510 -0.6497  0.2470
  122MOL0     H16441  10.671   3.730  13.325  0.0257  2.6922 -1.6709
  122MOL0     H16442  10.443   3.837  13.489 -0.1815 -0.8013  0.1061
  122MOL0     H16443  10.615   3.818  13.518 -0.2287  1.1112 -1.0547
  122MOL0     H16444  10.665   3.980  13.327 -0.6023 -2.3649 -0.5187
  122MOL0     H16445  10.563   4.062  13.441  2.2670  1.6058 -2.1863
  122MOL0     H16446  10.473   3.956  13.172  2.2069  0.1111  0.2083
  122MOL0     H16447  10.356   4.000  13.300 -0.4456 -0.4739 -2.1805
  122MOL0     H16448  10.576   4.163  13.156 -0.5351  1.2566 -0.3750
  122MOL0     H16449  10.485   4.234  13.292 -0.5085  2.4123 -2.9453
  122MOL0     H16450  10.344   4.117  13.053  2.0861 -0.2255 -0.7970
  122MOL0     H16451  10.401   4.283  13.059 -4.3946  0.3308 -0.3304
  122MOL0     H16452  10.798   3.309  13.269 -1.8691  1.6700  0.9507
  122MOL0     H16453  10.941   3.196  13.122 -1.5167  0.9480  2.6015
  122MOL0     H16454  11.239   3.332  12.640  1.0544 -0.6015 -0.5388
  122MOL0     H16455  11.388   3.226  12.503  0.1471  0.4550  0.3783
  122MOL0     H16456  11.108   3.137  10.745 -0.4267 -0.5333 -0.5468
  122MOL0     H16457  11.035   3.128  10.501 -0.5219 -1.8717 -2.8276
  122MOL0     H16458  10.735   2.780  10.271  3.5972  1.2652 -1.7460
  122MOL0     H16459  10.624   2.731  10.055 -0.7748  0.5185 -1.7986
  122MOL0     H16460  10.543   2.734   9.844  0.3871 -0.7912 -0.4822
  122MOL0     H16461  10.400   2.728   9.957  2.1742 -0.0640  1.6905
  122MOL0     H16462  10.408   2.845   9.685  2.8418 -0.6152  2.0607
  122MOL0     H16463  10.260   2.826   9.796  0.6720  0.0083  0.7434
  122MOL0     H16464  10.235   2.606   9.767 -1.0204 -1.0802 -1.2151
  122MOL0     H16465  10.387   2.565   9.701  0.8064  1.2174  2.7547
  122MOL0     H16466  10.334   2.699   9.495  0.9325 -0.6741  0.7894
  122MOL0     H16467  10.172   2.727   9.569  1.3561  1.7879 -2.5168
  122MOL0     H16468  10.108   2.355   9.394 -0.2912 -0.7756  0.3597
  122MOL0     H16469  10.562   3.153   9.995 -1.6531 -0.7642 -0.7755
  122MOL0     H16470  10.727   3.192  10.185  2.0456 -0.3246 -1.4937
  123MOL0     O16471   6.068   3.633   9.568 -0.0991 -0.0525  0.5385
  123MOL0     C16472   6.035   3.690   9.468  0.2868 -0.0728  0.5465
  123MOL0     O16473   6.112   3.756   9.390  0.1368 -0.5853 -0.3645
  123MOL0     C16474   6.244   3.790   9.419 -0.4457  0.5590 -1.6086
  123MOL0     C16475   6.294   3.799   9.554  0.6660  0.3024 -0.4258
  123MOL0     C16476   6.420   3.842   9.585 -1.5411  0.3426  0.3649
  123MOL0     C16477   6.510   3.882   9.480 -0.2921  0.5922  0.7997
  123MOL0     O16478   6.628   3.937   9.494  0.1357 -0.1212 -0.3718
  123MOL0     C16479   6.734   3.835   9.483  0.9770  1.3378  1.1826
  123MOL0     C16480   6.744   3.754   9.609 -0.0893  0.4182  0.0818
  123MOL0     C16481   6.777   3.838   9.739 -0.7158 -0.4093  1.1551
  123MOL0     C16482   6.917   3.815   9.783 -1.2814 -0.5114 -0.6949
  123MOL0     C16483   7.039   3.844   9.693  1.0038 -0.4322  0.3502
  123MOL0     C16484   7.055   3.994   9.660 -0.4120  0.3278  0.6959
  123MOL0     C16485   7.143   4.003   9.538  0.9808  0.3870  0.6089
  123MOL0     C16486   7.294   3.996   9.563  0.9744  0.2521  0.0962
  123MOL0     N16487   7.359   4.019   9.433 -0.2989 -0.9557 -0.0136
  123MOL0     C16488   7.367   4.147   9.368 -0.3768  1.8497  0.5474
  123MOL0     C16489   7.441   4.111   9.260 -0.3998 -0.0789 -0.5677
  123MOL0     C16490   7.494   4.210   9.166  1.4530 -0.4201 -0.6238
  123MOL0     C16491   7.499   4.165   9.018 -0.1023  0.0514  1.2290
  123MOL0     C16492   7.505   4.277   8.915  0.5343 -0.1008  0.0199
  123MOL0     C16493   7.519   4.221   8.773  0.2809  0.7645 -0.5139
  123MOL0     O16494   7.389   4.173   8.724  0.1612  0.3403  0.3467
  123MOL0     C16495   7.372   4.087   8.619 -0.0146  1.2599 -0.5827
  123MOL0     C16496   7.478   4.012   8.574  0.4251  0.8129 -0.8117
  123MOL0     C16497   7.463   3.917   8.478 -0.8261 -0.6191  1.2528
  123MOL0     C16498   7.583   3.831   8.430  0.6107  0.2314  1.0297
  123MOL0     C16499   7.333   3.904   8.426 -0.0056 -0.3819 -0.0000
  123MOL0     C16500   7.305   3.798   8.329  0.3464  0.3206  0.0930
  123MOL0     O16501   7.259   3.693   8.383 -0.0671  0.8000  0.3282
  123MOL0     C16502   7.201   3.585   8.316 -0.9718 -1.9496 -0.4779
  123MOL0     C16503   7.066   3.573   8.326 -0.4702 -0.6964 -0.3476
  123MOL0     C16504   7.000   3.467   8.255  0.2002  0.7481 -0.4932
  123MOL0     C16505   7.072   3.365   8.188 -1.1549  0.5650  0.3738
  123MOL0     O16506   7.001   3.258   8.137 -0.0747  0.2561 -0.4163
  123MOL0     C16507   6.973   3.260   7.993 -0.1576  1.6851 -0.0017
  123MOL0     C16508   6.836   3.338   7.958  0.4267  0.1810 -0.7066
  123MOL0     C16509   6.726   3.273   8.052  0.4910 -0.1340 -0.4444
  123MOL0     C16510   6.613   3.370   8.067 -0.7460 -0.2594 -0.2945
  123MOL0     C16511   6.516   3.340   8.179  0.4497  0.4425  0.7147
  123MOL0     C16512   6.573   3.366   8.317 -0.3502  0.3409 -0.6556
  123MOL0     C16513   6.605   3.509   8.345 -0.1229  0.1355  0.8993
  123MOL0     C16514   6.660   3.533   8.489  0.1938 -0.3547 -0.4907
  123MOL0    Cl16515   6.590   3.435   8.621  0.3404  0.0781 -0.0955
  123MOL0     C16516   7.216   3.376   8.189  0.6513  0.4302 -0.0676
  123MOL0     C16517   7.281   3.498   8.243 -0.4054  0.3848  0.3422
  123MOL0     O16518   7.307   3.829   8.209 -0.2000  0.2736 -0.4667
  123MOL0     C16519   7.238   3.992   8.461 -0.2983  0.3674 -0.2434
  123MOL0     C16520   7.248   4.086   8.567  0.0656 -0.0560 -0.1807
  123MOL0     N16521   7.470   3.980   9.259  0.1352  0.3783 -0.3326
  123MOL0     N16522   7.416   3.926   9.360  0.4427  0.5014  0.1366
  123MOL0     C16523   6.463   3.866   9.346 -0.0066  0.5210  0.6469
  123MOL0     C16524   6.334   3.826   9.316  0.7458  0.3322 -0.3805
  123MOL0     C16525   5.893   3.676   9.422  0.1704 -0.0954  0.3160
  123MOL0     C16526   5.804   3.613   9.510  0.1475  0.3873  0.2135
  123MOL0     C16527   5.681   3.574   9.464 -0.7277  0.6216  0.1475
  123MOL0     C16528   5.636   3.615   9.329  0.1682 -0.3769 -1.0488
  123MOL0     O16529   5.506   3.583   9.290 -0.0828 -0.3908  1.0484
  123MOL0     C16530   5.415   3.530   9.379  0.2637 -0.3102  0.3204
  123MOL0     C16531   5.284   3.540   9.297  0.1684 -0.2529  0.5121
  123MOL0     C16532   5.160   3.495   9.376 -1.2304  0.2416 -0.5386
  123MOL0     C16533   5.140   3.592   9.491  1.2968 -0.9001  0.7983
  123MOL0     C16534   5.025   3.549   9.577 -0.8430  0.7637  0.3848
  123MOL0     C16535   4.935   3.517   9.654 -0.2398 -0.2680 -0.6708
  123MOL0     C16536   5.732   3.687   9.250  0.8989  0.0474  0.1807
  123MOL0     C16537   5.849   3.710   9.296  0.3483 -0.2228 -0.0697
  123MOL0     H16538   6.230   3.785   9.641  1.8805 -0.5745  0.3618
  123MOL0     H16539   6.451   3.872   9.684  0.6591  1.8143 -0.6934
  123MOL0     H16540   6.711   3.767   9.401 -1.6555  0.7400  2.2978
  123MOL0     H16541   6.837   3.868   9.468  1.3143 -0.0984  0.2272
  123MOL0     H16542   6.655   3.695   9.633 -1.0973  2.1092  0.6745
  123MOL0     H16543   6.822   3.678   9.595  0.5325  0.7322  1.6604
  123MOL0     H16544   6.752   3.942   9.716 -0.2115 -0.5307 -0.0128
  123MOL0     H16545   6.714   3.789   9.814 -0.5016 -3.7669 -0.6392
  123MOL0     H16546   6.927   3.864   9.880 -1.9999 -2.5401  0.4614
  123MOL0     H16547   6.928   3.707   9.800  2.1879 -0.2133 -0.2820
  123MOL0     H16548   7.130   3.803   9.737  1.8377  1.9967  1.0245
  123MOL0     H16549   7.023   3.788   9.600 -1.7501 -1.3247  1.2516
  123MOL0     H16550   6.961   4.046   9.636  0.3942  0.0305 -4.0404
  123MOL0     H16551   7.085   4.058   9.744  0.1829  0.0924  0.6640
  123MOL0     H16552   7.114   3.934   9.458 -0.5875  2.2585 -0.5372
  123MOL0     H16553   7.122   4.096   9.483  0.0007 -1.9581 -3.3473
  123MOL0     H16554   7.320   3.898   9.603 -0.2682 -0.7253 -1.3983
  123MOL0     H16555   7.329   4.070   9.636 -1.1455  1.7370 -0.3043
  123MOL0     H16556   7.333   4.246   9.395 -1.7030  1.2231  1.2897
  123MOL0     H16557   7.417   4.287   9.158  1.2756 -0.7037 -1.7076
  123MOL0     H16558   7.588   4.247   9.208  0.6491  1.0517 -0.0286
  123MOL0     H16559   7.422   4.093   8.987 -1.8184  1.4068  2.1809
  123MOL0     H16560   7.598   4.120   9.019 -0.7450 -1.4831  3.0740
  123MOL0     H16561   7.589   4.344   8.935  1.6220  0.5124 -5.1177
  123MOL0     H16562   7.409   4.331   8.915 -0.4951 -1.6971 -3.1868
  123MOL0     H16563   7.595   4.142   8.776  1.0453  1.4555 -1.4072
  123MOL0     H16564   7.556   4.296   8.704  0.5468  0.4230 -0.7467
  123MOL0     H16565   7.577   4.034   8.612 -0.3012  0.5748  1.3506
  123MOL0     H16566   7.678   3.885   8.427  1.3631 -1.0885 -1.0713
  123MOL0     H16567   7.598   3.753   8.505 -0.2502  0.8361  1.8600
  123MOL0     H16568   7.575   3.783   8.332  0.2913  0.9765  0.6815
  123MOL0     H16569   7.009   3.645   8.383  1.3900 -0.6743  1.6150
  123MOL0     H16570   6.898   3.439   8.281  1.0492  1.5355  4.7400
  123MOL0     H16571   7.043   3.310   7.926  1.5683 -2.3059 -1.5184
  123MOL0     H16572   6.965   3.153   7.970 -1.1774  1.2603  2.0810
  123MOL0     H16573   6.856   3.445   7.969 -1.0646  0.4657 -0.5381
  123MOL0     H16574   6.799   3.320   7.857  1.3999 -0.3796 -0.9743
  123MOL0     H16575   6.769   3.256   8.151  2.6679 -2.1876 -1.6248
  123MOL0     H16576   6.680   3.182   8.013 -2.8496  0.9266  0.7123
  123MOL0     H16577   6.657   3.469   8.083 -0.3413 -0.3588 -0.7749
  123MOL0     H16578   6.555   3.381   7.976 -2.2966  1.4542  0.8231
  123MOL0     H16579   6.497   3.234   8.160  0.9040  0.9168 -3.5538
  123MOL0     H16580   6.420   3.384   8.148  1.2991  2.3206  0.5942
  123MOL0     H16581   6.494   3.348   8.391 -0.1838  5.1121  1.0121
  123MOL0     H16582   6.654   3.298   8.344 -0.5043  0.5470  0.3839
  123MOL0     H16583   6.516   3.572   8.345  0.0745  0.5813 -2.6305
  123MOL0     H16584   6.675   3.546   8.269 -0.5202 -1.6363 -0.3962
  123MOL0     H16585   6.649   3.637   8.521 -2.5601 -1.5919  3.2681
  123MOL0     H16586   6.767   3.508   8.496  0.0864 -0.6958 -0.0503
  123MOL0     H16587   7.257   3.287   8.144 -0.8378 -0.1765 -0.2693
  123MOL0     H16588   7.389   3.512   8.240 -0.6980  3.1531  0.7549
  123MOL0     H16589   7.145   3.987   8.404 -1.1012  1.7843  0.8662
  123MOL0     H16590   7.178   4.165   8.594 -0.6709 -0.9898  0.7117
  123MOL0     H16591   6.529   3.890   9.264 -0.2657 -1.2082 -0.1103
  123MOL0     H16592   6.290   3.838   9.218  3.0288  1.1400 -1.3737
  123MOL0     H16593   5.832   3.594   9.613  1.0011  0.1258 -0.0673
  123MOL0     H16594   5.621   3.516   9.533  2.2914 -2.2843  0.5660
  123MOL0     H16595   5.435   3.427   9.409  0.8104  0.3558  2.3628
  123MOL0     H16596   5.408   3.583   9.475 -1.2286 -0.9442  0.5729
  123MOL0     H16597   5.288   3.461   9.221 -1.6942 -0.3999  0.5060
  123MOL0     H16598   5.252   3.624   9.235 -0.6736 -1.5621 -0.9103
  123MOL0     H16599   5.178   3.393   9.412 -1.4118  1.0695  2.1055
  123MOL0     H16600   5.076   3.484   9.307 -1.9299  1.1500  0.1425
  123MOL0     H16601   5.129   3.690   9.445  3.7435  1.5899  4.8470
  123MOL0     H16602   5.229   3.601   9.555 -0.0864  0.9822  2.5900
  123MOL0     H16603   4.854   3.495   9.719  0.1495 -0.8505 -0.3793
  123MOL0     H16604   5.687   3.724   9.158  0.2633 -2.2752 -0.5305
  123MOL0     H16605   5.914   3.777   9.241 -0.8715  1.4458  0.4198
  124MOL0     O16606   2.702   7.917   1.287  0.4632  0.1082  0.8416
  124MOL0     C16607   2.606   7.921   1.214  0.1414 -0.0584 -0.3442
  124MOL0     O16608   2.476   7.923   1.251 -0.2064 -0.0942  0.1094
  124MOL0     C16609   2.440   7.901   1.385  0.4570 -0.3016  0.7822
  124MOL0     C16610   2.374   8.008   1.451  0.0483  1.2437  0.2121
  124MOL0     C16611   2.318   7.982   1.586 -0.8461 -0.6385  0.1088
  124MOL0     C16612   2.335   7.859   1.644 -0.0400  0.0782  0.0579
  124MOL0     O16613   2.274   7.848   1.769 -0.7437 -0.6101 -0.4833
  124MOL0     C16614   2.257   7.728   1.831  0.5381 -0.2541  0.4354
  124MOL0     C16615   2.118   7.732   1.896  0.2132 -1.1458 -0.1021
  124MOL0     C16616   2.088   7.857   1.973  0.1304  0.1258  0.0614
  124MOL0     C16617   1.942   7.828   2.031 -0.2439  0.8846  0.6437
  124MOL0     C16618   1.910   7.956   2.108 -0.4586 -0.1699  0.1231
  124MOL0     C16619   1.754   7.963   2.128 -0.6231 -0.2677 -0.7028
  124MOL0     C16620   1.720   7.901   2.274 -0.0642 -0.2470 -0.1399
  124MOL0     C16621   1.736   7.758   2.302 -0.4409 -0.1804 -0.2308
  124MOL0     N16622   1.718   7.726   2.448 -0.6665  0.4092 -0.3640
  124MOL0     C16623   1.639   7.628   2.504  0.1699 -0.2706  0.4516
  124MOL0     C16624   1.677   7.616   2.634 -0.9920 -0.3629 -0.6305
  124MOL0     C16625   1.628   7.505   2.734 -0.3690  1.1280  0.2783
  124MOL0     C16626   1.474   7.500   2.741  0.8872  0.7194  0.1164
  124MOL0     C16627   1.409   7.537   2.881  0.5187 -0.0133 -0.5661
  124MOL0     C16628   1.433   7.425   2.984 -0.5821  0.7906  1.2607
  124MOL0     O16629   1.349   7.312   2.965 -0.0983  0.4068  0.3058
  124MOL0     C16630   1.384   7.186   3.014 -0.4429 -0.3038  0.4244
  124MOL0     C16631   1.490   7.169   3.101 -0.8379  0.4111 -0.0314
  124MOL0     C16632   1.532   7.033   3.143  0.1788 -0.0650  1.4020
  124MOL0     C16633   1.657   7.031   3.230 -0.8907 -1.0035 -0.5965
  124MOL0     C16634   1.455   6.923   3.115  0.5803  1.0498 -0.1894
  124MOL0     C16635   1.475   6.782   3.171  0.8073  0.2493  0.0294
  124MOL0     O16636   1.411   6.684   3.100 -0.7379  0.1500 -0.5407
  124MOL0     C16637   1.413   6.561   3.163 -0.5650  0.4150 -0.5685
  124MOL0     C16638   1.317   6.522   3.253 -0.6875 -0.5754 -0.3946
  124MOL0     C16639   1.310   6.388   3.295 -0.6861  1.3763  0.4189
  124MOL0     C16640   1.384   6.279   3.237 -0.4322 -0.3003 -0.1339
  124MOL0     O16641   1.366   6.145   3.255 -0.3086  0.2851  1.2634
  124MOL0     C16642   1.231   6.107   3.308 -0.4814  0.1954  0.1054
  124MOL0     C16643   1.201   5.963   3.267  0.4046  0.0478 -0.5046
  124MOL0     C16644   1.188   5.963   3.106 -0.0780  0.5408  0.6035
  124MOL0     C16645   1.157   5.818   3.054  0.0443 -0.3830 -0.2218
  124MOL0     C16646   1.076   5.813   2.926 -0.0522 -0.7709 -0.2685
  124MOL0     C16647   1.183   5.844   2.810 -0.9063  0.8971 -0.3993
  124MOL0     C16648   1.125   5.869   2.671 -0.4758  0.5648 -0.6031
  124MOL0     C16649   1.117   5.748   2.570  0.1391  0.4560 -0.2880
  124MOL0    Cl16650   1.270   5.688   2.499 -0.3444 -0.0231  0.0929
  124MOL0     C16651   1.475   6.319   3.142 -0.9548  0.4415 -0.3918
  124MOL0     C16652   1.496   6.456   3.107  0.0259  0.1914 -0.8136
  124MOL0     O16653   1.546   6.761   3.269  0.6257  0.6142 -0.2881
  124MOL0     C16654   1.354   6.949   3.018  0.0114 -0.3902  0.1769
  124MOL0     C16655   1.311   7.077   2.975  0.2882 -0.3637  0.7488
  124MOL0     N16656   1.759   7.720   2.666 -0.4271  0.4158 -0.2199
  124MOL0     N16657   1.777   7.784   2.557 -0.1498  0.3246  0.2905
  124MOL0     C16658   2.398   7.755   1.570 -0.5344  1.0302  0.0379
  124MOL0     C16659   2.441   7.777   1.438  0.2980 -0.6876 -0.2222
  124MOL0     C16660   2.641   7.949   1.080  0.6407 -0.1448  0.1777
  124MOL0     C16661   2.553   8.017   0.994 -0.3847  1.6405 -0.1674
  124MOL0     C16662   2.588   8.051   0.866 -0.4464  0.5376  1.0542
  124MOL0     C16663   2.712   8.005   0.809 -0.4472 -0.0339  0.2850
  124MOL0     O16664   2.735   8.034   0.673  0.9265  0.0020 -0.1059
  124MOL0     C16665   2.846   7.979   0.605  0.7984 -0.4809 -0.5241
  124MOL0     C16666   2.995   8.013   0.641  0.3342  0.3533  0.3670
  124MOL0     C16667   3.036   8.149   0.694 -0.0809 -0.4815  0.9247
  124MOL0     C16668   3.053   8.260   0.582  0.2900 -0.0913  0.2336
  124MOL0     C16669   2.994   8.390   0.610  0.6590  0.0748 -0.5608
  124MOL0     C16670   2.935   8.491   0.648  0.0914  0.4879 -1.0773
  124MOL0     C16671   2.794   7.927   0.892 -0.6329  0.8034 -0.2817
  124MOL0     C16672   2.764   7.909   1.026 -0.4781  0.1440  0.0235
  124MOL0     H16673   2.369   8.105   1.402 -0.6907  1.2249  0.2359
  124MOL0     H16674   2.265   8.062   1.635  0.3448  1.7082 -2.1638
  124MOL0     H16675   2.245   7.639   1.768 -2.9550 -0.2687  0.9197
  124MOL0     H16676   2.338   7.712   1.903  1.6189 -1.1864 -0.9353
  124MOL0     H16677   2.038   7.704   1.826  0.0799 -1.3412  0.1259
  124MOL0     H16678   2.105   7.641   1.955  1.3123 -2.3239 -1.5672
  124MOL0     H16679   2.161   7.853   2.054 -0.5300  0.6531  0.6930
  124MOL0     H16680   2.099   7.950   1.916 -0.1989 -0.9472 -1.8273
  124MOL0     H16681   1.870   7.819   1.949  1.5721 -0.6565 -0.8874
  124MOL0     H16682   1.926   7.732   2.082  1.1208  1.1520  1.6061
  124MOL0     H16683   1.981   7.951   2.192  0.7366 -2.0594 -0.9219
  124MOL0     H16684   1.952   8.040   2.052 -0.2745  0.1643  0.7466
  124MOL0     H16685   1.728   8.069   2.116  0.8210  0.0926 -0.8694
  124MOL0     H16686   1.692   7.911   2.054 -3.7682  0.8228  0.9467
  124MOL0     H16687   1.773   7.964   2.346  1.6934 -2.3767  0.5267
  124MOL0     H16688   1.613   7.924   2.283 -0.5984 -1.2952 -2.8116
  124MOL0     H16689   1.840   7.734   2.275 -0.9019 -0.6385 -1.7335
  124MOL0     H16690   1.665   7.704   2.238 -0.9247  0.4033 -0.1910
  124MOL0     H16691   1.569   7.559   2.458  1.3931 -0.7234 -0.7791
  124MOL0     H16692   1.647   7.411   2.681 -2.5573  1.6774 -1.6150
  124MOL0     H16693   1.684   7.516   2.827  2.0158  1.0044 -1.0546
  124MOL0     H16694   1.423   7.408   2.713 -1.3980  1.2164  2.1680
  124MOL0     H16695   1.427   7.569   2.670 -2.3055  1.4774  2.6956
  124MOL0     H16696   1.303   7.560   2.868 -0.6032 -4.6140 -1.4928
  124MOL0     H16697   1.445   7.632   2.920 -2.0226  0.1864  1.5105
  124MOL0     H16698   1.429   7.477   3.080 -0.5844  5.0377 -0.7713
  124MOL0     H16699   1.534   7.387   2.969 -0.6191  1.6207 -2.1077
  124MOL0     H16700   1.554   7.251   3.133  4.3104 -3.1644  0.1181
  124MOL0     H16701   1.641   6.995   3.332  1.3553  2.4061  1.1511
  124MOL0     H16702   1.736   6.981   3.173 -1.3958  2.2569 -4.6763
  124MOL0     H16703   1.688   7.134   3.250 -2.6672 -0.5196 -0.1740
  124MOL0     H16704   1.242   6.592   3.289 -0.1716 -0.5009  0.5795
  124MOL0     H16705   1.237   6.370   3.372 -5.9273  2.2851 -3.7508
  124MOL0     H16706   1.242   6.121   3.416  3.5847 -0.5902 -0.0309
  124MOL0     H16707   1.153   6.177   3.278 -3.3984 -1.9152  2.2669
  124MOL0     H16708   1.275   5.886   3.290 -2.7503 -3.0325  0.3357
  124MOL0     H16709   1.103   5.937   3.309  0.3482  1.8191  0.5372
  124MOL0     H16710   1.277   6.007   3.062  0.3120  2.4133  3.0522
  124MOL0     H16711   1.104   6.027   3.077  1.2983  0.8460 -3.2899
  124MOL0     H16712   1.247   5.758   3.036  0.7393  0.0773  1.4829
  124MOL0     H16713   1.099   5.756   3.122 -1.7276 -1.6324 -2.7481
  124MOL0     H16714   1.002   5.893   2.925  0.5595 -0.1902 -1.2103
  124MOL0     H16715   1.027   5.716   2.917 -1.3526  0.0460 -2.8751
  124MOL0     H16716   1.244   5.934   2.826 -2.0998  1.8617 -1.1553
  124MOL0     H16717   1.254   5.761   2.805 -1.1704  0.6854 -0.5906
  124MOL0     H16718   1.188   5.944   2.623 -1.3548  1.3134 -0.6272
  124MOL0     H16719   1.031   5.923   2.683 -1.0279 -0.7493  1.5641
  124MOL0     H16720   1.063   5.786   2.483 -1.3098  0.5611  0.6184
  124MOL0     H16721   1.063   5.666   2.619  0.8230  1.0525  1.5561
  124MOL0     H16722   1.542   6.237   3.116  1.6516  1.9977  0.9043
  124MOL0     H16723   1.564   6.487   3.029  1.6756  2.5266  1.3706
  124MOL0     H16724   1.291   6.869   2.979  0.8577 -0.7616 -0.4652
  124MOL0     H16725   1.222   7.073   2.913  0.8720 -2.3043 -0.0325
  124MOL0     H16726   2.420   7.664   1.625 -0.8937  1.0072  0.1469
  124MOL0     H16727   2.489   7.695   1.384 -0.5779  0.1972 -2.4634
  124MOL0     H16728   2.453   8.046   1.026 -1.1075  0.8390 -1.6024
  124MOL0     H16729   2.511   8.102   0.810 -0.2523 -0.5256 -0.2361
  124MOL0     H16730   2.836   7.871   0.621 -0.2181 -0.3999 -0.5305
  124MOL0     H16731   2.825   8.015   0.504  1.6703 -1.0629 -0.9327
  124MOL0     H16732   3.046   8.001   0.545 -0.4726 -1.0671  0.0896
  124MOL0     H16733   3.035   7.940   0.712 -1.9297 -1.4080 -0.0433
  124MOL0     H16734   3.124   8.152   0.759 -0.5331  0.4476  1.5193
  124MOL0     H16735   2.966   8.168   0.775  0.9782 -2.8369  2.5069
  124MOL0     H16736   3.004   8.225   0.491  1.9830  0.2843 -0.8781
  124MOL0     H16737   3.158   8.277   0.557  0.2831  1.6240  1.1653
  124MOL0     H16738   2.865   8.565   0.680  1.2443  0.9338  0.5371
  124MOL0     H16739   2.888   7.894   0.850 -0.2320  1.8514 -0.2309
  124MOL0     H16740   2.839   7.848   1.075  1.3639  1.5009 -0.9646
  125MOL0     O16741   3.785   5.238   0.828  0.5448 -0.0518  0.3724
  125MOL0     C16742   3.868   5.232   0.917 -0.0600 -0.1016 -0.1992
  125MOL0     O16743   3.967   5.327   0.942 -0.2871 -0.4612  0.4028
  125MOL0     C16744   3.999   5.419   0.838  0.1804  0.0462 -0.4439
  125MOL0     C16745   4.045   5.374   0.712 -0.1788 -0.2534  0.1997
  125MOL0     C16746   4.095   5.464   0.616 -0.0480  0.4193  0.5767
  125MOL0     C16747   4.100   5.606   0.642  0.5883 -0.0674 -1.2436
  125MOL0     O16748   4.157   5.687   0.551 -0.5395 -0.1338 -0.3318
  125MOL0     C16749   4.197   5.815   0.587 -0.4255 -0.1213 -0.5418
  125MOL0     C16750   4.298   5.853   0.481  0.5481  0.0946  0.4639
  125MOL0     C16751   4.383   5.969   0.527 -0.4358 -1.0658  0.7568
  125MOL0     C16752   4.368   6.100   0.450 -0.2271 -0.2588  0.3990
  125MOL0     C16753   4.441   6.228   0.506  0.5621  1.0062 -0.3305
  125MOL0     C16754   4.596   6.216   0.495  0.4354 -0.3884 -0.1339
  125MOL0     C16755   4.658   6.324   0.580 -1.0163 -0.6013 -0.2279
  125MOL0     C16756   4.816   6.311   0.590  0.0884  0.5454 -0.3026
  125MOL0     N16757   4.847   6.202   0.678  0.2713 -0.9493  0.6141
  125MOL0     C16758   4.887   6.073   0.647  0.2099  0.2066  0.3641
  125MOL0     C16759   4.917   6.013   0.766  0.3978 -0.2978 -0.7827
  125MOL0     C16760   4.936   5.857   0.785 -0.2384  0.8638 -1.0476
  125MOL0     C16761   5.001   5.807   0.919  0.7328 -0.0456 -0.0809
  125MOL0     C16762   5.146   5.809   0.939  0.2289  0.4756  0.2282
  125MOL0     C16763   5.215   5.941   0.971  0.5013  0.9084  0.7362
  125MOL0     O16764   5.359   5.922   0.966  0.3081  0.2874  0.3802
  125MOL0     C16765   5.433   6.031   0.996 -0.2868  1.0595  0.9365
  125MOL0     C16766   5.573   6.011   0.986  0.7872  0.1624 -0.0791
  125MOL0     C16767   5.655   6.117   0.981 -0.0252  0.1780 -0.4819
  125MOL0     C16768   5.804   6.095   0.953  0.3242  0.2202 -0.9726
  125MOL0     C16769   5.613   6.256   0.997  0.2771 -0.1435  0.0707
  125MOL0     C16770   5.697   6.380   0.983 -0.4520  0.0679  0.0968
  125MOL0     O16771   5.660   6.480   1.069 -0.3709  0.4542  0.0211
  125MOL0     C16772   5.723   6.601   1.068  0.3013  0.3988 -0.8851
  125MOL0     C16773   5.688   6.685   1.175  0.3749  1.5130 -0.1903
  125MOL0     C16774   5.776   6.792   1.203  0.4224  0.5715  1.3067
  125MOL0     C16775   5.877   6.832   1.110 -0.3033 -0.2746 -0.2303
  125MOL0     O16776   5.980   6.919   1.137 -0.0173 -0.4319 -0.3731
  125MOL0     C16777   5.967   6.985   1.261  0.0641 -0.0058 -0.0625
  125MOL0     C16778   6.094   7.059   1.296  0.7605 -0.1249  0.4096
  125MOL0     C16779   6.095   7.195   1.214 -0.1555  0.0446 -0.4382
  125MOL0     C16780   6.234   7.256   1.252  0.9415  0.0609  1.4627
  125MOL0     C16781   6.263   7.396   1.199  0.1542 -0.2694  0.1780
  125MOL0     C16782   6.156   7.500   1.230 -0.7426  0.4543  0.4105
  125MOL0     C16783   6.197   7.641   1.179  0.2663 -0.6543 -0.7056
  125MOL0     C16784   6.193   7.657   1.029  0.1472  0.5242 -1.4540
  125MOL0    Cl16785   6.291   7.805   0.982  0.3291  0.3816  0.1125
  125MOL0     C16786   5.872   6.774   0.982  0.9266 -0.1176  0.1552
  125MOL0     C16787   5.802   6.653   0.965  0.5137  0.3689 -0.1677
  125MOL0     O16788   5.791   6.382   0.903 -0.1906  0.2014 -0.0079
  125MOL0     C16789   5.473   6.274   1.001  0.2008  0.2141 -0.3256
  125MOL0     C16790   5.392   6.161   1.000 -0.0967 -0.1399 -0.0745
  125MOL0     N16791   4.899   6.113   0.863  0.2782  1.0594  0.0274
  125MOL0     N16792   4.847   6.212   0.811  0.0780 -0.5862 -1.1015
  125MOL0     C16793   4.035   5.645   0.769 -0.2329 -0.5567  0.0848
  125MOL0     C16794   3.999   5.554   0.867  0.6359  0.5187  0.0406
  125MOL0     C16795   3.853   5.113   1.003  0.1830 -0.0935  0.1649
  125MOL0     C16796   3.941   5.093   1.117 -0.4200 -0.5072  0.8939
  125MOL0     C16797   3.936   4.980   1.193  0.0696  0.0465 -0.1199
  125MOL0     C16798   3.830   4.882   1.184  0.4899 -1.3896 -0.4934
  125MOL0     O16799   3.810   4.768   1.264  0.4747 -0.0044 -0.0036
  125MOL0     C16800   3.932   4.710   1.308 -0.6618  1.1258  0.7342
  125MOL0     C16801   3.909   4.561   1.310 -0.1067  0.7112 -0.3834
  125MOL0     C16802   3.812   4.547   1.436  0.3101  1.0436 -0.9805
  125MOL0     C16803   3.776   4.402   1.478  0.0681 -1.2870  0.7287
  125MOL0     C16804   3.897   4.319   1.490 -0.4290 -0.5176  0.0612
  125MOL0     C16805   4.008   4.263   1.495 -0.0578 -0.1149 -0.3737
  125MOL0     C16806   3.732   4.915   1.088 -0.3797 -0.8436  0.3913
  125MOL0     C16807   3.747   5.023   1.003  0.5298 -0.7218  0.4163
  125MOL0     H16808   4.056   5.271   0.680  3.2456  0.3268 -0.9486
  125MOL0     H16809   4.131   5.420   0.524 -3.1400  0.5063 -0.8042
  125MOL0     H16810   4.115   5.884   0.610 -1.7043 -1.6907 -0.2011
  125MOL0     H16811   4.262   5.815   0.676 -0.4812  3.6343 -0.3372
  125MOL0     H16812   4.353   5.764   0.450 -3.6420 -2.7712  0.4883
  125MOL0     H16813   4.241   5.875   0.390 -0.4965 -4.8594 -0.3801
  125MOL0     H16814   4.374   5.988   0.634 -2.5579  0.8162  0.3141
  125MOL0     H16815   4.489   5.946   0.510 -0.3548  0.8757 -1.9407
  125MOL0     H16816   4.420   6.080   0.356 -0.7233 -0.6042  0.1952
  125MOL0     H16817   4.261   6.116   0.430  0.1972  1.4740 -0.7393
  125MOL0     H16818   4.406   6.310   0.442  1.0095  0.4270 -1.3522
  125MOL0     H16819   4.415   6.246   0.610  3.8857 -0.9065  0.9769
  125MOL0     H16820   4.627   6.115   0.522  2.0635  0.2577  0.5618
  125MOL0     H16821   4.623   6.230   0.389  1.2035  1.3898  0.2518
  125MOL0     H16822   4.659   6.423   0.532  2.4750 -0.5374 -0.2422
  125MOL0     H16823   4.611   6.335   0.678 -0.1712 -1.0266  0.2340
  125MOL0     H16824   4.857   6.408   0.621  0.8121  0.0923  0.1909
  125MOL0     H16825   4.860   6.289   0.492  0.4640  3.9448 -1.0207
  125MOL0     H16826   4.874   6.014   0.556  0.0167  2.0441 -0.8618
  125MOL0     H16827   4.831   5.826   0.786 -0.7325  2.3328 -2.4457
  125MOL0     H16828   4.978   5.799   0.703  0.3864 -0.5480  0.2204
  125MOL0     H16829   4.969   5.702   0.926 -0.5862  0.2933 -0.6411
  125MOL0     H16830   4.945   5.870   0.988  0.0476 -0.7435  0.0189
  125MOL0     H16831   5.178   5.773   0.841 -1.6683  1.5923 -0.8798
  125MOL0     H16832   5.181   5.747   1.021  2.1559  0.2373 -0.7237
  125MOL0     H16833   5.184   5.990   1.064  1.4659 -0.1121  1.6260
  125MOL0     H16834   5.183   5.996   0.882  0.5990 -0.5758 -0.2545
  125MOL0     H16835   5.609   5.910   0.969 -1.0432 -0.6347  0.5088
  125MOL0     H16836   5.836   5.992   0.968  0.6466  0.5774  1.1263
  125MOL0     H16837   5.834   6.132   0.854  0.3619  1.4111 -0.5361
  125MOL0     H16838   5.859   6.146   1.033 -0.3366 -0.2703 -0.1946
  125MOL0     H16839   5.617   6.645   1.247  1.4835  0.7156  0.4897
  125MOL0     H16840   5.757   6.844   1.296  0.6411  0.3240  1.4915
  125MOL0     H16841   5.884   7.057   1.258  0.2584  0.2511  0.5861
  125MOL0     H16842   5.949   6.914   1.343 -0.8413  1.6829  1.2686
  125MOL0     H16843   6.082   7.089   1.400 -1.2226  1.2477 -0.1560
  125MOL0     H16844   6.187   7.002   1.287 -0.5540 -2.9140  2.9341
  125MOL0     H16845   6.013   7.254   1.258  0.1952  0.5253 -0.4195
  125MOL0     H16846   6.084   7.188   1.106  3.3866  0.5139 -0.9358
  125MOL0     H16847   6.240   7.248   1.361  0.0696 -0.0410  1.5134
  125MOL0     H16848   6.315   7.194   1.213 -0.6533 -0.8600 -0.5541
  125MOL0     H16849   6.268   7.391   1.090  1.4435  1.8474  0.0701
  125MOL0     H16850   6.358   7.437   1.237 -0.7262  3.3263 -1.0626
  125MOL0     H16851   6.064   7.463   1.183 -0.8218 -2.3919  2.5754
  125MOL0     H16852   6.131   7.512   1.336  0.5625 -0.2602  0.8264
  125MOL0     H16853   6.295   7.665   1.221 -1.5565 -1.2241  4.6837
  125MOL0     H16854   6.130   7.720   1.213 -2.1099 -2.8288  0.0457
  125MOL0     H16855   6.091   7.669   0.991 -0.3291  0.2192 -0.3013
  125MOL0     H16856   6.230   7.567   0.980  1.2988  0.5703 -0.7043
  125MOL0     H16857   5.929   6.814   0.899 -0.9669 -1.1138 -1.7291
  125MOL0     H16858   5.823   6.612   0.867 -1.2559  0.8929 -0.8129
  125MOL0     H16859   5.435   6.375   1.010  3.4807  1.3896  2.1984
  125MOL0     H16860   5.288   6.184   0.979 -0.1633  0.0766  0.4987
  125MOL0     H16861   4.010   5.746   0.800  1.8848 -0.2051  0.7376
  125MOL0     H16862   3.969   5.587   0.966  1.3374 -1.7494  1.0567
  125MOL0     H16863   4.020   5.167   1.125 -0.9949  0.0479  1.5815
  125MOL0     H16864   4.007   4.962   1.273  0.4162  0.7828 -0.2627
  125MOL0     H16865   4.019   4.734   1.247  1.5047  1.1283  3.6314
  125MOL0     H16866   3.949   4.751   1.408  0.8318  0.4942  0.7620
  125MOL0     H16867   3.999   4.500   1.324  1.1260  2.1487 -1.8229
  125MOL0     H16868   3.854   4.543   1.218 -3.1680  2.1038  1.0049
  125MOL0     H16869   3.716   4.593   1.412 -1.9853 -0.9790  3.1971
  125MOL0     H16870   3.858   4.595   1.523  1.3205  1.0579 -1.5103
  125MOL0     H16871   3.708   4.362   1.402 -1.6617  0.1217  1.4483
  125MOL0     H16872   3.723   4.404   1.574  1.5045  2.5354  1.6383
  125MOL0     H16873   4.106   4.219   1.501  0.2423  0.6349  0.4907
  125MOL0     H16874   3.646   4.848   1.084  1.4445 -3.3262 -2.8632
  125MOL0     H16875   3.665   5.040   0.933 -0.2780  2.5654  1.9783
  126MOL0     O16876   0.797   3.675  11.175  0.0882  0.0152  0.2843
  126MOL0     C16877   0.858   3.574  11.207  0.0675 -0.2631  0.6304
  126MOL0     O16878   0.844   3.496  11.318 -0.1274 -0.5945 -0.5726
  126MOL0     C16879   0.732   3.474  11.397  0.1801  1.2340  0.3139
  126MOL0     C16880   0.757   3.451  11.534 -0.5784  1.0182 -0.1606
  126MOL0     C16881   0.653   3.440  11.627 -0.3789  0.2079  0.6161
  126MOL0     C16882   0.525   3.455  11.588  0.2814 -0.3850  0.1190
  126MOL0     O16883   0.417   3.456  11.671  0.0818  0.2871  0.5509
  126MOL0     C16884   0.417   3.347  11.765 -0.0321 -0.5573  0.3511
  126MOL0     C16885   0.293   3.349  11.858 -0.2198  0.4028  0.5398
  126MOL0     C16886   0.255   3.484  11.922  0.0250 -0.5714 -0.0042
  126MOL0     C16887   0.337   3.506  12.041 -0.5123 -0.2349 -0.2159
  126MOL0     C16888   0.369   3.653  12.075 -1.2283 -0.2534  0.1383
  126MOL0     C16889   0.477   3.715  11.993  0.1167  0.1499  0.3742
  126MOL0     C16890   0.610   3.640  11.994  0.3552  0.1942 -0.0639
  126MOL0     C16891   0.725   3.743  11.968 -0.2121 -0.9709  0.0433
  126MOL0     N16892   0.752   3.728  11.820 -0.2530  0.5644 -0.0343
  126MOL0     C16893   0.682   3.789  11.718  0.0857 -0.5923  0.6013
  126MOL0     C16894   0.768   3.780  11.611  0.5904 -0.6724 -0.8740
  126MOL0     C16895   0.740   3.856  11.484 -0.7092  0.1143  0.1489
  126MOL0     C16896   0.812   3.991  11.488 -0.0684 -0.3008  0.0745
  126MOL0     C16897   0.776   4.086  11.376  0.0956 -0.3255  1.0411
  126MOL0     C16898   0.859   4.209  11.409 -0.2111 -0.3290 -0.1190
  126MOL0     O16899   0.822   4.321  11.324 -0.2991  0.0921 -0.7361
  126MOL0     C16900   0.701   4.380  11.354 -0.3100 -0.4888 -0.3483
  126MOL0     C16901   0.678   4.457  11.470  0.8576 -0.3828 -0.2985
  126MOL0     C16902   0.547   4.505  11.502  0.1276  0.5311  0.4626
  126MOL0     C16903   0.523   4.592  11.631 -0.0367  0.6615 -1.1786
  126MOL0     C16904   0.438   4.467  11.422 -0.7000  0.2930 -1.3581
  126MOL0     C16905   0.298   4.511  11.454 -1.0005  0.2854 -0.3148
  126MOL0     O16906   0.197   4.427  11.433 -0.3640  0.1870  0.1855
  126MOL0     C16907   0.072   4.478  11.455  0.6038 -0.1433  0.0470
  126MOL0     C16908  -0.001   4.560  11.362 -0.7681 -0.4722  0.5880
  126MOL0     C16909  -0.119   4.620  11.403 -0.3427 -1.3130  0.0729
  126MOL0     C16910  -0.173   4.594  11.530  1.5034  0.0370  0.4315
  126MOL0     O16911  -0.299   4.638  11.559 -0.0463  0.0443  0.0955
  126MOL0     C16912  -0.384   4.568  11.654 -1.2091  0.0686 -0.0285
  126MOL0     C16913  -0.522   4.622  11.657  0.3240 -0.8669 -0.7534
  126MOL0     C16914  -0.578   4.519  11.758 -0.2242 -0.7917 -0.3549
  126MOL0     C16915  -0.726   4.536  11.769 -0.8325  0.2709  0.6492
  126MOL0     C16916  -0.775   4.684  11.750 -0.7068  0.0696  0.6204
  126MOL0     C16917  -0.921   4.711  11.804 -0.5724  1.0497 -0.0726
  126MOL0     C16918  -1.019   4.608  11.745 -0.4694  0.4241 -0.3479
  126MOL0     C16919  -1.157   4.663  11.765  0.4926 -0.6952  0.1948
  126MOL0    Cl16920  -1.280   4.545  11.722 -0.2806  0.3950  0.0623
  126MOL0     C16921  -0.108   4.501  11.609  0.5017  0.1784 -0.1590
  126MOL0     C16922   0.013   4.453  11.579 -0.5896 -0.6114 -0.1262
  126MOL0     O16923   0.277   4.630  11.474  0.1362 -0.2943 -0.4495
  126MOL0     C16924   0.465   4.388  11.308  0.0065  0.1990 -0.2184
  126MOL0     C16925   0.594   4.365  11.272 -1.0511 -0.4547  0.3339
  126MOL0     N16926   0.885   3.736  11.655 -0.8283  0.2303  0.6335
  126MOL0     N16927   0.872   3.688  11.778 -0.2126 -0.9887 -0.0210
  126MOL0     C16928   0.498   3.479  11.452 -0.3151 -0.0675  1.1382
  126MOL0     C16929   0.601   3.491  11.359 -0.0609 -0.7484  0.4419
  126MOL0     C16930   0.996   3.559  11.141  0.4572  0.8490 -0.3364
  126MOL0     C16931   1.039   3.641  11.037  0.1315  0.6653  0.1595
  126MOL0     C16932   1.164   3.619  10.970  0.0945  0.1664  0.4255
  126MOL0     C16933   1.253   3.520  11.003 -0.7526 -0.5350  0.7283
  126MOL0     O16934   1.382   3.509  10.943  0.5629  0.3417  0.3331
  126MOL0     C16935   1.472   3.617  10.947 -1.6868  0.0473 -0.7883
  126MOL0     C16936   1.606   3.587  11.023  0.9049  0.0229 -0.5196
  126MOL0     C16937   1.686   3.718  11.056  0.1361  0.5101 -0.9212
  126MOL0     C16938   1.632   3.806  11.163  0.0117  0.4638  0.6311
  126MOL0     C16939   1.618   3.733  11.286  0.1315 -0.3112 -0.2340
  126MOL0     C16940   1.610   3.647  11.376  0.5627  0.3660 -0.5920
  126MOL0     C16941   1.205   3.436  11.106  0.9500 -0.3916 -0.3241
  126MOL0     C16942   1.080   3.457  11.179 -0.1376 -0.2834  0.0679
  126MOL0     H16943   0.859   3.463  11.570 -0.4826  0.2374 -0.1665
  126MOL0     H16944   0.679   3.410  11.728 -0.5054 -0.7885  0.3583
  126MOL0     H16945   0.417   3.252  11.712 -2.7589 -0.3842 -0.0991
  126MOL0     H16946   0.501   3.366  11.832  0.7606  2.5437 -1.3115
  126MOL0     H16947   0.209   3.324  11.792 -0.2932  2.1547 -0.0841
  126MOL0     H16948   0.296   3.272  11.936 -2.4354  1.8105  2.1618
  126MOL0     H16949   0.262   3.566  11.850  1.3357 -0.5180  0.1546
  126MOL0     H16950   0.152   3.481  11.958  0.2580  2.3427  1.1902
  126MOL0     H16951   0.289   3.441  12.114  0.9419 -3.5806 -2.0114
  126MOL0     H16952   0.433   3.453  12.036 -0.4962 -0.1761 -0.5845
  126MOL0     H16953   0.274   3.706  12.066 -3.6160 -3.6043  3.0717
  126MOL0     H16954   0.393   3.662  12.181 -1.3028 -0.3887  0.1673
  126MOL0     H16955   0.444   3.716  11.889  1.7745  3.4879 -0.2385
  126MOL0     H16956   0.494   3.816  12.029  1.1719 -0.8729  3.0144
  126MOL0     H16957   0.620   3.602  12.096 -0.4758 -1.2745 -0.5065
  126MOL0     H16958   0.611   3.565  11.915  0.1840  2.5817 -2.4867
  126MOL0     H16959   0.821   3.733  12.021 -0.7596  1.7081  1.7743
  126MOL0     H16960   0.691   3.847  11.971  0.7761 -0.5501 -1.6822
  126MOL0     H16961   0.582   3.833  11.723 -0.2315 -1.4321  2.2307
  126MOL0     H16962   0.783   3.790  11.408 -3.2063 -2.7416  0.9937
  126MOL0     H16963   0.633   3.855  11.461 -0.4076 -1.1371 -1.4458
  126MOL0     H16964   0.916   3.959  11.479  0.1641  0.6483 -0.8659
  126MOL0     H16965   0.787   4.037  11.584  1.4790 -0.2210  0.4776
  126MOL0     H16966   0.669   4.110  11.379  0.3663  0.8415  3.0189
  126MOL0     H16967   0.790   4.051  11.273 -1.1513  2.2721 -0.1021
  126MOL0     H16968   0.967   4.203  11.394 -0.2746  0.8913 -1.2225
  126MOL0     H16969   0.851   4.243  11.513  0.7866 -2.1873  0.6200
  126MOL0     H16970   0.767   4.486  11.526 -0.1656 -0.8406  1.6176
  126MOL0     H16971   0.546   4.694  11.601  0.7836  0.2834 -1.8608
  126MOL0     H16972   0.421   4.576  11.669  0.3696 -4.0878 -1.4675
  126MOL0     H16973   0.595   4.550  11.702  1.8322 -0.7679 -3.7918
  126MOL0     H16974   0.046   4.583  11.266 -0.8185  1.0997  0.9089
  126MOL0     H16975  -0.173   4.691  11.341 -2.5751 -0.9309  2.3070
  126MOL0     H16976  -0.368   4.463  11.627  1.1988  0.3665  0.0250
  126MOL0     H16977  -0.338   4.566  11.753  0.5808 -2.6740 -0.8266
  126MOL0     H16978  -0.531   4.727  11.688 -1.3291 -1.6648  1.7970
  126MOL0     H16979  -0.572   4.605  11.561 -1.1485 -1.1196  0.0274
  126MOL0     H16980  -0.530   4.528  11.856  1.0129  1.1114 -1.0665
  126MOL0     H16981  -0.558   4.416  11.728  0.3825 -1.0795  0.9636
  126MOL0     H16982  -0.767   4.479  11.684 -0.4135  0.9752 -0.0379
  126MOL0     H16983  -0.760   4.496  11.865  2.8885  0.1010  2.0475
  126MOL0     H16984  -0.777   4.713  11.644 -5.1719  0.5039  0.6390
  126MOL0     H16985  -0.712   4.744  11.816 -0.5479 -1.4203  1.8785
  126MOL0     H16986  -0.927   4.693  11.912 -0.8124 -2.5302 -0.5647
  126MOL0     H16987  -0.958   4.812  11.782  0.7294  1.9147  1.5382
  126MOL0     H16988  -1.007   4.518  11.805 -0.1141  0.2787 -0.6355
  126MOL0     H16989  -1.012   4.591  11.637  0.4628 -0.5123 -0.1536
  126MOL0     H16990  -1.173   4.755  11.709 -1.7073 -0.9656  0.3154
  126MOL0     H16991  -1.160   4.688  11.872  0.0785  1.5464 -0.2962
  126MOL0     H16992  -0.168   4.470  11.693  0.6776  1.9805  0.6923
  126MOL0     H16993   0.064   4.400  11.659 -1.8446 -1.7616 -0.0396
  126MOL0     H16994   0.387   4.370  11.235  1.2952 -0.7190 -1.4206
  126MOL0     H16995   0.604   4.321  11.174 -0.9890 -2.2525  1.1019
  126MOL0     H16996   0.401   3.519  11.423  2.1119  4.2507 -2.3438
  126MOL0     H16997   0.563   3.504  11.259 -1.2822 -0.7059  0.8998
  126MOL0     H16998   0.980   3.726  11.005  0.5789  0.1074 -2.3690
  126MOL0     H16999   1.195   3.697  10.901 -1.2250  0.7656  0.4805
  126MOL0     H17000   1.504   3.641  10.845  2.1300 -1.6631 -0.1721
  126MOL0     H17001   1.416   3.705  10.980 -0.2574  0.2892  1.1777
  126MOL0     H17002   1.671   3.522  10.962  0.5924  0.6953 -1.6004
  126MOL0     H17003   1.581   3.538  11.117  0.5312  3.0040  1.0521
  126MOL0     H17004   1.704   3.776  10.965 -0.6990 -1.7942 -2.6802
  126MOL0     H17005   1.790   3.688  11.076 -1.0185 -2.8579  0.8082
  126MOL0     H17006   1.535   3.847  11.134 -0.3473 -0.1012  0.9949
  126MOL0     H17007   1.711   3.880  11.173 -0.3734  0.9903 -0.1276
  126MOL0     H17008   1.604   3.554  11.429 -0.2021 -0.1297 -1.5046
  126MOL0     H17009   1.260   3.343  11.124 -0.1092 -1.0199 -0.2772
  126MOL0     H17010   1.066   3.403  11.272  2.1881 -2.6358 -0.8243
  127MOL0     O17011  10.942   4.749   1.785  0.0013 -0.2406  0.3204
  127MOL0     C17012  10.886   4.819   1.874 -0.9086  0.1893  0.4219
  127MOL0     O17013  10.949   4.921   1.950 -0.6941 -0.1185  0.6591
  127MOL0     C17014  11.059   4.975   1.897 -0.6181  0.2467  1.2418
  127MOL0     C17015  11.056   5.036   1.768 -0.1461 -0.3507 -0.0315
  127MOL0     C17016  11.173   5.091   1.709 -0.7987  0.1113 -0.0801
  127MOL0     C17017  11.294   5.093   1.782  0.8046  0.1255 -0.9580
  127MOL0     O17018  11.402   5.150   1.730  0.0130  0.1580  0.7123
  127MOL0     C17019  11.393   5.295   1.729 -0.8462  1.0480  0.4373
  127MOL0     C17020  11.529   5.364   1.693  0.8580  0.6838  0.4299
  127MOL0     C17021  11.652   5.306   1.745 -0.8996  0.5586 -0.8356
  127MOL0     C17022  11.781   5.397   1.735  0.5955  0.4098 -0.1805
  127MOL0     C17023  11.880   5.364   1.844 -0.5675  0.2923 -0.8743
  127MOL0     C17024  11.857   5.438   1.974 -0.0917 -0.5976 -1.1806
  127MOL0     C17025  11.963   5.419   2.084 -0.1167 -0.1902 -0.4833
  127MOL0     C17026  12.108   5.465   2.037 -0.8265 -0.4442  0.2655
  127MOL0     N17027  12.131   5.611   2.014 -0.4267  0.1285  0.1614
  127MOL0     C17028  12.127   5.668   1.888  0.0571 -0.5669 -0.6953
  127MOL0     C17029  12.130   5.803   1.907 -0.3532  0.8813 -0.5730
  127MOL0     C17030  12.122   5.909   1.799 -0.1845  0.0686  0.4240
  127MOL0     C17031  12.235   6.017   1.798 -0.0736  0.2583 -0.0623
  127MOL0     C17032  12.366   5.973   1.724 -0.3759 -0.3985  0.9892
  127MOL0     C17033  12.494   6.065   1.743 -0.2960 -0.1730  0.4862
  127MOL0     O17034  12.526   6.103   1.880  0.0928  0.4424 -0.2957
  127MOL0     C17035  12.499   6.234   1.910 -0.3585 -0.0753 -0.2197
  127MOL0     C17036  12.570   6.336   1.845 -0.1048  0.1070  0.1547
  127MOL0     C17037  12.543   6.470   1.873 -0.1560 -0.4802  1.2317
  127MOL0     C17038  12.635   6.573   1.814  0.3943 -0.4110  0.3821
  127MOL0     C17039  12.452   6.498   1.972 -0.8099  0.1115  0.1636
  127MOL0     C17040  12.417   6.638   2.021  0.0286  0.7866 -0.1178
  127MOL0     O17041  12.351   6.653   2.140 -0.5695 -0.3597 -0.1419
  127MOL0     C17042  12.333   6.768   2.209  0.2787 -0.2097  0.2086
  127MOL0     C17043  12.444   6.815   2.281 -0.3140  0.9244  0.1071
  127MOL0     C17044  12.439   6.937   2.344 -0.1586  1.3005  0.4481
  127MOL0     C17045  12.319   7.013   2.334 -0.0380 -0.3011 -0.1250
  127MOL0     O17046  12.319   7.135   2.406  0.2740 -0.3228 -0.4387
  127MOL0     C17047  12.196   7.215   2.416 -0.4775 -0.3838 -0.3505
  127MOL0     C17048  12.234   7.349   2.469  0.0435  0.2810  0.0207
  127MOL0     C17049  12.145   7.452   2.413 -0.2382  0.6847  0.0958
  127MOL0     C17050  12.178   7.593   2.465  0.2943 -0.0715 -0.8931
  127MOL0     C17051  12.132   7.617   2.616 -1.0265 -0.3094  0.4945
  127MOL0     C17052  12.163   7.768   2.655  0.3178  0.7160 -0.3082
  127MOL0     C17053  12.296   7.798   2.714  0.1693 -0.1130 -0.4466
  127MOL0     C17054  12.295   7.941   2.777 -0.4119 -0.0026 -0.0850
  127MOL0    Cl17055  12.287   8.053   2.626 -0.2171  0.0605  0.0885
  127MOL0     C17056  12.207   6.974   2.269 -0.0005 -0.4059  0.4720
  127MOL0     C17057  12.218   6.852   2.196 -0.3091  0.1857 -0.2075
  127MOL0     O17058  12.445   6.733   1.947  0.1160 -0.6078 -0.1797
  127MOL0     C17059  12.383   6.401   2.046 -0.0702  0.1747  0.6675
  127MOL0     C17060  12.412   6.272   2.011 -0.2256 -0.2624 -0.1623
  127MOL0     N17061  12.145   5.817   2.046  0.6552  0.2816 -0.4921
  127MOL0     N17062  12.141   5.708   2.115 -0.2620 -0.2242  0.2572
  127MOL0     C17063  11.305   5.041   1.903  0.5677  0.2619 -0.3687
  127MOL0     C17064  11.190   4.986   1.962  0.2157  0.1224  0.4924
  127MOL0     C17065  10.758   4.766   1.922 -0.6289  0.3367 -0.9039
  127MOL0     C17066  10.685   4.824   2.023 -0.6721 -0.1217 -1.1067
  127MOL0     C17067  10.570   4.771   2.081 -0.5945  0.4490 -0.3098
  127MOL0     C17068  10.516   4.651   2.034 -0.0107  0.5085  0.1113
  127MOL0     O17069  10.407   4.603   2.092  0.5062  0.0370 -0.1470
  127MOL0     C17070  10.340   4.489   2.030 -0.4530 -0.2868 -0.2845
  127MOL0     C17071  10.194   4.460   2.094  0.2180  0.1604  0.3381
  127MOL0     C17072  10.217   4.375   2.227  0.1716 -0.1643 -0.2719
  127MOL0     C17073  10.089   4.317   2.262  0.6037 -0.1767  0.3857
  127MOL0     C17074  10.110   4.259   2.392  0.4345 -0.2834  0.0959
  127MOL0     C17075  10.132   4.201   2.498  0.4056 -0.1931  0.7499
  127MOL0     C17076  10.585   4.588   1.931 -0.2472  0.1292  0.4106
  127MOL0     C17077  10.704   4.642   1.885  0.0998 -0.3458  0.2205
  127MOL0     H17078  10.964   5.025   1.711 -0.6233 -2.2509  1.0040
  127MOL0     H17079  11.157   5.143   1.615 -2.2001  0.5982  0.4155
  127MOL0     H17080  11.309   5.323   1.665  0.5660  0.8633 -1.6111
  127MOL0     H17081  11.370   5.326   1.832 -0.3102  3.9997 -0.2348
  127MOL0     H17082  11.538   5.370   1.584  0.2898 -2.6740  0.1092
  127MOL0     H17083  11.536   5.469   1.725  1.8312  0.6868  0.2378
  127MOL0     H17084  11.638   5.278   1.850 -0.5488  2.3300 -0.2816
  127MOL0     H17085  11.689   5.219   1.690  1.3083  0.7066  0.2695
  127MOL0     H17086  11.830   5.386   1.638  1.6634 -0.8041  0.4640
  127MOL0     H17087  11.736   5.497   1.737 -1.5564 -0.4902 -0.9837
  127MOL0     H17088  11.886   5.256   1.862  2.3668  0.7101  1.4672
  127MOL0     H17089  11.982   5.390   1.813 -0.6287  0.8801 -0.5897
  127MOL0     H17090  11.856   5.546   1.957 -1.9912 -0.3351  0.2022
  127MOL0     H17091  11.760   5.409   2.016 -0.5594  3.6056  1.2302
  127MOL0     H17092  11.934   5.464   2.180  2.4311 -1.5669  1.0527
  127MOL0     H17093  11.975   5.311   2.097 -0.5961 -0.3713 -1.4661
  127MOL0     H17094  12.144   5.401   1.956  1.6247 -0.8730  1.5674
  127MOL0     H17095  12.171   5.434   2.122  2.7766 -1.8389 -2.6235
  127MOL0     H17096  12.117   5.621   1.791 -1.3738 -0.3492 -0.6753
  127MOL0     H17097  12.101   5.870   1.699 -0.5649  0.2916  0.4136
  127MOL0     H17098  12.032   5.966   1.824 -1.5015 -0.4396 -2.6832
  127MOL0     H17099  12.262   6.030   1.903  4.9093  2.2154 -1.3043
  127MOL0     H17100  12.199   6.112   1.756 -0.0743 -0.1294 -0.9705
  127MOL0     H17101  12.351   5.940   1.621  0.8175 -0.0032  0.6782
  127MOL0     H17102  12.397   5.881   1.773 -2.4487 -2.0069 -0.5376
  127MOL0     H17103  12.474   6.153   1.681 -1.1171 -0.2697  0.5985
  127MOL0     H17104  12.580   6.015   1.698  1.6295  0.3087  3.3748
  127MOL0     H17105  12.642   6.298   1.774  0.1822 -2.2859  1.6434
  127MOL0     H17106  12.587   6.643   1.746 -0.2290  2.2399  3.2999
  127MOL0     H17107  12.692   6.630   1.888 -1.2788  0.5785  0.9665
  127MOL0     H17108  12.708   6.525   1.749 -0.1635  2.0883 -2.2614
  127MOL0     H17109  12.531   6.753   2.302 -2.2663 -2.3561 -0.9406
  127MOL0     H17110  12.517   6.973   2.411  1.0680 -0.2661 -0.0589
  127MOL0     H17111  12.164   7.215   2.311  0.7400 -2.7022 -0.7835
  127MOL0     H17112  12.127   7.161   2.482 -1.9796 -0.0592 -1.5998
  127MOL0     H17113  12.227   7.347   2.578  2.0802 -0.1512  0.1737
  127MOL0     H17114  12.339   7.365   2.443 -0.7317 -0.4384 -4.3501
  127MOL0     H17115  12.039   7.430   2.429 -0.3530  1.1249 -0.0588
  127MOL0     H17116  12.157   7.451   2.304  0.3292 -1.2551  0.1396
  127MOL0     H17117  12.286   7.613   2.463  0.3381  0.6389  2.5626
  127MOL0     H17118  12.123   7.665   2.403  0.2865  0.4939 -0.2405
  127MOL0     H17119  12.170   7.554   2.696  2.5095 -0.0436 -0.8072
  127MOL0     H17120  12.022   7.614   2.622 -1.0565  1.0885  1.0179
  127MOL0     H17121  12.143   7.847   2.581  1.7592  2.5635  1.1728
  127MOL0     H17122  12.090   7.779   2.735  1.2119  3.6522  0.2395
  127MOL0     H17123  12.371   7.790   2.635  0.2215  1.0074 -0.5241
  127MOL0     H17124  12.319   7.727   2.795 -2.0046  1.5855  1.8091
  127MOL0     H17125  12.389   7.952   2.832 -0.7507 -0.9940  0.7309
  127MOL0     H17126  12.216   7.947   2.852  1.6746 -1.2518  2.3745
  127MOL0     H17127  12.108   7.017   2.277  0.0853 -0.2873  0.8923
  127MOL0     H17128  12.140   6.812   2.132 -2.3029  2.6289  0.5057
  127MOL0     H17129  12.301   6.412   2.117  0.1196  0.7899  0.7979
  127MOL0     H17130  12.375   6.186   2.066  0.8951 -1.4949 -1.2553
  127MOL0     H17131  11.398   5.034   1.959  0.2513  3.7845  0.8743
  127MOL0     H17132  11.198   4.958   2.067  1.7034  4.7445  1.8785
  127MOL0     H17133  10.727   4.917   2.059  0.6164 -0.9881 -0.2484
  127MOL0     H17134  10.522   4.818   2.166  2.5452 -0.4379  2.1224
  127MOL0     H17135  10.331   4.526   1.927  3.3720  1.0977 -0.3098
  127MOL0     H17136  10.407   4.405   2.049 -3.1856 -2.2790  1.1349
  127MOL0     H17137  10.138   4.403   2.019  0.3616 -2.9736  2.4140
  127MOL0     H17138  10.146   4.554   2.123  0.0552  0.3917 -0.6687
  127MOL0     H17139  10.240   4.453   2.301  3.2073 -1.2179  0.0531
  127MOL0     H17140  10.283   4.288   2.221  0.2026 -0.0623 -1.6652
  127MOL0     H17141  10.056   4.237   2.195  0.5699  2.2030 -2.6183
  127MOL0     H17142  10.006   4.388   2.263 -0.1135 -0.9865  0.1559
  127MOL0     H17143  10.146   4.154   2.593  2.1085  0.2743  0.7799
  127MOL0     H17144  10.553   4.493   1.889 -2.9868  0.8268  0.6900
  127MOL0     H17145  10.752   4.594   1.800 -1.2534  1.6244 -1.7467
  128MOL0     O17146   2.583   3.130   3.868  0.6422 -0.4705 -0.3121
  128MOL0     C17147   2.683   3.093   3.919 -0.0951 -0.1197 -0.4938
  128MOL0     O17148   2.801   3.154   3.910  0.2264 -0.3543  0.3728
  128MOL0     C17149   2.820   3.240   3.804 -0.4183 -0.8981  0.3894
  128MOL0     C17150   2.760   3.242   3.677  0.3369 -0.1274 -0.9591
  128MOL0     C17151   2.798   3.336   3.585  0.9117 -0.3966 -0.0348
  128MOL0     C17152   2.895   3.437   3.607 -0.4007  0.0785  0.1982
  128MOL0     O17153   2.947   3.530   3.516 -0.1386  0.1760 -0.3986
  128MOL0     C17154   2.966   3.468   3.376  0.2520  0.0337 -0.8869
  128MOL0     C17155   3.014   3.577   3.291  0.8748 -0.5795 -0.1672
  128MOL0     C17156   3.084   3.522   3.158  0.0557  1.1143  0.1783
  128MOL0     C17157   3.146   3.643   3.097 -0.6263 -0.6566 -0.8124
  128MOL0     C17158   3.253   3.602   2.991 -0.6874  0.2773  0.5619
  128MOL0     C17159   3.248   3.682   2.857  0.5517 -0.0991  0.1330
  128MOL0     C17160   3.322   3.812   2.883 -0.3470 -0.1864  0.2964
  128MOL0     C17161   3.234   3.922   2.839 -0.3374  0.4750 -0.0814
  128MOL0     N17162   3.291   4.050   2.882 -0.1374  0.4232 -0.1030
  128MOL0     C17163   3.256   4.124   2.997  1.4092  0.9967 -0.3370
  128MOL0     C17164   3.322   4.241   2.991  0.1371 -0.1009  0.1817
  128MOL0     C17165   3.328   4.358   3.077 -1.0425 -0.1303  0.3448
  128MOL0     C17166   3.470   4.415   3.118 -0.1033  1.4398  0.1755
  128MOL0     C17167   3.562   4.319   3.192 -0.4569 -1.0708 -1.1585
  128MOL0     C17168   3.657   4.231   3.104 -0.1169 -0.0447 -0.8367
  128MOL0     O17169   3.749   4.151   3.175  0.0486 -0.2557 -0.0030
  128MOL0     C17170   3.710   4.058   3.266  0.4743  0.1858 -0.3867
  128MOL0     C17171   3.585   3.994   3.264 -0.3489 -0.3915  0.9700
  128MOL0     C17172   3.556   3.890   3.349  0.1461  0.9553 -0.0526
  128MOL0     C17173   3.410   3.852   3.348  0.7947  0.1536 -0.0783
  128MOL0     C17174   3.649   3.843   3.444 -1.0449  0.0380 -0.2129
  128MOL0     C17175   3.627   3.734   3.553 -0.4866 -0.7028  0.0535
  128MOL0     O17176   3.506   3.668   3.557  0.2545 -0.0843  0.0206
  128MOL0     C17177   3.475   3.565   3.636 -0.2695  1.3205  0.0255
  128MOL0     C17178   3.519   3.549   3.764 -0.1565  0.5522  0.1080
  128MOL0     C17179   3.460   3.451   3.841 -0.3065 -1.6260 -0.0162
  128MOL0     C17180   3.349   3.380   3.802  0.2737  0.4333  0.2524
  128MOL0     O17181   3.282   3.309   3.886 -1.1061 -0.0705 -0.1721
  128MOL0     C17182   3.294   3.168   3.871  0.0736  0.5139 -0.2090
  128MOL0     C17183   3.157   3.100   3.877  0.2145  0.0410 -0.1773
  128MOL0     C17184   3.168   2.941   3.885 -0.0473  0.4078  0.7131
  128MOL0     C17185   3.037   2.871   3.823 -0.5502  0.2809  0.2251
  128MOL0     C17186   3.011   2.741   3.902 -0.6978 -0.1077  0.3420
  128MOL0     C17187   2.874   2.690   3.868 -0.2428  0.0214 -1.0906
  128MOL0     C17188   2.865   2.544   3.921 -0.5594  1.1217 -0.5805
  128MOL0     C17189   2.727   2.486   3.910 -0.1076 -0.0582  0.0021
  128MOL0    Cl17190   2.721   2.309   3.915  0.0411  0.0747  0.0594
  128MOL0     C17191   3.290   3.407   3.674  0.8468 -0.5002  0.1156
  128MOL0     C17192   3.357   3.498   3.598  0.2720 -0.6115 -1.1597
  128MOL0     O17193   3.734   3.708   3.615 -0.3207  0.3449 -0.4425
  128MOL0     C17194   3.778   3.903   3.443  0.4307  1.2398  0.8537
  128MOL0     C17195   3.806   4.012   3.351  1.6833  0.0679  0.1460
  128MOL0     N17196   3.395   4.243   2.876  0.0423  0.3882  0.3424
  128MOL0     N17197   3.379   4.131   2.803 -0.6902  0.8268 -0.0248
  128MOL0     C17198   2.954   3.442   3.735 -0.1819  0.6216  0.3059
  128MOL0     C17199   2.918   3.336   3.831 -0.0185 -0.3569 -0.2591
  128MOL0     C17200   2.693   2.978   4.007  0.7844 -1.2589  0.3194
  128MOL0     C17201   2.805   2.963   4.089  0.9156  0.3662  0.7313
  128MOL0     C17202   2.810   2.857   4.179  0.3434  0.4189  0.3616
  128MOL0     C17203   2.712   2.755   4.186 -0.8904  0.6122  0.2591
  128MOL0     O17204   2.739   2.666   4.283  0.2280 -0.4142  0.8406
  128MOL0     C17205   2.643   2.583   4.336  0.1439 -0.7524  0.8832
  128MOL0     C17206   2.624   2.452   4.255 -0.6148  0.1417  0.7403
  128MOL0     C17207   2.758   2.377   4.243 -0.3375  0.0588  0.5887
  128MOL0     C17208   2.738   2.225   4.221  0.2304 -0.5190 -0.3951
  128MOL0     C17209   2.856   2.170   4.144  0.8694 -0.1864 -0.3294
  128MOL0     C17210   2.943   2.120   4.077  0.5576  0.4310 -0.2481
  128MOL0     C17211   2.600   2.764   4.101 -1.0511  0.3802  0.0989
  128MOL0     C17212   2.595   2.883   4.014 -0.2879  0.1611  0.0572
  128MOL0     H17213   2.679   3.172   3.657  0.6450 -1.1697  1.1296
  128MOL0     H17214   2.748   3.344   3.489 -1.0634  1.8929  1.0725
  128MOL0     H17215   3.056   3.407   3.385  0.2568  0.3093  1.9850
  128MOL0     H17216   2.877   3.418   3.338  0.8426 -2.1269  0.4157
  128MOL0     H17217   2.925   3.635   3.267  0.7188 -0.6803  0.1536
  128MOL0     H17218   3.089   3.634   3.348  2.0216 -2.1842  0.0207
  128MOL0     H17219   3.155   3.444   3.188 -1.5589  0.2252  1.9598
  128MOL0     H17220   3.008   3.490   3.085  1.4484 -2.3312  0.0545
  128MOL0     H17221   3.075   3.716   3.056  1.0169  3.0072  2.2939
  128MOL0     H17222   3.197   3.692   3.181 -1.9004  3.7832 -2.3522
  128MOL0     H17223   3.349   3.606   3.044 -1.6811 -3.0293  2.9680
  128MOL0     H17224   3.231   3.497   2.966  0.4710 -0.5592  2.7533
  128MOL0     H17225   3.297   3.614   2.786  0.8078  0.3295 -0.1028
  128MOL0     H17226   3.140   3.701   2.846  0.9147  1.5804 -0.8073
  128MOL0     H17227   3.341   3.824   2.990 -0.4837  0.5576  0.2473
  128MOL0     H17228   3.411   3.817   2.820 -0.0844  0.6843  0.7246
  128MOL0     H17229   3.136   3.916   2.887  0.2539 -0.2673  1.0741
  128MOL0     H17230   3.227   3.912   2.730  1.8834 -4.7109 -0.0440
  128MOL0     H17231   3.176   4.089   3.061  0.1151 -0.8598 -2.7649
  128MOL0     H17232   3.263   4.435   3.035  0.7934  0.7152 -1.1126
  128MOL0     H17233   3.279   4.328   3.170  0.1787 -0.1149  1.0175
  128MOL0     H17234   3.447   4.497   3.186 -0.8692  2.3228 -1.0990
  128MOL0     H17235   3.528   4.453   3.033  1.6692 -2.1305 -0.3663
  128MOL0     H17236   3.500   4.257   3.256  0.4932 -0.1715  0.7254
  128MOL0     H17237   3.621   4.386   3.256 -1.5997 -1.6708  0.5911
  128MOL0     H17238   3.707   4.310   3.047  0.9570  3.2991  4.0718
  128MOL0     H17239   3.609   4.162   3.035 -2.2359 -0.3527  0.8366
  128MOL0     H17240   3.523   4.035   3.186 -0.0420 -1.4424  0.1384
  128MOL0     H17241   3.401   3.745   3.325  2.2483 -0.4070  1.7068
  128MOL0     H17242   3.379   3.861   3.453 -2.0194 -1.6460 -0.6296
  128MOL0     H17243   3.351   3.893   3.265 -1.9317 -4.3743 -0.7705
  128MOL0     H17244   3.611   3.594   3.802  0.4195 -2.4270  2.6094
  128MOL0     H17245   3.502   3.427   3.938 -1.1535  1.6712  1.3024
  128MOL0     H17246   3.332   3.145   3.771 -0.3196  3.0435 -1.0217
  128MOL0     H17247   3.370   3.135   3.942 -0.8149 -2.1070 -0.3768
  128MOL0     H17248   3.101   3.131   3.966  0.6344  0.3278 -0.0100
  128MOL0     H17249   3.101   3.135   3.790  0.7023 -1.1147 -0.9735
  128MOL0     H17250   3.184   2.911   3.989  0.3880  0.6425  0.7196
  128MOL0     H17251   3.255   2.909   3.827 -1.9240 -2.1680 -0.8855
  128MOL0     H17252   2.956   2.940   3.846 -1.3940 -1.0561  1.4143
  128MOL0     H17253   3.049   2.849   3.717 -1.7416  2.0262 -0.3255
  128MOL0     H17254   3.018   2.758   4.010 -1.6330 -1.3158  0.6105
  128MOL0     H17255   3.083   2.672   3.856  2.1717  3.6007 -1.3121
  128MOL0     H17256   2.801   2.760   3.910  1.2389  0.0872  1.5833
  128MOL0     H17257   2.861   2.684   3.760 -0.7995 -1.3555 -0.9697
  128MOL0     H17258   2.896   2.558   4.025  0.7705  0.5102 -0.8620
  128MOL0     H17259   2.934   2.480   3.864 -2.6937 -2.4140  0.4951
  128MOL0     H17260   2.682   2.516   3.815  0.2195  6.5593  1.4270
  128MOL0     H17261   2.672   2.542   3.987  0.7113 -0.1519  0.6668
  128MOL0     H17262   3.190   3.371   3.652  0.6776 -1.5462  2.2831
  128MOL0     H17263   3.312   3.531   3.505  0.1581  1.4680 -0.4305
  128MOL0     H17264   3.859   3.859   3.501 -1.0142 -1.2921  1.1068
  128MOL0     H17265   3.907   4.050   3.339  2.4658 -2.2065 -1.0859
  128MOL0     H17266   3.021   3.515   3.778 -1.6606  1.3005  1.5501
  128MOL0     H17267   2.964   3.330   3.929 -1.4442 -0.3559  0.4359
  128MOL0     H17268   2.871   3.044   4.115  2.9003 -1.1909  0.7664
  128MOL0     H17269   2.899   2.845   4.241  0.8823  0.1123 -0.4507
  128MOL0     H17270   2.672   2.558   4.439  4.5990 -0.9731 -0.2325
  128MOL0     H17271   2.550   2.641   4.341  1.6903  1.8867  0.7871
  128MOL0     H17272   2.579   2.461   4.155  0.4623  1.6827  0.3630
  128MOL0     H17273   2.555   2.383   4.305 -0.9525  0.1826  0.3439
  128MOL0     H17274   2.816   2.382   4.336  1.3148  1.2850 -0.4635
  128MOL0     H17275   2.821   2.412   4.161 -2.5992 -1.5696 -2.0162
  128MOL0     H17276   2.643   2.201   4.173  0.3230 -2.6652  0.3768
  128MOL0     H17277   2.744   2.178   4.320  0.7184  0.1766 -0.0896
  128MOL0     H17278   3.028   2.085   4.021 -0.9917  0.1937 -2.5824
  128MOL0     H17279   2.518   2.693   4.108  0.0231 -0.8389  0.6380
  128MOL0     H17280   2.519   2.890   3.938  0.9470  0.9734 -1.1459
  129MOL0     O17281   6.559   7.477   2.225 -0.4847 -0.2578  0.4570
  129MOL0     C17282   6.504   7.589   2.211  0.1562  0.2358 -1.3113
  129MOL0     O17283   6.365   7.608   2.186 -0.3354 -0.4836  0.3459
  129MOL0     C17284   6.267   7.526   2.228 -0.5742 -0.4610 -0.8847
  129MOL0     C17285   6.147   7.580   2.261  0.0930  0.0218  1.0908
  129MOL0     C17286   6.046   7.515   2.331  0.4581 -1.4586 -0.3764
  129MOL0     C17287   6.053   7.378   2.338  0.0092  0.1809 -0.1292
  129MOL0     O17288   5.943   7.321   2.397  0.2403 -0.6270 -0.3599
  129MOL0     C17289   5.952   7.237   2.518  1.1004  0.3581  1.2745
  129MOL0     C17290   5.867   7.112   2.490  0.3908  0.6932  0.2807
  129MOL0     C17291   5.873   7.014   2.607 -0.1225 -0.8562 -0.5027
  129MOL0     C17292   5.736   6.940   2.603  0.2097 -0.0432 -0.7022
  129MOL0     C17293   5.752   6.803   2.664  0.0046  0.2910 -0.7680
  129MOL0     C17294   5.617   6.741   2.687  0.1391 -0.1139  0.3155
  129MOL0     C17295   5.619   6.605   2.758 -0.6042  0.3066 -0.2710
  129MOL0     C17296   5.670   6.488   2.678  0.0769 -0.0720  0.0335
  129MOL0     N17297   5.783   6.415   2.759 -0.1219 -0.4387 -0.4219
  129MOL0     C17298   5.910   6.459   2.777  0.4005 -0.3369 -0.3769
  129MOL0     C17299   5.969   6.374   2.862 -0.1936  0.3017  0.0812
  129MOL0     C17300   6.111   6.369   2.902  0.2372 -0.0198  0.5896
  129MOL0     C17301   6.134   6.466   3.019 -0.4192 -0.0834  0.4308
  129MOL0     C17302   6.246   6.425   3.115 -1.1188 -0.3329  0.0860
  129MOL0     C17303   6.378   6.384   3.042  0.0222 -0.9032  0.0203
  129MOL0     O17304   6.408   6.482   2.937 -0.1127  0.6622  0.3468
  129MOL0     C17305   6.503   6.569   2.959 -0.8298 -0.8098 -0.3237
  129MOL0     C17306   6.532   6.620   3.091  0.0445  0.7548 -0.4149
  129MOL0     C17307   6.613   6.735   3.109 -0.8823  0.8593 -0.4300
  129MOL0     C17308   6.642   6.769   3.257 -0.2080 -0.6459  0.7849
  129MOL0     C17309   6.666   6.803   2.993  0.8341  0.5010  0.3303
  129MOL0     C17310   6.749   6.918   2.994 -0.7946 -0.7297  0.1455
  129MOL0     O17311   6.851   6.921   2.902 -0.5008  0.0118 -0.2313
  129MOL0     C17312   6.934   7.031   2.887  0.6152 -0.9092  0.2691
  129MOL0     C17313   6.885   7.157   2.850 -0.1230 -0.5584 -0.8998
  129MOL0     C17314   6.976   7.270   2.849 -0.0952  0.0869  0.6756
  129MOL0     C17315   7.102   7.250   2.892 -0.7418  0.9508 -0.0086
  129MOL0     O17316   7.191   7.352   2.885 -0.0190  0.6871  0.1477
  129MOL0     C17317   7.156   7.471   2.952  0.8267  0.0725  0.9542
  129MOL0     C17318   7.269   7.573   2.934  0.7920 -0.0618  0.5707
  129MOL0     C17319   7.396   7.529   3.008  0.3044  0.9924  0.7876
  129MOL0     C17320   7.364   7.515   3.158  0.0706  0.2779  0.1133
  129MOL0     C17321   7.488   7.531   3.250  0.0155  0.1676 -0.2607
  129MOL0     C17322   7.451   7.526   3.401  0.3642  0.0557  0.2959
  129MOL0     C17323   7.450   7.377   3.445  0.2007 -0.3889  0.7360
  129MOL0     C17324   7.377   7.343   3.586  0.6299 -0.0105  0.4671
  129MOL0    Cl17325   7.374   7.168   3.605  0.1912  0.2441 -0.5314
  129MOL0     C17326   7.154   7.127   2.933 -0.3505 -0.1858 -0.6652
  129MOL0     C17327   7.066   7.025   2.929 -0.0945  0.6367 -0.5281
  129MOL0     O17328   6.730   7.007   3.073  0.2161  0.6485 -0.1402
  129MOL0     C17329   6.632   6.756   2.865 -0.1696 -0.2072 -0.0183
  129MOL0     C17330   6.548   6.640   2.848 -0.9975 -0.0634  0.0836
  129MOL0     N17331   5.869   6.286   2.916 -0.2049 -0.4028 -0.1301
  129MOL0     N17332   5.762   6.310   2.844  1.2016  0.7215  0.2340
  129MOL0     C17333   6.170   7.313   2.290  0.0257 -0.0216 -0.3078
  129MOL0     C17334   6.276   7.388   2.251 -0.7771 -1.5427 -0.1716
  129MOL0     C17335   6.585   7.701   2.233  0.1256 -0.2688  0.4528
  129MOL0     C17336   6.569   7.821   2.158 -1.0554 -1.4577 -0.3473
  129MOL0     C17337   6.667   7.924   2.165 -0.0126 -0.3303 -0.3187
  129MOL0     C17338   6.770   7.918   2.265  0.1771 -0.5328  0.4191
  129MOL0     O17339   6.843   8.031   2.300  0.0627 -0.0761  0.1459
  129MOL0     C17340   6.899   8.031   2.435 -0.4979  0.1683 -0.3993
  129MOL0     C17341   6.939   8.172   2.467 -1.1809  1.0274  0.5248
  129MOL0     C17342   6.829   8.271   2.497  0.1669  0.1654 -0.4604
  129MOL0     C17343   6.781   8.338   2.376 -0.9546  0.6431  0.2229
  129MOL0     C17344   6.679   8.436   2.405 -0.1788 -0.6428  0.2889
  129MOL0     C17345   6.608   8.530   2.398  0.0642  0.0769 -0.7553
  129MOL0     C17346   6.786   7.797   2.334  0.3766 -0.8050  0.0428
  129MOL0     C17347   6.699   7.690   2.315 -0.2929  0.4907  0.9029
  129MOL0     H17348   6.152   7.686   2.238  0.6985  0.0928  1.5383
  129MOL0     H17349   5.972   7.580   2.377 -2.9187 -5.0104 -0.2032
  129MOL0     H17350   6.053   7.208   2.550 -0.2376 -1.2087  4.5952
  129MOL0     H17351   5.900   7.294   2.596 -0.7069 -0.2550  0.5655
  129MOL0     H17352   5.765   7.143   2.463 -0.0661 -1.3092 -0.5198
  129MOL0     H17353   5.894   7.060   2.397 -2.4230 -0.4050 -0.0457
  129MOL0     H17354   5.962   6.952   2.594  0.4709 -0.8123  2.5360
  129MOL0     H17355   5.900   7.059   2.703  0.6498 -1.5852 -0.3669
  129MOL0     H17356   5.653   7.000   2.641 -1.1437 -2.7448  0.9084
  129MOL0     H17357   5.717   6.929   2.496  1.0423  2.7807 -1.2255
  129MOL0     H17358   5.813   6.755   2.586  4.4420  0.9682  1.9113
  129MOL0     H17359   5.792   6.813   2.765 -2.6252 -0.8327  0.4731
  129MOL0     H17360   5.570   6.819   2.747  0.6872  0.7726 -0.3817
  129MOL0     H17361   5.545   6.731   2.605 -1.8073  1.6082  1.7188
  129MOL0     H17362   5.677   6.623   2.849 -1.3154  0.7161  0.1148
  129MOL0     H17363   5.520   6.584   2.799 -0.4533  0.2685  0.0747
  129MOL0     H17364   5.706   6.535   2.585 -0.1302 -1.1505 -0.5995
  129MOL0     H17365   5.600   6.407   2.657  0.6845 -0.8543  0.9655
  129MOL0     H17366   5.967   6.537   2.726  0.6833 -0.3262 -0.0459
  129MOL0     H17367   6.129   6.268   2.942 -0.6121  0.3004  1.8288
  129MOL0     H17368   6.179   6.385   2.818 -1.7042 -0.6802 -1.1842
  129MOL0     H17369   6.041   6.474   3.076 -1.3298  0.2418 -1.0197
  129MOL0     H17370   6.176   6.556   2.973  1.5450 -0.2726  1.7776
  129MOL0     H17371   6.212   6.345   3.181 -4.1889  1.9260  1.5055
  129MOL0     H17372   6.265   6.513   3.177 -1.4161  0.2754 -0.6677
  129MOL0     H17373   6.358   6.295   2.981 -1.6273 -0.2653 -0.4294
  129MOL0     H17374   6.444   6.364   3.126 -0.5041  0.2347  0.7336
  129MOL0     H17375   6.494   6.587   3.187  2.0280 -0.1164  0.1117
  129MOL0     H17376   6.591   6.709   3.333 -1.0287 -0.2245  0.5801
  129MOL0     H17377   6.751   6.764   3.267 -0.1302  1.8905  2.1243
  129MOL0     H17378   6.605   6.872   3.266 -0.3876 -0.7035  0.7194
  129MOL0     H17379   6.785   7.162   2.807 -0.6955  2.9323  0.5171
  129MOL0     H17380   6.928   7.365   2.825  2.8322  1.6528  0.6006
  129MOL0     H17381   7.064   7.512   2.908  1.2301 -1.4772 -1.4945
  129MOL0     H17382   7.131   7.453   3.057  0.6567 -0.8149  0.7738
  129MOL0     H17383   7.302   7.575   2.830  1.1219  1.4203  0.6795
  129MOL0     H17384   7.238   7.669   2.978 -1.3179 -1.0256  1.3264
  129MOL0     H17385   7.477   7.598   2.984  2.2510 -1.5851 -0.5107
  129MOL0     H17386   7.424   7.429   2.973 -0.8199  0.7279  0.6045
  129MOL0     H17387   7.287   7.592   3.175 -0.5596  0.4471 -2.8907
  129MOL0     H17388   7.310   7.423   3.182  2.5409 -0.8843  1.5522
  129MOL0     H17389   7.529   7.630   3.229 -0.7164  0.7139  0.7954
  129MOL0     H17390   7.571   7.471   3.211  0.4364  0.9100 -0.5223
  129MOL0     H17391   7.522   7.594   3.448  0.3888  1.3500 -1.4942
  129MOL0     H17392   7.354   7.573   3.416 -1.0947 -2.2257 -1.3123
  129MOL0     H17393   7.552   7.342   3.463  0.4243 -0.4890 -0.6578
  129MOL0     H17394   7.402   7.318   3.366 -0.1663  2.6068 -1.4466
  129MOL0     H17395   7.281   7.394   3.592  1.5769  2.0788 -0.8354
  129MOL0     H17396   7.437   7.383   3.669  1.4993  0.9011 -0.5664
  129MOL0     H17397   7.257   7.117   2.967 -0.2588 -0.9762 -1.1547
  129MOL0     H17398   7.112   6.930   2.953 -0.3047 -1.2153 -6.0628
  129MOL0     H17399   6.684   6.792   2.777  4.2460 -2.7921  1.2334
  129MOL0     H17400   6.524   6.615   2.745  1.7381  0.6142 -0.7934
  129MOL0     H17401   6.178   7.204   2.295  4.4449  0.0846 -1.3081
  129MOL0     H17402   6.366   7.337   2.219 -0.4312 -0.8771 -0.2734
  129MOL0     H17403   6.502   7.826   2.072 -0.8861 -4.6128 -0.7863
  129MOL0     H17404   6.670   8.007   2.095 -2.5427  1.0610  1.0919
  129MOL0     H17405   6.830   8.000   2.514  0.7556 -0.7158  0.3854
  129MOL0     H17406   6.985   7.964   2.439  0.3534  1.2385 -0.2754
  129MOL0     H17407   7.017   8.198   2.395 -0.4316 -2.2110  0.0419
  129MOL0     H17408   6.998   8.155   2.558  2.1867  1.4293 -1.3968
  129MOL0     H17409   6.862   8.336   2.579  3.3171 -0.9049 -0.7122
  129MOL0     H17410   6.746   8.207   2.527  0.5511 -2.0865 -3.6752
  129MOL0     H17411   6.745   8.263   2.305 -1.9054  2.3100 -1.1223
  129MOL0     H17412   6.863   8.395   2.331 -2.4535  1.5230 -1.5040
  129MOL0     H17413   6.559   8.625   2.396  0.3615  0.3388  1.6569
  129MOL0     H17414   6.865   7.788   2.409  1.3056  0.7569 -0.7036
  129MOL0     H17415   6.714   7.590   2.354  0.3882  0.0833 -0.3300
  130MOL0     O17416   0.439   2.368   8.416 -0.5617 -0.4794 -0.0646
  130MOL0     C17417   0.404   2.277   8.342  0.0040  0.3355 -0.3124
  130MOL0     O17418   0.407   2.284   8.203 -0.5336  0.5082 -0.6334
  130MOL0     C17419   0.417   2.403   8.141 -0.2079  0.3957 -0.9275
  130MOL0     C17420   0.527   2.411   8.053 -0.7437  0.0657  0.5974
  130MOL0     C17421   0.544   2.529   7.980 -0.7244  0.4696 -0.4978
  130MOL0     C17422   0.462   2.643   8.009 -0.0082  0.4678 -0.0421
  130MOL0     O17423   0.488   2.770   7.954 -0.6863  0.4008 -0.8276
  130MOL0     C17424   0.619   2.828   7.976  0.8585  0.5655 -0.1208
  130MOL0     C17425   0.644   2.930   7.858  0.2277  1.1108 -1.0108
  130MOL0     C17426   0.638   2.860   7.718 -0.5073  0.6635 -0.2660
  130MOL0     C17427   0.769   2.797   7.689  0.2355  0.4301 -0.0202
  130MOL0     C17428   0.760   2.746   7.535  0.2388  0.6811 -1.3397
  130MOL0     C17429   0.892   2.692   7.499  0.1099 -0.4431  0.2141
  130MOL0     C17430   0.910   2.673   7.350  0.3212 -0.1858 -1.1725
  130MOL0     C17431   0.854   2.529   7.319  0.1537  0.0165 -0.4014
  130MOL0     N17432   0.810   2.521   7.172 -0.1023  0.5642 -0.4144
  130MOL0     C17433   0.878   2.485   7.057  0.5817 -0.0029 -0.7414
  130MOL0     C17434   0.776   2.472   6.964  0.1491 -0.2452  0.4125
  130MOL0     C17435   0.808   2.424   6.824 -0.0905  0.3228  0.3070
  130MOL0     C17436   0.839   2.534   6.716 -0.0298 -0.1099  0.5892
  130MOL0     C17437   0.759   2.667   6.723  0.6496 -0.0404 -0.5882
  130MOL0     C17438   0.722   2.723   6.585  0.7194 -0.5561  0.1854
  130MOL0     O17439   0.575   2.752   6.586  0.0991  0.2528 -0.1699
  130MOL0     C17440   0.495   2.640   6.561 -0.6063 -0.1449 -0.1115
  130MOL0     C17441   0.532   2.519   6.523 -0.3965  0.2022 -0.4882
  130MOL0     C17442   0.441   2.419   6.493  1.1126  0.4434  0.1470
  130MOL0     C17443   0.490   2.291   6.449 -0.5001  0.4693 -0.6275
  130MOL0     C17444   0.304   2.450   6.492  0.3841  0.2883 -0.4011
  130MOL0     C17445   0.198   2.356   6.446  1.0595 -1.4608  0.0550
  130MOL0     O17446   0.070   2.386   6.493  0.6556 -0.4195  0.3519
  130MOL0     C17447  -0.019   2.280   6.479  0.2231  0.5499 -0.1495
  130MOL0     C17448  -0.140   2.290   6.411  0.1031  0.0682  0.0652
  130MOL0     C17449  -0.236   2.183   6.400 -0.1140 -0.8199  0.1517
  130MOL0     C17450  -0.221   2.065   6.465  0.7924  0.0939 -0.3439
  130MOL0     O17451  -0.319   1.966   6.483 -0.3392  0.1346 -0.1752
  130MOL0     C17452  -0.454   1.989   6.439 -0.4127 -0.1403  0.0530
  130MOL0     C17453  -0.548   1.870   6.441  1.3858  0.1323  0.0331
  130MOL0     C17454  -0.544   1.792   6.567  0.3057  0.1443 -0.8672
  130MOL0     C17455  -0.616   1.661   6.562  0.7573 -0.0507  0.6480
  130MOL0     C17456  -0.660   1.624   6.710 -0.4533  0.0033  0.3161
  130MOL0     C17457  -0.722   1.483   6.709  0.3144  0.4157  0.3212
  130MOL0     C17458  -0.788   1.471   6.848 -0.1815 -0.2439  0.9771
  130MOL0     C17459  -0.860   1.342   6.856 -0.0600 -0.0778 -0.5602
  130MOL0    Cl17460  -1.012   1.346   6.779  0.2817 -0.8494 -0.0008
  130MOL0     C17461  -0.105   2.053   6.530  0.4612  0.2500 -0.1159
  130MOL0     C17462  -0.008   2.152   6.535 -0.7400 -0.9429  1.0462
  130MOL0     O17463   0.223   2.279   6.358  0.1752 -0.4310  0.0076
  130MOL0     C17464   0.266   2.574   6.541 -0.3399 -0.0321  0.1315
  130MOL0     C17465   0.364   2.664   6.568  0.1252 -0.7084  0.3021
  130MOL0     N17466   0.659   2.509   7.018 -0.4966  0.5208  0.0040
  130MOL0     N17467   0.685   2.549   7.141 -0.4175  0.5637  0.1902
  130MOL0     C17468   0.355   2.632   8.088 -0.2247 -0.4060  0.4564
  130MOL0     C17469   0.329   2.510   8.151 -0.0771  0.5093 -0.0131
  130MOL0     C17470   0.395   2.143   8.405 -0.0546 -0.5436  0.4652
  130MOL0     C17471   0.361   2.032   8.318  0.4226  0.0963 -0.0502
  130MOL0     C17472   0.364   1.899   8.349  0.1249 -0.3696  0.2164
  130MOL0     C17473   0.400   1.869   8.483  0.7763 -0.4841  0.4627
  130MOL0     O17474   0.430   1.734   8.519 -0.0243  0.1831  0.0649
  130MOL0     C17475   0.521   1.660   8.446  0.3201  0.0662  0.5656
  130MOL0     C17476   0.623   1.592   8.527 -0.1737  0.3483 -0.2059
  130MOL0     C17477   0.710   1.684   8.602  0.1401  0.7072  0.2198
  130MOL0     C17478   0.775   1.803   8.524 -0.2666 -0.0897  0.5130
  130MOL0     C17479   0.859   1.750   8.419 -0.6901  0.1108  1.0741
  130MOL0     C17480   0.925   1.704   8.332 -0.3305 -0.1464 -0.6768
  130MOL0     C17481   0.432   1.974   8.571  0.1326  0.1686  0.0691
  130MOL0     C17482   0.417   2.113   8.539 -0.7506 -0.6644  0.3414
  130MOL0     H17483   0.595   2.331   8.028 -1.4003  0.8663 -4.9828
  130MOL0     H17484   0.619   2.522   7.902 -0.5995  1.2703 -0.4553
  130MOL0     H17485   0.619   2.895   8.063 -0.4232  5.2075 -3.3301
  130MOL0     H17486   0.693   2.748   7.970 -1.2998 -1.4568 -4.6770
  130MOL0     H17487   0.576   3.015   7.852 -1.9296 -0.5652 -1.2097
  130MOL0     H17488   0.741   2.980   7.871  0.2849  0.9739 -0.9026
  130MOL0     H17489   0.558   2.786   7.717  0.5124 -0.4932 -2.2030
  130MOL0     H17490   0.612   2.932   7.640 -0.7114 -2.8179 -3.7242
  130MOL0     H17491   0.852   2.867   7.704  1.3843 -1.0754  0.8482
  130MOL0     H17492   0.787   2.716   7.759 -0.2371 -0.2860 -0.7063
  130MOL0     H17493   0.676   2.680   7.511  0.0523  0.9851 -1.5393
  130MOL0     H17494   0.740   2.840   7.483 -0.9841  1.9777  1.3356
  130MOL0     H17495   0.974   2.760   7.524 -0.4216  0.3525 -0.1663
  130MOL0     H17496   0.910   2.593   7.543 -0.6051  0.0265  1.6027
  130MOL0     H17497   0.857   2.747   7.289 -1.3199 -0.4403 -0.1424
  130MOL0     H17498   1.015   2.673   7.322  0.3625 -3.8637 -1.5263
  130MOL0     H17499   0.766   2.511   7.381  0.0551  1.4348 -0.0842
  130MOL0     H17500   0.934   2.457   7.339 -2.2574 -2.8351 -0.3716
  130MOL0     H17501   0.985   2.469   7.052  1.3433  3.7018  0.4834
  130MOL0     H17502   0.878   2.341   6.816  0.9070  1.2135 -0.4466
  130MOL0     H17503   0.712   2.383   6.790 -0.2095  1.8232 -1.3205
  130MOL0     H17504   0.811   2.482   6.624  4.1143 -1.1928 -0.2865
  130MOL0     H17505   0.945   2.552   6.693 -0.6246  0.7960 -1.7950
  130MOL0     H17506   0.811   2.748   6.775 -2.2580  1.8981 -0.4691
  130MOL0     H17507   0.667   2.658   6.781  0.6721  0.3162 -0.4951
  130MOL0     H17508   0.755   2.663   6.500  3.8245  0.3100  0.6593
  130MOL0     H17509   0.788   2.810   6.583 -2.2811  1.9022  1.1177
  130MOL0     H17510   0.635   2.487   6.533 -0.5218 -0.0802 -0.0975
  130MOL0     H17511   0.452   2.208   6.509  0.6126  1.1423  1.0790
  130MOL0     H17512   0.458   2.278   6.345 -2.6285 -0.2688  0.0585
  130MOL0     H17513   0.599   2.293   6.439 -0.5522  3.3626 -1.7975
  130MOL0     H17514  -0.174   2.384   6.370  1.2877  0.6638  0.4109
  130MOL0     H17515  -0.331   2.203   6.352 -0.4174  3.5779  2.0844
  130MOL0     H17516  -0.496   2.064   6.507 -0.3866 -1.1361  1.2235
  130MOL0     H17517  -0.456   2.023   6.336 -1.8274 -1.7755 -0.4984
  130MOL0     H17518  -0.651   1.901   6.422  0.0226 -2.9075  1.7033
  130MOL0     H17519  -0.520   1.804   6.358  3.6751  0.1732  0.6826
  130MOL0     H17520  -0.587   1.865   6.636 -1.8262  0.5905 -2.5371
  130MOL0     H17521  -0.437   1.774   6.579 -0.0797 -1.9499 -0.2220
  130MOL0     H17522  -0.707   1.674   6.503 -2.2102 -1.2395  4.5243
  130MOL0     H17523  -0.563   1.582   6.509 -0.2720  1.8830 -3.6794
  130MOL0     H17524  -0.730   1.701   6.742  2.8399  2.2871  2.7061
  130MOL0     H17525  -0.569   1.626   6.770  1.8592 -3.9626 -2.5275
  130MOL0     H17526  -0.800   1.476   6.632  1.7351 -1.7994 -1.0345
  130MOL0     H17527  -0.646   1.409   6.682  0.3191  0.2962  0.6493
  130MOL0     H17528  -0.853   1.559   6.847  1.1550  0.7779 -0.2092
  130MOL0     H17529  -0.713   1.487   6.926 -0.8566 -0.4134  1.6739
  130MOL0     H17530  -0.868   1.320   6.962  0.6064 -1.3913 -0.7604
  130MOL0     H17531  -0.800   1.256   6.827 -0.1249 -0.1431 -0.4978
  130MOL0     H17532  -0.085   1.969   6.595  0.1226  0.6421  0.5041
  130MOL0     H17533   0.083   2.126   6.589  0.3674  0.1491 -0.2310
  130MOL0     H17534   0.159   2.591   6.537 -0.8694 -2.4003  1.9567
  130MOL0     H17535   0.340   2.768   6.588 -0.6536 -0.2674 -2.4718
  130MOL0     H17536   0.301   2.724   8.107 -1.2020 -0.3645 -2.0878
  130MOL0     H17537   0.246   2.506   8.221 -2.4614  1.2444 -2.6139
  130MOL0     H17538   0.336   2.047   8.214 -2.2075 -3.1648 -0.0284
  130MOL0     H17539   0.349   1.819   8.278 -1.9247 -2.6796  3.0171
  130MOL0     H17540   0.465   1.590   8.384 -1.6366  0.0149  2.2724
  130MOL0     H17541   0.569   1.731   8.378 -1.4507 -1.3019 -2.2821
  130MOL0     H17542   0.672   1.518   8.462 -0.9619 -0.7147  0.3721
  130MOL0     H17543   0.561   1.541   8.601 -0.0929  1.9958  1.0490
  130MOL0     H17544   0.795   1.620   8.629  0.8665  1.7821  0.5899
  130MOL0     H17545   0.665   1.715   8.697  1.6945  0.3446  1.1145
  130MOL0     H17546   0.841   1.872   8.578  0.7069  1.0234 -1.9489
  130MOL0     H17547   0.693   1.868   8.493 -1.1646 -2.3004 -2.1717
  130MOL0     H17548   0.968   1.636   8.260  3.1908  0.4973  0.5775
  130MOL0     H17549   0.469   1.954   8.671 -0.8434  3.2132  1.1641
  130MOL0     H17550   0.447   2.194   8.604  4.4747 -2.2348  0.3819
  131MOL0     O17551   4.136   7.249  11.208 -0.5287 -0.1586  0.3187
  131MOL0     C17552   4.097   7.347  11.272  0.1500 -0.4822 -1.4004
  131MOL0     O17553   4.150   7.472  11.264  0.0363 -1.0966  0.2283
  131MOL0     C17554   4.282   7.489  11.214  0.2971  0.0823  1.1557
  131MOL0     C17555   4.302   7.497  11.073  0.1564 -0.4709  0.5651
  131MOL0     C17556   4.435   7.501  11.013 -0.2760 -0.6982  0.6406
  131MOL0     C17557   4.541   7.519  11.102  0.6845  0.9050  0.4516
  131MOL0     O17558   4.667   7.511  11.064 -0.5326  0.1732 -0.2106
  131MOL0     C17559   4.758   7.625  11.084  0.6167  0.1122 -0.2271
  131MOL0     C17560   4.893   7.584  11.035  1.2307  0.1615 -0.4440
  131MOL0     C17561   4.952   7.462  11.102  0.1626  0.4147  0.0015
  131MOL0     C17562   5.080   7.413  11.022  0.4651 -0.0786  0.1395
  131MOL0     C17563   5.144   7.283  11.075 -0.5214 -0.0764 -0.0809
  131MOL0     C17564   5.291   7.281  11.016 -1.0874  0.6395  0.4533
  131MOL0     C17565   5.392   7.197  11.099 -0.8450 -1.6416  0.2375
  131MOL0     C17566   5.400   7.056  11.074 -0.3109  0.0242  0.2581
  131MOL0     N17567   5.270   6.990  11.048  0.1773  0.7661  0.5604
  131MOL0     C17568   5.176   6.963  11.143  0.4974 -0.8581  0.5157
  131MOL0     C17569   5.090   6.874  11.087 -0.5588  0.0446  0.4496
  131MOL0     C17570   5.004   6.798  11.184  0.8107  0.9017 -0.2069
  131MOL0     C17571   4.872   6.768  11.108  0.3006  1.4262  0.4073
  131MOL0     C17572   4.776   6.660  11.187  0.1404  0.6084  0.1600
  131MOL0     C17573   4.812   6.515  11.186  0.1652  0.4993  0.6309
  131MOL0     O17574   4.720   6.443  11.264  0.0214  0.5632 -0.4065
  131MOL0     C17575   4.671   6.320  11.216 -0.5174 -0.3553  0.9998
  131MOL0     C17576   4.542   6.297  11.209  0.7004  0.5833  0.1446
  131MOL0     C17577   4.489   6.180  11.147  0.4814  0.0607 -0.3442
  131MOL0     C17578   4.333   6.173  11.138 -0.6712 -0.4090 -0.9080
  131MOL0     C17579   4.569   6.091  11.083  0.1339 -0.1681  0.0057
  131MOL0     C17580   4.521   5.967  11.014  1.2318 -0.1016 -0.2889
  131MOL0     O17581   4.595   5.861  11.034 -0.1918 -1.0533  0.3319
  131MOL0     C17582   4.521   5.748  11.061  0.7573 -0.0183  0.4042
  131MOL0     C17583   4.569   5.629  10.998  1.0611  0.2792  0.3619
  131MOL0     C17584   4.499   5.510  11.017 -0.3159  0.1917  0.0833
  131MOL0     C17585   4.382   5.505  11.093  0.4092  0.3497  0.3713
  131MOL0     O17586   4.325   5.378  11.105 -0.5472 -0.0525 -0.2885
  131MOL0     C17587   4.180   5.354  11.139  0.8036 -0.2109  0.7020
  131MOL0     C17588   4.090   5.411  11.018  0.5840 -0.9349 -0.4199
  131MOL0     C17589   3.944   5.433  11.056  0.1170  0.2511  0.1606
  131MOL0     C17590   3.863   5.492  10.952  0.5233 -0.3713  0.9750
  131MOL0     C17591   3.823   5.400  10.832  0.3767  0.7367 -0.5922
  131MOL0     C17592   3.776   5.255  10.877 -0.5804 -0.0132 -0.2427
  131MOL0     C17593   3.651   5.270  10.959  0.5128  0.3348  0.4029
  131MOL0     C17594   3.530   5.317  10.882  0.1721  0.0122  1.1742
  131MOL0    Cl17595   3.491   5.492  10.892 -0.0293 -0.2880 -0.3256
  131MOL0     C17596   4.326   5.626  11.147  0.2029 -0.1465  0.1991
  131MOL0     C17597   4.395   5.754  11.128 -0.4011  0.4811  0.3664
  131MOL0     O17598   4.428   5.971  10.937 -0.9004 -0.3412 -0.0151
  131MOL0     C17599   4.708   6.127  11.077  0.1515 -0.5975  0.1892
  131MOL0     C17600   4.760   6.236  11.141 -0.1202  0.5702 -0.7140
  131MOL0     N17601   5.123   6.866  10.952 -0.5879  1.1614 -0.3795
  131MOL0     N17602   5.233   6.939  10.932  0.3799  0.6118  0.3551
  131MOL0     C17603   4.508   7.551  11.234 -0.3887  0.3672 -0.2123
  131MOL0     C17604   4.391   7.523  11.293 -0.7329 -0.3911 -0.4359
  131MOL0     C17605   3.977   7.324  11.360  0.4932 -1.0498 -0.2446
  131MOL0     C17606   3.958   7.201  11.415  0.4288  0.4091 -0.2413
  131MOL0     C17607   3.867   7.182  11.508  0.0189 -0.7025 -0.4617
  131MOL0     C17608   3.779   7.281  11.550 -0.3846 -0.2091 -1.4557
  131MOL0     O17609   3.688   7.242  11.646  0.0943 -0.5001  0.5887
  131MOL0     C17610   3.567   7.316  11.659  0.7737  0.6292 -1.1314
  131MOL0     C17611   3.486   7.265  11.778  0.3507  0.6841 -0.0465
  131MOL0     C17612   3.552   7.312  11.913 -0.1650  0.3051 -0.3253
  131MOL0     C17613   3.494   7.213  12.018  0.0053 -0.6486 -0.7687
  131MOL0     C17614   3.525   7.248  12.159  0.3266 -0.0666  0.3681
  131MOL0     C17615   3.551   7.268  12.273  0.1700  0.2253  0.5760
  131MOL0     C17616   3.785   7.407  11.486 -0.4217 -1.0573 -0.5686
  131MOL0     C17617   3.888   7.435  11.388  0.2025  0.1815  0.0507
  131MOL0     H17618   4.226   7.485  10.996  1.7597 -1.2350 -0.9800
  131MOL0     H17619   4.449   7.512  10.906  0.7035  1.3459  0.9358
  131MOL0     H17620   4.720   7.714  11.033 -0.8179 -0.8197 -0.8533
  131MOL0     H17621   4.770   7.653  11.189 -2.2005  0.5566  0.0450
  131MOL0     H17622   4.882   7.560  10.929 -0.7526 -0.5954 -0.1145
  131MOL0     H17623   4.961   7.668  11.049  1.6771 -0.6697  3.6392
  131MOL0     H17624   4.985   7.482  11.204  1.5131  1.6726 -0.6400
  131MOL0     H17625   4.878   7.382  11.111  0.9095 -0.0687  2.9050
  131MOL0     H17626   5.057   7.398  10.916 -0.7185  2.9283 -0.1220
  131MOL0     H17627   5.155   7.493  11.028  1.8583 -1.1151 -2.0205
  131MOL0     H17628   5.153   7.292  11.184 -0.8096 -1.2452  0.0507
  131MOL0     H17629   5.089   7.191  11.054  0.2016 -0.2262 -1.4014
  131MOL0     H17630   5.279   7.237  10.917  0.3490 -0.9341  0.9274
  131MOL0     H17631   5.336   7.379  10.998  3.5870 -1.4956 -1.1779
  131MOL0     H17632   5.486   7.247  11.075 -1.7303  0.0460  0.0625
  131MOL0     H17633   5.384   7.223  11.206 -0.4916  0.9533 -0.2882
  131MOL0     H17634   5.439   7.004  11.162 -0.9400  1.6418  1.5543
  131MOL0     H17635   5.461   7.033  10.987 -1.7324  1.1977 -1.1038
  131MOL0     H17636   5.181   6.984  11.249 -1.3820  3.3266 -0.0560
  131MOL0     H17637   5.049   6.700  11.202  1.7064  0.7709 -2.6630
  131MOL0     H17638   4.982   6.868  11.265 -1.0345  1.6773 -1.3088
  131MOL0     H17639   4.893   6.733  11.007  0.2567 -2.4137  1.5265
  131MOL0     H17640   4.809   6.856  11.097 -3.5217 -0.9276  1.6147
  131MOL0     H17641   4.680   6.665  11.134 -1.1046 -0.3600  2.1762
  131MOL0     H17642   4.756   6.705  11.284  1.8684  0.9001  0.4123
  131MOL0     H17643   4.919   6.496  11.204  0.3570  2.1664  1.4051
  131MOL0     H17644   4.797   6.489  11.081  1.8015  0.5218  0.3564
  131MOL0     H17645   4.474   6.368  11.255 -1.1402  0.0870 -1.6532
  131MOL0     H17646   4.289   6.073  11.142  0.2691 -0.8185 -0.4405
  131MOL0     H17647   4.280   6.235  11.211  4.3587  2.9627  0.4129
  131MOL0     H17648   4.305   6.215  11.041 -2.6830  1.2286  0.2973
  131MOL0     H17649   4.664   5.632  10.945  1.1031  2.4512  0.4657
  131MOL0     H17650   4.544   5.425  10.966  1.4700  2.0452 -1.6236
  131MOL0     H17651   4.163   5.246  11.139  4.3833 -0.9078 -0.2371
  131MOL0     H17652   4.166   5.388  11.242  1.6182 -1.0167  1.0937
  131MOL0     H17653   4.124   5.506  10.975 -2.5236  0.3724 -0.2195
  131MOL0     H17654   4.089   5.339  10.935 -3.3108 -2.1798  0.5035
  131MOL0     H17655   3.942   5.515  11.128  0.5450 -0.4117  0.9290
  131MOL0     H17656   3.901   5.342  11.099  3.1133 -0.7500  1.2801
  131MOL0     H17657   3.767   5.514  10.999  1.3790  2.4668  1.5576
  131MOL0     H17658   3.911   5.586  10.924  3.9388 -2.5456 -1.3599
  131MOL0     H17659   3.908   5.386  10.765  0.9539  0.0822  0.2623
  131MOL0     H17660   3.750   5.461  10.779 -0.5295  0.5406  0.3899
  131MOL0     H17661   3.766   5.202  10.782  1.1258  0.3075 -0.6428
  131MOL0     H17662   3.859   5.215  10.937  0.9095  0.7631 -1.7073
  131MOL0     H17663   3.668   5.333  11.046  0.2290 -1.5708  1.9023
  131MOL0     H17664   3.626   5.173  11.002 -1.5649  1.6397  2.3561
  131MOL0     H17665   3.433   5.278  10.915 -1.0666  0.7159 -1.3620
  131MOL0     H17666   3.543   5.288  10.778  2.5688 -2.1324  1.9844
  131MOL0     H17667   4.233   5.625  11.203 -0.2570 -3.6141 -0.3862
  131MOL0     H17668   4.356   5.834  11.190 -4.1562 -0.4323 -0.5320
  131MOL0     H17669   4.777   6.062  11.025  1.7190  0.1229  1.2649
  131MOL0     H17670   4.864   6.266  11.147  0.1173 -0.2397 -0.6036
  131MOL0     H17671   4.574   7.602  11.304 -2.3590  0.0346  2.0039
  131MOL0     H17672   4.391   7.532  11.401 -0.6197 -2.1128 -0.2555
  131MOL0     H17673   4.026   7.117  11.404 -0.1786 -0.5124  2.3055
  131MOL0     H17674   3.853   7.088  11.560 -0.5430  0.0206  0.7236
  131MOL0     H17675   3.584   7.423  11.674  1.2061  0.4308 -0.0526
  131MOL0     H17676   3.520   7.307  11.561 -2.3849  2.5799  0.0419
  131MOL0     H17677   3.468   7.158  11.776  2.5744  0.2443  0.4554
  131MOL0     H17678   3.390   7.316  11.768 -1.8533 -2.9408  1.1964
  131MOL0     H17679   3.516   7.414  11.933  0.2467  0.3821  0.0392
  131MOL0     H17680   3.661   7.315  11.913 -0.0343  1.8335  3.6017
  131MOL0     H17681   3.529   7.111  12.001 -0.9071 -1.2733  0.8878
  131MOL0     H17682   3.386   7.220  12.004 -0.3488  3.0169  2.1231
  131MOL0     H17683   3.565   7.279  12.378  2.0352 -2.3594  0.6834
  131MOL0     H17684   3.716   7.487  11.513 -1.7840 -1.5127 -2.5087
  131MOL0     H17685   3.894   7.536  11.349  0.9828  0.5242  1.0061
  132MOL0     O17686   1.501   2.236   5.959 -0.1954  0.0901 -0.1562
  132MOL0     C17687   1.531   2.348   6.008 -0.4586 -0.0509 -0.5318
  132MOL0     O17688   1.653   2.386   6.046 -0.2113  0.0865 -0.3047
  132MOL0     C17689   1.741   2.286   6.072 -0.6209  0.8147  0.3018
  132MOL0     C17690   1.742   2.234   6.204 -0.1440  0.5341  0.1470
  132MOL0     C17691   1.827   2.125   6.230 -0.2949 -0.8398  0.0760
  132MOL0     C17692   1.896   2.055   6.130  0.1941  0.1848  0.9111
  132MOL0     O17693   1.978   1.945   6.140 -0.0259 -0.2021  0.6132
  132MOL0     C17694   2.010   1.902   6.269  0.6464 -0.8556 -0.2286
  132MOL0     C17695   2.124   1.978   6.337  0.1276 -0.0882 -0.9353
  132MOL0     C17696   2.132   1.970   6.496 -0.2601  0.1035 -0.2390
  132MOL0     C17697   2.202   1.848   6.559 -0.4361 -0.2831  0.1738
  132MOL0     C17698   2.252   1.881   6.704  0.3675  0.4415 -0.8851
  132MOL0     C17699   2.306   1.772   6.790 -0.8261  0.0749 -0.3695
  132MOL0     C17700   2.395   1.826   6.908 -0.0328 -0.3463  0.3526
  132MOL0     C17701   2.340   1.930   6.996 -0.3261 -0.9356  0.1826
  132MOL0     N17702   2.216   1.884   7.057  0.4845 -0.2887 -0.3214
  132MOL0     C17703   2.125   1.962   7.119  0.1148  0.0595 -0.1059
  132MOL0     C17704   2.041   1.887   7.189  0.6316  1.2982  0.7878
  132MOL0     C17705   1.932   1.910   7.284  1.4202 -0.1788 -0.7483
  132MOL0     C17706   1.889   2.066   7.284  0.3460 -0.6839 -0.1181
  132MOL0     C17707   1.946   2.136   7.408  0.0985  0.6876 -1.3571
  132MOL0     C17708   2.104   2.145   7.398 -0.0561  0.2707 -1.3813
  132MOL0     O17709   2.149   2.185   7.533  0.7273 -0.2072  0.1689
  132MOL0     C17710   2.281   2.192   7.548  0.3616  1.0989 -0.5064
  132MOL0     C17711   2.386   2.140   7.466  0.5159 -0.4934  1.7053
  132MOL0     C17712   2.523   2.147   7.490 -0.2541  0.8118  0.7419
  132MOL0     C17713   2.632   2.094   7.398  0.4806  0.7110 -0.3335
  132MOL0     C17714   2.559   2.208   7.607 -0.3331  0.6695 -0.3270
  132MOL0     C17715   2.698   2.224   7.656 -0.5740 -0.4201 -0.8327
  132MOL0     O17716   2.714   2.278   7.783  0.1563  0.4827 -0.2785
  132MOL0     C17717   2.835   2.295   7.848 -0.2634  0.0576  0.8107
  132MOL0     C17718   2.840   2.416   7.918 -0.3527  0.4351  0.6691
  132MOL0     C17719   2.949   2.442   7.992 -0.0556 -0.0394  0.8280
  132MOL0     C17720   3.059   2.360   7.998  0.8007 -0.2101 -0.5812
  132MOL0     O17721   3.146   2.394   8.099  0.4146  0.0546  0.4655
  132MOL0     C17722   3.271   2.315   8.078  0.0212 -0.6814 -0.2065
  132MOL0     C17723   3.386   2.342   8.178  0.2557 -0.4533 -0.4689
  132MOL0     C17724   3.440   2.491   8.183  0.8881 -0.1827 -0.1160
  132MOL0     C17725   3.540   2.526   8.294  0.9987  0.3089  0.2342
  132MOL0     C17726   3.681   2.470   8.266 -0.1910  0.3984 -0.1194
  132MOL0     C17727   3.762   2.566   8.187 -0.2777 -0.0715 -0.1221
  132MOL0     C17728   3.901   2.517   8.187 -0.1151  0.0258 -0.0668
  132MOL0     C17729   3.970   2.545   8.049  0.2529  0.1288 -0.3211
  132MOL0    Cl17730   4.143   2.485   8.052 -0.0130  0.0126 -0.0604
  132MOL0     C17731   3.059   2.248   7.915  1.1424 -0.8181 -0.3997
  132MOL0     C17732   2.948   2.221   7.840 -0.0591 -0.4598  0.3739
  132MOL0     O17733   2.799   2.197   7.586 -0.2636 -0.3761 -0.8802
  132MOL0     C17734   2.464   2.261   7.692 -0.3988 -1.1122 -0.6582
  132MOL0     C17735   2.325   2.250   7.665 -0.5996  0.0680 -0.3488
  132MOL0     N17736   2.068   1.757   7.143  0.3467  0.1258 -0.4415
  132MOL0     N17737   2.183   1.755   7.078  0.6105 -0.0695  0.3005
  132MOL0     C17738   1.895   2.108   6.002 -0.5355  0.2874 -0.0093
  132MOL0     C17739   1.809   2.218   5.970 -0.1770  0.9370 -0.5158
  132MOL0     C17740   1.431   2.451   5.993  1.0637  0.1886 -0.1395
  132MOL0     C17741   1.464   2.586   5.977  0.4719 -0.7166 -0.4880
  132MOL0     C17742   1.367   2.687   5.970  0.0213 -0.6762  0.3557
  132MOL0     C17743   1.231   2.659   5.978 -0.3891  0.5488  1.0212
  132MOL0     O17744   1.145   2.763   5.950  1.1618  0.7082 -0.4183
  132MOL0     C17745   1.021   2.769   6.023 -0.3107 -0.7009 -0.0617
  132MOL0     C17746   0.988   2.924   6.018 -0.6149  0.0753 -0.4752
  132MOL0     C17747   0.902   2.946   5.886 -0.1962 -0.0823  0.3583
  132MOL0     C17748   0.887   3.091   5.858  0.1001  0.0799 -0.1709
  132MOL0     C17749   0.818   3.108   5.727 -0.3263 -0.2744 -0.5882
  132MOL0     C17750   0.765   3.109   5.616  0.4533  0.6341  0.7462
  132MOL0     C17751   1.191   2.530   5.993  1.0087  0.7666 -0.0704
  132MOL0     C17752   1.292   2.430   6.003  0.4713 -0.1392  0.1404
  132MOL0     H17753   1.678   2.277   6.280 -0.3583 -2.9393  2.1178
  132MOL0     H17754   1.829   2.094   6.334  1.8050  2.0252  1.0280
  132MOL0     H17755   1.928   1.896   6.341  0.4981  1.0215 -0.2091
  132MOL0     H17756   2.037   1.796   6.259  0.6865 -0.8606 -0.0664
  132MOL0     H17757   2.220   1.942   6.299  0.5087 -0.0770 -0.0024
  132MOL0     H17758   2.114   2.086   6.321  0.5333 -0.1078 -1.3632
  132MOL0     H17759   2.186   2.061   6.522  0.5826  0.4885 -3.0488
  132MOL0     H17760   2.033   1.983   6.539 -0.3149  2.7682 -0.9871
  132MOL0     H17761   2.119   1.778   6.573 -0.3180 -0.1800  1.4993
  132MOL0     H17762   2.281   1.806   6.496 -1.1648 -2.5459  0.6870
  132MOL0     H17763   2.323   1.964   6.691 -0.8707  1.3718 -1.9986
  132MOL0     H17764   2.162   1.908   6.760  0.4783 -0.5480 -0.2004
  132MOL0     H17765   2.238   1.701   6.839 -0.2111  1.3153  2.5377
  132MOL0     H17766   2.369   1.713   6.724  0.4111 -0.4341  1.1866
  132MOL0     H17767   2.419   1.736   6.964  1.1017 -1.5897 -1.9634
  132MOL0     H17768   2.492   1.861   6.871  0.3637 -1.0953  0.6574
  132MOL0     H17769   2.326   2.021   6.937 -1.2695  0.8243  2.8913
  132MOL0     H17770   2.410   1.952   7.077  1.2881  0.7617 -1.5710
  132MOL0     H17771   2.135   2.070   7.121  2.7983 -0.0825 -1.5961
  132MOL0     H17772   1.849   1.841   7.273  0.9829 -0.5061  3.1224
  132MOL0     H17773   1.968   1.884   7.384 -1.0818 -0.3126  0.1927
  132MOL0     H17774   1.781   2.076   7.300  0.5469  1.4615  0.1931
  132MOL0     H17775   1.921   2.125   7.197  0.2786 -0.3419  0.0856
  132MOL0     H17776   1.917   2.079   7.496 -2.4196  3.6559 -0.0525
  132MOL0     H17777   1.909   2.238   7.423 -0.9937  0.1782 -0.4194
  132MOL0     H17778   2.127   2.223   7.325  1.6260  0.5471 -0.5863
  132MOL0     H17779   2.148   2.048   7.370  0.0738  0.0405 -0.3949
  132MOL0     H17780   2.361   2.086   7.375  2.2731 -0.6066  1.2558
  132MOL0     H17781   2.713   2.166   7.386 -2.1580  4.2229  1.2934
  132MOL0     H17782   2.672   2.006   7.451  2.9411  0.7484 -1.9598
  132MOL0     H17783   2.580   2.051   7.312 -2.3666  2.1267  0.5600
  132MOL0     H17784   2.761   2.490   7.932  1.4850  2.7644 -0.4315
  132MOL0     H17785   2.945   2.526   8.061 -0.6073  0.3003  0.3886
  132MOL0     H17786   3.245   2.208   8.082 -2.9942 -0.0577 -1.1772
  132MOL0     H17787   3.319   2.333   7.981  2.4636 -3.1635  0.3957
  132MOL0     H17788   3.346   2.322   8.278  1.0517 -0.9811 -0.2485
  132MOL0     H17789   3.469   2.271   8.179  2.1595  1.5532  2.6338
  132MOL0     H17790   3.350   2.547   8.209  0.9104 -0.5712  0.8474
  132MOL0     H17791   3.466   2.528   8.083  2.8979  0.5367  0.6093
  132MOL0     H17792   3.556   2.634   8.304  4.1122  0.0866 -1.1909
  132MOL0     H17793   3.494   2.485   8.384  1.4279  2.3465  1.4501
  132MOL0     H17794   3.683   2.369   8.226 -1.4283 -0.0564  0.9170
  132MOL0     H17795   3.723   2.453   8.365 -2.4214 -2.7310  0.4156
  132MOL0     H17796   3.735   2.578   8.082  0.7735 -0.4560 -0.4466
  132MOL0     H17797   3.763   2.663   8.238 -0.8666 -0.5180  0.7748
  132MOL0     H17798   3.912   2.410   8.206 -1.9168 -0.7684 -2.7858
  132MOL0     H17799   3.941   2.582   8.266 -0.1667  1.0461 -0.8499
  132MOL0     H17800   3.958   2.653   8.036  1.7669  0.5754  1.5618
  132MOL0     H17801   3.914   2.503   7.965  1.2879  0.5124 -1.2252
  132MOL0     H17802   3.138   2.174   7.921  1.4154 -0.5370 -0.4348
  132MOL0     H17803   2.951   2.126   7.786  1.9118 -0.8766  1.1557
  132MOL0     H17804   2.494   2.277   7.795  0.5387  2.0695 -1.3117
  132MOL0     H17805   2.248   2.260   7.740  0.3829  0.7051  0.6004
  132MOL0     H17806   1.954   2.060   5.925  0.8366 -0.9902  1.7562
  132MOL0     H17807   1.811   2.238   5.863  2.7354  1.8384 -0.3856
  132MOL0     H17808   1.567   2.621   5.970  0.3289 -0.1621  0.1734
  132MOL0     H17809   1.401   2.787   5.946 -0.2389 -1.0024 -1.5444
  132MOL0     H17810   0.940   2.716   5.972 -1.7142  0.0314  1.3160
  132MOL0     H17811   1.047   2.740   6.125 -0.7626 -1.1754 -0.0773
  132MOL0     H17812   1.080   2.981   6.036 -1.5558  1.1503  1.2940
  132MOL0     H17813   0.935   2.958   6.108  0.8221 -2.9065  1.6656
  132MOL0     H17814   0.801   2.905   5.893 -1.1108  2.2883  2.4368
  132MOL0     H17815   0.952   2.910   5.796 -0.5021  0.6228 -0.1046
  132MOL0     H17816   0.985   3.140   5.851 -1.3555  3.4463  0.8618
  132MOL0     H17817   0.838   3.134   5.946 -1.6808 -3.3144  0.6679
  132MOL0     H17818   0.715   3.108   5.522 -1.9306 -2.9120  1.8431
  132MOL0     H17819   1.091   2.492   5.976  0.8964  1.2978 -0.6225
  132MOL0     H17820   1.261   2.327   6.019 -2.6194  0.3161 -1.9124
  133MOL0     O17821  10.144   5.157   8.549 -0.3368  0.3094 -0.0517
  133MOL0     C17822  10.055   5.137   8.470  0.3645  0.4491 -0.4554
  133MOL0     O17823   9.957   5.050   8.491  0.0330 -0.6582  0.2056
  133MOL0     C17824   9.931   4.983   8.614 -0.2701  0.0566 -1.0733
  133MOL0     C17825   9.961   5.034   8.742 -0.0053 -0.7076 -0.2876
  133MOL0     C17826   9.929   4.970   8.865 -0.3762  0.1290  0.4598
  133MOL0     C17827   9.847   4.863   8.861 -0.1831  0.0656 -0.0425
  133MOL0     O17828   9.807   4.790   8.972 -0.3608 -0.0948 -0.7758
  133MOL0     C17829   9.794   4.642   8.968  0.1301 -0.8722  0.0897
  133MOL0     C17830   9.798   4.583   9.101 -0.1748 -0.3073 -0.3634
  133MOL0     C17831   9.792   4.428   9.107  0.8691  0.7974  0.1486
  133MOL0     C17832   9.860   4.379   9.235  0.3771 -0.2606 -0.0435
  133MOL0     C17833   9.828   4.228   9.268  0.8343 -0.7745 -0.0597
  133MOL0     C17834   9.890   4.208   9.408  0.3221 -1.0105  0.5350
  133MOL0     C17835   9.889   4.067   9.462 -0.0330 -0.4123 -1.1595
  133MOL0     C17836   9.750   4.029   9.526 -0.5606  0.5106 -0.1177
  133MOL0     N17837   9.765   3.905   9.605 -0.2092 -0.4489  0.5061
  133MOL0     C17838   9.850   3.806   9.576 -0.2044 -0.2599  0.5791
  133MOL0     C17839   9.827   3.708   9.660  0.5953  1.0316  0.8116
  133MOL0     C17840   9.893   3.571   9.671  0.8853 -0.8547  0.0398
  133MOL0     C17841   9.853   3.473   9.567 -0.3042  0.4121  1.3765
  133MOL0     C17842   9.912   3.334   9.590  0.1609 -0.2547  0.3223
  133MOL0     C17843   9.830   3.245   9.488 -0.2856  0.2712 -0.5709
  133MOL0     O17844   9.887   3.253   9.354  0.2550  0.2532 -0.6317
  133MOL0     C17845  10.004   3.193   9.333 -0.1003  0.1895  0.5644
  133MOL0     C17846  10.034   3.193   9.195  1.3819 -0.4770 -0.0998
  133MOL0     C17847  10.145   3.131   9.144 -0.0793  0.6736 -0.6523
  133MOL0     C17848  10.187   3.151   8.999 -0.1605  0.5512 -0.1216
  133MOL0     C17849  10.233   3.060   9.227  0.6902  0.0042 -0.1386
  133MOL0     C17850  10.359   2.998   9.187 -0.1315 -0.6521  0.1867
  133MOL0     O17851  10.433   3.052   9.080  0.0255  0.2435 -0.1565
  133MOL0     C17852  10.542   2.989   9.025 -0.2904 -0.3918  0.0549
  133MOL0     C17853  10.656   3.056   8.995 -1.3098 -0.6053  0.2664
  133MOL0     C17854  10.775   3.000   8.940 -0.2595 -0.3263 -0.4952
  133MOL0     C17855  10.779   2.865   8.918  0.1538  1.2142  0.0414
  133MOL0     O17856  10.889   2.820   8.861 -0.2671  0.0387 -0.6317
  133MOL0     C17857  10.902   2.682   8.819 -1.0338 -0.0491 -0.4660
  133MOL0     C17858  11.026   2.666   8.729 -0.0026  1.2381  0.3576
  133MOL0     C17859  11.140   2.768   8.767 -0.1864 -0.6909  0.3394
  133MOL0     C17860  11.278   2.706   8.777  0.0907 -0.0261 -0.4118
  133MOL0     C17861  11.315   2.622   8.657  0.7260 -0.0776 -0.4551
  133MOL0     C17862  11.453   2.567   8.677 -0.6813 -0.4986 -0.1935
  133MOL0     C17863  11.495   2.492   8.539 -0.7107  1.0243  0.3242
  133MOL0     C17864  11.636   2.433   8.549 -0.7924  0.0194 -0.1207
  133MOL0    Cl17865  11.665   2.304   8.685 -0.0307 -0.2844 -0.0421
  133MOL0     C17866  10.667   2.789   8.961 -0.4769 -0.2703 -0.7925
  133MOL0     C17867  10.542   2.847   8.997 -0.6430 -0.5322  0.4635
  133MOL0     O17868  10.377   2.886   9.246  0.0538 -0.7583  0.3255
  133MOL0     C17869  10.197   3.051   9.367  0.2285 -0.1050  0.0686
  133MOL0     C17870  10.084   3.107   9.412  0.1176 -0.5429 -0.4933
  133MOL0     N17871   9.732   3.749   9.747 -0.0302 -0.1910 -0.2078
  133MOL0     N17872   9.692   3.867   9.713 -0.2004 -0.8329  0.6849
  133MOL0     C17873   9.812   4.809   8.734  0.6357  0.5347  0.3944
  133MOL0     C17874   9.843   4.871   8.610  0.3732 -0.0042  0.0079
  133MOL0     C17875  10.068   5.213   8.330 -0.0112  0.0060 -1.0958
  133MOL0     C17876  10.143   5.329   8.310 -0.4927  0.3132  0.4614
  133MOL0     C17877  10.150   5.385   8.185  0.3450  0.2001 -0.7095
  133MOL0     C17878  10.084   5.335   8.072 -1.1109 -0.4101  0.1735
  133MOL0     O17879  10.100   5.406   7.950 -0.0167  0.5518  0.6066
  133MOL0     C17880  10.044   5.347   7.828 -0.4293  0.4052 -0.3206
  133MOL0     C17881  10.133   5.239   7.777 -0.6401 -0.6289  0.3560
  133MOL0     C17882  10.078   5.171   7.650 -0.3999 -0.2576  0.4587
  133MOL0     C17883  10.158   5.054   7.605  0.2566  0.4308  0.0604
  133MOL0     C17884  10.161   5.036   7.452 -0.2546  0.2540 -0.4296
  133MOL0     C17885  10.182   5.013   7.332  0.5008  0.0269 -0.4650
  133MOL0     C17886  10.005   5.223   8.096  0.1583  0.2689 -0.6193
  133MOL0     C17887  10.000   5.165   8.223  0.5900  0.5334  0.0603
  133MOL0     H17888  10.012   5.130   8.736 -2.5773  0.8076  0.4665
  133MOL0     H17889   9.973   5.016   8.953  1.1696 -2.6277  1.2644
  133MOL0     H17890   9.703   4.604   8.921 -1.4725  0.5872  1.8628
  133MOL0     H17891   9.874   4.595   8.909  0.3562 -1.0410  0.5251
  133MOL0     H17892   9.896   4.601   9.146  0.6016 -3.4203 -0.6057
  133MOL0     H17893   9.718   4.631   9.159  0.9892  4.0264 -1.9486
  133MOL0     H17894   9.694   4.379   9.098  0.0321  2.2716  0.8502
  133MOL0     H17895   9.851   4.395   9.021 -2.4170  0.2560 -2.0674
  133MOL0     H17896   9.969   4.380   9.226  0.7259 -1.4975  3.0043
  133MOL0     H17897   9.829   4.448   9.314 -1.7886 -0.3318 -0.7611
  133MOL0     H17898   9.720   4.211   9.269  0.8057 -1.0937  3.3634
  133MOL0     H17899   9.877   4.166   9.192  1.2078 -1.5583  0.8096
  133MOL0     H17900   9.996   4.235   9.415  0.6097 -2.3675  1.9386
  133MOL0     H17901   9.827   4.275   9.469  2.5463  2.1222 -0.3326
  133MOL0     H17902   9.913   3.993   9.385  1.6159 -0.4698 -0.6326
  133MOL0     H17903   9.967   4.064   9.539  2.1881  1.1917 -3.1748
  133MOL0     H17904   9.675   4.028   9.445 -1.1267  1.0436  0.3871
  133MOL0     H17905   9.731   4.110   9.597  2.7620  1.9725 -0.7126
  133MOL0     H17906   9.912   3.802   9.487  0.6779  2.3286  0.9995
  133MOL0     H17907   9.997   3.604   9.671  0.3880  0.8525 -1.2853
  133MOL0     H17908   9.862   3.531   9.769 -2.3020 -4.0983 -2.0343
  133MOL0     H17909   9.895   3.510   9.473  0.1483  0.1654  1.4806
  133MOL0     H17910   9.744   3.472   9.566 -0.3335  0.6177  2.9005
  133MOL0     H17911   9.899   3.308   9.695 -1.4638  1.9973  0.7755
  133MOL0     H17912  10.018   3.331   9.562 -0.2117 -2.4895 -1.0556
  133MOL0     H17913   9.725   3.273   9.471 -0.4318 -1.5571 -3.2126
  133MOL0     H17914   9.837   3.143   9.525 -0.1167  0.6738  0.5491
  133MOL0     H17915   9.963   3.250   9.136 -2.4879 -1.5507  3.0615
  133MOL0     H17916  10.100   3.176   8.938 -2.3097  3.6428  3.6922
  133MOL0     H17917  10.261   3.231   8.986  0.8191 -0.2699  0.2561
  133MOL0     H17918  10.234   3.057   8.968  0.0865  0.3655  0.7744
  133MOL0     H17919  10.660   3.162   9.017  2.5737 -0.0846 -1.9645
  133MOL0     H17920  10.857   3.069   8.923  0.7958 -1.5965 -0.7827
  133MOL0     H17921  10.922   2.626   8.911  0.5685 -1.9673 -1.8826
  133MOL0     H17922  10.807   2.653   8.773 -0.5638  0.4597 -1.8135
  133MOL0     H17923  11.066   2.566   8.745  2.1660  1.6105 -2.0769
  133MOL0     H17924  10.997   2.669   8.624  3.1376 -1.5429 -0.7321
  133MOL0     H17925  11.121   2.827   8.858 -0.2013  0.1437 -0.1936
  133MOL0     H17926  11.155   2.836   8.683  0.2706  2.0848  2.5069
  133MOL0     H17927  11.341   2.794   8.773 -0.7029  0.5588 -0.2804
  133MOL0     H17928  11.298   2.648   8.867 -0.4881 -0.2966 -0.4487
  133MOL0     H17929  11.303   2.691   8.573 -1.7126 -0.1255 -0.2382
  133MOL0     H17930  11.243   2.540   8.648 -1.4508  1.7506 -0.7524
  133MOL0     H17931  11.533   2.638   8.701 -0.2407 -1.6429  1.9687
  133MOL0     H17932  11.441   2.494   8.758 -3.7320  3.5260  3.4531
  133MOL0     H17933  11.492   2.558   8.451  0.3475  1.2778  0.4737
  133MOL0     H17934  11.430   2.405   8.524  1.0427  0.0975 -2.8422
  133MOL0     H17935  11.706   2.517   8.555  3.1544 -2.8818 -1.4170
  133MOL0     H17936  11.656   2.393   8.450  0.4347 -0.9072  0.4820
  133MOL0     H17937  10.690   2.683   8.952 -2.3166 -0.7170 -0.4902
  133MOL0     H17938  10.454   2.787   9.017 -0.3968 -0.1144  3.2574
  133MOL0     H17939  10.266   3.000   9.434 -2.3506 -3.3538  0.5324
  133MOL0     H17940  10.063   3.126   9.517  1.2796  0.7284 -0.4622
  133MOL0     H17941   9.758   4.715   8.734  1.5780 -0.0308  1.3613
  133MOL0     H17942   9.816   4.825   8.516  1.8664 -3.6613  1.1775
  133MOL0     H17943  10.189   5.370   8.399 -1.8649 -0.4857  1.5847
  133MOL0     H17944  10.222   5.466   8.189 -0.9404  1.3078  0.6340
  133MOL0     H17945   9.944   5.303   7.838 -0.0558 -0.6780 -1.1685
  133MOL0     H17946  10.027   5.429   7.758  0.9404  3.0979  2.2684
  133MOL0     H17947  10.143   5.160   7.852 -0.5397 -1.7603 -0.8198
  133MOL0     H17948  10.228   5.287   7.755 -0.8308  0.0203  0.8903
  133MOL0     H17949  10.069   5.247   7.573  1.8756 -0.0385  0.3355
  133MOL0     H17950   9.974   5.142   7.671 -0.2608 -3.5793 -2.4809
  133MOL0     H17951  10.115   4.963   7.646  0.4336  0.4961  0.3913
  133MOL0     H17952  10.254   5.064   7.657  2.0322 -3.2212 -2.0749
  133MOL0     H17953  10.223   4.992   7.236  1.0152 -1.0515 -0.0357
  133MOL0     H17954   9.956   5.177   8.010 -0.8930 -1.6264  0.8996
  133MOL0     H17955   9.941   5.075   8.228  2.9708 -1.1054  0.0730
  134MOL0     O17956   6.650   5.363   0.868 -0.0688  0.0657  0.3266
  134MOL0     C17957   6.660   5.308   0.977  0.1250  0.3343  1.2954
  134MOL0     O17958   6.675   5.373   1.089 -0.3240 -0.3947  0.7388
  134MOL0     C17959   6.712   5.505   1.077  1.3649 -1.0495 -0.5278
  134MOL0     C17960   6.839   5.544   1.056  0.0160 -0.2424  0.1122
  134MOL0     C17961   6.868   5.677   1.029  0.3377 -0.2759 -0.2418
  134MOL0     C17962   6.771   5.781   1.027 -0.1610 -0.2751 -0.6676
  134MOL0     O17963   6.812   5.922   1.030 -0.0408 -0.0207 -0.1455
  134MOL0     C17964   6.758   6.028   0.952 -0.3859  0.6250 -0.1869
  134MOL0     C17965   6.820   6.034   0.814  0.2262  0.0286  0.4447
  134MOL0     C17966   6.766   6.137   0.712  0.2218 -0.5621 -0.0135
  134MOL0     C17967   6.787   6.282   0.749 -0.0915 -0.4758  0.6406
  134MOL0     C17968   6.697   6.374   0.661  0.9239 -0.2436 -0.7572
  134MOL0     C17969   6.734   6.398   0.507  0.8049 -0.4600 -1.0401
  134MOL0     C17970   6.861   6.480   0.483  0.5079 -0.7761  0.1786
  134MOL0     C17971   6.913   6.491   0.345  0.1345  0.2909 -0.3174
  134MOL0     N17972   6.836   6.564   0.243 -0.5158  0.9369  0.8514
  134MOL0     C17973   6.741   6.661   0.261  0.5654  0.0290  1.0735
  134MOL0     C17974   6.662   6.654   0.153  0.0405  0.1200 -0.1434
  134MOL0     C17975   6.537   6.728   0.141 -0.1338 -0.9231 -0.3285
  134MOL0     C17976   6.443   6.706   0.266  0.5359  0.5943  0.4265
  134MOL0     C17977   6.391   6.558   0.278 -0.4184 -0.4531 -0.1077
  134MOL0     C17978   6.315   6.507   0.149 -0.2966  0.4304 -1.2501
  134MOL0     O17979   6.253   6.375   0.190 -0.1215 -0.2290  1.2898
  134MOL0     C17980   6.338   6.269   0.220 -0.0378  0.0165 -0.5525
  134MOL0     C17981   6.469   6.252   0.166  0.3754 -0.1674 -0.3137
  134MOL0     C17982   6.559   6.148   0.184  0.3084  0.1443  0.2557
  134MOL0     C17983   6.703   6.173   0.146 -0.0613 -0.1104  0.1155
  134MOL0     C17984   6.500   6.035   0.253  0.5398  0.4833 -0.0207
  134MOL0     C17985   6.580   5.917   0.290  0.1233 -0.2425  0.2618
  134MOL0     O17986   6.519   5.818   0.374 -0.0707 -0.1435 -0.7207
  134MOL0     C17987   6.607   5.722   0.425 -0.1761 -0.4321  0.4744
  134MOL0     C17988   6.654   5.614   0.349 -0.2142 -0.6419  0.8887
  134MOL0     C17989   6.749   5.528   0.403  0.2744  0.1091  0.6826
  134MOL0     C17990   6.791   5.539   0.538 -0.5724 -0.9129  0.2352
  134MOL0     O17991   6.884   5.466   0.608  0.5323 -0.4905  0.6306
  134MOL0     C17992   6.872   5.321   0.602 -0.1986 -0.0173  0.9142
  134MOL0     C17993   6.985   5.247   0.681  0.3280  0.7216 -0.7657
  134MOL0     C17994   7.000   5.307   0.827 -0.3877  0.4282 -0.2095
  134MOL0     C17995   7.015   5.198   0.936 -0.7142  0.5293  0.8338
  134MOL0     C17996   7.148   5.122   0.931  0.7600  0.0843  0.2017
  134MOL0     C17997   7.116   4.979   0.992  1.1390 -0.0492 -0.1586
  134MOL0     C17998   7.247   4.905   1.021  0.0166 -0.4434 -0.2227
  134MOL0     C17999   7.224   4.793   1.123 -1.2294 -0.2291  0.2859
  134MOL0    Cl18000   7.193   4.873   1.283 -0.3146  0.1494  0.0253
  134MOL0     C18001   6.742   5.649   0.609  0.1910  0.6485 -1.0563
  134MOL0     C18002   6.657   5.747   0.552 -1.1542 -0.1405 -0.3536
  134MOL0     O18003   6.695   5.905   0.248 -0.7809 -0.2928  0.1875
  134MOL0     C18004   6.370   6.039   0.307 -0.4037 -0.4290 -0.0592
  134MOL0     C18005   6.297   6.163   0.298  0.2015 -0.2965 -0.6923
  134MOL0     N18006   6.709   6.561   0.068  0.2221  0.1557  0.6889
  134MOL0     N18007   6.812   6.498   0.120 -0.5881 -0.0999 -0.5204
  134MOL0     C18008   6.641   5.738   1.066  0.4248  0.6013  1.0868
  134MOL0     C18009   6.614   5.608   1.083 -0.5001 -0.0929  0.8397
  134MOL0     C18010   6.638   5.159   0.971  0.6282  0.2759  0.9085
  134MOL0     C18011   6.667   5.085   1.080 -0.2056  0.4081 -0.7859
  134MOL0     C18012   6.645   4.954   1.087 -0.2737  0.3856  0.3636
  134MOL0     C18013   6.619   4.877   0.971 -0.8740 -0.0568 -0.0015
  134MOL0     O18014   6.618   4.746   0.971  0.7141  0.6779 -0.0793
  134MOL0     C18015   6.741   4.669   1.006  0.9834  0.0681 -0.2257
  134MOL0     C18016   6.856   4.693   0.910  0.1680  0.2763 -0.0692
  134MOL0     C18017   6.836   4.645   0.775 -0.5044  0.3067 -0.3270
  134MOL0     C18018   6.969   4.642   0.699 -1.0683 -0.0808  0.4954
  134MOL0     C18019   7.050   4.759   0.674  0.3488  0.1073 -0.5229
  134MOL0     C18020   7.124   4.850   0.668  0.2030 -0.2803 -0.4010
  134MOL0     C18021   6.614   4.945   0.850  0.7900 -0.5701  0.0250
  134MOL0     C18022   6.609   5.083   0.849  0.1266 -1.4332 -0.0572
  134MOL0     H18023   6.925   5.478   1.056 -0.5367 -0.9877 -0.7825
  134MOL0     H18024   6.970   5.712   1.016  0.3546 -0.5318 -0.7932
  134MOL0     H18025   6.650   6.017   0.944 -0.1318 -2.7984 -0.1275
  134MOL0     H18026   6.774   6.125   1.001 -0.4290  1.7584 -2.2919
  134MOL0     H18027   6.928   6.048   0.818  0.2528 -0.4404  2.4678
  134MOL0     H18028   6.797   5.937   0.768  1.4454 -0.4824  0.8910
  134MOL0     H18029   6.818   6.120   0.617  0.6412 -1.0190  0.2929
  134MOL0     H18030   6.661   6.116   0.690  0.5649  0.4666 -3.1073
  134MOL0     H18031   6.763   6.294   0.855  1.3818 -1.4546  1.1179
  134MOL0     H18032   6.894   6.303   0.742 -0.1556 -0.4841 -0.6939
  134MOL0     H18033   6.600   6.324   0.663  1.2105 -0.8219 -0.9914
  134MOL0     H18034   6.677   6.474   0.702 -0.2451 -0.4321 -0.8298
  134MOL0     H18035   6.732   6.295   0.472 -3.4133 -1.0889  0.4364
  134MOL0     H18036   6.651   6.450   0.458 -2.2851 -0.0614  3.8380
  134MOL0     H18037   6.825   6.579   0.511 -1.1469 -2.2001  3.7266
  134MOL0     H18038   6.937   6.461   0.559  2.1946  1.7262 -0.7680
  134MOL0     H18039   6.930   6.389   0.307  0.0223  0.1873 -0.0898
  134MOL0     H18040   7.010   6.539   0.355  0.7279 -0.9522  0.1600
  134MOL0     H18041   6.731   6.726   0.347 -1.3010  1.0148  0.1765
  134MOL0     H18042   6.557   6.836   0.134 -2.0125 -0.6011 -1.2174
  134MOL0     H18043   6.483   6.712   0.047 -1.4351 -1.1473  0.4320
  134MOL0     H18044   6.354   6.769   0.263  0.9042  1.1164  0.1716
  134MOL0     H18045   6.495   6.734   0.359 -0.6748  1.2088  0.9381
  134MOL0     H18046   6.329   6.555   0.368  0.0255  4.0720  0.5825
  134MOL0     H18047   6.474   6.490   0.297 -0.4156 -0.4688 -0.1753
  134MOL0     H18048   6.380   6.499   0.061  0.6895  0.4209 -0.5266
  134MOL0     H18049   6.239   6.583   0.126 -3.1132 -1.5075  0.8850
  134MOL0     H18050   6.517   6.329   0.105 -0.8042  0.9206  0.0933
  134MOL0     H18051   6.729   6.107   0.063 -3.2847 -0.5986 -0.6600
  134MOL0     H18052   6.718   6.278   0.121  1.1879 -0.2381  0.3032
  134MOL0     H18053   6.765   6.153   0.234 -0.5242 -1.0347  0.2520
  134MOL0     H18054   6.634   5.612   0.243  1.5945 -3.1826  0.4947
  134MOL0     H18055   6.771   5.437   0.349 -5.6663 -1.0522 -0.4728
  134MOL0     H18056   6.774   5.298   0.645 -0.7756  1.7214  0.6012
  134MOL0     H18057   6.878   5.286   0.499  2.5059  1.3975  0.4945
  134MOL0     H18058   6.953   5.144   0.696 -0.7890  1.3969  2.0025
  134MOL0     H18059   7.084   5.245   0.633 -0.6358  1.2676 -2.9145
  134MOL0     H18060   6.916   5.371   0.853 -1.0534  0.3993 -2.1143
  134MOL0     H18061   7.092   5.362   0.850 -0.2090 -0.2199  0.6909
  134MOL0     H18062   7.013   5.241   1.037 -0.1355  1.5263  0.4249
  134MOL0     H18063   6.927   5.133   0.929 -0.4395  0.2007  0.4368
  134MOL0     H18064   7.226   5.171   0.990  2.0456 -1.1924 -0.3709
  134MOL0     H18065   7.201   5.108   0.836  0.3376 -0.8706  0.0917
  134MOL0     H18066   7.057   4.999   1.082 -1.6609 -2.5572 -1.2590
  134MOL0     H18067   7.045   4.927   0.927 -0.3055  0.9138  0.5778
  134MOL0     H18068   7.323   4.972   1.062  0.5871  0.1229 -2.0778
  134MOL0     H18069   7.287   4.862   0.928 -0.2764  0.0448 -0.5803
  134MOL0     H18070   7.318   4.741   1.143 -1.3215 -0.3077  0.5099
  134MOL0     H18071   7.144   4.720   1.106 -0.6665 -1.5896  2.8707
  134MOL0     H18072   6.783   5.665   0.708  0.1947  2.2109 -1.2787
  134MOL0     H18073   6.639   5.839   0.607 -0.9763  0.2526 -0.9480
  134MOL0     H18074   6.333   5.959   0.370 -0.4623  1.0901  1.9623
  134MOL0     H18075   6.200   6.182   0.341 -0.2191  1.9007 -2.4184
  134MOL0     H18076   6.559   5.807   1.083 -2.3809 -2.8519  2.7643
  134MOL0     H18077   6.509   5.585   1.096 -0.9558  0.9739 -0.7060
  134MOL0     H18078   6.690   5.140   1.171  1.1970  0.7017 -1.2919
  134MOL0     H18079   6.654   4.899   1.180 -2.8716 -2.6919 -1.0400
  134MOL0     H18080   6.771   4.708   1.104 -3.0188  1.4579  0.6313
  134MOL0     H18081   6.704   4.567   1.010 -1.4114  0.6646 -3.2975
  134MOL0     H18082   6.948   4.656   0.957  0.0609  0.4537  0.2874
  134MOL0     H18083   6.865   4.800   0.888  1.4836 -0.0208 -1.0908
  134MOL0     H18084   6.752   4.697   0.730 -1.5614 -2.6985 -2.1044
  134MOL0     H18085   6.805   4.541   0.794 -1.5186  1.2501  4.4630
  134MOL0     H18086   6.945   4.607   0.598 -3.1389  0.3704  0.7862
  134MOL0     H18087   7.036   4.567   0.743 -0.7170  0.9557  1.7731
  134MOL0     H18088   7.188   4.935   0.658 -0.6001  0.3258 -0.5024
  134MOL0     H18089   6.606   4.901   0.752  1.0343  1.7807 -1.1163
  134MOL0     H18090   6.596   5.130   0.752  1.5394  0.1101  0.4442
  135MOL0     O18091  10.797   4.564  10.278 -0.7725 -0.1915  0.6583
  135MOL0     C18092  10.853   4.615  10.186  0.1977  0.2453 -1.0774
  135MOL0     O18093  10.983   4.591  10.146  0.5436  0.1967  0.1853
  135MOL0     C18094  11.044   4.487  10.204  0.9253  0.0512 -0.3515
  135MOL0     C18095  11.053   4.460  10.343 -0.7476  1.1317 -0.8290
  135MOL0     C18096  11.126   4.347  10.387  0.5899 -0.9895  0.6493
  135MOL0     C18097  11.195   4.268  10.297  0.4023 -0.2666  0.1698
  135MOL0     O18098  11.255   4.156  10.341 -0.7157  0.2916 -0.3920
  135MOL0     C18099  11.358   4.103  10.264  0.4441  0.3114  0.2132
  135MOL0     C18100  11.473   4.196  10.273 -0.2730 -0.1931 -0.0307
  135MOL0     C18101  11.612   4.136  10.224  1.1217 -1.1829  0.0182
  135MOL0     C18102  11.621   4.065  10.085  0.3008 -0.6476 -0.3775
  135MOL0     C18103  11.598   4.155   9.963  0.4330 -0.4831 -0.8424
  135MOL0     C18104  11.639   4.079   9.836 -0.7905 -0.4456  1.0260
  135MOL0     C18105  11.573   3.943   9.815  0.7115  0.7886 -0.2533
  135MOL0     C18106  11.599   3.872   9.682 -0.4688  0.8338  0.2197
  135MOL0     N18107  11.739   3.868   9.648 -0.3840 -0.1492  0.4767
  135MOL0     C18108  11.801   3.931   9.534  0.3042 -0.2652 -0.3340
  135MOL0     C18109  11.933   3.910   9.550 -0.3196 -1.4501  0.8123
  135MOL0     C18110  12.043   3.948   9.462 -0.3626 -0.2813  0.3058
  135MOL0     C18111  12.092   4.086   9.478 -0.3694  0.3729 -0.2444
  135MOL0     C18112  12.192   4.099   9.599 -0.3666  0.3598  1.1467
  135MOL0     C18113  12.222   4.247   9.640 -0.0050 -0.3021  0.8070
  135MOL0     O18114  12.283   4.248   9.769 -0.1217  0.4525  0.4037
  135MOL0     C18115  12.332   4.368   9.818 -0.1713  1.2348 -0.1956
  135MOL0     C18116  12.391   4.365   9.947 -0.0167  0.3495  0.1929
  135MOL0     C18117  12.428   4.479  10.010 -0.6791  0.6526 -0.1277
  135MOL0     C18118  12.464   4.454  10.156  0.0921  0.7693  0.5186
  135MOL0     C18119  12.407   4.611   9.951  0.5996 -0.4099  0.6942
  135MOL0     C18120  12.441   4.751  10.010 -0.1559  0.7258  0.6971
  135MOL0     O18121  12.383   4.867   9.958 -0.1277  0.7229 -0.2116
  135MOL0     C18122  12.412   4.988  10.020 -0.8828 -0.6424  1.0228
  135MOL0     C18123  12.433   5.093   9.932  0.4765  0.6226 -0.0811
  135MOL0     C18124  12.483   5.216   9.973 -0.5145 -0.9567  0.5445
  135MOL0     C18125  12.513   5.242  10.108 -0.0117 -0.0284 -0.5944
  135MOL0     O18126  12.574   5.353  10.163  0.0902 -0.6731  1.1008
  135MOL0     C18127  12.506   5.479  10.147 -0.6130  0.7822 -0.0435
  135MOL0     C18128  12.364   5.491  10.200  0.4322  0.5656 -0.2713
  135MOL0     C18129  12.285   5.611  10.143 -0.0268 -0.3798 -0.5979
  135MOL0     C18130  12.143   5.615  10.185  0.0262  0.3944  0.4617
  135MOL0     C18131  12.068   5.743  10.151  0.4699  0.8176  0.2454
  135MOL0     C18132  12.125   5.859  10.227  1.1146  0.2801 -0.2187
  135MOL0     C18133  12.029   5.982  10.215  0.8185 -0.5235 -0.1664
  135MOL0     C18134  12.046   6.063  10.344 -0.6711 -0.5106 -0.3567
  135MOL0    Cl18135  12.210   6.101  10.391  0.1772  0.1413  0.0850
  135MOL0     C18136  12.484   5.135  10.201  0.1923  0.2528  0.3088
  135MOL0     C18137  12.425   5.010  10.161 -0.0760 -0.3951 -0.1307
  135MOL0     O18138  12.540   4.755  10.080  0.0922  0.1664 -0.1999
  135MOL0     C18139  12.363   4.610   9.816  0.5228  0.0721  0.0393
  135MOL0     C18140  12.319   4.493   9.755 -0.7554 -0.2070 -0.0468
  135MOL0     N18141  11.959   3.850   9.670 -0.4222  0.7034  0.0754
  135MOL0     N18142  11.849   3.835   9.730 -0.2946  0.2110 -0.1593
  135MOL0     C18143  11.191   4.300  10.163 -0.1830  0.4723  0.6586
  135MOL0     C18144  11.114   4.402  10.114 -0.0225 -0.2360  1.2423
  135MOL0     C18145  10.767   4.681  10.086  0.4856  0.7777 -0.1891
  135MOL0     C18146  10.820   4.715   9.960  1.0215  0.2314 -0.9508
  135MOL0     C18147  10.736   4.779   9.866  0.4443 -0.3376 -0.0528
  135MOL0     C18148  10.598   4.808   9.896  0.5580  0.0017  0.5514
  135MOL0     O18149  10.527   4.834   9.779  0.1624 -0.3482  0.6599
  135MOL0     C18150  10.392   4.881   9.798  0.2627  0.5662 -1.3309
  135MOL0     C18151  10.347   4.960   9.671 -0.2414 -0.5767  0.6620
  135MOL0     C18152  10.387   5.110   9.667  0.0017  0.5599  0.1377
  135MOL0     C18153  10.539   5.130   9.665  0.2481  0.3856 -0.4927
  135MOL0     C18154  10.591   5.087   9.530 -0.9470 -0.3254 -0.0628
  135MOL0     C18155  10.638   5.058   9.425 -0.0702  0.3085 -0.6786
  135MOL0     C18156  10.549   4.784  10.024  0.1256 -0.3461 -0.4325
  135MOL0     C18157  10.637   4.722  10.119  0.0066 -0.9864 -0.3098
  135MOL0     H18158  11.011   4.523  10.421 -2.9815 -2.3402  1.0243
  135MOL0     H18159  11.102   4.314  10.488 -2.3091 -0.8623  0.0782
  135MOL0     H18160  11.393   4.009  10.308  3.6392  2.0669  1.7538
  135MOL0     H18161  11.324   4.079  10.163 -0.4229  2.5537 -0.0879
  135MOL0     H18162  11.453   4.280  10.206  0.9321 -1.0357 -1.5137
  135MOL0     H18163  11.475   4.237  10.374 -2.3890  0.8133 -0.3346
  135MOL0     H18164  11.691   4.212  10.227 -0.4752  0.7835 -2.7982
  135MOL0     H18165  11.630   4.064  10.304 -0.9399 -1.3871  0.3556
  135MOL0     H18166  11.726   4.035  10.091  0.7078  1.0008  2.7345
  135MOL0     H18167  11.546   3.985  10.087  0.5778 -0.9023  0.1795
  135MOL0     H18168  11.490   4.176   9.961  0.2373 -1.2198  0.5672
  135MOL0     H18169  11.661   4.242   9.982  4.3752 -2.9642 -1.5157
  135MOL0     H18170  11.633   4.153   9.756  3.4311 -0.0142  0.8807
  135MOL0     H18171  11.743   4.051   9.850 -0.5332 -0.4463 -0.6319
  135MOL0     H18172  11.610   3.869   9.886  1.5562 -0.4187 -1.8700
  135MOL0     H18173  11.465   3.954   9.810  1.0009  4.0305 -1.6903
  135MOL0     H18174  11.539   3.912   9.599  0.9775  1.0480 -0.7713
  135MOL0     H18175  11.556   3.773   9.700 -0.0565  1.0817  2.9312
  135MOL0     H18176  11.751   3.982   9.453  0.4541  0.4634  0.0192
  135MOL0     H18177  12.126   3.881   9.484  0.6112  0.7484 -0.1696
  135MOL0     H18178  12.021   3.949   9.355 -0.7790  1.6145  0.3731
  135MOL0     H18179  12.003   4.141   9.510 -0.1286 -1.0300  3.2209
  135MOL0     H18180  12.131   4.128   9.384  1.4156 -1.1351 -0.2357
  135MOL0     H18181  12.288   4.050   9.579  1.4504  3.1930  2.3257
  135MOL0     H18182  12.153   4.043   9.684  0.4470 -0.9231  0.7252
  135MOL0     H18183  12.124   4.296   9.642  0.9417  1.8057 -0.2109
  135MOL0     H18184  12.286   4.298   9.567 -0.3688 -0.6359  0.2472
  135MOL0     H18185  12.395   4.270  10.000 -2.0780 -0.1472 -0.4226
  135MOL0     H18186  12.516   4.359  10.171  0.3272  0.8003 -0.0617
  135MOL0     H18187  12.531   4.531  10.195  0.6706  0.3679  0.3360
  135MOL0     H18188  12.374   4.442  10.217 -1.8224 -3.0229 -2.6200
  135MOL0     H18189  12.434   5.075   9.825 -0.2848  1.5756 -0.2667
  135MOL0     H18190  12.503   5.298   9.905 -0.4097 -1.4071  0.0238
  135MOL0     H18191  12.574   5.553  10.189  3.0916 -2.5865  0.5482
  135MOL0     H18192  12.519   5.498  10.040  3.4080 -0.3122  0.0991
  135MOL0     H18193  12.304   5.404  10.170  2.9573 -1.2224 -0.4292
  135MOL0     H18194  12.366   5.484  10.309  3.0456  2.0292 -0.1517
  135MOL0     H18195  12.291   5.603  10.035 -0.8571 -0.8738 -0.6136
  135MOL0     H18196  12.336   5.704  10.171  2.3838 -1.8134  0.1142
  135MOL0     H18197  12.095   5.541  10.119  0.7952 -0.6021  0.9769
  135MOL0     H18198  12.126   5.575  10.285 -0.3070  1.0723  0.6807
  135MOL0     H18199  11.962   5.722  10.169  0.4397 -0.4755 -1.1990
  135MOL0     H18200  12.081   5.762  10.044  1.0380 -2.1802 -0.3114
  135MOL0     H18201  12.149   5.834  10.330  0.3869 -2.0483 -0.5626
  135MOL0     H18202  12.224   5.887  10.189  1.2145 -2.0391 -1.9017
  135MOL0     H18203  11.929   5.939  10.210  0.6935 -0.7408  2.6423
  135MOL0     H18204  12.040   6.051  10.131 -0.7070  1.8254  1.4545
  135MOL0     H18205  12.007   6.015  10.434  2.0291  0.3288  1.3675
  135MOL0     H18206  11.998   6.160  10.331 -2.1873 -1.5079 -3.0303
  135MOL0     H18207  12.514   5.139  10.305  0.7110 -0.1055  0.1806
  135MOL0     H18208  12.424   4.930  10.234  0.1014  0.5596  0.9530
  135MOL0     H18209  12.346   4.702   9.761 -2.0582  1.2037  2.4583
  135MOL0     H18210  12.286   4.510   9.653  2.9613  2.9661 -0.9485
  135MOL0     H18211  11.224   4.228  10.090 -0.3817  0.4897  0.5517
  135MOL0     H18212  11.103   4.430  10.010  4.0911 -3.0799 -0.2155
  135MOL0     H18213  10.912   4.668   9.927  0.3268 -1.8611 -0.0181
  135MOL0     H18214  10.777   4.808   9.770  0.6829  2.4996  0.8104
  135MOL0     H18215  10.326   4.794   9.802  2.3631 -1.0840  1.9989
  135MOL0     H18216  10.378   4.948   9.883 -1.7714 -0.0843 -1.1088
  135MOL0     H18217  10.239   4.961   9.651  0.0345  2.4655 -1.3069
  135MOL0     H18218  10.394   4.905   9.589  3.1970  2.7973  0.1047
  135MOL0     H18219  10.337   5.152   9.754 -1.7716  0.2511 -0.6955
  135MOL0     H18220  10.331   5.163   9.589  0.2118 -1.4563 -1.4540
  135MOL0     H18221  10.575   5.060   9.741  0.9639  0.0698 -1.1112
  135MOL0     H18222  10.565   5.232   9.697 -0.8442  0.2888  0.7618
  135MOL0     H18223  10.689   5.032   9.334  1.1488  0.0703  0.0552
  135MOL0     H18224  10.453   4.825  10.055  0.2445 -0.4135  0.0260
  135MOL0     H18225  10.584   4.712  10.213 -1.9358  3.6493 -0.6098
  136MOL0     O18226   5.935  10.027   8.065  0.7238  0.7240  0.8707
  136MOL0     C18227   6.040  10.024   8.001  0.4485 -0.2151  0.2187
  136MOL0     O18228   6.150  10.102   8.032 -0.9556  0.0906  0.0975
  136MOL0     C18229   6.130  10.197   8.130 -0.5280 -0.4344 -0.8136
  136MOL0     C18230   6.044  10.295   8.105 -0.1809  0.1834 -0.2020
  136MOL0     C18231   6.007  10.384   8.205  0.3381  0.0498 -0.0066
  136MOL0     C18232   6.074  10.369   8.329 -0.5074  0.1898 -0.4653
  136MOL0     O18233   6.058  10.459   8.434  0.4391  0.3848  1.0139
  136MOL0     C18234   6.037  10.596   8.401  0.0610  0.2006 -0.5567
  136MOL0     C18235   6.040  10.670   8.536 -0.4234 -0.2729  0.8073
  136MOL0     C18236   6.004  10.821   8.508  1.0206  0.4595 -0.0226
  136MOL0     C18237   5.950  10.886   8.632 -0.2656 -0.3585  0.3109
  136MOL0     C18238   5.797  10.869   8.646 -0.4172 -0.1506 -0.1517
  136MOL0     C18239   5.743  10.865   8.787  0.3493  0.2813  0.5349
  136MOL0     C18240   5.744  11.000   8.874 -0.1730 -0.4015  0.0199
  136MOL0     C18241   5.687  10.978   9.012  0.5385 -0.0778  0.7715
  136MOL0     N18242   5.533  10.962   9.009 -0.3990  0.0604  0.0009
  136MOL0     C18243   5.446  11.043   8.952 -0.0971 -0.3792  0.0303
  136MOL0     C18244   5.332  10.982   8.944  0.3796  0.6185 -0.3289
  136MOL0     C18245   5.210  11.035   8.879 -0.0936 -0.7388  0.7209
  136MOL0     C18246   5.072  10.983   8.925  0.3105  1.0017  0.0276
  136MOL0     C18247   5.028  11.055   9.047 -0.0665  0.3933 -0.1070
  136MOL0     C18248   5.125  11.024   9.171 -0.3829 -1.0330 -0.5740
  136MOL0     O18249   5.061  11.071   9.297 -0.1757  0.5385 -0.0004
  136MOL0     C18250   5.039  11.201   9.343  0.5019 -0.6751 -0.6918
  136MOL0     C18251   5.086  11.321   9.292 -0.1879 -0.5254 -0.8378
  136MOL0     C18252   5.040  11.442   9.346 -0.9882  0.8674  0.9362
  136MOL0     C18253   5.103  11.555   9.276  0.5540 -0.5208  1.1951
  136MOL0     C18254   4.930  11.451   9.424  0.2093  0.2489 -0.6563
  136MOL0     C18255   4.874  11.579   9.457  1.1614 -0.5756  1.1149
  136MOL0     O18256   4.743  11.577   9.500  0.3169  0.4639  0.8723
  136MOL0     C18257   4.663  11.685   9.530 -1.3522 -1.1416 -1.1731
  136MOL0     C18258   4.648  11.800   9.452 -0.6185  0.7243  0.2218
  136MOL0     C18259   4.555  11.908   9.479 -1.0485  0.2214 -0.6940
  136MOL0     C18260   4.462  11.888   9.580  1.1368  0.4146  0.2915
  136MOL0     O18261   4.356  11.965   9.608  0.0035 -0.7034 -0.4754
  136MOL0     C18262   4.311  12.047   9.498  1.0577  0.6198 -1.1289
  136MOL0     C18263   4.172  12.085   9.540  0.0993 -0.0202  0.5130
  136MOL0     C18264   4.093  12.120   9.417 -0.0787 -1.2051  0.2049
  136MOL0     C18265   4.081  12.271   9.409  0.5679 -0.2352  0.1506
  136MOL0     C18266   3.993  12.322   9.300 -1.0387 -0.6628  0.2194
  136MOL0     C18267   3.988  12.475   9.312  0.0838 -0.4541  0.2956
  136MOL0     C18268   3.900  12.528   9.201  0.6185 -0.7521  0.5354
  136MOL0     C18269   3.824  12.660   9.240 -0.0172  1.3075 -0.0044
  136MOL0    Cl18270   3.693  12.627   9.359 -0.0277  0.3039 -0.3750
  136MOL0     C18271   4.470  11.774   9.663  0.4404 -0.1274  0.2523
  136MOL0     C18272   4.563  11.667   9.637  0.2754  0.9715 -0.2390
  136MOL0     O18273   4.948  11.678   9.471  1.2280 -0.0638  0.5451
  136MOL0     C18274   4.885  11.327   9.479 -0.2778 -0.3714 -0.3109
  136MOL0     C18275   4.946  11.202   9.449 -1.3426  0.3457  0.2573
  136MOL0     N18276   5.345  10.860   8.997  0.1200  0.3083  0.1855
  136MOL0     N18277   5.464  10.849   9.035  0.1374  0.2076 -0.0120
  136MOL0     C18278   6.167  10.271   8.355 -0.3203  0.0203  0.1331
  136MOL0     C18279   6.198  10.183   8.252 -0.3081 -0.3001  0.4192
  136MOL0     C18280   6.051   9.938   7.879 -0.9713  0.5528 -0.2576
  136MOL0     C18281   6.159   9.947   7.782 -0.6034 -0.3853 -0.6604
  136MOL0     C18282   6.182   9.847   7.685  0.0160  0.4515 -1.7138
  136MOL0     C18283   6.089   9.746   7.673 -0.4438 -0.6019 -0.2887
  136MOL0     O18284   6.100   9.662   7.565  0.0373 -0.6576  0.4534
  136MOL0     C18285   6.018   9.547   7.555 -0.5715  0.0339 -0.3061
  136MOL0     C18286   6.079   9.460   7.442  0.3201  0.4114  0.3892
  136MOL0     C18287   6.234   9.432   7.448  0.3182  0.7269  0.3198
  136MOL0     C18288   6.278   9.382   7.587 -0.4909  0.6060 -0.6140
  136MOL0     C18289   6.186   9.282   7.651  1.2536  0.6281  0.3633
  136MOL0     C18290   6.114   9.193   7.699 -0.8322  0.5988 -0.7848
  136MOL0     C18291   5.971   9.747   7.754  0.3561 -1.6778  1.3944
  136MOL0     C18292   5.951   9.847   7.849  0.4057  0.2343  0.1689
  136MOL0     H18293   6.012  10.307   8.002 -0.1683 -0.7579 -0.3218
  136MOL0     H18294   5.929  10.460   8.204 -0.1891 -0.3465  2.9443
  136MOL0     H18295   6.118  10.634   8.338  1.4220 -0.5313  0.7037
  136MOL0     H18296   5.940  10.619   8.357  0.0347  1.2086 -0.0146
  136MOL0     H18297   5.979  10.620   8.611 -0.1436  2.4452  3.0285
  136MOL0     H18298   6.145  10.652   8.563 -1.4929 -1.7520  4.4473
  136MOL0     H18299   6.091  10.880   8.478  1.6803 -1.5865 -2.4977
  136MOL0     H18300   5.931  10.829   8.427  2.1573 -2.9708 -1.5605
  136MOL0     H18301   6.007  10.837   8.712  2.7173  0.3200 -1.2546
  136MOL0     H18302   5.973  10.993   8.632  0.4959 -0.4594  3.0339
  136MOL0     H18303   5.752  10.949   8.587 -1.6193 -2.9150 -3.3436
  136MOL0     H18304   5.774  10.782   8.583  1.7382  0.0090 -1.2688
  136MOL0     H18305   5.648  10.812   8.791 -0.2168  1.2524  0.4029
  136MOL0     H18306   5.817  10.804   8.839  1.0591  0.3028 -0.4212
  136MOL0     H18307   5.848  11.033   8.876 -0.4831  0.5920  1.3479
  136MOL0     H18308   5.689  11.089   8.842  0.6650  0.5477  1.1200
  136MOL0     H18309   5.709  11.058   9.084  0.9164  0.8175 -0.3106
  136MOL0     H18310   5.730  10.890   9.060  1.9740  0.9074  1.3830
  136MOL0     H18311   5.463  11.147   8.924  0.5018 -0.0281  1.6194
  136MOL0     H18312   5.213  11.145   8.879 -0.7452 -0.7025 -0.5444
  136MOL0     H18313   5.214  11.018   8.771  1.1975  3.0129  0.0224
  136MOL0     H18314   5.067  10.874   8.926  0.3123  0.7029 -5.1327
  136MOL0     H18315   4.992  11.001   8.852 -2.1469 -0.8904  2.0290
  136MOL0     H18316   4.926  11.022   9.071 -1.7081  1.7137 -4.3215
  136MOL0     H18317   5.011  11.160   9.021 -0.0172  0.5155  0.3526
  136MOL0     H18318   5.222  11.074   9.168  0.7229 -2.9356  0.7439
  136MOL0     H18319   5.160  10.921   9.189 -0.1697 -0.2552  5.2673
  136MOL0     H18320   5.158  11.319   9.211  1.6347  4.0357  0.3714
  136MOL0     H18321   5.165  11.527   9.191  0.8859 -0.5488  1.4428
  136MOL0     H18322   5.032  11.633   9.247  0.4926 -1.7119 -2.3121
  136MOL0     H18323   5.177  11.588   9.349 -0.2545  0.6230  1.5274
  136MOL0     H18324   4.726  11.815   9.378 -2.2203 -1.1314 -1.9843
  136MOL0     H18325   4.571  12.006   9.436 -0.4093  0.7030  0.6067
  136MOL0     H18326   4.368  12.141   9.489  1.4427  0.1953 -3.9623
  136MOL0     H18327   4.319  11.982   9.411  0.7898 -1.6100  0.4279
  136MOL0     H18328   4.133  11.991   9.580 -0.1366 -1.0468 -1.9299
  136MOL0     H18329   4.179  12.157   9.622  6.4987 -0.9138  1.3237
  136MOL0     H18330   4.000  12.065   9.401 -0.8534  0.5500 -1.9124
  136MOL0     H18331   4.137  12.072   9.329 -0.9081 -2.7662  0.6083
  136MOL0     H18332   4.042  12.308   9.505  0.6051 -1.6338  0.7370
  136MOL0     H18333   4.182  12.311   9.394  0.2148  0.6900  0.1805
  136MOL0     H18334   3.891  12.283   9.305 -0.6237 -2.3983 -2.6427
  136MOL0     H18335   4.036  12.293   9.204 -0.7034 -0.6412  0.3622
  136MOL0     H18336   3.942  12.517   9.402 -0.2413 -1.5837  0.6716
  136MOL0     H18337   4.090  12.516   9.310 -1.3458  3.6204  1.2360
  136MOL0     H18338   3.829  12.451   9.169  1.3484 -0.3162 -2.4215
  136MOL0     H18339   3.973  12.555   9.125  0.3743  0.9400  0.8731
  136MOL0     H18340   3.793  12.686   9.138 -2.0192 -3.8544 -1.0282
  136MOL0     H18341   3.884  12.740   9.283  1.7591  2.0523 -3.5270
  136MOL0     H18342   4.404  11.765   9.748  0.3667 -0.4528  0.1646
  136MOL0     H18343   4.569  11.583   9.706  1.2012  2.6428  1.8252
  136MOL0     H18344   4.789  11.331   9.530 -2.5806  2.1083 -4.2982
  136MOL0     H18345   4.910  11.108   9.491  1.2892 -0.7414  0.2548
  136MOL0     H18346   6.217  10.269   8.451 -1.3521 -0.8719  0.6850
  136MOL0     H18347   6.253  10.092   8.271 -1.9324 -1.4864 -0.2967
  136MOL0     H18348   6.242  10.014   7.797 -4.3518  5.4011 -2.4267
  136MOL0     H18349   6.266   9.857   7.617  0.2310  1.0573 -1.3675
  136MOL0     H18350   6.015   9.488   7.647  0.5697  1.1207  0.4597
  136MOL0     H18351   5.913   9.573   7.536 -1.0910 -1.5327  0.2930
  136MOL0     H18352   6.055   9.513   7.349  0.6303 -1.7631 -0.9875
  136MOL0     H18353   6.021   9.368   7.440  0.3870  0.2900 -3.5287
  136MOL0     H18354   6.292   9.520   7.419  1.1834 -0.1583 -0.7060
  136MOL0     H18355   6.253   9.348   7.381 -2.6031 -2.2353  2.8128
  136MOL0     H18356   6.304   9.458   7.661  0.3884 -0.7181  0.4995
  136MOL0     H18357   6.374   9.333   7.565 -0.4958  0.7727 -1.0029
  136MOL0     H18358   6.048   9.131   7.756 -0.9410  1.1778 -0.2646
  136MOL0     H18359   5.886   9.685   7.724  1.8429 -2.3664 -1.9258
  136MOL0     H18360   5.860   9.832   7.906 -0.6338 -0.4850 -1.5998
  137MOL0     O18361   8.581   1.228  10.494 -0.4931 -0.5544 -0.2730
  137MOL0     C18362   8.539   1.150  10.411  0.4058  0.3479 -0.0069
  137MOL0     O18363   8.567   1.021  10.406  0.1232  0.5173 -0.1013
  137MOL0     C18364   8.679   0.971  10.469 -0.1874 -0.1911 -0.4720
  137MOL0     C18365   8.802   1.043  10.478  0.3776  0.6020 -0.2550
  137MOL0     C18366   8.909   0.985  10.553 -0.5343  1.0264 -0.8771
  137MOL0     C18367   8.897   0.875  10.636 -0.3544  0.1257 -0.3787
  137MOL0     O18368   9.003   0.815  10.702  0.0037 -0.8631 -0.2471
  137MOL0     C18369   9.082   0.901  10.787  0.2291 -0.2361 -0.0780
  137MOL0     C18370   9.178   0.842  10.892  0.1255 -0.3361 -0.5229
  137MOL0     C18371   9.289   0.939  10.930  0.6654 -0.1484  0.6575
  137MOL0     C18372   9.353   0.910  11.060  0.0358 -0.3819  0.9041
  137MOL0     C18373   9.484   0.988  11.086  0.5062  0.5359 -0.7133
  137MOL0     C18374   9.449   1.119  11.153 -0.1200  0.0375  0.0321
  137MOL0     C18375   9.577   1.174  11.214  0.4013  0.7971 -0.3554
  137MOL0     C18376   9.540   1.305  11.281 -0.7447 -0.7734 -0.2701
  137MOL0     N18377   9.478   1.286  11.409  0.2489 -0.6638 -0.9323
  137MOL0     C18378   9.549   1.239  11.516  0.3184 -0.7547 -0.4375
  137MOL0     C18379   9.456   1.218  11.618  0.1255 -0.9771 -0.3538
  137MOL0     C18380   9.489   1.147  11.748 -0.5655 -0.6530 -1.0511
  137MOL0     C18381   9.619   1.070  11.768 -0.8058  0.6066  1.1362
  137MOL0     C18382   9.641   0.947  11.683 -0.5567 -1.0544  0.5003
  137MOL0     C18383   9.770   0.874  11.709 -0.4518  0.7466 -0.3576
  137MOL0     O18384   9.796   0.757  11.632 -0.6300 -0.3704  0.1478
  137MOL0     C18385   9.831   0.640  11.697 -0.0081  0.1818  0.8217
  137MOL0     C18386   9.962   0.641  11.753 -0.1340  0.3908  0.0618
  137MOL0     C18387  10.027   0.529  11.806 -0.7084 -0.6907  0.3637
  137MOL0     C18388  10.178   0.550  11.849 -0.1510  0.0753 -0.4167
  137MOL0     C18389   9.949   0.413  11.822  0.5164 -0.8394  0.2658
  137MOL0     C18390   9.995   0.291  11.887  0.7004  0.5353 -0.1157
  137MOL0     O18391   9.894   0.196  11.910 -0.4496 -0.2535  0.7924
  137MOL0     C18392   9.935   0.068  11.929  0.0412  0.3726 -1.0648
  137MOL0     C18393   9.902  -0.020  11.826 -0.8792 -0.4963  0.6587
  137MOL0     C18394   9.913  -0.157  11.844  0.7493  0.0379  0.0751
  137MOL0     C18395   9.970  -0.205  11.963 -0.8663 -0.2951  0.6591
  137MOL0     O18396   9.997  -0.337  11.984 -0.0172  0.1747  0.1783
  137MOL0     C18397   9.911  -0.402  12.086 -0.2722  1.3901  0.3132
  137MOL0     C18398   9.849  -0.527  12.017  0.3701  1.5932  0.7746
  137MOL0     C18399   9.734  -0.490  11.920 -0.4551  0.5958 -0.6164
  137MOL0     C18400   9.611  -0.427  11.989 -0.0266 -0.2394  1.0017
  137MOL0     C18401   9.501  -0.371  11.895  1.4658  0.1336  0.8092
  137MOL0     C18402   9.411  -0.475  11.817 -0.8516  0.2253 -0.2573
  137MOL0     C18403   9.292  -0.404  11.747 -0.3749  0.1919  0.7534
  137MOL0     C18404   9.178  -0.494  11.696 -0.0188  0.1207 -0.3275
  137MOL0    Cl18405   9.233  -0.602  11.559 -0.1900  0.0210  0.3401
  137MOL0     C18406   9.999  -0.119  12.070  0.0456 -0.2354  0.4195
  137MOL0     C18407   9.984   0.014  12.049  0.6756 -0.9719 -0.6368
  137MOL0     O18408  10.115   0.272  11.905  0.2539  0.1775  0.7522
  137MOL0     C18409   9.818   0.410  11.765 -1.0594  0.1481 -1.0704
  137MOL0     C18410   9.760   0.522  11.703  0.1735  0.2449 -0.6021
  137MOL0     N18411   9.330   1.249  11.573 -0.1140  0.1185 -0.8977
  137MOL0     N18412   9.351   1.296  11.453 -0.4351 -0.1012 -0.5916
  137MOL0     C18413   8.779   0.810  10.631 -1.0476  0.2193  0.2092
  137MOL0     C18414   8.668   0.847  10.544 -0.2091 -0.4917 -0.4902
  137MOL0     C18415   8.440   1.202  10.310  0.0436  0.1394  0.6971
  137MOL0     C18416   8.349   1.115  10.254 -0.7750  0.2761  1.2791
  137MOL0     C18417   8.255   1.159  10.159 -0.6343 -0.9069  0.2061
  137MOL0     C18418   8.243   1.301  10.129 -0.4182  0.3012 -0.3330
  137MOL0     O18419   8.138   1.334  10.050  0.4472  0.0917 -0.2964
  137MOL0     C18420   8.128   1.471   9.994  0.1067  0.4707 -0.2429
  137MOL0     C18421   8.024   1.463   9.884  0.3451 -0.1294 -0.1600
  137MOL0     C18422   7.879   1.428   9.935 -0.2450  0.8247 -0.2296
  137MOL0     C18423   7.843   1.480  10.078  0.1854  0.7636 -0.1353
  137MOL0     C18424   7.707   1.444  10.123 -0.2522  0.5737  0.0041
  137MOL0     C18425   7.595   1.405  10.130  0.1651 -0.2653 -1.5491
  137MOL0     C18426   8.327   1.392  10.192 -0.5288  0.1922  0.1436
  137MOL0     C18427   8.428   1.346  10.279  0.3875 -0.6231 -0.0486
  137MOL0     H18428   8.812   1.136  10.423 -0.5775  0.6548 -0.3534
  137MOL0     H18429   8.997   1.047  10.564 -1.4116  2.0421  0.6757
  137MOL0     H18430   9.147   0.962  10.723  0.6044  0.4831  0.9649
  137MOL0     H18431   9.013   0.971  10.834  0.8665  0.7370 -0.5563
  137MOL0     H18432   9.115   0.798  10.970 -1.8243  0.5760 -1.4937
  137MOL0     H18433   9.230   0.755  10.851 -1.4192 -1.4087 -0.3144
  137MOL0     H18434   9.356   0.915  10.847  0.2908  3.1290 -0.7523
  137MOL0     H18435   9.249   1.040  10.921  0.1570 -0.2744  1.3877
  137MOL0     H18436   9.284   0.924  11.143 -1.3628  0.1327 -0.3081
  137MOL0     H18437   9.379   0.803  11.062  1.7084  0.0050  2.5168
  137MOL0     H18438   9.552   0.925  11.145  3.2190  4.3067  0.6020
  137MOL0     H18439   9.547   0.996  10.997  1.8729 -0.3591  0.1270
  137MOL0     H18440   9.396   1.184  11.082 -1.2560  0.0847  0.8920
  137MOL0     H18441   9.375   1.099  11.231  0.6478 -1.0899  0.4919
  137MOL0     H18442   9.613   1.102  11.288  2.0360  1.6667 -0.2598
  137MOL0     H18443   9.657   1.177  11.140  0.1819  0.9901 -0.5852
  137MOL0     H18444   9.477   1.378  11.229 -1.3409  1.2811  3.0338
  137MOL0     H18445   9.633   1.361  11.276 -2.6689  2.6560 -1.6208
  137MOL0     H18446   9.654   1.215  11.504  0.3954  0.8530 -4.6608
  137MOL0     H18447   9.499   1.233  11.815 -3.0738 -1.0395 -0.0864
  137MOL0     H18448   9.407   1.090  11.793  2.8300 -2.7414  3.3430
  137MOL0     H18449   9.608   1.043  11.874  2.4358  1.6899  1.8601
  137MOL0     H18450   9.700   1.137  11.738 -0.1138 -0.4433  0.6384
  137MOL0     H18451   9.655   0.982  11.580  2.4911 -1.2315  0.7577
  137MOL0     H18452   9.552   0.884  11.681 -2.2317  1.2200 -0.2724
  137MOL0     H18453   9.786   0.848  11.814  0.9387 -2.3150 -1.2047
  137MOL0     H18454   9.859   0.933  11.686 -0.3340  0.8582  0.3763
  137MOL0     H18455  10.026   0.729  11.745  0.0736  0.5568  2.8606
  137MOL0     H18456  10.182   0.539  11.957  2.2052  0.2659 -0.4226
  137MOL0     H18457  10.246   0.473  11.810 -1.9465 -0.4658 -2.7064
  137MOL0     H18458  10.213   0.651  11.826 -1.8439  0.6098 -0.7632
  137MOL0     H18459   9.867   0.027  11.735  4.5177 -1.2704 -2.2144
  137MOL0     H18460   9.878  -0.225  11.766 -0.6242 -0.0809  0.7563
  137MOL0     H18461   9.971  -0.429  12.173  1.2951  0.8717 -0.8707
  137MOL0     H18462   9.832  -0.334  12.118 -1.0708  1.2540 -1.2660
  137MOL0     H18463   9.926  -0.582  11.963 -1.5962 -1.5846  0.9451
  137MOL0     H18464   9.811  -0.592  12.097  3.5227 -3.1447 -1.1486
  137MOL0     H18465   9.696  -0.576  11.864  2.5575 -0.9812 -0.4808
  137MOL0     H18466   9.781  -0.426  11.844 -0.7799 -0.9433 -2.1574
  137MOL0     H18467   9.577  -0.502  12.062 -2.7086  0.1347  0.2513
  137MOL0     H18468   9.642  -0.336  12.042  2.6098 -0.2315 -0.4176
  137MOL0     H18469   9.549  -0.296  11.832  0.8585  1.3752  1.7829
  137MOL0     H18470   9.436  -0.313  11.961 -1.7722 -1.8349 -0.4172
  137MOL0     H18471   9.481  -0.531  11.755 -0.0240 -0.1800  0.9956
  137MOL0     H18472   9.382  -0.541  11.899 -0.2174 -0.4320 -0.5535
  137MOL0     H18473   9.341  -0.340  11.672  1.3895  1.0363  2.5321
  137MOL0     H18474   9.247  -0.335  11.818 -3.0320 -1.4908  0.8301
  137MOL0     H18475   9.091  -0.435  11.665 -1.0827 -0.0617  2.0953
  137MOL0     H18476   9.138  -0.553  11.779  0.1007  0.8505  0.2630
  137MOL0     H18477  10.035  -0.155  12.166 -0.6200  1.1934  1.2425
  137MOL0     H18478  10.016   0.085  12.125  2.0588 -0.2619 -1.8212
  137MOL0     H18479   9.750   0.327  11.779 -2.9977  1.7852 -0.3244
  137MOL0     H18480   9.660   0.524  11.661 -0.8909 -1.1810  1.7172
  137MOL0     H18481   8.777   0.716  10.686 -0.8228  0.2885  0.3333
  137MOL0     H18482   8.577   0.789  10.550 -0.5003 -0.0251 -0.3723
  137MOL0     H18483   8.355   1.006  10.261  1.1728  0.3077  0.8390
  137MOL0     H18484   8.189   1.088  10.111 -5.0694  3.1818 -0.4823
  137MOL0     H18485   8.102   1.556  10.057  1.5082  1.8365 -1.4481
  137MOL0     H18486   8.225   1.501   9.954  1.2090 -2.3213  0.1109
  137MOL0     H18487   8.053   1.388   9.811  1.8926  1.1513 -0.9313
  137MOL0     H18488   8.026   1.561   9.835 -1.3031  0.1257  0.2093
  137MOL0     H18489   7.862   1.320   9.944 -1.2023  1.1688  4.7399
  137MOL0     H18490   7.798   1.471   9.876 -2.7923  1.7331  3.5746
  137MOL0     H18491   7.849   1.589  10.072 -1.0300  0.7736 -3.4878
  137MOL0     H18492   7.912   1.440  10.153 -1.4091 -0.8224  0.5696
  137MOL0     H18493   7.496   1.370  10.154 -0.4028  2.3708  0.3790
  137MOL0     H18494   8.308   1.496  10.170 -2.4929 -0.1001  0.2703
  137MOL0     H18495   8.498   1.419  10.319 -0.1936  0.5714 -1.0990
  138MOL0     O18496   3.217   7.445   8.414  0.6323 -0.0638 -0.9164
  138MOL0     C18497   3.254   7.331   8.448  0.4758  0.0780 -0.5699
  138MOL0     O18498   3.367   7.307   8.523  0.3893 -0.1127 -0.1466
  138MOL0     C18499   3.445   7.424   8.536 -0.2343 -0.4573 -0.3155
  138MOL0     C18500   3.491   7.458   8.668 -0.7567 -0.2033  0.5710
  138MOL0     C18501   3.591   7.563   8.684  1.0835 -0.4575  0.1466
  138MOL0     C18502   3.634   7.631   8.572 -0.6939  0.0438  0.0544
  138MOL0     O18503   3.726   7.723   8.610 -0.0084 -0.2103  0.0647
  138MOL0     C18504   3.742   7.837   8.521  0.2006 -0.7522 -0.8325
  138MOL0     C18505   3.816   7.948   8.582 -0.3221 -0.2743 -0.9007
  138MOL0     C18506   3.958   7.943   8.539  0.0466  0.0626  0.6640
  138MOL0     C18507   4.034   8.056   8.618  0.1222  0.6225 -0.0004
  138MOL0     C18508   4.182   8.033   8.596 -0.0600 -0.3247 -0.6971
  138MOL0     C18509   4.219   8.031   8.451 -0.3038 -0.5494 -0.9781
  138MOL0     C18510   4.369   8.016   8.449 -0.1544 -0.6097 -0.5417
  138MOL0     C18511   4.452   8.133   8.494 -1.2099 -0.3634 -0.2891
  138MOL0     N18512   4.401   8.266   8.445  0.2192  0.1091  0.0135
  138MOL0     C18513   4.348   8.367   8.525 -0.0494 -0.2487  0.5485
  138MOL0     C18514   4.340   8.475   8.443 -0.1227  0.7660  0.4123
  138MOL0     C18515   4.291   8.611   8.484 -0.1581 -0.8791  0.1545
  138MOL0     C18516   4.226   8.693   8.380  0.2857 -0.6508  0.2569
  138MOL0     C18517   4.330   8.749   8.280  0.8219 -0.0611  0.9997
  138MOL0     C18518   4.459   8.806   8.337  0.1558 -0.7243  0.0328
  138MOL0     O18519   4.540   8.889   8.245  0.7433  0.0940 -0.0506
  138MOL0     C18520   4.612   8.820   8.146 -0.1092  0.2343  0.3118
  138MOL0     C18521   4.635   8.685   8.138  0.2777  1.1042 -0.4802
  138MOL0     C18522   4.703   8.616   8.033 -0.2847  0.3305 -0.2245
  138MOL0     C18523   4.743   8.464   8.056 -0.3901 -0.9013  0.4386
  138MOL0     C18524   4.750   8.691   7.916 -0.3740  0.2959 -0.5195
  138MOL0     C18525   4.818   8.629   7.801 -0.7319 -0.6001 -0.5140
  138MOL0     O18526   4.880   8.508   7.823  0.3452  0.2292  0.2323
  138MOL0     C18527   4.890   8.439   7.710  0.3361 -0.6471 -0.0395
  138MOL0     C18528   5.004   8.464   7.633 -0.2314  0.7651 -1.4217
  138MOL0     C18529   5.016   8.396   7.516 -0.8552  0.2728  0.5719
  138MOL0     C18530   4.922   8.312   7.476  0.2263  0.3888  0.1373
  138MOL0     O18531   4.950   8.229   7.367  0.9000  0.9024 -0.2666
  138MOL0     C18532   5.038   8.262   7.269  0.1440 -1.0278  0.1419
  138MOL0     C18533   5.023   8.160   7.161 -0.9597  0.3335  0.4396
  138MOL0     C18534   4.917   8.209   7.063  0.0448 -0.5691  0.4206
  138MOL0     C18535   4.866   8.092   6.977 -0.2587  0.4785  1.2592
  138MOL0     C18536   4.967   8.063   6.865 -1.1876 -0.9127 -0.2844
  138MOL0     C18537   4.913   7.964   6.767  0.4270 -0.0296  0.3340
  138MOL0     C18538   4.835   8.021   6.635 -0.9626  0.2517 -0.5188
  138MOL0     C18539   4.941   8.057   6.523 -0.3012 -0.4049 -0.5146
  138MOL0    Cl18540   4.856   8.100   6.367 -0.1780 -0.1589  0.2176
  138MOL0     C18541   4.800   8.292   7.538 -1.0088  0.2663 -0.6932
  138MOL0     C18542   4.781   8.355   7.669  0.0395 -0.2158  0.4446
  138MOL0     O18543   4.819   8.688   7.695  0.1226  0.4548 -1.1874
  138MOL0     C18544   4.719   8.831   7.918 -0.5074  0.1496 -0.7154
  138MOL0     C18545   4.665   8.889   8.037 -0.5742 -0.3898 -0.1532
  138MOL0     N18546   4.388   8.429   8.323  0.5150 -0.2491 -0.0540
  138MOL0     N18547   4.428   8.315   8.323 -0.0560  0.2021  0.2445
  138MOL0     C18548   3.592   7.611   8.442  0.0803  1.4820  0.0322
  138MOL0     C18549   3.503   7.499   8.428  0.0484 -0.5282  0.2841
  138MOL0     C18550   3.152   7.222   8.429 -0.6178 -0.1674  0.0991
  138MOL0     C18551   3.019   7.243   8.381  0.0832  0.0316 -1.2835
  138MOL0     C18552   2.926   7.141   8.367  0.1793 -0.3575 -0.1451
  138MOL0     C18553   2.965   7.012   8.397 -0.6845 -0.5603 -1.1967
  138MOL0     O18554   2.885   6.903   8.412  0.7077  0.5683  0.1224
  138MOL0     C18555   2.744   6.927   8.408 -0.3898 -0.2080 -0.0479
  138MOL0     C18556   2.676   6.797   8.417 -1.0329  0.7613  0.0009
  138MOL0     C18557   2.517   6.816   8.434  0.1769  0.5611 -0.2474
  138MOL0     C18558   2.462   6.895   8.316  0.1917 -0.1296  0.3897
  138MOL0     C18559   2.327   6.869   8.267 -0.1943 -0.1467 -0.4452
  138MOL0     C18560   2.213   6.852   8.232 -0.2695 -0.6681 -0.3712
  138MOL0     C18561   3.090   6.989   8.449  1.0806  0.3895  0.5056
  138MOL0     C18562   3.186   7.088   8.456  0.7456  0.7017  0.0085
  138MOL0     H18563   3.459   7.401   8.754 -2.4820  1.5667  1.1652
  138MOL0     H18564   3.628   7.579   8.785  1.2083 -0.5968  0.1231
  138MOL0     H18565   3.805   7.800   8.440  1.4549 -1.8968  0.6161
  138MOL0     H18566   3.647   7.880   8.486  1.9609  2.0657 -2.5018
  138MOL0     H18567   3.768   8.046   8.573 -0.4519 -0.2807 -0.3582
  138MOL0     H18568   3.805   7.931   8.690 -4.0887  2.3146 -0.6658
  138MOL0     H18569   4.008   7.847   8.550  2.5750  1.1854 -0.2810
  138MOL0     H18570   3.959   7.967   8.432  1.0210 -3.7004 -0.3224
  138MOL0     H18571   4.000   8.152   8.579 -1.3839 -0.5103 -1.6767
  138MOL0     H18572   4.012   8.057   8.725 -1.5486 -0.1213 -0.2972
  138MOL0     H18573   4.238   8.110   8.651 -2.4518 -0.0965  1.6090
  138MOL0     H18574   4.209   7.937   8.640  2.9685  1.2618  1.3302
  138MOL0     H18575   4.185   7.941   8.399  2.1904 -2.1973  0.0351
  138MOL0     H18576   4.194   8.116   8.387 -1.0568 -1.3502 -1.7744
  138MOL0     H18577   4.402   7.929   8.508 -0.5396 -0.5513 -0.2315
  138MOL0     H18578   4.395   7.988   8.347 -3.2552 -2.5164 -0.9414
  138MOL0     H18579   4.557   8.122   8.464 -1.9435  1.8408 -4.3029
  138MOL0     H18580   4.442   8.141   8.603 -0.1931  1.4663 -0.2914
  138MOL0     H18581   4.325   8.354   8.630  1.9138 -2.9198  0.7423
  138MOL0     H18582   4.214   8.592   8.558 -0.2632 -1.1539 -0.0223
  138MOL0     H18583   4.364   8.670   8.539 -0.8336  2.8221 -2.5446
  138MOL0     H18584   4.177   8.771   8.438  1.8889 -0.7075  1.7523
  138MOL0     H18585   4.153   8.636   8.321 -0.9897  1.8356 -0.7073
  138MOL0     H18586   4.281   8.823   8.216  1.1113  0.0230  0.8740
  138MOL0     H18587   4.363   8.666   8.216  1.0817  1.0609 -0.3891
  138MOL0     H18588   4.520   8.729   8.385  0.3047 -0.7954 -0.2655
  138MOL0     H18589   4.428   8.873   8.417 -2.3706 -0.5282 -1.0308
  138MOL0     H18590   4.596   8.630   8.223 -1.2324  0.0346 -1.7948
  138MOL0     H18591   4.849   8.459   8.084 -0.5946 -0.2489  1.4046
  138MOL0     H18592   4.698   8.437   8.152  0.7972 -0.1993  1.2332
  138MOL0     H18593   4.707   8.407   7.970  3.4546  3.0962 -4.5056
  138MOL0     H18594   5.070   8.543   7.667  1.5524 -0.8903 -0.8437
  138MOL0     H18595   5.089   8.435   7.447 -0.1909  0.8473  1.5655
  138MOL0     H18596   5.016   8.358   7.220 -4.1692 -1.8970  0.0183
  138MOL0     H18597   5.137   8.263   7.314 -0.4290 -3.3547  1.5813
  138MOL0     H18598   5.118   8.167   7.105  0.2782 -0.5378  2.3326
  138MOL0     H18599   4.996   8.059   7.193  0.5889 -0.8964 -1.8499
  138MOL0     H18600   4.935   8.292   6.994 -1.6927 -0.0310  0.5735
  138MOL0     H18601   4.830   8.236   7.123 -1.0445  0.1242 -1.3916
  138MOL0     H18602   4.860   8.002   7.037  0.5941 -0.2217  0.3220
  138MOL0     H18603   4.777   8.127   6.923 -1.0230  0.7771  2.6759
  138MOL0     H18604   5.057   8.031   6.918 -1.4618 -0.8202  0.2535
  138MOL0     H18605   4.999   8.149   6.805  0.7276 -1.7820 -0.5827
  138MOL0     H18606   4.989   7.897   6.725 -2.5092 -2.7259 -1.1344
  138MOL0     H18607   4.851   7.892   6.822  2.2433 -1.5523  0.4828
  138MOL0     H18608   4.782   8.115   6.652 -1.1000 -0.0772  0.9925
  138MOL0     H18609   4.768   7.945   6.595  2.6818 -2.3413 -2.2325
  138MOL0     H18610   5.010   7.976   6.499  0.6700  0.6935 -1.5517
  138MOL0     H18611   4.993   8.147   6.558 -1.0887 -0.4627  0.9029
  138MOL0     H18612   4.724   8.228   7.494 -0.2150 -0.1833 -1.4429
  138MOL0     H18613   4.689   8.336   7.724 -0.3064 -1.0743 -0.4060
  138MOL0     H18614   4.756   8.906   7.849  0.5117  1.4807  1.1651
  138MOL0     H18615   4.666   8.996   8.019  1.3692 -0.5050 -0.9519
  138MOL0     H18616   3.635   7.671   8.363 -0.8417  1.1694 -0.7279
  138MOL0     H18617   3.472   7.470   8.328  0.3723  3.3839 -1.1208
  138MOL0     H18618   2.999   7.349   8.366 -0.9041  0.4115  2.0187
  138MOL0     H18619   2.824   7.158   8.334  0.0160 -2.0895 -0.6185
  138MOL0     H18620   2.709   6.995   8.486 -0.3479 -2.3787  1.9608
  138MOL0     H18621   2.719   6.976   8.314 -2.9010 -0.1938  0.5751
  138MOL0     H18622   2.726   6.740   8.496 -1.5903  0.3428  0.0549
  138MOL0     H18623   2.701   6.748   8.322 -3.7075 -1.3635  0.2895
  138MOL0     H18624   2.494   6.868   8.528 -3.1591 -1.6320  0.2865
  138MOL0     H18625   2.474   6.716   8.422  0.2961  0.7156 -2.3487
  138MOL0     H18626   2.532   6.888   8.233  0.8288  2.8314  0.5628
  138MOL0     H18627   2.460   6.998   8.351 -2.3374 -0.4716  1.5492
  138MOL0     H18628   2.112   6.825   8.211 -0.1058 -0.7438 -1.0859
  138MOL0     H18629   3.122   6.889   8.479 -4.6331 -1.5059  1.5941
  138MOL0     H18630   3.288   7.062   8.480  1.0351  2.4276  0.7513
  139MOL0     O18631   4.450   5.221   2.650 -0.2647  0.3488 -0.4738
  139MOL0     C18632   4.383   5.180   2.747 -0.5653 -0.4010 -0.5437
  139MOL0     O18633   4.370   5.242   2.867 -0.1389  0.7059  0.2224
  139MOL0     C18634   4.467   5.314   2.916  0.4426 -0.9491  1.2936
  139MOL0     C18635   4.505   5.440   2.873 -0.2954 -0.4852 -0.1769
  139MOL0     C18636   4.594   5.525   2.947  0.5665  0.7528  0.5969
  139MOL0     C18637   4.654   5.471   3.066  0.3722  0.9213  0.2639
  139MOL0     O18638   4.738   5.545   3.148  0.2686 -0.3672 -0.6627
  139MOL0     C18639   4.736   5.691   3.120  0.0334 -0.8223  0.0270
  139MOL0     C18640   4.818   5.774   3.220  0.4131  0.2998  0.6195
  139MOL0     C18641   4.925   5.852   3.135  0.4293  0.2854 -0.2937
  139MOL0     C18642   4.965   5.959   3.229 -0.7191  0.7711  0.1391
  139MOL0     C18643   5.104   6.019   3.194  0.1561 -0.2594  0.7847
  139MOL0     C18644   5.152   6.124   3.310  0.2211  0.3191  0.6148
  139MOL0     C18645   5.179   6.056   3.445 -0.0513  0.6519 -0.4818
  139MOL0     C18646   5.085   6.116   3.561 -0.1863 -0.3497  0.5323
  139MOL0     N18647   5.100   6.030   3.684  0.3375  0.2730  0.4623
  139MOL0     C18648   5.159   6.063   3.815  0.3711 -0.1005  0.2713
  139MOL0     C18649   5.107   5.978   3.900 -0.2362  0.2263  0.3300
  139MOL0     C18650   5.139   5.980   4.042 -0.2978 -0.5187 -0.4812
  139MOL0     C18651   5.145   5.844   4.105  0.1190 -0.5433  0.4004
  139MOL0     C18652   5.266   5.773   4.059 -0.4921  0.0361  0.0583
  139MOL0     C18653   5.303   5.644   4.146 -1.3580 -0.4154 -0.6135
  139MOL0     O18654   5.363   5.674   4.278 -0.8304  0.0902 -0.1511
  139MOL0     C18655   5.477   5.757   4.277  0.8888  0.0118 -0.3147
  139MOL0     C18656   5.497   5.845   4.385  0.4598  0.1573  0.4987
  139MOL0     C18657   5.614   5.915   4.397  0.1219  0.1532 -0.7801
  139MOL0     C18658   5.623   6.012   4.510 -0.9023  0.2476 -0.1368
  139MOL0     C18659   5.717   5.899   4.299 -1.0409 -0.5277 -0.2658
  139MOL0     C18660   5.846   5.972   4.298  0.5214  0.2041 -0.7554
  139MOL0     O18661   5.900   6.007   4.171 -0.0857  0.3380  0.0813
  139MOL0     C18662   6.008   6.087   4.158  0.0321  0.5861  1.1401
  139MOL0     C18663   6.122   6.032   4.089 -0.1104 -1.0003  0.7787
  139MOL0     C18664   6.232   6.109   4.064 -0.9589 -0.4191 -0.0332
  139MOL0     C18665   6.235   6.238   4.119 -0.5767 -0.3025 -0.1297
  139MOL0     O18666   6.343   6.313   4.086  0.7498 -0.3366  0.5200
  139MOL0     C18667   6.354   6.449   4.126 -0.1691  0.5636  0.2094
  139MOL0     C18668   6.495   6.481   4.093  0.1977 -0.1507 -0.5070
  139MOL0     C18669   6.600   6.427   4.192 -0.3636 -0.1748  0.3904
  139MOL0     C18670   6.733   6.496   4.198 -0.0532  0.8528  0.1311
  139MOL0     C18671   6.843   6.433   4.288 -0.2148  0.6682  0.3397
  139MOL0     C18672   6.982   6.415   4.230 -0.5035  0.0795  0.5483
  139MOL0     C18673   7.072   6.379   4.356 -0.0739 -0.8512 -0.1481
  139MOL0     C18674   7.218   6.420   4.342 -0.1706 -0.9388  0.6781
  139MOL0    Cl18675   7.283   6.442   4.504  0.4438  0.1638  0.3399
  139MOL0     C18676   6.127   6.289   4.187  0.7937 -0.7715 -0.0869
  139MOL0     C18677   6.019   6.209   4.218 -0.1259 -0.1255 -0.8390
  139MOL0     O18678   5.899   5.988   4.411  0.0569  0.2648  0.1414
  139MOL0     C18679   5.699   5.814   4.196  0.7257 -1.1052  0.5584
  139MOL0     C18680   5.580   5.743   4.184  0.5215 -0.2983  0.4346
  139MOL0     N18681   5.021   5.894   3.828 -0.3120 -0.0139 -0.4960
  139MOL0     N18682   5.018   5.924   3.705  0.4203  0.4650  0.1328
  139MOL0     C18683   4.628   5.338   3.096 -0.4192  0.5036  0.0333
  139MOL0     C18684   4.541   5.257   3.021  0.0481  0.0837  0.4722
  139MOL0     C18685   4.299   5.056   2.723 -0.4718  1.3631 -0.4609
  139MOL0     C18686   4.330   4.966   2.616 -0.3235  0.7054 -0.5669
  139MOL0     C18687   4.258   4.851   2.598 -0.2390 -0.2042  0.5426
  139MOL0     C18688   4.149   4.824   2.678  1.2092  0.8002 -1.0280
  139MOL0     O18689   4.095   4.698   2.664 -0.0332 -0.0204 -0.0038
  139MOL0     C18690   3.962   4.670   2.712 -0.3492  0.4035 -0.1123
  139MOL0     C18691   3.901   4.554   2.641 -0.0012  1.0963 -0.6319
  139MOL0     C18692   3.777   4.510   2.714  0.3635  0.4205 -0.0665
  139MOL0     C18693   3.662   4.622   2.715 -1.0039 -0.8178 -0.7423
  139MOL0     C18694   3.519   4.588   2.742 -0.3562  0.5349  0.3906
  139MOL0     C18695   3.403   4.550   2.769  0.3826 -0.3435 -0.2266
  139MOL0     C18696   4.114   4.912   2.783  1.0020  0.0156 -0.7797
  139MOL0     C18697   4.187   5.029   2.804  0.3614  1.0217  0.0739
  139MOL0     H18698   4.466   5.485   2.782  2.3966  1.1378 -0.6642
  139MOL0     H18699   4.598   5.625   2.905 -0.8913 -0.0350 -1.5732
  139MOL0     H18700   4.784   5.701   3.022  1.7331 -4.1272  0.3609
  139MOL0     H18701   4.631   5.722   3.123  0.3568  0.9243 -2.7668
  139MOL0     H18702   4.749   5.832   3.280 -1.9854 -0.9291 -0.7935
  139MOL0     H18703   4.867   5.701   3.285  0.6831 -0.9093 -0.8633
  139MOL0     H18704   5.007   5.785   3.107  0.7596  1.7479 -3.2621
  139MOL0     H18705   4.890   5.891   3.039 -3.9477 -0.9140  0.6036
  139MOL0     H18706   4.889   6.038   3.243 -0.4072  1.6216 -2.3868
  139MOL0     H18707   4.984   5.905   3.322  0.5034 -0.4358 -0.7835
  139MOL0     H18708   5.176   5.939   3.173  0.3824  0.2429 -0.4282
  139MOL0     H18709   5.102   6.082   3.105  1.0850 -0.2478  0.7576
  139MOL0     H18710   5.239   6.177   3.271  0.4546 -0.7941 -0.4410
  139MOL0     H18711   5.067   6.192   3.324  2.5270  3.3678  0.6178
  139MOL0     H18712   5.157   5.948   3.439 -1.6730  0.8683  0.7791
  139MOL0     H18713   5.281   6.054   3.484 -1.0837 -2.2725  2.6899
  139MOL0     H18714   4.978   6.116   3.542 -0.6351 -3.3121  2.4575
  139MOL0     H18715   5.115   6.221   3.564  1.7471 -0.4752 -4.3246
  139MOL0     H18716   5.229   6.141   3.840 -2.1014  1.6530  2.3220
  139MOL0     H18717   5.232   6.036   4.056 -1.1279  0.1151  4.0481
  139MOL0     H18718   5.066   6.031   4.105  0.7367 -1.1718  1.3231
  139MOL0     H18719   5.061   5.781   4.075  2.2661 -3.2572 -0.3342
  139MOL0     H18720   5.144   5.852   4.214  0.1194 -0.3170  0.3846
  139MOL0     H18721   5.347   5.847   4.054 -1.3190  1.3936  3.5330
  139MOL0     H18722   5.254   5.738   3.956 -1.4344  4.0509 -1.4055
  139MOL0     H18723   5.367   5.574   4.092 -4.3121 -4.6475  0.8441
  139MOL0     H18724   5.210   5.587   4.162 -0.5661 -1.6164 -0.1762
  139MOL0     H18725   5.415   5.853   4.455 -2.5519 -1.3527 -2.5974
  139MOL0     H18726   5.522   6.049   4.531 -1.1870 -0.6346  0.0988
  139MOL0     H18727   5.657   5.963   4.602 -6.2044 -0.3800  1.8565
  139MOL0     H18728   5.673   6.105   4.482 -2.5908  0.9601 -0.9172
  139MOL0     H18729   6.111   5.928   4.058 -1.6757 -0.0806 -2.0758
  139MOL0     H18730   6.320   6.067   4.016  2.9003  3.9537  2.3633
  139MOL0     H18731   6.288   6.500   4.056  1.3447 -0.0241 -1.7401
  139MOL0     H18732   6.327   6.464   4.231 -2.6953 -3.8911  0.4379
  139MOL0     H18733   6.518   6.453   3.989 -2.4806  2.5589 -1.9668
  139MOL0     H18734   6.514   6.588   4.094  3.9479 -0.6588  0.1274
  139MOL0     H18735   6.625   6.329   4.151  0.5923  0.7273 -1.3259
  139MOL0     H18736   6.552   6.415   4.289 -3.0313  1.7940 -0.5687
  139MOL0     H18737   6.766   6.482   4.095  1.1755 -2.2023  0.8377
  139MOL0     H18738   6.715   6.601   4.225 -0.5757  1.1252 -1.2035
  139MOL0     H18739   6.813   6.331   4.316 -0.1647  1.0700  1.9496
  139MOL0     H18740   6.839   6.475   4.389 -1.3288 -2.0283  1.5266
  139MOL0     H18741   6.982   6.338   4.153 -4.2242 -0.7616  1.2159
  139MOL0     H18742   7.007   6.514   4.190  0.5551 -0.6229 -0.5961
  139MOL0     H18743   7.064   6.276   4.390  0.5863 -1.3615 -1.4695
  139MOL0     H18744   7.027   6.425   4.445 -3.4146 -0.4668 -1.8804
  139MOL0     H18745   7.213   6.520   4.298 -1.4343 -1.1864  0.2309
  139MOL0     H18746   7.277   6.355   4.277  0.0431 -0.9182  0.8500
  139MOL0     H18747   6.128   6.393   4.216 -0.0270  0.3647 -3.6216
  139MOL0     H18748   5.940   6.249   4.281 -0.3482 -0.6990 -0.7519
  139MOL0     H18749   5.777   5.793   4.123  1.4180  3.4900 -0.3130
  139MOL0     H18750   5.570   5.665   4.109  1.0015 -0.9732  1.0569
  139MOL0     H18751   4.674   5.290   3.181  4.1235  1.4531 -1.6123
  139MOL0     H18752   4.526   5.152   3.046 -0.2211  0.2117  0.8554
  139MOL0     H18753   4.406   5.007   2.551  0.1063  2.0835  0.7405
  139MOL0     H18754   4.274   4.790   2.509 -1.1105  1.9681 -1.1916
  139MOL0     H18755   3.963   4.636   2.816  0.4433 -3.7165 -1.2605
  139MOL0     H18756   3.898   4.757   2.697 -0.2178  0.5279  0.0462
  139MOL0     H18757   3.972   4.471   2.633  0.7082  1.8695 -3.3424
  139MOL0     H18758   3.879   4.581   2.538 -0.7994  1.6562 -0.3252
  139MOL0     H18759   3.805   4.480   2.816  0.6888 -2.6982 -0.9837
  139MOL0     H18760   3.733   4.424   2.663 -0.3537 -0.0349  1.2601
  139MOL0     H18761   3.677   4.677   2.622  0.3422  2.2588  1.1612
  139MOL0     H18762   3.713   4.694   2.779  4.5294 -4.4020 -0.3763
  139MOL0     H18763   3.306   4.509   2.788 -1.1527  2.9558 -0.2525
  139MOL0     H18764   4.032   4.893   2.851 -1.6361  2.5253 -3.0055
  139MOL0     H18765   4.152   5.094   2.883  2.6405  2.4074  0.0291
  140MOL0     O18766   4.203   8.985   0.366 -0.2772 -0.0206  0.2611
  140MOL0     C18767   4.186   8.900   0.277 -0.1508 -0.1788 -0.9163
  140MOL0     O18768   4.062   8.854   0.234  0.6551  0.5830 -0.0545
  140MOL0     C18769   3.959   8.884   0.314  1.3192  0.2702  0.1230
  140MOL0     C18770   3.846   8.951   0.258 -0.3045 -0.1036  0.6128
  140MOL0     C18771   3.736   8.989   0.342 -0.0779 -0.0122  0.8900
  140MOL0     C18772   3.726   8.931   0.472 -0.1919 -0.3318  0.1751
  140MOL0     O18773   3.621   8.975   0.548  0.2339 -0.9194 -0.2108
  140MOL0     C18774   3.644   9.104   0.604  0.4885 -0.5950  0.5018
  140MOL0     C18775   3.629   9.120   0.755  0.2104  0.1386 -0.3253
  140MOL0     C18776   3.474   9.107   0.793 -0.7025 -0.5672 -0.0758
  140MOL0     C18777   3.454   9.088   0.938  0.0462 -0.1205 -1.5806
  140MOL0     C18778   3.490   8.942   0.984  0.3642  0.4969  0.2447
  140MOL0     C18779   3.415   8.888   1.107  0.0937 -0.4877 -0.5403
  140MOL0     C18780   3.447   8.741   1.142 -0.7134 -0.8952  0.2258
  140MOL0     C18781   3.359   8.676   1.246  0.2409  0.3282  0.5774
  140MOL0     N18782   3.228   8.639   1.197  0.0866  0.0909 -0.1586
  140MOL0     C18783   3.189   8.530   1.129  0.1719 -0.2591  0.1241
  140MOL0     C18784   3.060   8.547   1.107  0.9524  0.2096 -0.5847
  140MOL0     C18785   2.962   8.463   1.025 -0.0456  0.2208 -0.3895
  140MOL0     C18786   2.912   8.345   1.112  0.7949  0.7108 -0.1682
  140MOL0     C18787   2.803   8.392   1.213  0.6234 -0.1006 -0.0469
  140MOL0     C18788   2.782   8.289   1.322  0.0987 -0.0671  0.8467
  140MOL0     O18789   2.715   8.350   1.430  0.3241  0.6278 -0.0309
  140MOL0     C18790   2.680   8.280   1.539  0.4220  1.0879 -0.3926
  140MOL0     C18791   2.710   8.139   1.564 -0.6502  0.3216 -1.3494
  140MOL0     C18792   2.665   8.064   1.676 -0.6991  0.1894 -0.4364
  140MOL0     C18793   2.697   7.914   1.679 -0.0592  0.0964  0.5018
  140MOL0     C18794   2.591   8.129   1.773  0.3322 -0.7747  0.0417
  140MOL0     C18795   2.570   8.076   1.913  0.0458  0.0654  0.3909
  140MOL0     O18796   2.670   7.998   1.970 -0.5926 -1.2920 -0.1144
  140MOL0     C18797   2.667   7.968   2.100 -0.0114 -0.0383 -0.2214
  140MOL0     C18798   2.608   8.063   2.197  0.1829  0.3990 -0.5398
  140MOL0     C18799   2.614   8.038   2.333 -0.5929 -0.9270 -1.0522
  140MOL0     C18800   2.665   7.911   2.380  0.5376 -0.7018  0.6529
  140MOL0     O18801   2.671   7.869   2.505 -0.1759  0.4175  0.2063
  140MOL0     C18802   2.559   7.890   2.580  0.2511 -0.2233 -0.3561
  140MOL0     C18803   2.559   7.792   2.692  0.1528  0.4299 -0.8178
  140MOL0     C18804   2.629   7.847   2.826 -0.6510 -0.0916  0.5417
  140MOL0     C18805   2.554   7.971   2.889 -0.3789 -0.0954  0.4422
  140MOL0     C18806   2.650   8.072   2.952  0.1099  0.3679  0.3175
  140MOL0     C18807   2.732   8.004   3.064 -0.2829  0.8090 -0.8135
  140MOL0     C18808   2.871   8.070   3.095  0.2537 -0.0405  0.2780
  140MOL0     C18809   2.986   7.981   3.065 -0.7762  0.0941 -0.9394
  140MOL0    Cl18810   2.987   7.941   2.898 -0.6081 -0.2815 -0.5549
  140MOL0     C18811   2.709   7.818   2.285  0.4902  0.2953  0.7055
  140MOL0     C18812   2.722   7.856   2.149  0.1702 -1.2620  0.1824
  140MOL0     O18813   2.455   8.094   1.964  0.0886  0.4147 -0.0200
  140MOL0     C18814   2.550   8.264   1.746 -0.4699  0.2869  1.3493
  140MOL0     C18815   2.594   8.340   1.632 -0.2087  0.4529  0.2654
  140MOL0     N18816   3.026   8.672   1.161 -0.0155  0.4188 -0.2710
  140MOL0     N18817   3.129   8.725   1.221 -0.5872  0.3857  0.0209
  140MOL0     C18818   3.831   8.854   0.525 -0.7257  0.7422 -0.4158
  140MOL0     C18819   3.943   8.827   0.439  0.4861  0.0432  0.6079
  140MOL0     C18820   4.306   8.836   0.219 -0.2102  0.2810  1.1823
  140MOL0     C18821   4.284   8.737   0.112 -0.5153  0.4116  0.2464
  140MOL0     C18822   4.386   8.670   0.052  0.5652  0.1689  0.0209
  140MOL0     C18823   4.521   8.694   0.100  0.0038  0.4813 -0.5073
  140MOL0     O18824   4.636   8.654   0.026 -0.3570 -0.3759 -0.8760
  140MOL0     C18825   4.620   8.570  -0.088  0.8837  0.0963 -0.0249
  140MOL0     C18826   4.751   8.512  -0.144  0.4929  0.0153 -0.1284
  140MOL0     C18827   4.873   8.601  -0.182  0.9014 -1.0372 -0.0753
  140MOL0     C18828   5.002   8.537  -0.209  0.6337  0.4813  0.5657
  140MOL0     C18829   4.998   8.447  -0.329  0.0476  0.5102  0.5016
  140MOL0     C18830   4.990   8.391  -0.432  0.3203 -0.2476 -0.7504
  140MOL0     C18831   4.541   8.774   0.210  0.1759 -0.3666  0.4190
  140MOL0     C18832   4.435   8.849   0.268 -0.3629  0.0641  0.9990
  140MOL0     H18833   3.827   8.979   0.155  1.9545 -0.0028  0.1710
  140MOL0     H18834   3.655   9.045   0.296 -1.2767 -1.9467  0.5341
  140MOL0     H18835   3.734   9.153   0.567  1.1235  0.1044  2.8282
  140MOL0     H18836   3.552   9.155   0.572 -0.8230 -1.1450  3.1083
  140MOL0     H18837   3.696   9.047   0.800 -0.0949  0.8816  1.4068
  140MOL0     H18838   3.662   9.221   0.781 -0.2459 -0.0777  1.1886
  140MOL0     H18839   3.411   9.190   0.761 -1.8998 -1.9229 -1.3762
  140MOL0     H18840   3.431   9.022   0.738  0.6004 -1.5748  0.3915
  140MOL0     H18841   3.508   9.166   0.993  0.1690 -0.3125 -1.4293
  140MOL0     H18842   3.348   9.099   0.963  0.2357 -0.8732 -0.3645
  140MOL0     H18843   3.462   8.875   0.902  2.0167 -2.1472  1.7097
  140MOL0     H18844   3.599   8.939   0.982  0.4418  1.9104  1.1259
  140MOL0     H18845   3.430   8.954   1.192 -2.4010 -0.0737 -0.3354
  140MOL0     H18846   3.307   8.894   1.089 -0.2184  0.1404  1.3384
  140MOL0     H18847   3.445   8.694   1.043 -2.3721  0.8522 -0.6505
  140MOL0     H18848   3.551   8.758   1.171 -1.3575  1.3825  1.4863
  140MOL0     H18849   3.341   8.736   1.335 -1.1835  0.9504 -0.0929
  140MOL0     H18850   3.402   8.580   1.276 -1.7923 -0.9828 -0.4392
  140MOL0     H18851   3.248   8.452   1.082 -1.6256 -1.0108 -0.9560
  140MOL0     H18852   2.873   8.524   1.011  0.2923  0.5874 -0.9876
  140MOL0     H18853   3.000   8.431   0.927 -2.0675 -0.7276 -0.9121
  140MOL0     H18854   2.989   8.285   1.161  1.1340  0.4407 -1.0190
  140MOL0     H18855   2.871   8.268   1.045  2.0278  0.7847 -1.0358
  140MOL0     H18856   2.707   8.406   1.163 -0.2555 -1.5039  1.1605
  140MOL0     H18857   2.835   8.481   1.268  1.5295 -0.5226  0.1313
  140MOL0     H18858   2.875   8.241   1.355  0.5826 -0.2639 -0.7337
  140MOL0     H18859   2.716   8.210   1.286  0.8897 -1.3473  2.0975
  140MOL0     H18860   2.769   8.082   1.492  1.7014  1.5407 -0.4790
  140MOL0     H18861   2.674   7.880   1.577  2.0331  2.5951 -0.9117
  140MOL0     H18862   2.798   7.878   1.698 -0.4905 -0.0727  2.6993
  140MOL0     H18863   2.627   7.872   1.753 -2.2975  0.9792 -0.9905
  140MOL0     H18864   2.558   8.156   2.173 -0.4289  0.3734  0.5414
  140MOL0     H18865   2.593   8.116   2.405  0.2407 -0.8258 -0.9090
  140MOL0     H18866   2.571   7.995   2.609  1.2080  0.0850 -1.7820
  140MOL0     H18867   2.467   7.889   2.523  0.6207 -1.9958 -0.9734
  140MOL0     H18868   2.455   7.784   2.728  0.2388  2.8733  0.1693
  140MOL0     H18869   2.583   7.690   2.660 -2.1883  0.3722 -2.6268
  140MOL0     H18870   2.729   7.874   2.789 -1.1846  1.2185 -0.0040
  140MOL0     H18871   2.651   7.758   2.884 -1.1140 -0.8177 -0.3713
  140MOL0     H18872   2.504   8.032   2.814 -0.0324  0.4395  0.6395
  140MOL0     H18873   2.477   7.942   2.962 -1.9584  0.4638 -0.9529
  140MOL0     H18874   2.595   8.159   2.988 -0.1944 -0.6217  2.3670
  140MOL0     H18875   2.712   8.116   2.874 -2.6320  0.3269 -2.0725
  140MOL0     H18876   2.674   8.003   3.157  0.8267  0.8555 -0.0971
  140MOL0     H18877   2.745   7.903   3.023 -1.9712 -1.3206  3.2542
  140MOL0     H18878   2.882   8.108   3.197  0.0126 -1.8659  1.0325
  140MOL0     H18879   2.881   8.154   3.025 -0.4430  1.2152  1.6342
  140MOL0     H18880   2.995   7.892   3.128  3.9139  1.0276  0.0349
  140MOL0     H18881   3.078   8.032   3.093 -1.4702  0.7761  0.1748
  140MOL0     H18882   2.753   7.723   2.314  0.6072  0.2961  0.5336
  140MOL0     H18883   2.765   7.788   2.076  0.9959 -0.1821 -0.3659
  140MOL0     H18884   2.496   8.319   1.823 -1.0209  3.6352 -1.1882
  140MOL0     H18885   2.572   8.445   1.616 -0.9644  1.0241  4.0414
  140MOL0     H18886   3.819   8.817   0.626 -0.0084  0.4670 -0.4236
  140MOL0     H18887   4.019   8.767   0.488  5.0713  4.3945 -0.3586
  140MOL0     H18888   4.183   8.709   0.084 -0.3792 -3.1186  2.7102
  140MOL0     H18889   4.370   8.598  -0.027  0.2947 -1.2226  1.2816
  140MOL0     H18890   4.553   8.483  -0.081  0.2303  0.6966  1.5905
  140MOL0     H18891   4.563   8.630  -0.160 -0.0771 -1.6324 -0.7765
  140MOL0     H18892   4.724   8.463  -0.238  0.3682 -0.5660  0.2049
  140MOL0     H18893   4.774   8.429  -0.076 -2.1410 -1.3064 -0.7201
  140MOL0     H18894   4.898   8.669  -0.100 -0.1824 -0.5739 -0.1242
  140MOL0     H18895   4.847   8.661  -0.269  0.9385  0.1052  0.6840
  140MOL0     H18896   5.015   8.466  -0.127 -2.9430  2.4430  3.0987
  140MOL0     H18897   5.083   8.608  -0.225 -0.8717  1.6252 -3.0479
  140MOL0     H18898   4.975   8.358  -0.533  1.4349 -0.3418 -0.8985
  140MOL0     H18899   4.644   8.797   0.238  1.5101 -0.9223 -3.3889
  140MOL0     H18900   4.461   8.910   0.354  0.5599  0.4180  0.4835
  141MOL0     O18901   6.457   5.385   4.883 -1.2666  0.2775  0.1623
  141MOL0     C18902   6.359   5.355   4.945 -0.5304  0.0014  0.1390
  141MOL0     O18903   6.344   5.235   5.018  0.6875 -0.1284 -0.1466
  141MOL0     C18904   6.450   5.156   5.037  0.2524 -0.3294  1.4664
  141MOL0     C18905   6.586   5.183   5.036  0.4487  0.6905 -0.1957
  141MOL0     C18906   6.680   5.077   5.050  0.4896  0.5737  0.0561
  141MOL0     C18907   6.638   4.945   5.075  0.3602 -0.2349  0.2196
  141MOL0     O18908   6.714   4.828   5.082  0.9889  0.7701 -0.0878
  141MOL0     C18909   6.845   4.845   5.116 -0.5054  0.6236  0.2102
  141MOL0     C18910   6.922   4.706   5.099 -0.0877  0.1677 -1.1533
  141MOL0     C18911   7.072   4.716   5.133  0.2017  0.4548 -1.5680
  141MOL0     C18912   7.148   4.583   5.093  0.2747  0.1958  0.5087
  141MOL0     C18913   7.293   4.616   5.101  0.2724  0.2134 -0.4505
  141MOL0     C18914   7.378   4.489   5.044  0.1668  0.0037  0.0584
  141MOL0     C18915   7.383   4.373   5.139 -0.6526 -0.2047 -0.6537
  141MOL0     C18916   7.428   4.242   5.069 -0.5821 -0.2041  0.3357
  141MOL0     N18917   7.563   4.248   5.026 -0.5890 -0.2968 -0.2392
  141MOL0     C18918   7.611   4.310   4.917  0.7715 -0.4777  0.0507
  141MOL0     C18919   7.742   4.293   4.930  0.6341  0.1946 -0.0456
  141MOL0     C18920   7.834   4.334   4.824  0.0300  0.7122 -0.4980
  141MOL0     C18921   7.954   4.225   4.820 -0.5574 -0.4239  0.7596
  141MOL0     C18922   8.091   4.289   4.770  0.0662  0.1079  0.6790
  141MOL0     C18923   8.094   4.301   4.619  0.0651  0.3044 -0.1001
  141MOL0     O18924   8.073   4.170   4.552 -0.2875  0.2332 -0.1216
  141MOL0     C18925   8.074   4.182   4.418 -0.6264 -0.0124 -0.0586
  141MOL0     C18926   7.972   4.195   4.334  0.1174  0.8394  0.3357
  141MOL0     C18927   7.976   4.188   4.195 -0.1340 -0.5745  0.5731
  141MOL0     C18928   7.839   4.213   4.123 -0.6632  0.0239  0.3907
  141MOL0     C18929   8.098   4.155   4.133 -0.5715  1.2292 -0.2108
  141MOL0     C18930   8.124   4.140   3.985  0.6004  0.0020 -0.0808
  141MOL0     O18931   8.026   4.189   3.903  0.1122  0.1021  0.3082
  141MOL0     C18932   8.062   4.182   3.770 -0.4642 -0.1374  0.2801
  141MOL0     C18933   8.120   4.289   3.700  0.4953 -1.1919 -0.7993
  141MOL0     C18934   8.134   4.288   3.562  0.1500  0.3432  0.3302
  141MOL0     C18935   8.085   4.183   3.486  0.8981  0.9514  0.1840
  141MOL0     O18936   8.088   4.176   3.349 -0.2055  0.4806 -0.2507
  141MOL0     C18937   8.076   4.290   3.266 -0.0182 -0.5744  0.1191
  141MOL0     C18938   8.155   4.276   3.136 -0.1675  0.4679  0.1631
  141MOL0     C18939   8.306   4.238   3.150  0.4831  0.2384  0.0904
  141MOL0     C18940   8.371   4.198   3.012  0.7076 -0.1258 -0.5620
  141MOL0     C18941   8.461   4.299   2.955 -0.2073 -0.7196 -0.4653
  141MOL0     C18942   8.501   4.292   2.803  0.5314 -0.4158  0.2824
  141MOL0     C18943   8.384   4.289   2.713  0.0606  0.0517 -0.2140
  141MOL0     C18944   8.439   4.287   2.574  0.5505  0.3375 -0.4387
  141MOL0    Cl18945   8.528   4.439   2.542 -0.3694  0.0510 -0.0695
  141MOL0     C18946   8.013   4.075   3.558 -0.3561 -1.1588  0.5970
  141MOL0     C18947   7.998   4.077   3.692 -0.3811 -0.4648  0.4680
  141MOL0     O18948   8.230   4.089   3.948 -0.5077 -0.2654 -0.6885
  141MOL0     C18949   8.208   4.143   4.221  0.7465  0.4080 -0.9692
  141MOL0     C18950   8.202   4.166   4.357  0.5752 -0.6639  0.6023
  141MOL0     N18951   7.769   4.240   5.058 -0.5112  0.5148 -0.2810
  141MOL0     N18952   7.658   4.206   5.111 -0.7091  0.6761  0.6734
  141MOL0     C18953   6.502   4.921   5.087 -0.4365  0.4692  0.4171
  141MOL0     C18954   6.416   5.029   5.073 -0.1792  0.4571 -0.5004
  141MOL0     C18955   6.241   5.444   4.929  0.3781  0.8069  0.4319
  141MOL0     C18956   6.253   5.575   4.876  0.1187  0.4879 -0.0611
  141MOL0     C18957   6.135   5.645   4.840 -0.3683  0.1367  0.8119
  141MOL0     C18958   6.006   5.605   4.880 -0.4539  0.5166  0.0949
  141MOL0     O18959   5.882   5.666   4.843  0.3800  0.0972  0.1502
  141MOL0     C18960   5.867   5.697   4.712  0.7861 -0.4254  0.4065
  141MOL0     C18961   5.757   5.608   4.644 -0.3447  0.0091 -0.1267
  141MOL0     C18962   5.617   5.628   4.704  0.1705  0.4315  0.4457
  141MOL0     C18963   5.512   5.532   4.628 -0.8361 -0.3653  0.7403
  141MOL0     C18964   5.385   5.542   4.708  0.0183 -0.3160 -0.9040
  141MOL0     C18965   5.282   5.540   4.770 -0.6353 -0.5175  0.8800
  141MOL0     C18966   6.006   5.482   4.938 -0.4639  0.2044 -0.0493
  141MOL0     C18967   6.115   5.398   4.965 -0.1337  0.1761 -0.7092
  141MOL0     H18968   6.615   5.286   5.023 -2.6292  1.6064 -0.7224
  141MOL0     H18969   6.787   5.086   5.041  1.0072 -1.6701  2.6955
  141MOL0     H18970   6.897   4.919   5.053  2.4207 -3.1083 -2.1889
  141MOL0     H18971   6.842   4.883   5.218 -0.7857  1.1863  0.0005
  141MOL0     H18972   6.873   4.629   5.161  0.9792  1.4092  1.4012
  141MOL0     H18973   6.917   4.680   4.993  0.5828 -1.2379 -0.8739
  141MOL0     H18974   7.116   4.798   5.077  0.3617 -0.2546 -2.5053
  141MOL0     H18975   7.082   4.735   5.240 -0.8812 -2.7435 -0.7716
  141MOL0     H18976   7.123   4.510   5.170  5.2891 -2.8014 -0.2615
  141MOL0     H18977   7.112   4.541   4.999 -1.4480  0.7430  0.8949
  141MOL0     H18978   7.306   4.708   5.044  0.3503 -0.2707 -1.2260
  141MOL0     H18979   7.320   4.618   5.207 -0.7199 -2.4850 -0.0578
  141MOL0     H18980   7.342   4.459   4.945  0.3284  0.3639 -0.1104
  141MOL0     H18981   7.479   4.529   5.034  0.2171  0.2562  1.3311
  141MOL0     H18982   7.453   4.396   5.220 -1.4848 -1.2956  0.4108
  141MOL0     H18983   7.282   4.368   5.182 -0.6681  4.2279  0.3349
  141MOL0     H18984   7.364   4.210   4.987 -1.2941 -0.5882  1.0318
  141MOL0     H18985   7.420   4.155   5.135 -2.2581  0.8208  1.5493
  141MOL0     H18986   7.561   4.340   4.826 -4.7179 -1.7659  2.2392
  141MOL0     H18987   7.779   4.334   4.730 -1.3812  3.8935  0.2281
  141MOL0     H18988   7.878   4.433   4.838  0.5611  0.4154 -0.0238
  141MOL0     H18989   7.929   4.134   4.765  0.4995  0.5702 -1.5439
  141MOL0     H18990   7.967   4.197   4.924  0.5813  1.7344  1.2719
  141MOL0     H18991   8.181   4.233   4.796 -0.6958 -1.6505 -0.2414
  141MOL0     H18992   8.111   4.388   4.811  1.8092  0.0154  0.1369
  141MOL0     H18993   8.182   4.352   4.578 -0.1628  0.7968  0.0206
  141MOL0     H18994   8.020   4.375   4.590 -1.1799 -0.3036  1.3889
  141MOL0     H18995   7.873   4.199   4.378 -0.0224  1.5415 -0.0226
  141MOL0     H18996   7.831   4.141   4.041  0.7435 -0.4881  0.6665
  141MOL0     H18997   7.751   4.199   4.186 -0.2709 -0.9467  0.7326
  141MOL0     H18998   7.834   4.315   4.082 -0.0378  0.7573  2.0341
  141MOL0     H18999   8.149   4.380   3.752  1.5341 -1.1500 -1.4321
  141MOL0     H19000   8.182   4.371   3.512  0.5006  1.6976  2.7426
  141MOL0     H19001   7.969   4.303   3.248 -0.3524  1.3767  2.8732
  141MOL0     H19002   8.114   4.383   3.307 -0.0630 -0.3375 -0.3681
  141MOL0     H19003   8.098   4.200   3.081 -0.5067  0.8555 -0.0239
  141MOL0     H19004   8.150   4.367   3.075 -2.7459  1.3168  1.4775
  141MOL0     H19005   8.304   4.155   3.221 -0.5943  0.4408  0.3194
  141MOL0     H19006   8.370   4.312   3.200 -1.5541  1.1085  1.5364
  141MOL0     H19007   8.436   4.114   3.040  0.0709 -0.5428 -0.3104
  141MOL0     H19008   8.294   4.173   2.938 -0.6394  0.7208  0.5083
  141MOL0     H19009   8.547   4.302   3.022 -0.9697  3.5129  0.6299
  141MOL0     H19010   8.411   4.395   2.969  2.4332  0.2883  4.6852
  141MOL0     H19011   8.556   4.385   2.788  0.5249  0.0453  2.6427
  141MOL0     H19012   8.572   4.210   2.789 -0.0631 -1.1089  1.1169
  141MOL0     H19013   8.316   4.374   2.726 -3.6131 -1.6616 -4.9862
  141MOL0     H19014   8.322   4.198   2.717  2.3946 -1.6539 -1.0148
  141MOL0     H19015   8.361   4.282   2.497  0.8941 -3.3939 -0.7013
  141MOL0     H19016   8.512   4.207   2.562  1.9986  1.6361 -0.6411
  141MOL0     H19017   7.967   3.993   3.503  1.2406 -1.2981 -0.5823
  141MOL0     H19018   7.941   3.999   3.740 -1.6550 -0.8579 -1.5963
  141MOL0     H19019   8.300   4.133   4.165 -0.2652 -1.1411 -2.4860
  141MOL0     H19020   8.297   4.147   4.405  0.5777 -1.1679  0.4011
  141MOL0     H19021   6.477   4.817   5.104 -2.3991  0.7721 -0.2608
  141MOL0     H19022   6.310   5.008   5.084  0.3957 -1.4129  2.7481
  141MOL0     H19023   6.354   5.607   4.853  1.1950 -3.5777 -1.8722
  141MOL0     H19024   6.146   5.730   4.773  0.9005 -0.5268  0.1358
  141MOL0     H19025   5.843   5.803   4.701 -0.5507 -0.9002 -2.0746
  141MOL0     H19026   5.961   5.671   4.662  2.1145  2.1792  1.3625
  141MOL0     H19027   5.784   5.502   4.644  3.6746  0.7686 -3.4031
  141MOL0     H19028   5.750   5.639   4.539 -0.9608  0.7903  0.1295
  141MOL0     H19029   5.582   5.730   4.682 -2.7151 -0.2410  1.3868
  141MOL0     H19030   5.619   5.610   4.812  0.2383  4.0120  1.1622
  141MOL0     H19031   5.542   5.427   4.619  1.6791 -0.2722  5.1873
  141MOL0     H19032   5.507   5.581   4.530  1.4495 -2.1045 -0.3381
  141MOL0     H19033   5.185   5.531   4.816 -1.1896 -2.5862 -0.5300
  141MOL0     H19034   5.903   5.456   4.962 -0.4676  1.7419  1.9082
  141MOL0     H19035   6.106   5.295   4.999  1.0107  0.9579  2.2994
  142MOL0     O19036   9.376   8.733   0.071 -0.3587 -0.3133  0.2297
  142MOL0     C19037   9.436   8.786   0.166  0.6553 -0.0161  0.7520
  142MOL0     O19038   9.456   8.734   0.287  0.3763 -0.3631 -0.0744
  142MOL0     C19039   9.444   8.601   0.305  1.1402 -0.1351  0.7936
  142MOL0     C19040   9.416   8.554   0.432  0.2413  0.0573 -0.2356
  142MOL0     C19041   9.408   8.421   0.478 -0.5363  0.9840 -1.1277
  142MOL0     C19042   9.430   8.333   0.373  0.5947  0.3372 -0.5196
  142MOL0     O19043   9.408   8.196   0.414 -0.1293 -0.3647  0.4082
  142MOL0     C19044   9.483   8.098   0.348  0.0100 -0.1569  0.6359
  142MOL0     C19045   9.487   7.979   0.450 -0.6802 -0.6129 -0.0851
  142MOL0     C19046   9.569   7.863   0.417 -0.2597  0.8417  0.9408
  142MOL0     C19047   9.493   7.728   0.444  0.6756 -0.9277  0.4953
  142MOL0     C19048   9.563   7.597   0.397 -0.2212  0.1825  0.0882
  142MOL0     C19049   9.473   7.470   0.412  0.0663  0.4602 -0.0475
  142MOL0     C19050   9.427   7.464   0.559  0.2201  0.1699 -0.4585
  142MOL0     C19051   9.375   7.328   0.604 -0.7522  0.1369  0.1436
  142MOL0     N19052   9.270   7.297   0.499 -0.4217  0.6591  0.0618
  142MOL0     C19053   9.285   7.201   0.398 -0.0586  0.2520  0.4530
  142MOL0     C19054   9.187   7.202   0.312  0.3159 -1.0639  0.3327
  142MOL0     C19055   9.182   7.114   0.190  0.0703 -0.6249  0.1957
  142MOL0     C19056   9.142   6.967   0.204 -0.2917  0.5970  0.0754
  142MOL0     C19057   9.100   6.900   0.070  0.0310  0.7872 -0.8886
  142MOL0     C19058   9.087   6.753   0.081 -0.4904  0.9890 -0.8115
  142MOL0     O19059   9.066   6.691  -0.046  0.3881  0.3038 -0.4939
  142MOL0     C19060   9.125   6.569  -0.075  0.1967  0.1646 -0.2047
  142MOL0     C19061   9.179   6.475   0.016  0.2024 -0.0278  0.1002
  142MOL0     C19062   9.232   6.353  -0.036 -0.0275  0.6897 -0.2610
  142MOL0     C19063   9.274   6.256   0.076  0.0538 -0.5642  0.0996
  142MOL0     C19064   9.240   6.320  -0.168  0.7218  0.1646  0.0161
  142MOL0     C19065   9.293   6.194  -0.225 -0.0995 -0.3121 -0.2579
  142MOL0     O19066   9.332   6.208  -0.357  0.5220 -0.3759  0.2116
  142MOL0     C19067   9.317   6.100  -0.441  0.7485  0.4009 -0.0387
  142MOL0     C19068   9.419   6.011  -0.475  0.2716  0.3888  0.3585
  142MOL0     C19069   9.384   5.908  -0.572  0.6598  0.3964  0.5909
  142MOL0     C19070   9.247   5.890  -0.616  0.4010 -0.2998 -0.3694
  142MOL0     O19071   9.212   5.785  -0.707  0.2850  0.3287  0.2445
  142MOL0     C19072   9.319   5.698  -0.753 -0.8411  0.1691 -0.0743
  142MOL0     C19073   9.259   5.581  -0.825 -0.3809  0.2345  0.4148
  142MOL0     C19074   9.358   5.530  -0.933  0.5066  0.4424 -0.3027
  142MOL0     C19075   9.294   5.405  -0.988  0.2302  0.6138  0.2005
  142MOL0     C19076   9.355   5.360  -1.120 -0.8911 -0.8607  0.2031
  142MOL0     C19077   9.275   5.251  -1.179  0.7013 -0.5740 -0.7735
  142MOL0     C19078   9.326   5.190  -1.305  0.7008  0.4288  1.3588
  142MOL0     C19079   9.218   5.074  -1.342 -0.1684 -0.4158  0.2271
  142MOL0    Cl19080   9.261   4.959  -1.474 -0.0853 -0.3993 -0.2979
  142MOL0     C19081   9.152   5.988  -0.587  0.3344  0.3543  0.6529
  142MOL0     C19082   9.188   6.090  -0.502  0.1217  0.2217  0.4208
  142MOL0     O19083   9.316   6.091  -0.153  0.0909 -1.0078 -0.6539
  142MOL0     C19084   9.186   6.417  -0.262  0.4393 -0.7110 -0.7763
  142MOL0     C19085   9.132   6.539  -0.214 -0.5491  0.2764  0.3371
  142MOL0     N19086   9.107   7.314   0.351 -0.8406  0.3384  0.1726
  142MOL0     N19087   9.155   7.366   0.461  0.3551 -0.8123 -0.0751
  142MOL0     C19088   9.459   8.369   0.244  0.3739 -0.3218  0.1403
  142MOL0     C19089   9.477   8.507   0.207  0.4991  0.1552  0.3144
  142MOL0     C19090   9.490   8.923   0.153  0.0613 -0.7105  0.6730
  142MOL0     C19091   9.486   8.979   0.022  0.8270 -0.3190  0.0162
  142MOL0     C19092   9.534   9.102   0.002 -0.4580  0.1850 -0.2855
  142MOL0     C19093   9.601   9.175   0.100  0.5353 -0.1608 -0.5218
  142MOL0     O19094   9.652   9.298   0.069  0.4810 -0.5725  0.4804
  142MOL0     C19095   9.654   9.404   0.171  0.0557  0.5077  0.4311
  142MOL0     C19096   9.674   9.542   0.103 -0.0290  0.1457  0.8696
  142MOL0     C19097   9.804   9.551   0.022  0.1292  0.3919  0.3099
  142MOL0     C19098   9.808   9.681  -0.058 -0.1041  0.9901  0.1035
  142MOL0     C19099   9.933   9.668  -0.144  0.0652  0.4840 -0.5046
  142MOL0     C19100  10.024   9.653  -0.215 -0.5180  0.5920  0.5527
  142MOL0     C19101   9.607   9.113   0.221 -0.1458  0.2980  1.0165
  142MOL0     C19102   9.549   8.993   0.250  0.8998  0.1637 -0.0158
  142MOL0     H19103   9.395   8.626   0.511  4.5502  1.3121  0.0169
  142MOL0     H19104   9.375   8.394   0.578 -3.3759  0.8827 -2.0174
  142MOL0     H19105   9.434   8.063   0.257 -0.9145  1.3732  0.5081
  142MOL0     H19106   9.582   8.130   0.314 -0.9772 -0.0449 -2.4380
  142MOL0     H19107   9.529   8.029   0.538  1.2672  1.9580 -2.2928
  142MOL0     H19108   9.381   7.958   0.461 -0.3066 -2.0160  1.1992
  142MOL0     H19109   9.605   7.862   0.313 -2.1388 -3.6467  0.0874
  142MOL0     H19110   9.666   7.863   0.467  0.2642 -0.0264 -0.0164
  142MOL0     H19111   9.468   7.719   0.550 -1.8468 -1.0106 -0.0298
  142MOL0     H19112   9.393   7.737   0.401  1.1796  3.2649 -0.1723
  142MOL0     H19113   9.566   7.606   0.288  1.6650  1.4910  0.2073
  142MOL0     H19114   9.665   7.584   0.434 -0.6488 -1.4228  0.7881
  142MOL0     H19115   9.390   7.473   0.340  0.0803 -0.2302 -0.0940
  142MOL0     H19116   9.527   7.380   0.384 -0.7893  0.5322 -2.1500
  142MOL0     H19117   9.513   7.483   0.624  0.6399 -0.5186 -0.7952
  142MOL0     H19118   9.351   7.539   0.582 -0.2239 -0.0661 -1.1125
  142MOL0     H19119   9.325   7.337   0.701 -1.0344  0.8160 -0.0547
  142MOL0     H19120   9.467   7.270   0.616  0.4624  1.7594 -0.8638
  142MOL0     H19121   9.368   7.130   0.400 -0.1035  0.2091  1.3967
  142MOL0     H19122   9.107   7.149   0.119 -0.1985 -2.4617 -0.4920
  142MOL0     H19123   9.284   7.115   0.149 -0.3516  2.4227 -1.0246
  142MOL0     H19124   9.056   6.960   0.272 -1.5804  0.7952 -1.4723
  142MOL0     H19125   9.223   6.917   0.256  0.8239  2.2835  0.0394
  142MOL0     H19126   9.171   6.910  -0.013 -1.9270  0.7283 -2.6395
  142MOL0     H19127   9.004   6.942   0.039 -0.2501  0.5966 -0.2770
  142MOL0     H19128   9.006   6.722   0.147  0.9612  2.7111  1.9710
  142MOL0     H19129   9.177   6.723   0.135  0.6300  0.1139 -3.0473
  142MOL0     H19130   9.190   6.500   0.121 -3.0561 -0.0832  0.5814
  142MOL0     H19131   9.228   6.290   0.169 -3.7626  2.5459 -2.6013
  142MOL0     H19132   9.246   6.153   0.052  1.9940 -1.5477  1.7862
  142MOL0     H19133   9.384   6.256   0.080  0.3623  2.7383 -2.9567
  142MOL0     H19134   9.511   6.017  -0.417 -0.6433 -0.4355  1.9511
  142MOL0     H19135   9.460   5.834  -0.592  0.5445 -0.5312  3.1971
  142MOL0     H19136   9.382   5.760  -0.818 -1.1843  0.1446 -0.4360
  142MOL0     H19137   9.363   5.642  -0.670  0.3690 -1.3454 -1.6789
  142MOL0     H19138   9.232   5.502  -0.754  1.6480  1.9981  3.3674
  142MOL0     H19139   9.166   5.604  -0.877 -0.7292 -0.3508  0.7640
  142MOL0     H19140   9.458   5.510  -0.895  1.4528  2.5744 -1.4976
  142MOL0     H19141   9.370   5.601  -1.015  0.4367  3.0048  1.7701
  142MOL0     H19142   9.316   5.333  -0.909  1.2199 -0.4051 -0.9596
  142MOL0     H19143   9.185   5.410  -1.002  0.4918  0.2429 -2.5589
  142MOL0     H19144   9.456   5.328  -1.090 -0.5234  1.3249  1.4770
  142MOL0     H19145   9.352   5.439  -1.195 -4.0881 -0.4799  0.6045
  142MOL0     H19146   9.270   5.169  -1.106 -0.6354  1.0537  1.0689
  142MOL0     H19147   9.180   5.297  -1.207 -0.0972 -0.2379  2.1556
  142MOL0     H19148   9.422   5.142  -1.283  0.5715 -2.2118 -2.7661
  142MOL0     H19149   9.336   5.255  -1.392  2.2000 -1.6048 -0.0818
  142MOL0     H19150   9.132   5.137  -1.367 -0.7024 -0.4850  1.7486
  142MOL0     H19151   9.187   5.012  -1.257 -0.8655 -2.0986 -1.1860
  142MOL0     H19152   9.056   5.995  -0.637  0.1589  0.4107  0.9956
  142MOL0     H19153   9.118   6.169  -0.478  0.6873  0.7836  0.2561
  142MOL0     H19154   9.187   6.397  -0.369 -0.7652 -6.0240 -0.0647
  142MOL0     H19155   9.104   6.614  -0.288  1.3665  2.5066  1.7146
  142MOL0     H19156   9.487   8.294   0.170 -1.4229 -0.4324 -0.4708
  142MOL0     H19157   9.514   8.543   0.111 -1.2433  0.5426 -0.2599
  142MOL0     H19158   9.435   8.941  -0.066 -0.9698  0.9288  0.4818
  142MOL0     H19159   9.534   9.142  -0.099 -0.1738 -0.4693 -0.5490
  142MOL0     H19160   9.568   9.406   0.238 -0.9598 -3.4929 -0.4449
  142MOL0     H19161   9.733   9.390   0.246 -1.8667 -1.8715  2.1944
  142MOL0     H19162   9.673   9.614   0.185  0.3782 -2.7416  3.5590
  142MOL0     H19163   9.587   9.555   0.037  0.7378  0.4711 -0.1053
  142MOL0     H19164   9.820   9.466  -0.045  0.9491  0.6323  0.1871
  142MOL0     H19165   9.887   9.541   0.092  0.4925 -0.8456 -0.2667
  142MOL0     H19166   9.805   9.767   0.010  1.7880  1.6773 -0.6078
  142MOL0     H19167   9.722   9.686  -0.125 -0.0756 -0.4152 -0.0709
  142MOL0     H19168  10.112   9.642  -0.275  1.5222 -0.5924  3.5360
  142MOL0     H19169   9.654   9.158   0.308 -0.0715 -1.6519  2.0294
  142MOL0     H19170   9.553   8.956   0.352  1.0352 -1.7808 -0.6861
  143MOL0     O19171  10.398   0.855   4.557  0.3215  0.1832  0.3293
  143MOL0     C19172  10.454   0.905   4.460  1.0322 -0.0024 -1.3687
  143MOL0     O19173  10.385   0.979   4.367  0.4114 -0.2934  0.6819
  143MOL0     C19174  10.249   0.990   4.380 -0.0008  0.0044  0.2832
  143MOL0     C19175  10.159   0.882   4.389 -0.2298 -0.6792 -0.1882
  143MOL0     C19176  10.020   0.917   4.400 -0.9209 -0.8922  0.5920
  143MOL0     C19177   9.974   1.051   4.387 -0.1631  0.7303 -0.1628
  143MOL0     O19178   9.844   1.085   4.398 -0.4538  0.3021 -0.4553
  143MOL0     C19179   9.747   0.985   4.384  0.1569 -0.3017  0.6157
  143MOL0     C19180   9.603   1.045   4.385 -0.1758  0.1766  0.5095
  143MOL0     C19181   9.556   1.125   4.263  0.8819 -0.0790  1.1858
  143MOL0     C19182   9.656   1.220   4.194  0.1066 -0.6111  0.9694
  143MOL0     C19183   9.579   1.310   4.101  0.9970 -0.9300 -0.4449
  143MOL0     C19184   9.530   1.232   3.981  0.1353  1.3989 -0.4970
  143MOL0     C19185   9.484   1.316   3.861 -0.0038 -0.4674  0.0603
  143MOL0     C19186   9.578   1.391   3.769  0.0923  0.6320  0.1418
  143MOL0     N19187   9.655   1.310   3.676 -0.2715  0.1570 -0.4005
  143MOL0     C19188   9.667   1.335   3.544  0.5355  0.5251 -0.3035
  143MOL0     C19189   9.747   1.241   3.497  0.5357 -0.1847 -0.8904
  143MOL0     C19190   9.792   1.240   3.357  0.6017 -0.5150 -0.0357
  143MOL0     C19191   9.906   1.335   3.338 -1.6085  0.0873 -0.1985
  143MOL0     C19192  10.007   1.343   3.454 -0.3514 -0.1511 -0.4006
  143MOL0     C19193  10.132   1.437   3.423  0.6862 -0.5854  0.3012
  143MOL0     O19194  10.212   1.436   3.544 -0.1227  0.1729  0.4363
  143MOL0     C19195  10.312   1.532   3.556  0.7359 -0.0597  0.8154
  143MOL0     C19196  10.332   1.635   3.464 -0.2414 -0.8533  0.1733
  143MOL0     C19197  10.432   1.726   3.470 -0.1448  0.4442 -0.5260
  143MOL0     C19198  10.435   1.821   3.351 -0.4648 -0.6358 -0.0307
  143MOL0     C19199  10.521   1.725   3.580 -1.1370  1.0663 -0.4768
  143MOL0     C19200  10.618   1.823   3.604 -0.6759  0.9906 -0.3634
  143MOL0     O19201  10.704   1.802   3.701  0.6242  0.3630  0.2812
  143MOL0     C19202  10.799   1.898   3.724 -0.5760  0.2550 -0.9677
  143MOL0     C19203  10.879   1.945   3.621  0.1574 -0.3014  0.2049
  143MOL0     C19204  10.973   2.037   3.651  0.7521  0.0077 -1.0052
  143MOL0     C19205  10.999   2.082   3.779 -0.2480  0.9763 -0.3942
  143MOL0     O19206  11.103   2.162   3.818 -0.0331 -0.7382  0.1544
  143MOL0     C19207  11.191   2.216   3.718 -0.1409  0.6028 -0.5831
  143MOL0     C19208  11.310   2.290   3.779 -0.0773  0.7603 -0.2547
  143MOL0     C19209  11.412   2.187   3.838  0.2160 -0.8537  0.3382
  143MOL0     C19210  11.532   2.263   3.875 -0.1808  0.1345  0.2599
  143MOL0     C19211  11.644   2.159   3.910  0.5597 -0.5139  0.1922
  143MOL0     C19212  11.785   2.218   3.937  0.3552  1.1297  0.0291
  143MOL0     C19213  11.844   2.283   3.810 -0.2834  0.3734 -0.2654
  143MOL0     C19214  11.992   2.301   3.815 -0.2810 -0.0136 -0.4533
  143MOL0    Cl19215  12.090   2.148   3.858  0.1741  0.5775  0.0063
  143MOL0     C19216  10.923   2.026   3.878 -0.3215 -0.0210  0.3879
  143MOL0     C19217  10.826   1.935   3.851 -0.2526  1.3756 -0.6470
  143MOL0     O19218  10.617   1.918   3.535 -0.2973 -0.1950 -0.5719
  143MOL0     C19219  10.506   1.612   3.668 -0.2003 -1.5345  0.3564
  143MOL0     C19220  10.397   1.527   3.665 -0.1087 -0.8273  0.0480
  143MOL0     N19221   9.785   1.153   3.604 -0.0551 -0.3195 -0.3721
  143MOL0     N19222   9.734   1.204   3.708 -0.0736 -0.6320 -0.7318
  143MOL0     C19223  10.067   1.157   4.381 -1.3290  0.8939 -0.0352
  143MOL0     C19224  10.204   1.122   4.377 -0.6977 -0.0234  0.7275
  143MOL0     C19225  10.599   0.929   4.456 -0.1380 -0.4088  0.0445
  143MOL0     C19226  10.645   1.052   4.401  0.2342  0.8023 -0.3096
  143MOL0     C19227  10.781   1.070   4.376 -0.7717 -0.1987 -0.2297
  143MOL0     C19228  10.885   0.975   4.407 -0.3712 -0.3714 -0.0211
  143MOL0     O19229  11.018   1.007   4.383  0.4015  0.4123  0.4127
  143MOL0     C19230  11.123   0.937   4.459  0.3358 -0.2586 -0.8611
  143MOL0     C19231  11.120   0.993   4.606 -0.1978  1.4170  0.3150
  143MOL0     C19232  11.246   0.958   4.674  0.3335  0.5911  0.4446
  143MOL0     C19233  11.259   0.805   4.706 -0.2324 -0.9218  0.3043
  143MOL0     C19234  11.152   0.751   4.796 -0.1202  0.7860 -0.1528
  143MOL0     C19235  11.049   0.710   4.852 -1.8561 -0.3327 -0.1560
  143MOL0     C19236  10.835   0.862   4.477 -0.6075  0.7311  1.1266
  143MOL0     C19237  10.698   0.832   4.495  0.4165  0.3910 -0.1802
  143MOL0     H19238  10.198   0.784   4.417  0.6908 -0.5486 -0.9611
  143MOL0     H19239   9.969   0.821   4.404  3.6411 -3.6103  1.7232
  143MOL0     H19240   9.775   0.940   4.288  0.6409 -0.1971  0.7069
  143MOL0     H19241   9.741   0.903   4.456 -0.5769  0.3218  1.2844
  143MOL0     H19242   9.539   0.958   4.400 -3.9340  2.2128 -2.1420
  143MOL0     H19243   9.601   1.112   4.472  2.7433  2.6834 -1.1174
  143MOL0     H19244   9.533   1.054   4.183  1.1943  2.1851 -1.0435
  143MOL0     H19245   9.463   1.178   4.288 -1.5223 -1.8207 -2.9720
  143MOL0     H19246   9.706   1.286   4.265 -0.2110  0.8868 -0.1630
  143MOL0     H19247   9.727   1.153   4.143 -1.8856 -0.4671 -2.3443
  143MOL0     H19248   9.504   1.374   4.147  0.8303 -0.7433 -0.9711
  143MOL0     H19249   9.653   1.380   4.061  1.6642  0.5597  3.0518
  143MOL0     H19250   9.596   1.153   3.944 -2.4923  0.3323 -3.4155
  143MOL0     H19251   9.441   1.173   4.007  1.3021  0.6484  2.1503
  143MOL0     H19252   9.430   1.242   3.801 -1.7465 -0.5591  1.6648
  143MOL0     H19253   9.416   1.390   3.906  1.4257  2.0153 -1.6319
  143MOL0     H19254   9.642   1.437   3.845 -0.2675 -0.6133  1.2299
  143MOL0     H19255   9.525   1.473   3.719  2.3534  1.6528 -0.7208
  143MOL0     H19256   9.619   1.419   3.494 -3.3364 -1.4850 -0.3410
  143MOL0     H19257   9.818   1.139   3.324 -0.7580 -1.0973  0.5885
  143MOL0     H19258   9.705   1.266   3.295  2.0988  0.7118 -1.7343
  143MOL0     H19259   9.868   1.436   3.324 -2.0946 -0.3408 -2.1605
  143MOL0     H19260   9.952   1.312   3.242  0.6478  1.0246  0.5804
  143MOL0     H19261  10.051   1.244   3.471  2.9184  1.5212  2.1243
  143MOL0     H19262   9.958   1.377   3.545 -0.5727 -3.5440  0.9084
  143MOL0     H19263  10.090   1.536   3.402  0.0424 -0.4589  2.0304
  143MOL0     H19264  10.195   1.404   3.339  1.0767 -1.3346  0.8811
  143MOL0     H19265  10.262   1.639   3.382  0.6088 -0.3123 -0.5544
  143MOL0     H19266  10.537   1.847   3.320  0.3439  1.4359  3.7528
  143MOL0     H19267  10.392   1.776   3.261 -2.2805 -1.7316  1.3138
  143MOL0     H19268  10.387   1.919   3.363 -2.0773 -1.5753  1.7196
  143MOL0     H19269  10.876   1.921   3.516  4.3406  1.1109 -0.4220
  143MOL0     H19270  11.033   2.074   3.569 -0.0705 -0.3251 -1.7657
  143MOL0     H19271  11.229   2.131   3.659 -1.9921 -1.3441  0.8675
  143MOL0     H19272  11.127   2.278   3.655 -1.1361  1.7763  1.4904
  143MOL0     H19273  11.338   2.352   3.693 -2.9232  1.2752 -0.9053
  143MOL0     H19274  11.266   2.351   3.858  4.2268  0.3838  2.8064
  143MOL0     H19275  11.417   2.109   3.762 -0.1935 -0.8268  0.2841
  143MOL0     H19276  11.361   2.146   3.925 -2.4171  1.5502  0.0683
  143MOL0     H19277  11.567   2.339   3.804  3.0671 -0.4576  1.0506
  143MOL0     H19278  11.510   2.322   3.965 -1.7792 -2.0605  1.3901
  143MOL0     H19279  11.653   2.091   3.825  2.3319 -3.4384  2.5363
  143MOL0     H19280  11.621   2.086   3.988  0.1688  1.6639  2.2205
  143MOL0     H19281  11.773   2.301   4.008  0.0166  2.1209 -1.1542
  143MOL0     H19282  11.846   2.136   3.975 -1.2652  0.7270  1.9508
  143MOL0     H19283  11.792   2.375   3.781 -0.7535  0.2112  0.0521
  143MOL0     H19284  11.810   2.214   3.732 -1.0770  2.1742 -1.5823
  143MOL0     H19285  12.014   2.375   3.893  3.5996 -1.7701  0.3413
  143MOL0     H19286  12.030   2.358   3.729 -0.4378  0.4909 -0.1956
  143MOL0     H19287  10.958   2.058   3.976  0.4428  2.5760 -0.6760
  143MOL0     H19288  10.762   1.897   3.929 -0.3264  1.7555 -0.5211
  143MOL0     H19289  10.582   1.610   3.745  0.8633  2.4852 -0.3337
  143MOL0     H19290  10.407   1.452   3.743 -0.8147  0.6404  1.6062
  143MOL0     H19291  10.043   1.263   4.389  0.9038  1.6979 -2.4766
  143MOL0     H19292  10.269   1.209   4.376  1.3535 -1.4930 -0.8479
  143MOL0     H19293  10.580   1.132   4.368  1.0112  0.1579 -3.8706
  143MOL0     H19294  10.819   1.161   4.331 -1.1338 -0.9727 -2.2081
  143MOL0     H19295  11.121   0.828   4.451 -1.7835 -0.3298 -0.0797
  143MOL0     H19296  11.209   0.996   4.425 -1.3910  2.3076 -1.0947
  143MOL0     H19297  11.035   0.951   4.660 -1.0765  1.7053 -0.8060
  143MOL0     H19298  11.090   1.098   4.613 -1.9732  0.9429  0.2376
  143MOL0     H19299  11.257   1.022   4.762 -1.1342 -0.2341  1.2746
  143MOL0     H19300  11.333   0.989   4.616 -1.7709  0.4276 -3.0797
  143MOL0     H19301  11.348   0.795   4.767 -1.4172 -2.0630  1.9258
  143MOL0     H19302  11.268   0.750   4.612  6.1636  0.7163 -0.5082
  143MOL0     H19303  10.957   0.689   4.903 -0.4135 -3.5751  1.3826
  143MOL0     H19304  10.904   0.788   4.516  0.8392  0.5324 -1.5205
  143MOL0     H19305  10.674   0.733   4.533 -1.6496 -0.6797 -3.8315
  144MOL0     O19306   0.688   7.735   0.248 -0.0327 -0.1964  0.3956
  144MOL0     C19307   0.729   7.656   0.160  1.1339  0.0647  0.3769
  144MOL0     O19308   0.659   7.612   0.049  0.0118  0.3826 -0.7505
  144MOL0     C19309   0.532   7.661   0.040 -0.5300 -0.0134 -0.1922
  144MOL0     C19310   0.427   7.576   0.087 -0.7377  0.0711 -1.1999
  144MOL0     C19311   0.297   7.626   0.090 -0.8184 -0.0226 -0.2122
  144MOL0     C19312   0.262   7.756   0.052 -0.5103  0.8903 -0.8124
  144MOL0     O19313   0.131   7.794   0.052 -0.0578  0.0341  0.1398
  144MOL0     C19314   0.102   7.935   0.039 -0.1852  0.5253 -0.1433
  144MOL0     C19315  -0.035   7.964   0.100  0.6657  0.9355 -0.3082
  144MOL0     C19316  -0.037   8.103   0.153  0.3256 -0.5742  0.4086
  144MOL0     C19317  -0.155   8.145   0.245 -0.8360 -0.1191 -0.4224
  144MOL0     C19318  -0.160   8.289   0.268  0.5742  0.0124  0.1100
  144MOL0     C19319  -0.274   8.346   0.356 -0.8858 -0.0370 -0.9737
  144MOL0     C19320  -0.403   8.361   0.280  0.2508 -0.1641 -0.4472
  144MOL0     C19321  -0.403   8.495   0.204 -0.2181 -0.5715  0.4690
  144MOL0     N19322  -0.486   8.598   0.278 -0.2903  0.0199  0.1993
  144MOL0     C19323  -0.625   8.615   0.275  0.2154 -0.3864 -0.3555
  144MOL0     C19324  -0.646   8.708   0.379 -0.3805  0.2084  0.1371
  144MOL0     C19325  -0.782   8.761   0.426  0.4235  0.3586 -0.0235
  144MOL0     C19326  -0.851   8.656   0.516 -0.6070 -0.3500  0.2222
  144MOL0     C19327  -0.976   8.701   0.583 -0.6170 -0.9975  0.6415
  144MOL0     C19328  -1.013   8.594   0.675 -1.0756  0.1058  0.6548
  144MOL0     O19329  -1.154   8.608   0.710 -0.0896 -0.3089 -0.2359
  144MOL0     C19330  -1.182   8.596   0.843  0.1363 -0.5038  0.4087
  144MOL0     C19331  -1.242   8.705   0.896 -0.1692  0.6711 -1.1103
  144MOL0     C19332  -1.263   8.712   1.038  0.5250 -0.3124  1.0679
  144MOL0     C19333  -1.319   8.840   1.086 -0.1708  0.7194 -0.0252
  144MOL0     C19334  -1.233   8.597   1.113  0.4883  0.6977 -0.4496
  144MOL0     C19335  -1.238   8.588   1.265  0.8181  0.7553  0.0141
  144MOL0     O19336  -1.174   8.481   1.318  0.4296  0.4491  0.3337
  144MOL0     C19337  -1.188   8.474   1.452 -0.0901  0.1525 -0.3634
  144MOL0     C19338  -1.318   8.439   1.518  0.4318 -0.2798  0.1142
  144MOL0     C19339  -1.315   8.410   1.655 -0.5923  0.1960  0.8830
  144MOL0     C19340  -1.203   8.406   1.734 -0.2823  0.2847 -0.6834
  144MOL0     O19341  -1.220   8.371   1.861 -0.1947  0.2372 -0.1442
  144MOL0     C19342  -1.148   8.253   1.899 -0.4331  0.6140 -0.8171
  144MOL0     C19343  -1.199   8.191   2.026  0.6604 -0.6876 -0.3389
  144MOL0     C19344  -1.121   8.239   2.158  0.4345 -0.3643 -1.1854
  144MOL0     C19345  -1.189   8.166   2.268 -0.1983  0.0756 -0.2727
  144MOL0     C19346  -1.132   8.213   2.400  0.7836  0.4790  0.8550
  144MOL0     C19347  -1.233   8.181   2.499  0.4276 -0.0388 -0.8734
  144MOL0     C19348  -1.184   8.262   2.626  0.2876  0.1181 -0.0376
  144MOL0     C19349  -1.309   8.334   2.696 -0.6900 -0.0333  0.9608
  144MOL0    Cl19350  -1.392   8.449   2.582  0.2498 -0.0175  0.4862
  144MOL0     C19351  -1.080   8.462   1.676  0.3488  0.6148  0.7408
  144MOL0     C19352  -1.074   8.490   1.539 -0.1857 -0.5653  0.1373
  144MOL0     O19353  -1.295   8.680   1.322 -0.4432  0.3371 -0.5111
  144MOL0     C19354  -1.171   8.481   1.053 -0.6171 -0.3727 -1.4272
  144MOL0     C19355  -1.150   8.484   0.918 -0.2969  0.4989  0.4564
  144MOL0     N19356  -0.524   8.748   0.427 -0.0834  0.0045  0.2489
  144MOL0     N19357  -0.430   8.675   0.374 -0.0306  0.5575 -0.2629
  144MOL0     C19358   0.365   7.826  -0.017  0.4182 -0.9954 -0.8924
  144MOL0     C19359   0.494   7.789  -0.011 -0.0605 -1.2754 -0.8150
  144MOL0     C19360   0.873   7.633   0.171 -0.5687 -0.3726 -0.6577
  144MOL0     C19361   0.942   7.646   0.298 -0.0512  1.2961  0.9007
  144MOL0     C19362   1.081   7.627   0.303 -0.3796  0.3574  0.3356
  144MOL0     C19363   1.156   7.598   0.183 -0.8945 -0.2342 -0.5388
  144MOL0     O19364   1.294   7.612   0.178 -0.0313  0.1360 -0.5710
  144MOL0     C19365   1.358   7.733   0.222  0.0783 -0.7594  0.3810
  144MOL0     C19366   1.329   7.846   0.119 -0.2047  0.4856 -1.1887
  144MOL0     C19367   1.395   7.983   0.152 -1.1887 -1.0599 -0.6087
  144MOL0     C19368   1.333   8.102   0.082 -1.0128  0.4281  0.4700
  144MOL0     C19369   1.432   8.221   0.097  0.8722 -0.1999 -0.0612
  144MOL0     C19370   1.517   8.304   0.120  0.6048 -0.9200  0.4258
  144MOL0     C19371   1.077   7.579   0.064 -0.0824  0.4958  0.4573
  144MOL0     C19372   0.942   7.588   0.061  0.8399  0.1736  0.7513
  144MOL0     H19373   0.446   7.478   0.128  1.6279  1.8241  2.4172
  144MOL0     H19374   0.228   7.556   0.136  0.9717 -1.1408  0.9434
  144MOL0     H19375   0.181   7.989   0.092 -1.9234  2.6124  0.4597
  144MOL0     H19376   0.106   7.971  -0.064 -0.9045 -1.0453 -0.7525
  144MOL0     H19377  -0.112   7.956   0.022  0.6025 -0.6683 -0.1034
  144MOL0     H19378  -0.068   7.897   0.180 -0.8155 -0.2803 -1.8673
  144MOL0     H19379   0.053   8.133   0.207  0.1440  1.1969 -0.1976
  144MOL0     H19380  -0.041   8.157   0.058 -2.9059 -1.1971  0.0734
  144MOL0     H19381  -0.243   8.115   0.187 -0.6508  0.4262 -1.0021
  144MOL0     H19382  -0.152   8.094   0.341  0.2344 -1.5505 -1.1820
  144MOL0     H19383  -0.057   8.297   0.305  0.5801  0.5195 -0.0111
  144MOL0     H19384  -0.158   8.345   0.174 -2.4945  2.0921  1.1566
  144MOL0     H19385  -0.288   8.286   0.446  0.9952  2.0414  0.8362
  144MOL0     H19386  -0.260   8.443   0.405  0.3464 -1.5360  1.8377
  144MOL0     H19387  -0.415   8.272   0.217  0.7708 -1.1331  0.7742
  144MOL0     H19388  -0.486   8.355   0.350 -1.2536 -1.7779 -2.2375
  144MOL0     H19389  -0.448   8.474   0.107  2.6533  1.3106 -1.4370
  144MOL0     H19390  -0.300   8.531   0.189 -0.0781 -0.2503  2.0115
  144MOL0     H19391  -0.703   8.577   0.209  0.5659 -0.7308 -0.5828
  144MOL0     H19392  -0.787   8.860   0.472 -1.8164 -0.3897  1.5043
  144MOL0     H19393  -0.844   8.775   0.337 -1.1222  1.2863  1.1547
  144MOL0     H19394  -0.775   8.627   0.589  0.9155  0.1276 -1.0987
  144MOL0     H19395  -0.878   8.571   0.453 -1.1896 -0.7194  0.9602
  144MOL0     H19396  -1.042   8.725   0.499  1.8702  0.3511 -1.0621
  144MOL0     H19397  -0.952   8.791   0.639  1.5256  2.0111 -4.3877
  144MOL0     H19398  -0.957   8.602   0.769 -2.0334 -0.9979  1.3429
  144MOL0     H19399  -0.991   8.494   0.638 -3.0654  0.3614 -1.4293
  144MOL0     H19400  -1.275   8.785   0.829 -0.4178  1.3674 -0.1749
  144MOL0     H19401  -1.357   8.905   1.006  2.0000  2.8800  0.5720
  144MOL0     H19402  -1.404   8.818   1.151 -1.1130 -0.5603 -1.6149
  144MOL0     H19403  -1.241   8.889   1.145  1.2868 -0.7842 -0.5999
  144MOL0     H19404  -1.413   8.430   1.466 -0.3464  2.2608  0.9264
  144MOL0     H19405  -1.406   8.370   1.698  1.1346  0.0908  4.8292
  144MOL0     H19406  -1.154   8.184   1.814 -0.9377 -0.2326 -0.1181
  144MOL0     H19407  -1.042   8.275   1.912 -0.1186 -0.2520 -1.7835
  144MOL0     H19408  -1.302   8.221   2.044  0.9152 -0.9067  1.7973
  144MOL0     H19409  -1.204   8.081   2.026 -0.3299 -0.6649 -1.9766
  144MOL0     H19410  -1.130   8.344   2.185 -2.8187 -1.3746  2.5493
  144MOL0     H19411  -1.022   8.193   2.155 -1.7855 -6.0568 -0.3320
  144MOL0     H19412  -1.297   8.186   2.271 -0.0972  0.5487  1.9904
  144MOL0     H19413  -1.171   8.059   2.258 -1.8915 -0.2744  0.0915
  144MOL0     H19414  -1.116   8.321   2.403  3.2875  0.3827 -2.8152
  144MOL0     H19415  -1.035   8.168   2.422 -0.2899 -2.2385  0.4031
  144MOL0     H19416  -1.333   8.210   2.467 -0.1261  2.0102  2.3099
  144MOL0     H19417  -1.244   8.075   2.525  0.4768  0.1024 -0.2680
  144MOL0     H19418  -1.105   8.337   2.618  0.3745  0.0730  0.3690
  144MOL0     H19419  -1.147   8.189   2.699 -2.8297 -0.2407  1.3464
  144MOL0     H19420  -1.286   8.382   2.791  2.0203 -0.0092  0.3810
  144MOL0     H19421  -1.385   8.260   2.721 -1.7970  0.6132 -0.3435
  144MOL0     H19422  -0.982   8.455   1.723 -0.3825  0.6426  2.3565
  144MOL0     H19423  -0.984   8.523   1.489 -0.8153 -1.3202 -1.5884
  144MOL0     H19424  -1.129   8.399   1.110  1.7215  0.1505 -2.2552
  144MOL0     H19425  -1.113   8.400   0.861  0.5643 -0.8929  2.9542
  144MOL0     H19426   0.344   7.926  -0.054  3.2230  0.3801  0.8721
  144MOL0     H19427   0.571   7.853  -0.053  2.6926 -2.0395  2.6299
  144MOL0     H19428   0.890   7.672   0.389 -0.2066  1.9469  0.6324
  144MOL0     H19429   1.126   7.627   0.402 -2.1369 -1.7925  1.2197
  144MOL0     H19430   1.334   7.771   0.322 -0.0886 -2.4469  1.0190
  144MOL0     H19431   1.467   7.728   0.208 -0.0888 -2.9263 -0.4308
  144MOL0     H19432   1.221   7.865   0.127 -0.7479 -2.8384  1.3059
  144MOL0     H19433   1.360   7.819   0.018  2.4931 -2.8730  0.3505
  144MOL0     H19434   1.501   7.976   0.127 -1.0827 -0.4860 -0.3132
  144MOL0     H19435   1.390   8.004   0.259  0.1114  3.7867 -1.2932
  144MOL0     H19436   1.243   8.134   0.135 -0.4881  1.6500  0.6698
  144MOL0     H19437   1.328   8.086  -0.026  2.9032  1.0238  0.0264
  144MOL0     H19438   1.580   8.391   0.116  0.3625 -0.7279  0.7487
  144MOL0     H19439   1.130   7.559  -0.028  0.3944 -1.6237  1.1410
  144MOL0     H19440   0.885   7.575  -0.030  1.8174 -2.0391  0.4084
  145MOL0     O19441   6.712   7.385  10.720 -0.6222  0.2801  0.9926
  145MOL0     C19442   6.743   7.326  10.619  0.1333  0.6986  0.5264
  145MOL0     O19443   6.860   7.337  10.549 -0.3163 -0.1510  0.1451
  145MOL0     C19444   6.937   7.446  10.570  0.0666 -0.0087  0.3829
  145MOL0     C19445   6.889   7.574  10.537  1.2567 -0.3422  0.1280
  145MOL0     C19446   6.973   7.685  10.548 -0.3917  0.1704 -0.5738
  145MOL0     C19447   7.106   7.672  10.590  0.8315  0.2117 -0.1487
  145MOL0     O19448   7.164   7.787  10.603  0.6209 -0.3298 -0.1295
  145MOL0     C19449   7.297   7.798  10.661  0.1922 -0.3004  0.2623
  145MOL0     C19450   7.345   7.945  10.655 -1.1977  0.6735 -0.1057
  145MOL0     C19451   7.491   7.972  10.672 -0.3629 -0.5406 -0.2472
  145MOL0     C19452   7.538   7.976  10.820 -0.5580  0.0601 -0.5986
  145MOL0     C19453   7.691   8.021  10.830 -0.3093 -0.0635 -0.3911
  145MOL0     C19454   7.752   8.124  10.734 -0.2014 -0.8194  0.6364
  145MOL0     C19455   7.707   8.268  10.767  0.8512  0.1562  0.6634
  145MOL0     C19456   7.775   8.373  10.672  0.1834  0.0756 -0.7783
  145MOL0     N19457   7.750   8.517  10.723 -0.4301  0.3625 -0.6251
  145MOL0     C19458   7.747   8.634  10.647 -0.0396 -0.4672  0.8306
  145MOL0     C19459   7.757   8.734  10.734 -0.2786  0.4881 -0.8885
  145MOL0     C19460   7.746   8.875  10.704 -0.4999  0.2782  0.2957
  145MOL0     C19461   7.751   8.965  10.834 -0.1531 -0.4495  0.1329
  145MOL0     C19462   7.741   9.111  10.780  0.0746 -0.8619  0.5832
  145MOL0     C19463   7.749   9.232  10.879 -0.6974  0.6874  0.9671
  145MOL0     O19464   7.693   9.207  11.007 -0.4058  0.6642  0.1134
  145MOL0     C19465   7.564   9.245  11.014 -0.0349  1.1921  0.0001
  145MOL0     C19466   7.473   9.264  10.912 -0.2086  0.3101 -0.5829
  145MOL0     C19467   7.337   9.287  10.940  0.1197  0.1072 -0.4361
  145MOL0     C19468   7.251   9.321  10.819  0.5518  1.0481  1.0328
  145MOL0     C19469   7.288   9.282  11.076 -0.2317  0.0993  0.6188
  145MOL0     C19470   7.136   9.311  11.103  0.0455 -0.3127 -0.0639
  145MOL0     O19471   7.097   9.261  11.229  0.2401 -0.1944 -1.0220
  145MOL0     C19472   6.968   9.271  11.265 -0.0572  0.4571  0.0045
  145MOL0     C19473   6.875   9.165  11.269 -0.2613 -0.7045  0.0356
  145MOL0     C19474   6.741   9.188  11.311  0.3711  0.3568  0.1445
  145MOL0     C19475   6.714   9.305  11.375 -0.6480 -0.6066  0.1428
  145MOL0     O19476   6.585   9.315  11.434 -0.7031 -0.4241  0.2309
  145MOL0     C19477   6.586   9.399  11.554  0.3439  0.2390  0.2486
  145MOL0     C19478   6.453   9.407  11.629  0.5346  0.0838 -0.4593
  145MOL0     C19479   6.343   9.509  11.585  0.9003  0.8522 -0.2916
  145MOL0     C19480   6.279   9.452  11.456  0.6936 -0.8207  0.0698
  145MOL0     C19481   6.170   9.545  11.392  0.0790 -0.5778  0.7160
  145MOL0     C19482   6.211   9.689  11.347 -0.5032 -0.2881 -0.2867
  145MOL0     C19483   6.353   9.696  11.289 -0.0433  0.6071 -0.5586
  145MOL0     C19484   6.384   9.606  11.173  0.4462  0.0704  0.3548
  145MOL0    Cl19485   6.241   9.562  11.065 -0.2328  0.2034  0.4631
  145MOL0     C19486   6.800   9.410  11.367  0.2602  0.0814 -1.4050
  145MOL0     C19487   6.930   9.395  11.311 -0.6388 -0.4004 -0.2943
  145MOL0     O19488   7.072   9.395  11.035  1.0557  0.3040  0.7617
  145MOL0     C19489   7.378   9.253  11.181 -0.1831 -1.0044 -0.1002
  145MOL0     C19490   7.517   9.253  11.148 -0.0816 -0.1540 -0.0280
  145MOL0     N19491   7.768   8.686  10.859  0.2460 -0.2810  0.3960
  145MOL0     N19492   7.767   8.556  10.854 -0.5223 -0.3428  0.6387
  145MOL0     C19493   7.157   7.541  10.615 -0.0760  0.1780  0.9346
  145MOL0     C19494   7.071   7.431  10.616 -0.4545  0.4336 -1.3717
  145MOL0     C19495   6.635   7.238  10.572 -0.5515 -0.3707 -0.5368
  145MOL0     C19496   6.662   7.150  10.464  0.2700 -0.5784 -0.3635
  145MOL0     C19497   6.563   7.066  10.413 -0.4984  0.4187 -0.2808
  145MOL0     C19498   6.443   7.053  10.483 -0.8364  0.0382  0.1306
  145MOL0     O19499   6.360   6.951  10.424 -0.4707 -0.8526 -0.0541
  145MOL0     C19500   6.225   6.954  10.477 -0.4893 -0.0404  0.0067
  145MOL0     C19501   6.150   6.840  10.404 -0.5901 -0.4077 -0.4348
  145MOL0     C19502   6.134   6.857  10.249 -0.9737  0.6583  0.1088
  145MOL0     C19503   6.063   6.741  10.186 -0.3275 -1.0442 -0.6267
  145MOL0     C19504   6.131   6.610  10.208  0.0447 -0.2742 -0.7029
  145MOL0     C19505   6.157   6.491  10.229 -0.3772  0.1362 -1.2087
  145MOL0     C19506   6.411   7.140  10.587  0.0167  0.0406  0.3035
  145MOL0     C19507   6.501   7.244  10.626 -0.1483 -0.3723  0.8334
  145MOL0     H19508   6.791   7.577  10.490  1.9344 -0.7029 -1.3764
  145MOL0     H19509   6.930   7.780  10.520 -2.5593 -0.5978 -0.0610
  145MOL0     H19510   7.307   7.752  10.760  1.4005 -4.6613 -1.6489
  145MOL0     H19511   7.366   7.744  10.597  1.3921  1.4791 -0.0078
  145MOL0     H19512   7.313   7.981  10.557  1.7188 -1.3441 -1.9427
  145MOL0     H19513   7.293   8.000  10.734 -1.3320  1.9763 -1.0539
  145MOL0     H19514   7.547   7.910  10.601 -0.8708  1.3905 -2.4339
  145MOL0     H19515   7.506   8.066  10.619  0.9038 -2.4311 -3.5247
  145MOL0     H19516   7.479   8.046  10.880  4.6929  3.6211  1.1291
  145MOL0     H19517   7.522   7.879  10.870 -1.5412  0.7154  0.4143
  145MOL0     H19518   7.719   8.042  10.934  0.0849 -1.5242 -0.1878
  145MOL0     H19519   7.755   7.934  10.813  0.4984  0.3450  0.4389
  145MOL0     H19520   7.859   8.107  10.747 -0.0053 -0.9304 -0.9984
  145MOL0     H19521   7.717   8.101  10.633 -0.3241 -0.4810  0.6000
  145MOL0     H19522   7.599   8.273  10.755  0.9175 -0.5182 -0.3027
  145MOL0     H19523   7.718   8.288  10.874  0.1394  0.8670  0.6142
  145MOL0     H19524   7.735   8.360  10.571 -0.8976 -1.9427 -0.1465
  145MOL0     H19525   7.884   8.358  10.673 -0.0206 -2.0089 -2.4875
  145MOL0     H19526   7.732   8.641  10.540  0.8911  0.2863  0.7433
  145MOL0     H19527   7.832   8.895  10.639  1.0046 -1.0124  1.8028
  145MOL0     H19528   7.660   8.902  10.642 -3.8300 -2.6058  3.2211
  145MOL0     H19529   7.834   8.949  10.904 -1.4785  0.1437  1.9237
  145MOL0     H19530   7.659   8.950  10.892 -0.6812  1.3639 -0.1433
  145MOL0     H19531   7.644   9.112  10.730 -0.4806  1.1534  1.5791
  145MOL0     H19532   7.810   9.141  10.700  0.1970  1.2001  1.3949
  145MOL0     H19533   7.712   9.319  10.824  0.1853 -1.2980 -3.0886
  145MOL0     H19534   7.857   9.248  10.888 -0.2352  2.2473 -4.1463
  145MOL0     H19535   7.510   9.271  10.810 -0.4958  2.9741 -0.5900
  145MOL0     H19536   7.280   9.281  10.722  1.4037 -3.3675  2.8715
  145MOL0     H19537   7.153   9.273  10.825  1.2040 -0.4029  0.4376
  145MOL0     H19538   7.239   9.430  10.821  0.6956  1.0911 -0.1031
  145MOL0     H19539   6.911   9.067  11.238  0.5795 -1.2739  2.5873
  145MOL0     H19540   6.681   9.098  11.314  1.0503 -0.0947  0.6335
  145MOL0     H19541   6.672   9.363  11.611  0.3637 -1.0876 -0.5681
  145MOL0     H19542   6.608   9.502  11.526  0.6096 -0.4410 -2.4123
  145MOL0     H19543   6.421   9.308  11.663 -1.2969  0.9340  0.4660
  145MOL0     H19544   6.475   9.455  11.725  2.0199 -1.1374 -0.1523
  145MOL0     H19545   6.374   9.613  11.566 -0.6110  1.2295 -0.8128
  145MOL0     H19546   6.260   9.516  11.655  1.0374 -0.6948  0.0587
  145MOL0     H19547   6.357   9.425  11.385  2.0223 -1.4333  1.7076
  145MOL0     H19548   6.225   9.363  11.489 -1.2554  0.0803 -0.5263
  145MOL0     H19549   6.097   9.558  11.473 -0.7808 -1.4945  0.1144
  145MOL0     H19550   6.111   9.492  11.317  2.0553 -1.5441 -0.2179
  145MOL0     H19551   6.134   9.723  11.276 -1.7294  0.1311  1.1934
  145MOL0     H19552   6.218   9.753  11.435  0.0828  1.5459 -1.5999
  145MOL0     H19553   6.428   9.666  11.362 -0.1650  1.0039 -0.2676
  145MOL0     H19554   6.371   9.803  11.275  2.2854 -0.0269 -3.3139
  145MOL0     H19555   6.425   9.512  11.213  0.7733 -0.0279 -0.1920
  145MOL0     H19556   6.470   9.640  11.114  0.5995 -1.7469 -0.5367
  145MOL0     H19557   6.764   9.506  11.403 -0.9788 -0.9325  0.2220
  145MOL0     H19558   6.989   9.486  11.311  0.8526 -1.3043 -2.0722
  145MOL0     H19559   7.344   9.258  11.284 -2.3135 -1.1999 -0.7390
  145MOL0     H19560   7.587   9.223  11.225  0.1298  3.2103  1.2652
  145MOL0     H19561   7.263   7.528  10.634 -0.5063 -0.3714  3.2005
  145MOL0     H19562   7.114   7.333  10.636  0.5863  1.2648  0.8890
  145MOL0     H19563   6.764   7.138  10.430  1.6294 -1.7095  3.5505
  145MOL0     H19564   6.577   7.015  10.319  0.1046 -0.5049  0.3024
  145MOL0     H19565   6.219   6.936  10.585 -0.3682 -0.2647 -0.0217
  145MOL0     H19566   6.176   7.050  10.462  0.2172  0.2841 -0.2778
  145MOL0     H19567   6.051   6.837  10.449  0.3214  0.2387  1.7264
  145MOL0     H19568   6.206   6.748  10.428  0.9427  0.3513 -0.9684
  145MOL0     H19569   6.230   6.878  10.201 -1.6778 -0.5937 -1.9869
  145MOL0     H19570   6.082   6.952  10.238 -2.8607 -0.3268  0.1556
  145MOL0     H19571   6.024   6.768  10.087  0.8087  2.2169 -0.3174
  145MOL0     H19572   5.969   6.730  10.240  0.5631 -0.3955  1.1414
  145MOL0     H19573   6.165   6.387  10.252  0.8980  0.4318 -0.1932
  145MOL0     H19574   6.316   7.138  10.640 -0.6066  1.0563 -0.7223
  145MOL0     H19575   6.475   7.309  10.709 -2.5469 -1.3248  0.9111
  146MOL0     O19576   4.312   0.044  10.728  0.3702  0.9288 -0.1877
  146MOL0     C19577   4.279   0.020  10.844  0.2949 -0.8549  0.3401
  146MOL0     O19578   4.163   0.055  10.915  0.1729  0.3495  0.1450
  146MOL0     C19579   4.073   0.138  10.854  0.3189  0.8972  0.2625
  146MOL0     C19580   4.024   0.105  10.722 -0.6219 -0.2110 -0.8218
  146MOL0     C19581   3.946   0.194  10.660 -0.4888  0.6889 -0.2260
  146MOL0     C19582   3.913   0.320  10.714 -1.0462 -0.1845 -0.0205
  146MOL0     O19583   3.841   0.409  10.631 -0.8131  0.2666 -0.3489
  146MOL0     C19584   3.713   0.430  10.681  0.4343 -0.6068  0.6747
  146MOL0     C19585   3.659   0.553  10.606 -0.1050  0.1580 -0.1841
  146MOL0     C19586   3.512   0.586  10.629 -0.7776  0.5894 -1.0207
  146MOL0     C19587   3.469   0.690  10.538 -0.2091 -0.5285 -0.1340
  146MOL0     C19588   3.316   0.716  10.545  1.2106  0.6051 -0.4960
  146MOL0     C19589   3.272   0.866  10.543 -0.1775  0.4645  1.2514
  146MOL0     C19590   3.117   0.861  10.534  0.5171  0.1153 -0.2860
  146MOL0     C19591   3.051   0.841  10.672 -0.5886 -1.8541  0.0857
  146MOL0     N19592   2.906   0.846  10.667 -0.0969 -0.5027  0.4900
  146MOL0     C19593   2.824   0.736  10.650 -0.2563 -0.9763 -0.3503
  146MOL0     C19594   2.700   0.774  10.689  0.0226 -0.5932  0.4475
  146MOL0     C19595   2.563   0.703  10.710 -0.4860  0.8902 -0.1216
  146MOL0     C19596   2.475   0.690  10.579 -0.5257 -0.1803 -0.3063
  146MOL0     C19597   2.447   0.832  10.517  0.2510 -0.6700 -0.1066
  146MOL0     C19598   2.421   0.848  10.365  0.8205 -0.3026 -0.3096
  146MOL0     O19599   2.523   0.786  10.296 -0.4741 -0.1733  0.0160
  146MOL0     C19600   2.616   0.868  10.238 -0.7408 -1.0383  0.7431
  146MOL0     C19601   2.587   0.932  10.115  0.4075  0.0641 -0.7326
  146MOL0     C19602   2.688   1.026  10.070 -1.2234 -0.1310  0.3416
  146MOL0     C19603   2.660   1.077   9.938  0.4466 -0.4721  0.9883
  146MOL0     C19604   2.820   1.044  10.138  0.3265  0.3961  0.2302
  146MOL0     C19605   2.930   1.135  10.095  0.1991  0.1656 -0.1548
  146MOL0     O19606   3.049   1.104  10.147 -0.5680 -0.4784 -0.3752
  146MOL0     C19607   3.171   1.157  10.116  0.5106  0.5367  0.1217
  146MOL0     C19608   3.278   1.092  10.186 -0.7138  0.6300 -0.1897
  146MOL0     C19609   3.410   1.123  10.146  0.2370  0.7937 -0.2068
  146MOL0     C19610   3.450   1.223  10.059  0.3794  1.6880  0.3177
  146MOL0     O19611   3.582   1.243  10.045 -0.1558  0.2342  0.2560
  146MOL0     C19612   3.619   1.333   9.952  0.2783 -0.1661  0.4321
  146MOL0     C19613   3.612   1.293   9.805 -1.2826  0.3293  0.4002
  146MOL0     C19614   3.682   1.390   9.712  0.1047  0.2604 -0.3225
  146MOL0     C19615   3.625   1.526   9.704 -0.5600 -0.4547 -0.6407
  146MOL0     C19616   3.698   1.609   9.595  0.4407 -0.1703 -0.4305
  146MOL0     C19617   3.790   1.726   9.638 -0.3689 -0.0292  0.0509
  146MOL0     C19618   3.913   1.681   9.708 -0.5201 -0.1755  0.4297
  146MOL0     C19619   4.020   1.786   9.743 -0.5557  0.0116 -0.1213
  146MOL0    Cl19620   4.071   1.834   9.574  0.0257 -0.2956 -0.1992
  146MOL0     C19621   3.348   1.288   9.992  0.1882  0.8825 -0.2044
  146MOL0     C19622   3.208   1.256  10.021 -0.8527 -0.0425 -0.1142
  146MOL0     O19623   2.906   1.222  10.012 -0.3733 -0.6578 -0.4979
  146MOL0     C19624   2.840   0.961  10.253  0.9913  0.5217 -0.6757
  146MOL0     C19625   2.741   0.884  10.301  0.3359 -0.2879  1.2478
  146MOL0     N19626   2.699   0.905  10.730 -0.5179 -0.3420  0.6705
  146MOL0     N19627   2.825   0.945  10.718  0.3414  0.5598  0.2491
  146MOL0     C19628   3.959   0.356  10.842  0.6194  0.4166  0.1088
  146MOL0     C19629   4.047   0.265  10.907 -0.1100  0.9870 -1.0036
  146MOL0     C19630   4.366  -0.058  10.926  0.2629 -0.6281 -0.3968
  146MOL0     C19631   4.373  -0.051  11.071 -0.3666  0.2993 -0.3662
  146MOL0     C19632   4.469  -0.127  11.147  0.6816  0.2990 -0.2886
  146MOL0     C19633   4.547  -0.222  11.082 -0.1700 -0.5395 -0.2643
  146MOL0     O19634   4.625  -0.316  11.147  0.7348  0.0507 -0.9482
  146MOL0     C19635   4.625  -0.317  11.287 -0.2237  0.8062  0.2378
  146MOL0     C19636   4.703  -0.441  11.329  0.3601  0.2372  0.6590
  146MOL0     C19637   4.824  -0.468  11.239  0.0734 -0.5115  0.0014
  146MOL0     C19638   4.933  -0.357  11.242 -1.1210  0.5099 -0.2018
  146MOL0     C19639   4.988  -0.326  11.378 -0.3524 -0.6039 -1.1795
  146MOL0     C19640   5.023  -0.287  11.489  0.6779 -0.1943  0.4597
  146MOL0     C19641   4.550  -0.227  10.945  0.3862 -1.1133 -0.3990
  146MOL0     C19642   4.465  -0.142  10.870  0.1273  0.0632  0.6320
  146MOL0     H19643   4.056   0.007  10.690  2.0431 -0.0935  1.0799
  146MOL0     H19644   3.927   0.154  10.561  1.6333 -0.3724 -0.2667
  146MOL0     H19645   3.660   0.339  10.653 -1.0417  0.4408 -0.1221
  146MOL0     H19646   3.695   0.451  10.787 -1.1441  0.8720  0.1682
  146MOL0     H19647   3.727   0.632  10.640 -0.4141  0.2470  0.2402
  146MOL0     H19648   3.682   0.537  10.501  1.9669  3.2385 -0.3052
  146MOL0     H19649   3.456   0.493  10.617  2.3678 -1.8978  1.7777
  146MOL0     H19650   3.485   0.615  10.731 -2.2185  0.5756 -1.3769
  146MOL0     H19651   3.528   0.780  10.559  0.1023 -0.8975  0.6280
  146MOL0     H19652   3.486   0.671  10.432  4.6907  0.8575  0.1575
  146MOL0     H19653   3.264   0.652  10.472  0.8876 -1.0027  1.0861
  146MOL0     H19654   3.288   0.680  10.644  1.4594  1.7073 -0.0227
  146MOL0     H19655   3.305   0.920  10.632 -0.5593  0.8703  1.1459
  146MOL0     H19656   3.322   0.925  10.466 -1.0592  1.4196  1.3974
  146MOL0     H19657   3.087   0.957  10.492  0.6850 -1.0171 -3.2678
  146MOL0     H19658   3.071   0.787  10.469 -1.9433 -1.8617  3.3656
  146MOL0     H19659   3.081   0.925  10.735  2.9612 -1.6024 -1.7261
  146MOL0     H19660   3.089   0.747  10.713  1.0931 -0.6836  1.3532
  146MOL0     H19661   2.841   0.640  10.603  0.8939 -0.0574 -1.8869
  146MOL0     H19662   2.571   0.605  10.756 -1.1825 -0.1926 -2.1817
  146MOL0     H19663   2.500   0.768  10.772 -3.6169  0.4184 -2.5267
  146MOL0     H19664   2.385   0.631  10.601 -1.3062  0.9716 -0.3222
  146MOL0     H19665   2.532   0.630  10.508 -3.0103 -2.1907 -0.7318
  146MOL0     H19666   2.520   0.903  10.558 -2.9506  0.8480  3.5702
  146MOL0     H19667   2.347   0.861  10.549 -0.4070 -1.3578 -1.4599
  146MOL0     H19668   2.415   0.956  10.353  2.0129  0.1839  2.6649
  146MOL0     H19669   2.322   0.808  10.340  0.3768  0.1213  0.7384
  146MOL0     H19670   2.495   0.919  10.059  0.2758 -1.1577 -0.2613
  146MOL0     H19671   2.755   1.076   9.882 -0.3792 -2.2713 -0.5125
  146MOL0     H19672   2.594   1.017   9.875  0.0846  3.4365 -2.8052
  146MOL0     H19673   2.614   1.176   9.943  1.2764  0.0295 -0.5780
  146MOL0     H19674   3.255   1.025  10.267 -0.8386  1.6560  0.6447
  146MOL0     H19675   3.499   1.072  10.183  0.9689  1.5009 -0.9607
  146MOL0     H19676   3.566   1.427   9.972  0.9605  0.6134 -1.2078
  146MOL0     H19677   3.724   1.338   9.980  0.1709  1.4884  0.6725
  146MOL0     H19678   3.666   1.200   9.788 -0.7073  0.5051  1.1949
  146MOL0     H19679   3.509   1.287   9.768 -1.8507 -1.4322  2.1452
  146MOL0     H19680   3.670   1.345   9.613 -1.5263  2.5246 -1.2357
  146MOL0     H19681   3.786   1.405   9.743  0.1195  2.4752 -1.2116
  146MOL0     H19682   3.521   1.507   9.674  0.1723 -1.6971 -2.5807
  146MOL0     H19683   3.629   1.579   9.799 -0.9563  1.7581 -1.7985
  146MOL0     H19684   3.609   1.655   9.551  1.5475  3.5576  0.8380
  146MOL0     H19685   3.745   1.538   9.526  0.8580  2.4435 -3.0469
  146MOL0     H19686   3.820   1.778   9.547  0.8487 -1.7632 -0.6010
  146MOL0     H19687   3.731   1.795   9.700  2.1450  3.6199 -1.3038
  146MOL0     H19688   3.971   1.602   9.661  0.7390 -0.7020  2.7103
  146MOL0     H19689   3.886   1.626   9.799 -0.7212 -1.8942 -0.6309
  146MOL0     H19690   4.099   1.742   9.804 -0.1737  0.9912  0.1121
  146MOL0     H19691   3.981   1.859   9.815  1.1147 -0.0038  0.8534
  146MOL0     H19692   3.374   1.367   9.922 -1.9637  2.5624  0.7794
  146MOL0     H19693   3.130   1.304   9.964 -0.7547 -0.9849 -1.0576
  146MOL0     H19694   2.936   0.977  10.301  2.6763 -1.0067 -3.2887
  146MOL0     H19695   2.753   0.818  10.387 -1.5172  0.9811  2.5354
  146MOL0     H19696   3.938   0.459  10.870 -3.5442  0.8095 -3.5091
  146MOL0     H19697   4.104   0.290  10.996 -0.3804 -3.4230  0.6068
  146MOL0     H19698   4.295   0.003  11.124 -3.3128 -2.8805 -1.1074
  146MOL0     H19699   4.459  -0.137  11.255 -0.0568  0.0691 -0.3740
  146MOL0     H19700   4.675  -0.226  11.323 -2.5556  1.8103  1.1970
  146MOL0     H19701   4.524  -0.322  11.331 -0.8810  0.2218 -1.2775
  146MOL0     H19702   4.639  -0.530  11.323  1.1825 -0.4435  1.5783
  146MOL0     H19703   4.738  -0.444  11.432  1.4795 -2.0513  0.2885
  146MOL0     H19704   4.804  -0.482  11.132  1.2071 -0.7451 -0.1858
  146MOL0     H19705   4.861  -0.563  11.280 -2.0001 -2.2694 -1.9310
  146MOL0     H19706   4.895  -0.268  11.190 -1.8222  1.5835  2.0479
  146MOL0     H19707   5.016  -0.403  11.188 -1.7024  0.3361 -0.9701
  146MOL0     H19708   5.032  -0.258  11.592 -4.3111  0.7317  0.8945
  146MOL0     H19709   4.617  -0.294  10.891  1.7743  0.2311 -0.3936
  146MOL0     H19710   4.469  -0.155  10.762  1.7625 -3.7054  0.9752
  147MOL0     O19711   3.003   8.934   2.270  0.2689  0.6568 -0.2014
  147MOL0     C19712   2.925   8.840   2.283 -1.0713 -1.1101 -0.2187
  147MOL0     O19713   2.823   8.845   2.369 -0.5009 -0.5361  0.1322
  147MOL0     C19714   2.809   8.952   2.457 -0.1535  0.2648 -0.6234
  147MOL0     C19715   2.820   9.093   2.423 -0.3952  1.5127 -0.6381
  147MOL0     C19716   2.798   9.192   2.528  0.2794 -0.1605 -0.7020
  147MOL0     C19717   2.780   9.151   2.668 -0.1985 -0.1641  1.0317
  147MOL0     O19718   2.775   9.241   2.776 -0.1371 -0.1927  0.8307
  147MOL0     C19719   2.781   9.383   2.732  0.6169 -0.9296 -0.9787
  147MOL0     C19720   2.796   9.464   2.864  0.0320 -0.7639 -0.2275
  147MOL0     C19721   2.660   9.478   2.928  0.4352 -0.4192  0.9895
  147MOL0     C19722   2.662   9.556   3.063  0.0576  0.7961  0.5001
  147MOL0     C19723   2.527   9.624   3.097 -1.3231 -0.6751  0.5681
  147MOL0     C19724   2.548   9.744   3.185  0.3272  1.0018  1.1592
  147MOL0     C19725   2.427   9.833   3.167  0.5999 -0.6025 -0.8922
  147MOL0     C19726   2.446   9.956   3.266  0.6010  0.2703  0.5151
  147MOL0     N19727   2.420   9.926   3.409  0.0421  0.3409 -0.0507
  147MOL0     C19728   2.309   9.859   3.458  0.3977  0.0951 -0.2745
  147MOL0     C19729   2.329   9.856   3.590  1.0583 -0.7314  0.9479
  147MOL0     C19730   2.240   9.782   3.685  1.6665  0.2578 -0.0846
  147MOL0     C19731   2.325   9.697   3.774 -1.4980  0.5064  0.5329
  147MOL0     C19732   2.247   9.585   3.837  0.4370 -0.3777  0.1512
  147MOL0     C19733   2.343   9.490   3.900 -0.4376  0.7138 -0.8156
  147MOL0     O19734   2.413   9.420   3.798  0.2061  0.3203  0.2968
  147MOL0     C19735   2.504   9.329   3.828 -0.1726 -0.3556 -0.7274
  147MOL0     C19736   2.565   9.266   3.718  0.7001  0.6811 -0.4172
  147MOL0     C19737   2.663   9.161   3.735 -0.0253  0.3273  0.6656
  147MOL0     C19738   2.717   9.106   3.600  0.7983 -0.2148 -0.1663
  147MOL0     C19739   2.690   9.115   3.861 -0.3857  0.6712 -0.8539
  147MOL0     C19740   2.779   8.994   3.887  0.8148 -0.1323 -0.5556
  147MOL0     O19741   2.722   8.912   3.982  0.1020 -0.1084  0.0261
  147MOL0     C19742   2.771   8.782   3.983  0.3975  0.4201 -0.3175
  147MOL0     C19743   2.875   8.756   4.071 -0.4626 -0.2480  0.4859
  147MOL0     C19744   2.938   8.629   4.064  0.1888  0.1373 -0.1300
  147MOL0     C19745   2.872   8.522   3.991  0.1423 -0.2598 -0.8415
  147MOL0     O19746   2.916   8.391   3.988 -0.4440  0.2091  0.4265
  147MOL0     C19747   3.035   8.349   4.052  0.0466 -1.3396  1.0080
  147MOL0     C19748   3.014   8.317   4.203  0.2799 -0.2129 -0.3987
  147MOL0     C19749   3.139   8.291   4.277 -0.0821  0.3159  0.0398
  147MOL0     C19750   3.098   8.293   4.427  0.1977  0.2728 -0.0996
  147MOL0     C19751   3.200   8.230   4.526 -0.2742 -0.1453  0.5938
  147MOL0     C19752   3.205   8.077   4.505 -0.0280 -0.3036 -0.0552
  147MOL0     C19753   3.336   8.020   4.558 -0.7426  0.2650  0.9490
  147MOL0     C19754   3.328   7.869   4.558  0.1468 -0.4387 -0.8294
  147MOL0    Cl19755   3.218   7.776   4.431 -0.8529 -0.5040  0.0426
  147MOL0     C19756   2.754   8.547   3.927  0.8108  0.4360  0.2600
  147MOL0     C19757   2.703   8.673   3.919  0.2404 -0.8041 -0.4122
  147MOL0     O19758   2.887   8.991   3.843  0.0272  0.4966  0.4981
  147MOL0     C19759   2.632   9.178   3.977 -0.3837  0.9877  0.4894
  147MOL0     C19760   2.540   9.289   3.953 -1.0193  0.3274 -0.1545
  147MOL0     N19761   2.442   9.935   3.616  0.3177 -1.1774  0.5315
  147MOL0     N19762   2.494   9.981   3.509  0.2682  0.9686  0.4641
  147MOL0     C19763   2.774   9.020   2.688  0.3148  0.8859 -0.5440
  147MOL0     C19764   2.771   8.918   2.590 -0.1462 -0.5156  0.2649
  147MOL0     C19765   2.943   8.726   2.201  1.0491  0.1108  0.0771
  147MOL0     C19766   2.874   8.616   2.234  0.3450  0.4307 -0.3608
  147MOL0     C19767   2.873   8.499   2.158  0.5236  0.0955 -0.1994
  147MOL0     C19768   2.933   8.500   2.033 -0.5993 -0.4479 -0.7442
  147MOL0     O19769   2.931   8.397   1.939 -0.5483 -0.0775 -0.4138
  147MOL0     C19770   2.914   8.261   1.986  0.4206  0.3962  0.6325
  147MOL0     C19771   3.026   8.170   1.932 -0.3856  0.0822  0.6543
  147MOL0     C19772   3.012   8.122   1.796 -0.3822  0.3002  0.1737
  147MOL0     C19773   3.141   8.033   1.747  0.2717 -0.0571  0.4097
  147MOL0     C19774   3.122   7.977   1.621 -0.1354  0.0544  0.2982
  147MOL0     C19775   3.120   7.920   1.514  0.1668  0.4060  0.9656
  147MOL0     C19776   3.005   8.607   1.994  1.0376 -0.4416 -0.2318
  147MOL0     C19777   3.004   8.724   2.072  0.0446  0.2779  0.2644
  147MOL0     H19778   2.828   9.111   2.316 -1.2139  1.7329 -0.6761
  147MOL0     H19779   2.800   9.297   2.500  1.5531  0.3411  1.0583
  147MOL0     H19780   2.876   9.406   2.684  1.1296 -0.8745  0.0352
  147MOL0     H19781   2.700   9.424   2.671  3.6743  3.7328 -2.3903
  147MOL0     H19782   2.862   9.412   2.934 -1.8521 -2.7814  0.1855
  147MOL0     H19783   2.833   9.559   2.824 -0.7453 -0.9397 -1.4265
  147MOL0     H19784   2.598   9.543   2.866  1.3507 -0.5421 -0.0810
  147MOL0     H19785   2.615   9.378   2.936 -1.7988  0.5145  0.6946
  147MOL0     H19786   2.683   9.489   3.147 -0.4530 -3.0896 -2.2063
  147MOL0     H19787   2.749   9.619   3.042  2.4570 -2.8440 -1.4999
  147MOL0     H19788   2.478   9.651   3.003 -1.8652  2.6638  1.6702
  147MOL0     H19789   2.439   9.564   3.121 -2.4044  0.2185 -0.9872
  147MOL0     H19790   2.568   9.707   3.286 -1.3065  1.7380  1.7951
  147MOL0     H19791   2.636   9.793   3.143 -0.1831  0.1078 -1.1005
  147MOL0     H19792   2.423   9.873   3.065  0.4125 -1.7072 -1.3313
  147MOL0     H19793   2.332   9.782   3.183  0.9376 -0.4272  2.3686
  147MOL0     H19794   2.373  10.033   3.239  1.2740  1.0835  0.9811
  147MOL0     H19795   2.547   9.998   3.260  1.3963 -1.5677  0.1863
  147MOL0     H19796   2.230   9.812   3.403  2.5487 -3.6120 -0.4925
  147MOL0     H19797   2.190   9.852   3.752 -2.0261  0.0637 -2.3737
  147MOL0     H19798   2.161   9.726   3.634  1.9173  1.5895 -2.0529
  147MOL0     H19799   2.390   9.746   3.847  2.4636 -4.2161  0.7390
  147MOL0     H19800   2.396   9.647   3.706  0.9091  1.1871  2.4100
  147MOL0     H19801   2.182   9.541   3.761  0.0174 -2.2145  1.5075
  147MOL0     H19802   2.182   9.636   3.909  0.3213  1.3002 -1.0925
  147MOL0     H19803   2.286   9.415   3.957  0.3566 -0.0743 -1.0456
  147MOL0     H19804   2.408   9.552   3.963  1.0955 -0.9414 -0.6689
  147MOL0     H19805   2.549   9.297   3.615  1.2456  3.1484  0.1521
  147MOL0     H19806   2.773   9.192   3.562  0.1257  0.7012  0.8198
  147MOL0     H19807   2.773   9.014   3.613  0.0468 -0.7306 -0.4755
  147MOL0     H19808   2.634   9.088   3.531  1.3212 -1.0272 -0.5946
  147MOL0     H19809   2.923   8.837   4.125 -1.4807 -0.5531  1.9086
  147MOL0     H19810   3.022   8.610   4.131 -2.1015 -0.9065  2.6351
  147MOL0     H19811   3.074   8.270   3.987  0.0429  0.4850 -1.3870
  147MOL0     H19812   3.111   8.427   4.047 -0.3700 -0.9656  0.2832
  147MOL0     H19813   2.975   8.410   4.246  0.2431 -0.2294 -0.3955
  147MOL0     H19814   2.935   8.242   4.207 -1.3073  1.4294  1.0709
  147MOL0     H19815   3.215   8.370   4.272  0.6189 -0.3843 -4.2562
  147MOL0     H19816   3.187   8.198   4.246  1.3394  1.4138 -1.1568
  147MOL0     H19817   3.086   8.400   4.448 -0.0597  0.2566 -0.1589
  147MOL0     H19818   3.007   8.239   4.457  0.2997  0.8258  1.2965
  147MOL0     H19819   3.174   8.245   4.631  0.2528  0.2081  0.6780
  147MOL0     H19820   3.296   8.278   4.506 -0.2417  0.4008  1.9714
  147MOL0     H19821   3.114   8.032   4.545  1.0095 -2.1886  0.2937
  147MOL0     H19822   3.202   8.059   4.397 -2.7044  3.2710 -0.7821
  147MOL0     H19823   3.365   8.052   4.658 -0.5703  1.1063  0.6431
  147MOL0     H19824   3.416   8.061   4.496 -2.0170  1.0146 -0.2645
  147MOL0     H19825   3.298   7.841   4.660 -1.6800 -2.0636 -1.7548
  147MOL0     H19826   3.434   7.843   4.546  0.0052  0.0217 -3.5650
  147MOL0     H19827   2.707   8.468   3.869 -0.0343  1.4823 -0.5261
  147MOL0     H19828   2.614   8.701   3.865 -1.1900 -4.3325 -0.1631
  147MOL0     H19829   2.662   9.154   4.078  0.8271  1.1610  0.1892
  147MOL0     H19830   2.499   9.337   4.041  1.2747 -1.8801  2.3187
  147MOL0     H19831   2.758   8.987   2.790  1.3579 -1.1816 -1.0028
  147MOL0     H19832   2.767   8.818   2.632 -3.2815 -0.4826  0.2128
  147MOL0     H19833   2.817   8.620   2.327 -0.5404 -0.1122 -0.8641
  147MOL0     H19834   2.819   8.412   2.195  2.0191 -1.0183 -0.5485
  147MOL0     H19835   2.904   8.253   2.095  1.8397 -1.0946  0.6976
  147MOL0     H19836   2.828   8.208   1.944  0.1483 -0.8233  2.5713
  147MOL0     H19837   3.038   8.077   1.987  0.6474 -0.4379 -0.4082
  147MOL0     H19838   3.108   8.242   1.927 -0.7066  0.5302  1.7169
  147MOL0     H19839   2.994   8.203   1.725  0.4059  0.1234 -0.2318
  147MOL0     H19840   2.929   8.052   1.788 -1.1454  1.3540 -1.8423
  147MOL0     H19841   3.153   7.950   1.817 -0.2830  1.5233  2.4609
  147MOL0     H19842   3.225   8.102   1.736  2.4297 -2.5459  0.3807
  147MOL0     H19843   3.150   7.886   1.417  1.8510 -1.4418  2.0758
  147MOL0     H19844   3.057   8.606   1.898  0.6286  2.5303 -0.5751
  147MOL0     H19845   3.042   8.817   2.033  0.0108 -0.4621 -1.6460
  148MOL0     O19846   8.757   3.925  11.181 -0.2940  0.1693 -0.4843
  148MOL0     C19847   8.637   3.929  11.159 -0.4239 -0.1619  0.7515
  148MOL0     O19848   8.587   3.991  11.054  0.0589 -0.0505  0.6464
  148MOL0     C19849   8.657   4.051  10.949 -0.1342 -0.0780 -0.6207
  148MOL0     C19850   8.763   4.000  10.882 -0.6084 -0.1082 -0.9754
  148MOL0     C19851   8.837   4.069  10.783 -0.0559  0.4989  0.7172
  148MOL0     C19852   8.809   4.202  10.757  0.1874 -0.3150  1.0610
  148MOL0     O19853   8.884   4.291  10.678 -0.4467 -0.7895  0.8314
  148MOL0     C19854   9.030   4.296  10.699 -0.2715  0.6743 -0.6078
  148MOL0     C19855   9.070   4.364  10.818  0.0680 -0.0833 -0.0130
  148MOL0     C19856   9.223   4.369  10.810  0.2702 -0.2870 -0.0711
  148MOL0     C19857   9.273   4.385  10.952 -0.2791  0.8093 -0.2249
  148MOL0     C19858   9.426   4.392  10.973 -0.2919  0.0828  0.5822
  148MOL0     C19859   9.500   4.496  10.898  0.4582 -0.0544  0.0455
  148MOL0     C19860   9.650   4.524  10.942  0.7934  0.8632  0.4508
  148MOL0     C19861   9.742   4.402  10.955  0.0924  0.6180  1.0032
  148MOL0     N19862   9.805   4.362  10.831  0.0047  0.5589 -0.1783
  148MOL0     C19863   9.877   4.458  10.757  0.3606 -0.0473 -0.4287
  148MOL0     C19864   9.895   4.390  10.638 -0.5770 -0.4571  0.5581
  148MOL0     C19865   9.981   4.436  10.525 -0.8099 -0.2442 -0.2816
  148MOL0     C19866  10.130   4.420  10.560 -0.2929 -0.5770  0.9517
  148MOL0     C19867  10.215   4.489  10.461  0.0915 -0.1374 -0.5484
  148MOL0     C19868  10.363   4.462  10.482  0.1331  0.3987  0.2588
  148MOL0     O19869  10.412   4.521  10.598  0.1261  0.1209 -0.1893
  148MOL0     C19870  10.544   4.490  10.633  0.6900 -0.3814  0.7594
  148MOL0     C19871  10.585   4.542  10.748 -0.5273 -0.3501 -0.1968
  148MOL0     C19872  10.718   4.524  10.802 -0.0964  0.9348  1.2672
  148MOL0     C19873  10.742   4.581  10.940 -0.5412 -0.1313  0.1858
  148MOL0     C19874  10.810   4.454  10.727  1.0552 -0.0652 -0.3843
  148MOL0     C19875  10.948   4.438  10.772 -0.5017  0.2865  0.5799
  148MOL0     O19876  10.989   4.517  10.865 -0.3906  0.5299  0.0156
  148MOL0     C19877  11.126   4.547  10.872 -0.3932 -0.0458 -0.2633
  148MOL0     C19878  11.203   4.545  10.996 -0.4346 -0.6613  0.0925
  148MOL0     C19879  11.337   4.583  11.008 -0.3832 -0.9762  0.3772
  148MOL0     C19880  11.402   4.628  10.889  0.0540 -0.3297  0.6800
  148MOL0     O19881  11.526   4.682  10.896 -0.1934 -0.1604  0.1694
  148MOL0     C19882  11.620   4.612  10.803  0.1327 -0.4444 -0.7916
  148MOL0     C19883  11.752   4.641  10.881 -0.4578 -0.6742  0.4379
  148MOL0     C19884  11.768   4.582  11.025 -0.3339 -0.0032  0.2593
  148MOL0     C19885  11.852   4.677  11.116 -0.5150  0.3192  0.3029
  148MOL0     C19886  12.007   4.678  11.076  0.0375  0.5327 -0.4722
  148MOL0     C19887  12.078   4.780  11.159 -0.7039 -0.8170  1.2750
  148MOL0     C19888  12.225   4.736  11.186 -0.1455 -0.1349 -0.1954
  148MOL0     C19889  12.300   4.836  11.283  0.9433  0.1133  0.5146
  148MOL0    Cl19890  12.247   4.811  11.448 -0.0792 -0.4564  0.0763
  148MOL0     C19891  11.329   4.650  10.771 -0.0804  1.3057 -0.0900
  148MOL0     C19892  11.197   4.601  10.763  0.3788 -0.6153  0.1601
  148MOL0     O19893  11.015   4.355  10.717  0.0586  0.1199  0.7442
  148MOL0     C19894  10.770   4.405  10.600 -0.3716 -0.1942 -0.2768
  148MOL0     C19895  10.640   4.413  10.559 -0.3130 -0.1492 -0.2932
  148MOL0     N19896   9.854   4.264  10.652 -0.8953  0.1143  0.2728
  148MOL0     N19897   9.798   4.240  10.764  0.7171  0.3140  0.0347
  148MOL0     C19898   8.687   4.252  10.809 -0.9656 -0.8828 -0.6171
  148MOL0     C19899   8.624   4.184  10.919  0.1884  0.3137  0.7582
  148MOL0     C19900   8.543   3.828  11.224  0.2818 -0.1423  0.7096
  148MOL0     C19901   8.566   3.770  11.347 -0.9142 -0.3029 -0.3229
  148MOL0     C19902   8.473   3.696  11.421 -0.4214 -0.8912 -0.0995
  148MOL0     C19903   8.352   3.656  11.365  1.0969 -0.3941  0.5222
  148MOL0     O19904   8.268   3.558  11.420 -0.9104 -0.4391  0.0828
  148MOL0     C19905   8.268   3.545  11.566  1.0828  0.3847 -0.2386
  148MOL0     C19906   8.119   3.525  11.610 -0.2441  0.3064 -0.1138
  148MOL0     C19907   8.100   3.393  11.685  0.4257  0.3450 -0.4781
  148MOL0     C19908   8.134   3.274  11.601  0.4254  0.1395  0.5914
  148MOL0     C19909   8.030   3.237  11.494  0.3336 -0.1897 -0.8561
  148MOL0     C19910   7.936   3.216  11.415 -0.0287  0.1464  0.1510
  148MOL0     C19911   8.318   3.711  11.241 -0.7606 -0.1633  0.4847
  148MOL0     C19912   8.412   3.806  11.176  1.0292  0.6517  0.1495
  148MOL0     H19913   8.796   3.899  10.903 -3.1132 -1.3054 -2.3347
  148MOL0     H19914   8.919   4.014  10.739 -2.0623  1.0588 -4.4644
  148MOL0     H19915   9.064   4.193  10.712 -0.2669  0.8007  0.4576
  148MOL0     H19916   9.085   4.333  10.612 -0.2205  0.5051 -0.6496
  148MOL0     H19917   9.041   4.470  10.824 -1.3095 -0.5183  2.3928
  148MOL0     H19918   9.029   4.307  10.901 -2.7215  1.3911 -0.2674
  148MOL0     H19919   9.257   4.272  10.772  1.2375  0.8849 -2.3721
  148MOL0     H19920   9.246   4.444  10.734 -1.2849 -0.4383 -0.7367
  148MOL0     H19921   9.212   4.465  10.994 -2.0284 -1.6941  2.3609
  148MOL0     H19922   9.232   4.310  11.020 -1.7198  2.2428  0.5502
  148MOL0     H19923   9.437   4.406  11.081  1.0210  2.6839  0.1885
  148MOL0     H19924   9.472   4.298  10.943 -0.6739  0.0666  0.0401
  148MOL0     H19925   9.488   4.482  10.790 -0.6096  0.7547  0.0474
  148MOL0     H19926   9.448   4.591  10.912  1.2958  1.0665 -3.3409
  148MOL0     H19927   9.703   4.596  10.879  0.4637 -1.4391 -2.6462
  148MOL0     H19928   9.646   4.561  11.046  0.3398  2.5116 -0.1162
  148MOL0     H19929   9.697   4.312  10.997 -1.4880  1.3008  0.8564
  148MOL0     H19930   9.822   4.420  11.028  1.3303  0.7994 -0.3452
  148MOL0     H19931   9.900   4.560  10.784  2.9113  1.1859 -5.9747
  148MOL0     H19932   9.949   4.393  10.430 -1.4397  0.8438 -0.5732
  148MOL0     H19933   9.953   4.542  10.524  0.2409  0.0518  0.1117
  148MOL0     H19934  10.165   4.316  10.558  0.6798 -0.2638 -1.3535
  148MOL0     H19935  10.140   4.454  10.663  0.5931 -1.8514  1.3078
  148MOL0     H19936  10.190   4.594  10.480 -1.2491 -0.5604  0.1742
  148MOL0     H19937  10.199   4.462  10.356 -1.2899  0.3710 -0.4906
  148MOL0     H19938  10.421   4.490  10.393  1.9561  0.4556  1.4246
  148MOL0     H19939  10.378   4.355  10.497  1.2677  0.6245  0.8836
  148MOL0     H19940  10.514   4.600  10.808  0.9348  0.9073  0.3936
  148MOL0     H19941  10.793   4.508  11.003  0.4197 -0.5011 -0.9830
  148MOL0     H19942  10.798   4.675  10.947 -2.3998  1.0906 -0.5067
  148MOL0     H19943  10.646   4.612  10.984 -0.5184 -0.1057  0.2178
  148MOL0     H19944  11.153   4.517  11.088 -1.2249  1.4236  0.3615
  148MOL0     H19945  11.386   4.575  11.105 -3.1953  3.5422  2.5569
  148MOL0     H19946  11.585   4.508  10.805 -3.6099  0.6855 -0.2653
  148MOL0     H19947  11.624   4.641  10.698  2.8923  0.1288 -0.6102
  148MOL0     H19948  11.833   4.591  10.827 -1.5430 -1.8819 -0.1066
  148MOL0     H19949  11.785   4.746  10.883  0.2571 -0.8588 -0.4481
  148MOL0     H19950  11.820   4.486  11.025 -1.3298 -0.5693 -1.3179
  148MOL0     H19951  11.668   4.565  11.067 -0.7504 -0.7159 -0.9660
  148MOL0     H19952  11.811   4.778  11.112 -3.5026 -0.8077  0.1563
  148MOL0     H19953  11.849   4.638  11.218 -3.2646  1.0794  0.5839
  148MOL0     H19954  12.008   4.718  10.975 -2.0265  1.0736 -0.3180
  148MOL0     H19955  12.040   4.574  11.087 -3.5885 -0.5444  2.1980
  148MOL0     H19956  12.075   4.880  11.116 -0.2836 -1.3918 -0.1386
  148MOL0     H19957  12.029   4.785  11.257 -1.6682 -0.0544  0.7677
  148MOL0     H19958  12.290   4.729  11.098 -0.0996  1.2281 -0.2935
  148MOL0     H19959  12.212   4.637  11.231  3.0501 -0.5769  0.0286
  148MOL0     H19960  12.281   4.941  11.257  0.8216 -0.3765 -1.5680
  148MOL0     H19961  12.408   4.819  11.279  0.5560 -3.5214  1.8653
  148MOL0     H19962  11.383   4.668  10.679  0.3163 -3.3164 -1.0369
  148MOL0     H19963  11.137   4.598  10.672 -0.7448 -0.8590  0.8812
  148MOL0     H19964  10.835   4.351  10.532 -1.3082 -1.3693 -0.2634
  148MOL0     H19965  10.611   4.364  10.467  1.1631  0.4345 -1.1041
  148MOL0     H19966   8.647   4.347  10.775 -3.2272 -2.2069 -1.8805
  148MOL0     H19967   8.534   4.221  10.967 -0.1141 -1.0577  1.3046
  148MOL0     H19968   8.652   3.814  11.396  0.9933 -1.4337 -2.4478
  148MOL0     H19969   8.491   3.660  11.521  0.5501  1.7971  0.8000
  148MOL0     H19970   8.331   3.462  11.598  3.6584  3.6660  4.3276
  148MOL0     H19971   8.295   3.639  11.616 -0.2994  0.9259 -0.4403
  148MOL0     H19972   8.048   3.525  11.527 -0.4904 -0.1589  0.0931
  148MOL0     H19973   8.078   3.608  11.668 -4.4390 -0.9966 -0.7990
  148MOL0     H19974   7.997   3.376  11.716  0.1263 -0.9633 -2.0347
  148MOL0     H19975   8.159   3.398  11.777 -0.4514  0.5972  0.0737
  148MOL0     H19976   8.156   3.196  11.675  0.9021  0.3910  0.7223
  148MOL0     H19977   8.233   3.282  11.555  0.1053  0.4335 -0.0517
  148MOL0     H19978   7.865   3.198  11.337  1.7832 -0.5094 -1.4129
  148MOL0     H19979   8.219   3.704  11.197 -1.6164  1.7813  1.9362
  148MOL0     H19980   8.376   3.852  11.085  0.2485 -0.8446 -0.3364
  149MOL0     O19981   9.120   1.824  11.341  0.4930  0.3649  0.6218
  149MOL0     C19982   9.144   1.710  11.375  0.5985 -0.4952  0.4188
  149MOL0     O19983   9.266   1.663  11.380  0.4066  0.0475 -0.1612
  149MOL0     C19984   9.366   1.704  11.305  0.8932 -0.1921  0.0026
  149MOL0     C19985   9.480   1.647  11.337  0.3767  0.3475  0.0634
  149MOL0     C19986   9.593   1.653  11.250  0.4407  0.6076  0.6131
  149MOL0     C19987   9.580   1.716  11.125 -0.4060  0.3448 -0.5097
  149MOL0     O19988   9.690   1.718  11.042  0.4965  0.4226  0.1720
  149MOL0     C19989   9.727   1.579  10.995 -0.3152 -1.3625 -0.5080
  149MOL0     C19990   9.652   1.563  10.863 -0.2445 -0.9392 -0.3432
  149MOL0     C19991   9.719   1.639  10.751 -0.6639 -0.6910  0.9976
  149MOL0     C19992   9.672   1.580  10.624  0.4091  0.1667 -0.6057
  149MOL0     C19993   9.713   1.649  10.500 -0.5003 -0.7640  0.5352
  149MOL0     C19994   9.626   1.771  10.457 -0.3005  0.8297 -0.7229
  149MOL0     C19995   9.669   1.845  10.327  0.1156 -0.7330 -0.3059
  149MOL0     C19996   9.573   1.966  10.295 -0.3673  0.4723  0.2417
  149MOL0     N19997   9.451   1.921  10.224  0.1661  0.1511 -0.5988
  149MOL0     C19998   9.428   1.795  10.155 -0.2597 -0.6226 -0.1602
  149MOL0     C19999   9.308   1.802  10.109 -0.4072 -0.8031 -0.7046
  149MOL0     C20000   9.261   1.702  10.012 -0.3293  0.8062 -0.0625
  149MOL0     C20001   9.285   1.726   9.858  0.2284  0.5655 -0.0103
  149MOL0     C20002   9.252   1.857   9.801 -0.0397 -0.0110 -1.2532
  149MOL0     C20003   9.103   1.886   9.809  0.7903  0.3638  0.4655
  149MOL0     O20004   9.027   1.781   9.747 -0.2973 -0.2602  0.8798
  149MOL0     C20005   8.893   1.806   9.736  0.3500 -0.1188 -0.4245
  149MOL0     C20006   8.844   1.837   9.616 -0.5688 -0.1887  0.6837
  149MOL0     C20007   8.709   1.882   9.599  0.4263  0.1760  0.0627
  149MOL0     C20008   8.661   1.930   9.459  0.7717  0.2062 -0.9354
  149MOL0     C20009   8.614   1.847   9.701  0.0827 -0.2834  0.4058
  149MOL0     C20010   8.460   1.860   9.698 -0.4926 -0.1728  0.4955
  149MOL0     O20011   8.391   1.867   9.813  0.8322  0.4316  0.2451
  149MOL0     C20012   8.268   1.929   9.803  1.3919  0.6388  0.0744
  149MOL0     C20013   8.156   1.848   9.777  0.0304 -0.3099 -0.1751
  149MOL0     C20014   8.016   1.905   9.765 -0.3801 -0.2208  0.4764
  149MOL0     C20015   8.002   2.047   9.780  0.3310  0.1081  0.7839
  149MOL0     O20016   7.883   2.114   9.795 -0.4506 -0.4965 -0.2923
  149MOL0     C20017   7.769   2.052   9.742 -0.1172  0.0350 -0.3883
  149MOL0     C20018   7.651   2.146   9.762  0.8278 -0.2014  0.1589
  149MOL0     C20019   7.547   2.104   9.653 -0.5475 -0.3667 -0.3457
  149MOL0     C20020   7.407   2.153   9.686  0.4485  0.3185 -0.5669
  149MOL0     C20021   7.324   2.078   9.790  0.1212 -0.3480  0.5685
  149MOL0     C20022   7.203   2.168   9.826  0.9199 -0.3190  0.4085
  149MOL0     C20023   7.130   2.102   9.947  0.5685  0.1415  0.4223
  149MOL0     C20024   7.022   2.185  10.000 -0.1678 -0.8075 -0.4655
  149MOL0    Cl20025   6.877   2.182   9.901  0.1111  0.1351  0.1975
  149MOL0     C20026   8.122   2.114   9.801  0.0444 -0.8454  0.4905
  149MOL0     C20027   8.253   2.068   9.815  1.1265  1.1878 -0.1099
  149MOL0     O20028   8.412   1.877   9.585 -0.0296 -0.0959  0.5317
  149MOL0     C20029   8.663   1.798   9.826 -0.5658 -0.2280 -0.6591
  149MOL0     C20030   8.805   1.779   9.842 -0.1524 -1.2421 -0.0278
  149MOL0     N20031   9.262   1.934  10.143  0.0795  0.3035 -0.0768
  149MOL0     N20032   9.344   1.991  10.228  0.4963  0.5337  0.6577
  149MOL0     C20033   9.459   1.769  11.082 -0.0395  0.8073  0.0061
  149MOL0     C20034   9.354   1.770  11.171  0.2697  0.2421 -0.2178
  149MOL0     C20035   9.039   1.623  11.422 -0.2160  0.1258  0.0250
  149MOL0     C20036   9.064   1.514  11.509 -0.1602 -0.4522  0.0545
  149MOL0     C20037   8.971   1.419  11.552 -0.7360  0.9595  0.1856
  149MOL0     C20038   8.840   1.441  11.494  0.0022 -0.2787 -0.0068
  149MOL0     O20039   8.738   1.349  11.500 -0.0696 -0.2241 -0.6105
  149MOL0     C20040   8.773   1.226  11.549 -0.1502 -0.2645 -0.6425
  149MOL0     C20041   8.661   1.133  11.492 -0.1890 -0.5321  0.8461
  149MOL0     C20042   8.721   1.022  11.398  0.4514  0.7079 -0.1514
  149MOL0     C20043   8.605   0.934  11.336 -0.1402 -0.6897 -1.2680
  149MOL0     C20044   8.500   1.003  11.267 -0.0442 -0.6629  0.8594
  149MOL0     C20045   8.399   1.056  11.221 -0.4613  0.0190 -0.3205
  149MOL0     C20046   8.809   1.556  11.423  0.6353  0.1754 -0.6217
  149MOL0     C20047   8.904   1.649  11.385 -0.4400  0.0149 -0.3580
  149MOL0     H20048   9.481   1.580  11.423 -3.6719 -0.1984 -0.1150
  149MOL0     H20049   9.691   1.618  11.281  0.9566  0.8802 -0.6621
  149MOL0     H20050   9.834   1.585  10.972  0.0716 -0.5195  1.3581
  149MOL0     H20051   9.705   1.501  11.069  1.4317 -0.3695  1.1374
  149MOL0     H20052   9.646   1.457  10.836  2.3324 -1.1151 -0.5168
  149MOL0     H20053   9.550   1.598  10.879  0.0064 -0.6856  0.7591
  149MOL0     H20054   9.686   1.744  10.759  0.7848  0.1772 -2.6175
  149MOL0     H20055   9.828   1.630  10.753 -0.5606 -0.2561 -0.7944
  149MOL0     H20056   9.707   1.477  10.636  0.8870  0.0130 -3.0124
  149MOL0     H20057   9.563   1.578  10.632  0.4369  2.0889  1.0134
  149MOL0     H20058   9.819   1.676  10.502 -1.2808  3.4689 -2.5860
  149MOL0     H20059   9.700   1.582  10.414  0.1816  0.4874 -0.5756
  149MOL0     H20060   9.522   1.740  10.445 -0.4164  1.3528 -1.1192
  149MOL0     H20061   9.631   1.852  10.531 -1.2565  0.4224 -0.1994
  149MOL0     H20062   9.766   1.893  10.345 -0.7062 -0.3409  4.2941
  149MOL0     H20063   9.672   1.773  10.245 -0.4283  0.8224 -1.7504
  149MOL0     H20064   9.631   2.033  10.231  2.6160 -1.8940  0.2462
  149MOL0     H20065   9.546   2.018  10.387 -1.3210 -3.3886  2.3543
  149MOL0     H20066   9.489   1.710  10.128  0.3836 -0.9965  2.2097
  149MOL0     H20067   9.307   1.607  10.041  2.1715  1.2469 -2.2296
  149MOL0     H20068   9.157   1.675  10.033  0.5164 -0.9618  2.4007
  149MOL0     H20069   9.248   1.645   9.795  0.2371 -0.2002  0.9260
  149MOL0     H20070   9.392   1.723   9.834 -0.6217 -2.3623 -4.8939
  149MOL0     H20071   9.275   1.860   9.694  3.0260  1.2237 -0.6637
  149MOL0     H20072   9.306   1.935   9.854 -2.8387  1.4789 -0.4553
  149MOL0     H20073   9.088   1.986   9.765 -3.4771  1.0216  2.8395
  149MOL0     H20074   9.061   1.896   9.910 -1.8386 -3.2034 -0.1077
  149MOL0     H20075   8.907   1.849   9.528  1.3764  4.6672  2.3967
  149MOL0     H20076   8.622   1.840   9.409  2.8773  0.6972 -3.6407
  149MOL0     H20077   8.602   2.022   9.460 -1.0951 -0.9433 -0.5783
  149MOL0     H20078   8.751   1.958   9.404  1.5079 -0.0612  0.1158
  149MOL0     H20079   8.182   1.743   9.776  0.7681 -0.1280 -0.6344
  149MOL0     H20080   7.928   1.843   9.749 -0.8572  0.4254  0.5287
  149MOL0     H20081   7.788   2.038   9.635  0.5262 -2.9254  0.0423
  149MOL0     H20082   7.755   1.959   9.797  2.1531 -1.0545 -1.5608
  149MOL0     H20083   7.611   2.121   9.861 -0.6764 -0.5347 -0.5044
  149MOL0     H20084   7.676   2.253   9.762  1.4537 -0.3105  1.8992
  149MOL0     H20085   7.551   1.995   9.650 -2.0527 -0.4239 -2.6508
  149MOL0     H20086   7.589   2.152   9.564  2.0023 -1.6376  0.0658
  149MOL0     H20087   7.414   2.256   9.723 -1.8077  0.1577  0.4790
  149MOL0     H20088   7.347   2.166   9.595  0.7722 -0.9936 -0.9952
  149MOL0     H20089   7.380   2.070   9.883  0.7178 -0.5288  0.1969
  149MOL0     H20090   7.295   1.979   9.755 -0.6762 -0.2396  0.8856
  149MOL0     H20091   7.239   2.265   9.861  1.1811  0.3365 -1.5948
  149MOL0     H20092   7.131   2.182   9.745  0.3063 -0.8523  0.8448
  149MOL0     H20093   7.204   2.070  10.021  0.3979 -4.8708 -1.1968
  149MOL0     H20094   7.091   2.004   9.916  2.6960 -1.0409  1.2695
  149MOL0     H20095   7.056   2.288  10.003  0.5348 -1.0070  3.4064
  149MOL0     H20096   7.000   2.148  10.101  0.0642  0.1283 -0.0651
  149MOL0     H20097   8.103   2.221   9.803  0.5563 -0.7316 -0.4193
  149MOL0     H20098   8.335   2.135   9.839  1.4202  0.6811  0.3282
  149MOL0     H20099   8.590   1.785   9.905 -0.5867  0.7782 -0.5081
  149MOL0     H20100   8.844   1.745   9.937 -0.6615  0.6855  0.9361
  149MOL0     H20101   9.456   1.811  10.982  1.9225 -0.9200 -0.8564
  149MOL0     H20102   9.259   1.808  11.135 -0.7275 -3.7519 -2.3909
  149MOL0     H20103   9.161   1.500  11.554 -0.8227 -4.6727  0.5667
  149MOL0     H20104   9.006   1.336  11.614 -1.0874 -0.4366 -1.4073
  149MOL0     H20105   8.873   1.194  11.519 -0.5892  1.0936 -4.0795
  149MOL0     H20106   8.766   1.228  11.658 -0.5127  0.0796 -0.6644
  149MOL0     H20107   8.583   1.196  11.451  1.0274  1.7261  1.8211
  149MOL0     H20108   8.622   1.087  11.583 -0.5826  1.1045  1.5358
  149MOL0     H20109   8.794   0.955  11.445 -0.5247  0.0264  0.4252
  149MOL0     H20110   8.766   1.077  11.315 -2.7368  1.8996 -1.2336
  149MOL0     H20111   8.563   0.873  11.416  3.7860 -0.9036  0.8645
  149MOL0     H20112   8.652   0.862  11.268 -0.4717 -1.2074 -0.9555
  149MOL0     H20113   8.317   1.104  11.172  1.4290  1.7059 -2.0429
  149MOL0     H20114   8.704   1.582  11.416  0.9630  1.5000 -0.9471
  149MOL0     H20115   8.877   1.742  11.336 -1.2752  0.4620  0.9138
  150MOL0     O20116   7.882  11.227   2.735 -0.2108  0.2525  0.7118
  150MOL0     C20117   7.982  11.153   2.730  0.7165  0.4507 -0.1833
  150MOL0     O20118   8.107  11.196   2.717  0.1978  0.3758  0.3022
  150MOL0     C20119   8.118  11.327   2.676  0.2087  0.4099 -0.4800
  150MOL0     C20120   8.095  11.351   2.540 -0.1428  0.8090  0.2844
  150MOL0     C20121   8.123  11.473   2.490 -0.4613 -0.2988  0.2487
  150MOL0     C20122   8.161  11.582   2.575  0.8020  0.1091  0.0051
  150MOL0     O20123   8.190  11.712   2.542 -0.0376 -0.7920  0.2788
  150MOL0     C20124   8.187  11.748   2.402  0.0755  0.5441 -0.0493
  150MOL0     C20125   8.271  11.876   2.393 -0.5510  0.7809  0.6909
  150MOL0     C20126   8.192  11.995   2.445 -0.7623 -0.0974 -0.2195
  150MOL0     C20127   8.244  12.137   2.424  0.5998 -0.6985 -0.0742
  150MOL0     C20128   8.159  12.249   2.484  0.1706 -0.3606 -0.3762
  150MOL0     C20129   8.030  12.256   2.405  0.5811 -0.3108 -0.9632
  150MOL0     C20130   7.962  12.393   2.410  0.2177  0.4135  0.3153
  150MOL0     C20131   7.827  12.392   2.336 -0.1685  1.2847  0.1231
  150MOL0     N20132   7.829  12.356   2.190 -0.3850 -0.4394  0.0349
  150MOL0     C20133   7.922  12.416   2.117 -0.0765 -0.1473 -0.4646
  150MOL0     C20134   7.892  12.372   1.990 -0.4938  0.2486  0.4431
  150MOL0     C20135   7.967  12.404   1.863 -0.0789 -0.1678  0.5135
  150MOL0     C20136   8.019  12.274   1.799  0.7248  0.0752 -0.0312
  150MOL0     C20137   7.966  12.256   1.657  0.3633  1.0189  0.2770
  150MOL0     C20138   8.013  12.353   1.551 -0.4334 -0.9406 -0.1784
  150MOL0     O20139   7.927  12.473   1.549 -0.7137  0.6514  0.2305
  150MOL0     C20140   7.989  12.573   1.479  0.3642 -0.0940  0.2758
  150MOL0     C20141   8.052  12.561   1.353  0.6594 -0.0452 -0.2006
  150MOL0     C20142   8.086  12.674   1.277  1.0611 -0.4813  0.1564
  150MOL0     C20143   8.116  12.656   1.131 -0.9359 -0.4727  0.3448
  150MOL0     C20144   8.075  12.806   1.340  0.3666 -0.5381 -0.4460
  150MOL0     C20145   8.134  12.925   1.284 -0.5388  0.1954  1.0585
  150MOL0     O20146   8.235  12.906   1.199  0.1143  0.4415  0.4011
  150MOL0     C20147   8.295  13.003   1.146 -0.2466  0.4490  0.6525
  150MOL0     C20148   8.413  13.053   1.199  0.0799  0.2850  0.1258
  150MOL0     C20149   8.469  13.167   1.148  0.2108  0.4671  0.5488
  150MOL0     C20150   8.421  13.234   1.034  0.3004  0.9590 -0.6554
  150MOL0     O20151   8.491  13.335   0.981  0.4227  0.0420  0.4450
  150MOL0     C20152   8.434  13.425   0.877 -0.2750 -0.0578 -0.1529
  150MOL0     C20153   8.338  13.512   0.946 -0.8047 -0.1551 -0.4900
  150MOL0     C20154   8.256  13.600   0.851 -0.0359 -0.5102  0.1281
  150MOL0     C20155   8.204  13.719   0.931 -0.0216  0.4821  0.3671
  150MOL0     C20156   8.116  13.817   0.849  0.4547  0.0221  0.6298
  150MOL0     C20157   8.144  13.966   0.883 -0.2170  0.2747 -0.7884
  150MOL0     C20158   8.065  14.063   0.798  1.3812 -0.1132 -0.0602
  150MOL0     C20159   8.094  14.207   0.849  0.3741  0.6255 -0.3263
  150MOL0    Cl20160   8.070  14.311   0.704 -0.2226  0.3036  0.3739
  150MOL0     C20161   8.302  13.181   0.977  0.2157  0.2519 -0.0267
  150MOL0     C20162   8.236  13.071   1.039  0.3912  0.2020 -0.5677
  150MOL0     O20163   8.095  13.032   1.318 -0.5525 -0.5520 -0.4586
  150MOL0     C20164   8.020  12.807   1.472  0.3281 -0.3743  0.6104
  150MOL0     C20165   7.980  12.699   1.540 -0.1913  0.6225 -0.6206
  150MOL0     N20166   7.787  12.293   1.992  0.4268  0.3431 -0.0182
  150MOL0     N20167   7.745  12.293   2.109 -0.2806  0.9278 -0.1706
  150MOL0     C20168   8.181  11.554   2.711 -0.0609  0.0815 -0.0853
  150MOL0     C20169   8.158  11.428   2.759 -0.1614  0.2823  0.8116
  150MOL0     C20170   7.972  11.007   2.736  0.9371 -0.9619  0.2156
  150MOL0     C20171   7.862  10.940   2.802  0.3923 -0.1661 -0.5245
  150MOL0     C20172   7.870  10.801   2.833  0.4929 -0.2407  0.2298
  150MOL0     C20173   7.987  10.728   2.812  1.4504 -0.4380 -1.5921
  150MOL0     O20174   7.943  10.604   2.847 -0.9323  0.9470 -0.1500
  150MOL0     C20175   8.032  10.496   2.876  0.0796 -0.4509 -0.3230
  150MOL0     C20176   7.981  10.408   2.997 -0.0682  0.4015 -0.5579
  150MOL0     C20177   8.066  10.418   3.122 -0.1950  1.0287 -0.0238
  150MOL0     C20178   8.006  10.326   3.227  0.6075  0.4931 -0.3918
  150MOL0     C20179   8.105  10.298   3.339 -0.0016 -0.3335  0.3482
  150MOL0     C20180   8.185  10.261   3.415  0.0333  0.0683 -0.0780
  150MOL0     C20181   8.098  10.792   2.759 -0.4848  0.7499 -0.7132
  150MOL0     C20182   8.085  10.925   2.713 -0.3925  0.5681 -0.4358
  150MOL0     H20183   8.066  11.271   2.474  0.5905  2.3025 -1.9536
  150MOL0     H20184   8.120  11.478   2.382  1.9055 -0.8193  0.1122
  150MOL0     H20185   8.229  11.670   2.338  2.7587 -1.5507  3.8850
  150MOL0     H20186   8.089  11.771   2.357  0.9595 -1.1289 -3.1579
  150MOL0     H20187   8.359  11.871   2.457 -1.5898  0.0524  2.1252
  150MOL0     H20188   8.299  11.897   2.289  3.4521  1.0694  1.6880
  150MOL0     H20189   8.098  11.988   2.390  1.3586  1.6857 -4.4986
  150MOL0     H20190   8.187  11.977   2.553 -0.0952  0.6297 -0.0581
  150MOL0     H20191   8.347  12.154   2.458  0.4699  0.5573 -0.2378
  150MOL0     H20192   8.249  12.156   2.316  4.0216  2.8729  0.4585
  150MOL0     H20193   8.143  12.219   2.588 -1.7400 -2.0607 -1.1018
  150MOL0     H20194   8.221  12.339   2.492 -2.2500  1.2646  1.9801
  150MOL0     H20195   8.033  12.225   2.300 -3.2174 -0.8925 -1.0405
  150MOL0     H20196   7.958  12.185   2.448  1.0628 -0.1510  0.1534
  150MOL0     H20197   7.939  12.420   2.513 -2.7765  1.3483 -0.4764
  150MOL0     H20198   8.030  12.474   2.384 -0.2083  0.7578  0.2495
  150MOL0     H20199   7.784  12.490   2.357 -0.0882  0.9476  2.0597
  150MOL0     H20200   7.748  12.329   2.377 -0.6016 -0.5770 -3.1901
  150MOL0     H20201   8.005  12.484   2.138  1.3249 -1.1198 -2.4447
  150MOL0     H20202   7.899  12.456   1.794 -0.6347  2.1579  2.6828
  150MOL0     H20203   8.051  12.471   1.880  1.7225 -2.9521  3.9564
  150MOL0     H20204   7.990  12.198   1.872 -0.1438 -0.0978 -0.5458
  150MOL0     H20205   8.129  12.270   1.797  0.7013 -1.0234 -1.6416
  150MOL0     H20206   7.857  12.251   1.655  0.3987  0.3384 -0.2744
  150MOL0     H20207   7.994  12.157   1.622 -1.0712  0.8509 -0.4672
  150MOL0     H20208   8.017  12.311   1.450  3.2765  1.0472 -1.0426
  150MOL0     H20209   8.115  12.380   1.578 -0.5716 -1.6864  1.1752
  150MOL0     H20210   8.065  12.465   1.304  0.0784 -1.1880  1.7838
  150MOL0     H20211   8.225  12.662   1.123 -1.0439 -0.2212 -1.1843
  150MOL0     H20212   8.090  12.560   1.085 -0.3558  0.8037 -2.9348
  150MOL0     H20213   8.065  12.731   1.071 -1.4046  1.1081  2.5713
  150MOL0     H20214   8.458  12.991   1.276 -4.0333 -0.1977  2.4660
  150MOL0     H20215   8.557  13.210   1.195 -1.0916  0.9277  2.6747
  150MOL0     H20216   8.520  13.483   0.841 -1.2730  1.0122 -0.8947
  150MOL0     H20217   8.383  13.373   0.796 -2.7297  2.2877 -0.2500
  150MOL0     H20218   8.268  13.446   0.998 -0.5690  1.4774  2.0739
  150MOL0     H20219   8.394  13.568   1.022 -1.8724 -0.2827  0.4088
  150MOL0     H20220   8.176  13.552   0.793  0.8087 -0.8338 -0.7990
  150MOL0     H20221   8.318  13.646   0.774 -0.6076  3.2625  1.6950
  150MOL0     H20222   8.159  13.690   1.027  0.0268 -1.8147 -0.2472
  150MOL0     H20223   8.299  13.761   0.964  2.1176  0.3430 -4.7456
  150MOL0     H20224   8.012  13.787   0.867  1.4773 -3.1316  2.1876
  150MOL0     H20225   8.145  13.800   0.745 -1.5389 -0.6785  0.1339
  150MOL0     H20226   8.128  13.977   0.991  1.7840 -1.4575 -0.2620
  150MOL0     H20227   8.248  14.000   0.878 -0.2639  0.6757  0.5332
  150MOL0     H20228   7.959  14.035   0.797  1.5126 -0.6163 -0.0767
  150MOL0     H20229   8.097  14.044   0.695 -0.9685 -2.0937 -0.5007
  150MOL0     H20230   8.202  14.206   0.864  0.5068 -0.0632 -1.2510
  150MOL0     H20231   8.047  14.236   0.944  0.3144  0.5805 -0.3419
  150MOL0     H20232   8.257  13.225   0.888 -0.5430  1.9605  1.1671
  150MOL0     H20233   8.137  13.038   1.007 -0.6982 -0.0649  2.7360
  150MOL0     H20234   8.032  12.906   1.516 -2.5642  0.5529 -0.4663
  150MOL0     H20235   7.950  12.707   1.644 -3.5562 -0.6890 -1.3596
  150MOL0     H20236   8.230  11.622   2.780  5.7338 -2.7995 -0.7502
  150MOL0     H20237   8.190  11.392   2.856  2.0106  0.8875  0.3749
  150MOL0     H20238   7.774  10.998   2.827  0.7135  1.1056 -2.1464
  150MOL0     H20239   7.779  10.757   2.873  0.2311 -0.2451 -0.3524
  150MOL0     H20240   8.061  10.444   2.785  0.2534  0.9958 -1.1176
  150MOL0     H20241   8.124  10.537   2.919 -1.4382  0.9797  1.8006
  150MOL0     H20242   7.968  10.305   2.963  0.7224 -1.2583  3.6375
  150MOL0     H20243   7.881  10.447   3.013 -0.0986  1.2733 -2.5388
  150MOL0     H20244   8.064  10.521   3.158 -4.9560 -0.4372  5.5521
  150MOL0     H20245   8.168  10.386   3.100 -1.7043 -4.2257 -0.7233
  150MOL0     H20246   7.981  10.227   3.187 -2.1793 -0.6463  3.6227
  150MOL0     H20247   7.911  10.369   3.259  0.3592  0.2528 -0.7878
  150MOL0     H20248   8.266  10.234   3.480  2.2155  1.3646 -2.0816
  150MOL0     H20249   8.190  10.736   2.747 -0.2701  0.9757 -0.1660
  150MOL0     H20250   8.177  10.962   2.669 -0.8400  1.2896 -0.7792
  151MOL0     O20251   2.369   9.232   0.022 -0.2909  0.0348  0.2591
  151MOL0     C20252   2.361   9.121   0.076  0.4116  0.5393  0.8380
  151MOL0     O20253   2.303   9.100   0.197 -0.6534  0.3385 -0.0753
  151MOL0     C20254   2.287   9.206   0.272 -0.2055 -0.0906 -0.7091
  151MOL0     C20255   2.181   9.302   0.245 -0.4142 -0.1239 -0.3387
  151MOL0     C20256   2.165   9.414   0.327  0.0543  0.0989  0.3846
  151MOL0     C20257   2.244   9.442   0.432  0.6198 -0.5812  0.2122
  151MOL0     O20258   2.236   9.556   0.506 -0.5220 -0.2281  0.7198
  151MOL0     C20259   2.326   9.668   0.459  0.1975  0.3469  0.3139
  151MOL0     C20260   2.299   9.799   0.550 -0.1912 -0.5877 -0.4053
  151MOL0     C20261   2.398   9.908   0.504  0.0035  0.1550  0.1431
  151MOL0     C20262   2.344  10.041   0.552  0.2924 -0.3574 -0.1551
  151MOL0     C20263   2.433  10.157   0.520  0.6213  0.4054  1.0352
  151MOL0     C20264   2.433  10.193   0.365  0.3761 -0.4097  0.0490
  151MOL0     C20265   2.473  10.332   0.313  0.2198  0.2211 -0.7795
  151MOL0     C20266   2.450  10.330   0.165 -0.6000  0.9488  0.0190
  151MOL0     N20267   2.309  10.327   0.139 -0.0871 -0.9377  0.5996
  151MOL0     C20268   2.206  10.413   0.181 -0.2501  0.5717 -0.1266
  151MOL0     C20269   2.090  10.354   0.133 -0.9209  0.8731 -0.5906
  151MOL0     C20270   1.948  10.398   0.170 -0.0165 -0.1686  0.5556
  151MOL0     C20271   1.844  10.324   0.089  0.4865 -1.0132  0.1685
  151MOL0     C20272   1.701  10.347   0.152  0.5690 -0.3059  0.5864
  151MOL0     C20273   1.594  10.283   0.063 -0.3895  0.1163 -0.1785
  151MOL0     O20274   1.600  10.347  -0.068 -0.1618 -0.0902  0.1701
  151MOL0     C20275   1.496  10.343  -0.154  0.1038  0.9040 -0.1315
  151MOL0     C20276   1.477  10.460  -0.237 -0.9514 -0.1124  0.8863
  151MOL0     C20277   1.380  10.464  -0.342 -0.0871 -1.2349 -0.3011
  151MOL0     C20278   1.388  10.589  -0.439 -0.1213 -0.4446  0.3382
  151MOL0     C20279   1.291  10.352  -0.357 -0.2199 -0.1633 -0.1994
  151MOL0     C20280   1.185  10.333  -0.462  0.3831 -0.2135  0.0410
  151MOL0     O20281   1.118  10.209  -0.464 -0.2406  0.1748  0.2046
  151MOL0     C20282   1.019  10.175  -0.554 -0.0959  0.9672  0.0785
  151MOL0     C20283   1.014  10.046  -0.600  0.3160 -0.0337  0.2480
  151MOL0     C20284   0.920  10.012  -0.695  0.2530 -0.6733 -0.0911
  151MOL0     C20285   0.821  10.095  -0.740  0.3852 -0.6078 -0.5666
  151MOL0     O20286   0.736  10.057  -0.838  0.5913 -0.0059 -0.8200
  151MOL0     C20287   0.594  10.091  -0.830  0.9392 -0.5256 -0.4084
  151MOL0     C20288   0.523  10.089  -0.688 -1.4145 -0.5241  0.3565
  151MOL0     C20289   0.474   9.947  -0.659 -0.2037  0.3104  0.5676
  151MOL0     C20290   0.574   9.836  -0.674  0.4784 -0.1662  0.3229
  151MOL0     C20291   0.509   9.697  -0.659  0.1014 -0.8828 -0.3061
  151MOL0     C20292   0.597   9.583  -0.710 -0.3856  0.6408 -0.3830
  151MOL0     C20293   0.532   9.460  -0.680  0.6345  0.4750 -0.0399
  151MOL0     C20294   0.603   9.341  -0.718  0.8610  0.8052  0.5663
  151MOL0    Cl20295   0.525   9.189  -0.659  0.0580  0.0116 -0.0077
  151MOL0     C20296   0.822  10.227  -0.682  0.3504  0.2863 -0.0984
  151MOL0     C20297   0.921  10.266  -0.597 -0.5606  0.2364  0.4841
  151MOL0     O20298   1.164  10.427  -0.537  0.0673 -0.2937 -0.8972
  151MOL0     C20299   1.314  10.239  -0.263  0.7369  0.7315  0.5704
  151MOL0     C20300   1.413  10.228  -0.163  0.2356 -0.0307 -0.4034
  151MOL0     N20301   2.118  10.252   0.050 -0.0338  0.1124 -0.4941
  151MOL0     N20302   2.246  10.226   0.073 -0.0286 -0.2524 -0.5001
  151MOL0     C20303   2.336   9.341   0.467 -0.2352  0.6494  0.1573
  151MOL0     C20304   2.355   9.226   0.393  0.4365  0.4958 -0.7952
  151MOL0     C20305   2.420   9.008   0.001 -0.7262  0.3911 -0.6126
  151MOL0     C20306   2.437   8.885   0.069  0.7657  0.4729 -0.0733
  151MOL0     C20307   2.483   8.784  -0.003 -0.2702  0.3478 -0.0398
  151MOL0     C20308   2.530   8.797  -0.132  0.1813  0.1577 -1.1714
  151MOL0     O20309   2.561   8.681  -0.200 -0.8047 -0.1996  0.1500
  151MOL0     C20310   2.700   8.680  -0.257  0.2737 -0.9091  0.2909
  151MOL0     C20311   2.746   8.548  -0.309 -0.0416 -0.7613  0.1449
  151MOL0     C20312   2.869   8.558  -0.404  0.0163 -0.3840 -0.7076
  151MOL0     C20313   3.001   8.529  -0.344  0.0155 -0.3054 -0.4666
  151MOL0     C20314   3.040   8.621  -0.231 -0.4060  0.4867  0.6892
  151MOL0     C20315   3.078   8.695  -0.144  0.2168 -0.0313 -0.5591
  151MOL0     C20316   2.531   8.921  -0.191  0.7416 -0.1538 -0.0851
  151MOL0     C20317   2.469   9.028  -0.120  0.3731 -0.1144  0.5617
  151MOL0     H20318   2.124   9.304   0.152  2.7110  0.1126 -2.4125
  151MOL0     H20319   2.089   9.491   0.313  2.0065  2.4778  1.9903
  151MOL0     H20320   2.427   9.638   0.487  0.4296  1.5666  0.8525
  151MOL0     H20321   2.317   9.673   0.350  0.4325 -2.1535  0.1213
  151MOL0     H20322   2.198   9.838   0.533  1.2782  3.4271 -1.0397
  151MOL0     H20323   2.314   9.763   0.653  1.8843 -1.1770 -0.8687
  151MOL0     H20324   2.493   9.887   0.554 -2.6676 -3.7939  4.2988
  151MOL0     H20325   2.406   9.904   0.395 -3.6878  0.4747 -0.2718
  151MOL0     H20326   2.244  10.048   0.508 -1.2146  1.8947  3.1805
  151MOL0     H20327   2.333  10.044   0.661  1.3764  1.1830 -0.0654
  151MOL0     H20328   2.397  10.247   0.569 -1.8410  1.1009 -1.7299
  151MOL0     H20329   2.534  10.136   0.557  1.0541 -0.0036 -0.3181
  151MOL0     H20330   2.476  10.109   0.310 -0.0860 -0.6254  0.0064
  151MOL0     H20331   2.329  10.185   0.332  0.6865  1.4853 -1.5393
  151MOL0     H20332   2.414  10.415   0.352  0.9861  0.8665 -0.9707
  151MOL0     H20333   2.576  10.361   0.335  0.2510 -0.6699  0.3393
  151MOL0     H20334   2.501  10.240   0.129 -1.2156  0.1618  1.0530
  151MOL0     H20335   2.494  10.419   0.119  0.5785  0.0496 -0.6491
  151MOL0     H20336   2.212  10.508   0.235  1.9911  1.3025 -1.4860
  151MOL0     H20337   1.932  10.417   0.276  1.2350  0.4665  0.6523
  151MOL0     H20338   1.945  10.497   0.124 -1.5816 -0.2757  0.3705
  151MOL0     H20339   1.865  10.216   0.092 -0.9532 -1.3234  3.3990
  151MOL0     H20340   1.850  10.360  -0.014 -0.8276  0.9250  0.7073
  151MOL0     H20341   1.677  10.453   0.157 -2.3766 -0.7779 -1.1704
  151MOL0     H20342   1.703  10.302   0.252 -0.0081 -1.4685  0.0903
  151MOL0     H20343   1.492  10.290   0.101 -0.4070  0.0930 -0.2209
  151MOL0     H20344   1.613  10.176   0.055 -1.0651  0.1043 -2.0046
  151MOL0     H20345   1.538  10.548  -0.218  0.1331 -0.2686 -1.4536
  151MOL0     H20346   1.287  10.620  -0.467  0.1304 -0.4748 -0.6129
  151MOL0     H20347   1.444  10.672  -0.394  1.0492 -0.1224 -1.6336
  151MOL0     H20348   1.439  10.567  -0.532 -0.4571 -3.6048  0.7650
  151MOL0     H20349   1.086   9.969  -0.575  0.8117 -0.3976 -2.0357
  151MOL0     H20350   0.926   9.911  -0.733 -0.1706 -1.3602  1.5990
  151MOL0     H20351   0.588  10.195  -0.863  0.6920 -0.2778  0.4023
  151MOL0     H20352   0.536  10.034  -0.903  1.4152 -0.0915 -1.1424
  151MOL0     H20353   0.599  10.118  -0.615 -0.7575 -0.0407 -0.4891
  151MOL0     H20354   0.438  10.157  -0.683 -1.2886 -0.4116  0.9771
  151MOL0     H20355   0.389   9.918  -0.720  0.7181 -0.1381 -0.5392
  151MOL0     H20356   0.439   9.942  -0.555  2.5577  0.7911  1.6217
  151MOL0     H20357   0.623   9.850  -0.770  2.0993  0.2325  1.1709
  151MOL0     H20358   0.660   9.854  -0.610  0.3648  2.5009 -0.1853
  151MOL0     H20359   0.406   9.696  -0.698 -0.3987  0.6630  0.9001
  151MOL0     H20360   0.504   9.689  -0.550  0.5883  1.7337 -0.0410
  151MOL0     H20361   0.621   9.585  -0.817 -0.0839  0.7634 -0.3120
  151MOL0     H20362   0.687   9.571  -0.650 -1.4818 -1.6523  0.9536
  151MOL0     H20363   0.433   9.460  -0.726  0.5500  2.8612  0.0001
  151MOL0     H20364   0.522   9.457  -0.571  0.6812  2.2687  0.0474
  151MOL0     H20365   0.700   9.340  -0.667  0.8706  1.2872  0.5658
  151MOL0     H20366   0.629   9.331  -0.824  3.4288  0.8058  1.1392
  151MOL0     H20367   0.734  10.291  -0.687  0.0876  0.2338  2.4797
  151MOL0     H20368   0.914  10.370  -0.565 -0.6182  2.6490 -5.9936
  151MOL0     H20369   1.236  10.163  -0.265  0.3521  1.1299  0.1041
  151MOL0     H20370   1.422  10.148  -0.090  1.3753 -0.6694 -1.2071
  151MOL0     H20371   2.404   9.336   0.551  0.0517  0.8497 -0.0593
  151MOL0     H20372   2.434   9.156   0.419  0.0647  0.4009  0.1477
  151MOL0     H20373   2.406   8.868   0.172  1.2453  1.2889  0.2128
  151MOL0     H20374   2.493   8.687   0.045  0.2565  0.0176 -0.7884
  151MOL0     H20375   2.709   8.757  -0.334 -3.6377  0.6621  1.1528
  151MOL0     H20376   2.756   8.717  -0.170 -1.4296  0.5141  0.8614
  151MOL0     H20377   2.671   8.505  -0.377  0.9806 -0.3134 -1.3011
  151MOL0     H20378   2.759   8.473  -0.231  0.0234  1.8275  2.7813
  151MOL0     H20379   2.869   8.652  -0.461 -0.5653 -0.3135 -0.5933
  151MOL0     H20380   2.852   8.478  -0.476  0.8091  0.4812 -1.9102
  151MOL0     H20381   3.078   8.526  -0.421  1.1798  0.0062  0.6352
  151MOL0     H20382   3.003   8.425  -0.310 -2.1278 -0.5157 -0.8069
  151MOL0     H20383   3.112   8.771  -0.076  1.8087  1.3161 -2.7286
  151MOL0     H20384   2.557   8.939  -0.295  1.1450  0.0999  0.0556
  151MOL0     H20385   2.468   9.128  -0.161 -1.3702  1.1483  3.3912
  152MOL0     O20386  10.633   3.377   9.949 -0.7316 -0.3110  0.0275
  152MOL0     C20387  10.622   3.476  10.017 -0.4201 -0.5470 -0.3758
  152MOL0     O20388  10.728   3.540  10.080  0.3730 -0.4133 -0.3314
  152MOL0     C20389  10.848   3.471  10.095  0.5413 -0.3906 -0.7232
  152MOL0     C20390  10.882   3.400  10.208  0.1504 -0.3239 -0.4521
  152MOL0     C20391  11.003   3.338  10.223  0.4013 -0.3698  0.3903
  152MOL0     C20392  11.098   3.353  10.121 -0.7915 -0.1606 -0.0907
  152MOL0     O20393  11.223   3.292  10.143  0.8525 -0.3415  0.2970
  152MOL0     C20394  11.252   3.203  10.037 -0.0700  0.5863  1.4096
  152MOL0     C20395  11.354   3.093  10.080  0.5679 -0.6190  0.8786
  152MOL0     C20396  11.288   3.019  10.198 -0.0498  0.4712 -0.6064
  152MOL0     C20397  11.407   2.954  10.279  0.1679  0.4537  0.6456
  152MOL0     C20398  11.347   2.861  10.391 -0.4608 -0.7353 -0.2071
  152MOL0     C20399  11.464   2.824  10.486 -0.0086 -0.3526 -0.4253
  152MOL0     C20400  11.408   2.735  10.604  1.0761  0.8112  1.1976
  152MOL0     C20401  11.528   2.667  10.665  0.4599  0.4337 -1.0015
  152MOL0     N20402  11.491   2.578  10.772  1.1923  0.1116  1.3499
  152MOL0     C20403  11.499   2.605  10.910  0.1491  0.2978 -0.4726
  152MOL0     C20404  11.457   2.491  10.975  0.1839 -0.0130 -0.0385
  152MOL0     C20405  11.444   2.450  11.123 -1.0169  0.2401 -0.1940
  152MOL0     C20406  11.302   2.403  11.165  0.0011  0.0043 -0.1193
  152MOL0     C20407  11.306   2.308  11.286  0.3542 -0.1332 -0.6604
  152MOL0     C20408  11.178   2.232  11.332 -0.3167  0.3163  1.0401
  152MOL0     O20409  11.124   2.160  11.225 -0.0533 -0.4358 -0.2503
  152MOL0     C20410  11.172   2.036  11.177 -0.0201  0.7200 -0.6359
  152MOL0     C20411  11.273   1.964  11.244  0.0984  0.2559  0.0954
  152MOL0     C20412  11.310   1.833  11.202 -0.2421 -1.0121 -1.3058
  152MOL0     C20413  11.403   1.767  11.287  0.0212  0.1339  0.0335
  152MOL0     C20414  11.248   1.776  11.090 -0.8013  1.5428  0.2363
  152MOL0     C20415  11.272   1.630  11.055  0.6645  0.4617 -0.4681
  152MOL0     O20416  11.210   1.585  10.942 -0.1147 -0.0636 -0.8300
  152MOL0     C20417  11.212   1.457  10.911 -0.4256  0.1924 -0.3205
  152MOL0     C20418  11.309   1.413  10.821 -0.9845  0.3328 -1.2087
  152MOL0     C20419  11.315   1.298  10.758 -0.6566 -0.3080 -0.2571
  152MOL0     C20420  11.211   1.211  10.783  0.4966 -0.1258  0.6841
  152MOL0     O20421  11.221   1.088  10.703  0.1669 -0.1996 -0.1559
  152MOL0     C20422  11.158   0.967  10.756 -0.0642 -0.5954  1.3700
  152MOL0     C20423  11.208   0.926  10.896  0.5947 -0.1323  0.3457
  152MOL0     C20424  11.141   0.801  10.956 -0.4659 -0.1430 -0.6135
  152MOL0     C20425  11.261   0.707  10.989 -0.2997  1.1578  1.1340
  152MOL0     C20426  11.181   0.579  11.028 -0.2444 -0.5937 -0.1052
  152MOL0     C20427  11.239   0.511  11.153 -0.4296  0.0955 -0.2140
  152MOL0     C20428  11.144   0.414  11.230 -1.1049 -0.6632 -0.2258
  152MOL0     C20429  11.182   0.267  11.195 -0.0571  0.3925 -0.8201
  152MOL0    Cl20430  11.093   0.146  11.304  0.2844  0.1213  0.3888
  152MOL0     C20431  11.111   1.246  10.876 -0.8688 -0.9191  1.4680
  152MOL0     C20432  11.105   1.370  10.932  0.0436  0.3535  0.2754
  152MOL0     O20433  11.345   1.560  11.122  0.1104  0.6698 -0.2897
  152MOL0     C20434  11.156   1.855  11.015 -0.7547 -0.3035 -0.9583
  152MOL0     C20435  11.118   1.976  11.066 -0.6754  0.4309 -0.7990
  152MOL0     N20436  11.421   2.412  10.872 -0.4055  0.2371 -0.3351
  152MOL0     N20437  11.436   2.461  10.758 -1.6099  0.4764 -0.1811
  152MOL0     C20438  11.066   3.426   9.995  0.3550  0.1078  0.1558
  152MOL0     C20439  10.940   3.483   9.993  0.5916 -0.9881  0.7667
  152MOL0     C20440  10.487   3.526  10.031  0.6461 -0.3990  0.0188
  152MOL0     C20441  10.366   3.456  10.000  0.6453 -0.1899 -0.3835
  152MOL0     C20442  10.244   3.521  10.015 -0.0977 -0.3447  0.5179
  152MOL0     C20443  10.233   3.641  10.074  0.7669 -1.5043 -0.2896
  152MOL0     O20444  10.105   3.690  10.082 -0.3802 -0.6261 -0.4018
  152MOL0     C20445  10.086   3.822  10.137 -0.6035  0.8341 -0.8382
  152MOL0     C20446  10.088   3.939  10.044  0.1228 -0.1257 -0.7396
  152MOL0     C20447   9.982   3.931   9.926 -0.4959 -0.0934  0.1623
  152MOL0     C20448   9.958   4.071   9.860  0.1693  0.6656 -0.6861
  152MOL0     C20449  10.077   4.134   9.820 -0.5542 -0.1037  0.4402
  152MOL0     C20450  10.183   4.191   9.796  0.3474 -0.3195 -0.1173
  152MOL0     C20451  10.345   3.710  10.117  0.6167  0.1924 -0.4810
  152MOL0     C20452  10.472   3.658  10.090  0.9603 -0.0969  0.3645
  152MOL0     H20453  10.804   3.393  10.284 -0.1329  0.0888 -0.7048
  152MOL0     H20454  11.012   3.280  10.314  1.0402 -0.2981  0.3823
  152MOL0     H20455  11.165   3.157   9.988  0.4142  1.6226 -0.5360
  152MOL0     H20456  11.298   3.268   9.962 -2.0107  1.9493  1.3285
  152MOL0     H20457  11.368   3.020  10.000 -0.8676  1.0265 -1.0042
  152MOL0     H20458  11.450   3.135  10.111 -0.7202  2.1413  1.5267
  152MOL0     H20459  11.241   3.086  10.271  3.2203  4.7640 -1.9661
  152MOL0     H20460  11.227   2.935  10.165  0.2326 -0.8121  1.8510
  152MOL0     H20461  11.462   2.896  10.205 -0.5930 -2.8738  2.5139
  152MOL0     H20462  11.467   3.036  10.321  1.2303 -0.9438  1.9750
  152MOL0     H20463  11.271   2.917  10.448  0.1988  0.1954 -0.2180
  152MOL0     H20464  11.318   2.769  10.340 -0.8910  0.1356 -1.6067
  152MOL0     H20465  11.543   2.769  10.434  2.4468 -1.5467  4.0612
  152MOL0     H20466  11.506   2.913  10.535 -0.7310 -0.2095 -0.0519
  152MOL0     H20467  11.344   2.786  10.677 -1.0604 -3.8351  3.0161
  152MOL0     H20468  11.335   2.666  10.561 -0.9020  3.4449  0.1147
  152MOL0     H20469  11.612   2.726  10.704  1.3692 -1.6125  0.3456
  152MOL0     H20470  11.563   2.603  10.584 -0.2386  0.3431 -1.2331
  152MOL0     H20471  11.540   2.698  10.946  0.8511 -0.5408  1.0209
  152MOL0     H20472  11.525   2.379  11.142 -1.0674  0.5873  1.4419
  152MOL0     H20473  11.474   2.536  11.184  1.7196 -0.7388  0.0010
  152MOL0     H20474  11.263   2.340  11.084  0.3245 -0.9726  0.4810
  152MOL0     H20475  11.229   2.484  11.173 -1.1995 -0.6525 -3.0516
  152MOL0     H20476  11.343   2.368  11.370 -2.0582 -2.4364  2.2646
  152MOL0     H20477  11.391   2.241  11.267  1.8018  1.5180 -0.2933
  152MOL0     H20478  11.114   2.319  11.351  0.8753  1.5127 -0.0858
  152MOL0     H20479  11.199   2.165  11.415 -3.7845 -2.3060  0.0082
  152MOL0     H20480  11.323   2.006  11.331  2.9606  1.9725 -2.2309
  152MOL0     H20481  11.474   1.706  11.230  1.2254  0.4219  1.1864
  152MOL0     H20482  11.450   1.835  11.358  1.7683 -0.6275 -0.3430
  152MOL0     H20483  11.347   1.692  11.344  0.5415 -0.7132 -0.5436
  152MOL0     H20484  11.395   1.477  10.808  0.4189 -0.7962  1.5821
  152MOL0     H20485  11.396   1.283  10.687 -1.7936 -0.8794 -1.4745
  152MOL0     H20486  11.049   0.975  10.754 -0.0968 -1.0378  1.1296
  152MOL0     H20487  11.181   0.876  10.699 -3.3137 -1.3889  1.1502
  152MOL0     H20488  11.317   0.911  10.894  0.5160 -0.8412  0.8587
  152MOL0     H20489  11.174   1.012  10.954  1.8516  0.4909  0.2085
  152MOL0     H20490  11.088   0.758  10.870  0.9604  2.6117 -3.0838
  152MOL0     H20491  11.067   0.823  11.034 -0.9644 -1.1598 -0.7766
  152MOL0     H20492  11.324   0.688  10.901 -0.3641  2.6094  0.7587
  152MOL0     H20493  11.329   0.746  11.065  2.3284  0.2384 -0.5803
  152MOL0     H20494  11.195   0.507  10.947 -0.6549  0.9684 -1.6292
  152MOL0     H20495  11.075   0.593  11.047 -0.2522  1.2440 -1.2736
  152MOL0     H20496  11.328   0.456  11.119  0.1577 -2.1402  4.1594
  152MOL0     H20497  11.272   0.592  11.219 -0.9970  0.9579 -0.9640
  152MOL0     H20498  11.040   0.442  11.207 -1.2946 -1.1138  0.0785
  152MOL0     H20499  11.158   0.419  11.338 -5.1036 -1.4134  0.4903
  152MOL0     H20500  11.288   0.246  11.205 -0.3541 -0.8950 -0.0890
  152MOL0     H20501  11.147   0.240  11.095 -1.8450 -5.1628  0.9137
  152MOL0     H20502  11.019   1.188  10.874 -0.6457 -1.2672  1.0217
  152MOL0     H20503  11.006   1.398  10.967  0.1441  1.4603 -0.2805
  152MOL0     H20504  11.098   1.813  10.933 -1.7166  0.1337 -0.5252
  152MOL0     H20505  11.038   2.024  11.011 -1.1206  2.3311  1.3651
  152MOL0     H20506  11.152   3.441   9.930  0.8871  4.3078  1.5134
  152MOL0     H20507  10.905   3.536   9.905 -0.9251 -1.2611  1.1715
  152MOL0     H20508  10.380   3.354   9.966  0.0290 -1.2790  2.3552
  152MOL0     H20509  10.158   3.461   9.988 -0.2736  0.8137 -1.7592
  152MOL0     H20510   9.991   3.822  10.192  0.2609 -1.2646  0.8275
  152MOL0     H20511  10.154   3.856  10.216 -1.7804 -0.4243  0.8057
  152MOL0     H20512  10.192   3.949  10.012  0.4331  2.0775  0.7340
  152MOL0     H20513  10.082   4.021  10.116  0.6796  0.8593 -1.7820
  152MOL0     H20514   9.884   3.899   9.963 -0.5605  0.8675  0.8510
  152MOL0     H20515  10.016   3.853   9.857 -2.5817 -1.5458  0.6629
  152MOL0     H20516   9.911   4.137   9.933  0.8722  1.5251 -0.9991
  152MOL0     H20517   9.890   4.051   9.776  3.4477 -1.2708 -3.1107
  152MOL0     H20518  10.271   4.249   9.775 -0.7580  1.2957 -0.5184
  152MOL0     H20519  10.340   3.814  10.146 -2.7600 -0.1690  0.7504
  152MOL0     H20520  10.560   3.721  10.095 -2.0825  4.5836  2.6335
  153MOL0     O20521   6.159   8.884   3.666 -0.0869  1.1165 -0.2767
  153MOL0     C20522   6.126   8.766   3.639 -1.2270 -0.3090 -0.5866
  153MOL0     O20523   6.031   8.735   3.550  0.7764 -0.3779 -0.0628
  153MOL0     C20524   5.957   8.814   3.468 -0.8330 -0.8169 -0.7351
  153MOL0     C20525   5.968   8.948   3.458 -0.2221 -0.7689  1.0486
  153MOL0     C20526   5.873   9.011   3.373  0.1790  0.0803  0.8810
  153MOL0     C20527   5.772   8.943   3.309  0.1329  1.4771  0.9071
  153MOL0     O20528   5.687   9.000   3.226  0.0940 -0.7825  0.2067
  153MOL0     C20529   5.732   9.100   3.136 -0.6064  0.2179 -0.5487
  153MOL0     C20530   5.624   9.194   3.097 -0.4631 -0.8632 -0.3572
  153MOL0     C20531   5.540   9.265   3.201 -0.5690 -0.1020  0.4205
  153MOL0     C20532   5.395   9.300   3.140 -0.6604 -0.3914  0.2497
  153MOL0     C20533   5.392   9.454   3.096 -0.4272  0.0595  0.4525
  153MOL0     C20534   5.500   9.499   2.995 -0.7149 -0.2441  0.6537
  153MOL0     C20535   5.483   9.641   2.934 -0.5913  0.0565  0.3465
  153MOL0     C20536   5.521   9.754   3.029 -0.3414  0.3351  0.8129
  153MOL0     N20537   5.479   9.890   2.992 -0.0343  1.2207  1.7384
  153MOL0     C20538   5.501   9.945   2.872  0.5689  0.3550 -0.0707
  153MOL0     C20539   5.436  10.068   2.883 -1.1850  0.6593  0.0225
  153MOL0     C20540   5.438  10.168   2.772  0.2580 -0.0882 -0.6464
  153MOL0     C20541   5.548  10.277   2.813  0.4734 -0.0492  0.4859
  153MOL0     C20542   5.695  10.228   2.813  0.4167 -0.1340  0.2544
  153MOL0     C20543   5.761  10.210   2.671 -0.1559 -0.1347  0.1207
  153MOL0     O20544   5.885  10.140   2.682  0.0166  0.0749  0.1446
  153MOL0     C20545   5.951  10.114   2.565  1.4997  0.4823 -0.6919
  153MOL0     C20546   6.007   9.987   2.545  0.2859  0.0862 -0.3498
  153MOL0     C20547   6.075   9.956   2.427  0.0193 -0.9398 -0.8689
  153MOL0     C20548   6.130   9.819   2.411  0.0926 -0.3896  0.4350
  153MOL0     C20549   6.085  10.054   2.324  0.2576 -0.3622 -0.1395
  153MOL0     C20550   6.175  10.039   2.198 -0.3787  0.5871  0.7503
  153MOL0     O20551   6.203  10.153   2.131 -0.0623 -0.3841 -0.3455
  153MOL0     C20552   6.307  10.157   2.042  0.0697 -0.7109 -0.7064
  153MOL0     C20553   6.439  10.164   2.087  0.0749  0.4734 -0.1039
  153MOL0     C20554   6.540  10.178   1.993  0.1470 -1.0833 -1.1273
  153MOL0     C20555   6.512  10.189   1.852 -0.8042  0.7769 -0.1798
  153MOL0     O20556   6.607  10.203   1.754 -0.0156  0.0510 -0.6952
  153MOL0     C20557   6.735  10.242   1.812  0.0391  0.3055 -0.3950
  153MOL0     C20558   6.821  10.262   1.691 -0.1406  0.1701  0.1003
  153MOL0     C20559   6.848  10.417   1.658 -0.0181 -0.5051 -0.4496
  153MOL0     C20560   6.929  10.425   1.530 -0.2857  0.1235  0.5736
  153MOL0     C20561   6.843  10.413   1.404  0.0779  0.5635  0.5420
  153MOL0     C20562   6.925  10.369   1.287  0.9640  0.3295 -0.5141
  153MOL0     C20563   7.014  10.478   1.218  1.0044 -0.6167 -0.0990
  153MOL0     C20564   7.138  10.530   1.293 -0.2564 -0.8528  0.5593
  153MOL0    Cl20565   7.257  10.392   1.318 -0.2872  0.1830 -0.3096
  153MOL0     C20566   6.382  10.205   1.815  0.5611  0.7854  0.0729
  153MOL0     C20567   6.278  10.189   1.909  0.2175  0.0339  0.6222
  153MOL0     O20568   6.209   9.929   2.159 -0.2152  0.6091 -0.0477
  153MOL0     C20569   6.026  10.178   2.345  0.4409  0.2481 -0.1773
  153MOL0     C20570   5.957  10.214   2.461  0.1665 -0.9907 -0.0588
  153MOL0     N20571   5.373  10.080   2.999 -0.1903 -0.9386 -0.1610
  153MOL0     N20572   5.397   9.968   3.064 -0.2849  0.0951  0.6020
  153MOL0     C20573   5.767   8.804   3.326  0.1794 -0.9229 -0.4048
  153MOL0     C20574   5.858   8.740   3.396  0.1555  0.3350  0.3164
  153MOL0     C20575   6.194   8.660   3.731 -0.5768  0.0679 -0.6851
  153MOL0     C20576   6.130   8.531   3.749  0.4274  0.2182  0.0260
  153MOL0     C20577   6.187   8.430   3.827 -0.6504 -0.3954 -1.0998
  153MOL0     C20578   6.306   8.462   3.906 -0.4313  0.1388  0.1112
  153MOL0     O20579   6.349   8.368   3.996  0.2601 -0.7708 -0.2095
  153MOL0     C20580   6.460   8.389   4.085 -0.1698  0.5501  0.3816
  153MOL0     C20581   6.516   8.252   4.118  0.8767 -0.2303  0.7688
  153MOL0     C20582   6.530   8.155   4.004  0.5576 -0.8576  0.7324
  153MOL0     C20583   6.585   8.030   4.055 -0.5374 -0.1490  0.1651
  153MOL0     C20584   6.727   8.049   4.048  0.1231  0.5887  0.9650
  153MOL0     C20585   6.846   8.045   4.046 -0.5822 -0.8973 -0.2484
  153MOL0     C20586   6.374   8.582   3.873  0.0596 -0.5084 -0.6027
  153MOL0     C20587   6.321   8.686   3.792  0.2167 -0.1940 -0.4441
  153MOL0     H20588   6.017   9.025   3.516  1.2509  1.3785 -2.6960
  153MOL0     H20589   5.868   9.119   3.362  0.0974 -0.0293 -0.3403
  153MOL0     H20590   5.809   9.168   3.172  0.6148 -0.0193 -2.5266
  153MOL0     H20591   5.779   9.055   3.048  0.6970 -0.4214  0.4259
  153MOL0     H20592   5.673   9.276   3.045  0.4411  0.1556  1.9757
  153MOL0     H20593   5.552   9.150   3.027 -4.0138  3.2725  0.2918
  153MOL0     H20594   5.509   9.200   3.283 -2.7063 -2.1500 -1.8209
  153MOL0     H20595   5.584   9.358   3.236  0.9786 -0.8718  0.6056
  153MOL0     H20596   5.362   9.236   3.058 -1.2177 -0.1901  0.3163
  153MOL0     H20597   5.327   9.275   3.222 -1.3007 -0.5837 -0.3395
  153MOL0     H20598   5.298   9.492   3.056  2.2541  3.7467 -3.2635
  153MOL0     H20599   5.404   9.512   3.188 -2.8001 -0.5741  1.2314
  153MOL0     H20600   5.600   9.511   3.037  1.1183 -0.0664 -3.3152
  153MOL0     H20601   5.502   9.419   2.921 -0.9993 -0.2210  0.6191
  153MOL0     H20602   5.552   9.646   2.850  0.7626  2.7539  1.4819
  153MOL0     H20603   5.381   9.645   2.893 -0.0445 -2.5416 -1.5304
  153MOL0     H20604   5.630   9.746   3.037 -0.2240  0.8305 -0.1187
  153MOL0     H20605   5.473   9.734   3.125 -0.8355  1.3152  0.7871
  153MOL0     H20606   5.559   9.906   2.789  2.1062 -0.8251  1.4907
  153MOL0     H20607   5.454  10.106   2.683 -2.4618  1.2154 -2.1837
  153MOL0     H20608   5.348  10.229   2.756  1.3875  0.8743 -4.5274
  153MOL0     H20609   5.512  10.314   2.910  2.1771 -0.2412  1.2260
  153MOL0     H20610   5.540  10.357   2.738  2.2448  0.1631  0.4841
  153MOL0     H20611   5.696  10.130   2.861 -1.4871 -0.2883  0.0391
  153MOL0     H20612   5.751  10.298   2.876  0.2722  0.5218 -0.3422
  153MOL0     H20613   5.779  10.311   2.635 -3.5799  0.3857 -0.4600
  153MOL0     H20614   5.703  10.160   2.592  1.3431 -2.9358  0.6399
  153MOL0     H20615   6.012   9.900   2.610  2.6266 -0.7895 -1.5665
  153MOL0     H20616   6.084   9.781   2.319 -1.7987  2.0892  0.2542
  153MOL0     H20617   6.238   9.825   2.397  0.0650  3.6789  0.7830
  153MOL0     H20618   6.112   9.754   2.497 -0.4300  1.8530  2.1152
  153MOL0     H20619   6.461  10.172   2.193  1.0342  1.3966 -0.3486
  153MOL0     H20620   6.635  10.178   2.047 -1.4508  3.3015  2.3039
  153MOL0     H20621   6.732  10.335   1.869  1.3875 -0.3558  0.8292
  153MOL0     H20622   6.768  10.157   1.873 -1.8212 -0.8066 -0.8508
  153MOL0     H20623   6.917  10.214   1.712 -0.4236  0.5114  2.5047
  153MOL0     H20624   6.782  10.215   1.601  1.7330 -0.8587 -0.2343
  153MOL0     H20625   6.892  10.462   1.747 -0.8099  0.1911 -0.4024
  153MOL0     H20626   6.749  10.461   1.646 -0.4238 -0.4935  2.4132
  153MOL0     H20627   6.975  10.524   1.527 -2.9953  1.4781  0.4151
  153MOL0     H20628   7.018  10.361   1.529 -0.4628 -0.3523  3.6966
  153MOL0     H20629   6.788  10.507   1.392 -1.4290  0.1604  3.3691
  153MOL0     H20630   6.771  10.331   1.409 -1.0083  1.2588 -2.1744
  153MOL0     H20631   6.993  10.287   1.311  0.0353 -1.0376 -2.3217
  153MOL0     H20632   6.852  10.329   1.216  0.1931  2.5321 -1.0481
  153MOL0     H20633   6.944  10.559   1.194  3.0200  0.7355 -1.8678
  153MOL0     H20634   7.055  10.447   1.121  1.5012  1.4487 -0.6060
  153MOL0     H20635   7.122  10.574   1.392  0.6673 -2.4497  1.4631
  153MOL0     H20636   7.196  10.591   1.224 -0.2991 -2.6347 -1.1413
  153MOL0     H20637   6.373  10.205   1.707 -0.3321 -4.7088 -0.1313
  153MOL0     H20638   6.179  10.199   1.867  0.4446  2.8912  0.5219
  153MOL0     H20639   6.030  10.262   2.277  1.1037  1.4147  1.2667
  153MOL0     H20640   5.922  10.317   2.470 -0.8931 -1.3695  0.3093
  153MOL0     H20641   5.683   8.752   3.282 -0.2591 -1.4955  1.0576
  153MOL0     H20642   5.871   8.632   3.405  1.6521  0.4660 -0.0506
  153MOL0     H20643   6.027   8.524   3.715  0.0824  0.5438  0.9506
  153MOL0     H20644   6.154   8.329   3.845 -0.4667 -0.0836  1.2960
  153MOL0     H20645   6.541   8.441   4.032 -0.4395 -1.3953 -2.1294
  153MOL0     H20646   6.444   8.432   4.184  2.5167 -1.8610  2.0159
  153MOL0     H20647   6.461   8.208   4.201  0.5966 -3.3508 -0.9200
  153MOL0     H20648   6.618   8.276   4.149  1.4635 -1.2133 -0.3404
  153MOL0     H20649   6.588   8.196   3.921 -0.0560 -1.7247 -0.1408
  153MOL0     H20650   6.433   8.136   3.957  1.9574  1.2094 -3.5005
  153MOL0     H20651   6.559   7.940   3.998  0.8660 -2.2204  2.6019
  153MOL0     H20652   6.553   8.018   4.159  2.5542  4.5915  1.9926
  153MOL0     H20653   6.952   8.054   4.043 -0.6242  2.5075  2.6858
  153MOL0     H20654   6.464   8.611   3.927 -1.3497  4.5959 -0.4121
  153MOL0     H20655   6.385   8.773   3.785  1.4085 -0.8685  1.3132
  154MOL0     O20656   5.174   0.384   8.640 -0.1252 -0.2749  0.6063
  154MOL0     C20657   5.156   0.471   8.552 -0.4143  0.8743  0.5640
  154MOL0     O20658   5.245   0.531   8.468  0.5744  0.8254 -0.4606
  154MOL0     C20659   5.376   0.522   8.487  0.4824  0.0863  0.1177
  154MOL0     C20660   5.434   0.636   8.543  0.9947 -0.2493  0.6675
  154MOL0     C20661   5.570   0.640   8.579 -0.3192  0.2949 -0.1571
  154MOL0     C20662   5.651   0.517   8.562 -0.3200 -0.3545 -0.1355
  154MOL0     O20663   5.782   0.502   8.599 -0.0615 -0.1735 -0.0924
  154MOL0     C20664   5.801   0.504   8.740 -0.7036 -0.2576 -0.0097
  154MOL0     C20665   5.931   0.579   8.756 -0.7293 -0.3060  0.1512
  154MOL0     C20666   6.064   0.500   8.733 -0.1049  0.4101 -0.1297
  154MOL0     C20667   6.175   0.602   8.714  0.0478 -0.2997 -1.2308
  154MOL0     C20668   6.312   0.532   8.707 -0.2474 -0.1904  0.1724
  154MOL0     C20669   6.436   0.616   8.675  0.8247 -0.3336  0.5757
  154MOL0     C20670   6.569   0.548   8.652  0.0976  0.4016  0.3253
  154MOL0     C20671   6.682   0.640   8.632 -0.6716  0.1783 -0.4284
  154MOL0     N20672   6.702   0.722   8.752 -0.1211  0.2567  0.1251
  154MOL0     C20673   6.717   0.677   8.881 -0.4835 -0.7545  0.6282
  154MOL0     C20674   6.711   0.784   8.956  0.2071 -0.0518 -0.9776
  154MOL0     C20675   6.732   0.788   9.100  0.1069 -0.3398 -0.1771
  154MOL0     C20676   6.843   0.891   9.128 -0.2861  0.2798  0.3177
  154MOL0     C20677   6.976   0.819   9.077 -0.2030  0.3412  1.1011
  154MOL0     C20678   7.102   0.906   9.110  0.7687 -0.6535 -0.8286
  154MOL0     O20679   7.212   0.838   9.059  0.0449  0.4492 -0.6875
  154MOL0     C20680   7.333   0.884   9.089 -0.5804  0.8513  1.0009
  154MOL0     C20681   7.439   0.805   9.069 -0.5818  0.5114 -0.5115
  154MOL0     C20682   7.561   0.845   9.117 -0.3527 -1.1669 -1.2213
  154MOL0     C20683   7.671   0.737   9.126 -0.0312 -0.3546  0.1478
  154MOL0     C20684   7.590   0.984   9.142  0.7539  0.4163  1.0060
  154MOL0     C20685   7.730   1.036   9.162  0.0347  0.1145 -0.1448
  154MOL0     O20686   7.736   1.174   9.172  0.1093 -0.1680  0.1787
  154MOL0     C20687   7.850   1.224   9.230 -1.2136  0.8040  0.0538
  154MOL0     C20688   7.970   1.223   9.169 -0.5288 -0.3084 -0.7827
  154MOL0     C20689   8.073   1.296   9.236  0.2601 -0.2371  1.5498
  154MOL0     C20690   8.054   1.367   9.352 -0.6509 -1.0398 -0.4843
  154MOL0     O20691   8.154   1.441   9.411  0.8985 -0.1181 -0.2574
  154MOL0     C20692   8.288   1.388   9.404 -0.3953 -0.1410  0.5312
  154MOL0     C20693   8.383   1.461   9.511 -0.2347 -0.4542  0.2414
  154MOL0     C20694   8.513   1.384   9.512 -0.4024 -0.2532  0.1366
  154MOL0     C20695   8.618   1.466   9.591 -0.5638  0.6250 -0.4253
  154MOL0     C20696   8.601   1.464   9.741  1.3522  0.0443 -0.0845
  154MOL0     C20697   8.621   1.324   9.801 -0.1790 -0.3969  0.2811
  154MOL0     C20698   8.619   1.327   9.966 -0.6791 -0.1321  0.6547
  154MOL0     C20699   8.679   1.445  10.047 -0.3195  1.1169 -0.6504
  154MOL0    Cl20700   8.562   1.583  10.056  0.0146  0.0021 -0.3474
  154MOL0     C20701   7.929   1.375   9.407  0.1448 -0.8707  1.2935
  154MOL0     C20702   7.831   1.307   9.343  0.4674 -0.9377 -0.5666
  154MOL0     O20703   7.832   0.957   9.171 -0.2195 -0.2343  0.0350
  154MOL0     C20704   7.478   1.070   9.157 -0.0906  0.7333 -0.2096
  154MOL0     C20705   7.348   1.013   9.142  0.3561  0.1584 -0.3386
  154MOL0     N20706   6.691   0.902   8.878  0.3533  0.1969 -0.1624
  154MOL0     N20707   6.682   0.856   8.754  0.6612  0.1006  0.0628
  154MOL0     C20708   5.587   0.416   8.499  0.3233 -0.2326  0.2151
  154MOL0     C20709   5.453   0.413   8.463  0.5144  0.3570  0.5582
  154MOL0     C20710   5.010   0.502   8.527  0.5174  0.3331  1.1059
  154MOL0     C20711   4.970   0.603   8.439 -0.2792  0.0971  0.1279
  154MOL0     C20712   4.837   0.639   8.424  0.2055  0.0947  0.4679
  154MOL0     C20713   4.740   0.563   8.489  0.0051  0.2735  0.9846
  154MOL0     O20714   4.600   0.586   8.478 -0.3110 -0.7452 -0.1033
  154MOL0     C20715   4.544   0.647   8.363  0.0161  0.3755  0.1280
  154MOL0     C20716   4.387   0.661   8.392  0.2638 -0.2107 -0.5790
  154MOL0     C20717   4.310   0.691   8.260  0.1927  0.0050 -1.0703
  154MOL0     C20718   4.154   0.680   8.271  0.3862  0.4138 -0.3772
  154MOL0     C20719   4.108   0.712   8.408  0.5693  0.3582 -0.8240
  154MOL0     C20720   4.079   0.731   8.521  0.3794 -0.3018 -0.3495
  154MOL0     C20721   4.779   0.468   8.585  0.1731 -0.4962 -1.1029
  154MOL0     C20722   4.909   0.441   8.607  0.4217 -0.1700 -0.7307
  154MOL0     H20723   5.369   0.723   8.536  2.0648  0.4357 -2.5004
  154MOL0     H20724   5.627   0.725   8.615  0.4385 -1.4675  3.2159
  154MOL0     H20725   5.722   0.567   8.784 -0.6320  1.7066 -2.4581
  154MOL0     H20726   5.816   0.404   8.782  0.0130 -0.7995 -1.5025
  154MOL0     H20727   5.926   0.664   8.687 -1.5444 -1.4836 -1.3107
  154MOL0     H20728   5.925   0.606   8.861 -1.6057 -1.9581  0.5654
  154MOL0     H20729   6.089   0.442   8.822 -1.8637  0.1141  0.2113
  154MOL0     H20730   6.071   0.435   8.645  0.8180 -1.4625  1.2593
  154MOL0     H20731   6.151   0.657   8.622 -2.3885  0.1198 -0.3870
  154MOL0     H20732   6.182   0.677   8.793  1.6059 -0.8282 -0.8235
  154MOL0     H20733   6.327   0.466   8.793  0.8209  0.5871  0.6019
  154MOL0     H20734   6.319   0.454   8.630  2.8662 -0.6778  0.7819
  154MOL0     H20735   6.411   0.674   8.586 -0.6428 -2.9914 -0.8797
  154MOL0     H20736   6.445   0.684   8.760 -4.5957 -1.0427  2.1623
  154MOL0     H20737   6.601   0.487   8.738  1.8394  1.4171  0.4520
  154MOL0     H20738   6.567   0.478   8.569  3.0740 -1.5253  1.6960
  154MOL0     H20739   6.672   0.700   8.542  3.0354 -0.4563 -1.4140
  154MOL0     H20740   6.773   0.584   8.607  0.6800  2.9951 -2.2056
  154MOL0     H20741   6.744   0.575   8.907  1.6746  0.2559  2.6575
  154MOL0     H20742   6.650   0.845   9.143  0.2491 -0.3390  0.0910
  154MOL0     H20743   6.750   0.688   9.140  3.6438  0.8177  1.5344
  154MOL0     H20744   6.830   0.914   9.234 -2.2374 -2.9616  0.9111
  154MOL0     H20745   6.835   0.980   9.065 -0.2168  0.1899  0.1799
  154MOL0     H20746   6.982   0.810   8.968 -2.3990  1.6828  0.8118
  154MOL0     H20747   6.965   0.720   9.121  1.9154 -0.2895  0.3568
  154MOL0     H20748   7.108   0.915   9.219  2.8739  1.3920 -1.0443
  154MOL0     H20749   7.082   1.006   9.072 -0.8757 -0.9402 -0.7752
  154MOL0     H20750   7.422   0.706   9.028 -0.4030  0.8029 -1.3299
  154MOL0     H20751   7.751   0.740   9.052  2.5259 -3.7230  2.4407
  154MOL0     H20752   7.720   0.745   9.224 -1.6078  0.3584  0.9115
  154MOL0     H20753   7.617   0.642   9.138  1.8596 -1.4126  0.6961
  154MOL0     H20754   7.980   1.186   9.067 -2.2254  0.9421 -1.4548
  154MOL0     H20755   8.166   1.294   9.181 -1.2086  1.3969 -1.2035
  154MOL0     H20756   8.286   1.280   9.423 -2.2537 -0.1823  0.2451
  154MOL0     H20757   8.338   1.415   9.311  0.3563 -0.5259  0.8150
  154MOL0     H20758   8.403   1.565   9.483  1.2085 -0.8554 -0.3350
  154MOL0     H20759   8.343   1.457   9.612 -0.8091  1.5266  0.1395
  154MOL0     H20760   8.549   1.364   9.411 -2.8721  0.4256 -0.9669
  154MOL0     H20761   8.512   1.287   9.562 -0.2082 -1.5012 -2.1317
  154MOL0     H20762   8.714   1.426   9.556 -1.1528 -1.9807  0.7562
  154MOL0     H20763   8.625   1.568   9.551  1.3997  0.2284 -1.2074
  154MOL0     H20764   8.507   1.506   9.778  2.4448  2.2923  0.3378
  154MOL0     H20765   8.677   1.535   9.777 -0.1147  1.1416  0.9809
  154MOL0     H20766   8.548   1.247   9.775 -0.9467 -0.1504  1.5978
  154MOL0     H20767   8.721   1.287   9.777  1.7958  3.7256  1.2063
  154MOL0     H20768   8.668   1.234   9.995  1.5414  0.4897 -0.8394
  154MOL0     H20769   8.513   1.316   9.991 -0.7225 -1.2070  0.0572
  154MOL0     H20770   8.772   1.480  10.000  1.4315 -0.9462  1.0850
  154MOL0     H20771   8.707   1.415  10.148  0.0986 -1.6623 -1.5154
  154MOL0     H20772   7.915   1.441   9.492 -2.1737 -2.0772  1.9173
  154MOL0     H20773   7.728   1.322   9.375 -0.6250 -3.2488 -2.6711
  154MOL0     H20774   7.491   1.172   9.191  1.4125 -0.0383  1.6691
  154MOL0     H20775   7.263   1.080   9.151 -2.0922 -2.7665 -0.2948
  154MOL0     H20776   5.652   0.330   8.486 -0.4528 -1.2853  2.7449
  154MOL0     H20777   5.414   0.322   8.419  3.1567  0.4852 -2.4400
  154MOL0     H20778   5.050   0.652   8.384  1.4478 -3.4878 -0.9524
  154MOL0     H20779   4.805   0.715   8.354  1.3662 -0.1909 -0.3924
  154MOL0     H20780   4.583   0.749   8.354 -3.7418  2.0843  1.3163
  154MOL0     H20781   4.571   0.600   8.268 -1.5689 -0.2601 -0.0404
  154MOL0     H20782   4.370   0.724   8.480  2.6991 -0.6862  0.3080
  154MOL0     H20783   4.353   0.559   8.408  0.4070 -0.3031 -0.8496
  154MOL0     H20784   4.352   0.624   8.183  0.9055 -0.3149 -0.4123
  154MOL0     H20785   4.329   0.790   8.217  1.4406  0.7698  1.0811
  154MOL0     H20786   4.124   0.576   8.261 -0.2413  0.3037  1.9753
  154MOL0     H20787   4.099   0.728   8.190  0.6455 -1.0177 -1.4225
  154MOL0     H20788   4.050   0.725   8.625 -1.4785 -0.1627 -0.8175
  154MOL0     H20789   4.704   0.416   8.644 -0.0544  1.5679  0.5386
  154MOL0     H20790   4.942   0.360   8.672  3.2524  1.6550  0.2974
  155MOL0     O20791   5.375   7.184   9.229 -0.1523 -0.2468 -0.5078
  155MOL0     C20792   5.401   7.136   9.334  0.2463  0.5159 -0.9105
  155MOL0     O20793   5.520   7.065   9.364 -0.0040  0.3860  0.3822
  155MOL0     C20794   5.618   7.063   9.271  0.7860 -0.3428  0.0944
  155MOL0     C20795   5.714   7.167   9.262  0.4485 -0.0350 -0.3016
  155MOL0     C20796   5.826   7.153   9.174 -0.2418  0.3349  0.1962
  155MOL0     C20797   5.844   7.042   9.084  1.5302 -0.1666  1.1430
  155MOL0     O20798   5.943   7.037   8.991 -0.8582 -0.1068  0.5595
  155MOL0     C20799   5.916   6.988   8.851  0.6354 -0.5099  0.4844
  155MOL0     C20800   6.041   6.955   8.764  0.3641  0.4194  0.6164
  155MOL0     C20801   6.028   6.845   8.642 -1.0558  0.1064 -0.6758
  155MOL0     C20802   5.956   6.913   8.525 -0.2698  0.2238  0.6704
  155MOL0     C20803   5.908   6.797   8.436  0.2383 -0.3716  0.5465
  155MOL0     C20804   5.838   6.833   8.306 -0.1618 -0.8862  0.4302
  155MOL0     C20805   5.933   6.871   8.190 -0.0978  0.5087 -0.5168
  155MOL0     C20806   5.856   6.926   8.068  0.5173  0.9408 -0.4728
  155MOL0     N20807   5.801   6.827   7.976 -2.0019 -0.2032  0.4477
  155MOL0     C20808   5.884   6.758   7.889 -0.4753  0.2163  0.1166
  155MOL0     C20809   5.804   6.683   7.807 -0.5521  0.3985 -0.6471
  155MOL0     C20810   5.861   6.584   7.719 -0.8125 -0.5445  1.0228
  155MOL0     C20811   5.854   6.607   7.564 -0.0953  0.6081 -0.6844
  155MOL0     C20812   5.992   6.556   7.512 -0.2547  0.7520  0.4038
  155MOL0     C20813   6.025   6.534   7.363  0.0779  0.6341  0.0499
  155MOL0     O20814   5.995   6.659   7.286 -0.1993  1.1421  0.0558
  155MOL0     C20815   6.037   6.665   7.159  0.9827 -0.1386  0.1340
  155MOL0     C20816   6.039   6.792   7.111 -1.0046 -0.2010 -0.4405
  155MOL0     C20817   6.115   6.832   6.992 -0.3388 -0.3830  1.1771
  155MOL0     C20818   6.105   6.977   6.950  0.0337 -0.2946  1.2681
  155MOL0     C20819   6.174   6.735   6.913 -0.1929 -0.0117 -0.3492
  155MOL0     C20820   6.246   6.760   6.790  0.0024 -0.5955  0.4754
  155MOL0     O20821   6.257   6.655   6.696 -0.5499  0.2651 -0.4778
  155MOL0     C20822   6.332   6.672   6.582 -0.0714  0.6214  0.8700
  155MOL0     C20823   6.474   6.675   6.576 -0.6601  1.3664  0.2574
  155MOL0     C20824   6.540   6.709   6.457 -0.2699  0.1127  0.1819
  155MOL0     C20825   6.475   6.757   6.346  0.5113  0.2848  0.2455
  155MOL0     O20826   6.548   6.793   6.231 -0.7610 -0.0550 -0.3807
  155MOL0     C20827   6.472   6.792   6.112  0.0697  0.4984  0.8926
  155MOL0     C20828   6.559   6.800   6.000  1.2919  0.0926 -0.1423
  155MOL0     C20829   6.476   6.806   5.875 -0.2422 -0.3385  0.5521
  155MOL0     C20830   6.438   6.669   5.828  0.5484 -0.3675 -0.2393
  155MOL0     C20831   6.347   6.691   5.708  1.1137 -0.0778 -0.1613
  155MOL0     C20832   6.322   6.548   5.654 -0.4919  0.2350 -0.5463
  155MOL0     C20833   6.222   6.516   5.536 -0.4470  0.5510  0.0316
  155MOL0     C20834   6.242   6.608   5.415 -0.9691 -0.4038  0.7141
  155MOL0    Cl20835   6.203   6.779   5.448  0.1310  0.8292  0.3678
  155MOL0     C20836   6.333   6.776   6.355 -0.6855 -0.4612  0.3372
  155MOL0     C20837   6.266   6.721   6.463 -0.2259  0.1982 -0.2976
  155MOL0     O20838   6.299   6.871   6.775 -0.0041  0.4769  0.4416
  155MOL0     C20839   6.164   6.597   6.960  0.0065 -0.8032  0.8397
  155MOL0     C20840   6.099   6.569   7.083  0.1284  0.2023  0.2529
  155MOL0     N20841   5.672   6.709   7.851 -0.1740  0.0362 -0.3573
  155MOL0     N20842   5.676   6.793   7.948 -0.7160 -0.5128 -0.1538
  155MOL0     C20843   5.743   6.941   9.092  0.0962 -0.6450  0.4557
  155MOL0     C20844   5.634   6.953   9.184  0.3779 -0.4397  0.3284
  155MOL0     C20845   5.290   7.123   9.426 -0.4674  0.8350  0.0703
  155MOL0     C20846   5.168   7.170   9.395 -0.3558  0.8286 -1.0389
  155MOL0     C20847   5.061   7.174   9.487  0.0068 -0.4366  0.4522
  155MOL0     C20848   5.076   7.116   9.617 -0.3510 -0.2178 -0.1458
  155MOL0     O20849   4.961   7.117   9.698 -0.3042 -0.5060 -0.2675
  155MOL0     C20850   4.968   7.050   9.821  0.9912 -0.3350 -0.3937
  155MOL0     C20851   4.979   6.902   9.792  0.0052  0.0744 -0.4240
  155MOL0     C20852   4.870   6.843   9.708  0.1229  0.0670  0.2794
  155MOL0     C20853   4.861   6.691   9.723  0.0155 -0.3778 -0.2711
  155MOL0     C20854   4.737   6.635   9.670 -0.9897  0.0634 -0.6007
  155MOL0     C20855   4.638   6.573   9.635 -0.1419  0.1589  0.1457
  155MOL0     C20856   5.209   7.069   9.645  0.2653 -0.6247 -0.7035
  155MOL0     C20857   5.317   7.071   9.558  0.8542  0.0226  0.7218
  155MOL0     H20858   5.713   7.254   9.327 -1.8308 -2.4881  3.2548
  155MOL0     H20859   5.901   7.231   9.160 -2.4650  2.4357 -0.7640
  155MOL0     H20860   5.853   6.899   8.862 -1.3445  0.8578  0.6511
  155MOL0     H20861   5.862   7.068   8.801 -0.0699  0.6000  2.8735
  155MOL0     H20862   6.079   7.049   8.724  0.3663 -0.0140 -0.4185
  155MOL0     H20863   6.112   6.914   8.837  1.2972 -1.5145 -1.2869
  155MOL0     H20864   6.129   6.823   8.606 -0.2958  0.0387  1.3693
  155MOL0     H20865   5.978   6.754   8.676  1.9267 -1.2320  0.5233
  155MOL0     H20866   5.865   6.958   8.567 -1.4820 -2.5802  1.3038
  155MOL0     H20867   6.016   6.980   8.463 -0.6452  0.2170  0.2904
  155MOL0     H20868   5.999   6.747   8.403 -0.1601 -0.4085 -0.5500
  155MOL0     H20869   5.854   6.723   8.495 -0.3512  1.1221  1.9657
  155MOL0     H20870   5.779   6.749   8.269 -5.1203  1.5572  1.9621
  155MOL0     H20871   5.769   6.916   8.325 -1.5974 -1.7086 -1.0475
  155MOL0     H20872   6.023   6.928   8.218  1.3686 -2.3849  1.1563
  155MOL0     H20873   5.988   6.779   8.169  1.9363  1.1797  1.3272
  155MOL0     H20874   5.922   6.992   8.010 -0.4902  1.7051 -0.7660
  155MOL0     H20875   5.769   6.984   8.099  2.3937  2.3756  2.6994
  155MOL0     H20876   5.993   6.757   7.892 -0.4480 -0.2943 -0.7085
  155MOL0     H20877   5.965   6.561   7.745 -0.2502 -1.5983 -1.8460
  155MOL0     H20878   5.798   6.495   7.724 -1.4779 -0.3632 -2.1867
  155MOL0     H20879   5.833   6.710   7.534 -5.6341 -0.1295 -0.4315
  155MOL0     H20880   5.775   6.542   7.527 -0.7699  1.1103 -0.1529
  155MOL0     H20881   6.013   6.460   7.562  0.2246  1.9102  2.5862
  155MOL0     H20882   6.069   6.625   7.548  0.0609  1.0176 -0.7465
  155MOL0     H20883   5.960   6.455   7.323  0.7408  0.5441 -0.8867
  155MOL0     H20884   6.130   6.509   7.349  0.0551  1.1467 -1.2641
  155MOL0     H20885   5.987   6.869   7.168  1.6898  0.7851  0.8883
  155MOL0     H20886   6.084   6.995   6.844 -1.2756 -1.5498  1.2842
  155MOL0     H20887   6.013   7.015   6.995  0.1399  3.0243 -0.9913
  155MOL0     H20888   6.184   7.039   6.994 -1.6755  1.8796  1.4216
  155MOL0     H20889   6.529   6.638   6.663 -1.1322  4.5938  2.0845
  155MOL0     H20890   6.648   6.700   6.452 -0.2700  0.3014 -0.1915
  155MOL0     H20891   6.404   6.707   6.109 -0.0473  0.6116  0.1334
  155MOL0     H20892   6.403   6.878   6.113 -0.6870  0.0795 -2.5402
  155MOL0     H20893   6.586   6.904   6.023 -0.0892  0.0969  1.7281
  155MOL0     H20894   6.650   6.740   5.998  1.9452  1.0229  0.4536
  155MOL0     H20895   6.546   6.845   5.801 -1.7147 -0.4375 -0.9379
  155MOL0     H20896   6.390   6.872   5.889 -2.1827 -2.3480 -1.2021
  155MOL0     H20897   6.526   6.614   5.793 -0.6264 -2.3013 -0.2957
  155MOL0     H20898   6.385   6.611   5.904 -0.3069  0.2690 -0.3514
  155MOL0     H20899   6.404   6.755   5.640  0.2672  0.2572 -0.5753
  155MOL0     H20900   6.252   6.742   5.725  0.2372 -1.4840 -0.6507
  155MOL0     H20901   6.419   6.506   5.624  1.0546  2.6207  0.7720
  155MOL0     H20902   6.277   6.491   5.735  1.8439  0.8500  1.3170
  155MOL0     H20903   6.122   6.533   5.576 -0.5721  0.7425 -0.3611
  155MOL0     H20904   6.227   6.412   5.502  1.7426  1.0252 -1.3071
  155MOL0     H20905   6.176   6.567   5.338  2.7046 -2.8500 -1.4183
  155MOL0     H20906   6.346   6.591   5.387 -1.1853 -4.7869  1.8821
  155MOL0     H20907   6.279   6.829   6.279  0.3299 -0.4200 -0.3771
  155MOL0     H20908   6.159   6.726   6.481  0.0126 -1.0545  1.7050
  155MOL0     H20909   6.201   6.516   6.898 -0.0303  0.7341 -1.2777
  155MOL0     H20910   6.104   6.466   7.116  1.3146  0.3225  0.4908
  155MOL0     H20911   5.745   6.855   9.026  4.7714 -1.6676  1.6068
  155MOL0     H20912   5.557   6.877   9.180 -0.8060  0.5671  2.1658
  155MOL0     H20913   5.152   7.216   9.298 -0.5153  3.1466  0.0024
  155MOL0     H20914   4.965   7.220   9.467 -0.7134 -2.3340 -0.6472
  155MOL0     H20915   5.054   7.080   9.881  1.8073  1.3064 -2.2649
  155MOL0     H20916   4.883   7.086   9.881  1.4816  2.6245 -1.2991
  155MOL0     H20917   4.970   6.860   9.893 -1.8148 -2.4551 -1.5282
  155MOL0     H20918   5.078   6.879   9.751 -0.0974  1.0317 -1.2463
  155MOL0     H20919   4.901   6.880   9.609 -1.5111  0.3343 -0.1576
  155MOL0     H20920   4.778   6.888   9.746  0.7659  0.1039  1.8826
  155MOL0     H20921   4.869   6.662   9.829  1.6578 -3.0518 -1.0126
  155MOL0     H20922   4.939   6.642   9.665 -0.8087 -1.8275 -0.2329
  155MOL0     H20923   4.546   6.518   9.627 -0.5220  0.8166 -0.0314
  155MOL0     H20924   5.231   7.012   9.734 -0.7718 -0.9723 -0.6585
  155MOL0     H20925   5.408   7.033   9.603  2.5936  4.3433  1.3833
  156MOL0     O20926   4.312   6.809   1.412 -0.2232  0.7937 -0.1000
  156MOL0     C20927   4.395   6.824   1.334 -0.8367 -0.1375  1.0941
  156MOL0     O20928   4.515   6.875   1.356 -0.0161 -0.0939 -0.5426
  156MOL0     C20929   4.572   6.881   1.484  0.2138  0.2891  0.1107
  156MOL0     C20930   4.524   6.806   1.597  0.1496 -0.1651 -0.2924
  156MOL0     C20931   4.594   6.802   1.721  0.1865  0.4001  1.4386
  156MOL0     C20932   4.712   6.884   1.728 -0.6491  0.9677  0.2060
  156MOL0     O20933   4.783   6.895   1.847 -0.1214  0.0207  0.3654
  156MOL0     C20934   4.703   6.911   1.968  0.2867 -0.4152  0.1191
  156MOL0     C20935   4.813   6.928   2.076  0.5306 -0.0706 -0.3768
  156MOL0     C20936   4.916   6.816   2.078 -0.1187  0.2066  0.6021
  156MOL0     C20937   4.848   6.689   2.132 -0.2037  0.1936  0.2978
  156MOL0     C20938   4.953   6.583   2.160 -0.8119 -0.3307 -0.0882
  156MOL0     C20939   5.028   6.533   2.033 -0.3598  1.0566 -0.0230
  156MOL0     C20940   5.109   6.408   2.075 -0.7707  0.2856  0.3310
  156MOL0     C20941   5.204   6.344   1.955 -0.8599 -0.8477  0.4789
  156MOL0     N20942   5.266   6.215   1.983  0.0270 -0.2158  0.0437
  156MOL0     C20943   5.326   6.162   2.099  0.2480  0.4028 -0.8097
  156MOL0     C20944   5.333   6.029   2.064  0.0565  0.1648  0.6026
  156MOL0     C20945   5.382   5.922   2.163  0.2699 -0.1258 -0.3787
  156MOL0     C20946   5.531   5.883   2.142  0.1366  0.2186  0.5483
  156MOL0     C20947   5.570   5.786   2.252  0.8589  0.5466 -0.3723
  156MOL0     C20948   5.502   5.659   2.224  0.9489  0.4046 -0.3649
  156MOL0     O20949   5.606   5.560   2.211  0.1111 -0.6125  0.3083
  156MOL0     C20950   5.642   5.507   2.339  0.5156  0.0948  0.5392
  156MOL0     C20951   5.603   5.549   2.474  0.3675  1.0421  0.3124
  156MOL0     C20952   5.663   5.471   2.579  0.7216 -0.3606  0.1653
  156MOL0     C20953   5.623   5.524   2.715 -0.0616  0.5127 -0.6338
  156MOL0     C20954   5.749   5.360   2.557 -0.6572  0.9281 -0.6339
  156MOL0     C20955   5.802   5.269   2.675  0.6328 -0.0246  0.9041
  156MOL0     O20956   5.857   5.151   2.631 -0.8669  0.2202 -0.1008
  156MOL0     C20957   5.946   5.084   2.721  0.7282  1.0716 -0.7669
  156MOL0     C20958   5.899   4.953   2.770  0.2169 -0.3681  0.3174
  156MOL0     C20959   5.962   4.896   2.880 -0.1898  0.7723  0.4392
  156MOL0     C20960   6.070   4.961   2.942  0.0571 -0.5770  0.2959
  156MOL0     O20961   6.141   4.901   3.047 -0.4759 -1.0902  0.0614
  156MOL0     C20962   6.169   4.758   3.040  0.2530  0.3802  0.1478
  156MOL0     C20963   6.229   4.714   3.177  0.0783 -0.5233 -0.5261
  156MOL0     C20964   6.271   4.574   3.195 -0.1518  0.8182 -1.0914
  156MOL0     C20965   6.302   4.556   3.341  0.2562  0.0697  0.7037
  156MOL0     C20966   6.354   4.414   3.389  0.5865 -0.0976 -0.2985
  156MOL0     C20967   6.432   4.436   3.520  0.3336 -0.3431  1.0134
  156MOL0     C20968   6.574   4.487   3.487  0.2783  0.4232 -0.0674
  156MOL0     C20969   6.671   4.459   3.597  0.0585  0.1285  0.0317
  156MOL0    Cl20970   6.641   4.552   3.747  0.4339  0.0281  0.1596
  156MOL0     C20971   6.115   5.081   2.887  0.1951  0.2860  0.2436
  156MOL0     C20972   6.055   5.146   2.779  1.1604 -0.1329 -0.2144
  156MOL0     O20973   5.806   5.302   2.794  0.2216 -0.3303  0.7359
  156MOL0     C20974   5.778   5.322   2.428 -0.3542 -0.4707  0.0564
  156MOL0     C20975   5.723   5.394   2.322 -0.6704  0.3013  0.1503
  156MOL0     N20976   5.289   6.005   1.933 -0.4195  0.0923 -0.1222
  156MOL0     N20977   5.255   6.120   1.892 -0.1676  0.2074  0.1603
  156MOL0     C20978   4.758   6.952   1.617  1.0410 -0.9585 -0.0065
  156MOL0     C20979   4.690   6.945   1.493 -0.2345  0.1432  0.0741
  156MOL0     C20980   4.364   6.767   1.203 -0.4670 -0.3789  0.3570
  156MOL0     C20981   4.305   6.643   1.200  0.4484 -1.3713  0.5824
  156MOL0     C20982   4.287   6.581   1.079 -1.2660  0.5391  0.6020
  156MOL0     C20983   4.328   6.631   0.959  0.3590  0.2035  0.2466
  156MOL0     O20984   4.300   6.558   0.843 -0.1351 -0.4931 -0.4174
  156MOL0     C20985   4.301   6.626   0.715 -0.4712  0.9672  0.3986
  156MOL0     C20986   4.170   6.576   0.640 -0.7887 -0.2570  0.6127
  156MOL0     C20987   4.037   6.615   0.703 -1.1540  0.0853 -0.6319
  156MOL0     C20988   4.024   6.764   0.727 -0.1846 -0.0966  0.0261
  156MOL0     C20989   4.051   6.858   0.617 -0.1705 -0.0738 -0.2952
  156MOL0     C20990   4.063   6.938   0.523  0.5852  0.8676 -0.0965
  156MOL0     C20991   4.391   6.755   0.959  0.3526 -0.3728 -0.4020
  156MOL0     C20992   4.407   6.828   1.079 -0.2953  0.5852  0.8843
  156MOL0     H20993   4.437   6.742   1.606 -0.7702  1.0248 -0.4201
  156MOL0     H20994   4.567   6.734   1.801  2.8790 -4.9875 -1.6587
  156MOL0     H20995   4.648   7.005   1.962  1.7600  0.4946  0.3725
  156MOL0     H20996   4.629   6.832   1.986 -0.3568 -0.0023 -0.6440
  156MOL0     H20997   4.877   7.013   2.050  2.6463 -1.9194 -1.5231
  156MOL0     H20998   4.766   6.953   2.172  0.7175  0.7830 -0.4986
  156MOL0     H20999   4.956   6.783   1.981  2.2348 -0.7029  1.7908
  156MOL0     H21000   4.998   6.846   2.144  0.6515 -1.7251  0.6163
  156MOL0     H21001   4.789   6.721   2.218  3.3277  2.1819  2.2085
  156MOL0     H21002   4.775   6.649   2.060 -0.4562  2.6461 -0.9298
  156MOL0     H21003   5.018   6.637   2.230 -1.1254  0.2118 -0.2105
  156MOL0     H21004   4.926   6.492   2.215  0.1300 -0.3778  0.3073
  156MOL0     H21005   4.953   6.522   1.954  0.4398  2.5999 -1.0412
  156MOL0     H21006   5.099   6.604   1.989 -0.8910 -0.4925 -3.7900
  156MOL0     H21007   5.181   6.435   2.154  0.2779  1.0147 -0.8420
  156MOL0     H21008   5.045   6.327   2.113 -0.7845 -0.9527 -2.1600
  156MOL0     H21009   5.284   6.417   1.938 -1.3166 -0.5260 -0.3497
  156MOL0     H21010   5.158   6.321   1.859 -0.3829  0.5123 -0.0972
  156MOL0     H21011   5.354   6.208   2.193  0.5696  0.2146 -0.8131
  156MOL0     H21012   5.379   5.969   2.262 -0.9644 -0.3035 -0.3109
  156MOL0     H21013   5.310   5.841   2.170 -0.1013  0.1447 -0.9904
  156MOL0     H21014   5.598   5.968   2.160 -0.6907  0.9187  0.4040
  156MOL0     H21015   5.539   5.843   2.041  0.3572 -1.6768  1.2791
  156MOL0     H21016   5.536   5.814   2.352 -1.7474  1.8526 -1.5115
  156MOL0     H21017   5.678   5.770   2.244  0.9316  1.1663 -0.6688
  156MOL0     H21018   5.446   5.661   2.130 -0.1325 -0.0178  0.2591
  156MOL0     H21019   5.433   5.629   2.303  0.5233 -1.3193 -1.3425
  156MOL0     H21020   5.529   5.625   2.499 -1.8932 -1.7178  2.6720
  156MOL0     H21021   5.708   5.567   2.768 -0.0596 -1.8945  1.4637
  156MOL0     H21022   5.542   5.597   2.709 -0.3190  0.2370 -0.5053
  156MOL0     H21023   5.591   5.439   2.775 -0.3165  0.4541 -0.8517
  156MOL0     H21024   5.824   4.896   2.717  2.2074 -1.1711 -1.8195
  156MOL0     H21025   5.929   4.804   2.928 -0.9485  2.4124  3.3304
  156MOL0     H21026   6.075   4.704   3.022 -1.1827  2.3802  1.2379
  156MOL0     H21027   6.249   4.749   2.966  1.5500  1.3244  1.3897
  156MOL0     H21028   6.318   4.776   3.190 -1.4285  1.8482 -1.0430
  156MOL0     H21029   6.153   4.742   3.250  0.8247 -0.6255  0.3005
  156MOL0     H21030   6.355   4.550   3.131 -1.1909 -0.7317 -1.9510
  156MOL0     H21031   6.190   4.502   3.178  0.3131 -0.1858  0.6610
  156MOL0     H21032   6.373   4.633   3.370  0.9025 -1.1696  2.5931
  156MOL0     H21033   6.209   4.572   3.396 -1.0339 -1.9929 -0.7001
  156MOL0     H21034   6.420   4.363   3.319  0.7829  0.5890 -0.6172
  156MOL0     H21035   6.267   4.348   3.395 -0.6069  1.5319  3.0535
  156MOL0     H21036   6.374   4.503   3.585  0.8193  0.9026  0.2132
  156MOL0     H21037   6.434   4.336   3.563  1.9554 -1.4561 -1.4318
  156MOL0     H21038   6.576   4.593   3.459 -1.7900  0.4934 -0.0515
  156MOL0     H21039   6.614   4.434   3.401  0.8767 -1.1186  1.1120
  156MOL0     H21040   6.776   4.477   3.574  0.2430  2.2263  2.0398
  156MOL0     H21041   6.658   4.356   3.632  3.1912  0.1699  1.7110
  156MOL0     H21042   6.208   5.128   2.918  0.2197 -0.7878  1.8686
  156MOL0     H21043   6.083   5.244   2.740 -1.5517  1.2608  1.0569
  156MOL0     H21044   5.833   5.229   2.412 -0.1394 -0.1764 -0.9356
  156MOL0     H21045   5.750   5.351   2.226 -0.8956  1.8794 -0.6528
  156MOL0     H21046   4.847   7.015   1.623 -2.0159  4.1622 -1.8635
  156MOL0     H21047   4.739   6.991   1.408 -2.6327  1.9801 -0.4357
  156MOL0     H21048   4.284   6.592   1.294 -0.9961  0.8439  1.5482
  156MOL0     H21049   4.245   6.484   1.056 -0.9345  0.2989  0.9959
  156MOL0     H21050   4.320   6.734   0.720  0.5929  0.8163 -0.0819
  156MOL0     H21051   4.384   6.580   0.662 -0.1326 -0.3772  2.0262
  156MOL0     H21052   4.172   6.468   0.626 -3.1517 -0.1860 -0.7418
  156MOL0     H21053   4.168   6.620   0.540 -3.2528  2.3798  1.6852
  156MOL0     H21054   4.035   6.555   0.794  2.2103 -1.1756 -1.2265
  156MOL0     H21055   3.949   6.590   0.643 -1.3922  0.8016 -0.5900
  156MOL0     H21056   4.087   6.796   0.810  0.9961 -0.7481 -0.5878
  156MOL0     H21057   3.920   6.784   0.755 -0.4136 -0.1795 -0.7380
  156MOL0     H21058   4.088   7.023   0.462 -0.3094  2.2841  1.4154
  156MOL0     H21059   4.449   6.800   0.878 -0.2596  2.9181  0.8444
  156MOL0     H21060   4.448   6.929   1.083  1.4723 -0.0698  0.2749
  157MOL0     O21061  10.702   5.978   5.551 -0.2681 -0.6753 -0.8375
  157MOL0     C21062  10.790   5.895   5.515  0.6972 -0.3898  0.8591
  157MOL0     O21063  10.777   5.806   5.414  0.0512 -0.1098  0.0360
  157MOL0     C21064  10.649   5.790   5.366  0.6638 -0.4766  0.8978
  157MOL0     C21065  10.559   5.696   5.410 -1.1455 -0.6185  0.6997
  157MOL0     C21066  10.437   5.686   5.340 -0.2984 -0.0308  0.0315
  157MOL0     C21067  10.396   5.778   5.242  0.0903  0.5581 -0.5766
  157MOL0     O21068  10.273   5.759   5.189  1.1943 -0.4669  0.4504
  157MOL0     C21069  10.233   5.641   5.124  0.6234 -0.0604  0.4193
  157MOL0     C21070  10.337   5.585   5.029 -0.3570 -0.1357 -0.1424
  157MOL0     C21071  10.304   5.459   4.959 -0.0841  0.0966  0.1071
  157MOL0     C21072  10.406   5.426   4.861  0.3003  0.2534 -0.5936
  157MOL0     C21073  10.358   5.324   4.757 -0.2696 -0.3526 -0.2255
  157MOL0     C21074  10.336   5.186   4.817  0.4194 -0.0073  0.1203
  157MOL0     C21075  10.301   5.079   4.709 -0.1156  0.2885  0.1828
  157MOL0     C21076  10.160   5.092   4.661 -0.0382  0.6316  0.5813
  157MOL0     N21077  10.059   5.052   4.746 -0.5751  0.2565 -0.0436
  157MOL0     C21078  10.031   4.924   4.767  0.1782 -0.3069  0.4833
  157MOL0     C21079   9.931   4.924   4.854  0.5371 -0.2109  0.6989
  157MOL0     C21080   9.879   4.805   4.919 -0.0688  0.4726  0.2541
  157MOL0     C21081   9.824   4.713   4.809  0.7386 -0.6661 -0.1372
  157MOL0     C21082   9.700   4.642   4.847 -0.6167  0.2248  0.6551
  157MOL0     C21083   9.715   4.543   4.969 -0.5555 -0.7800  1.0529
  157MOL0     O21084   9.641   4.419   4.939  0.2118 -0.0329 -0.2810
  157MOL0     C21085   9.515   4.425   4.992 -0.6793  0.5266  0.1879
  157MOL0     C21086   9.432   4.533   4.961  0.7489 -0.1797  0.0340
  157MOL0     C21087   9.304   4.540   5.013  0.4197 -0.1917 -0.7420
  157MOL0     C21088   9.213   4.664   4.977  0.0556 -0.3348  0.9008
  157MOL0     C21089   9.258   4.438   5.103  0.2389 -0.1380  0.0496
  157MOL0     C21090   9.116   4.438   5.159  0.5953 -0.6259  0.3924
  157MOL0     O21091   9.055   4.311   5.163 -0.0807 -0.0997 -0.1551
  157MOL0     C21092   8.946   4.298   5.242  0.8841 -0.4908  0.2812
  157MOL0     C21093   8.816   4.346   5.216 -0.2528 -0.0431 -0.9875
  157MOL0     C21094   8.712   4.333   5.315  0.2157  0.6244 -0.2202
  157MOL0     C21095   8.737   4.271   5.439 -0.0345 -0.3040 -0.5145
  157MOL0     O21096   8.643   4.252   5.532 -0.4268  0.3039  0.3339
  157MOL0     C21097   8.517   4.195   5.484  0.4822 -0.3883  0.0475
  157MOL0     C21098   8.459   4.122   5.601 -0.1747  0.5612  0.2780
  157MOL0     C21099   8.327   4.046   5.565 -0.3400 -0.8544  0.1384
  157MOL0     C21100   8.201   4.126   5.610  0.5164  0.1075 -0.4703
  157MOL0     C21101   8.057   4.054   5.613 -0.9902  0.2780  0.2000
  157MOL0     C21102   7.945   4.147   5.653  0.0457  0.1897  0.3023
  157MOL0     C21103   7.810   4.103   5.622  1.5071 -0.3741 -0.5573
  157MOL0     C21104   7.754   4.160   5.488 -1.1597 -0.3434 -0.5752
  157MOL0    Cl21105   7.575   4.134   5.483 -0.2054 -0.1137  0.1159
  157MOL0     C21106   8.867   4.240   5.466  0.5952 -0.1098 -0.0110
  157MOL0     C21107   8.965   4.248   5.369 -0.1621 -0.7933 -0.1143
  157MOL0     O21108   9.077   4.542   5.207  0.4768 -0.4596 -0.1605
  157MOL0     C21109   9.346   4.345   5.139 -0.5081  0.2865  0.2024
  157MOL0     C21110   9.475   4.335   5.087  0.3319  0.4569 -1.2800
  157MOL0     N21111   9.890   5.059   4.867 -0.1946  0.9135  0.6741
  157MOL0     N21112   9.970   5.138   4.805  0.0414 -0.6684 -0.3700
  157MOL0     C21113  10.483   5.874   5.197 -0.1132  0.4468 -0.1881
  157MOL0     C21114  10.609   5.877   5.264 -0.4193  0.3236  0.7063
  157MOL0     C21115  10.912   5.902   5.594  0.4139  0.2213 -0.1842
  157MOL0     C21116  10.923   5.983   5.707  0.1679  0.2968  0.6522
  157MOL0     C21117  11.035   5.986   5.793  1.5861  0.0947 -0.3505
  157MOL0     C21118  11.135   5.890   5.781 -0.0549  1.0659  0.4940
  157MOL0     O21119  11.242   5.877   5.865 -0.2192 -0.1460  0.0431
  157MOL0     C21120  11.341   5.777   5.832 -0.1808  0.0816  0.0699
  157MOL0     C21121  11.466   5.810   5.929  0.7798  0.3524 -0.5776
  157MOL0     C21122  11.436   5.823   6.083  0.4195  0.2541  0.3009
  157MOL0     C21123  11.554   5.835   6.176 -0.4281  0.8092 -0.0780
  157MOL0     C21124  11.649   5.947   6.146  1.2333  0.3507  0.1592
  157MOL0     C21125  11.723   6.032   6.125 -1.0438  0.1070  0.2618
  157MOL0     C21126  11.123   5.804   5.672  0.3709  0.1522 -0.2463
  157MOL0     C21127  11.019   5.808   5.578  0.2434 -0.2830  0.3659
  157MOL0     H21128  10.585   5.624   5.487  0.3420 -1.6209 -0.6792
  157MOL0     H21129  10.384   5.596   5.367  1.4684 -1.5173 -1.2045
  157MOL0     H21130  10.218   5.561   5.197 -1.0940 -0.2894 -0.1483
  157MOL0     H21131  10.135   5.653   5.078  1.3971  4.5852 -0.4615
  157MOL0     H21132  10.353   5.663   4.953 -0.5732 -0.0476 -0.0973
  157MOL0     H21133  10.428   5.571   5.088  0.5453  2.2269 -0.8464
  157MOL0     H21134  10.296   5.372   5.024  3.1570 -0.8678 -0.6090
  157MOL0     H21135  10.211   5.473   4.903 -0.7827 -1.3574  0.8451
  157MOL0     H21136  10.439   5.520   4.815 -2.6789  2.2614  1.0624
  157MOL0     H21137  10.483   5.372   4.916 -0.7201  1.0784  1.7801
  157MOL0     H21138  10.257   5.355   4.726  0.3389  0.8165 -1.1340
  157MOL0     H21139  10.437   5.313   4.682 -0.1403  0.5622 -0.2375
  157MOL0     H21140  10.417   5.155   4.883  1.3349  2.9607  0.5269
  157MOL0     H21141  10.249   5.197   4.883 -0.9140  0.8385 -1.6726
  157MOL0     H21142  10.363   5.101   4.621 -0.6790  3.5978  0.4711
  157MOL0     H21143  10.318   4.981   4.753  0.3369  0.3671  0.1874
  157MOL0     H21144  10.158   5.034   4.567  0.7915  0.5874  0.5779
  157MOL0     H21145  10.161   5.195   4.625  3.3981  0.1424 -1.2234
  157MOL0     H21146  10.093   4.841   4.735 -0.3713  0.0903 -1.7753
  157MOL0     H21147   9.960   4.761   4.978 -0.3485 -0.0116  0.2873
  157MOL0     H21148   9.794   4.837   4.979 -1.6382 -0.1587 -1.5216
  157MOL0     H21149   9.904   4.651   4.769  2.1539  0.6285  0.5571
  157MOL0     H21150   9.780   4.770   4.726 -0.9001 -1.3162  0.2478
  157MOL0     H21151   9.653   4.581   4.769 -2.3108  0.9479  1.0695
  157MOL0     H21152   9.625   4.720   4.864  0.2489  1.1390  0.3560
  157MOL0     H21153   9.697   4.592   5.065 -2.2332  0.7231  0.0382
  157MOL0     H21154   9.819   4.518   4.988  0.6461  1.9226 -1.2742
  157MOL0     H21155   9.454   4.614   4.892 -0.3810 -1.9152 -2.5563
  157MOL0     H21156   9.206   4.728   5.065  0.0217 -3.9080  3.7073
  157MOL0     H21157   9.254   4.717   4.890  0.5813 -2.5445 -0.2579
  157MOL0     H21158   9.112   4.629   4.955 -0.3288  1.2843 -0.1747
  157MOL0     H21159   8.801   4.384   5.116  0.8348 -1.0879 -1.5813
  157MOL0     H21160   8.619   4.380   5.286  0.7489  2.3517  0.6999
  157MOL0     H21161   8.453   4.268   5.433  1.7194  1.2463  0.7580
  157MOL0     H21162   8.549   4.117   5.414  0.8504 -0.6916  0.5503
  157MOL0     H21163   8.537   4.061   5.648  0.6531  1.6997  0.4313
  157MOL0     H21164   8.425   4.196   5.674 -4.5230 -1.1194  0.2605
  157MOL0     H21165   8.337   3.950   5.618  0.7022 -2.3012 -2.4557
  157MOL0     H21166   8.315   4.014   5.461 -0.4872  0.8537 -0.4018
  157MOL0     H21167   8.215   4.157   5.713 -2.7493 -1.0540  0.4525
  157MOL0     H21168   8.203   4.216   5.547  0.4555 -1.3747 -2.7325
  157MOL0     H21169   8.058   3.969   5.682  1.1455  1.0387  1.2006
  157MOL0     H21170   8.035   4.006   5.517  0.7654  1.8304 -1.0447
  157MOL0     H21171   7.961   4.180   5.756  0.4297  1.3949 -0.1159
  157MOL0     H21172   7.962   4.229   5.582  3.1284  1.8434  2.7051
  157MOL0     H21173   7.734   4.126   5.697  0.3661 -0.5950 -1.6290
  157MOL0     H21174   7.809   3.994   5.609 -2.7629 -0.6256  0.4354
  157MOL0     H21175   7.807   4.107   5.409  3.2785  1.6887  0.7113
  157MOL0     H21176   7.766   4.269   5.491  1.9531 -0.6080  1.6613
  157MOL0     H21177   8.902   4.195   5.558  1.5836 -1.1642 -0.8793
  157MOL0     H21178   9.062   4.211   5.399 -0.1959 -3.7808 -3.1173
  157MOL0     H21179   9.327   4.267   5.211  3.7144  0.0199  1.3274
  157MOL0     H21180   9.544   4.257   5.118 -0.6494  0.3971  0.8656
  157MOL0     H21181  10.445   5.947   5.126  0.9584  0.0212 -1.2500
  157MOL0     H21182  10.678   5.955   5.231 -1.7549  0.5386 -1.8604
  157MOL0     H21183  10.855   6.066   5.724  0.6516  0.7393  0.4356
  157MOL0     H21184  11.045   6.063   5.868 -1.8618  1.4244 -1.0723
  157MOL0     H21185  11.303   5.674   5.835 -1.5555 -0.0816 -6.5521
  157MOL0     H21186  11.384   5.789   5.732 -0.2282  0.5933  0.1109
  157MOL0     H21187  11.512   5.907   5.906 -1.0224  1.6873  1.1655
  157MOL0     H21188  11.541   5.732   5.911  0.5402 -0.5803  2.1499
  157MOL0     H21189  11.393   5.728   6.114  4.2557 -2.6102 -2.2333
  157MOL0     H21190  11.378   5.914   6.100  1.9434  1.7718 -1.9737
  157MOL0     H21191  11.613   5.744   6.165  0.0238  1.0596  0.2465
  157MOL0     H21192  11.509   5.849   6.274 -1.2214  0.4979 -0.3873
  157MOL0     H21193  11.790   6.113   6.104  2.3975 -2.6489 -0.4431
  157MOL0     H21194  11.192   5.728   5.635  0.6206  1.2177 -2.1233
  157MOL0     H21195  11.015   5.722   5.513  2.5253 -0.2875  0.1644
  158MOL0     O21196   0.788   8.931   0.054  0.5927  0.6338  0.5059
  158MOL0     C21197   0.773   8.855   0.147 -0.0540  0.0090 -0.6130
  158MOL0     O21198   0.736   8.725   0.148 -0.0821 -0.3217  0.1274
  158MOL0     C21199   0.677   8.687   0.033 -0.4775 -0.0832 -0.0677
  158MOL0     C21200   0.551   8.738   0.012 -0.0712  0.5788 -0.3790
  158MOL0     C21201   0.487   8.721  -0.116  0.8216  0.7247  0.2927
  158MOL0     C21202   0.554   8.664  -0.223  0.1705 -0.4788 -0.4822
  158MOL0     O21203   0.513   8.643  -0.350 -0.0565 -0.1196 -0.2996
  158MOL0     C21204   0.420   8.736  -0.389 -0.3270  0.2956  0.6783
  158MOL0     C21205   0.429   8.756  -0.543  0.0025  0.2971  0.0423
  158MOL0     C21206   0.333   8.868  -0.578 -0.2695 -0.0421  0.3351
  158MOL0     C21207   0.307   8.889  -0.729  0.4378 -0.2782  0.6599
  158MOL0     C21208   0.212   9.006  -0.752  0.4457 -0.1169  0.5999
  158MOL0     C21209   0.220   9.051  -0.897 -0.6354  0.5794  0.9378
  158MOL0     C21210   0.145   9.179  -0.909 -0.1973 -1.1238 -0.3903
  158MOL0     C21211   0.012   9.158  -0.971 -0.2801  0.6460  0.5825
  158MOL0     N21212  -0.068   9.058  -0.907  0.0346 -0.1280  0.2267
  158MOL0     C21213  -0.135   9.063  -0.785 -0.1099  0.4401  0.1556
  158MOL0     C21214  -0.166   8.938  -0.754  0.2591  0.6194 -0.5051
  158MOL0     C21215  -0.208   8.882  -0.613 -0.5660  0.7586  0.3706
  158MOL0     C21216  -0.361   8.899  -0.596  0.4589  0.6291  0.6639
  158MOL0     C21217  -0.403   9.038  -0.575 -0.3351 -0.5788 -0.3668
  158MOL0     C21218  -0.550   9.063  -0.592 -0.6187  0.8548  0.1105
  158MOL0     O21219  -0.581   9.102  -0.729 -0.3325 -0.0993  0.4650
  158MOL0     C21220  -0.590   9.017  -0.840  0.3794 -0.1440 -0.2220
  158MOL0     C21221  -0.505   9.035  -0.949 -0.9181  0.0644 -0.0718
  158MOL0     C21222  -0.521   8.975  -1.070 -0.2399 -0.0586 -0.9901
  158MOL0     C21223  -0.415   9.015  -1.176 -0.1420 -0.0952 -0.5715
  158MOL0     C21224  -0.635   8.887  -1.078 -0.1000 -0.1556  0.2492
  158MOL0     C21225  -0.657   8.803  -1.199 -0.2293  0.0370 -0.1961
  158MOL0     O21226  -0.576   8.813  -1.311  0.1751 -0.0706 -0.1153
  158MOL0     C21227  -0.588   8.734  -1.425  0.7399 -0.6283  0.3203
  158MOL0     C21228  -0.590   8.595  -1.418  0.2427 -0.2073  0.4925
  158MOL0     C21229  -0.592   8.516  -1.539 -0.6459  0.2172  0.2254
  158MOL0     C21230  -0.587   8.577  -1.665 -0.4779 -0.6637 -0.4128
  158MOL0     O21231  -0.583   8.496  -1.779 -0.5892  0.4318  0.0463
  158MOL0     C21232  -0.445   8.468  -1.814  0.2666  0.1780  0.5652
  158MOL0     C21233  -0.418   8.335  -1.893  1.3963 -0.4497  0.3120
  158MOL0     C21234  -0.466   8.215  -1.807 -0.4622 -0.2507 -0.6939
  158MOL0     C21235  -0.416   8.085  -1.870 -0.3026  0.2525  0.3846
  158MOL0     C21236  -0.460   7.968  -1.787 -0.3005 -0.3724 -1.0412
  158MOL0     C21237  -0.441   7.830  -1.857 -0.0456  0.4184  0.3349
  158MOL0     C21238  -0.466   7.706  -1.772  0.1225  0.5234  0.2166
  158MOL0     C21239  -0.341   7.681  -1.689 -0.2710 -0.4387  0.3965
  158MOL0    Cl21240  -0.367   7.558  -1.564 -0.2129 -0.4634  1.0738
  158MOL0     C21241  -0.581   8.720  -1.665  0.2701  1.4677  0.4352
  158MOL0     C21242  -0.590   8.793  -1.549 -0.1478  0.4150 -0.3070
  158MOL0     O21243  -0.743   8.716  -1.190 -0.5696 -0.1502  0.4406
  158MOL0     C21244  -0.721   8.869  -0.966 -0.0708  0.5135  0.6941
  158MOL0     C21245  -0.695   8.925  -0.848 -0.6902 -0.5135 -0.1373
  158MOL0     N21246  -0.135   8.850  -0.857  0.1521 -0.4091  0.0973
  158MOL0     N21247  -0.092   8.926  -0.949 -0.3509  0.2067 -0.0184
  158MOL0     C21248   0.678   8.599  -0.189  0.4616  0.2258  0.3120
  158MOL0     C21249   0.742   8.610  -0.064 -0.3194 -0.2875  0.0140
  158MOL0     C21250   0.794   8.917   0.282  1.1927  0.0770  0.8587
  158MOL0     C21251   0.802   8.838   0.395  0.1556  0.3320 -0.5108
  158MOL0     C21252   0.839   8.887   0.518 -0.0247 -0.6527 -0.5048
  158MOL0     C21253   0.850   9.028   0.525  0.0974 -0.2920  0.0251
  158MOL0     O21254   0.857   9.110   0.630  0.0544 -0.5147 -1.2702
  158MOL0     C21255   0.869   9.055   0.764  0.8121  0.0938 -0.0044
  158MOL0     C21256   0.728   9.091   0.854 -0.9787  0.5869 -0.4489
  158MOL0     C21257   0.606   9.014   0.812  0.7297 -0.5699 -0.3138
  158MOL0     C21258   0.614   8.858   0.830 -0.1231 -0.0593  0.0297
  158MOL0     C21259   0.482   8.800   0.821  0.3092 -0.2551  0.1355
  158MOL0     C21260   0.370   8.755   0.814  0.0768 -0.1118 -0.4286
  158MOL0     C21261   0.854   9.101   0.411  0.5182 -0.9727 -0.6483
  158MOL0     C21262   0.812   9.051   0.293 -0.3806 -1.2053 -0.5718
  158MOL0     H21263   0.489   8.772   0.095 -1.0655  0.0551 -0.8906
  158MOL0     H21264   0.379   8.732  -0.123  0.6237  0.9291  2.8885
  158MOL0     H21265   0.317   8.707  -0.369 -0.1940 -2.1845 -1.6658
  158MOL0     H21266   0.452   8.832  -0.347  0.4041  1.0795 -1.5090
  158MOL0     H21267   0.535   8.772  -0.564  0.3454 -4.4743 -3.5848
  158MOL0     H21268   0.403   8.659  -0.587  0.3365  0.2177  0.0178
  158MOL0     H21269   0.236   8.838  -0.539  0.3565 -1.1053  1.1052
  158MOL0     H21270   0.372   8.957  -0.527 -2.3152  0.6124  0.8605
  158MOL0     H21271   0.409   8.911  -0.764  1.1178 -1.6613  1.6580
  158MOL0     H21272   0.292   8.799  -0.790  1.9434 -1.5441  2.0476
  158MOL0     H21273   0.110   8.978  -0.726  0.4486 -0.1862  0.5395
  158MOL0     H21274   0.253   9.089  -0.693 -1.4910 -0.2765  2.2833
  158MOL0     H21275   0.328   9.065  -0.906  0.0301 -3.3273  1.2914
  158MOL0     H21276   0.187   8.969  -0.961  0.5636 -0.6340  1.8131
  158MOL0     H21277   0.136   9.232  -0.813  0.7362 -0.4353 -0.6661
  158MOL0     H21278   0.206   9.241  -0.975  0.4288 -0.4969  0.7432
  158MOL0     H21279   0.020   9.134  -1.077 -1.4546 -0.9534  0.8169
  158MOL0     H21280  -0.046   9.251  -0.963  0.4830  1.0882  1.1572
  158MOL0     H21281  -0.145   9.143  -0.712  0.7390  1.3141 -0.6607
  158MOL0     H21282  -0.177   8.778  -0.601  0.7690  1.0740 -0.2396
  158MOL0     H21283  -0.157   8.934  -0.532 -0.8681 -1.4497  2.0844
  158MOL0     H21284  -0.376   8.842  -0.504  0.0885 -1.5495 -0.6732
  158MOL0     H21285  -0.414   8.856  -0.681  1.0438  0.0270  0.5971
  158MOL0     H21286  -0.345   9.109  -0.635  0.4446  0.1670  1.1770
  158MOL0     H21287  -0.378   9.066  -0.471  3.7724 -1.2220 -0.9820
  158MOL0     H21288  -0.569   9.156  -0.537 -0.1926  0.6435  0.6186
  158MOL0     H21289  -0.609   8.983  -0.547  0.3147  1.1148  1.8995
  158MOL0     H21290  -0.424   9.106  -0.936 -2.8986  3.0585 -2.7643
  158MOL0     H21291  -0.422   9.124  -1.187  2.4629  0.5452  2.4596
  158MOL0     H21292  -0.315   8.992  -1.137 -0.2786 -0.7959 -0.6260
  158MOL0     H21293  -0.427   8.975  -1.277 -2.9328 -1.1851  0.0802
  158MOL0     H21294  -0.592   8.558  -1.316  0.9819  2.9666  1.7837
  158MOL0     H21295  -0.596   8.408  -1.545  3.6270 -0.2154  2.1978
  158MOL0     H21296  -0.415   8.554  -1.874  1.4534  0.8931  2.1321
  158MOL0     H21297  -0.385   8.467  -1.722 -0.4297  0.1223  1.0256
  158MOL0     H21298  -0.478   8.352  -1.983 -0.5911  2.0051  1.9703
  158MOL0     H21299  -0.310   8.340  -1.910  1.5384 -1.6225  0.7795
  158MOL0     H21300  -0.576   8.214  -1.801 -0.4640  0.6659 -0.3543
  158MOL0     H21301  -0.432   8.219  -1.703 -0.9266 -2.5806 -0.4090
  158MOL0     H21302  -0.474   8.073  -1.962 -1.0788  1.8413  0.6252
  158MOL0     H21303  -0.308   8.077  -1.883 -0.3858 -1.2254  0.4511
  158MOL0     H21304  -0.567   7.990  -1.775 -0.1760 -0.8412  1.3211
  158MOL0     H21305  -0.417   7.980  -1.687 -2.8498 -0.3467  0.1425
  158MOL0     H21306  -0.511   7.825  -1.940  0.5640 -1.4891 -0.1247
  158MOL0     H21307  -0.336   7.831  -1.889  0.7594 -1.3142  2.6435
  158MOL0     H21308  -0.477   7.622  -1.841  2.2092  0.5242 -0.1889
  158MOL0     H21309  -0.555   7.718  -1.709  0.0570 -2.1519  0.7522
  158MOL0     H21310  -0.324   7.776  -1.638 -3.0039  0.0679  0.4696
  158MOL0     H21311  -0.256   7.654  -1.753 -1.6919  0.8954 -2.2038
  158MOL0     H21312  -0.543   8.765  -1.756 -0.9755  2.5748  0.4395
  158MOL0     H21313  -0.573   8.898  -1.527  0.7999  0.2506 -0.2123
  158MOL0     H21314  -0.809   8.805  -0.975 -0.5319  1.0642  1.1648
  158MOL0     H21315  -0.764   8.906  -0.767 -1.3644 -0.2222 -0.6311
  158MOL0     H21316   0.729   8.546  -0.269  0.1454  0.3289  0.0399
  158MOL0     H21317   0.833   8.557  -0.042 -0.3100 -1.3813 -2.3806
  158MOL0     H21318   0.775   8.733   0.391 -0.3665  0.2730  2.3683
  158MOL0     H21319   0.852   8.826   0.607 -3.1921 -2.6281 -1.2250
  158MOL0     H21320   0.868   8.946   0.772  0.5202  0.1768  1.3438
  158MOL0     H21321   0.956   9.098   0.815  1.6962  1.0265 -2.1880
  158MOL0     H21322   0.700   9.197   0.857 -1.5232  0.4710 -1.1960
  158MOL0     H21323   0.743   9.075   0.961  0.0502  1.8049 -0.3853
  158MOL0     H21324   0.567   9.037   0.712  2.9505 -1.2210 -1.4017
  158MOL0     H21325   0.526   9.044   0.880  0.1117  0.8970 -1.6265
  158MOL0     H21326   0.647   8.823   0.928  1.5881 -0.2202 -0.5543
  158MOL0     H21327   0.671   8.811   0.749  1.3150  1.4142  0.1243
  158MOL0     H21328   0.283   8.693   0.811  0.5832 -1.0555  1.8709
  158MOL0     H21329   0.874   9.208   0.416 -5.4623  0.6058 -2.2773
  158MOL0     H21330   0.792   9.119   0.210 -2.0207 -1.8057 -0.7124
  159MOL0     O21331   4.982   0.110   5.448 -0.3266 -0.1027  0.3172
  159MOL0     C21332   4.890   0.184   5.406 -0.4555 -0.2702 -0.9864
  159MOL0     O21333   4.803   0.160   5.302 -0.5137  0.6261 -0.4058
  159MOL0     C21334   4.823   0.033   5.243 -0.1142 -0.9701  0.7285
  159MOL0     C21335   4.905   0.023   5.132  0.2654 -0.5384  0.4241
  159MOL0     C21336   4.928  -0.098   5.068  0.9582  0.0665 -0.3859
  159MOL0     C21337   4.868  -0.219   5.117  0.5412  0.0282  0.7022
  159MOL0     O21338   4.911  -0.343   5.064  0.3687  0.1665  0.1484
  159MOL0     C21339   4.825  -0.460   5.055  0.9522 -0.4984  0.4711
  159MOL0     C21340   4.792  -0.487   4.907  0.1175 -0.3189  0.0878
  159MOL0     C21341   4.917  -0.501   4.832 -0.7953 -0.2594 -0.7849
  159MOL0     C21342   4.903  -0.549   4.687 -0.4565 -0.5258  0.2698
  159MOL0     C21343   4.859  -0.440   4.588 -0.1464  0.0198  0.2356
  159MOL0     C21344   4.965  -0.336   4.560  0.3414 -0.0966 -0.3357
  159MOL0     C21345   4.902  -0.207   4.507 -0.1314  0.0951  0.5366
  159MOL0     C21346   4.864  -0.113   4.621  0.3798 -1.2931 -0.4170
  159MOL0     N21347   4.740  -0.140   4.697 -0.4690 -0.9256  0.1004
  159MOL0     C21348   4.716  -0.088   4.819  0.2029 -0.0832  0.3592
  159MOL0     C21349   4.582  -0.123   4.845 -0.7973 -0.6735  0.8021
  159MOL0     C21350   4.511  -0.089   4.981  0.3646  0.0993 -0.4915
  159MOL0     C21351   4.378  -0.171   4.990 -0.7969 -0.2380  0.0385
  159MOL0     C21352   4.424  -0.315   5.036 -0.0157 -0.3688  1.3749
  159MOL0     C21353   4.293  -0.396   5.073 -0.0625  0.0238  0.8057
  159MOL0     O21354   4.330  -0.490   5.172 -0.2048  0.1237 -0.5072
  159MOL0     C21355   4.405  -0.599   5.142  0.3424 -0.1195 -0.0216
  159MOL0     C21356   4.515  -0.642   5.225  1.3839 -0.6334  0.0208
  159MOL0     C21357   4.584  -0.764   5.198 -0.5768 -0.8906 -1.5576
  159MOL0     C21358   4.701  -0.809   5.292  0.2506  0.5417  0.1479
  159MOL0     C21359   4.551  -0.838   5.086  0.3987  0.1548 -0.7230
  159MOL0     C21360   4.629  -0.960   5.050 -0.8241  0.0464 -0.3542
  159MOL0     O21361   4.757  -0.944   4.997 -0.1549  0.4025  0.4205
  159MOL0     C21362   4.824  -1.042   4.937 -0.1878  0.2564 -0.0677
  159MOL0     C21363   4.842  -1.042   4.803  0.6318 -0.0667  0.1295
  159MOL0     C21364   4.905  -1.143   4.724 -0.1217 -0.3561  0.7266
  159MOL0     C21365   4.968  -1.247   4.782  0.1753  0.0316  0.0785
  159MOL0     O21366   5.036  -1.350   4.715  0.2857 -0.2761 -0.4113
  159MOL0     C21367   5.063  -1.331   4.581 -0.0113  0.6074  0.7507
  159MOL0     C21368   5.126  -1.463   4.519 -1.2718  0.1852  0.6285
  159MOL0     C21369   5.034  -1.585   4.517 -0.1868 -1.1577 -0.0242
  159MOL0     C21370   5.093  -1.681   4.411  1.0268  1.0993 -0.0468
  159MOL0     C21371   5.002  -1.803   4.382 -0.3888  0.0676  0.1773
  159MOL0     C21372   4.973  -1.888   4.501  0.0510  0.5250 -0.5968
  159MOL0     C21373   4.883  -2.000   4.445 -0.4299 -0.2545  0.4027
  159MOL0     C21374   4.863  -2.107   4.552 -0.0219 -0.3319 -0.3387
  159MOL0    Cl21375   4.747  -2.249   4.515  0.0354 -0.1157  0.0983
  159MOL0     C21376   4.932  -1.262   4.922 -0.6937 -0.0421 -0.1562
  159MOL0     C21377   4.876  -1.160   5.000 -0.2976 -0.8591 -0.1592
  159MOL0     O21378   4.577  -1.069   5.078  0.3144 -0.0588  0.0537
  159MOL0     C21379   4.451  -0.794   5.002 -0.2873  0.6412 -0.1066
  159MOL0     C21380   4.377  -0.681   5.039 -0.5053  0.5402  0.9370
  159MOL0     N21381   4.532  -0.204   4.744  0.1258  0.7337  0.5649
  159MOL0     N21382   4.626  -0.201   4.652  0.1181  0.5176 -0.3334
  159MOL0     C21383   4.773  -0.204   5.229  0.3599  0.6822 -0.1303
  159MOL0     C21384   4.759  -0.080   5.290  0.7902  1.0935 -1.1729
  159MOL0     C21385   4.889   0.313   5.473  0.1257 -0.2823 -0.6130
  159MOL0     C21386   4.965   0.341   5.586 -0.8744 -0.7324 -0.0441
  159MOL0     C21387   4.949   0.459   5.656 -0.3219 -1.0498 -0.5098
  159MOL0     C21388   4.867   0.563   5.608  0.0635  0.2097 -0.6339
  159MOL0     O21389   4.860   0.678   5.688  0.6273  0.5438 -0.0569
  159MOL0     C21390   4.766   0.674   5.795 -0.4276  0.1781  0.7807
  159MOL0     C21391   4.629   0.756   5.756  0.0661 -0.1695 -0.8006
  159MOL0     C21392   4.656   0.899   5.699  0.5044  0.0613 -0.1443
  159MOL0     C21393   4.519   0.974   5.686  1.3284 -0.5608 -0.2322
  159MOL0     C21394   4.545   1.113   5.663  0.5242 -0.1865  0.1188
  159MOL0     C21395   4.570   1.227   5.632 -0.3035  0.2482 -0.0419
  159MOL0     C21396   4.792   0.534   5.497 -0.5909 -0.1983  0.8355
  159MOL0     C21397   4.804   0.417   5.421  0.7832  0.1966 -0.2270
  159MOL0     H21398   4.947   0.118   5.101  1.0008 -0.3313  1.9571
  159MOL0     H21399   4.992  -0.105   4.980  0.3461 -1.3301 -0.7469
  159MOL0     H21400   4.878  -0.546   5.095  1.2765 -1.5739 -2.1095
  159MOL0     H21401   4.728  -0.460   5.107 -0.5654  1.5149 -2.1201
  159MOL0     H21402   4.734  -0.579   4.895 -1.5398  0.7332 -0.2783
  159MOL0     H21403   4.728  -0.417   4.852  1.8048  0.1952 -1.3096
  159MOL0     H21404   4.977  -0.410   4.837  3.7662 -3.0494  1.0041
  159MOL0     H21405   4.982  -0.562   4.895  0.4363  0.7132 -1.0625
  159MOL0     H21406   5.003  -0.577   4.655  0.3265  1.5933  0.6746
  159MOL0     H21407   4.827  -0.627   4.686 -0.6229 -0.3803  1.0389
  159MOL0     H21408   4.825  -0.497   4.501 -2.7089 -0.3431  1.3831
  159MOL0     H21409   4.771  -0.398   4.637 -0.6590  0.4025 -0.9870
  159MOL0     H21410   5.009  -0.313   4.657 -1.7168  0.1662  0.5972
  159MOL0     H21411   5.045  -0.368   4.492 -0.4216 -0.6569 -0.9920
  159MOL0     H21412   4.964  -0.160   4.429  1.1827  0.8082  1.9524
  159MOL0     H21413   4.816  -0.244   4.451  0.3873  0.7910 -0.7931
  159MOL0     H21414   4.858  -0.013   4.577 -1.7471 -0.9152  0.6092
  159MOL0     H21415   4.947  -0.115   4.692 -1.0908 -4.0842  1.4224
  159MOL0     H21416   4.782  -0.023   4.876 -1.4493  0.9083  1.2112
  159MOL0     H21417   4.585  -0.104   5.060  0.5434  0.1882 -0.6420
  159MOL0     H21418   4.476   0.014   4.976  3.6032  1.3456  0.3574
  159MOL0     H21419   4.339  -0.173   4.887  1.1557  1.6274 -0.8204
  159MOL0     H21420   4.306  -0.124   5.058  0.2769 -2.0810  2.5814
  159MOL0     H21421   4.499  -0.313   5.115  2.4413 -2.0980 -0.7501
  159MOL0     H21422   4.475  -0.372   4.957  1.0936 -0.8218  2.3941
  159MOL0     H21423   4.231  -0.429   4.989  1.5552  4.0721 -2.3282
  159MOL0     H21424   4.228  -0.322   5.121 -0.6526 -0.6700  1.0939
  159MOL0     H21425   4.538  -0.577   5.309 -0.8673  1.5008 -0.8766
  159MOL0     H21426   4.706  -0.918   5.295  0.5988  0.5335 -0.3948
  159MOL0     H21427   4.788  -0.783   5.231 -0.6760  0.3751 -1.3049
  159MOL0     H21428   4.712  -0.776   5.395  0.5591  1.7765 -0.2555
  159MOL0     H21429   4.803  -0.955   4.752 -1.5979 -1.5900 -0.9486
  159MOL0     H21430   4.926  -1.119   4.620  1.0072 -1.6811  0.6175
  159MOL0     H21431   4.967  -1.309   4.534 -0.7832  0.8867  2.3706
  159MOL0     H21432   5.120  -1.239   4.568 -3.1758  3.0694  2.6893
  159MOL0     H21433   5.148  -1.443   4.413 -1.5054 -1.3948  0.2611
  159MOL0     H21434   5.223  -1.486   4.563  0.3667 -0.7560 -3.0786
  159MOL0     H21435   4.929  -1.560   4.501 -0.0989 -2.4405 -3.3588
  159MOL0     H21436   5.048  -1.628   4.617  1.6589 -1.5625 -0.4078
  159MOL0     H21437   5.115  -1.631   4.316  1.7323  0.5248 -0.1955
  159MOL0     H21438   5.191  -1.716   4.445  1.5369  0.3076 -2.1716
  159MOL0     H21439   5.057  -1.865   4.311 -0.7389  0.1096 -0.1345
  159MOL0     H21440   4.899  -1.784   4.351 -1.6316 -4.1789  1.0227
  159MOL0     H21441   5.068  -1.934   4.528 -0.3853 -0.5037 -0.7478
  159MOL0     H21442   4.919  -1.839   4.582  0.6474 -2.8509  2.0982
  159MOL0     H21443   4.927  -2.040   4.354 -0.2785 -0.5290  0.5922
  159MOL0     H21444   4.782  -1.966   4.421  0.6256  1.7602 -1.4884
  159MOL0     H21445   4.814  -2.064   4.641 -3.7454  0.1855 -2.4361
  159MOL0     H21446   4.956  -2.155   4.584  1.2716  1.5935 -1.0424
  159MOL0     H21447   4.975  -1.346   4.974  0.7636  2.4175  2.8989
  159MOL0     H21448   4.862  -1.163   5.108 -0.4530 -0.9475 -0.1813
  159MOL0     H21449   4.426  -0.844   4.909  2.1688 -0.1860 -0.3903
  159MOL0     H21450   4.294  -0.650   4.977 -0.8425  2.1446  2.1130
  159MOL0     H21451   4.715  -0.283   5.276 -2.8896  2.1020 -1.4961
  159MOL0     H21452   4.691  -0.084   5.374  0.8140 -0.8775 -1.1839
  159MOL0     H21453   5.026   0.259   5.622  3.3113  1.6358 -1.0372
  159MOL0     H21454   5.000   0.497   5.744  2.5943 -1.4740 -1.8963
  159MOL0     H21455   4.748   0.569   5.820 -0.5785  0.3772  1.5376
  159MOL0     H21456   4.807   0.722   5.885 -1.2653  1.1872  0.6412
  159MOL0     H21457   4.573   0.766   5.850  1.4520 -1.0873  0.1706
  159MOL0     H21458   4.578   0.689   5.686 -0.9739  0.9974 -1.1791
  159MOL0     H21459   4.708   0.876   5.606  0.1889 -0.6556 -0.1428
  159MOL0     H21460   4.717   0.965   5.762  3.9468 -0.7768 -2.3549
  159MOL0     H21461   4.470   0.965   5.784  3.6052 -2.6569  0.8373
  159MOL0     H21462   4.458   0.939   5.603 -0.7761  3.3646 -0.5778
  159MOL0     H21463   4.614   1.318   5.598  0.5989 -1.0107 -2.4451
  159MOL0     H21464   4.734   0.610   5.445  1.9759  0.2689 -1.5963
  159MOL0     H21465   4.743   0.409   5.331  1.1163 -0.7008 -0.3941
  160MOL0     O21466   8.982   7.399   9.582  0.4024  0.1395  0.3213
  160MOL0     C21467   8.941   7.471   9.678  0.0076  0.7602 -0.2177
  160MOL0     O21468   8.817   7.525   9.685  0.1609  0.4876  0.6068
  160MOL0     C21469   8.717   7.482   9.606  0.6840  0.3429 -0.0427
  160MOL0     C21470   8.657   7.354   9.621  1.0583 -0.3330 -0.4935
  160MOL0     C21471   8.572   7.302   9.516  0.6918  0.3443  0.1027
  160MOL0     C21472   8.537   7.369   9.402  0.6754 -0.0355 -0.1354
  160MOL0     O21473   8.469   7.307   9.300  0.3851  0.4360  0.2666
  160MOL0     C21474   8.500   7.358   9.167 -0.3937 -0.6265 -0.2994
  160MOL0     C21475   8.435   7.255   9.070  0.2690 -0.5858  0.0252
  160MOL0     C21476   8.283   7.276   9.035 -0.1172 -0.6888  0.7673
  160MOL0     C21477   8.191   7.226   9.149  0.3878  1.3459 -0.4444
  160MOL0     C21478   8.042   7.266   9.132 -0.4685 -0.1529 -0.9520
  160MOL0     C21479   7.953   7.198   9.246 -0.7489 -0.5321 -0.0368
  160MOL0     C21480   7.946   7.286   9.372 -0.2493 -0.3017 -0.0860
  160MOL0     C21481   7.871   7.422   9.367 -0.3039 -0.4735 -1.0709
  160MOL0     N21482   7.726   7.406   9.362 -0.0208 -0.4607  0.3321
  160MOL0     C21483   7.645   7.408   9.473 -0.3412 -1.2313  0.0778
  160MOL0     C21484   7.515   7.409   9.423 -0.4194  0.1468  0.0278
  160MOL0     C21485   7.387   7.399   9.498  0.3415 -0.2858 -0.5807
  160MOL0     C21486   7.353   7.527   9.595 -0.6680  0.2304 -0.2177
  160MOL0     C21487   7.209   7.522   9.641  0.8021  0.1289 -0.3376
  160MOL0     C21488   7.152   7.638   9.738 -0.1782  0.1243  0.7870
  160MOL0     O21489   7.219   7.763   9.727  0.5222 -0.4529  0.8259
  160MOL0     C21490   7.202   7.853   9.825  0.4407 -0.3290  0.1958
  160MOL0     C21491   7.083   7.884   9.900  0.6401  0.1736  0.4413
  160MOL0     C21492   7.080   7.983   9.999  0.1982 -0.1672  0.3102
  160MOL0     C21493   6.945   8.013  10.056  0.9767 -0.2820 -0.0652
  160MOL0     C21494   7.208   8.040  10.044 -0.1899  0.1915 -0.3342
  160MOL0     C21495   7.214   8.153  10.138 -0.6060 -0.2312 -0.6667
  160MOL0     O21496   7.337   8.175  10.187  0.6576  0.2572  0.1918
  160MOL0     C21497   7.366   8.299  10.236  0.2074  0.5467  0.4982
  160MOL0     C21498   7.354   8.415  10.166  0.5798 -0.2520  0.5312
  160MOL0     C21499   7.391   8.538  10.228  1.8168 -0.1378 -0.2639
  160MOL0     C21500   7.421   8.543  10.361 -0.2831  0.2491 -0.7751
  160MOL0     O21501   7.445   8.656  10.445  0.9092 -0.2054  0.8857
  160MOL0     C21502   7.385   8.779  10.393  0.4006 -0.4223  0.9102
  160MOL0     C21503   7.383   8.902  10.483 -0.3210  0.2304  0.0508
  160MOL0     C21504   7.289   8.886  10.595 -0.3535 -0.1537 -0.6437
  160MOL0     C21505   7.372   8.882  10.720  0.2091  0.2704 -0.1206
  160MOL0     C21506   7.300   8.842  10.850 -0.5477 -0.2949 -0.4216
  160MOL0     C21507   7.382   8.874  10.973 -0.1794  0.0716 -0.3244
  160MOL0     C21508   7.290   8.871  11.097  0.2262 -0.6240 -0.0139
  160MOL0     C21509   7.375   8.875  11.216 -1.0856 -0.8166  0.2253
  160MOL0    Cl21510   7.281   8.844  11.365  0.0442  0.4868  0.2410
  160MOL0     C21511   7.433   8.426  10.432 -0.6555  0.6115 -0.5522
  160MOL0     C21512   7.393   8.304  10.375  0.2807 -0.8780  0.3863
  160MOL0     O21513   7.114   8.204  10.173  0.0122 -0.1763 -0.2284
  160MOL0     C21514   7.323   7.994   9.981 -0.2886  0.2671  0.1435
  160MOL0     C21515   7.320   7.899   9.875 -0.4850  0.7729  0.2048
  160MOL0     N21516   7.528   7.412   9.288  0.2543 -0.6357  1.2144
  160MOL0     N21517   7.648   7.420   9.256  0.6010 -0.2318 -1.1019
  160MOL0     C21518   8.576   7.508   9.401 -0.7843  0.3811  0.4154
  160MOL0     C21519   8.662   7.563   9.506  0.3346  0.2784  0.4478
  160MOL0     C21520   9.033   7.488   9.793 -0.4161 -0.7669  0.1289
  160MOL0     C21521   9.000   7.569   9.905 -0.3749 -0.4031  1.2603
  160MOL0     C21522   9.099   7.576  10.002 -0.1962 -0.1361  0.0324
  160MOL0     C21523   9.231   7.538   9.989  0.8177 -0.1611  0.8455
  160MOL0     O21524   9.334   7.586  10.072  0.4248  0.4905 -0.6068
  160MOL0     C21525   9.470   7.551  10.049  0.4302  0.0092 -0.4228
  160MOL0     C21526   9.549   7.613  10.162 -0.4145 -0.3647 -1.0890
  160MOL0     C21527   9.545   7.766  10.150 -0.3085  0.4698 -0.0798
  160MOL0     C21528   9.576   7.836  10.281  0.8566 -0.8318  0.2402
  160MOL0     C21529   9.618   7.974  10.255 -0.4356  0.6745 -0.0279
  160MOL0     C21530   9.660   8.086  10.215  0.3813  0.4110 -0.1408
  160MOL0     C21531   9.259   7.454   9.887  0.3090  0.9133  0.1757
  160MOL0     C21532   9.162   7.417   9.793 -0.7673 -0.3924  0.5594
  160MOL0     H21533   8.686   7.300   9.710 -3.8898 -0.2932  1.4386
  160MOL0     H21534   8.553   7.195   9.516  0.4834  0.3787  0.7034
  160MOL0     H21535   8.475   7.461   9.143  0.0320 -0.5433 -0.3929
  160MOL0     H21536   8.609   7.350   9.154 -0.4370 -2.2870  0.1389
  160MOL0     H21537   8.474   7.276   8.970 -0.3800  4.0165  0.4869
  160MOL0     H21538   8.460   7.154   9.102  0.9405  0.9047  5.1537
  160MOL0     H21539   8.265   7.382   9.017 -0.6151 -1.1684 -1.9502
  160MOL0     H21540   8.265   7.220   8.943 -0.4580  0.1383  0.3304
  160MOL0     H21541   8.204   7.117   9.157 -0.7448  1.2634  0.5398
  160MOL0     H21542   8.212   7.266   9.248  0.3806 -2.1865  1.1507
  160MOL0     H21543   8.021   7.373   9.133 -1.1696 -0.2197  2.4299
  160MOL0     H21544   7.993   7.226   9.042 -1.4246 -1.2531  0.0167
  160MOL0     H21545   7.848   7.193   9.214 -0.1319  1.3669 -2.7263
  160MOL0     H21546   7.991   7.097   9.262 -1.0178 -0.3882  1.6995
  160MOL0     H21547   7.901   7.231   9.455  0.7823 -3.0145 -1.1988
  160MOL0     H21548   8.040   7.324   9.414  0.0401  0.9004 -1.7368
  160MOL0     H21549   7.890   7.477   9.274 -1.8133 -2.0556 -2.3822
  160MOL0     H21550   7.893   7.480   9.457  0.4322 -0.3941 -1.2914
  160MOL0     H21551   7.657   7.388   9.579 -0.2184 -0.9610  0.1128
  160MOL0     H21552   7.313   7.396   9.418  1.9207  0.6609 -2.1364
  160MOL0     H21553   7.374   7.307   9.555 -0.3669  0.1996  0.0597
  160MOL0     H21554   7.362   7.618   9.535 -0.1919  0.4464  0.1722
  160MOL0     H21555   7.416   7.525   9.685 -2.0554  1.1665  0.8032
  160MOL0     H21556   7.187   7.428   9.692 -0.8386 -0.1060 -1.4356
  160MOL0     H21557   7.158   7.532   9.545  2.3694 -0.9618 -1.3337
  160MOL0     H21558   7.177   7.606   9.839  1.9383  3.8968  1.6569
  160MOL0     H21559   7.044   7.644   9.720 -0.2746 -1.3662  0.7295
  160MOL0     H21560   6.993   7.828   9.876  0.8647 -0.7243  1.6425
  160MOL0     H21561   6.946   8.009  10.165 -1.8328  3.6871  0.2980
  160MOL0     H21562   6.910   8.111  10.023  0.9802 -0.1524  0.3189
  160MOL0     H21563   6.872   7.936  10.029 -0.3537  1.1620 -0.7127
  160MOL0     H21564   7.321   8.428  10.064  2.2722  2.9157  0.2636
  160MOL0     H21565   7.376   8.624  10.164  2.4446 -1.4446 -2.2985
  160MOL0     H21566   7.451   8.815  10.314 -0.4948  0.8877  0.7173
  160MOL0     H21567   7.284   8.759  10.356  1.4325 -1.5249 -1.5256
  160MOL0     H21568   7.486   8.927  10.509  0.7511 -1.7912 -1.9348
  160MOL0     H21569   7.349   8.989  10.426 -1.2854  0.2028  0.5562
  160MOL0     H21570   7.212   8.809  10.593 -0.4936 -0.0247 -0.2873
  160MOL0     H21571   7.229   8.977  10.588 -0.6963 -0.3789 -0.6804
  160MOL0     H21572   7.455   8.812  10.712  0.0720  0.0037  0.7310
  160MOL0     H21573   7.408   8.985  10.735  1.1635  0.2206 -1.8750
  160MOL0     H21574   7.265   8.738  10.849 -0.7754 -0.2693  1.5807
  160MOL0     H21575   7.204   8.892  10.864  0.4071  1.4482  0.1065
  160MOL0     H21576   7.472   8.812  10.979  1.0946  1.8420 -0.2856
  160MOL0     H21577   7.421   8.976  10.966 -1.4195  0.8587  2.8483
  160MOL0     H21578   7.244   8.772  11.094  0.8099 -0.9055 -3.0997
  160MOL0     H21579   7.215   8.950  11.086 -0.8915 -1.2217  2.6814
  160MOL0     H21580   7.423   8.974  11.220 -2.2331 -0.2850  2.9420
  160MOL0     H21581   7.457   8.803  11.211 -0.6355 -0.3818  1.0882
  160MOL0     H21582   7.454   8.428  10.539  0.0713  2.5384 -0.6888
  160MOL0     H21583   7.375   8.216  10.435  3.4910  0.4435  3.6846
  160MOL0     H21584   7.413   8.052   9.999  0.5160 -1.1862  1.0501
  160MOL0     H21585   7.408   7.867   9.819 -1.7221  3.6052 -3.7440
  160MOL0     H21586   8.552   7.570   9.316 -1.4041  2.7166  2.1915
  160MOL0     H21587   8.685   7.667   9.487 -1.4494  0.3779 -1.5728
  160MOL0     H21588   8.914   7.632   9.924 -0.6652 -0.4312  0.1407
  160MOL0     H21589   9.092   7.641  10.089  2.4417 -0.1278  0.3266
  160MOL0     H21590   9.473   7.442  10.057  3.0771  0.1713  3.2584
  160MOL0     H21591   9.511   7.585   9.953  1.1117 -0.4790 -0.3100
  160MOL0     H21592   9.649   7.571  10.145  0.2259  0.7041 -0.1193
  160MOL0     H21593   9.510   7.579  10.258  2.2911  4.7588  2.3307
  160MOL0     H21594   9.451   7.803  10.107  0.4336  1.8910 -0.5434
  160MOL0     H21595   9.616   7.807  10.077  2.7400 -0.7574  1.9794
  160MOL0     H21596   9.653   7.774  10.327  0.6269 -0.0063  1.7828
  160MOL0     H21597   9.485   7.835  10.342 -0.9094 -3.9678 -2.1373
  160MOL0     H21598   9.684   8.169  10.152 -0.1431  1.6128  1.1891
  160MOL0     H21599   9.362   7.423   9.874  0.2055  0.3793  0.5788
  160MOL0     H21600   9.185   7.344   9.716 -2.2458 -1.1077  0.7561
  161MOL0     O21601  10.536   5.464   1.279 -0.3824  0.1111  0.4164
  161MOL0     C21602  10.542   5.385   1.186  0.1336 -0.0622 -0.2741
  161MOL0     O21603  10.444   5.308   1.120  0.0140  0.3839  0.0301
  161MOL0     C21604  10.303   5.339   1.155  0.6997  0.0985 -1.6348
  161MOL0     C21605  10.264   5.454   1.211  0.2957  0.0862 -0.8298
  161MOL0     C21606  10.137   5.485   1.241  0.2937 -0.1979  0.3353
  161MOL0     C21607  10.034   5.394   1.198 -0.4532 -0.8429 -1.1335
  161MOL0     O21608   9.896   5.425   1.208 -0.2523  0.5002 -0.4086
  161MOL0     C21609   9.863   5.523   1.301 -0.8422 -0.4730 -0.1821
  161MOL0     C21610   9.708   5.520   1.315 -0.6246  0.0326 -0.1175
  161MOL0     C21611   9.660   5.618   1.423 -0.0172  0.8185  1.3489
  161MOL0     C21612   9.513   5.662   1.404  0.5221  0.5258 -0.3865
  161MOL0     C21613   9.482   5.788   1.497  0.1973 -0.3293 -0.1128
  161MOL0     C21614   9.549   5.918   1.462 -0.2159  0.0127  0.0979
  161MOL0     C21615   9.466   6.042   1.483 -0.2927  0.7314  1.5142
  161MOL0     C21616   9.425   6.062   1.626 -0.0242  0.1223  1.0887
  161MOL0     N21617   9.329   6.167   1.648  0.0373 -0.4120 -0.1553
  161MOL0     C21618   9.258   6.184   1.766 -0.0555  0.1149 -0.3248
  161MOL0     C21619   9.189   6.296   1.743  0.4250  0.3186 -0.2937
  161MOL0     C21620   9.086   6.361   1.829  0.1870  0.0754  0.9463
  161MOL0     C21621   8.945   6.321   1.778  0.3263  0.1755  0.7747
  161MOL0     C21622   8.847   6.433   1.764  0.2689 -1.3673  1.0213
  161MOL0     C21623   8.734   6.456   1.867 -0.5355  0.4700 -0.9204
  161MOL0     O21624   8.810   6.467   1.999  1.0263 -0.2696  0.9291
  161MOL0     C21625   8.766   6.556   2.098 -0.1406 -0.7591  0.0622
  161MOL0     C21626   8.856   6.571   2.199  0.7070  0.0199  0.1197
  161MOL0     C21627   8.835   6.651   2.310  0.8675 -0.0173 -0.0713
  161MOL0     C21628   8.943   6.652   2.418  0.0026  0.2458  0.4208
  161MOL0     C21629   8.711   6.722   2.317 -0.2419  0.2634  0.6050
  161MOL0     C21630   8.679   6.815   2.434  0.3081  0.0559 -1.1640
  161MOL0     O21631   8.599   6.923   2.417 -0.4377  0.4311 -0.5257
  161MOL0     C21632   8.536   6.978   2.524  0.1421  0.2656 -0.0044
  161MOL0     C21633   8.443   6.913   2.603 -0.8154  0.2183 -1.6356
  161MOL0     C21634   8.390   6.968   2.715 -0.8806  0.0146 -0.1025
  161MOL0     C21635   8.425   7.105   2.755  0.0974 -0.4044 -0.3535
  161MOL0     O21636   8.365   7.180   2.854  0.6874 -0.0551  0.1519
  161MOL0     C21637   8.227   7.153   2.876 -0.4943 -0.7941 -0.4446
  161MOL0     C21638   8.168   7.259   2.962  0.7583 -0.0925 -0.6879
  161MOL0     C21639   8.024   7.241   2.976 -0.2752  0.4185 -0.0991
  161MOL0     C21640   7.959   7.331   3.082 -0.2106  0.3520  1.2959
  161MOL0     C21641   7.844   7.250   3.151 -0.2961 -0.1183 -0.6308
  161MOL0     C21642   7.888   7.152   3.263 -0.3236  0.1398 -0.8087
  161MOL0     C21643   7.907   7.228   3.393 -0.1228  0.7990 -0.7243
  161MOL0     C21644   7.945   7.130   3.509 -0.1112  0.6648  0.0900
  161MOL0    Cl21645   7.792   7.075   3.597 -0.1200 -0.3380 -0.0094
  161MOL0     C21646   8.519   7.172   2.678 -0.4873 -0.5176  1.1120
  161MOL0     C21647   8.575   7.108   2.565  0.5976  0.1728 -0.6340
  161MOL0     O21648   8.712   6.775   2.546 -0.6936 -0.0041  0.3670
  161MOL0     C21649   8.627   6.716   2.205 -0.0618  0.4683 -0.2143
  161MOL0     C21650   8.659   6.640   2.097 -0.3199 -0.3584  0.2952
  161MOL0     N21651   9.219   6.346   1.613  0.0184  0.4475 -0.0401
  161MOL0     N21652   9.312   6.275   1.565 -0.1091  0.8301  0.5367
  161MOL0     C21653  10.068   5.281   1.130  1.0614  0.0350  0.1730
  161MOL0     C21654  10.204   5.254   1.112  0.2904 -0.0865 -0.3718
  161MOL0     C21655  10.685   5.362   1.128  0.8558 -0.3889  0.6281
  161MOL0     C21656  10.690   5.296   1.009 -0.1897  0.6119  0.5945
  161MOL0     C21657  10.814   5.269   0.940 -0.8766 -1.0435 -0.1757
  161MOL0     C21658  10.930   5.338   0.983 -0.4163  0.5533  0.3259
  161MOL0     O21659  11.054   5.329   0.918  0.2606  0.3116  1.1272
  161MOL0     C21660  11.049   5.247   0.798 -1.0739 -0.0587 -0.3417
  161MOL0     C21661  11.187   5.252   0.727  0.8707  0.4953 -0.1965
  161MOL0     C21662  11.230   5.399   0.684  0.9861  0.4947  0.2187
  161MOL0     C21663  11.367   5.398   0.629 -0.0891  0.2388 -0.1423
  161MOL0     C21664  11.471   5.435   0.724  0.0137 -0.2393  0.2958
  161MOL0     C21665  11.566   5.477   0.793  0.3353  0.2706 -0.2751
  161MOL0     C21666  10.917   5.414   1.100 -0.2483 -1.1087  1.3864
  161MOL0     C21667  10.793   5.433   1.162  1.0050 -0.1746  0.9163
  161MOL0     H21668  10.323   5.541   1.238  0.1813  0.0969 -0.6157
  161MOL0     H21669  10.109   5.582   1.282 -0.4689 -0.3763  0.2539
  161MOL0     H21670   9.904   5.498   1.400  0.0706 -1.9787 -0.8981
  161MOL0     H21671   9.903   5.621   1.276  0.2334 -1.3058 -1.9588
  161MOL0     H21672   9.660   5.532   1.218  0.4539  1.9238 -0.4466
  161MOL0     H21673   9.686   5.414   1.334  3.5793 -1.3944 -2.0077
  161MOL0     H21674   9.664   5.583   1.526 -3.1639 -0.9422  1.0197
  161MOL0     H21675   9.728   5.704   1.417  2.7263 -1.3039 -1.9949
  161MOL0     H21676   9.494   5.706   1.305 -1.5890  2.3820  0.7528
  161MOL0     H21677   9.449   5.579   1.434 -0.1447 -0.1627 -3.3851
  161MOL0     H21678   9.374   5.802   1.496  0.1990 -0.0064 -3.0415
  161MOL0     H21679   9.504   5.770   1.603 -1.0064 -4.3861 -0.3567
  161MOL0     H21680   9.633   5.925   1.532 -0.1690  3.1634 -0.1500
  161MOL0     H21681   9.577   5.903   1.358 -0.1621 -4.6277  0.5578
  161MOL0     H21682   9.517   6.133   1.451  1.2709  0.1115  2.1492
  161MOL0     H21683   9.377   6.028   1.421 -1.9196  0.4199  3.8259
  161MOL0     H21684   9.519   6.079   1.680  0.9110 -1.8706  0.1989
  161MOL0     H21685   9.372   5.968   1.646 -1.4348  0.6808  0.1204
  161MOL0     H21686   9.254   6.111   1.846  0.5265 -2.1004 -2.1837
  161MOL0     H21687   9.090   6.331   1.934 -1.0087 -0.5016  0.8463
  161MOL0     H21688   9.096   6.470   1.823 -1.3140  0.2169  0.4260
  161MOL0     H21689   8.897   6.236   1.828 -0.5284 -0.9450 -1.8142
  161MOL0     H21690   8.962   6.277   1.679 -2.5362 -2.2145  1.1922
  161MOL0     H21691   8.799   6.433   1.665  2.7913  1.6093 -0.4030
  161MOL0     H21692   8.897   6.530   1.753 -1.9512 -0.3640 -1.1255
  161MOL0     H21693   8.661   6.375   1.870 -0.1671  0.1214 -1.2996
  161MOL0     H21694   8.673   6.546   1.855  0.2148  1.2218  0.6068
  161MOL0     H21695   8.949   6.515   2.192  1.1625  0.7635  0.0500
  161MOL0     H21696   9.011   6.569   2.400 -0.8054 -0.3869  0.2213
  161MOL0     H21697   8.985   6.752   2.435  1.5576 -0.3683  0.3086
  161MOL0     H21698   8.901   6.638   2.518  1.5986  1.9614  1.3869
  161MOL0     H21699   8.412   6.811   2.583  1.9659 -1.0519 -0.0657
  161MOL0     H21700   8.314   6.915   2.771 -0.7945  2.1247  2.1952
  161MOL0     H21701   8.165   7.144   2.787 -2.3967 -0.2089  0.7623
  161MOL0     H21702   8.215   7.057   2.929  0.4443 -0.5218  0.2999
  161MOL0     H21703   8.218   7.252   3.059  1.3657 -4.4830 -1.1066
  161MOL0     H21704   8.199   7.357   2.925 -1.7278  1.7988  1.8115
  161MOL0     H21705   8.008   7.137   3.007  4.9348 -0.2763  1.1865
  161MOL0     H21706   7.992   7.266   2.875  4.4573  0.1190 -1.9008
  161MOL0     H21707   8.028   7.372   3.156  0.7427  2.3366 -0.5766
  161MOL0     H21708   7.934   7.419   3.023 -1.4327  0.2351  1.6062
  161MOL0     H21709   7.793   7.188   3.076  0.3262 -1.7245  0.2343
  161MOL0     H21710   7.774   7.319   3.200 -1.2931 -2.0515  0.7550
  161MOL0     H21711   7.826   7.065   3.287 -0.4644  1.0823  2.8037
  161MOL0     H21712   7.984   7.108   3.235  1.6765  2.1519  2.2425
  161MOL0     H21713   7.821   7.289   3.422 -0.8313  0.2299 -1.5576
  161MOL0     H21714   7.995   7.288   3.372  0.3414 -0.0050 -1.1449
  161MOL0     H21715   8.010   7.190   3.573 -0.9226  0.4713  1.1111
  161MOL0     H21716   8.008   7.045   3.480 -3.8812 -2.4150  0.0720
  161MOL0     H21717   8.534   7.279   2.688  1.3970 -0.6331 -0.0884
  161MOL0     H21718   8.650   7.160   2.505  2.1745 -0.1922  0.9303
  161MOL0     H21719   8.538   6.778   2.203 -1.2365 -1.1332  0.1874
  161MOL0     H21720   8.585   6.643   2.018  1.0174 -0.1729 -0.9926
  161MOL0     H21721   9.985   5.216   1.103  2.3034 -1.1798 -0.8462
  161MOL0     H21722  10.239   5.167   1.056  1.4793  0.7525 -0.9656
  161MOL0     H21723  10.606   5.255   0.954  1.5977 -0.9523 -1.1512
  161MOL0     H21724  10.803   5.205   0.853 -0.7517  0.0431 -1.0231
  161MOL0     H21725  11.015   5.146   0.824 -0.1632 -0.2019  0.3335
  161MOL0     H21726  10.977   5.295   0.731 -1.8880 -0.4080  0.2598
  161MOL0     H21727  11.187   5.184   0.641  1.5671  0.3430 -0.0791
  161MOL0     H21728  11.265   5.205   0.788  0.3682 -0.7188 -0.4726
  161MOL0     H21729  11.213   5.475   0.761  1.0113  0.6017  0.1194
  161MOL0     H21730  11.168   5.444   0.607  3.4078 -0.8670 -2.7443
  161MOL0     H21731  11.369   5.467   0.544  1.7606 -1.5330 -1.6672
  161MOL0     H21732  11.394   5.305   0.576 -0.3173 -0.2886  0.6482
  161MOL0     H21733  11.650   5.483   0.859  1.1058 -3.6204 -0.6775
  161MOL0     H21734  11.004   5.475   1.120 -1.1273  1.7848 -2.4870
  161MOL0     H21735  10.797   5.493   1.251  0.0715  1.0570  0.1690
  162MOL0     O21736   9.312   8.428   7.985 -0.4299  0.2846  0.0655
  162MOL0     C21737   9.433   8.427   7.983 -0.3576  0.6758  0.1515
  162MOL0     O21738   9.518   8.521   8.038 -0.1534 -0.3531  0.0463
  162MOL0     C21739   9.483   8.630   8.110  0.8176  0.2745  0.4323
  162MOL0     C21740   9.559   8.752   8.113 -0.4472  0.1111 -0.5465
  162MOL0     C21741   9.512   8.862   8.198 -0.6501 -0.3456 -1.2718
  162MOL0     C21742   9.390   8.855   8.260 -0.3251  0.6455  0.4467
  162MOL0     O21743   9.343   8.966   8.319  0.6728  0.0054  0.2304
  162MOL0     C21744   9.422   9.029   8.422 -0.8670 -0.0575 -0.3065
  162MOL0     C21745   9.340   9.068   8.539  0.0585  0.2943  0.4452
  162MOL0     C21746   9.262   8.950   8.607  0.6878  0.1625  0.7232
  162MOL0     C21747   9.198   9.000   8.746 -0.4547 -0.8998  0.1352
  162MOL0     C21748   9.093   8.906   8.800  0.2255  0.0596 -0.2791
  162MOL0     C21749   9.025   8.923   8.934 -0.8901  0.1764 -0.1909
  162MOL0     C21750   8.958   9.061   8.945  0.5510  0.0310 -0.0460
  162MOL0     C21751   8.820   9.066   8.867 -0.0451  0.0675  1.1211
  162MOL0     N21752   8.710   9.007   8.943  0.2578 -0.3951  0.1312
  162MOL0     C21753   8.640   9.092   9.019 -0.8988 -0.1861 -0.4474
  162MOL0     C21754   8.551   9.014   9.085  0.4530 -0.0710  0.0440
  162MOL0     C21755   8.451   9.056   9.187 -1.1553  0.3222  0.2373
  162MOL0     C21756   8.312   9.084   9.134 -0.2129  0.7944 -0.3483
  162MOL0     C21757   8.232   8.965   9.094  0.0690 -0.9411 -0.0294
  162MOL0     C21758   8.199   8.874   9.209  0.1380 -0.2489 -0.2598
  162MOL0     O21759   8.082   8.802   9.198  0.0886 -0.2229 -1.3600
  162MOL0     C21760   7.960   8.858   9.189 -0.4918 -1.4280  0.4065
  162MOL0     C21761   7.903   8.951   9.280 -0.3591  0.5954  0.3472
  162MOL0     C21762   7.785   9.017   9.270 -0.0284  0.7376 -0.7570
  162MOL0     C21763   7.743   9.116   9.381  0.3456 -0.2727  0.2724
  162MOL0     C21764   7.697   8.976   9.162 -0.1704 -0.0854  0.1711
  162MOL0     C21765   7.552   9.011   9.146  0.7637  0.1096  0.2733
  162MOL0     O21766   7.484   8.961   9.034 -0.3117  0.6419 -0.7310
  162MOL0     C21767   7.353   8.965   9.013  0.0058 -0.6004  0.3837
  162MOL0     C21768   7.297   8.857   8.954  0.6085 -0.0678  0.1863
  162MOL0     C21769   7.155   8.848   8.937 -0.6520  0.3094 -0.4897
  162MOL0     C21770   7.076   8.951   8.970  0.7302 -0.4287 -0.3147
  162MOL0     O21771   6.937   8.941   8.940 -1.1147  0.4183  0.1497
  162MOL0     C21772   6.859   9.052   8.987  0.4614 -0.0712  0.5803
  162MOL0     C21773   6.723   9.039   8.924  0.3034 -0.6810  0.0825
  162MOL0     C21774   6.628   9.151   8.976  0.3927  0.3584 -0.1516
  162MOL0     C21775   6.499   9.165   8.892  0.4941 -0.4356  0.2445
  162MOL0     C21776   6.388   9.081   8.952  0.1937  0.5608  0.2124
  162MOL0     C21777   6.248   9.099   8.875  0.1115  0.2867  0.0894
  162MOL0     C21778   6.126   9.044   8.948 -0.1913  0.8135 -0.7999
  162MOL0     C21779   6.024   9.149   8.979 -0.1090 -0.2043  0.8623
  162MOL0    Cl21780   6.106   9.275   9.082 -0.0844  0.1154  0.1723
  162MOL0     C21781   7.136   9.058   9.036  0.3257 -0.3348 -0.3201
  162MOL0     C21782   7.274   9.070   9.057  0.5411  0.1820 -0.5445
  162MOL0     O21783   7.504   9.071   9.236  0.3210  0.4721  0.6479
  162MOL0     C21784   7.750   8.875   9.073 -0.6150 -0.4137 -0.0422
  162MOL0     C21785   7.877   8.825   9.078 -0.1898  0.1659  0.1181
  162MOL0     N21786   8.564   8.883   9.028 -0.0810 -0.7266 -0.7111
  162MOL0     N21787   8.655   8.883   8.944 -0.7102  0.6485  0.0698
  162MOL0     C21788   9.320   8.737   8.265 -0.6853 -0.2674  0.6606
  162MOL0     C21789   9.371   8.622   8.185  0.0332 -0.9372  0.0697
  162MOL0     C21790   9.513   8.321   7.930 -1.3012  0.2591 -0.3491
  162MOL0     C21791   9.455   8.192   7.900 -0.5440 -0.4871 -0.0961
  162MOL0     C21792   9.524   8.098   7.817 -0.4154  0.2341 -0.5763
  162MOL0     C21793   9.656   8.117   7.783 -0.8580  0.2722 -0.6555
  162MOL0     O21794   9.740   8.013   7.735 -0.5006 -0.7370  0.3628
  162MOL0     C21795   9.697   7.878   7.723  0.4004 -0.1888 -0.5248
  162MOL0     C21796   9.777   7.808   7.613  0.7497 -0.3014  0.2507
  162MOL0     C21797   9.680   7.769   7.499  0.4751  0.2253 -1.0755
  162MOL0     C21798   9.640   7.624   7.481  0.8449  0.2135  0.7659
  162MOL0     C21799   9.596   7.563   7.612 -0.3388 -0.3248 -0.0457
  162MOL0     C21800   9.565   7.512   7.726 -0.1167 -0.1682  0.5180
  162MOL0     C21801   9.710   8.240   7.819 -0.1666 -0.4076 -0.6086
  162MOL0     C21802   9.639   8.346   7.887 -0.0654 -0.6740 -0.0666
  162MOL0     H21803   9.658   8.754   8.069  1.0327 -3.3547  2.1082
  162MOL0     H21804   9.573   8.949   8.221 -0.5433 -1.2002  2.1537
  162MOL0     H21805   9.499   8.956   8.450  0.6097  1.2858 -0.7583
  162MOL0     H21806   9.471   9.120   8.387  0.4637  0.8360  3.4049
  162MOL0     H21807   9.398   9.113   8.619  2.1377  1.4783 -1.6024
  162MOL0     H21808   9.260   9.136   8.507  1.7520  1.9727 -0.4584
  162MOL0     H21809   9.185   8.922   8.534 -0.9888 -0.9217  2.7783
  162MOL0     H21810   9.328   8.866   8.629 -0.7934 -0.5379  2.7958
  162MOL0     H21811   9.276   9.008   8.822  0.5360  2.6228 -1.0839
  162MOL0     H21812   9.150   9.096   8.724  1.4950 -0.3082 -1.9515
  162MOL0     H21813   9.019   8.892   8.721 -0.5456 -2.1497  0.7493
  162MOL0     H21814   9.144   8.810   8.809  1.8401  0.9574  0.6797
  162MOL0     H21815   8.961   8.835   8.947  1.9415 -2.1714 -1.2600
  162MOL0     H21816   9.109   8.912   9.003 -0.7264 -3.7479 -0.7753
  162MOL0     H21817   8.944   9.085   9.051 -0.7443  1.0743 -0.4292
  162MOL0     H21818   9.028   9.140   8.915 -2.4520  3.3964  1.0943
  162MOL0     H21819   8.839   9.018   8.771  2.5156 -0.2823  1.7308
  162MOL0     H21820   8.786   9.169   8.848 -0.0508 -0.0847  0.2795
  162MOL0     H21821   8.652   9.197   9.043 -0.2327  0.1409 -2.0900
  162MOL0     H21822   8.455   8.981   9.266  3.5556 -1.7676 -1.5706
  162MOL0     H21823   8.489   9.149   9.231 -1.9309  1.5000 -1.4929
  162MOL0     H21824   8.331   9.159   9.058  1.8308  0.7231  0.0171
  162MOL0     H21825   8.256   9.143   9.207  0.2507  1.3738 -0.4520
  162MOL0     H21826   8.274   8.905   9.012  0.5116  0.6399 -0.9899
  162MOL0     H21827   8.135   9.000   9.057 -0.2744  2.0900  3.2250
  162MOL0     H21828   8.194   8.934   9.300  2.9099 -0.2222 -0.0527
  162MOL0     H21829   8.286   8.811   9.233 -0.0916  0.6343  3.4502
  162MOL0     H21830   7.965   8.968   9.367 -1.7931  0.1429  1.4904
  162MOL0     H21831   7.707   9.203   9.326 -0.4343 -1.7785 -1.6789
  162MOL0     H21832   7.654   9.086   9.436  1.2028 -1.8016  0.8814
  162MOL0     H21833   7.820   9.144   9.454 -0.4909 -0.4376  1.2455
  162MOL0     H21834   7.375   8.785   8.928 -0.3645 -1.1403  0.1648
  162MOL0     H21835   7.117   8.760   8.886 -0.4282 -0.5007  0.7116
  162MOL0     H21836   6.849   9.053   9.096  0.5572  0.2967  0.5873
  162MOL0     H21837   6.893   9.151   8.957 -0.2960 -0.3960 -1.4955
  162MOL0     H21838   6.744   9.067   8.820 -0.4622 -2.4312 -0.5932
  162MOL0     H21839   6.692   8.935   8.941  0.2017 -0.4875  1.1479
  162MOL0     H21840   6.682   9.244   8.954  2.7075 -1.3341 -2.2163
  162MOL0     H21841   6.605   9.139   9.082  1.0281  1.2266  0.0890
  162MOL0     H21842   6.468   9.268   8.876  1.1965  0.0892  2.0063
  162MOL0     H21843   6.517   9.129   8.790  1.4166  0.1730  0.1818
  162MOL0     H21844   6.377   9.105   9.058 -0.0445 -0.4226  0.4155
  162MOL0     H21845   6.426   8.979   8.948 -1.0441  0.0364  1.1187
  162MOL0     H21846   6.235   9.195   8.823  0.0301 -0.1625 -0.7370
  162MOL0     H21847   6.253   9.040   8.783 -0.9396 -0.0346  0.2283
  162MOL0     H21848   6.173   9.005   9.039 -0.3797  0.4987 -0.8360
  162MOL0     H21849   6.076   8.962   8.895  2.2752  0.9352 -3.5339
  162MOL0     H21850   5.935   9.107   9.026 -0.7305  0.0516 -0.0671
  162MOL0     H21851   5.994   9.200   8.887  0.8214  3.0961  2.2505
  162MOL0     H21852   7.077   9.144   9.067  0.3760 -0.5496  0.3725
  162MOL0     H21853   7.312   9.168   9.083  2.4305 -0.6912  0.2603
  162MOL0     H21854   7.686   8.826   9.000 -1.4890  2.4810 -1.3783
  162MOL0     H21855   7.923   8.762   9.002 -2.9754  0.9812 -2.3986
  162MOL0     H21856   9.225   8.749   8.315 -1.4361  2.3145 -1.1681
  162MOL0     H21857   9.320   8.528   8.206 -4.7241  1.5589  1.1271
  162MOL0     H21858   9.349   8.187   7.920 -0.5101 -0.6711  0.0482
  162MOL0     H21859   9.474   8.011   7.775  1.6007 -0.7338 -1.1554
  162MOL0     H21860   9.724   7.816   7.808 -2.3025 -2.0158 -0.8817
  162MOL0     H21861   9.589   7.867   7.715 -0.2959  2.5377  2.7626
  162MOL0     H21862   9.825   7.720   7.656 -2.0313 -1.6797  0.7462
  162MOL0     H21863   9.850   7.879   7.574  2.8486 -1.4439  1.8687
  162MOL0     H21864   9.721   7.792   7.401 -1.8568  0.8717 -1.9699
  162MOL0     H21865   9.597   7.840   7.500  1.3396  1.3662 -3.5625
  162MOL0     H21866   9.727   7.566   7.448 -1.3347 -3.1291  0.4472
  162MOL0     H21867   9.560   7.607   7.409  1.1712 -2.3769  0.9192
  162MOL0     H21868   9.531   7.461   7.813 -3.4278  0.5205 -0.2355
  162MOL0     H21869   9.814   8.258   7.796  0.1072 -0.8491  0.2343
  162MOL0     H21870   9.687   8.443   7.876  1.9925 -1.7482 -1.0715
  163MOL0     O21871   1.774   7.134   4.945 -0.2122 -0.2930  0.1759
  163MOL0     C21872   1.833   7.173   5.049 -0.5263 -1.3292  0.5340
  163MOL0     O21873   1.967   7.190   5.067  0.5810 -0.2816 -0.0694
  163MOL0     C21874   2.067   7.152   4.984 -0.3011 -0.0564  0.8796
  163MOL0     C21875   2.190   7.213   5.007  0.6995  0.1390 -0.2431
  163MOL0     C21876   2.301   7.184   4.933  0.7390  0.4059  0.1982
  163MOL0     C21877   2.294   7.095   4.825  0.1201  0.7010 -0.7278
  163MOL0     O21878   2.408   7.052   4.756 -0.4438  1.1299 -0.6001
  163MOL0     C21879   2.405   6.989   4.630  0.9224  0.0510 -0.2880
  163MOL0     C21880   2.538   7.009   4.564 -0.5657 -0.3400 -0.2912
  163MOL0     C21881   2.626   6.892   4.548 -0.0324  0.2865  0.3619
  163MOL0     C21882   2.769   6.934   4.488 -0.4515  0.0183 -0.9070
  163MOL0     C21883   2.857   6.807   4.500 -0.2738  0.5347 -0.2742
  163MOL0     C21884   2.997   6.832   4.453 -0.2653  0.0811  0.0322
  163MOL0     C21885   3.106   6.726   4.474  0.6060 -0.1288 -0.7490
  163MOL0     C21886   3.251   6.791   4.465 -0.4417  0.0240 -0.0492
  163MOL0     N21887   3.316   6.841   4.584 -0.3866  0.1116 -0.1878
  163MOL0     C21888   3.440   6.912   4.595  1.1249  0.2511  0.0156
  163MOL0     C21889   3.449   6.959   4.721  0.7263 -0.0865 -0.4808
  163MOL0     C21890   3.564   7.043   4.764  0.4926  0.6037 -0.5759
  163MOL0     C21891   3.666   6.961   4.838 -0.4758  0.2460 -0.2423
  163MOL0     C21892   3.759   6.879   4.749  0.9290 -1.1821  0.7025
  163MOL0     C21893   3.876   6.823   4.833  0.6659 -0.2469 -0.0751
  163MOL0     O21894   3.969   6.930   4.892 -0.0592  0.4806 -0.2949
  163MOL0     C21895   4.019   6.879   5.008  0.1347  0.3464  0.8758
  163MOL0     C21896   4.003   6.953   5.125  0.4092  0.2602  0.3534
  163MOL0     C21897   4.049   6.909   5.250 -0.6671 -0.1678  0.7301
  163MOL0     C21898   4.008   6.985   5.372  0.2486 -0.5210  0.3537
  163MOL0     C21899   4.133   6.794   5.246  0.5032 -0.2070 -0.4549
  163MOL0     C21900   4.196   6.740   5.368 -0.0038 -0.4637 -0.2040
  163MOL0     O21901   4.230   6.832   5.460 -0.5190  0.5024  0.0165
  163MOL0     C21902   4.296   6.794   5.577  0.2428 -0.2129 -0.2084
  163MOL0     C21903   4.226   6.800   5.693 -0.5529 -0.0302  0.2109
  163MOL0     C21904   4.289   6.774   5.825 -0.4011  0.0521 -0.0907
  163MOL0     C21905   4.427   6.744   5.822  0.7058  0.2638 -0.4285
  163MOL0     O21906   4.507   6.724   5.930  0.2015  0.7312 -0.4270
  163MOL0     C21907   4.457   6.759   6.062 -0.5982  0.4721 -1.6584
  163MOL0     C21908   4.560   6.739   6.181 -0.2715 -0.3391 -0.7318
  163MOL0     C21909   4.507   6.803   6.315  0.2164  0.2299 -0.6251
  163MOL0     C21910   4.549   6.957   6.308  0.1897 -0.3419 -0.6093
  163MOL0     C21911   4.511   7.037   6.421 -0.1435 -0.4531  0.0936
  163MOL0     C21912   4.538   6.975   6.560  0.0425 -0.7020 -0.3594
  163MOL0     C21913   4.477   7.054   6.677 -0.3195 -0.0592  0.2107
  163MOL0     C21914   4.327   7.032   6.684  0.0070  0.0882  0.0363
  163MOL0    Cl21915   4.298   6.992   6.865 -0.1412 -0.0525 -0.3249
  163MOL0     C21916   4.499   6.741   5.702  0.0468  0.3732 -0.3481
  163MOL0     C21917   4.435   6.758   5.580  0.4434 -0.5985 -0.0138
  163MOL0     O21918   4.200   6.619   5.376  0.1687  0.3592  0.8955
  163MOL0     C21919   4.150   6.729   5.121  0.9827 -0.8628  0.0300
  163MOL0     C21920   4.101   6.775   5.004  0.1285 -0.8003 -0.0276
  163MOL0     N21921   3.337   6.911   4.791  0.6332 -0.3053 -0.6915
  163MOL0     N21922   3.260   6.846   4.707  0.3114  1.1691 -0.1133
  163MOL0     C21923   2.166   7.034   4.803  0.1849  0.1924  0.2966
  163MOL0     C21924   2.053   7.065   4.879 -0.2926  0.0458 -0.4878
  163MOL0     C21925   1.750   7.229   5.155 -0.1617  0.8258  0.7779
  163MOL0     C21926   1.614   7.243   5.136  0.3308  0.0447 -0.1687
  163MOL0     C21927   1.539   7.295   5.244  0.7398 -0.2625 -0.3518
  163MOL0     C21928   1.602   7.332   5.371  0.9397  0.1938  0.6087
  163MOL0     O21929   1.536   7.374   5.485 -0.3767  0.1940  0.7542
  163MOL0     C21930   1.396   7.412   5.462  0.3047 -1.0073  0.0784
  163MOL0     C21931   1.352   7.486   5.599 -0.9809 -0.0194 -0.4740
  163MOL0     C21932   1.436   7.616   5.618  0.0498  0.5629  0.1667
  163MOL0     C21933   1.362   7.714   5.703  0.1651 -0.6453 -0.3331
  163MOL0     C21934   1.246   7.767   5.631  0.1324  1.2895  0.9320
  163MOL0     C21935   1.164   7.823   5.562  0.7110 -0.7860 -0.5151
  163MOL0     C21936   1.735   7.313   5.376 -0.2976 -0.5282 -0.9839
  163MOL0     C21937   1.806   7.259   5.278 -0.4662 -0.3601 -0.6887
  163MOL0     H21938   2.180   7.290   5.082 -0.3297  0.8606 -1.0810
  163MOL0     H21939   2.389   7.246   4.947  0.6482  0.4642  0.5227
  163MOL0     H21940   2.376   6.883   4.634 -1.3548  0.6123 -0.3567
  163MOL0     H21941   2.319   7.030   4.576 -1.5067 -2.6407  1.2331
  163MOL0     H21942   2.517   7.056   4.467 -1.0911 -0.3279 -0.1726
  163MOL0     H21943   2.597   7.082   4.619 -2.6014  1.0610  0.1569
  163MOL0     H21944   2.624   6.838   4.643 -0.1375 -2.2345 -1.0055
  163MOL0     H21945   2.585   6.821   4.475  0.4924 -0.1745  0.5077
  163MOL0     H21946   2.759   6.971   4.386  3.1810 -3.1352 -2.6306
  163MOL0     H21947   2.800   7.013   4.558 -3.2679  1.0334 -0.6652
  163MOL0     H21948   2.852   6.765   4.601 -1.3988  0.4440 -0.3483
  163MOL0     H21949   2.825   6.730   4.430  2.3933 -1.2157  0.3117
  163MOL0     H21950   2.996   6.869   4.350 -2.0270 -0.8670 -0.3349
  163MOL0     H21951   3.026   6.914   4.519 -1.0039  0.8470 -0.5707
  163MOL0     H21952   3.077   6.674   4.566 -0.4094  0.8448 -0.5013
  163MOL0     H21953   3.091   6.645   4.402 -0.8669  0.1226 -0.7640
  163MOL0     H21954   3.267   6.869   4.390 -1.2237  0.4954  0.2627
  163MOL0     H21955   3.314   6.705   4.438  3.0737  2.5299 -0.5645
  163MOL0     H21956   3.509   6.914   4.511 -1.7029 -1.9137 -2.6086
  163MOL0     H21957   3.603   7.092   4.674  3.3191 -2.1666 -1.0769
  163MOL0     H21958   3.538   7.118   4.839  3.0406  0.4165  0.5910
  163MOL0     H21959   3.615   6.895   4.909  1.7091 -1.4218 -0.1276
  163MOL0     H21960   3.724   7.034   4.895 -1.8424  0.0790  1.4175
  163MOL0     H21961   3.811   6.948   4.683  0.6521 -1.4231  0.2242
  163MOL0     H21962   3.712   6.799   4.691  1.4862  0.9010 -2.9015
  163MOL0     H21963   3.940   6.756   4.774 -0.7346 -2.1638  0.4778
  163MOL0     H21964   3.841   6.747   4.904 -2.9443  1.3398  0.0223
  163MOL0     H21965   3.947   7.045   5.127  3.0118  1.9401  1.2349
  163MOL0     H21966   3.995   6.919   5.459  1.3671  1.6545  2.2793
  163MOL0     H21967   4.085   7.055   5.406  0.2121  0.3818 -1.3444
  163MOL0     H21968   3.924   7.053   5.359 -1.3238 -2.4888 -0.3125
  163MOL0     H21969   4.121   6.824   5.702 -0.6573  0.2434 -1.4383
  163MOL0     H21970   4.234   6.766   5.919  2.9719 -0.6216  2.0182
  163MOL0     H21971   4.424   6.863   6.065  1.2815  1.0962 -0.5960
  163MOL0     H21972   4.366   6.701   6.081 -0.1098  0.0597 -0.5046
  163MOL0     H21973   4.582   6.634   6.201  0.9482 -0.3703 -2.0331
  163MOL0     H21974   4.656   6.785   6.154  1.1356 -2.2053  0.8716
  163MOL0     H21975   4.541   6.745   6.401 -2.1334 -1.4892 -0.7702
  163MOL0     H21976   4.398   6.803   6.327  0.2085 -1.1902 -0.5910
  163MOL0     H21977   4.658   6.958   6.312  0.5115  5.2593  4.6784
  163MOL0     H21978   4.513   7.010   6.219 -2.2025  1.5159  1.3298
  163MOL0     H21979   4.407   7.070   6.422  0.5510  1.9542  1.8406
  163MOL0     H21980   4.571   7.129   6.416  1.7722 -1.6284  0.5034
  163MOL0     H21981   4.531   6.867   6.573  5.4769 -1.3301 -0.4905
  163MOL0     H21982   4.642   6.994   6.586  0.0528 -1.1944 -0.0337
  163MOL0     H21983   4.503   7.160   6.666 -0.3222 -0.2725 -2.4690
  163MOL0     H21984   4.525   7.030   6.773  0.1954 -0.4716 -0.1470
  163MOL0     H21985   4.303   6.936   6.637  0.8081 -2.3626  4.0981
  163MOL0     H21986   4.267   7.113   6.643  1.2966  0.0047 -2.1736
  163MOL0     H21987   4.604   6.720   5.718  0.2055  1.8790  0.8067
  163MOL0     H21988   4.499   6.758   5.492 -1.4926 -0.5628 -1.5002
  163MOL0     H21989   4.208   6.638   5.132 -1.5633 -2.6847 -0.6669
  163MOL0     H21990   4.139   6.725   4.915 -0.1102  0.3202 -0.7759
  163MOL0     H21991   2.157   6.948   4.736  0.2962  0.4238 -0.0155
  163MOL0     H21992   1.963   7.008   4.855  0.0132 -1.7558  2.1538
  163MOL0     H21993   1.568   7.211   5.043  1.7395 -1.9403 -0.2586
  163MOL0     H21994   1.433   7.314   5.229  0.6927 -1.8516 -2.3462
  163MOL0     H21995   1.384   7.477   5.375  0.7043 -2.9018 -1.4750
  163MOL0     H21996   1.330   7.326   5.450 -2.6624  0.7393  2.5712
  163MOL0     H21997   1.370   7.428   5.691 -2.3438  1.4555  0.7747
  163MOL0     H21998   1.247   7.512   5.588 -0.9980  0.5508  0.8164
  163MOL0     H21999   1.461   7.654   5.519  1.5082  0.2843  0.4062
  163MOL0     H22000   1.537   7.599   5.657 -0.0449  1.1598  0.6997
  163MOL0     H22001   1.437   7.790   5.728  3.1567 -3.2762 -0.7888
  163MOL0     H22002   1.326   7.669   5.795  0.0602 -0.5474 -0.3250
  163MOL0     H22003   1.087   7.866   5.503  0.0315 -0.5873  0.4851
  163MOL0     H22004   1.786   7.336   5.469 -0.8949  0.3136 -0.8524
  163MOL0     H22005   1.913   7.252   5.294 -0.6544  0.9394  1.5846
  164MOL0     O22006   9.823   6.676   6.763  0.0142  0.7673  0.1778
  164MOL0     C22007   9.829   6.645   6.646 -0.2945  1.0430  0.4308
  164MOL0     O22008   9.948   6.640   6.569 -0.2618 -0.6203 -0.0582
  164MOL0     C22009  10.065   6.665   6.634  0.6859  0.4518  0.1111
  164MOL0     C22010  10.103   6.793   6.638  0.1272 -0.0991  0.3041
  164MOL0     C22011  10.217   6.826   6.711 -0.2017  0.6626 -0.5998
  164MOL0     C22012  10.301   6.719   6.771  0.8804 -0.7259  0.3302
  164MOL0     O22013  10.411   6.755   6.844  0.7924 -0.0512 -0.0555
  164MOL0     C22014  10.421   6.708   6.986  0.0272 -0.1730  1.1051
  164MOL0     C22015  10.378   6.822   7.069  0.2725 -0.3804  0.6745
  164MOL0     C22016  10.456   6.949   7.044  0.1237 -0.2460 -0.0386
  164MOL0     C22017  10.387   7.083   7.094 -0.6913  0.8018 -0.0351
  164MOL0     C22018  10.337   7.087   7.239 -0.6331 -0.2055 -0.0422
  164MOL0     C22019  10.276   7.226   7.253  1.1323  0.2575 -0.1165
  164MOL0     C22020  10.241   7.250   7.394 -0.6553  0.8746 -0.5488
  164MOL0     C22021  10.220   7.398   7.435 -0.0446  0.5403  0.2968
  164MOL0     N22022  10.114   7.463   7.351  0.1438 -0.0913  0.3256
  164MOL0     C22023  10.110   7.490   7.213 -0.0201  0.5624  0.7757
  164MOL0     C22024   9.982   7.506   7.180  0.8069 -0.9703 -0.6054
  164MOL0     C22025   9.926   7.542   7.043  0.4062 -0.2144 -0.7745
  164MOL0     C22026   9.946   7.439   6.932 -0.6032  0.7568  0.4754
  164MOL0     C22027   9.913   7.292   6.966 -0.7562  1.1984 -0.6032
  164MOL0     C22028   9.764   7.267   7.021 -0.0836 -0.4291  0.2370
  164MOL0     O22029   9.718   7.131   7.035  0.7586 -0.0628 -0.0473
  164MOL0     C22030   9.656   7.093   7.155  0.3575  0.3485 -0.1032
  164MOL0     C22031   9.584   6.979   7.155 -0.6844  0.5102 -0.0048
  164MOL0     C22032   9.534   6.921   7.274 -0.2252 -0.9294 -0.5392
  164MOL0     C22033   9.466   6.790   7.269  0.1498 -0.1376 -0.3505
  164MOL0     C22034   9.559   6.980   7.401 -0.1142 -0.0637  0.4326
  164MOL0     C22035   9.513   6.927   7.529  0.0710  0.2088  0.2485
  164MOL0     O22036   9.388   6.879   7.539 -0.0105 -0.8545 -0.4536
  164MOL0     C22037   9.323   6.875   7.659  0.1703  0.1228 -0.2874
  164MOL0     C22038   9.199   6.944   7.676  0.7375  0.3994 -0.1188
  164MOL0     C22039   9.129   6.935   7.798  1.0906 -0.4322 -0.7905
  164MOL0     C22040   9.189   6.858   7.900 -0.2074 -0.7861  0.1111
  164MOL0     O22041   9.131   6.854   8.019 -0.4728  0.5064 -0.7570
  164MOL0     C22042   9.040   6.749   8.035  0.5886 -0.7556 -0.1744
  164MOL0     C22043   9.066   6.713   8.175 -1.0476  0.0779 -0.5141
  164MOL0     C22044   9.185   6.617   8.201 -0.6845 -0.6195 -0.0438
  164MOL0     C22045   9.258   6.641   8.330  0.1017 -0.8552 -0.5454
  164MOL0     C22046   9.340   6.517   8.362 -1.2079 -0.2342 -0.3157
  164MOL0     C22047   9.452   6.565   8.463 -0.4078 -0.4000  0.3064
  164MOL0     C22048   9.497   6.445   8.537  1.0225 -0.1489  1.1193
  164MOL0     C22049   9.619   6.485   8.621  1.1248 -0.4345 -0.1995
  164MOL0    Cl22050   9.694   6.354   8.707 -0.0477  0.3459 -0.0856
  164MOL0     C22051   9.318   6.800   7.883  0.7959 -0.7431  0.2055
  164MOL0     C22052   9.380   6.804   7.764 -0.2054  0.2252 -0.1540
  164MOL0     O22053   9.592   6.948   7.623 -0.5138 -0.2211 -0.3370
  164MOL0     C22054   9.637   7.097   7.408  0.5965  0.2820  0.2721
  164MOL0     C22055   9.681   7.152   7.287  0.7050 -0.6142  0.1900
  164MOL0     N22056   9.911   7.491   7.298 -0.0603 -0.6905 -0.0016
  164MOL0     N22057   9.992   7.478   7.396  0.2935  0.1186 -0.1595
  164MOL0     C22058  10.244   6.591   6.776 -0.1733  1.1188  0.2121
  164MOL0     C22059  10.131   6.561   6.699  0.2833 -0.3759  0.2162
  164MOL0     C22060   9.710   6.587   6.580 -0.0262  0.0733 -0.1185
  164MOL0     C22061   9.722   6.515   6.465 -0.2431  0.9257  0.9093
  164MOL0     C22062   9.613   6.480   6.388  0.5281  0.6605  0.7006
  164MOL0     C22063   9.485   6.495   6.436 -0.5684  0.5029 -0.8734
  164MOL0     O22064   9.368   6.458   6.364 -0.3994 -0.4056  0.5025
  164MOL0     C22065   9.384   6.430   6.215  0.2722 -0.0125 -0.4644
  164MOL0     C22066   9.251   6.403   6.138  0.6498 -0.6375 -0.2137
  164MOL0     C22067   9.164   6.291   6.212  0.0396  0.2901 -0.2994
  164MOL0     C22068   9.071   6.230   6.111 -0.0725  0.1817 -0.8275
  164MOL0     C22069   8.980   6.141   6.175  0.7969  0.1195 -0.3889
  164MOL0     C22070   8.899   6.062   6.224 -0.8295 -0.1202  0.2252
  164MOL0     C22071   9.469   6.550   6.565  0.0281  0.8433  0.3684
  164MOL0     C22072   9.579   6.598   6.629 -0.1687  0.4710 -0.1510
  164MOL0     H22073  10.051   6.873   6.587 -2.5423  0.9267  4.1439
  164MOL0     H22074  10.259   6.925   6.726  0.4556 -0.0805  3.9147
  164MOL0     H22075  10.368   6.613   7.001 -1.0680  0.0612 -0.9085
  164MOL0     H22076  10.526   6.690   7.009  0.1428  0.5909  1.1880
  164MOL0     H22077  10.273   6.845   7.049  1.0306  1.9288 -0.9321
  164MOL0     H22078  10.379   6.793   7.175  1.8152 -4.7065 -0.3255
  164MOL0     H22079  10.556   6.942   7.087  0.0247  1.0095  0.4090
  164MOL0     H22080  10.480   6.955   6.937 -0.4606 -2.2191 -0.3314
  164MOL0     H22081  10.452   7.167   7.069  2.1374 -1.0709  0.4623
  164MOL0     H22082  10.296   7.093   7.035 -1.1406  2.2139  0.8560
  164MOL0     H22083  10.269   7.004   7.258  0.3427 -2.1272 -3.8442
  164MOL0     H22084  10.417   7.073   7.313 -1.8151  0.3163  1.3757
  164MOL0     H22085  10.327   7.310   7.205  0.7459  0.0762 -0.8496
  164MOL0     H22086  10.178   7.228   7.205  1.4916 -1.6620 -1.0411
  164MOL0     H22087  10.161   7.185   7.431  1.5013 -1.5736  0.0990
  164MOL0     H22088  10.331   7.217   7.448 -1.1644  0.0567 -0.1809
  164MOL0     H22089  10.324   7.432   7.426 -0.1072  0.4611 -0.8961
  164MOL0     H22090  10.198   7.402   7.542 -0.7454  1.0204  0.1457
  164MOL0     H22091  10.193   7.489   7.142 -0.2272 -1.1248  0.5126
  164MOL0     H22092   9.819   7.563   7.055  0.9643  1.5865  2.1663
  164MOL0     H22093   9.976   7.632   7.006 -4.0840  2.5719 -0.9179
  164MOL0     H22094  10.052   7.447   6.906 -0.6325 -1.7704 -0.6497
  164MOL0     H22095   9.897   7.464   6.838 -1.5799 -3.4160 -0.2995
  164MOL0     H22096   9.984   7.262   7.045 -1.0590 -3.9370 -1.9131
  164MOL0     H22097   9.932   7.224   6.883 -0.9471 -0.1000  0.3726
  164MOL0     H22098   9.705   7.310   6.940 -0.2529 -2.8041 -0.9981
  164MOL0     H22099   9.756   7.336   7.106 -1.8688  0.6794 -0.7822
  164MOL0     H22100   9.566   6.938   7.056  0.3418  3.5942 -1.5914
  164MOL0     H22101   9.532   6.711   7.305 -0.7735 -0.5923  0.3638
  164MOL0     H22102   9.373   6.792   7.327  1.3914  1.3600  1.7456
  164MOL0     H22103   9.439   6.759   7.168 -0.7537  1.9646 -0.8255
  164MOL0     H22104   9.142   6.990   7.596  1.5350  0.0656 -0.8910
  164MOL0     H22105   9.029   6.975   7.802  0.6272 -1.6522  2.2875
  164MOL0     H22106   8.937   6.785   8.032  0.0528 -2.1579  0.1558
  164MOL0     H22107   9.041   6.668   7.961  0.4753  0.5126 -1.6202
  164MOL0     H22108   9.084   6.804   8.232  4.4159  0.5755 -2.4981
  164MOL0     H22109   8.975   6.663   8.213 -0.8082  0.5441  0.7241
  164MOL0     H22110   9.253   6.634   8.117  0.6039  1.0655  1.2523
  164MOL0     H22111   9.145   6.516   8.205  0.8506 -1.2130  1.6725
  164MOL0     H22112   9.307   6.737   8.312 -2.5682  0.5848 -0.7911
  164MOL0     H22113   9.188   6.650   8.414 -0.4946  2.5243 -1.2613
  164MOL0     H22114   9.384   6.480   8.269 -1.7072  0.8331 -0.9924
  164MOL0     H22115   9.269   6.446   8.407 -3.9055  2.3138 -0.2470
  164MOL0     H22116   9.537   6.616   8.417  0.0457 -0.3330  1.1867
  164MOL0     H22117   9.413   6.646   8.526  0.9432  0.4407  0.1215
  164MOL0     H22118   9.527   6.368   8.466 -1.5924  0.0967 -0.3631
  164MOL0     H22119   9.417   6.410   8.602 -0.6213  0.3455 -0.5369
  164MOL0     H22120   9.575   6.558   8.690  1.2262 -0.3060 -0.2711
  164MOL0     H22121   9.700   6.531   8.565  1.7929 -1.6449 -0.2624
  164MOL0     H22122   9.367   6.751   7.967  3.5280  1.9043  0.3448
  164MOL0     H22123   9.481   6.764   7.760 -0.6367 -0.9152  0.1487
  164MOL0     H22124   9.667   7.145   7.501 -0.8089  1.1783  0.3045
  164MOL0     H22125   9.744   7.241   7.299 -0.7180  1.2019 -3.7895
  164MOL0     H22126  10.306   6.523   6.834  2.2507  1.7638 -1.4562
  164MOL0     H22127  10.087   6.462   6.687 -2.7390  0.7890  0.7574
  164MOL0     H22128   9.820   6.491   6.423 -1.0540  2.0267 -1.8439
  164MOL0     H22129   9.629   6.434   6.290 -3.7940  0.9692 -0.3445
  164MOL0     H22130   9.429   6.518   6.168  1.8057 -1.4886 -1.8714
  164MOL0     H22131   9.460   6.353   6.201  0.7233  0.2213  0.6286
  164MOL0     H22132   9.278   6.370   6.037 -3.0469 -0.5619 -1.3811
  164MOL0     H22133   9.179   6.482   6.119 -3.0371 -3.6746 -0.0234
  164MOL0     H22134   9.117   6.339   6.298  3.1506  1.1708  1.0780
  164MOL0     H22135   9.235   6.215   6.247  1.6109  2.6173  1.8790
  164MOL0     H22136   9.128   6.179   6.032 -0.7063  0.9726 -1.8165
  164MOL0     H22137   9.018   6.313   6.064  0.0964 -0.0205 -1.3831
  164MOL0     H22138   8.835   5.993   6.275  0.0951 -0.4699  0.9564
  164MOL0     H22139   9.373   6.557   6.614 -0.8808 -0.8624 -1.0487
  164MOL0     H22140   9.565   6.647   6.725 -2.9531 -0.0645 -0.2116
  165MOL0     O22141   1.499   6.516   1.086  0.0390  0.2980  0.1041
  165MOL0     C22142   1.496   6.560   0.969  0.7060 -0.0616  0.4189
  165MOL0     O22143   1.489   6.479   0.857 -0.5294 -0.2884 -0.2609
  165MOL0     C22144   1.474   6.343   0.877  0.2470  0.3146  0.6096
  165MOL0     C22145   1.580   6.266   0.929 -0.2257  0.3422 -0.4960
  165MOL0     C22146   1.564   6.128   0.952 -1.8457  0.1800 -0.3444
  165MOL0     C22147   1.445   6.067   0.923 -0.6204  0.4280  0.7481
  165MOL0     O22148   1.448   5.934   0.938  0.0675 -0.6717 -0.3848
  165MOL0     C22149   1.346   5.861   0.866 -0.0122  0.0013 -0.4799
  165MOL0     C22150   1.366   5.711   0.875 -0.6043  0.0040  0.2226
  165MOL0     C22151   1.509   5.655   0.849 -0.3112  0.5987 -0.4679
  165MOL0     C22152   1.513   5.500   0.868 -0.0517 -0.0574  0.8578
  165MOL0     C22153   1.635   5.439   0.808 -1.0527 -0.0779 -0.2029
  165MOL0     C22154   1.641   5.285   0.816 -0.1523  0.1544 -0.2656
  165MOL0     C22155   1.593   5.207   0.686 -0.8824 -0.8117  0.3037
  165MOL0     C22156   1.692   5.189   0.571 -0.1737  0.1159 -0.1753
  165MOL0     N22157   1.620   5.135   0.446 -0.4209  0.2710 -1.0480
  165MOL0     C22158   1.507   5.184   0.393  0.3534  0.2110 -0.2498
  165MOL0     C22159   1.497   5.134   0.267 -0.7578  0.3230  0.7854
  165MOL0     C22160   1.384   5.146   0.162 -0.1401 -0.2640 -0.0388
  165MOL0     C22161   1.391   5.269   0.056 -0.1042 -0.0387  0.3727
  165MOL0     C22162   1.518   5.267  -0.031  0.8595 -0.8119  0.6094
  165MOL0     C22163   1.504   5.366  -0.146  0.3383  0.3261 -0.0126
  165MOL0     O22164   1.629   5.408  -0.182  0.1621  0.7304  0.8467
  165MOL0     C22165   1.644   5.475  -0.300  0.4745 -0.8190 -0.1944
  165MOL0     C22166   1.766   5.508  -0.346 -0.5482  0.2768 -0.5701
  165MOL0     C22167   1.787   5.596  -0.448  0.7690  0.0287  0.2434
  165MOL0     C22168   1.929   5.613  -0.497 -0.4235  0.7013  0.2982
  165MOL0     C22169   1.677   5.662  -0.513  0.0764  0.2468 -0.4332
  165MOL0     C22170   1.684   5.769  -0.618 -0.4524 -1.4968 -0.2796
  165MOL0     O22171   1.589   5.772  -0.720 -0.2425 -0.0829  0.1568
  165MOL0     C22172   1.571   5.888  -0.795  0.0686 -0.1331 -0.0304
  165MOL0     C22173   1.628   5.901  -0.924 -0.1194  0.2637 -0.3989
  165MOL0     C22174   1.616   6.029  -0.988  0.4907  0.5220  0.1771
  165MOL0     C22175   1.557   6.130  -0.912 -0.3614  0.0281 -0.3770
  165MOL0     O22176   1.559   6.250  -0.975 -0.4671  0.3875  0.7570
  165MOL0     C22177   1.534   6.376  -0.916  0.3769  1.5670 -0.6981
  165MOL0     C22178   1.590   6.479  -1.004 -1.0715 -0.6739  0.3300
  165MOL0     C22179   1.559   6.623  -0.952 -0.2975  0.8202  0.5642
  165MOL0     C22180   1.434   6.696  -0.997  0.3330  0.6231 -0.5931
  165MOL0     C22181   1.419   6.698  -1.155  0.3791  0.0110  0.1602
  165MOL0     C22182   1.332   6.814  -1.202  0.2446  0.3720 -0.4209
  165MOL0     C22183   1.290   6.791  -1.350  0.7454  0.5187 -0.4884
  165MOL0     C22184   1.403   6.807  -1.451 -0.1854 -0.0213  0.2496
  165MOL0    Cl22185   1.345   6.858  -1.610  0.3564 -0.1914 -0.1522
  165MOL0     C22186   1.487   6.108  -0.794  0.1103 -0.6835  0.1591
  165MOL0     C22187   1.494   5.981  -0.735  0.4596 -0.3440 -0.7594
  165MOL0     O22188   1.778   5.854  -0.608  0.1918  0.2212 -0.5037
  165MOL0     C22189   1.549   5.623  -0.472 -0.6072  0.0009 -0.3897
  165MOL0     C22190   1.534   5.543  -0.363 -0.1115  0.5695 -0.2831
  165MOL0     N22191   1.608   5.037   0.249 -0.0601 -0.5460  0.0280
  165MOL0     N22192   1.675   5.035   0.364  0.5978 -0.3290 -0.1150
  165MOL0     C22193   1.335   6.148   0.878  0.4888 -0.8221  0.0776
  165MOL0     C22194   1.352   6.281   0.856 -0.3630  0.2419 -0.6768
  165MOL0     C22195   1.506   6.701   0.946  0.0891  0.1991  0.1324
  165MOL0     C22196   1.524   6.750   0.815 -0.0938  0.2796  0.5092
  165MOL0     C22197   1.530   6.890   0.789 -0.6318 -0.5742  0.3903
  165MOL0     C22198   1.513   6.983   0.895  0.1598  0.1435  0.3139
  165MOL0     O22199   1.497   7.115   0.867  0.2611  0.2811  0.3802
  165MOL0     C22200   1.400   7.182   0.952 -0.4628 -0.3275  0.0903
  165MOL0     C22201   1.256   7.153   0.910 -0.6347 -0.1278  0.2539
  165MOL0     C22202   1.211   7.162   0.767  0.7935 -1.0489 -0.2689
  165MOL0     C22203   1.242   7.296   0.709  0.2659 -0.8738  0.6080
  165MOL0     C22204   1.215   7.301   0.561 -0.1690 -0.1496 -0.8820
  165MOL0     C22205   1.193   7.305   0.443 -0.2174 -0.2079 -0.6532
  165MOL0     C22206   1.518   6.926   1.023 -0.1977  0.0135 -0.9155
  165MOL0     C22207   1.499   6.791   1.057 -0.9663  0.1655  0.1941
  165MOL0     H22208   1.659   6.328   0.968 -0.6116  0.4741  0.0850
  165MOL0     H22209   1.645   6.067   0.991 -0.1336  3.0586  0.9432
  165MOL0     H22210   1.244   5.879   0.901  1.0919 -2.1302  4.5903
  165MOL0     H22211   1.356   5.890   0.760  3.4924  1.0089 -0.0045
  165MOL0     H22212   1.338   5.693   0.980  0.5692  3.1870  1.2032
  165MOL0     H22213   1.301   5.646   0.816  1.2658 -0.7845 -1.0608
  165MOL0     H22214   1.544   5.685   0.750  1.0729 -1.1338 -0.5579
  165MOL0     H22215   1.566   5.708   0.926 -3.2498  3.0474  0.2463
  165MOL0     H22216   1.505   5.470   0.972 -1.4044  3.6064  1.9849
  165MOL0     H22217   1.436   5.446   0.812  4.6862 -5.1900 -1.6841
  165MOL0     H22218   1.644   5.474   0.704 -3.5807  0.8149 -0.1964
  165MOL0     H22219   1.718   5.485   0.861 -2.6872  1.4132  1.1672
  165MOL0     H22220   1.737   5.242   0.845 -1.2194 -2.9039 -0.9371
  165MOL0     H22221   1.570   5.257   0.894  1.4625  2.5043  2.2312
  165MOL0     H22222   1.563   5.108   0.723  0.1246 -2.2724 -2.5033
  165MOL0     H22223   1.506   5.264   0.652  0.5296  1.9063  0.9762
  165MOL0     H22224   1.779   5.136   0.611 -1.1671 -2.5139 -1.2592
  165MOL0     H22225   1.733   5.285   0.539  2.5451 -1.2871 -1.2885
  165MOL0     H22226   1.456   5.273   0.429  0.5625 -0.0183  0.6179
  165MOL0     H22227   1.381   5.051   0.107  1.4973 -0.9310  0.9647
  165MOL0     H22228   1.287   5.165   0.209  0.6292  1.9759  0.7826
  165MOL0     H22229   1.382   5.359   0.118  0.3953 -0.4439  1.0420
  165MOL0     H22230   1.300   5.265  -0.005  0.5578  1.2351 -0.7584
  165MOL0     H22231   1.541   5.166  -0.066  0.9611 -0.3607 -0.7056
  165MOL0     H22232   1.601   5.309   0.027  0.6468  1.3852 -0.5647
  165MOL0     H22233   1.431   5.446  -0.131  0.9060  0.7197  0.7145
  165MOL0     H22234   1.464   5.303  -0.226 -2.0811  0.1519  1.2219
  165MOL0     H22235   1.848   5.450  -0.307 -1.1139 -2.0848 -2.6551
  165MOL0     H22236   1.936   5.621  -0.606 -1.2791 -2.8618 -0.1618
  165MOL0     H22237   1.988   5.692  -0.450 -1.1317  2.0623 -1.0328
  165MOL0     H22238   1.987   5.522  -0.477  0.3894  1.1157 -0.1297
  165MOL0     H22239   1.680   5.821  -0.975  0.4870  1.3499 -1.5398
  165MOL0     H22240   1.648   6.044  -1.090  0.5713 -0.7211 -0.0036
  165MOL0     H22241   1.426   6.388  -0.916  0.2109  0.2896  0.3685
  165MOL0     H22242   1.579   6.372  -0.816 -0.7064  2.3393 -0.1602
  165MOL0     H22243   1.698   6.468  -1.019 -1.1961  0.5351 -1.7498
  165MOL0     H22244   1.556   6.458  -1.106 -0.5569 -0.5787  0.1361
  165MOL0     H22245   1.644   6.675  -0.998  0.7131 -1.4651 -0.3172
  165MOL0     H22246   1.575   6.640  -0.845 -1.2034  0.5759  0.7438
  165MOL0     H22247   1.345   6.646  -0.959  1.2835 -0.2451  0.6109
  165MOL0     H22248   1.430   6.800  -0.964  1.4652  0.3917  0.3558
  165MOL0     H22249   1.385   6.600  -1.189 -2.4266 -0.3012  3.2903
  165MOL0     H22250   1.513   6.734  -1.197  1.2200  1.7140  3.2169
  165MOL0     H22251   1.242   6.825  -1.140  0.8104  0.0469  0.4687
  165MOL0     H22252   1.398   6.899  -1.186  0.3324 -0.2210  3.1701
  165MOL0     H22253   1.217   6.871  -1.368  0.7542  0.0530 -2.9334
  165MOL0     H22254   1.223   6.708  -1.374  0.2267  1.0174 -0.7829
  165MOL0     H22255   1.454   6.710  -1.453  1.2885  0.7262  0.2659
  165MOL0     H22256   1.473   6.875  -1.402 -0.5337  1.1900 -0.8789
  165MOL0     H22257   1.432   6.181  -0.736  0.1026 -1.2828  0.9287
  165MOL0     H22258   1.453   5.967  -0.635  1.7165 -0.8848 -0.2942
  165MOL0     H22259   1.455   5.662  -0.511 -0.9296 -0.7934 -0.4235
  165MOL0     H22260   1.434   5.516  -0.330  0.7639 -4.5691 -1.0190
  165MOL0     H22261   1.236   6.107   0.857  0.1921  0.5533 -1.4007
  165MOL0     H22262   1.270   6.338   0.814 -1.0000  0.1419  0.3810
  165MOL0     H22263   1.540   6.672   0.742 -2.9633 -4.1440  4.1226
  165MOL0     H22264   1.537   6.934   0.690 -1.4085 -1.5094 -0.0982
  165MOL0     H22265   1.426   7.164   1.056  4.6996  0.0629 -0.8738
  165MOL0     H22266   1.411   7.290   0.940 -2.5158 -0.2123 -1.3370
  165MOL0     H22267   1.194   7.215   0.976 -0.5308 -0.1671  0.3892
  165MOL0     H22268   1.235   7.048   0.933  1.0454 -0.8260 -1.2209
  165MOL0     H22269   1.102   7.151   0.765  0.1841  2.9933  1.5788
  165MOL0     H22270   1.256   7.084   0.705 -1.2485 -0.4764 -2.6257
  165MOL0     H22271   1.348   7.320   0.720  0.4212 -0.8614 -0.7914
  165MOL0     H22272   1.178   7.368   0.762  0.0990 -0.2092 -0.4650
  165MOL0     H22273   1.165   7.322   0.341  1.2099  1.5866 -0.8031
  165MOL0     H22274   1.523   6.996   1.106 -3.6926 -0.5970 -0.0237
  165MOL0     H22275   1.498   6.769   1.163  1.8080 -1.2195  0.0370
  166MOL0     O22276   1.746   5.420   2.510 -0.2526 -0.0494  0.0375
  166MOL0     C22277   1.788   5.474   2.406 -0.3972  0.0921 -0.0233
  166MOL0     O22278   1.910   5.504   2.389 -0.2867 -0.2549 -0.3278
  166MOL0     C22279   2.010   5.456   2.474  0.9041 -0.3168  0.9652
  166MOL0     C22280   2.019   5.345   2.565 -0.1329 -1.1767 -0.5501
  166MOL0     C22281   2.138   5.324   2.630 -0.2949  0.2187 -0.0845
  166MOL0     C22282   2.260   5.402   2.609  0.2816 -0.0338 -0.4240
  166MOL0     O22283   2.367   5.391   2.696  0.1420 -0.3758 -0.1596
  166MOL0     C22284   2.403   5.510   2.767 -0.1171 -0.2538 -0.2281
  166MOL0     C22285   2.355   5.520   2.915  0.4523  0.9907  0.1906
  166MOL0     C22286   2.377   5.387   2.990 -0.6074 -0.5282 -0.1385
  166MOL0     C22287   2.303   5.380   3.126  0.0162  0.3634  0.1133
  166MOL0     C22288   2.287   5.240   3.183  0.1413  0.8519 -0.6902
  166MOL0     C22289   2.202   5.242   3.311 -0.1841 -0.0432  0.5861
  166MOL0     C22290   2.194   5.111   3.388  0.5516 -0.5550  0.0836
  166MOL0     C22291   2.096   5.119   3.511  0.6660  0.3049  0.4306
  166MOL0     N22292   2.151   5.043   3.620 -0.1088  0.3661 -0.1830
  166MOL0     C22293   2.252   5.074   3.714  0.4645 -0.3055 -0.3088
  166MOL0     C22294   2.293   4.956   3.770 -0.5058  0.3901  0.3305
  166MOL0     C22295   2.398   4.949   3.870 -0.6139  0.0888  0.1205
  166MOL0     C22296   2.500   4.842   3.825  0.7558 -0.4109  0.1943
  166MOL0     C22297   2.608   4.812   3.933 -1.0260 -0.4589  0.1196
  166MOL0     C22298   2.673   4.937   4.010  0.9290 -0.3558  0.7714
  166MOL0     O22299   2.577   4.994   4.100  0.1934 -0.6558 -0.1930
  166MOL0     C22300   2.626   5.103   4.169 -1.0135  0.3599 -0.0062
  166MOL0     C22301   2.751   5.162   4.153  0.8477  0.6823  0.3182
  166MOL0     C22302   2.789   5.283   4.216  0.4472  0.4064  0.3135
  166MOL0     C22303   2.913   5.352   4.164 -0.6222  0.0982 -0.3771
  166MOL0     C22304   2.695   5.330   4.317 -0.7582  1.0060 -0.4525
  166MOL0     C22305   2.719   5.434   4.415  0.1186  0.1596 -0.0959
  166MOL0     O22306   2.843   5.458   4.458 -1.0661  0.3514  0.5565
  166MOL0     C22307   2.894   5.585   4.470  0.3821 -0.3079 -0.3775
  166MOL0     C22308   3.021   5.618   4.425 -0.5036 -0.7880 -0.1621
  166MOL0     C22309   3.071   5.747   4.429  0.5017 -0.1222 -0.0007
  166MOL0     C22310   2.994   5.853   4.482 -0.3060 -0.5761  0.7517
  166MOL0     O22311   3.041   5.979   4.494 -0.6050 -0.1306 -0.0380
  166MOL0     C22312   2.959   6.101   4.479  0.0143 -0.5173 -0.0842
  166MOL0     C22313   3.035   6.228   4.497 -0.5272 -0.1541 -0.1909
  166MOL0     C22314   3.168   6.212   4.583  0.9034  0.5151  0.3685
  166MOL0     C22315   3.223   6.351   4.601  0.6354 -0.4121 -0.8232
  166MOL0     C22316   3.344   6.349   4.697  0.5045  0.6620 -1.0250
  166MOL0     C22317   3.390   6.496   4.708  0.6939 -0.1707 -0.4510
  166MOL0     C22318   3.504   6.516   4.814  0.3152 -0.2515 -0.1151
  166MOL0     C22319   3.639   6.484   4.743 -0.5325  0.1067 -0.1598
  166MOL0    Cl22320   3.788   6.486   4.855  0.3134  0.1121 -0.2004
  166MOL0     C22321   2.866   5.823   4.529 -1.1813  0.2284  0.0425
  166MOL0     C22322   2.828   5.691   4.526  0.4671 -0.1532  0.3229
  166MOL0     O22323   2.623   5.503   4.436 -0.9183  0.7738  0.6318
  166MOL0     C22324   2.574   5.259   4.338  0.2476  0.4348 -0.9076
  166MOL0     C22325   2.548   5.152   4.263  0.2715 -0.3974  0.8453
  166MOL0     N22326   2.220   4.855   3.712 -0.1496 -0.4745 -0.4374
  166MOL0     N22327   2.134   4.907   3.627 -0.1065  0.8347 -0.7324
  166MOL0     C22328   2.252   5.497   2.518  0.7560 -0.9410  0.1706
  166MOL0     C22329   2.134   5.520   2.448  1.1437 -1.0764 -0.3696
  166MOL0     C22330   1.694   5.509   2.289  0.4543  0.0847 -0.6840
  166MOL0     C22331   1.733   5.538   2.160  0.1403 -0.6952  0.7051
  166MOL0     C22332   1.639   5.592   2.068 -0.1099 -0.5818 -0.3366
  166MOL0     C22333   1.497   5.589   2.088  0.4557 -0.1218 -0.2879
  166MOL0     O22334   1.402   5.598   1.989  0.8063  0.2202 -0.0466
  166MOL0     C22335   1.439   5.696   1.889 -0.7139  0.5041 -1.3680
  166MOL0     C22336   1.325   5.746   1.801  0.6722  0.3808 -0.2188
  166MOL0     C22337   1.369   5.841   1.688 -0.7069 -0.4391 -0.3287
  166MOL0     C22338   1.473   5.763   1.591  0.2172 -0.0390  0.5738
  166MOL0     C22339   1.449   5.814   1.449  1.3388 -0.5845 -1.8778
  166MOL0     C22340   1.431   5.852   1.334 -0.2452 -0.2584 -0.9265
  166MOL0     C22341   1.460   5.540   2.217  0.4970 -0.0635  0.0219
  166MOL0     C22342   1.553   5.509   2.311  0.0727  0.2704 -0.1973
  166MOL0     H22343   1.938   5.275   2.580 -0.9084 -0.2074 -0.1116
  166MOL0     H22344   2.143   5.254   2.714  1.7718 -0.5840 -0.7943
  166MOL0     H22345   2.512   5.512   2.777 -0.1629 -2.6818  1.3452
  166MOL0     H22346   2.360   5.596   2.714 -1.0785 -1.0453 -0.7790
  166MOL0     H22347   2.401   5.608   2.961  0.7556  0.4942  0.8517
  166MOL0     H22348   2.247   5.529   2.900  0.0172 -1.8899  0.9539
  166MOL0     H22349   2.337   5.305   2.929 -1.9677  0.4266 -0.5734
  166MOL0     H22350   2.483   5.360   2.998 -0.9945 -2.1257 -0.0121
  166MOL0     H22351   2.328   5.457   3.200 -2.2558  1.8661 -0.5884
  166MOL0     H22352   2.200   5.411   3.108  1.0009  4.1477  0.2371
  166MOL0     H22353   2.235   5.169   3.119  1.1181 -0.2425 -0.3021
  166MOL0     H22354   2.381   5.192   3.214 -0.4683 -0.1156 -0.2958
  166MOL0     H22355   2.245   5.313   3.382 -1.3891 -1.6046  3.0043
  166MOL0     H22356   2.107   5.292   3.292  1.2471  2.7013 -0.0107
  166MOL0     H22357   2.166   5.027   3.323  1.0940  0.4144 -1.4425
  166MOL0     H22358   2.297   5.099   3.423  1.7611 -0.5074 -3.1859
  166MOL0     H22359   2.000   5.084   3.473  0.1690  2.8191 -0.8011
  166MOL0     H22360   2.090   5.225   3.540  1.3707  0.9677 -1.6735
  166MOL0     H22361   2.291   5.172   3.738  0.2404 -0.3892  0.4171
  166MOL0     H22362   2.452   5.043   3.889 -0.4806  0.4593 -1.8894
  166MOL0     H22363   2.348   4.904   3.957 -2.5918 -1.7532 -1.8379
  166MOL0     H22364   2.541   4.879   3.730 -1.8950  0.9397 -0.5401
  166MOL0     H22365   2.443   4.752   3.802  0.0903 -1.3323  4.5506
  166MOL0     H22366   2.684   4.755   3.881 -2.2201  0.4031 -2.7851
  166MOL0     H22367   2.564   4.746   4.008 -2.2101  1.1385  0.9193
  166MOL0     H22368   2.715   5.017   3.948  2.0521  0.7618  2.8508
  166MOL0     H22369   2.755   4.901   4.073  1.6205 -0.6861 -0.2899
  166MOL0     H22370   2.821   5.118   4.082 -2.5594 -2.1024 -1.6400
  166MOL0     H22371   2.879   5.450   4.129 -0.4719 -0.7211 -3.0497
  166MOL0     H22372   2.981   5.367   4.248 -0.4358 -0.3564 -0.4425
  166MOL0     H22373   2.958   5.297   4.081 -1.0331  0.7594 -1.0552
  166MOL0     H22374   3.076   5.542   4.370  1.4177 -2.1902  3.3847
  166MOL0     H22375   3.172   5.766   4.394  0.4516  1.7892  0.7988
  166MOL0     H22376   2.909   6.103   4.382  1.6177 -0.2179 -0.9416
  166MOL0     H22377   2.898   6.084   4.569 -2.4884 -0.3933 -1.6507
  166MOL0     H22378   3.056   6.276   4.401 -0.3274  0.0709 -0.0400
  166MOL0     H22379   2.973   6.301   4.551  1.5816  1.2549  0.5053
  166MOL0     H22380   3.244   6.150   4.535  0.5308  0.8726 -0.7137
  166MOL0     H22381   3.136   6.173   4.680  0.6277 -2.8980 -0.9504
  166MOL0     H22382   3.258   6.392   4.506 -0.8026  0.9445 -0.8065
  166MOL0     H22383   3.144   6.407   4.652 -0.2458 -4.1474  2.4125
  166MOL0     H22384   3.427   6.288   4.660 -0.0248 -0.8961  0.2753
  166MOL0     H22385   3.320   6.302   4.793  2.8072  1.3637 -0.0335
  166MOL0     H22386   3.428   6.539   4.615  1.0739 -1.3942 -0.8769
  166MOL0     H22387   3.301   6.551   4.740  2.4565  2.4219  0.3263
  166MOL0     H22388   3.474   6.449   4.896 -0.6758  0.4692  0.1280
  166MOL0     H22389   3.511   6.614   4.862 -1.7454  0.2957 -0.8577
  166MOL0     H22390   3.651   6.556   4.662 -1.1860 -0.0804 -0.4290
  166MOL0     H22391   3.644   6.386   4.695  4.0829  0.1270 -0.1421
  166MOL0     H22392   2.809   5.893   4.590 -3.1617  1.7136 -3.2546
  166MOL0     H22393   2.735   5.662   4.574  0.3456  0.0310  0.2010
  166MOL0     H22394   2.499   5.295   4.408 -0.7713  0.1146 -1.7919
  166MOL0     H22395   2.457   5.095   4.275 -0.6039  0.7575 -0.0804
  166MOL0     H22396   2.342   5.556   2.503 -2.0075  3.3528 -1.3982
  166MOL0     H22397   2.142   5.595   2.369  0.0354  1.1874  1.5493
  166MOL0     H22398   1.838   5.531   2.135 -0.3746  0.9145 -2.3926
  166MOL0     H22399   1.672   5.628   1.971 -0.2283  1.8801  0.4504
  166MOL0     H22400   1.485   5.786   1.931  1.0306  0.0215 -2.1675
  166MOL0     H22401   1.516   5.647   1.829  1.4681  0.5712  1.1841
  166MOL0     H22402   1.262   5.806   1.868 -2.4503 -1.1773 -1.5265
  166MOL0     H22403   1.263   5.667   1.759  2.4055 -0.5935 -1.0163
  166MOL0     H22404   1.423   5.925   1.731 -2.5214  0.7948 -0.3744
  166MOL0     H22405   1.279   5.877   1.638 -1.2339 -2.4510 -0.9546
  166MOL0     H22406   1.461   5.655   1.600  0.7855 -0.3322 -1.6674
  166MOL0     H22407   1.573   5.796   1.620  0.0900  0.2485  0.6962
  166MOL0     H22408   1.427   5.896   1.237  2.6434 -0.5408 -1.2500
  166MOL0     H22409   1.356   5.532   2.246  0.0908 -1.4896 -1.6894
  166MOL0     H22410   1.518   5.474   2.408  0.2846 -1.2413 -0.6462
  167MOL0     O22411   9.118   1.282   4.693  0.1367 -0.4992 -0.7704
  167MOL0     C22412   9.052   1.366   4.633 -0.7038 -0.7119 -0.2775
  167MOL0     O22413   9.113   1.474   4.568 -0.2814 -1.1437 -0.5614
  167MOL0     C22414   9.251   1.482   4.587 -1.1080  1.3753 -0.0214
  167MOL0     C22415   9.311   1.551   4.694 -0.3425 -0.7589  0.6022
  167MOL0     C22416   9.450   1.545   4.714  0.1487 -0.1850 -0.6718
  167MOL0     C22417   9.534   1.467   4.639 -0.2446 -0.7624  0.3311
  167MOL0     O22418   9.674   1.463   4.661  0.7332  0.1647  0.6712
  167MOL0     C22419   9.765   1.385   4.583  0.9175  0.2725  0.4425
  167MOL0     C22420   9.902   1.453   4.601 -0.1207 -0.8748 -0.5320
  167MOL0     C22421   9.938   1.450   4.746 -1.6358 -0.1268  0.1821
  167MOL0     C22422   9.898   1.574   4.824 -0.5153 -0.0995  0.1166
  167MOL0     C22423   9.919   1.558   4.978  0.4373  0.2093  1.6600
  167MOL0     C22424   9.869   1.679   5.055  0.4980  0.4155 -1.1886
  167MOL0     C22425   9.913   1.661   5.198 -0.8201  0.4435  0.6043
  167MOL0     C22426   9.820   1.738   5.301 -0.0407  0.0564 -0.6013
  167MOL0     N22427   9.871   1.884   5.317 -0.5420  0.2260 -0.1312
  167MOL0     C22428   9.811   1.987   5.260 -0.2575 -0.6595  1.3340
  167MOL0     C22429   9.876   2.106   5.295  0.8272  0.9548  0.3629
  167MOL0     C22430   9.834   2.253   5.287 -0.8092 -0.2295 -0.4888
  167MOL0     C22431   9.706   2.282   5.366 -0.0879 -0.0345 -0.4014
  167MOL0     C22432   9.714   2.242   5.515  0.2303 -0.2416 -0.0124
  167MOL0     C22433   9.583   2.285   5.582 -1.0982 -0.5203 -0.2301
  167MOL0     O22434   9.477   2.225   5.524  0.7578 -0.2073  0.4583
  167MOL0     C22435   9.442   2.094   5.554 -0.6550 -0.1553 -0.0785
  167MOL0     C22436   9.433   2.048   5.690 -0.4181  0.2392 -0.0429
  167MOL0     C22437   9.415   1.910   5.717  0.3169 -0.4049 -0.4561
  167MOL0     C22438   9.413   1.873   5.864 -0.0754  0.6090  0.9336
  167MOL0     C22439   9.404   1.827   5.615 -0.1867 -0.4768 -0.8407
  167MOL0     C22440   9.402   1.678   5.642 -0.7847 -0.2774  0.3383
  167MOL0     O22441   9.367   1.627   5.759  0.2715 -0.0837 -0.2540
  167MOL0     C22442   9.364   1.486   5.758 -0.1862 -0.2724  1.5881
  167MOL0     C22443   9.421   1.404   5.851  0.4639  0.0095 -0.1646
  167MOL0     C22444   9.407   1.263   5.861 -0.2166  1.1869  1.1334
  167MOL0     C22445   9.313   1.203   5.762  0.4647 -0.5233  0.3202
  167MOL0     O22446   9.283   1.068   5.762  0.6625  1.5723 -0.0320
  167MOL0     C22447   9.319   0.987   5.879  0.2884 -0.5049 -0.3189
  167MOL0     C22448   9.260   0.851   5.837 -0.0034 -0.2135  0.1568
  167MOL0     C22449   9.311   0.808   5.698  0.1397 -0.0974 -0.4660
  167MOL0     C22450   9.272   0.667   5.678  0.6814 -1.4341 -0.2755
  167MOL0     C22451   9.302   0.628   5.536  0.7245  0.3801 -0.2554
  167MOL0     C22452   9.436   0.654   5.477  1.0209 -0.7750  0.1235
  167MOL0     C22453   9.548   0.577   5.548 -0.2425  0.1590 -0.9977
  167MOL0     C22454   9.694   0.621   5.534  0.6559  0.3008  0.1667
  167MOL0    Cl22455   9.722   0.674   5.364  0.0101 -0.1329  0.2130
  167MOL0     C22456   9.231   1.284   5.683 -0.6299 -0.5266 -0.2539
  167MOL0     C22457   9.257   1.423   5.682 -0.8867 -0.0469  0.1366
  167MOL0     O22458   9.460   1.615   5.549  0.2093 -0.2370  0.1024
  167MOL0     C22459   9.398   1.868   5.475  0.2794 -0.9674 -1.0653
  167MOL0     C22460   9.420   2.005   5.450 -0.0087  0.3973 -0.1495
  167MOL0     N22461   9.986   2.065   5.359 -0.6304 -0.3681  0.3586
  167MOL0     N22462   9.983   1.935   5.383 -0.5545  0.1542  0.1909
  167MOL0     C22463   9.469   1.396   4.531  0.4099 -0.8065  0.1687
  167MOL0     C22464   9.331   1.404   4.506 -0.2787  0.2386  0.6840
  167MOL0     C22465   8.909   1.362   4.631  0.7842  0.4948 -0.2159
  167MOL0     C22466   8.834   1.475   4.581 -0.5129 -0.6013 -0.8316
  167MOL0     C22467   8.694   1.478   4.585 -0.1619  0.1752  0.5068
  167MOL0     C22468   8.623   1.374   4.651  0.3770  0.0671  0.4848
  167MOL0     O22469   8.483   1.396   4.649 -0.5143 -0.5266  0.3362
  167MOL0     C22470   8.396   1.295   4.718  0.3055  0.7989 -0.1090
  167MOL0     C22471   8.351   1.208   4.600 -0.7473 -0.1874 -0.3607
  167MOL0     C22472   8.265   1.082   4.650  0.0314 -0.2300  0.0096
  167MOL0     C22473   8.197   0.996   4.541  0.1349 -0.3489 -0.8612
  167MOL0     C22474   8.295   0.926   4.465 -0.4530 -0.0103 -0.0827
  167MOL0     C22475   8.390   0.876   4.407 -0.0079  0.1849 -0.6063
  167MOL0     C22476   8.698   1.269   4.724 -0.1869 -0.3110  0.4181
  167MOL0     C22477   8.837   1.258   4.705 -0.1601  1.0964 -0.4862
  167MOL0     H22478   9.255   1.624   4.751 -1.5525 -0.6335 -0.7034
  167MOL0     H22479   9.500   1.584   4.803 -1.0904 -0.6003  0.2369
  167MOL0     H22480   9.762   1.288   4.634  0.3686  0.6014  1.0636
  167MOL0     H22481   9.741   1.363   4.479  0.3769 -0.4119  0.7084
  167MOL0     H22482   9.975   1.400   4.539  0.6012 -1.9272  1.1307
  167MOL0     H22483   9.915   1.556   4.568  1.5707 -0.0372  2.3875
  167MOL0     H22484   9.904   1.361   4.801  2.7783 -0.7284  2.3110
  167MOL0     H22485  10.047   1.443   4.742 -1.4514  0.5583  2.4725
  167MOL0     H22486   9.970   1.647   4.786  0.2889  0.1795  2.0450
  167MOL0     H22487   9.797   1.608   4.798  0.3186  0.4931 -2.7395
  167MOL0     H22488   9.857   1.472   5.006 -1.1139  0.6187 -0.3427
  167MOL0     H22489  10.026   1.545   4.999  0.6280  3.7067  3.5343
  167MOL0     H22490   9.904   1.772   5.008  3.8197 -0.7088 -1.1919
  167MOL0     H22491   9.760   1.686   5.053  0.3172  0.6669  2.8860
  167MOL0     H22492   9.919   1.557   5.230 -1.8999  0.2743  0.2967
  167MOL0     H22493  10.018   1.691   5.212 -0.3997 -1.5214  2.1175
  167MOL0     H22494   9.847   1.689   5.395 -1.9021 -1.0277 -0.5644
  167MOL0     H22495   9.713   1.721   5.286 -0.3521 -0.3118  1.6151
  167MOL0     H22496   9.722   1.973   5.199 -1.1198 -0.4781  2.5065
  167MOL0     H22497   9.915   2.309   5.334 -0.4899 -1.6409  0.7024
  167MOL0     H22498   9.833   2.287   5.183 -2.1649  0.0813 -0.3993
  167MOL0     H22499   9.624   2.241   5.306  2.5118 -0.7738 -3.7588
  167MOL0     H22500   9.705   2.391   5.363  0.6961  0.0948  1.9273
  167MOL0     H22501   9.795   2.293   5.567 -0.9367  0.0660  1.5596
  167MOL0     H22502   9.721   2.134   5.531 -5.1972 -1.5219 -3.3561
  167MOL0     H22503   9.568   2.394   5.582  3.1419  0.2361 -1.8162
  167MOL0     H22504   9.578   2.257   5.687 -0.8731 -2.1407 -0.6360
  167MOL0     H22505   9.447   2.118   5.772  2.7339  0.3360 -0.5403
  167MOL0     H22506   9.425   1.965   5.922 -0.1999  3.6662 -3.4514
  167MOL0     H22507   9.324   1.821   5.900  2.0817 -2.2272  2.6857
  167MOL0     H22508   9.494   1.812   5.907 -1.4436 -1.4408  0.7218
  167MOL0     H22509   9.481   1.462   5.920  0.1749 -0.4870  0.5170
  167MOL0     H22510   9.450   1.192   5.931 -0.7347 -2.2983 -1.7434
  167MOL0     H22511   9.428   0.988   5.889  0.8722  1.3039 -4.5439
  167MOL0     H22512   9.269   1.030   5.967 -1.2613 -2.6002 -0.0874
  167MOL0     H22513   9.283   0.770   5.906 -1.7317 -3.6765 -2.9677
  167MOL0     H22514   9.151   0.863   5.837  0.1728  1.9155  0.0068
  167MOL0     H22515   9.419   0.816   5.685 -0.0197  1.5422 -1.0214
  167MOL0     H22516   9.262   0.867   5.619 -0.4277  0.7372  0.4784
  167MOL0     H22517   9.328   0.599   5.743 -1.2105 -0.9938  1.9372
  167MOL0     H22518   9.166   0.664   5.704  0.6865  0.9015  0.2829
  167MOL0     H22519   9.227   0.687   5.482 -0.4006  0.4864  1.3558
  167MOL0     H22520   9.280   0.521   5.534  1.5869 -0.1767  5.0398
  167MOL0     H22521   9.436   0.631   5.370  1.1116 -0.1263 -0.0199
  167MOL0     H22522   9.466   0.759   5.475 -0.3173 -0.3736  0.1901
  167MOL0     H22523   9.536   0.472   5.520 -2.8433 -0.2076  1.0643
  167MOL0     H22524   9.536   0.573   5.657 -0.9929 -2.6976 -1.1083
  167MOL0     H22525   9.752   0.530   5.551  4.1489  2.4490  0.8105
  167MOL0     H22526   9.746   0.683   5.607  1.1027 -0.5704  0.6120
  167MOL0     H22527   9.146   1.244   5.629 -1.2403 -1.8457  1.5996
  167MOL0     H22528   9.184   1.475   5.622 -3.3381 -0.5309  2.4783
  167MOL0     H22529   9.386   1.794   5.397  0.8816 -3.0545  0.6877
  167MOL0     H22530   9.410   2.038   5.347  1.6027 -1.1143 -0.8479
  167MOL0     H22531   9.520   1.335   4.457 -1.7119 -1.0220 -1.2069
  167MOL0     H22532   9.298   1.339   4.426 -1.1631 -0.7428  1.8003
  167MOL0     H22533   8.893   1.562   4.556  2.5346 -2.1591  0.4232
  167MOL0     H22534   8.639   1.564   4.550 -0.2308  0.3238  0.9626
  167MOL0     H22535   8.454   1.236   4.789  0.6774  0.3676 -0.7524
  167MOL0     H22536   8.306   1.344   4.755  0.4997 -0.2345  1.8692
  167MOL0     H22537   8.441   1.175   4.548 -0.1839 -1.7686  1.4865
  167MOL0     H22538   8.283   1.259   4.531 -0.0269  0.3507 -0.6832
  167MOL0     H22539   8.184   1.125   4.710 -0.8081 -0.1011 -1.1667
  167MOL0     H22540   8.330   1.016   4.707 -0.2791 -0.2729  0.3163
  167MOL0     H22541   8.155   1.072   4.474  1.2779  1.4677  0.3857
  167MOL0     H22542   8.110   0.938   4.575  1.3415 -2.0266 -0.4807
  167MOL0     H22543   8.459   0.841   4.332 -1.8873 -0.0678 -2.3060
  167MOL0     H22544   8.660   1.191   4.789 -1.5916 -0.1358 -0.1633
  167MOL0     H22545   8.896   1.182   4.755  0.2875  1.9261  0.2798
  168MOL0     O22546   1.816   3.595   7.589  0.6924 -0.5705  0.3284
  168MOL0     C22547   1.862   3.552   7.693 -0.0890  0.4769 -0.3097
  168MOL0     O22548   2.006   3.530   7.713  0.2799  0.1823  0.0771
  168MOL0     C22549   2.086   3.518   7.607 -0.3117 -0.1380  0.5651
  168MOL0     C22550   2.206   3.578   7.609 -0.7546  0.0155 -0.0240
  168MOL0     C22551   2.301   3.564   7.502 -1.0354  0.3060  0.1166
  168MOL0     C22552   2.285   3.470   7.405 -0.1705 -0.1773  0.0876
  168MOL0     O22553   2.379   3.427   7.316  0.3712 -0.2040 -0.2057
  168MOL0     C22554   2.361   3.425   7.174 -0.0795 -0.7063  0.9854
  168MOL0     C22555   2.492   3.448   7.094  0.1075  0.4840 -0.1742
  168MOL0     C22556   2.588   3.327   7.105 -0.2654 -0.6527  0.4432
  168MOL0     C22557   2.671   3.305   6.977 -0.6759  0.1986 -0.2918
  168MOL0     C22558   2.809   3.234   7.014  1.4933  0.5402  0.4682
  168MOL0     C22559   2.787   3.096   7.074  0.5066  0.2679 -0.7811
  168MOL0     C22560   2.915   3.007   7.047 -0.1420 -0.5422 -0.5121
  168MOL0     C22561   2.907   2.875   7.128 -0.0042  0.4214 -0.3688
  168MOL0     N22562   2.846   2.764   7.053  0.5917 -1.0719  0.1358
  168MOL0     C22563   2.714   2.765   6.999 -0.3051 -0.5183  0.4771
  168MOL0     C22564   2.712   2.647   6.935  0.2574 -0.0244 -0.0114
  168MOL0     C22565   2.591   2.593   6.847  0.5988  0.1694 -0.7598
  168MOL0     C22566   2.609   2.654   6.705 -0.2645  0.2321  0.4836
  168MOL0     C22567   2.495   2.599   6.601 -0.0869 -0.2348 -0.3095
  168MOL0     C22568   2.454   2.700   6.490  0.2528  0.1624  0.2237
  168MOL0     O22569   2.559   2.700   6.392 -0.1926 -0.4458  0.4475
  168MOL0     C22570   2.515   2.726   6.262 -1.1586  0.2401  0.5394
  168MOL0     C22571   2.442   2.835   6.216  0.1450  1.9074 -0.0466
  168MOL0     C22572   2.395   2.850   6.082 -0.5551 -0.0140  0.3231
  168MOL0     C22573   2.320   2.974   6.051  0.3776  0.1249  1.0590
  168MOL0     C22574   2.421   2.747   5.992 -0.3447  0.1884 -0.6673
  168MOL0     C22575   2.373   2.752   5.851 -0.2252  1.5694 -0.5218
  168MOL0     O22576   2.358   2.869   5.795 -0.3142  0.3333 -0.0678
  168MOL0     C22577   2.271   2.886   5.693 -0.4172  0.3469 -0.8599
  168MOL0     C22578   2.132   2.894   5.716  1.3002 -0.2962  0.7440
  168MOL0     C22579   2.038   2.905   5.607  0.3461 -0.1864 -0.4526
  168MOL0     C22580   2.098   2.900   5.482  0.0722 -0.1220 -0.1387
  168MOL0     O22581   2.009   2.900   5.377 -0.1255 -0.2267  0.0899
  168MOL0     C22582   2.067   2.897   5.247  0.8140  0.4718  0.6474
  168MOL0     C22583   1.956   2.905   5.143 -0.0829 -1.0995  0.0055
  168MOL0     C22584   2.006   2.888   4.994 -0.7623 -0.0015  0.1129
  168MOL0     C22585   2.074   2.743   4.968 -0.0989  0.3549 -0.5138
  168MOL0     C22586   2.068   2.716   4.811  0.9210 -0.0032 -0.1865
  168MOL0     C22587   2.129   2.575   4.771  0.1718  0.1600 -0.5605
  168MOL0     C22588   2.042   2.452   4.825  0.8177 -0.1205  0.8694
  168MOL0     C22589   1.919   2.430   4.733  0.1712  0.5940  0.8543
  168MOL0    Cl22590   1.974   2.390   4.570  0.1375 -0.3276 -0.0298
  168MOL0     C22591   2.238   2.903   5.462 -1.1819 -0.0169 -0.4703
  168MOL0     C22592   2.327   2.894   5.569 -1.6510  0.2827 -0.3374
  168MOL0     O22593   2.346   2.640   5.795  0.4247  0.1763 -0.3368
  168MOL0     C22594   2.522   2.655   6.029  0.6318 -0.5076 -0.3912
  168MOL0     C22595   2.575   2.651   6.159  0.9480 -0.9374  0.0649
  168MOL0     N22596   2.824   2.572   6.965  0.1078  0.4441  0.3161
  168MOL0     N22597   2.904   2.649   7.024  0.4537 -0.1099 -0.0928
  168MOL0     C22598   2.146   3.427   7.394 -1.2426  0.8291  1.0133
  168MOL0     C22599   2.051   3.453   7.495  0.2856  0.7650 -0.2178
  168MOL0     C22600   1.772   3.514   7.795 -0.2032  0.4691 -0.7505
  168MOL0     C22601   1.629   3.480   7.777 -1.1333  0.1886  0.6408
  168MOL0     C22602   1.555   3.438   7.876  0.1227  0.3746  0.2536
  168MOL0     C22603   1.607   3.431   8.009 -0.8325  0.6804 -0.7718
  168MOL0     O22604   1.528   3.387   8.113  0.5360  0.2827 -0.0688
  168MOL0     C22605   1.404   3.450   8.124 -0.2737  0.1338 -0.0927
  168MOL0     C22606   1.326   3.390   8.236 -0.4878  0.7585  0.3970
  168MOL0     C22607   1.350   3.438   8.379  0.2323  0.3569  0.1386
  168MOL0     C22608   1.470   3.365   8.441 -0.1040 -0.4356  0.4290
  168MOL0     C22609   1.490   3.402   8.577 -0.5825 -0.0394  0.5008
  168MOL0     C22610   1.519   3.447   8.688 -0.0087  0.4327 -0.9607
  168MOL0     C22611   1.743   3.457   8.030  0.4987 -0.9673 -0.2914
  168MOL0     C22612   1.816   3.503   7.924 -0.7825 -0.8939  0.5194
  168MOL0     H22613   2.251   3.626   7.695 -1.5460  0.4914  0.1348
  168MOL0     H22614   2.406   3.590   7.512 -0.3885 -0.7706 -2.8085
  168MOL0     H22615   2.330   3.322   7.155 -0.1341 -0.8358  1.7194
  168MOL0     H22616   2.287   3.497   7.139  0.3023 -1.2244 -0.9716
  168MOL0     H22617   2.460   3.464   6.990 -0.6493 -1.6819 -0.3292
  168MOL0     H22618   2.551   3.531   7.134  1.5200 -1.2059  1.4302
  168MOL0     H22619   2.660   3.352   7.183 -1.8676  1.9108  1.2085
  168MOL0     H22620   2.524   3.239   7.116 -1.2956 -0.0783 -0.6767
  168MOL0     H22621   2.619   3.237   6.909  2.9014 -2.7370 -0.3912
  168MOL0     H22622   2.683   3.398   6.920  0.5976 -0.7037 -1.5825
  168MOL0     H22623   2.865   3.231   6.920  3.5417 -1.8555  1.6325
  168MOL0     H22624   2.875   3.296   7.076  0.4049  1.2252  0.9564
  168MOL0     H22625   2.746   3.105   7.175 -0.6505  0.6425 -1.2624
  168MOL0     H22626   2.705   3.052   7.016  1.5007 -2.1281 -0.4707
  168MOL0     H22627   2.917   2.984   6.940 -2.0755  0.5199 -0.8167
  168MOL0     H22628   3.001   3.065   7.083  0.6898 -2.6233  1.0692
  168MOL0     H22629   2.857   2.896   7.223  0.4629  0.1708 -0.0623
  168MOL0     H22630   3.010   2.848   7.155 -0.4838 -1.2945 -0.1927
  168MOL0     H22631   2.640   2.844   7.005  1.9114  1.6445  0.9747
  168MOL0     H22632   2.587   2.485   6.833  2.3391 -0.3102  1.7727
  168MOL0     H22633   2.499   2.635   6.889 -0.5101 -0.4844 -2.4692
  168MOL0     H22634   2.705   2.630   6.657  0.0965  0.4153  1.1039
  168MOL0     H22635   2.613   2.763   6.712 -0.2488  0.4954 -2.2638
  168MOL0     H22636   2.404   2.594   6.662 -0.4789  1.2454 -0.7389
  168MOL0     H22637   2.533   2.505   6.560  1.7274  0.5174 -0.4193
  168MOL0     H22638   2.438   2.797   6.539  1.9154 -0.2551  1.7259
  168MOL0     H22639   2.367   2.670   6.433  0.8006 -1.8022  0.3630
  168MOL0     H22640   2.426   2.912   6.291  0.5815  2.0664 -0.1122
  168MOL0     H22641   2.224   2.945   6.006  1.7077 -1.3047 -1.0320
  168MOL0     H22642   2.298   3.035   6.139  3.3114  0.1711  1.8409
  168MOL0     H22643   2.378   3.030   5.977  0.8720 -1.8774 -0.1715
  168MOL0     H22644   2.103   2.867   5.817  1.1220 -1.6534  0.3453
  168MOL0     H22645   1.930   2.908   5.615  0.1935 -2.7630 -0.9037
  168MOL0     H22646   2.131   2.983   5.223  0.2090  0.9658  0.7747
  168MOL0     H22647   2.119   2.802   5.233  0.1645  0.4514 -2.4123
  168MOL0     H22648   1.886   2.827   5.176  0.9986 -1.5522  1.3342
  168MOL0     H22649   1.901   2.999   5.145 -0.2615 -1.2099  0.7028
  168MOL0     H22650   2.082   2.963   4.971 -0.9047 -0.2516 -1.2343
  168MOL0     H22651   1.923   2.908   4.926  0.4025 -1.0399 -1.7013
  168MOL0     H22652   2.177   2.728   5.001  0.4746  1.1994 -1.8504
  168MOL0     H22653   2.008   2.673   5.020  2.0250 -1.8232 -0.5726
  168MOL0     H22654   2.126   2.792   4.759 -0.1746 -0.1218 -1.6407
  168MOL0     H22655   1.965   2.717   4.774  1.2901 -0.3286 -1.2635
  168MOL0     H22656   2.133   2.573   4.662 -3.1410  2.3403 -0.8757
  168MOL0     H22657   2.223   2.572   4.826 -1.6445  0.3385  2.8206
  168MOL0     H22658   2.015   2.464   4.930  2.2475 -0.5551  1.3055
  168MOL0     H22659   2.101   2.360   4.821  1.3251  0.1607 -3.7926
  168MOL0     H22660   1.845   2.510   4.740  1.3647  2.0190 -1.5493
  168MOL0     H22661   1.869   2.340   4.771  0.3718 -0.0529 -0.3589
  168MOL0     H22662   2.283   2.917   5.364  1.3517  1.0082  0.7498
  168MOL0     H22663   2.434   2.885   5.553 -1.4284 -1.0609  1.5379
  168MOL0     H22664   2.562   2.598   5.945 -1.8064  0.8164 -2.5688
  168MOL0     H22665   2.657   2.584   6.184  1.8047  0.5847  1.5821
  168MOL0     H22666   2.105   3.380   7.305 -0.9247  1.9205  0.2715
  168MOL0     H22667   1.954   3.404   7.496  0.0379  1.1182  2.9316
  168MOL0     H22668   1.582   3.475   7.679  1.1868  2.3870 -0.7070
  168MOL0     H22669   1.459   3.397   7.848  1.1853 -2.4448  0.4206
  168MOL0     H22670   1.417   3.557   8.148 -3.4980  0.2979  1.4656
  168MOL0     H22671   1.334   3.448   8.040  0.0747 -0.4308 -0.3760
  168MOL0     H22672   1.353   3.284   8.238  3.3902  1.5830  0.5632
  168MOL0     H22673   1.223   3.412   8.208 -0.1507  3.1511  0.8095
  168MOL0     H22674   1.261   3.410   8.435  0.1785  1.4403  0.6242
  168MOL0     H22675   1.357   3.547   8.384  1.2297  0.2727  0.8922
  168MOL0     H22676   1.560   3.382   8.381  0.5893 -0.0431  1.5452
  168MOL0     H22677   1.460   3.257   8.433  0.6625 -0.3771 -2.6507
  168MOL0     H22678   1.532   3.490   8.785 -1.7937  0.8021 -0.8460
  168MOL0     H22679   1.788   3.447   8.128  2.8839  1.5199 -1.0235
  168MOL0     H22680   1.917   3.536   7.948 -1.0180  0.1772  0.0877
  169MOL0     O22681   6.617   5.319   1.398 -0.1665 -0.0199 -0.1320
  169MOL0     C22682   6.694   5.366   1.478  0.8887 -0.1365  0.0446
  169MOL0     O22683   6.773   5.294   1.561  0.6341  0.0291  0.2463
  169MOL0     C22684   6.762   5.153   1.553 -0.3247  0.0421 -0.1932
  169MOL0     C22685   6.690   5.084   1.650  0.3024  0.4758 -1.8615
  169MOL0     C22686   6.658   4.942   1.637  0.2908  0.1835  0.1648
  169MOL0     C22687   6.710   4.877   1.515  0.8495  0.8636 -0.0813
  169MOL0     O22688   6.682   4.742   1.486  0.5568  0.4923 -0.6620
  169MOL0     C22689   6.563   4.676   1.542 -0.0019  0.6584 -0.3436
  169MOL0     C22690   6.540   4.536   1.485 -0.2660  1.0838  0.6817
  169MOL0     C22691   6.529   4.526   1.335  0.7677 -0.3971 -0.0817
  169MOL0     C22692   6.466   4.392   1.302 -0.4209 -0.1358 -0.3297
  169MOL0     C22693   6.444   4.355   1.152  0.1995  0.0109  0.0308
  169MOL0     C22694   6.349   4.456   1.093 -0.0870 -0.8381  0.0798
  169MOL0     C22695   6.270   4.400   0.974 -0.9565  0.4358  0.3692
  169MOL0     C22696   6.193   4.268   0.996  0.6526  0.5854  0.3423
  169MOL0     N22697   6.116   4.242   0.876  0.0928  0.4608 -0.3140
  169MOL0     C22698   6.159   4.176   0.770  0.2554  0.0644  1.2190
  169MOL0     C22699   6.054   4.162   0.688  0.6569 -0.0543  0.7390
  169MOL0     C22700   6.033   4.120   0.550  0.2242 -0.6355  1.2932
  169MOL0     C22701   5.986   3.983   0.527  0.2308 -0.0990 -0.2966
  169MOL0     C22702   5.944   3.951   0.386  0.0706  0.3655 -1.1873
  169MOL0     C22703   5.875   3.822   0.348  0.0685  0.6946 -0.0756
  169MOL0     O22704   5.904   3.802   0.208  0.4763 -0.3261  0.2588
  169MOL0     C22705   5.960   3.686   0.169  0.3441 -0.6476  0.9023
  169MOL0     C22706   6.104   3.664   0.179  0.8741 -0.7289  0.1555
  169MOL0     C22707   6.170   3.552   0.129 -0.5090 -0.2032 -1.3592
  169MOL0     C22708   6.311   3.535   0.183 -0.2208 -0.0070  0.5173
  169MOL0     C22709   6.091   3.456   0.059 -0.1089  0.3798  0.5013
  169MOL0     C22710   6.155   3.335   0.004  0.0853  0.6801 -0.6099
  169MOL0     O22711   6.282   3.296   0.057  0.2746  0.3203  0.6007
  169MOL0     C22712   6.350   3.194   0.004 -0.5732 -0.6185 -0.0716
  169MOL0     C22713   6.488   3.220  -0.031  0.1135 -0.0479 -0.6790
  169MOL0     C22714   6.566   3.131  -0.108  0.0633  0.2358 -0.9873
  169MOL0     C22715   6.495   3.010  -0.144  0.0877  0.0931 -0.3414
  169MOL0     O22716   6.563   2.919  -0.230  0.7722  0.2614 -0.2969
  169MOL0     C22717   6.661   2.969  -0.317 -0.2310 -0.7685  0.3576
  169MOL0     C22718   6.689   2.882  -0.439  0.3696  0.3946 -0.6537
  169MOL0     C22719   6.823   2.893  -0.491  1.0571 -1.2409  0.7577
  169MOL0     C22720   6.937   2.883  -0.397 -0.5049 -1.1298 -0.4582
  169MOL0     C22721   7.063   2.848  -0.472 -0.2537 -1.1971  0.2406
  169MOL0     C22722   7.183   2.839  -0.381  1.0989  0.6285 -0.5023
  169MOL0     C22723   7.319   2.816  -0.436  0.5774 -0.1268  0.4829
  169MOL0     C22724   7.354   2.922  -0.549  0.2552 -0.1427  0.8093
  169MOL0    Cl22725   7.333   3.100  -0.507 -0.1332  0.6019  0.1438
  169MOL0     C22726   6.363   2.984  -0.097  0.7911 -0.1646 -0.9606
  169MOL0     C22727   6.287   3.080  -0.032 -0.0587  0.8469 -0.3160
  169MOL0     O22728   6.102   3.282  -0.089  0.0515  0.6214  0.8551
  169MOL0     C22729   5.959   3.487   0.033 -0.0402  0.0176 -0.3160
  169MOL0     C22730   5.889   3.590   0.091 -0.4860 -0.1155  0.3897
  169MOL0     N22731   5.943   4.204   0.764 -0.8799 -0.7881  0.6671
  169MOL0     N22732   5.981   4.255   0.872 -0.2284 -0.6004 -0.1797
  169MOL0     C22733   6.781   4.948   1.424 -0.9663 -0.4736  0.2045
  169MOL0     C22734   6.809   5.080   1.445  0.1560 -0.1205  0.6026
  169MOL0     C22735   6.707   5.511   1.475  0.2235  0.4041  0.6814
  169MOL0     C22736   6.588   5.586   1.454  0.8668 -0.1222  0.8620
  169MOL0     C22737   6.599   5.730   1.453  0.4266  0.8070  0.1725
  169MOL0     C22738   6.722   5.791   1.463 -0.1507  0.5730 -0.6917
  169MOL0     O22739   6.704   5.919   1.468 -0.0917 -0.2453 -0.0998
  169MOL0     C22740   6.824   6.001   1.439  0.3324  0.2370  0.0812
  169MOL0     C22741   6.830   6.147   1.502 -0.0899 -0.9340 -1.2257
  169MOL0     C22742   6.830   6.163   1.660 -0.2971 -0.0219  0.0990
  169MOL0     C22743   6.918   6.052   1.727  0.4873 -0.1473  0.9093
  169MOL0     C22744   7.048   6.031   1.669  0.0171  0.0999 -0.9659
  169MOL0     C22745   7.159   6.023   1.622  0.2661 -0.9648  0.4528
  169MOL0     C22746   6.847   5.714   1.476  0.0940  0.8794  0.5516
  169MOL0     C22747   6.834   5.576   1.471  0.2523 -0.2837 -0.9321
  169MOL0     H22748   6.660   5.141   1.738 -1.2968 -0.0008 -2.0621
  169MOL0     H22749   6.608   4.895   1.720  1.7390 -0.5310  0.6614
  169MOL0     H22750   6.580   4.664   1.649  3.2702  0.0529 -0.8056
  169MOL0     H22751   6.481   4.746   1.526  1.7365  3.1828  1.1513
  169MOL0     H22752   6.607   4.458   1.523 -0.7446  0.5766  0.5114
  169MOL0     H22753   6.445   4.509   1.531  0.0545  2.1893  2.0358
  169MOL0     H22754   6.462   4.603   1.293  1.4240  0.8443  1.0731
  169MOL0     H22755   6.629   4.533   1.290  0.8165 -0.0942  0.0687
  169MOL0     H22756   6.517   4.303   1.341  0.1524 -0.4662 -1.7815
  169MOL0     H22757   6.368   4.381   1.349  0.1278  0.8019  1.1139
  169MOL0     H22758   6.536   4.376   1.096  0.0367  5.4278  1.1924
  169MOL0     H22759   6.411   4.251   1.146 -1.3126  0.2798  2.4602
  169MOL0     H22760   6.285   4.501   1.169  0.5455  0.4726 -0.1453
  169MOL0     H22761   6.410   4.541   1.063  0.3718 -1.3442 -0.4547
  169MOL0     H22762   6.206   4.484   0.945 -2.2930 -0.3807  0.8578
  169MOL0     H22763   6.342   4.381   0.894 -0.6982 -1.8267  1.0843
  169MOL0     H22764   6.132   4.281   1.086  3.1284 -0.7657  2.3396
  169MOL0     H22765   6.247   4.173   0.997 -0.0322  0.0026 -3.0944
  169MOL0     H22766   6.258   4.145   0.735 -0.5806 -1.6646  0.2409
  169MOL0     H22767   5.960   4.191   0.510  0.6629  0.0282  1.6586
  169MOL0     H22768   6.116   4.133   0.480 -2.4885 -0.9250 -2.2819
  169MOL0     H22769   5.901   3.965   0.593 -0.5595 -0.1840 -1.3055
  169MOL0     H22770   6.070   3.924   0.564 -0.0574  0.2351  0.9384
  169MOL0     H22771   6.033   3.948   0.323  0.1886 -1.3893 -0.9842
  169MOL0     H22772   5.862   4.019   0.361 -1.4819 -1.6965 -2.0424
  169MOL0     H22773   5.767   3.805   0.356 -0.1431  1.5949 -0.8194
  169MOL0     H22774   5.924   3.747   0.411  0.9795 -0.4141 -1.9946
  169MOL0     H22775   6.158   3.738   0.237  1.2437  1.3479 -2.6556
  169MOL0     H22776   6.371   3.527   0.092  2.5854  0.7017  2.2016
  169MOL0     H22777   6.355   3.622   0.232  0.8561 -2.0565  3.4415
  169MOL0     H22778   6.326   3.451   0.251 -1.1912  0.3158  1.1542
  169MOL0     H22779   6.532   3.313   0.001 -2.1635  0.8842 -0.1116
  169MOL0     H22780   6.662   3.162  -0.147  0.4487  1.8165  1.0696
  169MOL0     H22781   6.641   3.069  -0.357  2.4097  0.0610  0.9157
  169MOL0     H22782   6.751   2.985  -0.257  0.0752  2.6115 -0.7571
  169MOL0     H22783   6.675   2.779  -0.405 -0.4461  1.1350  1.4721
  169MOL0     H22784   6.617   2.914  -0.515  0.9548  1.1733 -0.8999
  169MOL0     H22785   6.842   2.980  -0.555  2.7070 -3.2169 -1.6817
  169MOL0     H22786   6.831   2.814  -0.567  2.8845 -1.6665  1.3529
  169MOL0     H22787   6.953   2.981  -0.353  1.4337 -1.2583 -0.8250
  169MOL0     H22788   6.921   2.799  -0.328  2.8226 -1.3382  0.2154
  169MOL0     H22789   7.073   2.917  -0.556 -1.7507 -0.4615  0.6311
  169MOL0     H22790   7.036   2.755  -0.523 -0.6784 -0.5405 -0.7686
  169MOL0     H22791   7.180   2.919  -0.306 -0.5984 -2.0967  2.5638
  169MOL0     H22792   7.166   2.754  -0.315 -1.9603  1.1064 -0.5638
  169MOL0     H22793   7.330   2.719  -0.486  2.7940  1.9005 -3.4017
  169MOL0     H22794   7.396   2.806  -0.359 -0.9222 -0.8755  1.9694
  169MOL0     H22795   7.283   2.907  -0.631  3.0379  3.0615 -2.5414
  169MOL0     H22796   7.458   2.913  -0.583 -0.6083  2.8883 -3.5170
  169MOL0     H22797   6.295   2.903  -0.123 -0.8277  0.3908  1.1843
  169MOL0     H22798   6.180   3.067  -0.019  0.0348  0.5010  0.1521
  169MOL0     H22799   5.919   3.426  -0.048  0.5309  0.1674 -0.7135
  169MOL0     H22800   5.788   3.600   0.055 -0.0560  0.8826 -0.6137
  169MOL0     H22801   6.809   4.895   1.334 -1.3352  0.7228 -0.6352
  169MOL0     H22802   6.866   5.125   1.365 -0.4704 -0.4729 -0.0529
  169MOL0     H22803   6.502   5.534   1.414  0.8892  0.5347 -0.0670
  169MOL0     H22804   6.509   5.790   1.443 -0.6374 -0.7527 -0.0887
  169MOL0     H22805   6.920   5.956   1.467  1.2763  1.5672 -0.8947
  169MOL0     H22806   6.822   6.004   1.330 -1.2727 -0.2358  0.0681
  169MOL0     H22807   6.738   6.198   1.473 -3.5043 -4.8678  1.5957
  169MOL0     H22808   6.904   6.217   1.460  0.3279 -1.7241 -1.8338
  169MOL0     H22809   6.729   6.154   1.700 -0.9413 -1.9299 -1.7420
  169MOL0     H22810   6.860   6.263   1.692 -1.5076 -0.2540  2.1484
  169MOL0     H22811   6.869   5.954   1.716  0.5629 -0.2061  1.0903
  169MOL0     H22812   6.928   6.070   1.834 -0.0736 -1.7478  1.2589
  169MOL0     H22813   7.262   6.021   1.593  0.2194  2.1120 -0.2345
  169MOL0     H22814   6.948   5.751   1.488 -0.2043  1.7075  0.5759
  169MOL0     H22815   6.918   5.508   1.480 -0.6663 -1.2335  1.0246
  170MOL0     O22816  11.187   6.897   3.532  0.3868  0.4770 -0.0588
  170MOL0     C22817  11.292   6.861   3.589  0.0798  0.5849  0.0735
  170MOL0     O22818  11.417   6.878   3.541 -0.4134 -0.7414 -0.6526
  170MOL0     C22819  11.435   6.959   3.437  0.1258 -0.5149  0.4410
  170MOL0     C22820  11.503   6.912   3.330  0.3937  0.0918 -0.2779
  170MOL0     C22821  11.527   6.991   3.220 -0.3173  0.7551 -0.4632
  170MOL0     C22822  11.467   7.116   3.223 -0.4059 -0.8192 -0.0738
  170MOL0     O22823  11.492   7.178   3.103  0.2164 -0.1285  0.3352
  170MOL0     C22824  11.444   7.314   3.086 -0.6098  0.4094  0.6790
  170MOL0     C22825  11.536   7.371   2.976 -0.0364 -0.0753  0.3710
  170MOL0     C22826  11.500   7.518   2.945 -0.6785 -0.0493  0.9534
  170MOL0     C22827  11.591   7.566   2.834 -0.2657  0.6787 -0.6642
  170MOL0     C22828  11.547   7.706   2.794  0.1626 -0.1778 -0.3564
  170MOL0     C22829  11.521   7.715   2.645  0.2734 -0.1028  0.1220
  170MOL0     C22830  11.647   7.689   2.558 -0.6431  0.5818 -0.7883
  170MOL0     C22831  11.777   7.774   2.599  0.5197  0.3280 -0.2296
  170MOL0     N22832  11.737   7.911   2.586 -0.1992 -0.2948  0.8190
  170MOL0     C22833  11.781   8.011   2.675  0.6660 -0.1770 -0.2287
  170MOL0     C22834  11.812   8.122   2.608 -0.1537 -1.8453 -0.3451
  170MOL0     C22835  11.870   8.242   2.664  0.0488  0.0890 -0.2807
  170MOL0     C22836  11.779   8.308   2.765 -0.3881  0.2560  0.0648
  170MOL0     C22837  11.850   8.357   2.883  0.0412  0.6128 -0.0001
  170MOL0     C22838  11.888   8.255   2.981 -0.5402  1.0203 -1.2299
  170MOL0     O22839  11.782   8.165   3.007  0.5987  0.0137 -0.0442
  170MOL0     C22840  11.791   8.080   3.117  0.6968 -0.1124 -0.5022
  170MOL0     C22841  11.715   7.968   3.127  0.8918 -0.1078  0.1220
  170MOL0     C22842  11.718   7.880   3.233  0.1440  0.2837  0.7775
  170MOL0     C22843  11.634   7.758   3.216  1.3726 -0.2268  0.1613
  170MOL0     C22844  11.815   7.893   3.344 -0.4955  0.3733  0.1945
  170MOL0     C22845  11.820   7.805   3.471  0.4729 -0.3355  0.3672
  170MOL0     O22846  11.705   7.740   3.513  0.0029  0.4991  0.5150
  170MOL0     C22847  11.715   7.663   3.627  0.4774  0.4952 -0.5645
  170MOL0     C22848  11.816   7.574   3.650 -0.6573 -0.7898  0.0115
  170MOL0     C22849  11.806   7.484   3.756  0.4480  0.7739  0.2141
  170MOL0     C22850  11.696   7.486   3.841  0.0870  0.9018 -0.8643
  170MOL0     O22851  11.691   7.395   3.949 -0.0888  0.5903 -0.6760
  170MOL0     C22852  11.749   7.420   4.082  1.0322 -0.1746 -0.9179
  170MOL0     C22853  11.648   7.361   4.185 -0.3933 -0.4124 -0.9313
  170MOL0     C22854  11.505   7.424   4.174 -0.2031  0.3366 -0.9671
  170MOL0     C22855  11.431   7.373   4.301  0.7982 -0.8368  0.3424
  170MOL0     C22856  11.287   7.417   4.277 -0.7970 -0.3263 -0.1041
  170MOL0     C22857  11.208   7.402   4.407 -0.1811 -0.5243  0.3083
  170MOL0     C22858  11.179   7.251   4.439  0.3388 -0.1043 -0.4925
  170MOL0     C22859  11.040   7.236   4.508 -0.4894 -1.0718  0.2571
  170MOL0    Cl22860  11.040   7.343   4.650 -0.2573  0.1814 -0.6773
  170MOL0     C22861  11.611   7.590   3.834 -0.1309  0.1462 -0.3570
  170MOL0     C22862  11.617   7.682   3.728  0.5190  0.5597  0.0572
  170MOL0     O22863  11.920   7.812   3.534  0.4381  0.0280 -0.0075
  170MOL0     C22864  11.918   7.993   3.315  1.2582  0.2873  0.0674
  170MOL0     C22865  11.896   8.090   3.209  0.0711  0.2955 -0.7013
  170MOL0     N22866  11.784   8.084   2.477 -0.2901  0.2077 -0.3756
  170MOL0     N22867  11.744   7.971   2.465  0.0060  0.5374  0.5309
  170MOL0     C22868  11.392   7.171   3.322 -0.5900 -0.1755 -0.0697
  170MOL0     C22869  11.379   7.089   3.433 -0.0663 -0.7464 -0.3362
  170MOL0     C22870  11.281   6.766   3.706  0.0271 -1.0285 -0.3366
  170MOL0     C22871  11.157   6.705   3.739  0.2940 -0.0080  0.2407
  170MOL0     C22872  11.144   6.611   3.840  0.2430  0.3773  0.4251
  170MOL0     C22873  11.262   6.568   3.909  0.4705  0.0358 -0.3634
  170MOL0     O22874  11.272   6.476   4.010 -0.8006 -0.0272  0.1174
  170MOL0     C22875  11.197   6.355   3.998  0.4524 -0.7260  0.1820
  170MOL0     C22876  11.242   6.261   4.123 -0.2094  0.1167  1.2122
  170MOL0     C22877  11.186   6.320   4.260  0.2413  0.2040 -0.5345
  170MOL0     C22878  11.208   6.208   4.366 -0.2872  0.2230  0.3677
  170MOL0     C22879  11.338   6.132   4.372  0.2546  0.4233 -0.2480
  170MOL0     C22880  11.447   6.080   4.367  0.6395  1.2307  0.2893
  170MOL0     C22881  11.382   6.638   3.886  0.0383 -0.0138 -0.0557
  170MOL0     C22882  11.387   6.738   3.792 -0.5236  0.1633 -1.0495
  170MOL0     H22883  11.546   6.812   3.331 -2.6429 -1.3512 -0.4285
  170MOL0     H22884  11.587   6.953   3.138  1.9975  0.2882  1.3295
  170MOL0     H22885  11.344   7.310   3.041 -0.9757  1.5457  1.3356
  170MOL0     H22886  11.445   7.372   3.179  0.1102 -2.6856  2.7604
  170MOL0     H22887  11.639   7.363   3.013  0.3487  0.0718 -0.6301
  170MOL0     H22888  11.540   7.311   2.884 -0.8929  0.7866 -0.2519
  170MOL0     H22889  11.396   7.521   2.910 -0.5276  1.1527  0.5857
  170MOL0     H22890  11.503   7.579   3.036  0.2919  3.4724 -1.2774
  170MOL0     H22891  11.693   7.563   2.872  0.8031  2.4357 -3.1363
  170MOL0     H22892  11.581   7.496   2.751  0.8979 -1.8103  1.1718
  170MOL0     H22893  11.451   7.717   2.846 -0.2870 -2.9294 -0.4554
  170MOL0     H22894  11.628   7.773   2.824 -0.4388  1.2462 -1.7884
  170MOL0     H22895  11.441   7.643   2.626 -1.6570  2.4524 -2.1330
  170MOL0     H22896  11.478   7.813   2.624 -1.4263 -1.0666 -1.1776
  170MOL0     H22897  11.663   7.581   2.565 -2.2565  0.4056  1.5691
  170MOL0     H22898  11.625   7.703   2.452 -0.7213 -0.0510 -0.8580
  170MOL0     H22899  11.862   7.744   2.538  1.4948 -3.1086  2.4913
  170MOL0     H22900  11.815   7.760   2.701  2.7650  2.2084 -0.7179
  170MOL0     H22901  11.794   8.011   2.782  0.2513  3.0128 -0.0900
  170MOL0     H22902  11.966   8.219   2.713 -0.2154  0.3388  0.3657
  170MOL0     H22903  11.883   8.312   2.581 -1.0867 -0.2268 -0.7380
  170MOL0     H22904  11.697   8.242   2.795  1.0274 -1.0557  1.2037
  170MOL0     H22905  11.746   8.398   2.711  2.8011  3.0649  2.3709
  170MOL0     H22906  11.784   8.433   2.926  1.8123  2.1463  0.1525
  170MOL0     H22907  11.940   8.413   2.857 -0.6402  1.6503 -0.2265
  170MOL0     H22908  11.920   8.314   3.067  0.8829  1.2769 -1.9037
  170MOL0     H22909  11.974   8.194   2.948 -1.4191 -4.5222  4.6337
  170MOL0     H22910  11.646   7.959   3.044  3.0099  2.7313 -2.1652
  170MOL0     H22911  11.560   7.754   3.297  0.1699  1.6960 -0.7764
  170MOL0     H22912  11.582   7.759   3.120  2.5440  1.1212 -0.4905
  170MOL0     H22913  11.705   7.674   3.213  4.1158  1.9634 -2.9549
  170MOL0     H22914  11.893   7.564   3.574  0.8639  0.4336  1.3199
  170MOL0     H22915  11.876   7.403   3.774 -1.7559 -0.9753  1.4138
  170MOL0     H22916  11.839   7.358   4.092 -1.1367 -3.7561 -1.7875
  170MOL0     H22917  11.771   7.526   4.100  1.2576 -0.5035  0.9524
  170MOL0     H22918  11.637   7.255   4.161  1.7584 -1.0244  0.5241
  170MOL0     H22919  11.686   7.380   4.285  2.0803  1.6556 -2.1418
  170MOL0     H22920  11.467   7.375   4.084  1.9448 -2.6603 -0.3971
  170MOL0     H22921  11.509   7.533   4.160  2.7246  0.4820  0.1943
  170MOL0     H22922  11.446   7.265   4.310  2.6116 -0.6990 -0.5301
  170MOL0     H22923  11.482   7.420   4.386  2.8988 -0.7318 -0.8949
  170MOL0     H22924  11.248   7.356   4.195  2.2026 -2.5312 -0.0717
  170MOL0     H22925  11.280   7.522   4.248  2.4521 -0.4273 -1.5781
  170MOL0     H22926  11.258   7.451   4.492 -1.3698  0.8239  0.2699
  170MOL0     H22927  11.112   7.454   4.404 -1.4129 -2.7011  0.3684
  170MOL0     H22928  11.263   7.222   4.503  1.4986  1.0636 -1.4113
  170MOL0     H22929  11.187   7.192   4.347  0.7491  2.1735 -2.0235
  170MOL0     H22930  11.031   7.131   4.538  2.7272 -1.8326 -0.9453
  170MOL0     H22931  10.962   7.280   4.446 -0.4463  0.9041  1.5260
  170MOL0     H22932  11.539   7.612   3.912  0.5453 -0.2168  0.3854
  170MOL0     H22933  11.551   7.768   3.717 -0.9896 -0.1513  2.7273
  170MOL0     H22934  12.008   7.994   3.374  2.4963 -4.2939 -1.3040
  170MOL0     H22935  11.965   8.174   3.205 -0.8659  1.1270 -0.2475
  170MOL0     H22936  11.346   7.268   3.334 -1.1958 -0.6614  1.9525
  170MOL0     H22937  11.311   7.119   3.512 -1.1667 -2.5196 -0.5517
  170MOL0     H22938  11.066   6.736   3.689 -0.4934  0.1864  1.7284
  170MOL0     H22939  11.050   6.561   3.864  0.6726 -0.3683  0.5849
  170MOL0     H22940  11.092   6.382   3.993  0.7983  0.4731 -4.0864
  170MOL0     H22941  11.210   6.315   3.897 -3.3980  3.0901 -2.1357
  170MOL0     H22942  11.351   6.254   4.124 -0.0077  1.4810 -1.9470
  170MOL0     H22943  11.209   6.160   4.097  0.5771  0.4006 -1.0760
  170MOL0     H22944  11.080   6.344   4.256 -0.0837  0.2220  3.4365
  170MOL0     H22945  11.245   6.408   4.286  1.0577 -0.6994  0.7986
  170MOL0     H22946  11.125   6.139   4.346 -0.0669  0.3147 -0.9964
  170MOL0     H22947  11.192   6.253   4.464 -0.5597  0.3495  0.2654
  170MOL0     H22948  11.540   6.029   4.350  1.2253  1.6643  2.0219
  170MOL0     H22949  11.475   6.622   3.939  0.3890  3.1734  0.4768
  170MOL0     H22950  11.480   6.791   3.774  0.6809 -1.4212  0.1531
  171MOL0     O22951  10.260   0.979  10.871 -0.5361 -0.4351 -0.3811
  171MOL0     C22952  10.315   0.925  10.776  0.6083 -0.1987 -0.3794
  171MOL0     O22953  10.365   0.800  10.775 -0.6809  0.6168 -0.1781
  171MOL0     C22954  10.332   0.714  10.871  0.9628  0.4932  0.6949
  171MOL0     C22955  10.201   0.690  10.902  0.5013  0.9979  0.8786
  171MOL0     C22956  10.176   0.593  11.000  0.1141 -0.0499  0.2609
  171MOL0     C22957  10.275   0.535  11.067 -0.6707  0.1284 -0.2597
  171MOL0     O22958  10.238   0.460  11.177 -0.2600 -0.1316 -0.7970
  171MOL0     C22959  10.295   0.511  11.303  0.0176  0.4075 -0.5613
  171MOL0     C22960  10.264   0.408  11.419 -0.0612 -1.0956  0.3663
  171MOL0     C22961  10.344   0.282  11.396 -0.2401  0.5336  0.7124
  171MOL0     C22962  10.329   0.169  11.500 -0.3799  0.3335  0.0779
  171MOL0     C22963  10.388   0.042  11.442  0.0128 -0.3128  1.2116
  171MOL0     C22964  10.395  -0.075  11.536  1.1851  0.0388 -0.0647
  171MOL0     C22965  10.255  -0.145  11.539  0.4330  0.3557  0.4444
  171MOL0     C22966  10.233  -0.210  11.676 -0.1937 -0.4097  0.2740
  171MOL0     N22967  10.324  -0.323  11.692 -0.9916 -0.4571  0.2667
  171MOL0     C22968  10.426  -0.313  11.786  0.4009 -0.6758 -0.4067
  171MOL0     C22969  10.495  -0.420  11.762 -0.5922  0.1526 -0.8100
  171MOL0     C22970  10.610  -0.449  11.850 -0.1162  0.0354 -0.8898
  171MOL0     C22971  10.734  -0.380  11.813 -0.1470 -1.3668  0.6396
  171MOL0     C22972  10.858  -0.424  11.885 -0.6641 -0.5192 -0.3291
  171MOL0     C22973  10.862  -0.401  12.041  0.9101 -0.0451  0.3829
  171MOL0     O22974  10.753  -0.480  12.091  1.0694  0.1323 -0.2087
  171MOL0     C22975  10.703  -0.449  12.216 -0.2605 -1.4362  0.4094
  171MOL0     C22976  10.736  -0.330  12.287  1.2178  0.7956  0.0663
  171MOL0     C22977  10.669  -0.307  12.406 -0.6645  0.1282  0.7954
  171MOL0     C22978  10.717  -0.192  12.491  0.2393 -0.4919  0.3545
  171MOL0     C22979  10.581  -0.397  12.458  0.1407  0.2903  0.4125
  171MOL0     C22980  10.508  -0.376  12.584  0.5423 -0.3101 -0.2500
  171MOL0     O22981  10.451  -0.253  12.610  0.4665 -0.9969  0.1902
  171MOL0     C22982  10.333  -0.254  12.679  0.3962  0.8967 -0.2325
  171MOL0     C22983  10.297  -0.131  12.725  0.1542 -0.1680 -0.3783
  171MOL0     C22984  10.182  -0.105  12.798 -0.0511 -0.5898 -0.1466
  171MOL0     C22985  10.093  -0.209  12.810 -0.5491 -0.0321 -0.1665
  171MOL0     O22986   9.970  -0.165  12.866 -0.0349 -0.5871 -0.9270
  171MOL0     C22987   9.874  -0.264  12.919  0.0652 -0.2420  0.4350
  171MOL0     C22988   9.760  -0.198  13.000  0.0519 -0.8053 -0.0198
  171MOL0     C22989   9.669  -0.294  13.067 -0.2687  1.6408 -0.8591
  171MOL0     C22990   9.566  -0.223  13.153  0.3815 -0.3980 -0.3796
  171MOL0     C22991   9.459  -0.322  13.213  0.7914  0.1536 -0.0856
  171MOL0     C22992   9.414  -0.276  13.347  0.0238 -0.6055  0.3918
  171MOL0     C22993   9.401  -0.392  13.436 -0.1880 -0.2703 -0.9711
  171MOL0     C22994   9.409  -0.355  13.588  0.1669 -0.1369 -0.8483
  171MOL0    Cl22995   9.352  -0.481  13.709  0.0092  0.2141 -0.1179
  171MOL0     C22996  10.124  -0.340  12.770 -0.3010 -0.0084  0.5631
  171MOL0     C22997  10.245  -0.361  12.710 -0.1926 -0.1817  0.1445
  171MOL0     O22998  10.497  -0.472  12.658 -0.7855 -0.1072 -0.9180
  171MOL0     C22999  10.535  -0.513  12.379 -0.5956 -0.4305 -0.0674
  171MOL0     C23000  10.603  -0.535  12.257 -0.1954  0.1945  0.0719
  171MOL0     N23001  10.436  -0.496  11.663  0.1386  0.0256 -0.6151
  171MOL0     N23002  10.341  -0.425  11.610  0.0215 -0.1368 -0.0143
  171MOL0     C23003  10.408   0.550  11.021  0.1614 -0.0983 -0.6181
  171MOL0     C23004  10.432   0.637  10.922 -0.3041  1.0024  1.1239
  171MOL0     C23005  10.337   1.005  10.647  0.6649 -1.1404  0.8028
  171MOL0     C23006  10.440   0.985  10.560  0.3170 -0.8709 -0.0982
  171MOL0     C23007  10.461   1.076  10.454  0.0795  0.4868 -0.4155
  171MOL0     C23008  10.379   1.189  10.434 -0.5638 -0.8139 -0.3457
  171MOL0     O23009  10.395   1.292  10.344  0.6447  0.2796 -0.4820
  171MOL0     C23010  10.484   1.259  10.242 -0.0585  0.9943 -0.0615
  171MOL0     C23011  10.525   1.384  10.173  0.4209 -0.0745  1.0358
  171MOL0     C23012  10.633   1.363  10.067  0.3336  0.2068 -0.7526
  171MOL0     C23013  10.639   1.480   9.974 -0.0621 -0.3191 -0.3355
  171MOL0     C23014  10.748   1.491   9.880  0.5861 -0.0613 -1.6533
  171MOL0     C23015  10.829   1.496   9.791 -0.5520 -0.0594 -0.8911
  171MOL0     C23016  10.257   1.202  10.514  0.6034 -0.1979  0.3168
  171MOL0     C23017  10.243   1.112  10.626 -0.1243 -0.6220  0.1446
  171MOL0     H23018  10.128   0.755  10.854  1.5287  1.5864  0.0722
  171MOL0     H23019  10.075   0.575  11.037  0.5252 -0.9543  0.9786
  171MOL0     H23020  10.400   0.543  11.298 -0.1633  1.5010  1.5824
  171MOL0     H23021  10.258   0.611  11.325 -0.0302  1.4503 -4.6258
  171MOL0     H23022  10.287   0.442  11.520 -1.2557 -0.4171  0.4349
  171MOL0     H23023  10.157   0.383  11.425  0.1270 -1.6252  2.6343
  171MOL0     H23024  10.305   0.233  11.307  1.3235 -1.6313  1.1522
  171MOL0     H23025  10.449   0.311  11.392  0.6134 -2.0833  2.0215
  171MOL0     H23026  10.389   0.192  11.589 -0.2667 -0.6470  0.2725
  171MOL0     H23027  10.222   0.160  11.523 -0.1769 -1.0906  0.6227
  171MOL0     H23028  10.330   0.016  11.353  1.7252 -1.9077  0.5051
  171MOL0     H23029  10.491   0.059  11.412 -0.4008 -2.2262 -1.6871
  171MOL0     H23030  10.465  -0.150  11.497 -0.1588 -1.1671 -0.2450
  171MOL0     H23031  10.434  -0.049  11.635  0.6649 -1.4621  0.5653
  171MOL0     H23032  10.179  -0.067  11.525 -0.5603 -0.2805  1.8854
  171MOL0     H23033  10.234  -0.216  11.459 -1.0332  1.9605 -0.6603
  171MOL0     H23034  10.133  -0.254  11.679 -1.3757  0.6694 -6.7027
  171MOL0     H23035  10.236  -0.136  11.757  1.9532  0.5485 -0.5881
  171MOL0     H23036  10.434  -0.245  11.871 -0.7519  1.7860 -2.1216
  171MOL0     H23037  10.582  -0.425  11.953  1.5623  2.2261 -0.8768
  171MOL0     H23038  10.617  -0.557  11.839 -1.2022 -0.1969  0.4085
  171MOL0     H23039  10.718  -0.274  11.833  0.6542 -1.1187  0.0460
  171MOL0     H23040  10.751  -0.390  11.705  1.4072  1.5533  0.5112
  171MOL0     H23041  10.936  -0.358  11.847 -1.9234  1.5904  0.5581
  171MOL0     H23042  10.893  -0.525  11.860  0.6923 -0.6916  1.9991
  171MOL0     H23043  10.841  -0.295  12.055 -2.5764 -0.3673 -1.2072
  171MOL0     H23044  10.951  -0.440  12.090  0.3188  0.3571  1.8287
  171MOL0     H23045  10.808  -0.260  12.247 -0.0969  1.2783 -1.5867
  171MOL0     H23046  10.634  -0.121  12.484  0.6477 -0.1326 -1.5799
  171MOL0     H23047  10.734  -0.229  12.592 -1.8897 -1.4186  0.4348
  171MOL0     H23048  10.804  -0.140  12.450 -2.0940  2.3775 -1.4505
  171MOL0     H23049  10.364  -0.046  12.713  0.1214  0.1093  1.2594
  171MOL0     H23050  10.155  -0.006  12.833  4.0743  0.4021  0.7153
  171MOL0     H23051   9.825  -0.317  12.837  2.4929  1.0089 -1.9888
  171MOL0     H23052   9.938  -0.327  12.981  1.6018 -0.2173 -1.0640
  171MOL0     H23053   9.813  -0.135  13.073 -1.4238  0.8057 -0.2811
  171MOL0     H23054   9.706  -0.128  12.936  1.1759  0.2140  0.1098
  171MOL0     H23055   9.734  -0.362  13.122  0.8053  3.4533  0.1976
  171MOL0     H23056   9.626  -0.366  12.996  0.7652  1.1446 -1.0107
  171MOL0     H23057   9.634  -0.164  13.216  2.0257 -1.3674 -1.1713
  171MOL0     H23058   9.518  -0.153  13.085  3.0079  0.5997 -1.3295
  171MOL0     H23059   9.512  -0.418  13.218  0.1531 -0.2958 -1.3411
  171MOL0     H23060   9.382  -0.361  13.146  0.3733 -0.5214  0.7659
  171MOL0     H23061   9.494  -0.211  13.385  0.8834 -0.0602 -2.1517
  171MOL0     H23062   9.316  -0.229  13.339 -0.5037 -1.9372 -2.7711
  171MOL0     H23063   9.488  -0.457  13.424  1.3258  0.5925  3.6128
  171MOL0     H23064   9.305  -0.442  13.423  0.1889 -1.1727 -0.3382
  171MOL0     H23065   9.338  -0.273  13.599  1.6100  1.0656 -0.1761
  171MOL0     H23066   9.509  -0.322  13.621 -0.4412  2.1566 -1.1013
  171MOL0     H23067  10.057  -0.419  12.802 -1.3992  0.1557 -1.2275
  171MOL0     H23068  10.260  -0.467  12.688  0.1537  0.1673 -1.4075
  171MOL0     H23069  10.464  -0.585  12.418  1.7292 -1.8158  1.8795
  171MOL0     H23070  10.599  -0.630  12.203  0.7511 -0.2575  0.7783
  171MOL0     H23071  10.496   0.495  11.055  0.3585  0.8387  0.4180
  171MOL0     H23072  10.525   0.662  10.872  0.2352 -2.1248  0.3344
  171MOL0     H23073  10.501   0.896  10.575  2.4644  0.8937  2.7263
  171MOL0     H23074  10.555   1.053  10.404 -1.1121  0.9957 -3.0926
  171MOL0     H23075  10.580   1.222  10.277 -0.2900 -2.0342 -2.2220
  171MOL0     H23076  10.437   1.186  10.176  0.4202 -0.4347  1.1335
  171MOL0     H23077  10.561   1.448  10.254 -0.0464 -2.3381  3.1502
  171MOL0     H23078  10.443   1.442  10.130  0.5224  0.2260  1.2471
  171MOL0     H23079  10.609   1.271  10.014  0.3322  0.9429 -2.0917
  171MOL0     H23080  10.728   1.342  10.116  0.1946  0.4449 -0.3744
  171MOL0     H23081  10.627   1.572  10.033 -0.4779 -1.2606  1.0866
  171MOL0     H23082  10.550   1.456   9.914 -1.0853  0.7755  0.6817
  171MOL0     H23083  10.904   1.509   9.716 -0.4360 -0.5313 -0.8563
  171MOL0     H23084  10.192   1.288  10.506  0.1878 -0.4350  1.0810
  171MOL0     H23085  10.158   1.118  10.693 -1.1059 -2.6946 -0.8094
  172MOL0     O23086   5.716   6.722   9.395 -0.2950 -0.6359  0.4520
  172MOL0     C23087   5.835   6.689   9.376  0.5005 -0.6161 -0.3035
  172MOL0     O23088   5.877   6.563   9.332 -0.7791  0.7648 -1.1322
  172MOL0     C23089   5.784   6.460   9.327 -0.2764 -0.2291  0.0340
  172MOL0     C23090   5.711   6.420   9.437 -0.4008 -1.0597 -0.8528
  172MOL0     C23091   5.628   6.312   9.440  0.6472  0.9912  0.1990
  172MOL0     C23092   5.622   6.221   9.337  0.4315  0.2015  0.4728
  172MOL0     O23093   5.549   6.105   9.340  0.1175  0.0145 -0.1915
  172MOL0     C23094   5.440   6.105   9.430 -1.2839  0.1716 -0.7717
  172MOL0     C23095   5.375   5.965   9.405 -0.3518 -1.1051  0.5192
  172MOL0     C23096   5.254   5.943   9.495  0.8041 -0.2222  0.3976
  172MOL0     C23097   5.183   5.805   9.468  0.1778 -0.3830 -1.0154
  172MOL0     C23098   5.041   5.812   9.537  0.1837  0.2718  0.2540
  172MOL0     C23099   5.040   5.858   9.684 -0.5992 -0.8875 -0.3568
  172MOL0     C23100   4.906   5.837   9.744  0.8645 -0.7132 -0.7381
  172MOL0     C23101   4.906   5.821   9.895  0.0315  0.4174  0.5430
  172MOL0     N23102   4.774   5.777   9.952  0.4967 -0.1186  0.1081
  172MOL0     C23103   4.713   5.654   9.969 -0.0523 -0.4866  1.2246
  172MOL0     C23104   4.587   5.681  10.009 -0.2881  0.2243 -0.0723
  172MOL0     C23105   4.475   5.574  10.030 -0.8860 -0.3414  0.2121
  172MOL0     C23106   4.465   5.539  10.183 -0.4845 -0.0844 -0.2103
  172MOL0     C23107   4.408   5.656  10.260 -0.0107  0.2958  0.8280
  172MOL0     C23108   4.262   5.672  10.259  0.0459  0.7525  0.1589
  172MOL0     O23109   4.206   5.589  10.356 -0.4334 -0.3394 -0.1395
  172MOL0     C23110   4.071   5.584  10.377  0.0568  0.4136  0.6815
  172MOL0     C23111   4.002   5.677  10.442  0.3573 -0.3099 -0.0262
  172MOL0     C23112   3.859   5.665  10.480  0.5082  0.6841 -0.1214
  172MOL0     C23113   3.807   5.785  10.560  0.0527 -0.2999  0.5111
  172MOL0     C23114   3.790   5.550  10.423 -0.2784  0.4865 -0.5594
  172MOL0     C23115   3.652   5.525  10.441  0.5524 -0.2211  0.0666
  172MOL0     O23116   3.579   5.620  10.495 -0.3231 -1.0613 -0.6693
  172MOL0     C23117   3.442   5.607  10.525  0.4014  0.3031 -0.6685
  172MOL0     C23118   3.398   5.672  10.638 -0.6684  0.7853  0.5015
  172MOL0     C23119   3.266   5.672  10.662 -0.3562  0.1039 -0.5561
  172MOL0     C23120   3.174   5.582  10.595  0.4136  0.1386  0.4428
  172MOL0     O23121   3.047   5.545  10.634  0.2633 -1.5244 -1.2152
  172MOL0     C23122   2.985   5.645  10.723  0.4152 -0.2727  0.2941
  172MOL0     C23123   2.834   5.624  10.744 -0.5104 -0.4907 -0.2772
  172MOL0     C23124   2.767   5.664  10.612 -0.3280 -0.3620 -0.3950
  172MOL0     C23125   2.614   5.659  10.631 -0.4893  0.0411 -0.6898
  172MOL0     C23126   2.526   5.701  10.509  1.0177 -0.7267  0.3045
  172MOL0     C23127   2.548   5.615  10.397  0.0893 -0.5591  0.8720
  172MOL0     C23128   2.428   5.589  10.310  0.2807  0.0589 -0.2989
  172MOL0     C23129   2.478   5.530  10.181 -0.2910 -0.7223 -0.3110
  172MOL0    Cl23130   2.556   5.369  10.213 -0.0435 -0.6011  0.1279
  172MOL0     C23131   3.226   5.503  10.489  0.6399  0.1935 -0.6292
  172MOL0     C23132   3.352   5.524  10.456  0.1841  0.1414 -0.7157
  172MOL0     O23133   3.609   5.405  10.418 -0.2090  0.2288  0.2987
  172MOL0     C23134   3.865   5.455  10.367 -0.1395 -0.4760  0.7511
  172MOL0     C23135   4.003   5.467  10.338  0.1093  0.3260  0.1708
  172MOL0     N23136   4.580   5.815  10.032 -0.3462 -0.4070  0.1460
  172MOL0     N23137   4.681   5.873   9.986 -0.4551  0.6227  0.3584
  172MOL0     C23138   5.700   6.254   9.226 -1.0423 -0.2022  0.5623
  172MOL0     C23139   5.774   6.377   9.218 -0.1612 -0.3496 -0.1326
  172MOL0     C23140   5.943   6.792   9.384 -0.0769 -0.6326 -0.2427
  172MOL0     C23141   5.901   6.925   9.429 -1.1680  0.3963  0.2848
  172MOL0     C23142   5.999   7.019   9.434 -0.6573 -0.4783  0.4844
  172MOL0     C23143   6.132   6.999   9.409 -0.6834  0.9382 -0.4786
  172MOL0     O23144   6.228   7.098   9.411  0.1975 -0.2720 -0.5874
  172MOL0     C23145   6.197   7.225   9.335  0.5183  0.5866 -0.4341
  172MOL0     C23146   6.206   7.213   9.193 -0.3942 -0.2638  0.7882
  172MOL0     C23147   6.346   7.161   9.149 -0.4965  0.2697  0.3259
  172MOL0     C23148   6.364   7.130   8.996  0.3468  0.2642 -0.5271
  172MOL0     C23149   6.486   7.038   8.981 -0.9762  0.3891  0.4307
  172MOL0     C23150   6.584   6.968   8.950  0.5577 -0.6829  0.2452
  172MOL0     C23151   6.174   6.869   9.378  0.3630 -0.1035  0.6198
  172MOL0     C23152   6.079   6.765   9.370 -0.7304 -0.0411  0.7709
  172MOL0     H23153   5.725   6.481   9.526 -0.2898 -3.4121  0.8382
  172MOL0     H23154   5.555   6.303   9.519 -3.2815  0.5722 -3.1771
  172MOL0     H23155   5.483   6.100   9.531  1.2193 -3.5000 -1.7881
  172MOL0     H23156   5.362   6.181   9.425 -1.2588  1.3182  5.9851
  172MOL0     H23157   5.341   5.959   9.300 -2.3984  1.9490  0.8768
  172MOL0     H23158   5.450   5.887   9.420  1.4721  0.2945 -0.8417
  172MOL0     H23159   5.272   5.961   9.601  2.5024  3.5775 -0.3332
  172MOL0     H23160   5.177   6.017   9.472  0.6486 -0.9682 -1.6956
  172MOL0     H23161   5.150   5.785   9.366 -4.1068 -1.3650  0.3429
  172MOL0     H23162   5.245   5.723   9.507  1.2516  1.1377  0.6639
  172MOL0     H23163   4.975   5.875   9.478 -1.2968 -0.1218  1.4398
  172MOL0     H23164   5.014   5.707   9.528  1.8192  0.0053 -2.9162
  172MOL0     H23165   5.112   5.788   9.726  0.7162 -0.0514 -1.1516
  172MOL0     H23166   5.088   5.955   9.699  2.8968 -1.8687 -3.4834
  172MOL0     H23167   4.846   5.924   9.714 -0.4793 -1.3457  0.0363
  172MOL0     H23168   4.865   5.751   9.690  0.2620 -0.2057 -1.1104
  172MOL0     H23169   4.942   5.910   9.947 -0.3947  1.1434 -0.3800
  172MOL0     H23170   4.964   5.732   9.921  0.2644  1.1468  2.7304
  172MOL0     H23171   4.755   5.561   9.931  4.4502  2.6364 -2.4304
  172MOL0     H23172   4.389   5.629   9.993  1.5226  1.4451 -3.3332
  172MOL0     H23173   4.505   5.490   9.967  3.6448  1.2903 -0.2202
  172MOL0     H23174   4.563   5.509  10.220 -0.2225  3.1293  2.0735
  172MOL0     H23175   4.390   5.461  10.201 -1.8664  1.3626  0.6448
  172MOL0     H23176   4.438   5.752  10.218  0.9991 -0.6071 -0.5742
  172MOL0     H23177   4.428   5.642  10.367 -3.5552 -1.9687  1.3551
  172MOL0     H23178   4.225   5.645  10.160  2.0830 -1.7433 -0.0414
  172MOL0     H23179   4.248   5.777  10.285  2.4414  0.8128  1.5232
  172MOL0     H23180   4.047   5.767  10.484  1.6098 -0.7265 -0.4391
  172MOL0     H23181   3.861   5.878  10.541  0.0780  0.0181  2.0800
  172MOL0     H23182   3.704   5.810  10.533 -1.1390 -0.3791  4.4214
  172MOL0     H23183   3.815   5.752  10.664  2.3888 -2.7463 -0.3339
  172MOL0     H23184   3.475   5.723  10.695  0.8219  0.2731 -0.9764
  172MOL0     H23185   3.239   5.737  10.745 -1.3407  1.9238 -2.2074
  172MOL0     H23186   3.036   5.649  10.820  2.3544  2.9128 -0.7024
  172MOL0     H23187   3.007   5.747  10.691  4.9730 -0.8175  1.0193
  172MOL0     H23188   2.828   5.516  10.762 -3.8094 -0.8885 -2.7583
  172MOL0     H23189   2.805   5.678  10.835  1.5655  3.7219 -1.8612
  172MOL0     H23190   2.776   5.596  10.527  0.3872 -2.9842  1.6517
  172MOL0     H23191   2.804   5.758  10.571 -1.3281 -0.7963 -2.3882
  172MOL0     H23192   2.575   5.571  10.684 -2.9211  0.5870 -1.4470
  172MOL0     H23193   2.610   5.735  10.710  1.2899 -1.1124  0.5784
  172MOL0     H23194   2.533   5.804  10.473 -2.8391  0.3375  2.0626
  172MOL0     H23195   2.423   5.691  10.545  0.5780  3.1732  0.5746
  172MOL0     H23196   2.625   5.661  10.335 -0.6081  2.0168  1.7982
  172MOL0     H23197   2.576   5.517  10.438 -0.3481 -0.6930  0.8571
  172MOL0     H23198   2.382   5.687  10.293  2.7342  2.2615  3.8822
  172MOL0     H23199   2.353   5.528  10.361  2.3010 -0.6734  2.0123
  172MOL0     H23200   2.553   5.594  10.132 -3.3442  0.6936 -3.6206
  172MOL0     H23201   2.393   5.530  10.112 -1.6890 -0.9916  1.3642
  172MOL0     H23202   3.169   5.435  10.428  1.2466  0.8372 -1.9706
  172MOL0     H23203   3.390   5.465  10.373  3.1362 -1.2635  1.4648
  172MOL0     H23204   3.821   5.360  10.336 -0.5027 -0.3771  0.9586
  172MOL0     H23205   4.064   5.386  10.300 -1.0353  0.2226 -1.5882
  172MOL0     H23206   5.721   6.187   9.143  0.9962  1.0051  0.0264
  172MOL0     H23207   5.830   6.397   9.127 -0.6206  2.0376  0.0484
  172MOL0     H23208   5.800   6.937   9.467 -2.8086 -2.0697 -2.7913
  172MOL0     H23209   5.973   7.121   9.461 -1.8901 -1.0218  1.5217
  172MOL0     H23210   6.092   7.250   9.349  0.4995 -0.2903  1.2286
  172MOL0     H23211   6.259   7.309   9.368  3.9313 -1.9095  0.0427
  172MOL0     H23212   6.194   7.311   9.147 -1.2636 -0.6451  0.1776
  172MOL0     H23213   6.126   7.143   9.169 -2.2174  2.0730 -0.3181
  172MOL0     H23214   6.370   7.071   9.207  1.7689  0.9089  0.4931
  172MOL0     H23215   6.418   7.236   9.186 -1.4023  0.4911  1.7088
  172MOL0     H23216   6.404   7.218   8.944  1.7840  0.9726  1.6171
  172MOL0     H23217   6.276   7.099   8.940 -0.4579 -0.2290  0.9640
  172MOL0     H23218   6.647   6.893   8.909 -0.6278 -1.1224 -0.8356
  172MOL0     H23219   6.275   6.830   9.364  0.1866 -0.6786  0.9237
  172MOL0     H23220   6.117   6.665   9.349  0.1198  0.5749 -0.7837
  173MOL0     O23221   9.155   9.056   6.311 -0.2801 -0.7043  0.0700
  173MOL0     C23222   9.099   8.963   6.259 -0.5115  0.1589 -0.5550
  173MOL0     O23223   9.054   8.849   6.323  0.3599 -0.2565 -0.2743
  173MOL0     C23224   9.087   8.830   6.458 -0.5210  0.4813 -0.1440
  173MOL0     C23225   9.147   8.704   6.484  0.6415 -0.7483 -0.0025
  173MOL0     C23226   9.159   8.659   6.620 -0.7174  0.1700  0.3716
  173MOL0     C23227   9.132   8.737   6.729  0.4838 -0.6392  0.3216
  173MOL0     O23228   9.139   8.681   6.854 -0.3211 -0.3643  1.1189
  173MOL0     C23229   9.150   8.771   6.966 -0.0899  0.5883 -0.2263
  173MOL0     C23230   9.205   8.693   7.088  0.7082 -0.6013  0.6771
  173MOL0     C23231   9.128   8.564   7.098 -0.7140  1.5254  0.1293
  173MOL0     C23232   9.140   8.498   7.242  0.7083  0.6758 -0.2420
  173MOL0     C23233   9.058   8.362   7.241  0.6414 -0.2040 -0.6525
  173MOL0     C23234   9.111   8.251   7.164 -0.1673 -0.0017  0.7235
  173MOL0     C23235   9.002   8.146   7.180 -0.1704 -0.5998 -0.1426
  173MOL0     C23236   8.955   8.108   7.034 -0.2076  0.7302 -0.0585
  173MOL0     N23237   8.856   8.201   6.987 -0.4375  0.7317 -0.0760
  173MOL0     C23238   8.729   8.196   7.031 -0.1372  0.5573  0.9600
  173MOL0     C23239   8.669   8.298   6.967 -1.0714 -0.2206  0.8669
  173MOL0     C23240   8.528   8.335   6.997  0.5086  0.7679 -1.0312
  173MOL0     C23241   8.504   8.435   7.109 -0.0801 -0.1588  0.4448
  173MOL0     C23242   8.437   8.384   7.245 -0.3794  0.9635 -0.1468
  173MOL0     C23243   8.362   8.494   7.318  0.1436 -0.0049  0.2303
  173MOL0     O23244   8.427   8.624   7.319 -0.8924 -0.3405  0.0343
  173MOL0     C23245   8.335   8.719   7.347 -0.2963 -0.0498 -0.0575
  173MOL0     C23246   8.305   8.730   7.479 -0.3935 -0.3174 -1.3258
  173MOL0     C23247   8.211   8.834   7.515  1.3224 -0.3181  0.5197
  173MOL0     C23248   8.174   8.835   7.662  0.3969 -0.3192  0.0617
  173MOL0     C23249   8.159   8.918   7.418 -0.4590  0.3044 -0.0923
  173MOL0     C23250   8.053   9.021   7.458 -0.9245  0.1272  0.4369
  173MOL0     O23251   8.097   9.108   7.557 -0.3217  0.5812  0.1214
  173MOL0     C23252   7.997   9.190   7.606  0.0973  0.8292 -0.2578
  173MOL0     C23253   7.984   9.208   7.736  0.0776  0.7595  0.5989
  173MOL0     C23254   7.888   9.303   7.791  0.0774  0.8120 -0.1187
  173MOL0     C23255   7.816   9.380   7.704  0.2428 -0.3474  0.1052
  173MOL0     O23256   7.726   9.467   7.763 -0.2524 -0.3083  1.4325
  173MOL0     C23257   7.656   9.565   7.676 -0.4298  0.1997 -0.4011
  173MOL0     C23258   7.544   9.623   7.764  0.0300  0.0236 -0.2636
  173MOL0     C23259   7.421   9.536   7.752  0.3665 -0.0376  0.0944
  173MOL0     C23260   7.428   9.404   7.818  1.0490  0.0913  0.0360
  173MOL0     C23261   7.302   9.312   7.786  0.0972  0.1941  0.9458
  173MOL0     C23262   7.309   9.175   7.857 -0.1815  0.3693 -0.9499
  173MOL0     C23263   7.229   9.194   7.989 -0.8734  0.3089  0.4765
  173MOL0     C23264   7.168   9.064   8.033  0.5697  0.4890 -0.1472
  173MOL0    Cl23265   7.100   9.093   8.192 -0.6640 -0.0835  0.6641
  173MOL0     C23266   7.831   9.362   7.570 -0.1604 -0.5673  0.6529
  173MOL0     C23267   7.921   9.273   7.519 -0.1440 -0.2454 -0.2328
  173MOL0     O23268   7.945   9.012   7.399 -0.2536  0.1146 -0.6442
  173MOL0     C23269   8.199   8.906   7.286  0.0495 -0.2074  0.0964
  173MOL0     C23270   8.284   8.803   7.248  0.3550  0.8226 -0.3931
  173MOL0     N23271   8.758   8.355   6.879  0.4744 -0.4326  0.8126
  173MOL0     N23272   8.869   8.288   6.888 -0.4687  0.4284 -0.0534
  173MOL0     C23273   9.074   8.870   6.699 -0.0218  0.2588  0.0692
  173MOL0     C23274   9.057   8.910   6.566 -0.4057  0.3733  0.4335
  173MOL0     C23275   9.094   8.966   6.111 -0.7369 -1.2315 -0.9502
  173MOL0     C23276   9.145   9.081   6.027 -0.2807 -0.6354  0.2550
  173MOL0     C23277   9.169   9.065   5.894  0.0429 -0.3907  0.7211
  173MOL0     C23278   9.114   8.954   5.826  0.4554 -0.7602  0.1565
  173MOL0     O23279   9.109   8.939   5.685  0.1188 -0.0194  0.0969
  173MOL0     C23280   9.181   8.830   5.621 -0.7207  0.9196  0.9295
  173MOL0     C23281   9.295   8.770   5.696 -0.2780  0.2722  0.4901
  173MOL0     C23282   9.366   8.654   5.621 -0.4453  0.2040  0.1582
  173MOL0     C23283   9.286   8.529   5.612  1.0263  0.9308  0.2856
  173MOL0     C23284   9.358   8.421   5.558 -0.3141 -0.2662  0.8744
  173MOL0     C23285   9.429   8.333   5.515 -0.5021 -0.8144  0.0704
  173MOL0     C23286   9.041   8.858   5.899  0.1302  0.1071  0.4977
  173MOL0     C23287   9.028   8.872   6.038  0.7760 -0.6284 -0.3053
  173MOL0     H23288   9.156   8.627   6.408  0.0745 -0.8723  0.0472
  173MOL0     H23289   9.198   8.560   6.643 -1.1509  0.2097  1.2991
  173MOL0     H23290   9.232   8.838   6.938 -0.1756  0.3103 -1.2057
  173MOL0     H23291   9.058   8.821   6.997  1.0278  2.0263  0.9060
  173MOL0     H23292   9.313   8.689   7.098  0.7537  2.6871  3.4551
  173MOL0     H23293   9.171   8.752   7.174  0.3999 -0.1042  0.2219
  173MOL0     H23294   9.024   8.563   7.064  0.0185  3.4928 -2.5672
  173MOL0     H23295   9.175   8.493   7.029 -0.4538  0.9304  0.9080
  173MOL0     H23296   9.246   8.488   7.269  0.4039 -0.6335  0.5538
  173MOL0     H23297   9.091   8.565   7.312  0.0072  0.0258 -0.0989
  173MOL0     H23298   9.046   8.316   7.339  1.7901 -2.6032 -1.5607
  173MOL0     H23299   8.960   8.397   7.207  0.7878  0.8760 -0.0191
  173MOL0     H23300   9.128   8.281   7.060  1.2216  0.0393  0.9450
  173MOL0     H23301   9.207   8.220   7.207  0.7120  0.7559 -0.6171
  173MOL0     H23302   9.051   8.060   7.227  1.4666  0.2266 -0.2775
  173MOL0     H23303   8.915   8.186   7.233  0.7934  1.3512  0.0143
  173MOL0     H23304   8.916   8.006   7.037 -1.5282  1.2046 -0.4064
  173MOL0     H23305   9.045   8.114   6.972  0.3999  2.7121  0.9107
  173MOL0     H23306   8.691   8.133   7.111  2.5193 -1.4781  0.7674
  173MOL0     H23307   8.494   8.380   6.903  0.8123 -0.2225 -1.6267
  173MOL0     H23308   8.458   8.253   7.012  0.7215  0.6286 -0.8120
  173MOL0     H23309   8.444   8.510   7.057  0.8700 -2.8356 -5.3020
  173MOL0     H23310   8.594   8.491   7.137 -2.3764  3.0527  2.1607
  173MOL0     H23311   8.514   8.354   7.316 -0.6555  0.2426 -0.1484
  173MOL0     H23312   8.375   8.299   7.217  2.9218 -1.3366 -1.1133
  173MOL0     H23313   8.345   8.463   7.422 -1.2336 -0.7727 -0.1857
  173MOL0     H23314   8.267   8.499   7.263  0.3743 -2.1544 -0.4429
  173MOL0     H23315   8.340   8.654   7.548  2.8402  0.9799 -1.3560
  173MOL0     H23316   8.165   8.729   7.689 -2.2609 -1.3092 -3.8501
  173MOL0     H23317   8.257   8.886   7.711 -1.4841  1.7161  1.3314
  173MOL0     H23318   8.077   8.886   7.671  0.2101 -0.2987 -1.7437
  173MOL0     H23319   8.042   9.136   7.794  0.3470 -0.4249 -1.0638
  173MOL0     H23320   7.857   9.319   7.894  1.1419  0.4578  0.2704
  173MOL0     H23321   7.737   9.637   7.660 -1.6824  2.9879  4.0341
  173MOL0     H23322   7.619   9.519   7.584  0.0427  1.4071 -1.2139
  173MOL0     H23323   7.573   9.632   7.870 -1.7862 -1.6501  0.4420
  173MOL0     H23324   7.522   9.719   7.718 -4.1668 -1.1822 -1.1731
  173MOL0     H23325   7.390   9.520   7.648 -2.3443 -0.0292  0.8098
  173MOL0     H23326   7.338   9.595   7.792  0.1966  1.8443 -2.7142
  173MOL0     H23327   7.510   9.344   7.778  0.9312 -2.5287  3.3099
  173MOL0     H23328   7.440   9.420   7.925 -3.3140  2.1096  0.4594
  173MOL0     H23329   7.311   9.287   7.680 -0.7778 -1.6468  1.2757
  173MOL0     H23330   7.206   9.363   7.793 -0.0266  0.1354 -0.1953
  173MOL0     H23331   7.266   9.091   7.802  0.7206 -0.2098 -0.7850
  173MOL0     H23332   7.414   9.155   7.882  0.2431  0.6251 -2.4110
  173MOL0     H23333   7.148   9.265   7.968 -1.0548 -0.5648 -2.1090
  173MOL0     H23334   7.298   9.223   8.069 -1.1001  0.2226  0.7053
  173MOL0     H23335   7.246   8.989   8.040  0.8043  0.8345  1.5147
  173MOL0     H23336   7.090   9.043   7.959  1.4552 -2.9627 -0.2555
  173MOL0     H23337   7.784   9.436   7.506 -0.4114  0.4312  1.9431
  173MOL0     H23338   7.933   9.267   7.411 -1.5823  3.4385 -0.7339
  173MOL0     H23339   8.164   8.967   7.204 -1.4661  1.6020  1.9893
  173MOL0     H23340   8.319   8.798   7.146  1.7232  2.8716 -0.0786
  173MOL0     H23341   9.051   8.947   6.773  1.0588  3.1265 -2.3502
  173MOL0     H23342   9.026   9.011   6.538  2.5372  0.5821 -2.8528
  173MOL0     H23343   9.167   9.174   6.079  0.9441 -0.9521  0.3456
  173MOL0     H23344   9.211   9.142   5.829 -1.0289  0.9610  1.5645
  173MOL0     H23345   9.112   8.755   5.579 -1.0319  1.2688  0.8127
  173MOL0     H23346   9.233   8.873   5.535 -1.6109  1.7281  0.7778
  173MOL0     H23347   9.264   8.731   5.794  1.3532  1.1393  1.4007
  173MOL0     H23348   9.379   8.839   5.708  0.4556  0.3136 -3.6409
  173MOL0     H23349   9.455   8.634   5.682  0.2100 -1.6590 -1.2950
  173MOL0     H23350   9.412   8.688   5.528  0.4181 -2.1286 -0.3297
  173MOL0     H23351   9.192   8.546   5.560  0.7170 -3.7574 -1.1228
  173MOL0     H23352   9.269   8.510   5.718  1.9263  3.7048  1.0207
  173MOL0     H23353   9.484   8.247   5.481  3.2018  0.4455  2.3388
  173MOL0     H23354   8.982   8.790   5.839 -2.3638  1.7454  0.9543
  173MOL0     H23355   8.985   8.783   6.081 -0.8187 -0.7181 -1.9649
  174MOL0     O23356  11.454   7.131   2.133 -0.4476 -0.2183  0.4281
  174MOL0     C23357  11.345   7.099   2.090 -0.0693  0.6727 -0.2066
  174MOL0     O23358  11.287   7.127   1.973 -0.1870  0.0250 -0.6050
  174MOL0     C23359  11.363   7.147   1.860 -0.4225 -0.1889  0.2421
  174MOL0     C23360  11.477   7.079   1.823  0.6967 -1.3430  0.1692
  174MOL0     C23361  11.548   7.111   1.703  0.3714 -1.2263 -0.1987
  174MOL0     C23362  11.502   7.214   1.618  0.2447 -0.1023 -0.1209
  174MOL0     O23363  11.561   7.235   1.495  0.3945 -0.2643  0.4559
  174MOL0     C23364  11.703   7.246   1.494  0.0885 -0.4549  0.7874
  174MOL0     C23365  11.756   7.194   1.362 -0.2082 -0.0658 -0.7384
  174MOL0     C23366  11.908   7.201   1.356  0.4461  0.0639 -0.2545
  174MOL0     C23367  11.960   7.172   1.215  0.1313  0.1244 -0.2148
  174MOL0     C23368  12.107   7.164   1.216  0.4735  0.4109 -0.3709
  174MOL0     C23369  12.155   7.126   1.079 -1.2626  0.4470  0.1398
  174MOL0     C23370  12.308   7.133   1.073 -0.3989 -0.1404  0.2175
  174MOL0     C23371  12.369   7.100   0.930  0.5251 -0.2415  0.0650
  174MOL0     N23372  12.327   7.190   0.828  0.4069  0.3094 -0.0453
  174MOL0     C23373  12.362   7.320   0.837  0.5370  0.0271  0.2760
  174MOL0     C23374  12.350   7.368   0.710 -0.4745  0.6174 -0.4010
  174MOL0     C23375  12.351   7.517   0.687 -0.8902  0.8185  0.7305
  174MOL0     C23376  12.494   7.586   0.704  0.2347  0.6181 -0.4193
  174MOL0     C23377  12.481   7.733   0.674  0.2292  0.0915 -0.8379
  174MOL0     C23378  12.409   7.809   0.795 -0.3326  0.3993 -0.0400
  174MOL0     O23379  12.475   7.802   0.921  0.3461  0.1959 -0.5419
  174MOL0     C23380  12.389   7.788   1.028  0.8215  0.1248 -0.6868
  174MOL0     C23381  12.336   7.665   1.070 -0.1570 -0.9477  0.2831
  174MOL0     C23382  12.244   7.659   1.171  0.4359 -0.5781 -0.5032
  174MOL0     C23383  12.186   7.533   1.210 -0.5439  0.2277  0.2914
  174MOL0     C23384  12.208   7.778   1.233 -0.4638  0.3216 -0.9631
  174MOL0     C23385  12.100   7.774   1.343  0.6878  0.4970  0.8665
  174MOL0     O23386  12.102   7.678   1.438  0.6611 -0.0904  0.4400
  174MOL0     C23387  12.021   7.670   1.545 -1.0193  0.4081 -0.9671
  174MOL0     C23388  12.019   7.769   1.646  0.4640 -0.4303  0.1057
  174MOL0     C23389  11.916   7.772   1.730 -0.7473  0.1070 -0.4443
  174MOL0     C23390  11.845   7.653   1.758 -0.2854 -1.0779 -0.1146
  174MOL0     O23391  11.757   7.657   1.874 -0.3118 -0.1415  0.7163
  174MOL0     C23392  11.681   7.537   1.903 -1.3587  0.0948  0.9369
  174MOL0     C23393  11.581   7.584   2.021  0.2902 -0.2558 -0.3659
  174MOL0     C23394  11.483   7.461   2.052  0.3915 -0.7310 -0.0229
  174MOL0     C23395  11.382   7.510   2.160 -0.0403 -0.5065  0.9097
  174MOL0     C23396  11.285   7.403   2.211 -0.8283 -0.6489  0.6013
  174MOL0     C23397  11.206   7.466   2.323  0.0818 -0.1050 -0.3530
  174MOL0     C23398  11.106   7.362   2.363  0.6655  0.5220  0.2649
  174MOL0     C23399  11.008   7.430   2.457  0.1854 -0.7077 -0.0028
  174MOL0    Cl23400  10.896   7.301   2.494 -0.1615  0.4385  0.1499
  174MOL0     C23401  11.866   7.542   1.683 -0.6961  0.3084  0.1493
  174MOL0     C23402  11.951   7.554   1.568  0.6031 -0.7130 -1.0454
  174MOL0     O23403  12.014   7.859   1.338  0.4697  0.1855  0.0290
  174MOL0     C23404  12.266   7.904   1.206 -0.7928 -0.1202  0.1084
  174MOL0     C23405  12.355   7.905   1.103 -0.4025 -0.2764 -0.1353
  174MOL0     N23406  12.320   7.262   0.627  0.6534  0.0029  0.3792
  174MOL0     N23407  12.301   7.156   0.698  0.5310 -0.9330  0.6706
  174MOL0     C23408  11.389   7.283   1.657 -0.8598 -0.1346 -0.4875
  174MOL0     C23409  11.311   7.239   1.769 -0.4994  0.0476  0.2617
  174MOL0     C23410  11.260   7.035   2.191 -0.1278 -0.3735 -0.3563
  174MOL0     C23411  11.141   6.977   2.149 -0.7737 -0.1993  0.2358
  174MOL0     C23412  11.053   6.917   2.236  1.0879 -0.4474  0.2500
  174MOL0     C23413  11.074   6.929   2.370  1.0484  0.1719  0.3423
  174MOL0     O23414  10.989   6.888   2.464  0.5301 -0.3404  0.1109
  174MOL0     C23415  10.850   6.882   2.447 -0.3899  0.5868 -0.0030
  174MOL0     C23416  10.800   6.734   2.442 -0.4159  0.4088 -0.0799
  174MOL0     C23417  10.648   6.711   2.441 -0.4033  0.2786 -0.4331
  174MOL0     C23418  10.592   6.564   2.436 -0.5330  0.7528 -0.3347
  174MOL0     C23419  10.585   6.496   2.570  0.6421 -0.6689 -0.9293
  174MOL0     C23420  10.575   6.444   2.671  0.3938  0.5274  0.4243
  174MOL0     C23421  11.197   6.987   2.421 -1.4881 -0.4383  0.6446
  174MOL0     C23422  11.290   7.036   2.330 -1.4170  0.8472  0.7022
  174MOL0     H23423  11.511   7.010   1.900  1.0938 -0.1295  1.1081
  174MOL0     H23424  11.642   7.066   1.676  1.5842  3.1554 -4.7749
  174MOL0     H23425  11.720   7.353   1.514  1.5412 -0.1462 -1.7285
  174MOL0     H23426  11.759   7.183   1.563  1.1762 -1.8516 -1.2736
  174MOL0     H23427  11.727   7.095   1.327  2.0769 -0.5780 -1.3728
  174MOL0     H23428  11.719   7.268   1.290  0.1751 -0.5598 -1.4463
  174MOL0     H23429  11.956   7.294   1.386  2.1469 -0.2529 -1.7708
  174MOL0     H23430  11.955   7.120   1.413  0.8534  0.2871 -0.2664
  174MOL0     H23431  11.919   7.074   1.189 -0.3826  0.4281 -0.5735
  174MOL0     H23432  11.930   7.250   1.144  1.3129  1.0816  0.3018
  174MOL0     H23433  12.143   7.259   1.256 -1.4495  1.5071 -1.1230
  174MOL0     H23434  12.139   7.084   1.284 -1.4947  0.5614  0.8151
  174MOL0     H23435  12.130   7.020   1.063  0.0000  0.4033 -1.8953
  174MOL0     H23436  12.108   7.180   0.995  0.0475  0.0942 -0.8541
  174MOL0     H23437  12.330   7.237   1.095  3.2435  0.0189 -3.1375
  174MOL0     H23438  12.356   7.065   1.144  1.2999 -1.7256 -2.2987
  174MOL0     H23439  12.345   6.997   0.900  2.5737  0.1602 -3.4922
  174MOL0     H23440  12.475   7.114   0.950  0.4285  0.5891  0.0241
  174MOL0     H23441  12.371   7.377   0.929 -6.5590  2.8762 -0.1730
  174MOL0     H23442  12.330   7.529   0.580  2.4214  2.0676  0.1029
  174MOL0     H23443  12.280   7.574   0.748 -0.3774  1.5544  0.6601
  174MOL0     H23444  12.573   7.542   0.642  1.3164  0.9316  0.6882
  174MOL0     H23445  12.516   7.561   0.808  0.7331  0.2184 -0.6162
  174MOL0     H23446  12.419   7.748   0.585  0.9433  2.3933 -1.0122
  174MOL0     H23447  12.579   7.778   0.657  1.7897 -1.1353  3.5405
  174MOL0     H23448  12.306   7.774   0.806  0.4206 -1.5911  1.0506
  174MOL0     H23449  12.413   7.915   0.768  3.7170 -0.2130 -2.6180
  174MOL0     H23450  12.358   7.574   1.016  1.6787 -0.6469  0.4711
  174MOL0     H23451  12.214   7.498   1.311 -1.5832  2.2380  1.3368
  174MOL0     H23452  12.077   7.536   1.208 -0.5974  1.4383  2.0003
  174MOL0     H23453  12.222   7.448   1.151  0.0936  0.7029 -0.0168
  174MOL0     H23454  12.079   7.858   1.636  3.0982 -1.7596  2.5596
  174MOL0     H23455  11.908   7.858   1.796 -1.1904 -0.4205  0.2053
  174MOL0     H23456  11.633   7.498   1.813  0.0799 -0.2584  0.2966
  174MOL0     H23457  11.744   7.451   1.930 -2.8653 -1.0254  1.0098
  174MOL0     H23458  11.636   7.623   2.107  1.9223 -1.5331 -0.7896
  174MOL0     H23459  11.519   7.669   1.990 -0.2801 -0.2142  0.8292
  174MOL0     H23460  11.547   7.388   2.101 -0.9286 -1.1405  1.1244
  174MOL0     H23461  11.438   7.428   1.958  1.2473 -0.4567 -0.5407
  174MOL0     H23462  11.432   7.559   2.244 -0.5307  1.5647  0.0397
  174MOL0     H23463  11.314   7.578   2.107  0.2727 -0.0603  1.0779
  174MOL0     H23464  11.349   7.326   2.255 -0.2394 -0.6770 -0.2764
  174MOL0     H23465  11.220   7.355   2.137  0.9417 -2.5466  0.1905
  174MOL0     H23466  11.276   7.507   2.395 -0.3537 -1.2660  0.7680
  174MOL0     H23467  11.160   7.554   2.277  0.2711  0.4330  0.4633
  174MOL0     H23468  11.166   7.291   2.421  0.7876  0.6005  0.2335
  174MOL0     H23469  11.049   7.322   2.279 -2.7383  4.0369  0.5674
  174MOL0     H23470  10.956   7.520   2.423 -0.7549 -0.5604  1.7039
  174MOL0     H23471  11.072   7.457   2.542  2.9125  0.0967 -2.1499
  174MOL0     H23472  11.817   7.448   1.706  1.5715 -2.3499 -4.5080
  174MOL0     H23473  11.976   7.470   1.503  3.4674  0.2650 -1.3517
  174MOL0     H23474  12.250   7.987   1.273  1.2531 -2.7488  4.3120
  174MOL0     H23475  12.386   8.003   1.068  0.6426 -0.0693  1.2999
  174MOL0     H23476  11.333   7.355   1.598 -1.5067 -0.4874 -0.3170
  174MOL0     H23477  11.213   7.281   1.791  0.2055  0.6217  2.5225
  174MOL0     H23478  11.131   6.968   2.041  0.1584  2.2053 -0.0987
  174MOL0     H23479  10.965   6.865   2.197  0.6905  0.4125 -0.0169
  174MOL0     H23480  10.802   6.932   2.531 -2.6212 -0.9586 -0.2747
  174MOL0     H23481  10.821   6.930   2.353  1.3552 -0.1418 -0.9699
  174MOL0     H23482  10.845   6.676   2.523  1.1861  0.5889 -0.8000
  174MOL0     H23483  10.826   6.676   2.352 -2.2742  1.7965 -1.5752
  174MOL0     H23484  10.612   6.764   2.353  0.9217 -2.8087 -3.0461
  174MOL0     H23485  10.598   6.763   2.524  0.7380  0.0272  0.4504
  174MOL0     H23486  10.632   6.509   2.351  1.4819  1.2975  0.2016
  174MOL0     H23487  10.488   6.587   2.409 -0.8233  0.0185  0.1067
  174MOL0     H23488  10.571   6.376   2.754  1.4199  1.3183  1.1473
  174MOL0     H23489  11.225   6.999   2.525 -3.5458 -2.3908  1.5157
  174MOL0     H23490  11.378   7.080   2.376 -2.0692  0.8679  1.9745
  175MOL0     O23491   4.424   4.491   0.905 -0.7726 -0.9703 -0.9258
  175MOL0     C23492   4.321   4.536   0.858  0.3034  0.4168 -0.8122
  175MOL0     O23493   4.197   4.465   0.860 -0.2857 -0.4905 -0.4198
  175MOL0     C23494   4.193   4.367   0.960 -0.9269 -0.0692  0.5271
  175MOL0     C23495   4.205   4.415   1.087 -0.2805  0.4269 -0.2818
  175MOL0     C23496   4.211   4.328   1.195  0.8279  0.8660 -0.3611
  175MOL0     C23497   4.219   4.185   1.171  1.2028 -0.1605  0.0897
  175MOL0     O23498   4.214   4.094   1.270 -0.2648  0.2455 -1.0234
  175MOL0     C23499   4.312   4.106   1.367 -0.3963  0.7460 -1.0975
  175MOL0     C23500   4.322   3.976   1.461 -0.3649 -0.5410 -0.2946
  175MOL0     C23501   4.277   3.843   1.395 -0.1225  0.1458 -0.6137
  175MOL0     C23502   4.391   3.775   1.309 -0.2557  0.4857  0.2431
  175MOL0     C23503   4.333   3.647   1.232 -0.3690 -0.1249 -0.8339
  175MOL0     C23504   4.434   3.588   1.123  0.4821  0.6841 -0.7058
  175MOL0     C23505   4.424   3.435   1.110  1.3030  0.0313 -0.1518
  175MOL0     C23506   4.431   3.355   1.246 -0.9930 -1.1917  0.9254
  175MOL0     N23507   4.398   3.209   1.243  0.7217  0.2025 -0.1434
  175MOL0     C23508   4.482   3.118   1.189 -0.0805 -0.4721  1.0315
  175MOL0     C23509   4.424   2.996   1.212 -0.0332 -0.1401  0.0839
  175MOL0     C23510   4.499   2.869   1.172  0.7386  0.0230  0.4533
  175MOL0     C23511   4.422   2.748   1.200  0.5989 -0.4260 -0.8675
  175MOL0     C23512   4.503   2.624   1.185 -1.2918  0.4569  0.5001
  175MOL0     C23513   4.475   2.573   1.045  0.1953  0.0056 -0.3339
  175MOL0     O23514   4.558   2.458   1.013 -0.2053 -0.4752  0.4459
  175MOL0     C23515   4.512   2.332   1.048 -0.2044 -0.2744  0.5805
  175MOL0     C23516   4.574   2.226   0.979 -0.0837  0.5080 -0.7236
  175MOL0     C23517   4.544   2.092   1.004  0.3198 -0.1771  0.2803
  175MOL0     C23518   4.618   1.979   0.929 -0.7596  0.2645  0.1864
  175MOL0     C23519   4.447   2.066   1.099 -0.2244 -0.3963  0.3552
  175MOL0     C23520   4.397   1.936   1.135  0.5179 -0.2452  0.0096
  175MOL0     O23521   4.474   1.866   1.220 -0.9217 -0.5753 -1.3006
  175MOL0     C23522   4.423   1.748   1.281 -0.9458  0.4085  0.7012
  175MOL0     C23523   4.287   1.717   1.305 -0.0320  0.2907 -1.5263
  175MOL0     C23524   4.250   1.597   1.366  0.7522 -0.3343 -1.1343
  175MOL0     C23525   4.343   1.516   1.434  0.2149  0.6119 -0.4335
  175MOL0     O23526   4.287   1.420   1.525 -0.2678 -0.4224  1.2142
  175MOL0     C23527   4.334   1.445   1.664  0.3030 -0.5487 -0.7565
  175MOL0     C23528   4.216   1.497   1.743 -0.2200  0.3262  0.0010
  175MOL0     C23529   4.167   1.640   1.709 -0.5475 -0.1693  0.5784
  175MOL0     C23530   4.109   1.704   1.834 -0.4827 -0.2268  0.7813
  175MOL0     C23531   3.976   1.644   1.864 -0.4818  0.0748  0.4999
  175MOL0     C23532   3.912   1.715   1.989 -0.3110  0.9270  1.2390
  175MOL0     C23533   3.964   1.664   2.126 -0.4385  0.2768  0.1202
  175MOL0     C23534   3.939   1.524   2.154 -0.8045  0.4871  0.0927
  175MOL0    Cl23535   3.976   1.483   2.330  0.4491  0.0703 -0.2364
  175MOL0     C23536   4.473   1.558   1.425 -1.0709  0.2302  0.2035
  175MOL0     C23537   4.517   1.663   1.345 -0.3034 -0.1503  0.1013
  175MOL0     O23538   4.297   1.901   1.079  0.1957 -0.0309 -0.2102
  175MOL0     C23539   4.369   2.170   1.152  0.3030 -0.7141 -0.1957
  175MOL0     C23540   4.398   2.300   1.123  0.2000  1.4114 -0.0520
  175MOL0     N23541   4.305   3.021   1.279 -0.5096 -0.3945  1.1586
  175MOL0     N23542   4.284   3.151   1.282 -0.8112 -0.1683  0.0862
  175MOL0     C23543   4.210   4.140   1.036  0.5921  1.0678  0.6107
  175MOL0     C23544   4.203   4.227   0.933  0.5157 -0.0863 -0.0717
  175MOL0     C23545   4.320   4.664   0.789  1.0396 -0.7550  0.1116
  175MOL0     C23546   4.433   4.726   0.741  0.9345  0.7085  0.0161
  175MOL0     C23547   4.423   4.849   0.670 -0.3307  0.2636  0.4698
  175MOL0     C23548   4.300   4.916   0.663 -0.2369  0.9719  1.2996
  175MOL0     O23549   4.270   5.026   0.581 -0.1098 -0.7449 -0.0344
  175MOL0     C23550   4.380   5.117   0.552 -0.2279 -0.9576 -0.6867
  175MOL0     C23551   4.340   5.207   0.442 -0.4508  0.0434 -0.2092
  175MOL0     C23552   4.316   5.160   0.298 -0.9875 -0.3637  0.4368
  175MOL0     C23553   4.277   5.278   0.204 -0.1643  0.4203  0.2057
  175MOL0     C23554   4.315   5.236   0.067 -0.2353  0.6816 -0.6329
  175MOL0     C23555   4.345   5.204  -0.038 -1.0403  0.0496 -0.1553
  175MOL0     C23556   4.191   4.854   0.715 -0.2232 -0.0076 -0.6150
  175MOL0     C23557   4.193   4.728   0.777 -1.2078 -0.2196 -0.3164
  175MOL0     H23558   4.205   4.523   1.099  0.3891  0.6824 -2.1444
  175MOL0     H23559   4.211   4.376   1.292 -0.2418 -1.3991  0.8420
  175MOL0     H23560   4.407   4.107   1.313  0.4040 -0.4685  0.2175
  175MOL0     H23561   4.307   4.187   1.439 -0.0548  2.6255 -3.0853
  175MOL0     H23562   4.424   3.961   1.498  0.5327 -1.0647 -2.7915
  175MOL0     H23563   4.266   3.999   1.552  1.9748 -1.6895  1.5526
  175MOL0     H23564   4.254   3.770   1.473 -2.1306  1.7863  0.3990
  175MOL0     H23565   4.188   3.849   1.332  1.1987  1.0335 -2.4982
  175MOL0     H23566   4.442   3.846   1.243 -0.9473 -0.8805 -1.8312
  175MOL0     H23567   4.464   3.745   1.385  1.0543  1.6418 -0.5043
  175MOL0     H23568   4.303   3.575   1.309  2.0009 -2.8267 -2.1908
  175MOL0     H23569   4.239   3.662   1.179 -0.6611 -0.4943 -0.4288
  175MOL0     H23570   4.419   3.635   1.026 -0.8009 -1.7193 -1.7715
  175MOL0     H23571   4.532   3.612   1.165 -1.1081  1.9301  2.6344
  175MOL0     H23572   4.329   3.410   1.063 -0.4549  0.2037  3.0275
  175MOL0     H23573   4.502   3.396   1.044  0.8732  0.4748 -0.9422
  175MOL0     H23574   4.367   3.407   1.318  0.7218  2.6055 -0.0258
  175MOL0     H23575   4.531   3.368   1.289 -1.1441 -0.4382  1.0708
  175MOL0     H23576   4.573   3.151   1.141 -0.7695  3.9529  2.2457
  175MOL0     H23577   4.518   2.869   1.065  1.2395  0.3105  0.5372
  175MOL0     H23578   4.596   2.855   1.220 -0.1641 -3.5596  1.5222
  175MOL0     H23579   4.329   2.754   1.143  0.2488  3.2918 -0.1765
  175MOL0     H23580   4.385   2.756   1.303  1.2625 -2.1474 -0.4552
  175MOL0     H23581   4.459   2.553   1.255  0.0490 -2.1642 -1.1469
  175MOL0     H23582   4.609   2.644   1.202 -1.7893  1.4046  2.7744
  175MOL0     H23583   4.498   2.653   0.973 -1.4825 -0.1190 -1.0644
  175MOL0     H23584   4.368   2.551   1.038  0.3070 -0.7538  0.2365
  175MOL0     H23585   4.662   2.240   0.917  1.0985 -1.5372  0.3470
  175MOL0     H23586   4.618   1.890   0.992 -0.2307  1.1038  1.3905
  175MOL0     H23587   4.548   1.957   0.847  0.8430  0.7511 -1.3650
  175MOL0     H23588   4.717   1.998   0.886 -1.5334 -0.7685 -2.2738
  175MOL0     H23589   4.198   1.774   1.278  0.9126  1.8992 -1.3970
  175MOL0     H23590   4.143   1.579   1.368  0.4680  1.2074 -0.6819
  175MOL0     H23591   4.353   1.356   1.725 -1.9641  1.0006  2.5514
  175MOL0     H23592   4.413   1.520   1.673 -0.8923  0.5147  2.1957
  175MOL0     H23593   4.130   1.431   1.725 -0.5356  0.9918 -1.0041
  175MOL0     H23594   4.234   1.481   1.850  2.1416 -1.0287 -0.5384
  175MOL0     H23595   4.087   1.634   1.634 -1.4557  0.9513  1.4282
  175MOL0     H23596   4.249   1.700   1.668  0.4187 -0.2643  2.2739
  175MOL0     H23597   4.168   1.685   1.924  0.2045 -1.1468  0.1533
  175MOL0     H23598   4.105   1.813   1.826 -0.0103 -0.3516 -2.2480
  175MOL0     H23599   3.988   1.537   1.884 -1.5809 -0.5953 -2.0927
  175MOL0     H23600   3.904   1.646   1.782 -1.0085 -1.7906  0.8765
  175MOL0     H23601   3.918   1.823   1.977 -1.3598  0.9588  0.8974
  175MOL0     H23602   3.807   1.687   1.975  0.4553 -1.4310 -0.4429
  175MOL0     H23603   3.916   1.721   2.207 -1.4594 -0.0693 -0.2286
  175MOL0     H23604   4.069   1.692   2.136 -0.7587  0.8804  2.7157
  175MOL0     H23605   3.998   1.461   2.087  1.9315  2.1148  0.8254
  175MOL0     H23606   3.835   1.502   2.127 -0.0297 -0.1167 -2.8320
  175MOL0     H23607   4.548   1.502   1.480  0.0917 -2.2222 -3.5138
  175MOL0     H23608   4.623   1.680   1.334 -0.7218  1.7940 -1.8331
  175MOL0     H23609   4.280   2.142   1.208 -0.8600 -3.0285 -2.9337
  175MOL0     H23610   4.330   2.371   1.168 -1.7421 -1.2497  1.5598
  175MOL0     H23611   4.218   4.034   1.015  0.1307  1.0114  0.7233
  175MOL0     H23612   4.194   4.201   0.828 -1.2081  1.9920 -0.5135
  175MOL0     H23613   4.531   4.681   0.752 -0.1060 -1.5214  0.7146
  175MOL0     H23614   4.509   4.887   0.616 -1.1033  1.7958  0.2809
  175MOL0     H23615   4.400   5.179   0.641 -3.9021  0.6506 -0.7931
  175MOL0     H23616   4.472   5.062   0.532 -0.5118 -2.2084  1.2067
  175MOL0     H23617   4.411   5.290   0.441  1.2196 -1.3320  0.0659
  175MOL0     H23618   4.238   5.241   0.463 -1.6448 -0.3603 -4.4063
  175MOL0     H23619   4.238   5.084   0.290  0.9669 -2.3527 -0.7202
  175MOL0     H23620   4.401   5.105   0.257  0.5291  1.7126  0.6470
  175MOL0     H23621   4.318   5.377   0.227 -0.4265  1.6626 -3.8548
  175MOL0     H23622   4.170   5.302   0.205 -0.8257 -2.2682  0.4012
  175MOL0     H23623   4.393   5.180  -0.131  2.8269  1.5641  1.2398
  175MOL0     H23624   4.098   4.905   0.694 -1.2150 -0.9564  1.1793
  175MOL0     H23625   4.109   4.671   0.815  0.2671 -2.5378 -0.3884
  176MOL0     O23626   5.218   8.103   3.200  0.0681  0.3066 -0.1304
  176MOL0     C23627   5.115   8.046   3.162 -0.7674 -0.1288  0.5326
  176MOL0     O23628   5.045   7.959   3.240 -0.1198 -0.7283  0.0935
  176MOL0     C23629   5.096   7.906   3.348  0.4079  1.3126 -0.1489
  176MOL0     C23630   5.198   7.814   3.347  0.1418  0.3040 -0.2707
  176MOL0     C23631   5.244   7.768   3.473  0.3951 -0.8169 -0.1465
  176MOL0     C23632   5.166   7.787   3.588 -0.9153  0.1335  0.5211
  176MOL0     O23633   5.208   7.716   3.702  0.1198  0.1635 -0.8357
  176MOL0     C23634   5.239   7.792   3.817 -0.0728  0.8234  0.8945
  176MOL0     C23635   5.360   7.724   3.885 -0.4089  0.0640 -0.6411
  176MOL0     C23636   5.485   7.735   3.805  0.0098 -0.4804 -0.0995
  176MOL0     C23637   5.543   7.877   3.824 -0.0833  0.4744 -0.1284
  176MOL0     C23638   5.685   7.891   3.757 -0.0267  0.0378 -0.3706
  176MOL0     C23639   5.721   8.045   3.774 -0.2847 -0.6449  0.3648
  176MOL0     C23640   5.873   8.067   3.777 -0.2039  0.3609  0.0453
  176MOL0     C23641   5.936   8.040   3.641  0.4761  0.5579 -0.0014
  176MOL0     N23642   5.921   8.141   3.534  0.2014  0.3067 -0.7514
  176MOL0     C23643   5.800   8.165   3.472  0.4738 -0.0372 -0.1391
  176MOL0     C23644   5.809   8.285   3.414  0.0591 -0.5589 -0.6772
  176MOL0     C23645   5.718   8.340   3.309 -0.1076 -0.0991  0.6978
  176MOL0     C23646   5.760   8.285   3.180  0.0631 -0.0552  0.0241
  176MOL0     C23647   5.676   8.343   3.052 -1.1681  0.2592  0.0251
  176MOL0     C23648   5.653   8.492   3.047 -0.7670 -0.2398 -0.0679
  176MOL0     O23649   5.541   8.522   3.136 -0.5362  0.2288  0.0772
  176MOL0     C23650   5.434   8.567   3.072 -0.4430  0.6407  0.6436
  176MOL0     C23651   5.430   8.691   3.001 -0.0746  0.9745 -0.0877
  176MOL0     C23652   5.304   8.726   2.948  0.1384  0.4689 -0.1082
  176MOL0     C23653   5.298   8.861   2.881  0.0050  0.9716 -0.7312
  176MOL0     C23654   5.186   8.645   2.949  0.6504  0.6803 -0.6088
  176MOL0     C23655   5.055   8.693   2.904 -0.5933  0.5643 -0.3715
  176MOL0     O23656   5.017   8.829   2.890 -0.2516  0.4684  0.3504
  176MOL0     C23657   4.903   8.847   2.822 -0.2306  0.2232 -0.2035
  176MOL0     C23658   4.910   8.939   2.716 -0.4836 -0.2820 -0.0247
  176MOL0     C23659   4.797   8.978   2.642  0.3045  0.5078 -0.1655
  176MOL0     C23660   4.669   8.916   2.667  0.7363 -0.5628  0.3801
  176MOL0     O23661   4.551   8.948   2.594  0.2892  0.2528 -0.3204
  176MOL0     C23662   4.537   9.070   2.535 -0.4741 -0.1786  0.2390
  176MOL0     C23663   4.511   9.173   2.646 -0.7002  0.1517  0.8458
  176MOL0     C23664   4.475   9.308   2.590  0.3672  0.0025 -0.6496
  176MOL0     C23665   4.439   9.422   2.692 -0.3876 -0.7511 -0.8194
  176MOL0     C23666   4.558   9.471   2.777  1.2988  0.2038 -1.2365
  176MOL0     C23667   4.551   9.626   2.808  0.9510  1.5422  0.6524
  176MOL0     C23668   4.672   9.671   2.887  0.2355  0.4595  0.3089
  176MOL0     C23669   4.666   9.821   2.905 -0.3987 -0.0295 -0.7420
  176MOL0    Cl23670   4.688   9.906   2.753 -0.2259 -0.5147  0.2476
  176MOL0     C23671   4.652   8.833   2.766 -0.2089  0.4679 -1.7852
  176MOL0     C23672   4.773   8.801   2.848  0.1269  0.0901 -0.2923
  176MOL0     O23673   4.990   8.599   2.855  0.8632 -0.4131 -0.5220
  176MOL0     C23674   5.200   8.520   3.012 -0.4638 -0.8394 -0.1082
  176MOL0     C23675   5.322   8.485   3.075  0.2121  0.1501 -0.9868
  176MOL0     N23676   5.927   8.345   3.456  0.3116  1.0316  0.4251
  176MOL0     N23677   5.993   8.252   3.521  0.5050 -0.3141  0.7486
  176MOL0     C23678   5.048   7.860   3.580  0.4909 -0.5761 -0.9648
  176MOL0     C23679   5.017   7.917   3.461  0.8202  1.2182 -0.4745
  176MOL0     C23680   5.058   8.078   3.032 -0.0329 -0.4030  0.8966
  176MOL0     C23681   4.952   7.994   2.984 -1.1556  0.2567  0.8538
  176MOL0     C23682   4.895   8.020   2.857  0.4611  0.5683 -0.4892
  176MOL0     C23683   4.934   8.132   2.780 -0.7079  0.1169  0.1656
  176MOL0     O23684   4.875   8.146   2.655  0.1427  0.2831 -0.8374
  176MOL0     C23685   4.937   8.245   2.568 -1.2569  0.1558  0.2784
  176MOL0     C23686   4.886   8.234   2.427 -0.7946 -0.1443 -0.0882
  176MOL0     C23687   4.741   8.261   2.422  0.8492  0.9816  0.2973
  176MOL0     C23688   4.701   8.388   2.361  0.1674  1.1471  0.1403
  176MOL0     C23689   4.750   8.497   2.448  0.3910 -0.2209  0.4992
  176MOL0     C23690   4.804   8.579   2.518 -0.5941 -0.5273 -0.2809
  176MOL0     C23691   5.032   8.223   2.837  0.6700 -0.1538  0.7045
  176MOL0     C23692   5.090   8.185   2.952  0.1784  0.7260  0.1235
  176MOL0     H23693   5.255   7.800   3.256  0.2220  1.1358 -0.3582
  176MOL0     H23694   5.341   7.721   3.483  1.2839  1.0584  0.3897
  176MOL0     H23695   5.262   7.892   3.780  4.9259 -0.7914 -1.2466
  176MOL0     H23696   5.160   7.787   3.893  1.1497  1.7502  2.2885
  176MOL0     H23697   5.373   7.777   3.980 -4.8062 -1.6823  1.1827
  176MOL0     H23698   5.338   7.622   3.917 -6.4817  1.4319  0.7031
  176MOL0     H23699   5.556   7.659   3.838 -1.1759 -1.2024  0.8781
  176MOL0     H23700   5.476   7.715   3.698  1.6815 -0.3131 -0.2946
  176MOL0     H23701   5.471   7.949   3.787  0.2973  0.6347 -0.5676
  176MOL0     H23702   5.538   7.899   3.931 -1.8448  0.3336 -0.1663
  176MOL0     H23703   5.751   7.820   3.807  1.2201  0.5169 -1.2932
  176MOL0     H23704   5.682   7.870   3.650 -1.5354 -0.4770 -0.2518
  176MOL0     H23705   5.667   8.105   3.701 -0.3793 -0.9703  0.1636
  176MOL0     H23706   5.674   8.068   3.870 -2.4908 -0.2839 -0.7489
  176MOL0     H23707   5.902   8.162   3.822 -2.9139  1.5456 -0.4946
  176MOL0     H23708   5.909   7.981   3.833  1.2927  0.3145 -0.9278
  176MOL0     H23709   5.897   7.945   3.603 -1.3077  0.9547  0.7404
  176MOL0     H23710   6.044   8.028   3.655  0.4230  0.4675  0.3267
  176MOL0     H23711   5.714   8.099   3.468 -0.6693  1.3575  0.1479
  176MOL0     H23712   5.615   8.315   3.335 -0.2696  0.4725  0.6319
  176MOL0     H23713   5.715   8.450   3.315  3.4283  0.0774  1.1422
  176MOL0     H23714   5.762   8.176   3.188  0.5045 -0.3752 -3.1420
  176MOL0     H23715   5.866   8.314   3.172 -0.0988  1.6316  2.6503
  176MOL0     H23716   5.581   8.289   3.050 -1.8765  1.2590  2.4786
  176MOL0     H23717   5.733   8.321   2.962  0.9387  2.9493  0.5646
  176MOL0     H23718   5.613   8.503   2.946  0.1097 -0.3316 -0.4294
  176MOL0     H23719   5.738   8.559   3.059 -1.7051  1.0515 -0.3269
  176MOL0     H23720   5.515   8.755   3.017  0.4146 -0.4390  3.9662
  176MOL0     H23721   5.251   8.848   2.783  2.4451 -0.1548 -1.8642
  176MOL0     H23722   5.242   8.924   2.951  3.0542  1.0881  1.8426
  176MOL0     H23723   5.399   8.898   2.861 -0.6794  3.1367 -0.4057
  176MOL0     H23724   4.999   8.995   2.689 -0.4473 -0.3134  0.0303
  176MOL0     H23725   4.806   9.055   2.567 -4.9270 -0.7382 -2.5450
  176MOL0     H23726   4.610   9.099   2.459 -1.0823  0.2952 -0.1788
  176MOL0     H23727   4.446   9.054   2.475 -0.3664 -0.5167  0.1672
  176MOL0     H23728   4.446   9.137   2.726 -0.7378 -2.1571 -0.1638
  176MOL0     H23729   4.610   9.198   2.687 -0.6073  0.4730  0.4316
  176MOL0     H23730   4.380   9.290   2.538  0.7500 -0.6168 -1.1413
  176MOL0     H23731   4.560   9.336   2.527  1.1044  0.2888  0.4645
  176MOL0     H23732   4.385   9.504   2.644 -2.0238  1.5183  4.2064
  176MOL0     H23733   4.371   9.389   2.770 -1.0138  2.5929  0.1943
  176MOL0     H23734   4.650   9.458   2.718 -0.2002 -0.8326 -3.4564
  176MOL0     H23735   4.571   9.419   2.872  1.4596 -3.1409 -2.9701
  176MOL0     H23736   4.559   9.669   2.707  1.8122 -1.4687 -0.6774
  176MOL0     H23737   4.459   9.660   2.856  0.2120  0.9731 -0.3254
  176MOL0     H23738   4.756   9.637   2.826  1.0191 -1.9716  2.5378
  176MOL0     H23739   4.663   9.621   2.984 -6.5439  1.2472  0.6019
  176MOL0     H23740   4.739   9.851   2.982 -0.3373 -2.1290  0.0870
  176MOL0     H23741   4.567   9.839   2.949  0.8808 -1.1469  3.0442
  176MOL0     H23742   4.557   8.795   2.800  0.5298 -2.3447 -2.6349
  176MOL0     H23743   4.758   8.731   2.929 -4.4274 -0.8919 -1.6907
  176MOL0     H23744   5.111   8.460   3.030 -0.7260 -0.2120  0.7103
  176MOL0     H23745   5.320   8.397   3.139 -0.6331  1.8319  1.4580
  176MOL0     H23746   4.987   7.853   3.669 -2.1187  4.7152 -1.9167
  176MOL0     H23747   4.934   7.986   3.455 -1.1292 -0.4677  3.6191
  176MOL0     H23748   4.930   7.901   3.036 -1.8697  1.2831  2.4509
  176MOL0     H23749   4.831   7.944   2.812  1.1311  0.3507 -1.0792
  176MOL0     H23750   4.920   8.350   2.594 -0.5386  0.2904  0.2073
  176MOL0     H23751   5.042   8.215   2.570 -1.8203 -1.9685  2.9354
  176MOL0     H23752   4.920   8.137   2.390  0.3684  0.1754  0.1050
  176MOL0     H23753   4.947   8.303   2.367  2.7924 -1.8750  1.2921
  176MOL0     H23754   4.699   8.264   2.524 -1.0440  1.5140 -0.4517
  176MOL0     H23755   4.698   8.177   2.368  1.0285 -1.0034  3.0103
  176MOL0     H23756   4.593   8.391   2.341  0.6185  0.1519 -2.9740
  176MOL0     H23757   4.745   8.404   2.262 -1.1009 -1.4037 -0.9543
  176MOL0     H23758   4.847   8.654   2.581 -2.0139  1.4875 -1.5817
  176MOL0     H23759   5.054   8.311   2.778 -0.2485 -1.7181 -2.1615
  176MOL0     H23760   5.175   8.247   2.980  0.6284  0.0180  0.3458
  177MOL0     O23761   4.761   0.005   3.638 -0.0846 -0.4930 -0.3869
  177MOL0     C23762   4.772  -0.103   3.688 -0.2807 -0.2032 -0.5303
  177MOL0     O23763   4.826  -0.207   3.633  0.0093  0.2266  0.2276
  177MOL0     C23764   4.881  -0.204   3.502 -0.4044 -0.2619 -0.2274
  177MOL0     C23765   4.939  -0.088   3.440 -0.1527  0.3849 -1.3761
  177MOL0     C23766   4.988  -0.091   3.309  0.2183 -1.6039  0.0533
  177MOL0     C23767   4.987  -0.202   3.233 -0.6103  0.5212  1.0601
  177MOL0     O23768   5.044  -0.205   3.111  0.1324 -0.0602  0.1331
  177MOL0     C23769   5.160  -0.281   3.109  1.1869  0.1343  0.9977
  177MOL0     C23770   5.204  -0.293   2.958 -0.2575 -0.8739 -0.1074
  177MOL0     C23771   5.353  -0.336   2.955  0.3195 -0.1141 -0.1457
  177MOL0     C23772   5.374  -0.477   3.010  0.4263  0.5592  0.8173
  177MOL0     C23773   5.490  -0.482   3.109 -0.3570  0.2498  0.7396
  177MOL0     C23774   5.435  -0.472   3.256 -0.2914  0.3983 -0.3196
  177MOL0     C23775   5.525  -0.554   3.359  0.4709  0.1325  0.1071
  177MOL0     C23776   5.651  -0.476   3.367  0.3494  0.4568  0.0070
  177MOL0     N23777   5.723  -0.510   3.485  0.0354  0.1357 -0.0058
  177MOL0     C23778   5.854  -0.553   3.494 -0.8052 -0.7152  0.3366
  177MOL0     C23779   5.881  -0.555   3.624 -0.1238 -1.2742 -0.0830
  177MOL0     C23780   6.005  -0.581   3.696  0.2045  1.3928 -0.2596
  177MOL0     C23781   6.091  -0.448   3.695 -0.5026 -0.7243  0.2875
  177MOL0     C23782   6.203  -0.443   3.794 -0.9303 -0.0424  0.7720
  177MOL0     C23783   6.306  -0.349   3.751 -0.4208 -0.7768  0.1741
  177MOL0     O23784   6.250  -0.213   3.761 -0.0550 -0.0153  0.2329
  177MOL0     C23785   6.335  -0.125   3.808  0.4170  0.3629 -0.1073
  177MOL0     C23786   6.473  -0.125   3.788  0.0975 -0.6141  0.0970
  177MOL0     C23787   6.547  -0.031   3.860 -0.5710 -0.6408 -0.9370
  177MOL0     C23788   6.697  -0.032   3.833  0.1119 -0.5894 -0.0260
  177MOL0     C23789   6.493   0.064   3.961  0.8958  0.1669 -0.3206
  177MOL0     C23790   6.554   0.145   4.061  0.4675 -0.2391  0.6315
  177MOL0     O23791   6.481   0.236   4.136 -0.1556  0.5215  0.4227
  177MOL0     C23792   6.532   0.281   4.258  0.0593  0.1634  0.4255
  177MOL0     C23793   6.639   0.360   4.251 -0.0491  0.2001  0.4490
  177MOL0     C23794   6.696   0.439   4.352  0.2949 -0.0884 -0.4321
  177MOL0     C23795   6.625   0.428   4.482 -0.1045 -0.0951 -0.2147
  177MOL0     O23796   6.683   0.493   4.584 -0.5554 -0.0264  0.1081
  177MOL0     C23797   6.600   0.509   4.702 -0.2765 -0.1967  0.4104
  177MOL0     C23798   6.608   0.653   4.765  0.1106  0.6373  0.3289
  177MOL0     C23799   6.743   0.712   4.741 -0.3976 -0.4157  0.0190
  177MOL0     C23800   6.765   0.834   4.833 -0.9756  0.0964 -0.0070
  177MOL0     C23801   6.898   0.826   4.912 -0.0117 -0.2756  0.8019
  177MOL0     C23802   7.022   0.843   4.821  0.0692 -0.6094  0.9601
  177MOL0     C23803   7.132   0.915   4.900 -0.4029  0.3027 -0.3407
  177MOL0     C23804   7.252   0.961   4.813  0.6576 -0.0605  0.0289
  177MOL0    Cl23805   7.193   1.084   4.707  0.6773 -0.2853  0.1796
  177MOL0     C23806   6.519   0.334   4.495 -0.1058 -0.1752  0.8771
  177MOL0     C23807   6.474   0.261   4.383  0.3564 -0.3877  1.1610
  177MOL0     O23808   6.670   0.114   4.076  0.6196 -0.2402 -0.4413
  177MOL0     C23809   6.347   0.060   3.968 -0.1943 -0.6544  1.2895
  177MOL0     C23810   6.278  -0.022   3.886  0.3333  0.8049  1.2827
  177MOL0     N23811   5.766  -0.523   3.696 -1.2113  0.4200  0.0620
  177MOL0     N23812   5.671  -0.501   3.612 -0.6680 -0.3886  0.6719
  177MOL0     C23813   4.930  -0.319   3.297  0.3442  0.0191 -0.3142
  177MOL0     C23814   4.877  -0.320   3.424 -0.2433 -0.1047 -0.2193
  177MOL0     C23815   4.722  -0.118   3.832  1.0891 -0.1228  0.4005
  177MOL0     C23816   4.747  -0.241   3.894 -0.5113  0.2296 -0.1573
  177MOL0     C23817   4.702  -0.271   4.023 -0.1316 -0.9890 -0.0338
  177MOL0     C23818   4.609  -0.178   4.078  1.0285  0.6595  0.0293
  177MOL0     O23819   4.556  -0.219   4.201 -0.9155 -0.8891 -0.1634
  177MOL0     C23820   4.457  -0.142   4.258 -0.2574  0.4553 -0.2581
  177MOL0     C23821   4.511  -0.030   4.361 -0.3097  0.2758 -0.1088
  177MOL0     C23822   4.402   0.012   4.453 -0.1245 -1.2809  0.7141
  177MOL0     C23823   4.418   0.153   4.504  0.8380 -0.0543  0.6825
  177MOL0     C23824   4.405   0.256   4.399  0.5000  0.7239  0.1992
  177MOL0     C23825   4.405   0.339   4.310  0.7797  0.3222 -0.6357
  177MOL0     C23826   4.591  -0.049   4.019  0.2548 -0.1238 -0.4848
  177MOL0     C23827   4.645  -0.017   3.900  0.0924 -0.3052 -0.3710
  177MOL0     H23828   4.949  -0.006   3.510  0.9450 -2.2564  1.8730
  177MOL0     H23829   5.045  -0.004   3.280 -1.5220 -0.0011  1.2405
  177MOL0     H23830   5.229  -0.226   3.174  0.7444  2.5097 -0.4087
  177MOL0     H23831   5.146  -0.382   3.147  5.0185 -2.4480 -3.3376
  177MOL0     H23832   5.135  -0.357   2.901 -2.0003  0.7027  0.1144
  177MOL0     H23833   5.195  -0.192   2.916  4.6463  1.2085  2.9435
  177MOL0     H23834   5.365  -0.345   2.847 -4.3847  0.7800 -0.9959
  177MOL0     H23835   5.406  -0.248   2.993 -3.7566  4.0125 -2.9635
  177MOL0     H23836   5.283  -0.524   3.049 -0.4595  1.3812 -0.1741
  177MOL0     H23837   5.406  -0.545   2.931 -1.0512 -0.3624  0.9836
  177MOL0     H23838   5.525  -0.586   3.107 -1.8177 -0.2562 -1.0224
  177MOL0     H23839   5.565  -0.409   3.077  0.2194 -1.2098 -1.5104
  177MOL0     H23840   5.420  -0.367   3.284 -0.4969  0.3821 -0.3699
  177MOL0     H23841   5.334  -0.512   3.271 -1.3131  1.6583 -3.2103
  177MOL0     H23842   5.475  -0.550   3.456  0.2239  1.9864 -0.0720
  177MOL0     H23843   5.526  -0.656   3.319 -1.4717  0.1832 -0.1378
  177MOL0     H23844   5.638  -0.368   3.374  0.3665  0.3989  1.0200
  177MOL0     H23845   5.713  -0.511   3.283 -0.5992  2.8509 -1.8083
  177MOL0     H23846   5.913  -0.574   3.405  1.8264  1.9028  1.3087
  177MOL0     H23847   5.981  -0.615   3.797  2.8435 -0.2313 -0.0873
  177MOL0     H23848   6.063  -0.666   3.662  0.2358  1.0933  0.5135
  177MOL0     H23849   6.033  -0.357   3.713  2.1578  1.1193  0.1194
  177MOL0     H23850   6.127  -0.441   3.592 -2.7812 -0.3625 -0.5299
  177MOL0     H23851   6.249  -0.541   3.807 -0.0360  0.0177 -1.4526
  177MOL0     H23852   6.169  -0.431   3.897 -1.2703 -1.5372  0.8556
  177MOL0     H23853   6.338  -0.364   3.647  0.6334  0.7084  0.2626
  177MOL0     H23854   6.398  -0.361   3.807  1.3101  0.1385 -2.3026
  177MOL0     H23855   6.532  -0.195   3.729  0.2901 -2.9032  2.7986
  177MOL0     H23856   6.708  -0.077   3.734 -1.1023 -1.8229  0.3790
  177MOL0     H23857   6.730   0.072   3.830  0.5555 -0.7313 -3.4250
  177MOL0     H23858   6.758  -0.081   3.909  0.6030  0.9877  0.6309
  177MOL0     H23859   6.680   0.403   4.160 -1.0361  1.3197  0.5126
  177MOL0     H23860   6.783   0.496   4.322  0.6278 -2.2400 -4.1235
  177MOL0     H23861   6.495   0.494   4.676  0.4003 -1.2548 -1.9455
  177MOL0     H23862   6.636   0.444   4.783  2.3539  1.6917  0.9004
  177MOL0     H23863   6.540   0.721   4.713  2.9612  0.4934 -4.1390
  177MOL0     H23864   6.588   0.648   4.872  2.2692  0.9082  0.7973
  177MOL0     H23865   6.761   0.745   4.638 -0.5443  1.1403  0.4691
  177MOL0     H23866   6.824   0.641   4.764  1.6489  0.3769 -3.8180
  177MOL0     H23867   6.766   0.926   4.774 -1.7265 -0.1485 -0.4216
  177MOL0     H23868   6.684   0.838   4.906 -1.7813  0.6016 -0.9049
  177MOL0     H23869   6.901   0.729   4.963  0.7316  1.3087  4.0767
  177MOL0     H23870   6.886   0.904   4.988 -0.9775  0.4160 -0.0331
  177MOL0     H23871   7.061   0.746   4.789 -1.0567 -0.6110 -0.4770
  177MOL0     H23872   7.000   0.894   4.727 -0.5548  0.5541  1.7078
  177MOL0     H23873   7.171   0.856   4.983  0.5717  0.3665 -0.7411
  177MOL0     H23874   7.088   1.005   4.944 -2.4956 -1.4382  1.3410
  177MOL0     H23875   7.290   0.874   4.759  0.7231 -0.9004  1.3946
  177MOL0     H23876   7.323   1.005   4.883 -0.9824  1.5019  0.8115
  177MOL0     H23877   6.460   0.323   4.586  0.0565  1.5030  1.2214
  177MOL0     H23878   6.380   0.210   4.403  0.1280 -1.6957 -2.5154
  177MOL0     H23879   6.298   0.131   4.034 -0.4838 -0.5498  0.9623
  177MOL0     H23880   6.171  -0.014   3.894  0.2329 -1.1815  2.7791
  177MOL0     H23881   4.930  -0.414   3.245  0.9059 -1.7644  2.7575
  177MOL0     H23882   4.835  -0.415   3.458 -0.2395  0.5822  1.8304
  177MOL0     H23883   4.815  -0.312   3.850  1.2057  2.3783 -1.1480
  177MOL0     H23884   4.727  -0.362   4.076  1.7331 -0.9254 -0.7180
  177MOL0     H23885   4.395  -0.094   4.181  0.4247  1.2492 -0.3251
  177MOL0     H23886   4.397  -0.223   4.300  0.6497 -2.7657 -4.4974
  177MOL0     H23887   4.566   0.045   4.305  0.6400 -0.9841 -0.9183
  177MOL0     H23888   4.595  -0.075   4.414 -0.5242  0.9529  0.8306
  177MOL0     H23889   4.386  -0.055   4.538 -1.4680  0.3266  1.8002
  177MOL0     H23890   4.305   0.005   4.403  0.2179 -1.5963  0.0786
  177MOL0     H23891   4.517   0.163   4.550  1.2245  2.1954 -0.5228
  177MOL0     H23892   4.343   0.172   4.581  0.7779  1.2168  0.3219
  177MOL0     H23893   4.409   0.409   4.229  1.7904  0.6492 -0.3275
  177MOL0     H23894   4.524   0.021   4.067 -1.7266 -0.7384 -2.2358
  177MOL0     H23895   4.631   0.078   3.850  2.0780 -0.5098 -1.3881
  178MOL0     O23896   3.970   8.795  11.401  0.6552  0.1003 -0.4564
  178MOL0     C23897   3.862   8.739  11.361 -1.0577 -0.9367  0.7689
  178MOL0     O23898   3.824   8.729  11.241  0.0366 -0.3757 -0.3480
  178MOL0     C23899   3.910   8.770  11.133  0.1328 -0.0689 -0.5539
  178MOL0     C23900   3.846   8.821  11.020  0.1014 -0.5863  1.8508
  178MOL0     C23901   3.918   8.879  10.914  0.4356  0.1364  0.0242
  178MOL0     C23902   4.058   8.893  10.912 -0.3593 -0.0860 -0.1835
  178MOL0     O23903   4.109   8.938  10.798  0.9368 -0.4418 -0.2086
  178MOL0     C23904   4.226   9.017  10.795 -0.2341 -0.9919 -0.1842
  178MOL0     C23905   4.188   9.161  10.753 -0.6722 -1.0251 -0.0627
  178MOL0     C23906   4.090   9.230  10.843 -0.1410 -0.5288  0.3803
  178MOL0     C23907   4.182   9.309  10.939  0.6515  1.0226 -0.0593
  178MOL0     C23908   4.099   9.387  11.050  0.3108 -0.3779  0.3819
  178MOL0     C23909   4.015   9.298  11.143  0.1036 -0.5634  0.0739
  178MOL0     C23910   4.087   9.187  11.213  0.1319  0.9131 -0.4346
  178MOL0     C23911   3.989   9.108  11.297 -0.1761 -0.4605  0.0219
  178MOL0     N23912   3.929   9.180  11.408 -0.1668  0.2866 -0.2858
  178MOL0     C23913   3.994   9.236  11.511  0.0475 -0.1958 -1.1086
  178MOL0     C23914   3.904   9.286  11.600  0.3581 -0.0281  0.2135
  178MOL0     C23915   3.932   9.361  11.720 -0.8126  0.4632  0.1279
  178MOL0     C23916   3.944   9.273  11.846  0.3686 -0.0274  0.0374
  178MOL0     C23917   4.022   9.340  11.973  0.4674 -0.4133  0.9394
  178MOL0     C23918   4.045   9.242  12.080 -0.4562  0.1051  0.5501
  178MOL0     O23919   4.112   9.299  12.198 -0.7740 -0.4716  0.0204
  178MOL0     C23920   4.039   9.316  12.321 -0.0489  1.2067 -0.4381
  178MOL0     C23921   4.108   9.309  12.442 -0.7102  0.2495  0.1886
  178MOL0     C23922   4.037   9.304  12.569 -0.7325 -1.0574  0.6786
  178MOL0     C23923   4.123   9.297  12.696  0.0164  0.3682  0.5470
  178MOL0     C23924   3.899   9.322  12.562 -0.3687  0.8545 -0.2729
  178MOL0     C23925   3.814   9.320  12.683 -0.2506  0.0174 -0.4125
  178MOL0     O23926   3.693   9.388  12.682  0.3852 -0.1338  0.5836
  178MOL0     C23927   3.610   9.370  12.799 -0.5319 -0.4145  0.3345
  178MOL0     C23928   3.649   9.353  12.937  0.0820  0.3706  0.3387
  178MOL0     C23929   3.553   9.336  13.031 -0.5032  0.1361  0.4003
  178MOL0     C23930   3.410   9.326  12.995  0.1597  0.0802 -0.4220
  178MOL0     O23931   3.310   9.325  13.087 -0.0180  0.2323 -0.5227
  178MOL0     C23932   3.276   9.443  13.152  0.3102 -0.2795  0.2997
  178MOL0     C23933   3.168   9.406  13.251  0.6806 -1.1348 -0.1260
  178MOL0     C23934   3.134   9.518  13.354 -0.0582  0.4256 -0.4524
  178MOL0     C23935   3.083   9.466  13.489 -0.2301 -0.8695  0.1105
  178MOL0     C23936   3.026   9.578  13.577 -0.5969  0.1407  0.0345
  178MOL0     C23937   2.979   9.521  13.706 -0.2125 -0.4093  0.7155
  178MOL0     C23938   2.946   9.622  13.812 -0.9811 -0.0413  0.1134
  178MOL0     C23939   2.847   9.565  13.912  1.2934 -0.2852  0.0904
  178MOL0    Cl23940   2.827   9.696  14.040  0.2453 -0.2544 -0.1828
  178MOL0     C23941   3.373   9.349  12.866  0.6074  0.9149 -0.6281
  178MOL0     C23942   3.479   9.367  12.769 -0.4617  0.6268  0.6533
  178MOL0     O23943   3.852   9.240  12.768  0.9753 -0.4059  0.1726
  178MOL0     C23944   3.839   9.350  12.442 -0.9065  0.1488  0.3189
  178MOL0     C23945   3.905   9.334  12.319  0.5061 -0.0334 -0.1271
  178MOL0     N23946   3.780   9.240  11.561 -0.0497 -0.0936  0.0362
  178MOL0     N23947   3.797   9.183  11.443 -0.3256  0.3851 -0.1717
  178MOL0     C23948   4.119   8.817  11.018  0.0631 -0.1397  0.3594
  178MOL0     C23949   4.049   8.761  11.125  0.3514 -0.8000  0.1086
  178MOL0     C23950   3.774   8.697  11.461  0.3422 -0.9904 -0.8448
  178MOL0     C23951   3.827   8.656  11.582 -0.1920 -0.1877  0.6068
  178MOL0     C23952   3.736   8.611  11.687 -0.2898 -0.7140  0.3667
  178MOL0     C23953   3.592   8.623  11.670  0.1035  0.5238 -0.5097
  178MOL0     O23954   3.496   8.571  11.762  0.4329 -0.5758  0.1127
  178MOL0     C23955   3.546   8.481  11.860  0.9098 -0.1463 -0.6352
  178MOL0     C23956   3.430   8.430  11.938  0.6639  0.4476  0.0984
  178MOL0     C23957   3.338   8.525  12.008 -0.0597  1.5634  0.1380
  178MOL0     C23958   3.412   8.623  12.096  0.6566 -0.7856  0.3032
  178MOL0     C23959   3.325   8.646  12.219  0.3798  0.2355  0.1784
  178MOL0     C23960   3.258   8.679  12.316  0.3692  1.4132 -0.0413
  178MOL0     C23961   3.550   8.674  11.549 -0.2041 -0.1990  0.4330
  178MOL0     C23962   3.636   8.707  11.447  0.6934  0.6566  0.1472
  178MOL0     H23963   3.738   8.812  11.024 -0.0190 -0.0335  0.2987
  178MOL0     H23964   3.874   8.932  10.830  0.9240 -0.5931 -0.7013
  178MOL0     H23965   4.272   9.034  10.893 -0.5856  2.2671 -0.4634
  178MOL0     H23966   4.293   8.973  10.721  0.2392 -0.1057 -0.3035
  178MOL0     H23967   4.274   9.221  10.722 -3.6169  2.8753 -1.5587
  178MOL0     H23968   4.130   9.167  10.660 -0.9411  1.6581  0.2133
  178MOL0     H23969   4.030   9.297  10.780  1.1498  0.0814 -0.2435
  178MOL0     H23970   4.025   9.161  10.897 -0.1894  0.1094  1.1696
  178MOL0     H23971   4.241   9.233  10.989  0.1303 -0.9337 -2.2445
  178MOL0     H23972   4.253   9.382  10.898  2.6252 -0.5259  0.4532
  178MOL0     H23973   4.176   9.439  11.107  2.2169 -2.9434  0.2873
  178MOL0     H23974   4.032   9.466  11.013  3.6179  2.8994  0.7720
  178MOL0     H23975   3.972   9.359  11.223  1.5314 -0.8716  1.1096
  178MOL0     H23976   3.938   9.256  11.077 -1.1414  2.2588 -0.4452
  178MOL0     H23977   4.137   9.126  11.138  1.4724  3.6654 -1.9556
  178MOL0     H23978   4.171   9.222  11.272 -0.1915 -1.6158  1.6836
  178MOL0     H23979   4.031   9.013  11.333 -1.9123 -0.8801  1.0204
  178MOL0     H23980   3.911   9.084  11.225 -2.2438  1.5501  1.4772
  178MOL0     H23981   4.100   9.258  11.520  0.2255  0.2982 -3.5421
  178MOL0     H23982   4.021   9.423  11.713 -3.4569  4.6129 -0.3470
  178MOL0     H23983   3.857   9.440  11.732 -1.3223  0.3923 -2.1620
  178MOL0     H23984   3.996   9.180  11.821  0.9552  0.8044 -1.9707
  178MOL0     H23985   3.840   9.251  11.874 -0.1755  0.0910 -1.8116
  178MOL0     H23986   3.956   9.419  12.013 -1.3435 -1.4872  0.1706
  178MOL0     H23987   4.112   9.393  11.940 -0.2437 -0.9207 -2.0969
  178MOL0     H23988   4.081   9.147  12.041 -2.5950  0.4717 -2.6604
  178MOL0     H23989   3.947   9.204  12.108 -1.6577  1.3068 -1.7537
  178MOL0     H23990   4.216   9.295  12.446 -0.3833  2.3117 -0.5307
  178MOL0     H23991   4.225   9.332  12.678 -0.7680  2.2338 -0.5708
  178MOL0     H23992   4.090   9.367  12.774  2.9730  4.0316 -1.1458
  178MOL0     H23993   4.122   9.193  12.728 -3.8046 -0.0916 -0.5940
  178MOL0     H23994   3.750   9.331  12.971  0.6834  0.3529 -1.3468
  178MOL0     H23995   3.566   9.308  13.135  1.2049 -1.1815 -0.1287
  178MOL0     H23996   3.359   9.496  13.199  1.0655  1.2427 -2.5550
  178MOL0     H23997   3.242   9.518  13.080  4.8575  2.6021  0.7545
  178MOL0     H23998   3.079   9.363  13.204  0.1037 -1.2795  1.0377
  178MOL0     H23999   3.203   9.323  13.312 -3.0537 -0.5513  3.2951
  178MOL0     H24000   3.054   9.587  13.327 -3.2470 -1.3878  3.2301
  178MOL0     H24001   3.223   9.581  13.366  0.2382 -0.3031  1.8555
  178MOL0     H24002   3.016   9.382  13.469 -1.7170  0.2485  0.1725
  178MOL0     H24003   3.172   9.429  13.541  1.6652  1.4411 -1.2796
  178MOL0     H24004   2.937   9.623  13.534 -2.0333 -0.4507  2.2223
  178MOL0     H24005   3.103   9.654  13.592  1.5608 -1.8701 -0.0651
  178MOL0     H24006   2.900   9.448  13.688  2.4359 -3.7371  1.5869
  178MOL0     H24007   3.062   9.473  13.758  0.7967  2.1027  1.5887
  178MOL0     H24008   2.903   9.716  13.777 -1.6446 -0.0745  0.8127
  178MOL0     H24009   3.035   9.660  13.862 -1.4081  1.3295 -0.1174
  178MOL0     H24010   2.894   9.476  13.956  0.7834 -0.5115  0.1847
  178MOL0     H24011   2.748   9.543  13.871  1.0017  1.9025 -0.4842
  178MOL0     H24012   3.268   9.340  12.837  1.1921 -3.2532 -2.1732
  178MOL0     H24013   3.452   9.370  12.664 -1.1616  2.5239  0.8421
  178MOL0     H24014   3.732   9.365  12.430 -0.7509 -0.3057 -2.0349
  178MOL0     H24015   3.838   9.354  12.235 -1.4888  1.1398  1.6307
  178MOL0     H24016   4.227   8.804  11.026 -0.1018 -1.6737  0.3745
  178MOL0     H24017   4.103   8.699  11.196 -2.8517 -4.3185 -0.1896
  178MOL0     H24018   3.936   8.655  11.588  0.0095  1.4638 -1.6449
  178MOL0     H24019   3.767   8.567  11.781 -0.3296  1.0542  1.2494
  178MOL0     H24020   3.593   8.400  11.804 -2.3905 -1.5087 -1.6679
  178MOL0     H24021   3.618   8.539  11.920 -0.6109  3.9882 -2.4441
  178MOL0     H24022   3.469   8.373  12.022  5.6954  1.2926 -1.3435
  178MOL0     H24023   3.384   8.356  11.870  1.6064  0.4990 -0.6180
  178MOL0     H24024   3.281   8.460  12.074  0.5150  0.4148 -0.4726
  178MOL0     H24025   3.266   8.578  11.946 -2.5096  2.3114  3.3549
  178MOL0     H24026   3.420   8.712  12.033 -0.7439 -2.3916 -2.3153
  178MOL0     H24027   3.513   8.585  12.116  0.9215 -1.4926 -2.0509
  178MOL0     H24028   3.201   8.696  12.405  1.8513 -1.4705  1.6307
  178MOL0     H24029   3.445   8.665  11.522 -0.6122  2.1553  0.9168
  178MOL0     H24030   3.603   8.726  11.345  2.3313  2.0560 -0.1548
  179MOL0     O24031  11.253   7.922   6.554  0.6040  0.4855 -1.0001
  179MOL0     C24032  11.300   8.023   6.506 -0.1622 -0.1948 -0.3450
  179MOL0     O24033  11.233   8.137   6.466  0.3381 -0.1183  0.4542
  179MOL0     C24034  11.096   8.126   6.491 -0.2610  0.3920  0.9094
  179MOL0     C24035  11.021   8.041   6.409 -0.1431  0.0820 -0.0626
  179MOL0     C24036  10.887   8.025   6.439 -0.6962  0.1682 -0.4212
  179MOL0     C24037  10.829   8.089   6.545  0.4498  0.5813 -0.1226
  179MOL0     O24038  10.705   8.051   6.585  0.1095 -0.4661 -0.3324
  179MOL0     C24039  10.594   8.139   6.538  0.5077 -0.0930 -0.9712
  179MOL0     C24040  10.479   8.062   6.461 -0.6745 -0.2499 -0.4295
  179MOL0     C24041  10.413   7.949   6.545 -0.5359 -0.4764  0.5425
  179MOL0     C24042  10.268   7.915   6.503  0.3224 -0.1024  0.8446
  179MOL0     C24043  10.204   7.815   6.603 -1.1059  0.6549  0.6385
  179MOL0     C24044  10.053   7.801   6.586  0.1980  0.3970 -0.1042
  179MOL0     C24045  10.004   7.741   6.451  0.3944 -0.0936 -1.2443
  179MOL0     C24046  10.072   7.611   6.411  0.5083 -0.0994  0.6127
  179MOL0     N24047  10.044   7.491   6.500 -0.4468  0.3428 -0.2254
  179MOL0     C24048   9.933   7.413   6.473  0.1497  0.1842 -0.4126
  179MOL0     C24049   9.947   7.306   6.553 -0.0577  0.4682  0.4104
  179MOL0     C24050   9.835   7.192   6.556  0.0015 -0.2739 -0.0560
  179MOL0     C24051   9.693   7.236   6.605  0.5627 -0.5676 -0.1718
  179MOL0     C24052   9.627   7.133   6.699 -0.2480 -0.8685 -1.3865
  179MOL0     C24053   9.590   7.002   6.627  0.1215 -0.1916  0.3279
  179MOL0     O24054   9.498   7.017   6.516 -0.3745  0.5710 -0.7502
  179MOL0     C24055   9.365   7.023   6.542  0.6655  0.4297  0.6225
  179MOL0     C24056   9.296   6.914   6.596  1.0769  0.3528 -0.3377
  179MOL0     C24057   9.157   6.919   6.615  0.0666 -0.0771  0.5739
  179MOL0     C24058   9.090   6.801   6.687  0.1766  0.0701  0.0841
  179MOL0     C24059   9.085   7.043   6.587  0.4339  0.8169  0.0766
  179MOL0     C24060   8.936   7.054   6.593  0.3202  0.5882  0.3109
  179MOL0     O24061   8.889   7.176   6.610 -0.0626  0.2583 -0.7762
  179MOL0     C24062   8.756   7.194   6.603  0.0060  0.4940  0.5307
  179MOL0     C24063   8.690   7.229   6.476 -0.7124  0.7980 -0.0988
  179MOL0     C24064   8.555   7.254   6.469 -0.4724 -0.3411 -0.6753
  179MOL0     C24065   8.475   7.256   6.583 -0.3772 -0.5545  0.4573
  179MOL0     O24066   8.342   7.291   6.590  0.3143  0.0813 -0.2477
  179MOL0     C24067   8.256   7.187   6.632 -0.6356  0.4537  0.1137
  179MOL0     C24068   8.120   7.205   6.563 -0.4654  0.2801 -0.1973
  179MOL0     C24069   8.040   7.080   6.610 -0.0310 -1.3589 -0.3878
  179MOL0     C24070   7.955   7.103   6.747 -0.5516 -0.0382  0.2164
  179MOL0     C24071   7.852   6.995   6.749 -0.2424  0.4434  0.2276
  179MOL0     C24072   7.801   6.977   6.893 -0.1349 -0.3013  0.2617
  179MOL0     C24073   7.675   6.881   6.894 -0.0483 -0.1218 -0.6565
  179MOL0     C24074   7.554   6.927   6.816 -0.0387  0.1148  0.1503
  179MOL0    Cl24075   7.493   7.085   6.867  0.5072  0.1855 -0.0905
  179MOL0     C24076   8.537   7.230   6.701  0.2040 -0.1735  0.5247
  179MOL0     C24077   8.675   7.191   6.712 -0.2525  0.1991  0.1327
  179MOL0     O24078   8.866   6.950   6.583 -0.0442 -0.1544 -0.0592
  179MOL0     C24079   9.164   7.147   6.546 -0.3953  0.5804  0.8156
  179MOL0     C24080   9.301   7.147   6.527  0.5180 -0.0156  0.3741
  179MOL0     N24081  10.074   7.322   6.612  0.1240 -0.3859 -0.6729
  179MOL0     N24082  10.137   7.418   6.565 -1.4664 -0.1712 -0.0896
  179MOL0     C24083  10.899   8.181   6.624 -0.1935  1.3286 -0.7427
  179MOL0     C24084  11.037   8.203   6.593  0.0068 -0.2230  0.0759
  179MOL0     C24085  11.447   8.027   6.500 -0.4299 -0.9182  0.1917
  179MOL0     C24086  11.520   8.143   6.495 -0.0007  0.2961 -0.4745
  179MOL0     C24087  11.653   8.156   6.500 -0.1701  0.2822  0.3271
  179MOL0     C24088  11.733   8.035   6.511 -0.5698 -0.0401 -0.2508
  179MOL0     O24089  11.869   8.036   6.510  0.3454  0.7518 -0.4382
  179MOL0     C24090  11.932   8.167   6.522 -1.0432  0.3437  0.2631
  179MOL0     C24091  12.073   8.150   6.584  0.6630 -0.0491  0.4212
  179MOL0     C24092  12.176   8.193   6.484  0.4827 -0.0896 -0.1540
  179MOL0     C24093  12.315   8.197   6.557  0.8639  0.1159  0.9380
  179MOL0     C24094  12.325   8.303   6.651  0.7983 -0.4008 -0.5091
  179MOL0     C24095  12.324   8.385   6.745  0.1321  0.3433  0.1835
  179MOL0     C24096  11.663   7.910   6.519  0.4894  0.2547 -0.5262
  179MOL0     C24097  11.525   7.913   6.509 -0.3911  0.4773 -0.4666
  179MOL0     H24098  11.061   7.976   6.332 -1.3016  1.6226 -2.0661
  179MOL0     H24099  10.833   7.945   6.389  0.1693 -0.5209 -0.3022
  179MOL0     H24100  10.557   8.185   6.629  2.5837 -2.7970  1.4416
  179MOL0     H24101  10.631   8.225   6.480  2.0870  1.8289  2.5861
  179MOL0     H24102  10.410   8.142   6.432  1.3548  0.7613 -2.9249
  179MOL0     H24103  10.521   8.015   6.371  2.0641 -1.1519  1.2045
  179MOL0     H24104  10.461   7.851   6.542 -0.5575 -0.4709 -1.1419
  179MOL0     H24105  10.424   7.982   6.648 -0.6478  1.1842  0.0523
  179MOL0     H24106  10.209   8.007   6.516  1.9493  1.0412  0.4481
  179MOL0     H24107  10.268   7.896   6.396  1.5331  0.1397  0.7872
  179MOL0     H24108  10.251   7.716   6.598 -1.1698  0.6396  0.3061
  179MOL0     H24109  10.228   7.851   6.703 -0.2493 -1.1571  1.1344
  179MOL0     H24110  10.024   7.742   6.673  0.3578  4.8658  3.3542
  179MOL0     H24111   9.996   7.893   6.603  1.3699  0.9463  1.0230
  179MOL0     H24112   9.899   7.722   6.475  0.4214  3.6071  3.1437
  179MOL0     H24113  10.009   7.817   6.373 -0.1678  0.7914 -0.4287
  179MOL0     H24114  10.180   7.626   6.411  0.5300 -0.1686  1.5283
  179MOL0     H24115  10.032   7.609   6.309  3.0352 -0.8535 -0.4296
  179MOL0     H24116   9.858   7.441   6.400 -1.6992  1.4605  1.8403
  179MOL0     H24117   9.818   7.144   6.459 -0.2036  0.4714 -0.3966
  179MOL0     H24118   9.889   7.116   6.615  1.4858  0.1067 -0.8720
  179MOL0     H24119   9.628   7.255   6.519 -0.6955 -0.9928  0.6639
  179MOL0     H24120   9.699   7.327   6.664 -0.3209 -2.1883  2.5911
  179MOL0     H24121   9.535   7.174   6.742  0.1056  1.8747 -3.0077
  179MOL0     H24122   9.694   7.116   6.783 -2.1605 -0.0136  0.3750
  179MOL0     H24123   9.551   6.928   6.697  0.1449 -0.9650 -0.4528
  179MOL0     H24124   9.682   6.957   6.588  0.0360  0.9979 -1.3878
  179MOL0     H24125   9.340   6.816   6.609 -3.7282 -2.1374 -0.3148
  179MOL0     H24126   9.037   6.745   6.609 -1.9637  1.7507  0.2558
  179MOL0     H24127   9.160   6.735   6.740  1.0505 -0.4747 -1.6802
  179MOL0     H24128   9.012   6.834   6.756 -2.0026  1.4225 -2.8264
  179MOL0     H24129   8.736   7.237   6.378  1.9938  0.6124  1.0757
  179MOL0     H24130   8.522   7.284   6.370  1.6779  0.2889 -1.2403
  179MOL0     H24131   8.302   7.089   6.614  0.7541  0.6362  2.2725
  179MOL0     H24132   8.249   7.185   6.741  1.7837 -0.6516  0.3263
  179MOL0     H24133   8.074   7.300   6.591 -1.3011 -0.2548  0.2706
  179MOL0     H24134   8.121   7.199   6.454 -2.6127 -2.2175 -0.1829
  179MOL0     H24135   8.104   6.992   6.610 -0.6317 -1.8747  2.1028
  179MOL0     H24136   7.970   7.055   6.529  0.0870 -1.2838 -0.5125
  179MOL0     H24137   8.011   7.097   6.840 -0.6899 -4.5300  0.2253
  179MOL0     H24138   7.900   7.197   6.742 -3.8095 -1.7492  0.8457
  179MOL0     H24139   7.900   6.899   6.730  1.9939  1.1386  1.9365
  179MOL0     H24140   7.779   7.018   6.671  0.7213  1.0529 -0.5118
  179MOL0     H24141   7.878   6.932   6.957  0.6936 -1.0832 -1.2179
  179MOL0     H24142   7.772   7.074   6.934 -2.4317 -0.9006  0.1880
  179MOL0     H24143   7.656   6.860   6.999  3.0760  0.6653  0.1574
  179MOL0     H24144   7.710   6.787   6.851  1.3702 -1.2163  2.6062
  179MOL0     H24145   7.469   6.859   6.831 -0.2586  0.4895  0.6394
  179MOL0     H24146   7.590   6.923   6.713  1.5497  0.1076  0.6761
  179MOL0     H24147   8.477   7.241   6.791  0.4451 -3.3268  1.1822
  179MOL0     H24148   8.711   7.158   6.809 -1.8780 -0.6543  0.4902
  179MOL0     H24149   9.120   7.244   6.527  0.6676  0.8330 -0.5862
  179MOL0     H24150   9.352   7.234   6.486 -1.2261  1.0372  0.3351
  179MOL0     H24151  10.862   8.245   6.704  4.4445  2.2534  0.9761
  179MOL0     H24152  11.094   8.288   6.628 -0.2326 -0.4661  1.0974
  179MOL0     H24153  11.463   8.235   6.486 -1.3639 -0.5734 -1.0266
  179MOL0     H24154  11.710   8.246   6.481  2.3010 -0.9635  1.3626
  179MOL0     H24155  11.924   8.219   6.426  1.8934 -1.3270 -1.0387
  179MOL0     H24156  11.881   8.230   6.595 -2.0617  0.9011 -0.8945
  179MOL0     H24157  12.096   8.045   6.603 -1.8935 -0.5426  1.1569
  179MOL0     H24158  12.075   8.206   6.678  4.8365  1.6773 -0.4614
  179MOL0     H24159  12.150   8.292   6.446  0.2716  0.1805  0.6847
  179MOL0     H24160  12.177   8.126   6.397  0.4171  0.8751 -0.9219
  179MOL0     H24161  12.404   8.201   6.494  0.6830 -1.2308  0.5464
  179MOL0     H24162  12.326   8.106   6.617  2.4308 -0.2717  0.1242
  179MOL0     H24163  12.328   8.460   6.821 -1.3245 -0.2378  0.8533
  179MOL0     H24164  11.723   7.821   6.528 -2.2167 -1.6503 -0.1494
  179MOL0     H24165  11.470   7.820   6.517 -1.4718  1.1618  0.5039
  180MOL0     O24166   6.380   6.208   3.320  0.3850  0.4288 -0.1054
  180MOL0     C24167   6.430   6.104   3.369 -0.4427 -0.9662 -0.2984
  180MOL0     O24168   6.560   6.066   3.363 -0.1611  0.4683 -0.2118
  180MOL0     C24169   6.641   6.145   3.281  0.0318 -0.0730 -0.1229
  180MOL0     C24170   6.610   6.183   3.150 -0.3195  0.4217  1.5666
  180MOL0     C24171   6.696   6.257   3.067  0.1009 -0.5185  0.0957
  180MOL0     C24172   6.824   6.290   3.113 -0.3192  0.8690 -0.9790
  180MOL0     O24173   6.912   6.357   3.025 -0.1702  0.4841 -1.1429
  180MOL0     C24174   7.010   6.441   3.089 -0.1131 -1.1186 -0.5811
  180MOL0     C24175   6.958   6.579   3.133 -0.7133  1.3739 -0.6040
  180MOL0     C24176   7.068   6.652   3.219 -0.6026 -1.0448 -0.2606
  180MOL0     C24177   7.211   6.670   3.163  0.5534 -0.0300 -0.0496
  180MOL0     C24178   7.293   6.771   3.241  0.2009 -1.3856 -0.6210
  180MOL0     C24179   7.296   6.916   3.185  0.3429  0.4116  0.6163
  180MOL0     C24180   7.385   7.020   3.259  0.8610 -0.1416 -0.5786
  180MOL0     C24181   7.520   7.031   3.204 -0.2792 -0.1601  0.0303
  180MOL0     N24182   7.607   6.911   3.249 -0.0387 -0.5651  0.8354
  180MOL0     C24183   7.636   6.896   3.380  0.1777 -0.0795  1.0963
  180MOL0     C24184   7.727   6.789   3.378 -0.7456  0.6999 -0.3559
  180MOL0     C24185   7.788   6.714   3.499  0.5497  0.4820  0.1416
  180MOL0     C24186   7.940   6.710   3.497 -0.9521 -0.1985  0.2052
  180MOL0     C24187   7.986   6.682   3.640 -1.0003  0.1204  0.2949
  180MOL0     C24188   8.140   6.700   3.643 -0.7790  0.2453 -0.1352
  180MOL0     O24189   8.174   6.836   3.616 -0.3807  0.1595  0.3133
  180MOL0     C24190   8.306   6.880   3.606  0.4336 -0.9326 -1.3023
  180MOL0     C24191   8.426   6.799   3.630  0.1131 -0.0854  0.3121
  180MOL0     C24192   8.555   6.850   3.612 -0.0520 -0.7057  0.2493
  180MOL0     C24193   8.673   6.764   3.653 -0.9508  0.5585  0.2036
  180MOL0     C24194   8.562   6.992   3.578  0.4208 -0.1084 -0.6753
  180MOL0     C24195   8.687   7.056   3.552 -0.1093  0.8536 -0.3070
  180MOL0     O24196   8.672   7.186   3.507 -0.8059  0.7616 -0.8882
  180MOL0     C24197   8.785   7.264   3.471  1.1834  0.0431  0.1284
  180MOL0     C24198   8.778   7.398   3.507 -0.1009 -0.2407  0.6820
  180MOL0     C24199   8.875   7.495   3.473  0.4479 -0.7076 -0.7914
  180MOL0     C24200   8.990   7.454   3.410  0.4131  0.5779 -0.6456
  180MOL0     O24201   9.061   7.569   3.368  0.6111  0.2968  0.3526
  180MOL0     C24202   9.185   7.542   3.304 -0.4497  0.1198 -0.0058
  180MOL0     C24203   9.267   7.669   3.268 -0.3894  0.6884 -0.0609
  180MOL0     C24204   9.406   7.636   3.213 -0.7832  0.6095 -0.7284
  180MOL0     C24205   9.505   7.760   3.207  0.7348  0.6877  0.4353
  180MOL0     C24206   9.644   7.711   3.145  0.0117  0.1245  0.0751
  180MOL0     C24207   9.635   7.675   3.005  0.4706 -1.2741 -0.4572
  180MOL0     C24208   9.582   7.784   2.914  0.8144 -0.5169  1.2993
  180MOL0     C24209   9.628   7.774   2.761 -0.2604  0.1075 -1.1043
  180MOL0    Cl24210   9.585   7.607   2.706 -0.4720 -0.3205  0.2170
  180MOL0     C24211   9.011   7.321   3.387 -0.4455  0.3222  0.1764
  180MOL0     C24212   8.909   7.225   3.418  0.1835  0.2273 -0.1443
  180MOL0     O24213   8.788   6.988   3.545 -0.0711 -0.3035  0.1996
  180MOL0     C24214   8.449   7.068   3.554 -0.0823  0.5010  0.6128
  180MOL0     C24215   8.325   7.012   3.564  0.7433 -0.0903 -0.2918
  180MOL0     N24216   7.753   6.751   3.246  0.2701  0.6847 -0.0771
  180MOL0     N24217   7.676   6.822   3.167  1.1710 -0.7206 -0.5405
  180MOL0     C24218   6.853   6.245   3.250  0.2005 -0.0396 -1.0042
  180MOL0     C24219   6.761   6.172   3.328  1.0130 -0.1237 -0.1871
  180MOL0     C24220   6.334   6.021   3.442  0.0555 -0.3591  0.4598
  180MOL0     C24221   6.202   6.064   3.478  0.0684 -0.6583 -0.0461
  180MOL0     C24222   6.130   5.986   3.572 -0.1155  0.4329  0.8841
  180MOL0     C24223   6.173   5.857   3.618 -0.5457  0.0793  0.4894
  180MOL0     O24224   6.091   5.769   3.690 -0.1883  0.2768  0.4748
  180MOL0     C24225   6.001   5.811   3.799 -0.6170  0.0302  0.7276
  180MOL0     C24226   5.852   5.815   3.763  0.3817  1.2486  0.0058
  180MOL0     C24227   5.788   5.679   3.704 -0.0283  0.0880  0.5125
  180MOL0     C24228   5.640   5.656   3.737 -0.2211  0.0660 -0.6966
  180MOL0     C24229   5.548   5.777   3.722  0.2348 -0.3019  0.0763
  180MOL0     C24230   5.487   5.887   3.715  0.6795  0.4262  0.1290
  180MOL0     C24231   6.305   5.821   3.576  0.1124  0.5745 -0.1357
  180MOL0     C24232   6.387   5.895   3.489  0.1154  0.2073  0.3086
  180MOL0     H24233   6.509   6.152   3.123 -0.3782  2.9706 -1.6455
  180MOL0     H24234   6.658   6.279   2.967  1.9914  0.1937 -0.5003
  180MOL0     H24235   7.034   6.384   3.179  0.7425 -6.5711 -3.8141
  180MOL0     H24236   7.096   6.446   3.021 -0.1548 -0.0590 -0.5697
  180MOL0     H24237   6.947   6.640   3.042  0.8541  2.3049 -0.2123
  180MOL0     H24238   6.863   6.560   3.184 -0.6244  0.0828 -0.8881
  180MOL0     H24239   7.026   6.749   3.247 -2.4033 -0.5996 -3.9016
  180MOL0     H24240   7.075   6.596   3.312  0.4755 -1.1759 -0.4063
  180MOL0     H24241   7.268   6.576   3.163  0.6542  0.0312  0.0492
  180MOL0     H24242   7.206   6.703   3.059  1.4832  1.6716  0.4093
  180MOL0     H24243   7.254   6.781   3.343  0.3836  4.0187 -0.8090
  180MOL0     H24244   7.396   6.735   3.244  0.5916 -0.3230 -1.1515
  180MOL0     H24245   7.313   6.912   3.077  2.0436  2.4609  0.7442
  180MOL0     H24246   7.189   6.939   3.198 -1.5558 -5.0311 -2.1696
  180MOL0     H24247   7.333   7.110   3.226  0.3299 -0.9496 -2.0534
  180MOL0     H24248   7.380   7.012   3.368  0.0679  2.7201 -0.3205
  180MOL0     H24249   7.571   7.122   3.236 -1.1587  1.4081 -2.7254
  180MOL0     H24250   7.522   7.041   3.095  1.6189 -0.6600 -0.0132
  180MOL0     H24251   7.598   6.945   3.469  1.3453  0.9857  1.0315
  180MOL0     H24252   7.748   6.754   3.592  0.3769 -2.9998  1.7491
  180MOL0     H24253   7.748   6.613   3.484  0.3529  0.4902  0.5920
  180MOL0     H24254   7.980   6.808   3.470  0.3650 -0.7116  0.1974
  180MOL0     H24255   7.983   6.643   3.422 -0.2639  2.2980 -1.7966
  180MOL0     H24256   7.958   6.580   3.671  2.8665 -0.6842  1.7014
  180MOL0     H24257   7.952   6.753   3.716  0.9872  1.1330  0.2958
  180MOL0     H24258   8.180   6.627   3.573 -3.4826 -1.8667  0.3396
  180MOL0     H24259   8.170   6.660   3.740  0.4557 -5.4968 -2.4598
  180MOL0     H24260   8.406   6.696   3.658 -2.2026 -0.3177 -1.8339
  180MOL0     H24261   8.728   6.718   3.570 -1.2310  1.7665 -0.6724
  180MOL0     H24262   8.737   6.819   3.723  1.0432  1.7802 -2.3961
  180MOL0     H24263   8.633   6.675   3.702 -2.5119  0.2098 -1.6170
  180MOL0     H24264   8.689   7.439   3.552  2.2761  3.8782  2.1707
  180MOL0     H24265   8.862   7.602   3.479 -1.0550 -0.9177  0.4161
  180MOL0     H24266   9.245   7.480   3.371  2.4785  1.6588 -1.0531
  180MOL0     H24267   9.165   7.491   3.209  0.5845 -1.0507  0.3878
  180MOL0     H24268   9.202   7.718   3.195 -0.6003 -0.6296 -0.7863
  180MOL0     H24269   9.283   7.729   3.358  1.3377 -3.0787  2.3805
  180MOL0     H24270   9.383   7.616   3.107 -0.9021  2.1723 -1.0208
  180MOL0     H24271   9.456   7.552   3.262 -0.7549  1.8347  1.4593
  180MOL0     H24272   9.454   7.838   3.148  2.0627  1.5719  0.4209
  180MOL0     H24273   9.525   7.788   3.311  2.0837 -2.9413  1.3124
  180MOL0     H24274   9.675   7.622   3.201  0.1836  0.7239  0.9565
  180MOL0     H24275   9.705   7.799   3.166  1.7466 -1.0255  0.0233
  180MOL0     H24276   9.738   7.657   2.973  1.1559  2.9057 -1.1765
  180MOL0     H24277   9.575   7.583   2.999 -2.7798  0.7188 -0.7493
  180MOL0     H24278   9.626   7.879   2.945  2.9715 -0.0974 -2.4882
  180MOL0     H24279   9.472   7.791   2.914  0.8725  0.5454  1.0020
  180MOL0     H24280   9.737   7.784   2.759 -0.1576  0.5199  1.8740
  180MOL0     H24281   9.576   7.848   2.700 -2.1469 -1.1356 -1.1029
  180MOL0     H24282   9.100   7.294   3.332  0.3146  1.4691  0.8223
  180MOL0     H24283   8.925   7.121   3.392 -2.1131 -0.7785  2.0138
  180MOL0     H24284   8.443   7.169   3.516  1.4563 -0.8039 -3.7780
  180MOL0     H24285   8.236   7.073   3.550  2.4142  2.8543  1.1361
  180MOL0     H24286   6.952   6.249   3.292  0.0618 -1.2254 -0.5422
  180MOL0     H24287   6.772   6.144   3.432 -1.8263  0.8136  0.4717
  180MOL0     H24288   6.157   6.158   3.447  2.0839  0.3105 -0.1915
  180MOL0     H24289   6.034   6.024   3.606  0.2787  2.3399 -0.0242
  180MOL0     H24290   6.016   5.746   3.885 -0.0325  0.7816  1.2145
  180MOL0     H24291   6.036   5.909   3.834  0.7814  0.2359 -1.1027
  180MOL0     H24292   5.841   5.897   3.692  1.4966  0.8109 -0.6994
  180MOL0     H24293   5.803   5.836   3.859 -2.1967 -2.2014 -0.3727
  180MOL0     H24294   5.840   5.600   3.758  0.0498 -0.4501 -0.3200
  180MOL0     H24295   5.812   5.678   3.597 -0.8247 -2.2318  0.2963
  180MOL0     H24296   5.630   5.624   3.842  3.7505  3.4373  1.0209
  180MOL0     H24297   5.603   5.575   3.673 -1.4054 -0.7555  0.9608
  180MOL0     H24298   5.432   5.979   3.707 -3.2574 -1.5283  1.6347
  180MOL0     H24299   6.324   5.731   3.634  0.6570  1.8312  1.7505
  180MOL0     H24300   6.483   5.849   3.468 -0.6198 -1.5447  0.6214
  181MOL0     O24301   5.850  10.304   5.350 -0.2683 -0.0492  0.6084
  181MOL0     C24302   5.947  10.267   5.276 -0.3409 -0.3791 -1.0401
  181MOL0     O24303   6.069  10.325   5.284  0.0817  0.0979  0.7885
  181MOL0     C24304   6.107  10.390   5.394  0.2406 -0.3374 -1.3367
  181MOL0     C24305   6.237  10.370   5.441  0.2237 -0.3322 -0.1320
  181MOL0     C24306   6.291  10.441   5.545  0.2586  0.6768 -1.0495
  181MOL0     C24307   6.217  10.536   5.615  0.4005  0.9627  0.5867
  181MOL0     O24308   6.262  10.621   5.718 -1.1632 -0.0812 -0.1929
  181MOL0     C24309   6.358  10.570   5.811  1.1061  0.1275 -0.4073
  181MOL0     C24310   6.322  10.633   5.949 -0.1392  0.8423 -0.6872
  181MOL0     C24311   6.329  10.792   5.953  1.0529  0.1449 -0.9764
  181MOL0     C24312   6.473  10.838   5.958 -1.1059  0.2683 -0.4451
  181MOL0     C24313   6.477  10.979   5.999 -0.6299  0.5781 -0.0388
  181MOL0     C24314   6.622  11.035   5.968 -0.0498 -0.6256 -0.5173
  181MOL0     C24315   6.608  11.183   5.967  0.1758 -1.0356  0.2092
  181MOL0     C24316   6.750  11.244   5.963  0.0959  0.0439  0.3516
  181MOL0     N24317   6.741  11.385   5.996  0.3490 -0.1741  0.1984
  181MOL0     C24318   6.773  11.432   6.112 -0.3171 -0.4507 -0.7296
  181MOL0     C24319   6.771  11.575   6.096  0.2686  0.2561 -0.1139
  181MOL0     C24320   6.801  11.684   6.198  0.6533  0.6012  0.0318
  181MOL0     C24321   6.681  11.729   6.286 -0.1579 -0.5938 -0.4240
  181MOL0     C24322   6.711  11.869   6.348 -0.7831  0.5478 -0.1905
  181MOL0     C24323   6.593  11.926   6.423 -0.1874 -0.3043 -0.2924
  181MOL0     O24324   6.616  12.057   6.476  0.0304 -0.3112  0.3349
  181MOL0     C24325   6.647  12.095   6.609  0.2933  0.3723 -0.5959
  181MOL0     C24326   6.632  12.005   6.713  0.3249  0.1336 -0.8584
  181MOL0     C24327   6.674  12.039   6.844  0.1940  0.3419 -0.2920
  181MOL0     C24328   6.670  11.931   6.954 -0.2655  0.1459  0.2665
  181MOL0     C24329   6.717  12.168   6.866  0.7083 -0.0830 -0.0950
  181MOL0     C24330   6.738  12.219   7.000 -0.6356  0.4093 -0.7746
  181MOL0     O24331   6.859  12.199   7.048  0.0063  0.2061  0.4620
  181MOL0     C24332   6.887  12.220   7.180 -0.3703  0.5720  1.0574
  181MOL0     C24333   6.852  12.137   7.276  0.7293 -1.0684 -0.1285
  181MOL0     C24334   6.866  12.170   7.416  0.0753  0.0911  0.1919
  181MOL0     C24335   6.946  12.283   7.451  0.5903 -0.5062 -0.8152
  181MOL0     O24336   6.986  12.300   7.582 -0.6398 -0.0209  0.2662
  181MOL0     C24337   7.100  12.221   7.616 -0.1862  0.0730 -0.0357
  181MOL0     C24338   7.147  12.253   7.756 -1.1255  1.1210 -0.9130
  181MOL0     C24339   7.278  12.178   7.791  0.6694 -0.5483  0.3223
  181MOL0     C24340   7.337  12.222   7.923 -0.1122  0.5259  0.0105
  181MOL0     C24341   7.475  12.164   7.960  0.4155 -0.1122 -0.7042
  181MOL0     C24342   7.562  12.153   7.841  0.6551 -0.2040  0.1676
  181MOL0     C24343   7.699  12.114   7.877  0.5673  0.3968 -0.0905
  181MOL0     C24344   7.805  12.141   7.768  0.0756  0.4213 -0.7504
  181MOL0    Cl24345   7.947  12.041   7.769  0.2159  0.4192  0.2935
  181MOL0     C24346   6.978  12.373   7.348 -0.3901 -0.2904 -1.2981
  181MOL0     C24347   6.960  12.337   7.218  0.0097 -0.0065 -0.7116
  181MOL0     O24348   6.640  12.254   7.064  0.2883  0.0043 -0.5384
  181MOL0     C24349   6.743  12.253   6.765  1.1099  0.8602  0.6308
  181MOL0     C24350   6.700  12.215   6.636  0.0010  0.8091 -0.0590
  181MOL0     N24351   6.773  11.590   5.955  0.7232 -0.2445 -0.3429
  181MOL0     N24352   6.752  11.481   5.894 -0.1140 -0.3515  0.0782
  181MOL0     C24353   6.088  10.566   5.561 -0.0814 -0.2842  0.0195
  181MOL0     C24354   6.039  10.492   5.456  0.4064 -0.4432 -0.0446
  181MOL0     C24355   5.934  10.175   5.170  0.8062  0.9312  0.5287
  181MOL0     C24356   5.802  10.144   5.118 -0.1278 -0.0940  0.2330
  181MOL0     C24357   5.784  10.052   5.016 -0.0188 -0.4876 -1.1082
  181MOL0     C24358   5.883   9.983   4.945 -0.2481  0.3392 -0.7409
  181MOL0     O24359   5.835   9.925   4.827 -1.0541 -0.1899  0.1445
  181MOL0     C24360   5.933   9.831   4.771  0.4507 -0.1559  0.3258
  181MOL0     C24361   5.966   9.716   4.864  0.2823  1.3289 -1.0248
  181MOL0     C24362   6.028   9.598   4.789  0.7039 -0.5285 -0.3357
  181MOL0     C24363   6.047   9.466   4.866 -0.2559  0.4229  0.1055
  181MOL0     C24364   6.112   9.365   4.781 -0.4579 -0.3831  0.2880
  181MOL0     C24365   6.166   9.290   4.708  0.6375 -0.8097  0.7261
  181MOL0     C24366   6.014  10.014   4.990  0.4960  0.1946  0.7527
  181MOL0     C24367   6.041  10.107   5.097 -0.4625  0.5408 -0.6351
  181MOL0     H24368   6.292  10.290   5.392  0.0816 -0.0548 -0.7537
  181MOL0     H24369   6.395  10.432   5.574  0.8827 -0.4017 -3.3779
  181MOL0     H24370   6.355  10.461   5.818 -2.8288  0.2315  3.1706
  181MOL0     H24371   6.461  10.597   5.786  1.2646 -1.0007 -1.0001
  181MOL0     H24372   6.217  10.612   5.968  0.3428  0.4426  1.8154
  181MOL0     H24373   6.373  10.582   6.031  2.1953  3.5971 -0.2553
  181MOL0     H24374   6.260  10.842   5.884  0.8618 -2.1009 -2.5400
  181MOL0     H24375   6.279  10.827   6.043  1.4272  0.5626 -0.9278
  181MOL0     H24376   6.538  10.793   6.033  0.8142  0.2141 -2.0625
  181MOL0     H24377   6.525  10.814   5.865  3.0042 -0.0931  1.7135
  181MOL0     H24378   6.395  11.034   5.952 -2.2772 -1.0672  0.8086
  181MOL0     H24379   6.467  10.976   6.108 -0.4238 -0.7509 -0.0398
  181MOL0     H24380   6.684  11.010   6.054  1.7747  3.6656 -0.2975
  181MOL0     H24381   6.661  10.986   5.878  1.0408  0.4306 -0.6550
  181MOL0     H24382   6.551  11.228   5.885  1.4494 -0.6509 -0.4785
  181MOL0     H24383   6.566  11.212   6.064 -1.2040  1.5903 -1.0727
  181MOL0     H24384   6.790  11.222   5.864 -0.5191  1.0921 -0.1596
  181MOL0     H24385   6.810  11.187   6.035  1.6667 -1.5102 -2.0496
  181MOL0     H24386   6.789  11.378   6.204  1.5598  0.8166 -0.2432
  181MOL0     H24387   6.877  11.650   6.269 -1.7695 -0.1749  2.4277
  181MOL0     H24388   6.827  11.769   6.135  0.6617  1.3897  1.0851
  181MOL0     H24389   6.659  11.663   6.369  0.4110  1.4161  1.4214
  181MOL0     H24390   6.587  11.734   6.231 -0.4888 -0.0384  0.1789
  181MOL0     H24391   6.732  11.932   6.261 -1.0576  0.8888 -0.0130
  181MOL0     H24392   6.796  11.853   6.415 -2.5047 -1.7985  1.6335
  181MOL0     H24393   6.573  11.853   6.502  1.5751 -2.3654 -1.6129
  181MOL0     H24394   6.497  11.916   6.370 -1.0195  3.2858  0.3223
  181MOL0     H24395   6.599  11.902   6.702 -3.5015  1.1304 -0.1015
  181MOL0     H24396   6.720  11.965   7.046 -1.6752  2.5532  0.2508
  181MOL0     H24397   6.566  11.917   6.985 -0.6937 -1.9651 -1.8818
  181MOL0     H24398   6.704  11.834   6.919 -2.1471  0.8830 -4.2573
  181MOL0     H24399   6.795  12.047   7.256 -1.4986  0.3091 -0.3257
  181MOL0     H24400   6.828  12.108   7.497 -3.5559 -1.4130 -2.3914
  181MOL0     H24401   7.077  12.115   7.608  1.5777 -0.2587 -1.2645
  181MOL0     H24402   7.181  12.243   7.545 -1.1046  1.5103 -0.6876
  181MOL0     H24403   7.163  12.359   7.777  1.2408  0.5068  0.6533
  181MOL0     H24404   7.068  12.217   7.822 -0.0309 -0.9686 -0.6869
  181MOL0     H24405   7.347  12.194   7.707 -1.8782  0.0408 -1.7945
  181MOL0     H24406   7.265  12.070   7.800  0.8468 -0.6301 -0.3651
  181MOL0     H24407   7.358  12.330   7.921 -1.7733  0.9414 -4.1279
  181MOL0     H24408   7.261  12.206   8.001 -0.2156  0.2614 -0.1448
  181MOL0     H24409   7.462  12.066   8.007 -2.0149  1.7209  2.9176
  181MOL0     H24410   7.517  12.228   8.038  0.4340 -0.6283 -0.2825
  181MOL0     H24411   7.530  12.079   7.767 -0.8519  0.7603 -0.1934
  181MOL0     H24412   7.569  12.253   7.799 -1.2146 -0.4046 -0.7215
  181MOL0     H24413   7.697  12.005   7.883  1.7746  0.2909 -1.2863
  181MOL0     H24414   7.722  12.168   7.970  1.8980  1.1987 -0.8638
  181MOL0     H24415   7.849  12.241   7.769  0.1802  0.4912 -3.4987
  181MOL0     H24416   7.758  12.134   7.669 -1.1789 -1.9478 -0.0585
  181MOL0     H24417   7.032  12.465   7.366  0.9295 -1.2911  0.2002
  181MOL0     H24418   6.996  12.408   7.144 -2.1088  0.5838 -1.2249
  181MOL0     H24419   6.783  12.353   6.777  1.8078  0.7899 -0.8564
  181MOL0     H24420   6.729  12.274   6.551  0.4242  2.0767  0.9339
  181MOL0     H24421   6.032  10.648   5.605 -1.2240  0.0130 -1.8475
  181MOL0     H24422   5.937  10.521   5.431  0.9165  3.5893  1.6934
  181MOL0     H24423   5.716  10.194   5.164 -1.4006 -0.3834 -1.7096
  181MOL0     H24424   5.679  10.040   4.989 -0.3724 -0.1178  0.0618
  181MOL0     H24425   5.878   9.779   4.692  0.1237  2.0025 -0.9382
  181MOL0     H24426   6.025   9.878   4.737 -0.1185  2.0782  1.6508
  181MOL0     H24427   5.881   9.674   4.919  2.1602 -2.6031 -0.7569
  181MOL0     H24428   6.041   9.749   4.936 -2.3782  0.1054  2.6007
  181MOL0     H24429   6.126   9.623   4.746 -0.0096 -0.1584 -1.7896
  181MOL0     H24430   5.955   9.573   4.712  0.3410 -0.9833  0.1496
  181MOL0     H24431   5.955   9.424   4.908  1.0052 -3.0891 -0.3089
  181MOL0     H24432   6.121   9.494   4.941 -0.7155 -1.2614  1.2318
  181MOL0     H24433   6.221   9.218   4.650 -0.3382  1.3836 -3.3288
  181MOL0     H24434   6.100   9.979   4.933 -1.3528 -1.2397 -1.3385
  181MOL0     H24435   6.143  10.127   5.126 -0.4875 -0.4979  0.2542
  182MOL0     O24436   7.542   4.087  10.686  0.0798 -0.5815  0.8428
  182MOL0     C24437   7.563   4.144  10.795  0.0275 -0.0814  0.1901
  182MOL0     O24438   7.551   4.280  10.816  0.2177 -0.2778 -1.2219
  182MOL0     C24439   7.482   4.356  10.721 -0.3141 -0.0497 -0.2747
  182MOL0     C24440   7.398   4.316  10.615 -0.2610  0.1726 -0.4559
  182MOL0     C24441   7.329   4.414  10.536  0.2126 -0.2409  0.2603
  182MOL0     C24442   7.338   4.549  10.554  0.1389  0.2028 -0.4778
  182MOL0     O24443   7.254   4.627  10.479 -0.3146 -0.0071  0.3573
  182MOL0     C24444   7.222   4.751  10.533  0.7434 -0.2345 -0.1118
  182MOL0     C24445   7.100   4.820  10.470 -0.7535  0.2317  0.0043
  182MOL0     C24446   7.027   4.927  10.554 -0.8945  0.6826 -0.3093
  182MOL0     C24447   6.888   4.925  10.501  0.5521  0.3842  0.0259
  182MOL0     C24448   6.828   5.062  10.539  0.6573 -0.5494 -0.2758
  182MOL0     C24449   6.675   5.059  10.503  0.5293 -0.9807 -0.5436
  182MOL0     C24450   6.610   5.191  10.539  0.2216  0.4092 -0.2505
  182MOL0     C24451   6.684   5.330  10.503  0.3167  0.6561  0.9573
  182MOL0     N24452   6.720   5.315  10.364  0.2656  0.5074  0.1520
  182MOL0     C24453   6.627   5.289  10.271  0.2984 -0.1249 -0.1303
  182MOL0     C24454   6.685   5.317  10.155  0.3032 -0.4133  0.4948
  182MOL0     C24455   6.621   5.309  10.016  0.2960  0.9109  0.0350
  182MOL0     C24456   6.691   5.408   9.925 -1.0640 -0.7041  0.0415
  182MOL0     C24457   6.643   5.407   9.779  0.4384  0.5184  0.5630
  182MOL0     C24458   6.709   5.520   9.715  1.1375 -1.0542 -0.3378
  182MOL0     O24459   6.702   5.486   9.573  0.3193 -0.3541  0.1409
  182MOL0     C24460   6.819   5.532   9.513  0.0610  0.7067  0.8037
  182MOL0     C24461   6.901   5.430   9.467  0.4494  0.0821  0.7356
  182MOL0     C24462   7.034   5.457   9.411  0.2836 -0.2624  0.6512
  182MOL0     C24463   7.124   5.343   9.378  0.0545  0.9226  0.4353
  182MOL0     C24464   7.061   5.591   9.378  0.1914 -0.1224  0.0717
  182MOL0     C24465   7.173   5.630   9.272  0.1922  0.0041 -0.0611
  182MOL0     O24466   7.205   5.767   9.277  0.1116  0.7680 -0.2212
  182MOL0     C24467   7.297   5.811   9.187 -0.2652 -0.7008 -0.4645
  182MOL0     C24468   7.406   5.878   9.257 -0.1865  0.0430  0.6921
  182MOL0     C24469   7.515   5.924   9.177  0.7790 -0.2370  0.6593
  182MOL0     C24470   7.505   5.934   9.041 -0.1666  0.2383 -0.7102
  182MOL0     O24471   7.615   5.983   8.982  0.7173  0.1402  0.1734
  182MOL0     C24472   7.604   6.008   8.842 -0.6018 -0.0700  0.0442
  182MOL0     C24473   7.729   6.068   8.787 -1.2306  0.0402  0.0941
  182MOL0     C24474   7.857   6.009   8.847 -0.4923  0.9652  0.6587
  182MOL0     C24475   7.953   6.099   8.925 -0.2563 -0.1103 -0.3327
  182MOL0     C24476   7.913   6.128   9.067  0.2190 -0.1707  0.0131
  182MOL0     C24477   8.010   6.199   9.158  0.0110 -0.6897 -0.3141
  182MOL0     C24478   7.959   6.211   9.309  0.1230 -0.2212  0.3679
  182MOL0     C24479   7.918   6.086   9.386  0.4105  0.1819  0.2016
  182MOL0    Cl24480   8.027   5.954   9.400 -0.0430  0.1853  0.3142
  182MOL0     C24481   7.402   5.866   8.977  0.5159  0.4182  0.1807
  182MOL0     C24482   7.294   5.807   9.045 -0.9403  0.4769  0.9387
  182MOL0     O24483   7.226   5.554   9.199 -0.0736  0.1932 -0.2769
  182MOL0     C24484   6.970   5.694   9.428 -0.0806 -0.5245 -0.2733
  182MOL0     C24485   6.854   5.664   9.495 -0.1110  0.0057 -0.3259
  182MOL0     N24486   6.822   5.351  10.187 -0.0148  0.1090  0.0411
  182MOL0     N24487   6.832   5.346  10.313 -0.3413 -0.0504 -0.3216
  182MOL0     C24488   7.418   4.586  10.666  0.1229 -0.5040 -0.8743
  182MOL0     C24489   7.493   4.497  10.740  0.4975  0.2924 -0.1631
  182MOL0     C24490   7.616   4.055  10.907 -0.0803  0.0162 -0.7420
  182MOL0     C24491   7.642   3.917  10.891  1.3759 -0.4206 -0.2585
  182MOL0     C24492   7.668   3.845  11.005  0.2612  0.9546  0.6083
  182MOL0     C24493   7.655   3.895  11.130  0.0166 -0.4026  0.8275
  182MOL0     O24494   7.650   3.803  11.235 -0.0528 -1.1403 -0.2786
  182MOL0     C24495   7.608   3.850  11.363 -0.2164 -0.1974  0.1342
  182MOL0     C24496   7.587   3.734  11.449  0.5341 -0.4620  1.7931
  182MOL0     C24497   7.728   3.685  11.494  1.1706  0.2738  0.4932
  182MOL0     C24498   7.728   3.535  11.524  0.3222  0.6068 -0.0579
  182MOL0     C24499   7.653   3.502  11.648  0.0116 -1.2742 -0.3847
  182MOL0     C24500   7.604   3.482  11.758  0.3290 -0.3927 -0.2715
  182MOL0     C24501   7.643   4.034  11.146  0.9410  0.3899 -0.0251
  182MOL0     C24502   7.627   4.114  11.043  0.2381 -0.8624  0.4779
  182MOL0     H24503   7.386   4.216  10.575 -1.4642  0.7758 -1.6858
  182MOL0     H24504   7.273   4.368  10.455 -0.2174 -0.7339  0.8244
  182MOL0     H24505   7.187   4.736  10.636  0.4366  2.5969  0.2687
  182MOL0     H24506   7.297   4.831  10.531 -1.5931  2.0611 -1.6469
  182MOL0     H24507   7.128   4.846  10.367  3.4085 -2.5256  0.2051
  182MOL0     H24508   7.030   4.736  10.461 -1.2187  0.5192  0.7941
  182MOL0     H24509   7.028   4.893  10.657  1.4870 -0.1281 -0.5262
  182MOL0     H24510   7.082   5.021  10.536 -0.9282  0.9191  0.7952
  182MOL0     H24511   6.874   4.924  10.393 -1.7319  0.3502  0.2779
  182MOL0     H24512   6.832   4.849  10.556 -1.2811  1.2840 -0.5214
  182MOL0     H24513   6.842   5.086  10.645  0.8206  1.1923 -0.6696
  182MOL0     H24514   6.886   5.139  10.487 -4.3178  2.2551 -2.3195
  182MOL0     H24515   6.651   5.045  10.397  1.0225  2.1644 -1.1705
  182MOL0     H24516   6.620   4.992  10.570 -0.5550 -0.6022 -1.0273
  182MOL0     H24517   6.509   5.202  10.501 -0.2432  1.8146  1.3031
  182MOL0     H24518   6.586   5.195  10.646  1.8562 -0.1350  0.1727
  182MOL0     H24519   6.757   5.361  10.579  0.5977  0.6564  0.6876
  182MOL0     H24520   6.616   5.416  10.510 -1.7841 -0.9543  1.3337
  182MOL0     H24521   6.524   5.262  10.291  0.4400 -0.0321  0.7719
  182MOL0     H24522   6.617   5.207   9.978 -4.0416 -0.6834  3.8804
  182MOL0     H24523   6.514   5.332  10.011 -0.2572 -1.4415 -0.0669
  182MOL0     H24524   6.799   5.388   9.928 -0.8868  0.1568 -0.2080
  182MOL0     H24525   6.671   5.512   9.952  0.3334 -0.2225 -0.6594
  182MOL0     H24526   6.537   5.430   9.772  0.6902  1.6643  0.4076
  182MOL0     H24527   6.663   5.309   9.733 -2.1021 -1.0731  2.5940
  182MOL0     H24528   6.816   5.521   9.740  1.4266 -2.6628 -1.3654
  182MOL0     H24529   6.668   5.619   9.738  1.7493 -0.6382 -0.9769
  182MOL0     H24530   6.875   5.327   9.487  3.0305 -0.7849  0.0342
  182MOL0     H24531   7.123   5.320   9.271 -1.5895  0.6727  0.4863
  182MOL0     H24532   7.222   5.370   9.418 -0.3558 -0.3519  2.4341
  182MOL0     H24533   7.082   5.263   9.439 -2.8160  0.5865 -1.7462
  182MOL0     H24534   7.407   5.875   9.365 -1.3692  2.9588  0.8940
  182MOL0     H24535   7.600   5.960   9.235  1.2381 -1.3826  0.7164
  182MOL0     H24536   7.583   5.919   8.782 -4.0404  1.5460 -1.4018
  182MOL0     H24537   7.523   6.081   8.832 -0.6445  0.0487  1.1972
  182MOL0     H24538   7.727   6.085   8.679  1.7365  0.7402  0.0717
  182MOL0     H24539   7.722   6.174   8.811  0.6379 -0.0362  1.1861
  182MOL0     H24540   7.922   5.958   8.776 -0.7580 -1.2731  1.9334
  182MOL0     H24541   7.827   5.929   8.915 -3.4087  0.1061 -1.4579
  182MOL0     H24542   8.053   6.054   8.926  0.8636  2.2281 -0.7039
  182MOL0     H24543   7.968   6.199   8.883 -2.2465 -0.3181 -1.6308
  182MOL0     H24544   7.888   6.029   9.108  0.8942  0.1757  1.3065
  182MOL0     H24545   7.818   6.183   9.068 -0.4968 -1.3819  0.4069
  182MOL0     H24546   8.108   6.153   9.145 -0.0616 -0.7810 -0.5407
  182MOL0     H24547   8.022   6.298   9.113 -1.1440  0.9928  2.7892
  182MOL0     H24548   7.882   6.288   9.313  2.3550  2.2720 -1.1856
  182MOL0     H24549   8.050   6.243   9.361 -1.2773 -0.7786  3.3774
  182MOL0     H24550   7.826   6.051   9.338  2.8164 -0.4779 -4.5856
  182MOL0     H24551   7.870   6.100   9.483 -3.1946  0.0484 -1.3995
  182MOL0     H24552   7.407   5.858   8.869  1.9636  0.7458  0.1912
  182MOL0     H24553   7.224   5.754   8.980 -1.2884  2.0906 -0.0591
  182MOL0     H24554   6.993   5.794   9.395 -2.8164 -0.8182 -3.5722
  182MOL0     H24555   6.774   5.735   9.509 -1.4032 -1.0607 -1.8974
  182MOL0     H24556   7.423   4.689  10.702 -0.6689 -0.3147 -1.2801
  182MOL0     H24557   7.562   4.538  10.813 -0.9041 -2.0329  2.6767
  182MOL0     H24558   7.641   3.868  10.794 -1.0121  2.6112 -1.9266
  182MOL0     H24559   7.681   3.739  10.990  1.3876  1.3929 -2.2327
  182MOL0     H24560   7.682   3.916  11.411 -0.8291  1.2414 -0.8509
  182MOL0     H24561   7.517   3.911  11.354  2.0846  3.5451 -0.2215
  182MOL0     H24562   7.540   3.663  11.380  0.5683 -1.0390  2.3606
  182MOL0     H24563   7.523   3.751  11.536  2.0814  0.0782  2.8686
  182MOL0     H24564   7.751   3.749  11.580  2.4361  0.8907 -0.2632
  182MOL0     H24565   7.795   3.697  11.408  1.2098  0.3381  0.5314
  182MOL0     H24566   7.830   3.498  11.532 -0.1278 -0.8097 -0.5944
  182MOL0     H24567   7.680   3.494  11.434  2.1161  1.3895 -1.4393
  182MOL0     H24568   7.555   3.461  11.851  0.3898 -0.1753 -0.1894
  182MOL0     H24569   7.624   4.086  11.239  0.4226  1.6143 -0.7788
  182MOL0     H24570   7.619   4.220  11.063  0.8867 -1.2657  3.2771
  183MOL0     O24571  11.084   0.383   6.039  0.4614  0.1149 -0.3326
  183MOL0     C24572  11.112   0.325   5.936 -0.7481 -1.0578  0.5111
  183MOL0     O24573  11.176   0.381   5.833 -0.4734  1.2599  0.3650
  183MOL0     C24574  11.224   0.516   5.841 -1.2848  0.0854 -0.0856
  183MOL0     C24575  11.363   0.531   5.868  0.9542  0.2138 -0.0338
  183MOL0     C24576  11.426   0.653   5.878 -0.6991  0.6450 -0.5857
  183MOL0     C24577  11.354   0.772   5.839 -0.4934  0.3951 -0.1415
  183MOL0     O24578  11.416   0.891   5.837  0.2173 -0.6711 -0.6710
  183MOL0     C24579  11.515   0.931   5.936 -0.2337 -0.4433  0.0292
  183MOL0     C24580  11.542   1.076   5.940  0.2071 -0.2715  0.1020
  183MOL0     C24581  11.419   1.164   5.889  0.1766 -0.3436  0.4404
  183MOL0     C24582  11.465   1.308   5.866  0.0789  0.2453 -0.1482
  183MOL0     C24583  11.554   1.333   5.748  0.1527 -0.5078  0.1448
  183MOL0     C24584  11.479   1.315   5.619 -0.7871 -0.5606 -0.3351
  183MOL0     C24585  11.561   1.338   5.500  0.6016 -0.1436 -0.4460
  183MOL0     C24586  11.463   1.329   5.374 -0.0609 -0.5631 -0.2986
  183MOL0     N24587  11.532   1.365   5.254 -0.3732 -0.0111 -0.1286
  183MOL0     C24588  11.554   1.290   5.142  0.0877 -0.0152 -0.4349
  183MOL0     C24589  11.647   1.347   5.062 -0.6416  0.3661  0.2646
  183MOL0     C24590  11.685   1.321   4.925  0.6438 -0.4732 -0.6962
  183MOL0     C24591  11.564   1.348   4.835 -0.5013 -0.6492  0.8498
  183MOL0     C24592  11.614   1.349   4.692 -0.9027  0.6169  0.5916
  183MOL0     C24593  11.509   1.409   4.594  0.0864  0.3232  0.2047
  183MOL0     O24594  11.390   1.324   4.593  0.0710  0.3942  0.1819
  183MOL0     C24595  11.270   1.383   4.613 -0.3669  0.0195  0.0628
  183MOL0     C24596  11.172   1.352   4.520 -0.6089 -0.0811 -0.4517
  183MOL0     C24597  11.039   1.407   4.538  0.9557 -0.0344  0.5882
  183MOL0     C24598  10.934   1.390   4.425  0.1881 -0.5810  0.7636
  183MOL0     C24599  11.003   1.476   4.659 -0.3507 -0.4889 -0.2213
  183MOL0     C24600  10.869   1.523   4.704 -0.5471  0.4035  0.4780
  183MOL0     O24601  10.858   1.564   4.832 -0.2228  0.3470 -0.2551
  183MOL0     C24602  10.738   1.621   4.869  0.0801 -0.3105 -0.1532
  183MOL0     C24603  10.674   1.589   4.990  0.3543  0.2359  0.0295
  183MOL0     C24604  10.564   1.660   5.032  1.0539 -0.2684 -1.3610
  183MOL0     C24605  10.505   1.765   4.950  0.0779 -0.8694 -0.2009
  183MOL0     O24606  10.395   1.844   4.977  0.0089 -0.3003 -0.4267
  183MOL0     C24607  10.321   1.833   5.096 -0.4990 -0.0440  0.3235
  183MOL0     C24608  10.197   1.921   5.086 -0.2619  0.1886  0.2417
  183MOL0     C24609  10.215   2.073   5.083 -0.8939  0.8295  0.6215
  183MOL0     C24610  10.113   2.147   4.995 -0.4805  0.2476 -0.3523
  183MOL0     C24611  10.151   2.300   4.992  0.6546 -1.0791  0.0533
  183MOL0     C24612  10.059   2.370   4.896  0.0837 -1.1639  0.0137
  183MOL0     C24613  10.087   2.524   4.888 -0.2104 -0.4501  0.3199
  183MOL0     C24614   9.968   2.591   4.824  0.1501  0.1085 -0.1966
  183MOL0    Cl24615   9.835   2.632   4.933 -0.0842  0.3087 -0.5262
  183MOL0     C24616  10.558   1.786   4.816  0.8894  0.3395 -0.1381
  183MOL0     C24617  10.685   1.716   4.781  0.2935  0.4609  0.2534
  183MOL0     O24618  10.775   1.500   4.630 -0.0704  0.1021  0.5062
  183MOL0     C24619  11.113   1.501   4.745  0.9480  0.1958 -0.3978
  183MOL0     C24620  11.238   1.471   4.712  0.0692  0.8307 -0.7338
  183MOL0     N24621  11.683   1.462   5.123  0.3132 -0.2696 -0.0871
  183MOL0     N24622  11.620   1.469   5.238  0.4453 -0.0573  0.3864
  183MOL0     C24623  11.226   0.759   5.805  0.6052 -0.2624 -0.1196
  183MOL0     C24624  11.160   0.631   5.808  0.1102 -0.5812  0.7098
  183MOL0     C24625  11.099   0.183   5.936  0.9927 -0.4301 -0.3674
  183MOL0     C24626  11.028   0.117   6.030 -0.6772  0.3727 -0.6535
  183MOL0     C24627  11.012  -0.023   6.029  0.5482 -0.5018 -0.8793
  183MOL0     C24628  11.082  -0.107   5.940  0.1900 -0.1134 -0.7036
  183MOL0     O24629  11.029  -0.234   5.942 -0.2289 -0.4209 -0.1579
  183MOL0     C24630  11.137  -0.326   5.914 -0.5381 -1.2222  0.4489
  183MOL0     C24631  11.078  -0.453   5.966 -0.5703  0.1822  0.2423
  183MOL0     C24632  11.057  -0.450   6.115  0.9916  0.2479  0.4740
  183MOL0     C24633  11.069  -0.591   6.183 -0.0103  0.0109  0.2416
  183MOL0     C24634  11.050  -0.566   6.326 -0.0424 -0.0330  0.2284
  183MOL0     C24635  11.049  -0.536   6.443 -0.5793  0.1902 -1.0222
  183MOL0     C24636  11.156  -0.037   5.841  0.1561  0.1115  0.2594
  183MOL0     C24637  11.162   0.105   5.845  0.1996 -0.5411  0.6927
  183MOL0     H24638  11.408   0.439   5.904 -0.2741  0.4122  2.1655
  183MOL0     H24639  11.532   0.655   5.903 -0.3265  0.1878 -2.0289
  183MOL0     H24640  11.475   0.909   6.036  1.3692  0.0915  0.8148
  183MOL0     H24641  11.603   0.867   5.923 -1.5077 -2.2840  0.0101
  183MOL0     H24642  11.561   1.100   6.045 -0.3957  0.1974  0.1090
  183MOL0     H24643  11.634   1.089   5.883 -2.0680  1.6117 -3.4375
  183MOL0     H24644  11.378   1.140   5.790  1.0337  3.0871 -0.9034
  183MOL0     H24645  11.344   1.175   5.967  0.7397  1.5291  0.7748
  183MOL0     H24646  11.375   1.365   5.841  0.8489  0.6370 -2.2345
  183MOL0     H24647  11.519   1.343   5.955  0.1985 -1.6645  0.5821
  183MOL0     H24648  11.594   1.434   5.751  0.9171 -0.7782 -0.7366
  183MOL0     H24649  11.643   1.271   5.740  0.0100 -0.6918 -0.0429
  183MOL0     H24650  11.435   1.215   5.620 -0.4374 -0.7167  1.2752
  183MOL0     H24651  11.393   1.381   5.631 -1.3092 -1.2761 -0.0985
  183MOL0     H24652  11.616   1.433   5.501 -2.0564  1.6367 -3.8220
  183MOL0     H24653  11.640   1.264   5.488 -0.3373 -1.0312 -1.3076
  183MOL0     H24654  11.383   1.403   5.381  0.0138  0.0158 -3.7817
  183MOL0     H24655  11.422   1.229   5.359 -1.6632  0.2500 -1.7022
  183MOL0     H24656  11.502   1.196   5.131  0.4637 -0.6154  2.2712
  183MOL0     H24657  11.772   1.383   4.904  2.2918 -3.2754 -2.9525
  183MOL0     H24658  11.723   1.218   4.927 -2.6012 -1.7868  0.1333
  183MOL0     H24659  11.514   1.443   4.855  0.3103 -0.1176  0.4391
  183MOL0     H24660  11.493   1.266   4.841  1.8335 -3.0106 -1.0756
  183MOL0     H24661  11.654   1.252   4.662  0.7774  1.0685  1.2236
  183MOL0     H24662  11.687   1.429   4.704 -3.4483  3.0827  0.7607
  183MOL0     H24663  11.553   1.425   4.495  0.9575  0.7646  0.6550
  183MOL0     H24664  11.486   1.513   4.617  0.1941  0.2906  0.4572
  183MOL0     H24665  11.193   1.299   4.428  4.6222 -0.7039  0.7935
  183MOL0     H24666  10.901   1.487   4.387  1.0499 -1.0927 -1.4595
  183MOL0     H24667  10.980   1.340   4.339 -2.1495 -3.2642  0.9233
  183MOL0     H24668  10.858   1.315   4.449 -0.4077 -1.0554 -2.2361
  183MOL0     H24669  10.708   1.514   5.060 -0.8203 -0.8675 -0.5484
  183MOL0     H24670  10.513   1.646   5.127  1.9499  0.9235 -0.6744
  183MOL0     H24671  10.286   1.729   5.096  0.4196 -0.3708  1.7865
  183MOL0     H24672  10.369   1.867   5.187 -0.4444 -4.4780  2.2117
  183MOL0     H24673  10.159   1.884   4.991  1.6683  1.9097 -1.2740
  183MOL0     H24674  10.132   1.908   5.173  1.0086  3.4969  1.8638
  183MOL0     H24675  10.318   2.099   5.058 -0.5929  0.1978  1.1661
  183MOL0     H24676  10.212   2.113   5.184  3.2841 -0.1892  1.3237
  183MOL0     H24677  10.111   2.104   4.895 -3.0040 -0.9467  0.1137
  183MOL0     H24678  10.007   2.136   5.023 -0.2461 -0.0368  0.4347
  183MOL0     H24679  10.254   2.307   4.956  0.1533  0.7729 -1.1110
  183MOL0     H24680  10.139   2.346   5.090 -1.8492  1.5239 -1.3242
  183MOL0     H24681  10.068   2.335   4.793  3.4005  0.8507 -0.5423
  183MOL0     H24682   9.955   2.366   4.931  0.1545  0.4940  0.5362
  183MOL0     H24683  10.181   2.547   4.836 -1.1541  4.2257  0.2250
  183MOL0     H24684  10.111   2.579   4.980 -0.4324 -1.0927  0.7731
  183MOL0     H24685   9.935   2.527   4.741 -3.5878 -1.2721  2.0721
  183MOL0     H24686   9.987   2.691   4.783 -2.8337 -0.5598 -3.7211
  183MOL0     H24687  10.506   1.843   4.739 -1.6334  0.0717  1.2803
  183MOL0     H24688  10.736   1.730   4.687 -1.8811 -0.7654 -1.1940
  183MOL0     H24689  11.104   1.544   4.845 -0.0237 -2.3029  0.6766
  183MOL0     H24690  11.314   1.494   4.785 -1.2688  3.4101 -0.0474
  183MOL0     H24691  11.163   0.845   5.783 -0.8420 -0.9712  1.0728
  183MOL0     H24692  11.053   0.623   5.789 -0.2909  0.4055  2.3438
  183MOL0     H24693  10.956   0.166   6.096  1.5028  2.3110  0.4308
  183MOL0     H24694  10.947  -0.064   6.105  3.1767 -1.5793  0.9565
  183MOL0     H24695  11.143  -0.325   5.805 -2.1245 -0.4769  0.3268
  183MOL0     H24696  11.234  -0.307   5.960 -0.5192  1.8839 -0.6487
  183MOL0     H24697  11.138  -0.537   5.931 -0.3696 -0.1654  1.4066
  183MOL0     H24698  10.987  -0.467   5.907  0.7602  0.0781 -1.9233
  183MOL0     H24699  10.958  -0.410   6.139  1.5046  0.0800  3.3054
  183MOL0     H24700  11.127  -0.376   6.156  0.9405  1.2387 -1.1492
  183MOL0     H24701  11.163  -0.639   6.152 -0.1053  1.4766 -2.7046
  183MOL0     H24702  11.002  -0.663   6.137  1.7545 -0.5125 -1.6751
  183MOL0     H24703  11.052  -0.500   6.543 -2.0693 -0.4130 -0.7352
  183MOL0     H24704  11.199  -0.092   5.758 -1.4852 -1.6004  0.4675
  183MOL0     H24705  11.223   0.151   5.768 -0.3968 -0.4367  0.2720
  184MOL0     O24706   8.688   1.046   7.340 -0.8231  0.3468 -0.6852
  184MOL0     C24707   8.803   1.009   7.355  0.5659 -0.1073  0.0785
  184MOL0     O24708   8.842   0.890   7.401 -0.6276  0.3359 -0.3678
  184MOL0     C24709   8.747   0.798   7.435 -0.1044 -0.4097  0.4145
  184MOL0     C24710   8.774   0.665   7.412  0.2260  0.8030 -0.2380
  184MOL0     C24711   8.693   0.565   7.457  0.6607 -0.6933 -0.0921
  184MOL0     C24712   8.574   0.599   7.523  0.7268 -0.3294  0.5646
  184MOL0     O24713   8.489   0.489   7.550 -0.5097  0.7786  0.8179
  184MOL0     C24714   8.437   0.490   7.683 -0.0357  0.8972  0.8152
  184MOL0     C24715   8.325   0.381   7.676 -0.0223  0.3790 -1.4426
  184MOL0     C24716   8.349   0.278   7.791  0.1611 -0.1692 -0.6707
  184MOL0     C24717   8.234   0.176   7.787 -0.0455 -0.4494  0.3953
  184MOL0     C24718   8.246   0.088   7.912  0.5079 -0.4071 -0.1518
  184MOL0     C24719   8.137  -0.024   7.907 -0.6372  0.2323 -0.1229
  184MOL0     C24720   8.195  -0.150   7.840  0.1483  0.3274 -0.3259
  184MOL0     C24721   8.265  -0.235   7.941 -1.0475  0.0151 -0.3693
  184MOL0     N24722   8.325  -0.357   7.896 -0.4996 -0.8085  0.1625
  184MOL0     C24723   8.420  -0.363   7.796 -0.5926 -0.4843 -0.1687
  184MOL0     C24724   8.474  -0.484   7.796  0.0137 -0.8634 -1.1930
  184MOL0     C24725   8.572  -0.542   7.707  0.3286  0.0672  0.2113
  184MOL0     C24726   8.714  -0.516   7.772  0.5882  0.6151 -0.0696
  184MOL0     C24727   8.822  -0.560   7.674 -0.6131 -0.5840  1.0042
  184MOL0     C24728   8.959  -0.543   7.739  0.3373  0.1801  0.0537
  184MOL0     O24729   8.968  -0.619   7.857 -0.0265 -0.3588 -0.3647
  184MOL0     C24730   9.089  -0.610   7.916 -0.5852  0.8015 -0.3802
  184MOL0     C24731   9.207  -0.543   7.869  0.1496 -0.5358  0.4937
  184MOL0     C24732   9.327  -0.536   7.939  0.3352  0.0027  0.1616
  184MOL0     C24733   9.436  -0.450   7.879 -0.1287  0.3954  0.1051
  184MOL0     C24734   9.343  -0.606   8.064  0.2198 -0.6440 -0.0654
  184MOL0     C24735   9.466  -0.632   8.149 -0.5583  0.7674  0.5281
  184MOL0     O24736   9.460  -0.735   8.240  0.0025 -0.0105  0.3678
  184MOL0     C24737   9.586  -0.783   8.283 -0.0453 -0.2132  0.3051
  184MOL0     C24738   9.603  -0.793   8.416 -0.3331  0.5725 -0.7385
  184MOL0     C24739   9.715  -0.859   8.463 -1.2477  0.4506 -0.7708
  184MOL0     C24740   9.812  -0.926   8.382 -0.0787 -0.7019  0.3430
  184MOL0     O24741   9.921  -0.996   8.434 -0.0513 -0.4012 -0.2455
  184MOL0     C24742   9.991  -1.088   8.352 -0.5004  0.0503 -0.3080
  184MOL0     C24743  10.092  -1.166   8.434  0.1768  0.4863  0.9192
  184MOL0     C24744  10.163  -1.067   8.523 -0.5578 -0.1276 -0.5001
  184MOL0     C24745  10.277  -1.139   8.597  0.5276 -0.1340  0.0143
  184MOL0     C24746  10.320  -1.074   8.730 -0.6927 -0.5024 -1.2416
  184MOL0     C24747  10.392  -0.936   8.698  0.4252  0.1465 -0.5125
  184MOL0     C24748  10.537  -0.945   8.653  0.3916 -0.0963 -0.1181
  184MOL0     C24749  10.584  -0.838   8.562  1.0260 -0.1010 -0.2019
  184MOL0    Cl24750  10.759  -0.855   8.550 -0.0852 -0.1904  0.0902
  184MOL0     C24751   9.776  -0.924   8.238 -0.3716 -0.2971 -0.9988
  184MOL0     C24752   9.663  -0.852   8.195 -1.0612  0.5613 -0.0436
  184MOL0     O24753   9.557  -0.555   8.137 -0.2246  0.1307  0.0158
  184MOL0     C24754   9.236  -0.687   8.101  0.8853 -0.4097  0.3941
  184MOL0     C24755   9.115  -0.681   8.032  2.1411 -0.1609  1.1384
  184MOL0     N24756   8.425  -0.551   7.908 -0.6554 -0.5848 -0.4324
  184MOL0     N24757   8.335  -0.478   7.960 -0.4160  0.1233  0.6620
  184MOL0     C24758   8.541   0.736   7.536 -0.4057  0.2413  0.1872
  184MOL0     C24759   8.631   0.837   7.509 -0.2593 -0.6464 -0.3728
  184MOL0     C24760   8.907   1.097   7.323 -0.0914 -0.5419  0.0637
  184MOL0     C24761   9.041   1.067   7.360 -0.6278 -0.1998 -0.7753
  184MOL0     C24762   9.154   1.159   7.335  0.3764  0.5316 -0.0249
  184MOL0     C24763   9.122   1.278   7.267 -0.7809 -0.3685  0.4469
  184MOL0     O24764   9.223   1.362   7.222  0.4570 -0.1662 -0.0817
  184MOL0     C24765   9.254   1.467   7.326 -1.0775 -0.2109  0.0901
  184MOL0     C24766   9.393   1.449   7.388 -0.1795 -0.3370 -0.1803
  184MOL0     C24767   9.432   1.560   7.491 -0.7191 -0.9431  0.2144
  184MOL0     C24768   9.582   1.567   7.543  0.4926 -0.2001 -0.2251
  184MOL0     C24769   9.615   1.438   7.607 -0.3332 -0.3222  0.3664
  184MOL0     C24770   9.647   1.330   7.642  0.6021  0.2085  0.1418
  184MOL0     C24771   8.998   1.306   7.227  0.4379 -0.1994 -0.6731
  184MOL0     C24772   8.889   1.221   7.260 -0.7995  0.0425 -0.5394
  184MOL0     H24773   8.864   0.638   7.356 -0.4075 -1.5297 -0.2225
  184MOL0     H24774   8.725   0.464   7.434  2.2171  0.3290 -2.8813
  184MOL0     H24775   8.508   0.475   7.766 -1.0353 -0.0943  1.5222
  184MOL0     H24776   8.378   0.582   7.693 -0.0341  0.7657  2.2425
  184MOL0     H24777   8.230   0.432   7.696  1.3257  1.8710  1.8581
  184MOL0     H24778   8.321   0.333   7.577  1.9270  0.1916 -1.4671
  184MOL0     H24779   8.442   0.222   7.784  0.1110 -0.2565 -0.6374
  184MOL0     H24780   8.335   0.328   7.887 -2.8042  0.3900 -1.2695
  184MOL0     H24781   8.137   0.225   7.787  0.1737 -0.0101  0.4459
  184MOL0     H24782   8.259   0.125   7.694  0.6528 -0.5374  0.6197
  184MOL0     H24783   8.349   0.052   7.916  0.6777  0.1255  0.3617
  184MOL0     H24784   8.229   0.148   8.002  3.5726 -1.4434  1.2443
  184MOL0     H24785   8.121  -0.052   8.011  1.8592  1.0924  0.5534
  184MOL0     H24786   8.038   0.007   7.874 -0.7022 -0.6753 -0.8374
  184MOL0     H24787   8.106  -0.204   7.805 -0.8026 -0.8854  3.4706
  184MOL0     H24788   8.265  -0.124   7.760  2.0249  0.2907  1.2361
  184MOL0     H24789   8.198  -0.258   8.025  0.0370  1.2733  0.8857
  184MOL0     H24790   8.343  -0.171   7.984  0.0198 -2.0026  0.8824
  184MOL0     H24791   8.450  -0.287   7.725 -0.5080  0.5840  0.9798
  184MOL0     H24792   8.548  -0.647   7.692 -2.6687  0.9828 -2.3158
  184MOL0     H24793   8.566  -0.501   7.606  0.0384 -1.9916 -0.6503
  184MOL0     H24794   8.737  -0.567   7.866  0.6048 -1.0204 -0.9243
  184MOL0     H24795   8.723  -0.407   7.779 -2.7283  1.0273 -0.3186
  184MOL0     H24796   8.819  -0.496   7.586 -3.0205  1.1871  2.2699
  184MOL0     H24797   8.805  -0.666   7.651 -0.5139 -0.8759  2.2073
  184MOL0     H24798   8.990  -0.440   7.760  4.2656 -0.7269 -0.4667
  184MOL0     H24799   9.033  -0.587   7.671 -1.7495 -0.0628 -2.1867
  184MOL0     H24800   9.218  -0.470   7.790  0.4633 -0.2722  0.7807
  184MOL0     H24801   9.433  -0.462   7.770  0.4776  1.4950 -0.0437
  184MOL0     H24802   9.446  -0.345   7.906  2.5167 -0.0303  1.0535
  184MOL0     H24803   9.529  -0.505   7.898  0.4135  0.2844 -2.4505
  184MOL0     H24804   9.535  -0.757   8.492  1.0647 -1.8057  1.8252
  184MOL0     H24805   9.728  -0.878   8.569 -1.6556  5.0451  0.3403
  184MOL0     H24806   9.929  -1.164   8.303  2.5286 -2.9203  0.1127
  184MOL0     H24807  10.042  -1.034   8.272 -0.2699  3.1730  1.7526
  184MOL0     H24808  10.056  -1.245   8.500 -5.7257 -1.1387 -3.4074
  184MOL0     H24809  10.172  -1.212   8.374 -1.8544 -0.0923 -1.5515
  184MOL0     H24810  10.100  -1.031   8.605  0.1579 -0.0695  0.0326
  184MOL0     H24811  10.194  -0.977   8.468 -3.6072  2.5891  1.8743
  184MOL0     H24812  10.244  -1.241   8.617  1.9837 -0.3652  1.4495
  184MOL0     H24813  10.361  -1.149   8.528 -0.1065  1.6425 -1.0855
  184MOL0     H24814  10.386  -1.139   8.788  1.0238  2.5362  0.4343
  184MOL0     H24815  10.234  -1.058   8.795  1.3639  4.3662  0.7300
  184MOL0     H24816  10.328  -0.879   8.630  0.7022 -0.3904 -1.2304
  184MOL0     H24817  10.381  -0.879   8.791 -2.9711  0.2051 -0.8198
  184MOL0     H24818  10.546  -1.044   8.607  0.4783  0.5861 -1.6024
  184MOL0     H24819  10.599  -0.952   8.743 -1.2399  2.2536  1.3026
  184MOL0     H24820  10.556  -0.735   8.586 -2.9902 -0.7416 -1.4758
  184MOL0     H24821  10.533  -0.845   8.466  0.1964  0.5154  0.1731
  184MOL0     H24822   9.843  -0.963   8.163  2.4226  1.6403  0.3126
  184MOL0     H24823   9.637  -0.849   8.089 -1.5232 -1.6411 -0.0382
  184MOL0     H24824   9.224  -0.742   8.193  0.1288 -3.7353 -1.5463
  184MOL0     H24825   9.034  -0.738   8.078 -0.1347  1.6283 -0.3753
  184MOL0     H24826   8.452   0.762   7.592 -0.3144  0.5098  0.2111
  184MOL0     H24827   8.602   0.940   7.528  2.8493  0.2701  0.0133
  184MOL0     H24828   9.063   0.973   7.409  1.2225 -0.6650 -2.3720
  184MOL0     H24829   9.260   1.142   7.355 -0.0814 -0.6583  1.5369
  184MOL0     H24830   9.260   1.570   7.292  0.7616  0.2335  1.5794
  184MOL0     H24831   9.169   1.467   7.396 -0.3503  1.4098  1.0256
  184MOL0     H24832   9.474   1.457   7.315 -0.6866 -1.5879 -0.9195
  184MOL0     H24833   9.401   1.360   7.451  1.5116  0.7026  1.1741
  184MOL0     H24834   9.362   1.562   7.575  0.2707  0.7016  1.0596
  184MOL0     H24835   9.410   1.658   7.446 -1.3878 -0.8515  0.7223
  184MOL0     H24836   9.598   1.648   7.615 -1.5475 -2.0351  2.4985
  184MOL0     H24837   9.642   1.580   7.452  1.3882  2.2173  0.6109
  184MOL0     H24838   9.660   1.229   7.677 -0.9855 -0.2494 -0.5333
  184MOL0     H24839   8.976   1.392   7.164 -0.6036 -0.2405 -0.3820
  184MOL0     H24840   8.790   1.253   7.228 -0.3769 -0.0875 -2.0150
  185MOL0     O24841   0.070  10.485   9.688  0.5020  0.2940  0.0648
  185MOL0     C24842  -0.039  10.430   9.672 -0.3221 -0.4171  0.3055
  185MOL0     O24843  -0.055  10.305   9.619 -0.3887  0.3390 -0.5513
  185MOL0     C24844   0.054  10.222   9.614 -0.8431 -0.9646  0.2540
  185MOL0     C24845   0.028  10.100   9.674 -0.3710  0.8026 -0.0747
  185MOL0     C24846   0.125  10.003   9.666 -0.0358  1.6282 -1.1589
  185MOL0     C24847   0.250  10.029   9.602 -1.0126 -0.0904  0.1224
  185MOL0     O24848   0.352   9.938   9.594  0.1391  0.4228 -0.1518
  185MOL0     C24849   0.340   9.847   9.484 -0.9686  0.1465 -0.0718
  185MOL0     C24850   0.470   9.775   9.489 -1.1287 -1.2676 -0.0196
  185MOL0     C24851   0.593   9.865   9.476 -0.2952 -0.7713  0.8079
  185MOL0     C24852   0.720   9.781   9.457 -0.2473 -0.0584 -0.8501
  185MOL0     C24853   0.848   9.865   9.453  0.4164  0.5594 -0.6597
  185MOL0     C24854   0.977   9.793   9.452 -0.1092 -0.0611 -0.4346
  185MOL0     C24855   1.100   9.877   9.491  0.2960 -0.6407  0.3351
  185MOL0     C24856   1.207   9.798   9.564 -0.4800  0.4482  0.2207
  185MOL0     N24857   1.256   9.694   9.477 -0.8044 -0.0269  0.4224
  185MOL0     C24858   1.218   9.562   9.468  0.1292 -0.7318  0.4137
  185MOL0     C24859   1.301   9.508   9.385 -0.7228  0.5788 -0.5227
  185MOL0     C24860   1.315   9.358   9.358 -0.7049  0.6816  1.1893
  185MOL0     C24861   1.195   9.301   9.286 -0.4416  0.0120  0.5550
  185MOL0     C24862   1.171   9.149   9.316  0.3781  0.8136  0.5126
  185MOL0     C24863   1.261   9.052   9.251  0.4266 -0.5091  0.1848
  185MOL0     O24864   1.381   9.067   9.334 -0.7222  0.8220  0.8962
  185MOL0     C24865   1.485   8.985   9.297  0.5908  0.1317  0.6506
  185MOL0     C24866   1.496   8.897   9.186  0.6506  0.2227 -0.0061
  185MOL0     C24867   1.618   8.830   9.157 -0.0242 -0.3628 -0.9791
  185MOL0     C24868   1.603   8.753   9.032  0.3188 -0.1216 -0.4177
  185MOL0     C24869   1.731   8.846   9.256 -0.4101 -0.3075 -0.0823
  185MOL0     C24870   1.871   8.787   9.241 -0.2982 -0.0020  0.0250
  185MOL0     O24871   1.948   8.784   9.353 -0.3277  0.1600  0.0378
  185MOL0     C24872   2.067   8.731   9.357 -0.7163  0.0018 -0.4700
  185MOL0     C24873   2.108   8.605   9.310 -0.0095  0.6934 -0.0041
  185MOL0     C24874   2.234   8.544   9.330  0.6721  0.6717  0.1622
  185MOL0     C24875   2.334   8.618   9.394  0.4347  0.4757  0.0200
  185MOL0     O24876   2.462   8.577   9.404 -0.2786  1.4116 -0.2558
  185MOL0     C24877   2.489   8.445   9.454 -0.0016  0.3641 -0.0018
  185MOL0     C24878   2.441   8.429   9.595  0.1720  1.2123  0.1759
  185MOL0     C24879   2.393   8.277   9.615 -0.0171 -0.3153  0.8264
  185MOL0     C24880   2.372   8.235   9.768  0.5918  0.4735 -0.5656
  185MOL0     C24881   2.329   8.088   9.779  0.1168 -0.7669 -0.3493
  185MOL0     C24882   2.446   7.995   9.733  0.5866  0.2805 -0.1751
  185MOL0     C24883   2.413   7.845   9.748 -0.2559 -0.0119 -0.1856
  185MOL0     C24884   2.310   7.798   9.638 -0.1357  0.4681 -0.0423
  185MOL0    Cl24885   2.297   7.629   9.658 -0.4633  0.2360 -0.2581
  185MOL0     C24886   2.293   8.740   9.459 -1.1172 -0.3274 -0.6880
  185MOL0     C24887   2.170   8.796   9.432  0.0458  0.0090  0.6109
  185MOL0     O24888   1.910   8.742   9.134  0.2172 -0.2919  0.1668
  185MOL0     C24889   1.702   8.911   9.373  0.7841 -0.1763 -0.3055
  185MOL0     C24890   1.589   8.995   9.388  1.3795 -0.0673 -0.3458
  185MOL0     N24891   1.388   9.603   9.339  0.3710  0.9023  0.4922
  185MOL0     N24892   1.363   9.714   9.396 -0.1888  0.2171 -0.0143
  185MOL0     C24893   0.282  10.154   9.553  0.5373 -0.7446  0.4786
  185MOL0     C24894   0.187  10.247   9.569  0.0325 -0.2952  0.3711
  185MOL0     C24895  -0.159  10.502   9.722  0.3190 -0.4804 -0.2463
  185MOL0     C24896  -0.149  10.607   9.816 -0.3607  0.1869  0.0778
  185MOL0     C24897  -0.250  10.686   9.861  0.2492 -0.4279  0.0151
  185MOL0     C24898  -0.385  10.666   9.803  0.3445 -0.7516 -0.7990
  185MOL0     O24899  -0.492  10.748   9.836  0.2400  0.2447 -0.3463
  185MOL0     C24900  -0.481  10.850   9.938  0.6520  0.0952  0.0704
  185MOL0     C24901  -0.623  10.911   9.967  0.0038  0.0204  0.2409
  185MOL0     C24902  -0.667  11.003   9.856 -0.1205  0.1258  0.9133
  185MOL0     C24903  -0.594  11.139   9.837 -0.4164  0.5398 -0.0121
  185MOL0     C24904  -0.583  11.209   9.962  0.0641 -0.3373  0.7459
  185MOL0     C24905  -0.585  11.271  10.066 -0.3315  0.4684  0.2878
  185MOL0     C24906  -0.397  10.564   9.714  0.7708  0.5664  0.0843
  185MOL0     C24907  -0.287  10.473   9.680  0.7347  0.4133 -0.1629
  185MOL0     H24908  -0.073  10.091   9.712 -0.4590 -1.3784 -0.6888
  185MOL0     H24909   0.111   9.900   9.700 -1.5421  2.5824  1.4315
  185MOL0     H24910   0.254   9.780   9.493 -1.8730  1.1452 -1.0570
  185MOL0     H24911   0.323   9.907   9.394 -3.5781  1.2743  1.0829
  185MOL0     H24912   0.478   9.725   9.586 -0.0568  1.1820  1.2359
  185MOL0     H24913   0.487   9.706   9.406  0.6166 -0.1474 -0.6514
  185MOL0     H24914   0.598   9.932   9.390 -0.2610 -0.1522  1.2825
  185MOL0     H24915   0.610   9.919   9.570  1.6000 -2.6698  1.6563
  185MOL0     H24916   0.724   9.698   9.529 -1.3073  0.0006 -0.7187
  185MOL0     H24917   0.708   9.731   9.361  0.0851 -2.8726  0.4706
  185MOL0     H24918   0.841   9.930   9.365 -0.3097  0.5033 -0.6475
  185MOL0     H24919   0.847   9.931   9.541  0.5747 -0.1074 -0.1517
  185MOL0     H24920   0.972   9.702   9.512  2.4214 -0.6917 -1.0449
  185MOL0     H24921   1.003   9.754   9.353  1.4568  0.5272 -0.2940
  185MOL0     H24922   1.144   9.917   9.400  1.9878 -1.7086  0.6273
  185MOL0     H24923   1.073   9.961   9.555 -1.2550 -0.4613 -0.5079
  185MOL0     H24924   1.177   9.765   9.664  1.2461  1.3589  1.0818
  185MOL0     H24925   1.289   9.866   9.590  0.5780 -1.3910  1.9895
  185MOL0     H24926   1.139   9.510   9.521 -4.3175  0.7350 -3.9863
  185MOL0     H24927   1.409   9.348   9.303 -0.2811  3.5481  1.2003
  185MOL0     H24928   1.323   9.310   9.456 -2.1445  0.7433  1.3489
  185MOL0     H24929   1.210   9.313   9.178  1.4221 -0.9037  0.6782
  185MOL0     H24930   1.107   9.361   9.312  0.0672  1.5382 -1.0237
  185MOL0     H24931   1.069   9.112   9.300  0.7190 -0.3238  0.8764
  185MOL0     H24932   1.182   9.130   9.423  0.0113  0.8337  0.5548
  185MOL0     H24933   1.277   9.075   9.145  1.7417 -2.5113 -0.1015
  185MOL0     H24934   1.219   8.951   9.260  2.0403 -1.0786  1.7907
  185MOL0     H24935   1.415   8.886   9.114 -0.2880  0.4953  0.9949
  185MOL0     H24936   1.503   8.708   9.034 -1.2291  2.9558  2.4486
  185MOL0     H24937   1.617   8.817   8.944  1.3980 -0.8111 -0.7648
  185MOL0     H24938   1.677   8.672   9.025  1.3627  0.8294 -0.6475
  185MOL0     H24939   2.039   8.542   9.256  1.1109 -0.7312  0.1642
  185MOL0     H24940   2.228   8.445   9.288 -4.9454  0.4803  0.6481
  185MOL0     H24941   2.438   8.375   9.388  2.4758 -0.1719 -1.4699
  185MOL0     H24942   2.593   8.414   9.439 -0.0578  0.2304 -0.1124
  185MOL0     H24943   2.523   8.444   9.665 -0.2749  1.7689  0.5857
  185MOL0     H24944   2.349   8.483   9.619 -0.2858 -0.6482  3.0560
  185MOL0     H24945   2.480   8.221   9.579  0.2450  1.1023 -0.8778
  185MOL0     H24946   2.310   8.265   9.545  1.7978 -0.3075 -1.4538
  185MOL0     H24947   2.466   8.262   9.817  0.1328 -0.8635  1.1735
  185MOL0     H24948   2.298   8.298   9.819  0.1955  0.7563 -1.4796
  185MOL0     H24949   2.236   8.077   9.723 -0.7808 -2.6640  1.3792
  185MOL0     H24950   2.299   8.045   9.875 -1.7591 -3.4881 -1.9932
  185MOL0     H24951   2.472   8.025   9.631 -0.5031  3.2889  0.3369
  185MOL0     H24952   2.537   8.004   9.791 -0.4713  1.2765  1.3969
  185MOL0     H24953   2.364   7.821   9.843  1.8230 -1.6966  0.5385
  185MOL0     H24954   2.510   7.796   9.747 -0.3895 -0.3320  0.8781
  185MOL0     H24955   2.345   7.822   9.537  0.7239  0.1005  0.1662
  185MOL0     H24956   2.215   7.853   9.647 -0.4217 -0.1939  1.1877
  185MOL0     H24957   2.363   8.797   9.518  0.5134 -2.7444 -0.1621
  185MOL0     H24958   2.144   8.887   9.486 -1.5839 -0.5228  0.7819
  185MOL0     H24959   1.760   8.920   9.464  0.5575  0.1764 -0.1966
  185MOL0     H24960   1.591   9.055   9.478  1.6106 -0.5800 -0.0044
  185MOL0     H24961   0.378  10.171   9.505  1.3446 -0.4821  2.1269
  185MOL0     H24962   0.211  10.350   9.543 -3.2774  0.4051 -0.4125
  185MOL0     H24963  -0.051  10.617   9.862  0.0718 -1.7594 -0.3176
  185MOL0     H24964  -0.230  10.772   9.926  3.4449 -0.2776 -0.9938
  185MOL0     H24965  -0.428  10.814  10.026  2.0432  1.4011 -0.1888
  185MOL0     H24966  -0.419  10.932   9.899  0.9705  0.2303  0.8470
  185MOL0     H24967  -0.615  10.963  10.063  3.8765 -0.5054  0.3755
  185MOL0     H24968  -0.691  10.825   9.969 -1.5634  1.1659 -1.1939
  185MOL0     H24969  -0.775  11.022   9.860 -0.6698 -1.7996 -2.0383
  185MOL0     H24970  -0.644  10.952   9.762 -0.0917  0.9632  0.4637
  185MOL0     H24971  -0.642  11.194   9.755  1.5700 -2.9505 -3.9684
  185MOL0     H24972  -0.495  11.125   9.793 -1.5022  1.7541 -3.2043
  185MOL0     H24973  -0.576  11.352  10.135  1.3477  0.1970  0.4348
  185MOL0     H24974  -0.497  10.527   9.693  0.5057 -0.4669  2.7917
  185MOL0     H24975  -0.294  10.384   9.619 -0.4334 -0.0919  0.6801
  186MOL0     O24976   4.849   5.506   3.637 -0.1598 -0.5566  0.4168
  186MOL0     C24977   4.757   5.506   3.558 -0.3004 -0.0757  0.4352
  186MOL0     O24978   4.733   5.400   3.469 -0.8141  0.0368  0.3795
  186MOL0     C24979   4.848   5.330   3.450 -0.1660  0.0730 -0.2415
  186MOL0     C24980   4.952   5.375   3.365  0.7452  0.0684 -0.0428
  186MOL0     C24981   5.068   5.302   3.349 -0.6664  0.6255 -0.9390
  186MOL0     C24982   5.088   5.179   3.409  0.0108 -0.0123 -1.4050
  186MOL0     O24983   5.207   5.119   3.375  0.3445  0.5166 -0.0378
  186MOL0     C24984   5.248   4.997   3.424  0.3390 -0.4519 -0.7842
  186MOL0     C24985   5.336   5.011   3.554 -0.6896 -0.3324  0.0328
  186MOL0     C24986   5.413   4.869   3.574  0.3939 -0.3735 -1.1131
  186MOL0     C24987   5.465   4.879   3.726 -1.2306 -0.3879 -0.3944
  186MOL0     C24988   5.589   4.799   3.736  0.5068  0.7184 -0.0189
  186MOL0     C24989   5.666   4.798   3.864  0.1361  0.5378  0.3734
  186MOL0     C24990   5.821   4.786   3.839 -0.3927  0.3220  0.2792
  186MOL0     C24991   5.912   4.793   3.973  0.2507 -0.3788  0.2847
  186MOL0     N24992   6.025   4.709   3.967 -0.2010  0.0915 -0.1997
  186MOL0     C24993   6.160   4.748   3.954  0.4094 -0.2163 -0.2512
  186MOL0     C24994   6.235   4.638   3.978 -0.2927 -0.6757 -0.2562
  186MOL0     C24995   6.383   4.634   3.977  0.5359 -0.0903  0.9380
  186MOL0     C24996   6.445   4.667   4.119  0.4549  0.7498  0.4432
  186MOL0     C24997   6.593   4.661   4.128 -0.5237 -0.0683  0.5698
  186MOL0     C24998   6.650   4.648   4.267  0.2660 -0.7970 -0.7415
  186MOL0     O24999   6.601   4.530   4.326 -0.2015  0.0829 -0.3527
  186MOL0     C25000   6.632   4.494   4.453  0.2599  0.0536  0.0662
  186MOL0     C25001   6.713   4.566   4.537  0.3274  0.4502  0.1253
  186MOL0     C25002   6.752   4.515   4.666  0.3679  0.4764 -0.1116
  186MOL0     C25003   6.840   4.596   4.740 -1.0121  0.7165 -0.0628
  186MOL0     C25004   6.693   4.392   4.720 -0.9612 -0.1407 -0.2954
  186MOL0     C25005   6.726   4.334   4.856 -0.3219 -1.1010  0.4667
  186MOL0     O25006   6.839   4.370   4.929 -0.6235  0.7724  0.0435
  186MOL0     C25007   6.858   4.300   5.047  0.4268 -0.2031  0.0463
  186MOL0     C25008   6.969   4.215   5.068  0.0061  0.1080 -0.2324
  186MOL0     C25009   7.012   4.163   5.186  0.1816 -0.1877 -0.2479
  186MOL0     C25010   6.927   4.189   5.302 -1.0397 -0.2110  0.3208
  186MOL0     O25011   6.973   4.158   5.433  0.4267  0.1871 -0.0327
  186MOL0     C25012   7.098   4.082   5.456  0.9467 -0.8470 -0.9582
  186MOL0     C25013   7.141   4.091   5.604 -0.5105  0.1461  0.7755
  186MOL0     C25014   7.274   4.025   5.617  0.2281  0.3362 -0.2133
  186MOL0     C25015   7.274   3.875   5.634 -1.2637  0.1436  0.8688
  186MOL0     C25016   7.412   3.812   5.658  0.3551 -0.5423  0.6512
  186MOL0     C25017   7.424   3.662   5.624 -0.7608 -0.0833 -0.4618
  186MOL0     C25018   7.568   3.621   5.661 -0.0511 -0.8398 -0.7925
  186MOL0     C25019   7.592   3.473   5.643  0.0314  0.1222  0.3760
  186MOL0    Cl25020   7.559   3.374   5.789  0.1656 -0.1632  0.2101
  186MOL0     C25021   6.813   4.267   5.295  0.1876 -0.8542  0.1073
  186MOL0     C25022   6.777   4.328   5.168  0.0875  0.1697 -0.5201
  186MOL0     O25023   6.642   4.251   4.891 -0.0049  0.4267  0.8054
  186MOL0     C25024   6.607   4.325   4.632 -0.1399  0.2202 -0.3630
  186MOL0     C25025   6.583   4.374   4.504  0.5465 -0.0843 -0.4399
  186MOL0     N25026   6.149   4.539   4.022  0.1427 -0.5307  1.1096
  186MOL0     N25027   6.028   4.579   4.020 -0.3820 -0.1383  0.4941
  186MOL0     C25028   4.976   5.125   3.476  0.9056 -0.2680  0.4426
  186MOL0     C25029   4.858   5.202   3.489 -0.2680 -0.0045 -0.5582
  186MOL0     C25030   4.678   5.637   3.541 -0.0164 -0.1518 -0.3836
  186MOL0     C25031   4.698   5.749   3.623 -0.7853  0.3886  0.4599
  186MOL0     C25032   4.632   5.868   3.598 -0.2056 -0.7621  0.6983
  186MOL0     C25033   4.520   5.885   3.507 -0.0261  0.0227 -1.0451
  186MOL0     O25034   4.442   5.991   3.485  0.2039 -0.0714 -0.3939
  186MOL0     C25035   4.513   6.117   3.491  0.4673 -1.0308 -0.8841
  186MOL0     C25036   4.617   6.119   3.376 -0.4618 -0.1600  1.0736
  186MOL0     C25037   4.705   6.243   3.374 -0.9583  0.9309  0.4853
  186MOL0     C25038   4.647   6.373   3.349 -0.2093 -1.1246 -0.4289
  186MOL0     C25039   4.602   6.446   3.474 -0.1610  0.3284 -1.3774
  186MOL0     C25040   4.560   6.485   3.585  0.1873  0.5263  1.3970
  186MOL0     C25041   4.498   5.768   3.440  0.8282 -0.3984  0.0678
  186MOL0     C25042   4.580   5.652   3.440  0.2583  0.6261  0.0841
  186MOL0     H25043   4.956   5.472   3.317 -1.9988  0.0012 -0.5432
  186MOL0     H25044   5.148   5.361   3.306  0.5676  0.0742  0.5275
  186MOL0     H25045   5.164   4.935   3.457 -1.1487  2.4610  1.3949
  186MOL0     H25046   5.313   4.951   3.349  0.5582 -1.7367  0.1553
  186MOL0     H25047   5.414   5.085   3.536 -1.8616  0.7153 -0.9556
  186MOL0     H25048   5.276   5.052   3.636  1.3185  0.8258  1.0004
  186MOL0     H25049   5.353   4.779   3.558  2.8398 -2.1982 -0.6853
  186MOL0     H25050   5.492   4.861   3.499  0.2922  1.2084 -1.4223
  186MOL0     H25051   5.496   4.982   3.749  1.7544 -1.1953 -0.2926
  186MOL0     H25052   5.388   4.847   3.796 -0.8528  0.7524  0.5781
  186MOL0     H25053   5.571   4.695   3.709 -0.2466  0.5898  0.9391
  186MOL0     H25054   5.651   4.842   3.656  0.1148 -0.1237 -0.8013
  186MOL0     H25055   5.664   4.901   3.901  0.4469  1.0736 -1.0261
  186MOL0     H25056   5.632   4.738   3.949  1.2724  0.6269  0.9125
  186MOL0     H25057   5.849   4.692   3.791 -1.8586  0.4737 -0.9261
  186MOL0     H25058   5.852   4.868   3.774  0.2735 -1.1116 -1.2962
  186MOL0     H25059   5.840   4.748   4.042  0.0232 -0.4710 -0.0111
  186MOL0     H25060   5.945   4.894   3.997  2.1211 -1.5355  3.1565
  186MOL0     H25061   6.195   4.844   3.916 -0.5780  0.5410  0.6686
  186MOL0     H25062   6.418   4.534   3.950  1.6561  0.4602  0.2466
  186MOL0     H25063   6.419   4.714   3.912 -0.4604  1.6441  2.4414
  186MOL0     H25064   6.414   4.575   4.170 -2.6308  1.0135 -0.7297
  186MOL0     H25065   6.390   4.751   4.163 -0.5963  0.6572 -0.6230
  186MOL0     H25066   6.620   4.764   4.103 -3.6399  1.0382  1.3122
  186MOL0     H25067   6.648   4.609   4.049  1.9372  1.6480  1.0281
  186MOL0     H25068   6.631   4.743   4.319  0.9054 -0.2913 -1.4004
  186MOL0     H25069   6.759   4.661   4.263  0.3146  0.8763  2.4300
  186MOL0     H25070   6.750   4.663   4.504 -2.8402  1.5393 -0.5213
  186MOL0     H25071   6.929   4.533   4.733 -2.0230 -0.5437 -3.4962
  186MOL0     H25072   6.845   4.696   4.696 -0.2205  0.4844 -0.5350
  186MOL0     H25073   6.811   4.603   4.845  0.6518 -1.5314  0.6335
  186MOL0     H25074   7.038   4.188   4.989 -1.1752 -0.6996 -1.0082
  186MOL0     H25075   7.098   4.100   5.169 -1.0605 -1.6745 -1.3755
  186MOL0     H25076   7.072   3.979   5.430 -1.3285 -0.7650  0.6815
  186MOL0     H25077   7.176   4.121   5.389  2.9169  0.2449  1.7690
  186MOL0     H25078   7.143   4.198   5.628 -0.8610  0.9285 -2.2257
  186MOL0     H25079   7.068   4.031   5.659 -1.7245 -0.3256 -1.2518
  186MOL0     H25080   7.328   4.082   5.693  0.4027  0.3322 -0.3331
  186MOL0     H25081   7.344   4.020   5.533  1.4194 -0.1708  0.7657
  186MOL0     H25082   7.202   3.851   5.713 -0.5336  1.2942  1.9257
  186MOL0     H25083   7.240   3.839   5.537  0.1204 -1.1757  0.8250
  186MOL0     H25084   7.430   3.824   5.766  1.7535  2.7805  0.1637
  186MOL0     H25085   7.490   3.870   5.608 -0.1105  0.7877  1.4371
  186MOL0     H25086   7.343   3.605   5.670 -0.7253 -0.2039 -0.5488
  186MOL0     H25087   7.414   3.652   5.515 -0.5025 -2.3660 -0.3330
  186MOL0     H25088   7.584   3.639   5.768  2.2153  0.3680 -1.2763
  186MOL0     H25089   7.644   3.679   5.607 -0.8435  0.4832 -0.5403
  186MOL0     H25090   7.699   3.466   5.624 -0.4768 -0.9200 -2.5174
  186MOL0     H25091   7.545   3.429   5.555  2.0189  2.2000 -1.8785
  186MOL0     H25092   6.769   4.293   5.391  0.2849 -1.8494  0.4353
  186MOL0     H25093   6.687   4.387   5.154  1.1832  2.3197  0.9622
  186MOL0     H25094   6.552   4.235   4.659 -0.4847  0.9204  1.4143
  186MOL0     H25095   6.511   4.313   4.450 -1.1801  1.5386 -0.0465
  186MOL0     H25096   4.976   5.029   3.527 -1.5780  0.2086  1.4890
  186MOL0     H25097   4.777   5.155   3.544 -0.6259  2.5026  1.2745
  186MOL0     H25098   4.763   5.738   3.709  1.3428  1.5364 -0.9014
  186MOL0     H25099   4.682   5.947   3.653 -1.1997 -0.0060  0.5455
  186MOL0     H25100   4.446   6.204   3.491 -0.2912 -1.5531  0.8729
  186MOL0     H25101   4.586   6.129   3.572  1.4970  1.1225 -2.0461
  186MOL0     H25102   4.577   6.111   3.274 -0.1209 -1.9684  1.0461
  186MOL0     H25103   4.690   6.037   3.380  0.9826  1.1170  1.7702
  186MOL0     H25104   4.765   6.231   3.284 -1.3069  3.0709 -0.0889
  186MOL0     H25105   4.772   6.243   3.461 -0.7476 -3.1698  0.5136
  186MOL0     H25106   4.562   6.346   3.287 -0.4518 -0.7132 -0.2776
  186MOL0     H25107   4.707   6.431   3.278  0.9501 -3.8631 -1.8369
  186MOL0     H25108   4.529   6.513   3.684 -0.3530  0.4719  1.2430
  186MOL0     H25109   4.410   5.777   3.377  1.1759 -0.6729 -0.4747
  186MOL0     H25110   4.558   5.560   3.388 -0.1143  0.0457  1.2304
  187MOL0     O25111   6.570  10.431   4.626  0.5520  0.4778  0.7001
  187MOL0     C25112   6.552  10.465   4.505 -0.1537  0.5528 -0.2899
  187MOL0     O25113   6.536  10.591   4.460  0.5188  0.4261  0.6359
  187MOL0     C25114   6.497  10.686   4.547 -0.4765  0.3877 -0.0610
  187MOL0     C25115   6.403  10.685   4.641 -0.9034 -0.0349 -0.1440
  187MOL0     C25116   6.364  10.797   4.715  0.3830  0.9538 -0.3660
  187MOL0     C25117   6.438  10.914   4.692  1.3263 -0.6490 -0.2262
  187MOL0     O25118   6.420  11.032   4.770 -0.3027  0.2206  0.5353
  187MOL0     C25119   6.299  11.041   4.837  0.1526  0.6250 -0.2144
  187MOL0     C25120   6.298  11.174   4.900 -0.3998  0.3580 -0.5202
  187MOL0     C25121   6.166  11.214   4.966  0.6221 -0.1130 -0.8420
  187MOL0     C25122   6.135  11.133   5.098  0.2220 -0.0978 -0.5164
  187MOL0     C25123   6.000  11.167   5.166  0.1455  1.0035  0.0266
  187MOL0     C25124   5.977  11.073   5.292  0.6012  0.3564  0.9340
  187MOL0     C25125   5.840  11.085   5.340  1.7417  0.7108  0.1403
  187MOL0     C25126   5.828  11.180   5.460 -1.0593  0.5599  0.4858
  187MOL0     N25127   5.834  11.327   5.419  0.6545  0.2377  0.1219
  187MOL0     C25128   5.738  11.391   5.344  0.4024  0.5319  0.7917
  187MOL0     C25129   5.800  11.504   5.309 -0.3648  0.0263  0.5754
  187MOL0     C25130   5.734  11.633   5.250 -0.5455  0.0077  0.7772
  187MOL0     C25131   5.697  11.620   5.101 -0.1874  0.0041  0.2411
  187MOL0     C25132   5.813  11.578   5.011  0.9505  0.1808 -1.2883
  187MOL0     C25133   5.773  11.560   4.865  0.4481 -0.5979 -1.4384
  187MOL0     O25134   5.718  11.431   4.855 -0.4613  0.1759  0.1177
  187MOL0     C25135   5.773  11.348   4.754 -0.5575 -0.8451 -0.8096
  187MOL0     C25136   5.769  11.214   4.803 -0.4769  0.5491 -0.1991
  187MOL0     C25137   5.844  11.112   4.745  0.4130  0.1616  0.8568
  187MOL0     C25138   5.849  10.974   4.807 -0.2453 -0.6551  0.3619
  187MOL0     C25139   5.920  11.141   4.630  0.1315 -0.0904  1.3968
  187MOL0     C25140   6.005  11.043   4.547 -0.6752 -0.6415  0.3478
  187MOL0     O25141   6.055  11.086   4.422  0.1124  0.1040  0.1271
  187MOL0     C25142   6.082  10.977   4.339 -0.4781  0.1806 -0.7523
  187MOL0     C25143   6.190  10.893   4.376  0.5492 -0.0031 -0.9283
  187MOL0     C25144   6.232  10.802   4.284 -0.4912 -0.1580 -0.3800
  187MOL0     C25145   6.167  10.784   4.157  0.1124  0.0768 -0.0168
  187MOL0     O25146   6.220  10.684   4.071  0.0801 -0.6290 -0.0513
  187MOL0     C25147   6.164  10.552   4.091 -0.4644 -0.4946  0.3561
  187MOL0     C25148   6.196  10.466   3.975  0.1616  0.1247 -0.0501
  187MOL0     C25149   6.150  10.326   3.991  0.7199  0.6897 -0.3576
  187MOL0     C25150   5.989  10.306   4.003  0.8353 -0.3831 -0.6030
  187MOL0     C25151   5.981  10.162   4.056  0.5758  0.1358  0.0567
  187MOL0     C25152   5.829  10.115   4.052 -0.3565  0.1868  0.5696
  187MOL0     C25153   5.805  10.066   3.910 -0.1409  0.4923 -0.0429
  187MOL0     C25154   5.685   9.974   3.907  0.6543 -0.4215  0.6785
  187MOL0    Cl25155   5.525  10.064   3.949  0.1541 -0.1613  0.1129
  187MOL0     C25156   6.056  10.856   4.119  0.0022  0.9499 -0.0701
  187MOL0     C25157   6.020  10.956   4.209  0.3860 -0.9995 -0.0961
  187MOL0     O25158   6.033  10.930   4.595  0.0753 -0.4937  0.0478
  187MOL0     C25159   5.921  11.276   4.582 -0.3105 -0.5745 -0.0221
  187MOL0     C25160   5.842  11.376   4.636 -0.5354  0.4008  0.4195
  187MOL0     N25161   5.928  11.507   5.363 -0.5578  0.6008 -0.2856
  187MOL0     N25162   5.954  11.395   5.426  0.1032  0.2703 -0.0947
  187MOL0     C25163   6.539  10.916   4.599  0.3668 -0.6063 -0.1803
  187MOL0     C25164   6.568  10.803   4.527 -0.2838  0.1737  0.5820
  187MOL0     C25165   6.537  10.362   4.393 -0.2117  0.8742 -0.0267
  187MOL0     C25166   6.516  10.226   4.429  0.2833  0.1111 -0.4881
  187MOL0     C25167   6.487  10.123   4.334  0.1021  1.1565  0.3372
  187MOL0     C25168   6.464  10.172   4.198 -0.0318  0.1976  0.5861
  187MOL0     O25169   6.431  10.080   4.096  0.0215 -0.5717  0.2213
  187MOL0     C25170   6.545   9.998   4.058  0.4553  0.0721  0.0003
  187MOL0     C25171   6.541   9.956   3.912 -0.5487 -0.3436 -0.3358
  187MOL0     C25172   6.425   9.878   3.855 -0.7410  0.2441 -0.4790
  187MOL0     C25173   6.302   9.963   3.807 -0.0421 -0.9043  0.0709
  187MOL0     C25174   6.180   9.885   3.778 -1.2071  0.6669  0.0660
  187MOL0     C25175   6.077   9.835   3.738 -0.2188  0.1975 -0.4902
  187MOL0     C25176   6.475  10.307   4.173  1.0018 -0.0506 -0.8100
  187MOL0     C25177   6.538  10.400   4.261  0.1803  0.3251 -0.8473
  187MOL0     H25178   6.336  10.600   4.654  0.6832 -1.3122  0.0063
  187MOL0     H25179   6.279  10.768   4.775 -1.1889  0.1853 -2.8432
  187MOL0     H25180   6.218  11.030   4.764  0.0779 -2.4011  0.2147
  187MOL0     H25181   6.290  10.965   4.914  1.2380  1.8305  1.1440
  187MOL0     H25182   6.387  11.190   4.961 -0.2875  0.9914 -0.8407
  187MOL0     H25183   6.304  11.250   4.821  0.0983  2.2098  1.2323
  187MOL0     H25184   6.175  11.315   5.009 -1.5631  1.4412 -3.6800
  187MOL0     H25185   6.082  11.211   4.897 -2.2822  2.3254  2.2478
  187MOL0     H25186   6.131  11.026   5.073 -1.3204  0.3443 -2.3318
  187MOL0     H25187   6.217  11.136   5.170  0.9868 -0.2257 -1.3704
  187MOL0     H25188   6.004  11.274   5.189  0.3387  0.7756  1.0947
  187MOL0     H25189   5.922  11.151   5.091  0.4583 -3.5384  0.3754
  187MOL0     H25190   5.996  10.967   5.271  0.0401 -0.6040  4.4803
  187MOL0     H25191   6.050  11.118   5.360  0.5409  0.6867  0.7806
  187MOL0     H25192   5.773  11.112   5.258  2.9440 -1.9756 -1.8935
  187MOL0     H25193   5.794  10.989   5.365 -1.3755  1.6867 -1.3315
  187MOL0     H25194   5.908  11.169   5.533 -0.3314 -2.0918 -0.5942
  187MOL0     H25195   5.733  11.162   5.512 -1.6621  2.8642  0.3044
  187MOL0     H25196   5.637  11.361   5.318 -0.3044  3.0395  0.2806
  187MOL0     H25197   5.648  11.664   5.310  0.8976  0.2047  2.8684
  187MOL0     H25198   5.814  11.708   5.256 -0.2619 -0.3209  1.1878
  187MOL0     H25199   5.641  11.707   5.066  0.6154 -0.6187 -2.8122
  187MOL0     H25200   5.623  11.539   5.098 -0.0009 -0.1934  0.8129
  187MOL0     H25201   5.846  11.480   5.047 -3.8651 -0.7702  1.3521
  187MOL0     H25202   5.881  11.664   5.018  0.4925  0.4305  0.7064
  187MOL0     H25203   5.866  11.579   4.809  2.0105  1.7937  1.6643
  187MOL0     H25204   5.701  11.640   4.846 -0.8002  0.0704  4.3104
  187MOL0     H25205   5.721  11.198   4.899  0.3616 -1.5672 -0.0666
  187MOL0     H25206   5.808  10.896   4.742  1.3068  1.7115 -3.8844
  187MOL0     H25207   5.953  10.943   4.823 -0.2902 -2.3967 -2.1514
  187MOL0     H25208   5.788  10.981   4.897 -0.5389  3.1113  0.0109
  187MOL0     H25209   6.237  10.911   4.472  0.5886  5.2855 -1.6313
  187MOL0     H25210   6.302  10.733   4.331 -1.5596 -2.5088 -2.0004
  187MOL0     H25211   6.205  10.505   4.181  0.8918 -0.5676 -0.2726
  187MOL0     H25212   6.057  10.569   4.106 -0.0220  1.1489  1.9827
  187MOL0     H25213   6.145  10.504   3.886 -1.5721  3.2041  2.0670
  187MOL0     H25214   6.301  10.484   3.954 -0.1362  3.3426  0.7242
  187MOL0     H25215   6.184  10.279   4.084 -1.1895 -2.8557 -1.2911
  187MOL0     H25216   6.188  10.268   3.907 -0.2307 -0.5382  0.0259
  187MOL0     H25217   5.955  10.373   4.082  1.0618  1.4663 -1.9890
  187MOL0     H25218   5.932  10.321   3.910 -0.3401  4.7401  0.6492
  187MOL0     H25219   6.002  10.167   4.163 -0.3085  0.3001  0.2305
  187MOL0     H25220   6.058  10.097   4.015  1.2531  0.5382  0.6699
  187MOL0     H25221   5.812  10.032   4.121 -1.2658  2.8476  3.7904
  187MOL0     H25222   5.755  10.193   4.075 -1.2885 -0.6225  0.3921
  187MOL0     H25223   5.886  10.000   3.876 -1.6093 -3.6471  3.6099
  187MOL0     H25224   5.795  10.153   3.844  1.7337  0.0766 -0.9327
  187MOL0     H25225   5.680   9.895   3.982 -0.0145 -0.5522  0.5029
  187MOL0     H25226   5.676   9.929   3.807  0.7674  2.4761 -0.7550
  187MOL0     H25227   5.991  10.829   4.036 -2.8798 -1.0966  2.6323
  187MOL0     H25228   5.946  11.027   4.172  0.5834 -1.7261 -2.0090
  187MOL0     H25229   5.985  11.308   4.501  0.0894  1.3426  0.9962
  187MOL0     H25230   5.835  11.473   4.587  0.5740  0.4064  0.2428
  187MOL0     H25231   6.582  11.012   4.574  0.6159 -0.9860 -1.2948
  187MOL0     H25232   6.644  10.810   4.450  0.9030  0.0950  1.7119
  187MOL0     H25233   6.525  10.198   4.534 -3.2633  1.4473  0.3132
  187MOL0     H25234   6.484  10.022   4.373 -0.0709  1.5148  1.2692
  187MOL0     H25235   6.632  10.061   4.080 -1.5033  2.1047  2.4976
  187MOL0     H25236   6.559   9.907   4.118  1.3941  0.3167  0.1756
  187MOL0     H25237   6.632   9.899   3.894 -0.1299 -0.7704  2.5922
  187MOL0     H25238   6.549  10.047   3.852  1.0625 -1.5094 -1.9929
  187MOL0     H25239   6.382   9.816   3.935  0.0084  0.0816 -0.1914
  187MOL0     H25240   6.467   9.808   3.783  0.4335 -0.5512  0.9052
  187MOL0     H25241   6.345  10.012   3.718  0.9742 -0.2965  0.8650
  187MOL0     H25242   6.283  10.049   3.872  0.4537  2.5830 -3.8899
  187MOL0     H25243   5.983   9.798   3.702 -0.2337  0.5398 -0.7996
  187MOL0     H25244   6.454  10.328   4.068 -1.7048 -0.3532 -0.3997
  187MOL0     H25245   6.569  10.500   4.235  1.8012  0.2487  0.6150
  188MOL0     O25246   8.872   9.399   3.018  0.0637  0.0706 -0.1836
  188MOL0     C25247   8.798   9.468   3.098  0.2293  0.1718 -1.1402
  188MOL0     O25248   8.772   9.428   3.225  0.4016 -0.3155 -0.9207
  188MOL0     C25249   8.813   9.306   3.273  0.6372  0.1562 -0.0612
  188MOL0     C25250   8.777   9.188   3.205 -1.0548  0.4658  0.0147
  188MOL0     C25251   8.821   9.062   3.259  1.0156  0.1993  0.4180
  188MOL0     C25252   8.881   9.054   3.387 -0.4360  0.2523 -0.5118
  188MOL0     O25253   8.912   8.932   3.435 -0.2899 -0.0080 -0.4206
  188MOL0     C25254   8.984   8.905   3.551 -0.0334 -0.0102 -0.6113
  188MOL0     C25255   8.904   8.938   3.675 -0.2366  0.2904  0.6917
  188MOL0     C25256   8.778   8.855   3.703  0.4314  0.5132  0.9110
  188MOL0     C25257   8.803   8.724   3.776 -0.9182 -0.0205 -0.5865
  188MOL0     C25258   8.684   8.677   3.869 -0.2484 -0.1135 -0.1044
  188MOL0     C25259   8.560   8.640   3.785  0.2300  0.3077 -0.5442
  188MOL0     C25260   8.454   8.562   3.864 -1.3563 -0.8398  0.3128
  188MOL0     C25261   8.374   8.650   3.956  0.7023 -0.6272  0.2124
  188MOL0     N25262   8.264   8.723   3.884 -0.3266 -0.0021  0.0751
  188MOL0     C25263   8.134   8.678   3.851 -0.3055  0.1262 -0.4029
  188MOL0     C25264   8.091   8.767   3.758  0.2632 -0.9391  0.0475
  188MOL0     C25265   7.952   8.763   3.696 -0.7500  0.4439 -0.3551
  188MOL0     C25266   7.874   8.895   3.705 -0.1184 -0.3143 -0.5178
  188MOL0     C25267   7.738   8.906   3.632 -0.6533 -0.0092  0.0768
  188MOL0     C25268   7.653   9.014   3.707 -0.2136 -0.4904  0.0985
  188MOL0     O25269   7.533   9.040   3.639  0.3117  0.7542 -0.1478
  188MOL0     C25270   7.513   9.107   3.526  0.0529  0.0665 -0.2370
  188MOL0     C25271   7.392   9.086   3.466  0.0886  0.1790 -0.3426
  188MOL0     C25272   7.362   9.135   3.336 -0.5098  0.6229  0.7414
  188MOL0     C25273   7.233   9.078   3.278 -0.5315 -0.4939  0.5494
  188MOL0     C25274   7.455   9.225   3.274 -0.1637 -0.3381  0.3562
  188MOL0     C25275   7.426   9.290   3.143  0.2752 -0.6815 -0.2741
  188MOL0     O25276   7.540   9.328   3.077 -0.2481  0.4776 -1.0132
  188MOL0     C25277   7.542   9.410   2.972 -0.7213 -0.0572  0.3971
  188MOL0     C25278   7.603   9.535   2.983 -0.5456 -0.5543 -0.3945
  188MOL0     C25279   7.607   9.621   2.867 -0.7799 -0.6450 -0.4020
  188MOL0     C25280   7.557   9.570   2.747  0.2288  0.1278 -0.3570
  188MOL0     O25281   7.559   9.653   2.639 -0.1283  0.0665 -0.3549
  188MOL0     C25282   7.474   9.770   2.655  0.0061 -0.9051 -0.0798
  188MOL0     C25283   7.430   9.817   2.511  0.4343  0.1297  0.3449
  188MOL0     C25284   7.549   9.851   2.428 -0.0017  0.3954  0.1541
  188MOL0     C25285   7.535   9.971   2.335  0.3006  0.4958 -0.6395
  188MOL0     C25286   7.541  10.111   2.400  0.7629 -0.2076 -0.0859
  188MOL0     C25287   7.675  10.161   2.451 -0.3519 -0.7134  0.5188
  188MOL0     C25288   7.673  10.281   2.537  0.4975 -0.4561  0.3069
  188MOL0     C25289   7.808  10.319   2.607  0.3475  0.3446 -0.7701
  188MOL0    Cl25290   7.924  10.350   2.490 -0.1885  0.0031 -0.1506
  188MOL0     C25291   7.493   9.440   2.737  0.1266  0.2733 -0.3432
  188MOL0     C25292   7.481   9.364   2.854 -0.3018  0.3211 -0.9472
  188MOL0     O25293   7.315   9.328   3.112  0.6756 -0.1913  0.3178
  188MOL0     C25294   7.586   9.244   3.343 -0.4617 -0.1956  0.4461
  188MOL0     C25295   7.609   9.182   3.464 -0.1242 -0.2922 -0.3919
  188MOL0     N25296   8.188   8.871   3.749  0.3908  0.0152 -0.3281
  188MOL0     N25297   8.293   8.836   3.815 -0.0429 -0.2420 -0.5568
  188MOL0     C25298   8.905   9.177   3.453  0.3396  0.0002  0.1460
  188MOL0     C25299   8.872   9.297   3.397 -0.1548 -0.0379 -0.3718
  188MOL0     C25300   8.735   9.589   3.048  0.4367  0.9813  0.0785
  188MOL0     C25301   8.760   9.638   2.918 -0.8707  0.0537  0.0855
  188MOL0     C25302   8.685   9.737   2.866 -0.4851 -1.2372 -0.4755
  188MOL0     C25303   8.587   9.806   2.939 -0.5497  0.9196  0.7528
  188MOL0     O25304   8.497   9.888   2.879  0.5124  0.5977  0.5876
  188MOL0     C25305   8.465  10.012   2.950  0.1125  0.2435 -0.0624
  188MOL0     C25306   8.532  10.118   2.868 -0.3470 -0.3622 -0.6690
  188MOL0     C25307   8.539  10.258   2.933  0.3605 -0.2098 -0.3052
  188MOL0     C25308   8.403  10.329   2.944  0.0766 -0.1187 -0.1155
  188MOL0     C25309   8.345  10.360   2.815 -1.1372 -0.4322 -0.4720
  188MOL0     C25310   8.300  10.396   2.714 -1.0250 -0.0955  0.5873
  188MOL0     C25311   8.558   9.759   3.063  0.9535  0.3553  0.2197
  188MOL0     C25312   8.626   9.650   3.118  0.0126 -0.2489  0.2079
  188MOL0     H25313   8.717   9.195   3.114 -1.2897 -0.9905  0.0386
  188MOL0     H25314   8.794   8.966   3.215 -1.5470  0.2498  1.6853
  188MOL0     H25315   9.002   8.798   3.560 -2.0412 -0.3569 -0.2683
  188MOL0     H25316   9.079   8.958   3.542  0.6143 -1.3380 -2.2163
  188MOL0     H25317   8.966   8.917   3.762  1.5802 -0.5022 -0.7412
  188MOL0     H25318   8.872   9.042   3.683  1.3676  0.7236  1.8160
  188MOL0     H25319   8.720   8.921   3.768 -1.0086  0.8672 -0.6466
  188MOL0     H25320   8.744   8.840   3.600  3.7008  0.2975 -0.2585
  188MOL0     H25321   8.837   8.639   3.717 -2.0524 -1.6388  0.9720
  188MOL0     H25322   8.875   8.747   3.856 -0.8540 -0.2983 -0.5636
  188MOL0     H25323   8.718   8.588   3.921  2.3571  1.4801  1.1253
  188MOL0     H25324   8.653   8.762   3.931 -0.2736 -1.5944  2.0186
  188MOL0     H25325   8.516   8.726   3.733 -1.8395 -0.3454  0.0263
  188MOL0     H25326   8.606   8.580   3.706  0.4745  0.8293 -0.7976
  188MOL0     H25327   8.387   8.504   3.800 -2.3938  1.0533 -0.4126
  188MOL0     H25328   8.510   8.487   3.920  2.0921  3.6615  3.6896
  188MOL0     H25329   8.440   8.729   3.993 -1.8103  1.7902 -0.1336
  188MOL0     H25330   8.331   8.605   4.046 -1.3217  0.6443 -0.0395
  188MOL0     H25331   8.082   8.595   3.896  0.6183 -0.2411  0.0160
  188MOL0     H25332   7.960   8.738   3.590 -1.4775 -2.2953  0.1642
  188MOL0     H25333   7.894   8.698   3.762 -0.9248  0.3245 -0.6291
  188MOL0     H25334   7.940   8.970   3.661 -2.7943  1.8823 -1.0475
  188MOL0     H25335   7.867   8.912   3.813 -0.5278 -1.0059 -0.4216
  188MOL0     H25336   7.689   8.809   3.644  2.2423 -1.3874  1.8213
  188MOL0     H25337   7.739   8.923   3.524  0.6806 -0.4525 -0.0026
  188MOL0     H25338   7.706   9.109   3.720 -2.9745  1.0231  1.0231
  188MOL0     H25339   7.639   8.968   3.805  4.6972 -0.0638  1.2525
  188MOL0     H25340   7.315   9.032   3.520 -0.1206  0.7553 -0.0643
  188MOL0     H25341   7.203   8.976   3.305  3.2316 -3.0146 -3.3600
  188MOL0     H25342   7.152   9.147   3.302  1.5390  1.8555  1.1951
  188MOL0     H25343   7.246   9.072   3.169 -1.9827  0.1615  0.3186
  188MOL0     H25344   7.641   9.564   3.080 -0.3374  0.7236 -0.8424
  188MOL0     H25345   7.640   9.723   2.882  1.9059 -1.4296 -0.3489
  188MOL0     H25346   7.379   9.748   2.703 -0.8997 -0.3628 -1.5389
  188MOL0     H25347   7.511   9.858   2.709 -2.8048  0.8590 -0.7804
  188MOL0     H25348   7.382   9.729   2.466  1.8901  0.7341 -2.6187
  188MOL0     H25349   7.368   9.906   2.525  1.2701  1.2823 -2.6821
  188MOL0     H25350   7.562   9.761   2.366 -2.3034  0.8464 -1.0829
  188MOL0     H25351   7.638   9.870   2.488 -0.0745  0.3232  0.2862
  188MOL0     H25352   7.608   9.964   2.255  0.7445  0.4670 -0.2364
  188MOL0     H25353   7.432   9.973   2.297  0.0848  2.6526 -0.1300
  188MOL0     H25354   7.459  10.103   2.473 -1.8636 -0.7110 -2.8567
  188MOL0     H25355   7.506  10.191   2.334  1.3200 -0.5338 -0.7794
  188MOL0     H25356   7.716  10.078   2.509 -0.9558  0.0155  2.0520
  188MOL0     H25357   7.736  10.169   2.361  0.1595 -3.8621  0.4528
  188MOL0     H25358   7.603  10.277   2.621  0.7541  1.5699  0.6715
  188MOL0     H25359   7.647  10.371   2.480  1.3994  0.6881  1.6203
  188MOL0     H25360   7.841  10.239   2.673  0.5417  0.2215 -1.0110
  188MOL0     H25361   7.814  10.413   2.663  0.1524  0.6004 -1.1687
  188MOL0     H25362   7.437   9.398   2.654 -0.5263 -1.7520  1.0520
  188MOL0     H25363   7.415   9.279   2.854 -2.4373  1.8788 -2.2519
  188MOL0     H25364   7.665   9.297   3.292 -1.7930 -0.5841 -2.1972
  188MOL0     H25365   7.712   9.191   3.495  0.4265 -1.1539 -1.8790
  188MOL0     H25366   8.938   9.190   3.555 -0.1816 -0.5631  0.3944
  188MOL0     H25367   8.887   9.394   3.442 -3.4259  0.4838 -0.1394
  188MOL0     H25368   8.825   9.583   2.852 -2.2951 -1.1630 -0.3662
  188MOL0     H25369   8.695   9.762   2.761 -1.5515 -1.8209 -0.7400
  188MOL0     H25370   8.360  10.030   2.973  0.7012  3.8101  0.3963
  188MOL0     H25371   8.529  10.018   3.039 -1.3954 -1.2135  1.1947
  188MOL0     H25372   8.487  10.121   2.768  0.4318  2.6252 -1.0212
  188MOL0     H25373   8.634  10.087   2.842 -1.4613 -3.2144 -2.1306
  188MOL0     H25374   8.610  10.314   2.872  0.5317 -1.1195 -0.9620
  188MOL0     H25375   8.583  10.270   3.033  0.5282  5.0844 -0.7150
  188MOL0     H25376   8.420  10.423   2.998  0.5386  1.1003 -2.2394
  188MOL0     H25377   8.340  10.258   2.998 -0.3488  2.0965  2.5317
  188MOL0     H25378   8.254  10.428   2.622 -2.3244 -1.5861  0.6748
  188MOL0     H25379   8.456   9.780   3.096  1.2636 -1.4480  2.6445
  188MOL0     H25380   8.598   9.606   3.213  1.2486 -2.8565 -0.5544
  189MOL0     O25381   1.555   4.535  10.396 -0.6515 -0.0624 -0.6383
  189MOL0     C25382   1.552   4.436  10.329 -0.2423  0.1491 -0.2696
  189MOL0     O25383   1.507   4.434  10.189 -0.2339  0.0182 -0.0643
  189MOL0     C25384   1.498   4.560  10.140 -1.0093  0.1168 -1.0929
  189MOL0     C25385   1.382   4.600  10.075 -0.9030 -0.1993  0.5497
  189MOL0     C25386   1.361   4.732  10.016  0.1813  0.3954 -0.5117
  189MOL0     C25387   1.464   4.825  10.034 -1.0246 -0.0368  0.2247
  189MOL0     O25388   1.458   4.963  10.007 -0.2483  0.1170 -0.1161
  189MOL0     C25389   1.336   5.036  10.006  0.6104  0.9252  0.3326
  189MOL0     C25390   1.343   5.164   9.927  0.2953  0.6504  1.1096
  189MOL0     C25391   1.426   5.273  10.008 -0.6256 -0.4527  1.1106
  189MOL0     C25392   1.371   5.408   9.965  0.5818 -0.1154 -0.3181
  189MOL0     C25393   1.414   5.516  10.057 -0.5714 -0.4848  0.5998
  189MOL0     C25394   1.365   5.649  10.002 -0.2708 -1.2052  0.1425
  189MOL0     C25395   1.386   5.746  10.123  0.3090 -0.3175  0.1321
  189MOL0     C25396   1.358   5.887  10.078 -0.4432  0.0184  0.1027
  189MOL0     N25397   1.237   5.917   9.997 -0.5948 -0.2824  1.1444
  189MOL0     C25398   1.112   5.938  10.040  0.4011  0.9500  0.6711
  189MOL0     C25399   1.050   5.986   9.932 -0.6250  0.2541 -0.0135
  189MOL0     C25400   0.906   6.039   9.923 -0.1350  0.1393  0.4267
  189MOL0     C25401   0.877   6.161  10.004 -0.3346  0.0410 -0.2690
  189MOL0     C25402   0.974   6.281   9.973 -0.4424  0.0298 -0.3973
  189MOL0     C25403   0.959   6.323   9.821 -0.3696 -0.2261  0.3816
  189MOL0     O25404   0.822   6.368   9.797 -0.4226  0.0786  0.2653
  189MOL0     C25405   0.773   6.490   9.829  0.1041  0.2272  0.0574
  189MOL0     C25406   0.843   6.596   9.891 -0.6473 -0.3520 -0.1476
  189MOL0     C25407   0.784   6.716   9.926 -0.1782 -0.4104  0.5877
  189MOL0     C25408   0.878   6.820   9.976 -0.5684 -0.7179 -0.5441
  189MOL0     C25409   0.640   6.736   9.917 -0.6856  0.3030  1.0876
  189MOL0     C25410   0.573   6.858   9.944 -0.6248  0.5684 -0.8955
  189MOL0     O25411   0.568   6.887  10.078 -0.0764 -0.1261  0.4505
  189MOL0     C25412   0.503   7.004  10.097 -0.5216  0.5849  0.2213
  189MOL0     C25413   0.567   7.132  10.085  0.2715 -0.8048 -0.1468
  189MOL0     C25414   0.490   7.250  10.101 -0.3506 -0.8200 -0.1305
  189MOL0     C25415   0.352   7.234  10.129 -0.5175 -0.1543 -0.0213
  189MOL0     O25416   0.278   7.338  10.164  0.7059 -0.6364  0.5181
  189MOL0     C25417   0.337   7.451  10.227 -0.0370 -0.0264  0.2448
  189MOL0     C25418   0.228   7.545  10.272  0.1075  0.2141  0.5292
  189MOL0     C25419   0.261   7.637  10.392 -0.2273 -0.3633 -0.4030
  189MOL0     C25420   0.142   7.719  10.437 -0.8120  0.9049  0.0780
  189MOL0     C25421   0.172   7.810  10.561 -0.4141  0.4825  0.5074
  189MOL0     C25422   0.168   7.741  10.689 -0.2724  0.2796 -0.2695
  189MOL0     C25423   0.221   7.832  10.801 -0.0623  0.1719 -0.1361
  189MOL0     C25424   0.256   7.747  10.922  1.0246  0.1432  0.6275
  189MOL0    Cl25425   0.426   7.688  10.915 -0.3114  0.1744  0.3364
  189MOL0     C25426   0.291   7.114  10.145 -0.4768  0.0126  0.1401
  189MOL0     C25427   0.368   6.999  10.126 -0.4005  0.0850  0.0744
  189MOL0     O25428   0.525   6.927   9.851 -0.3863  0.0840  0.9385
  189MOL0     C25429   0.572   6.631   9.854 -0.2797  0.0956  1.0491
  189MOL0     C25430   0.634   6.514   9.807 -0.1750 -1.1887 -0.2984
  189MOL0     N25431   1.132   5.980   9.823  0.2388  0.4168  0.3797
  189MOL0     N25432   1.247   5.934   9.865  0.2985 -0.4770  0.1519
  189MOL0     C25433   1.589   4.782  10.093  0.1869  0.6700 -0.7009
  189MOL0     C25434   1.604   4.655  10.152 -0.2264 -0.8824  0.6205
  189MOL0     C25435   1.567   4.308  10.400 -0.7281 -0.3906 -0.5961
  189MOL0     C25436   1.639   4.307  10.513  0.1079 -0.1484 -0.7001
  189MOL0     C25437   1.674   4.182  10.582  0.0558  0.2511  0.7158
  189MOL0     C25438   1.635   4.061  10.520 -0.3555 -0.3374  0.2738
  189MOL0     O25439   1.653   3.958  10.612  0.1546 -0.0926  1.0705
  189MOL0     C25440   1.596   3.831  10.565  0.1738  0.6256 -0.6884
  189MOL0     C25441   1.437   3.834  10.564  0.9125 -0.2297 -0.2511
  189MOL0     C25442   1.373   3.694  10.566  0.5364 -0.8136  0.1492
  189MOL0     C25443   1.430   3.591  10.463  0.3328 -0.9167 -0.2066
  189MOL0     C25444   1.542   3.517  10.515 -0.0528 -1.0551  0.6406
  189MOL0     C25445   1.619   3.457  10.581 -0.9780  0.6218 -0.5134
  189MOL0     C25446   1.576   4.070  10.391  0.2533  0.1331 -0.6682
  189MOL0     C25447   1.547   4.186  10.331 -0.9564 -0.2897 -0.0553
  189MOL0     H25448   1.310   4.519  10.066 -0.6685 -0.4813  1.1048
  189MOL0     H25449   1.273   4.758   9.959  1.2115 -1.6377 -3.2931
  189MOL0     H25450   1.269   4.977   9.943  2.0403  0.0375 -0.4208
  189MOL0     H25451   1.299   5.065  10.104  1.5125 -0.8043  1.2263
  189MOL0     H25452   1.387   5.146   9.828 -0.8134 -1.8106  0.9711
  189MOL0     H25453   1.246   5.202   9.895  0.4275 -0.5877 -0.9460
  189MOL0     H25454   1.422   5.271  10.118 -1.6859 -0.8961  1.0779
  189MOL0     H25455   1.533   5.267   9.986 -0.9996 -4.0459 -0.3544
  189MOL0     H25456   1.396   5.426   9.860  1.1178 -1.4844 -0.4527
  189MOL0     H25457   1.263   5.391   9.961  0.6864 -1.4261  1.1677
  189MOL0     H25458   1.394   5.506  10.163  1.1946  2.5682  1.3708
  189MOL0     H25459   1.524   5.519  10.050 -0.4923  1.2649  1.9538
  189MOL0     H25460   1.436   5.679   9.924 -0.7054 -2.4775 -0.7876
  189MOL0     H25461   1.262   5.638   9.965 -1.0995  0.6596  1.7635
  189MOL0     H25462   1.319   5.720  10.205 -0.5655  0.5881 -0.2696
  189MOL0     H25463   1.487   5.740  10.166  0.2341 -2.0029  0.1539
  189MOL0     H25464   1.441   5.918  10.013  1.4435 -4.7879 -0.2773
  189MOL0     H25465   1.371   5.954  10.163  2.5264  0.7181 -0.7754
  189MOL0     H25466   1.073   5.916  10.139  0.3769 -2.0129  0.0873
  189MOL0     H25467   0.881   6.061   9.818  0.3322 -1.4570 -0.0618
  189MOL0     H25468   0.834   5.959   9.947  1.4029 -1.8536 -1.2017
  189MOL0     H25469   0.906   6.137  10.106  0.2621  2.0625  0.0964
  189MOL0     H25470   0.772   6.190   9.996 -0.2964 -0.2119 -2.3202
  189MOL0     H25471   1.076   6.250   9.995 -0.7324 -2.0365 -1.7057
  189MOL0     H25472   0.932   6.364  10.032  0.2801  1.6260 -2.0295
  189MOL0     H25473   0.992   6.242   9.754 -0.5000 -0.9654  1.1869
  189MOL0     H25474   1.023   6.408   9.796  1.3457 -1.7997 -0.8811
  189MOL0     H25475   0.949   6.579   9.909 -0.9617 -0.5696  1.6001
  189MOL0     H25476   0.827   6.909  10.014  3.3385  0.8579  1.6388
  189MOL0     H25477   0.947   6.786  10.053  1.8144 -0.7323 -2.5611
  189MOL0     H25478   0.931   6.841   9.883 -1.1234 -2.7638 -1.3777
  189MOL0     H25479   0.671   7.137  10.056  0.9534 -1.4159  1.9833
  189MOL0     H25480   0.535   7.348  10.089  0.8015 -1.5704 -2.5454
  189MOL0     H25481   0.395   7.420  10.314  1.0119 -1.6894 -0.9797
  189MOL0     H25482   0.389   7.510  10.151  0.4511  0.6951  1.1247
  189MOL0     H25483   0.203   7.606  10.185 -0.6504  4.4132  3.4113
  189MOL0     H25484   0.140   7.489  10.306  0.7292 -0.8636  0.4122
  189MOL0     H25485   0.339   7.706  10.361 -1.5759  1.8245  0.8100
  189MOL0     H25486   0.295   7.571  10.473  0.2779  0.4570  0.0659
  189MOL0     H25487   0.101   7.774  10.351  1.0570 -1.0764 -2.2441
  189MOL0     H25488   0.060   7.649  10.459 -1.6229  1.3953 -1.2665
  189MOL0     H25489   0.104   7.895  10.568 -1.0231 -0.1441  3.6406
  189MOL0     H25490   0.267   7.863  10.556 -0.9027  1.4472  1.0581
  189MOL0     H25491   0.073   7.689  10.707  0.5128 -1.3063 -0.5171
  189MOL0     H25492   0.238   7.658  10.675 -0.9184 -0.6938  1.7852
  189MOL0     H25493   0.152   7.908  10.841  0.0163 -0.1710  0.6737
  189MOL0     H25494   0.312   7.880  10.766  0.1620 -0.9296 -1.1030
  189MOL0     H25495   0.190   7.660  10.927 -0.4315  0.8886 -2.6324
  189MOL0     H25496   0.245   7.811  11.011 -2.6100  0.4702  0.0889
  189MOL0     H25497   0.184   7.105  10.164 -0.7670  3.1327  0.4229
  189MOL0     H25498   0.322   6.900  10.131  2.0665 -1.1203  0.4552
  189MOL0     H25499   0.467   6.653   9.837  0.5747  1.6971 -3.5158
  189MOL0     H25500   0.565   6.450   9.752 -0.9159 -0.9614  0.3388
  189MOL0     H25501   1.673   4.851  10.095  1.8408 -1.1052 -2.8505
  189MOL0     H25502   1.694   4.633  10.209  0.6839 -0.8071 -0.7277
  189MOL0     H25503   1.652   4.403  10.562  1.5354  0.4397 -2.1431
  189MOL0     H25504   1.715   4.176  10.683 -1.7372 -1.2881  1.3927
  189MOL0     H25505   1.629   3.792  10.468 -0.6171 -2.1349  0.0925
  189MOL0     H25506   1.633   3.761  10.640 -0.0426  3.1265  1.9163
  189MOL0     H25507   1.409   3.895  10.478 -0.6844  2.6806  2.1492
  189MOL0     H25508   1.400   3.883  10.655  0.0383  2.4263 -1.9326
  189MOL0     H25509   1.267   3.712  10.548 -0.4420 -1.8335  3.9393
  189MOL0     H25510   1.377   3.656  10.669 -0.4754  0.6640  0.7754
  189MOL0     H25511   1.450   3.643  10.368  0.6082 -2.2164 -0.8897
  189MOL0     H25512   1.346   3.522  10.456 -0.5349 -0.7528  4.8421
  189MOL0     H25513   1.684   3.398  10.643  0.5557  2.3931 -0.3604
  189MOL0     H25514   1.558   3.979  10.334  2.5080  0.5846 -2.2533
  189MOL0     H25515   1.505   4.177  10.232  1.2909 -1.6359 -0.9674
  190MOL0     O25516   8.701   5.526   4.254  0.1806 -0.0124  0.9313
  190MOL0     C25517   8.710   5.647   4.265 -0.3545  0.2755 -0.5364
  190MOL0     O25518   8.766   5.733   4.174  0.0544  0.0989 -0.5183
  190MOL0     C25519   8.803   5.685   4.050 -0.5776  0.1943 -0.5879
  190MOL0     C25520   8.707   5.688   3.949  1.0216  0.0767  0.5317
  190MOL0     C25521   8.732   5.650   3.826 -1.0610  0.5102  0.6033
  190MOL0     C25522   8.868   5.636   3.784  0.0493 -0.3990  0.0973
  190MOL0     O25523   8.914   5.582   3.670  0.0561 -0.1269  0.4900
  190MOL0     C25524   8.807   5.575   3.569 -0.3420  0.6533  0.2672
  190MOL0     C25525   8.856   5.503   3.448 -0.4738 -0.4408 -0.1211
  190MOL0     C25526   8.751   5.470   3.346 -0.2820  0.0949  0.4802
  190MOL0     C25527   8.795   5.370   3.236 -0.3312  0.4235 -0.3286
  190MOL0     C25528   8.854   5.444   3.110  0.3437 -0.2103 -0.8817
  190MOL0     C25529   8.911   5.355   3.002 -0.0872  0.6421  0.4994
  190MOL0     C25530   8.941   5.429   2.873  0.4299  0.2208 -0.4379
  190MOL0     C25531   9.044   5.363   2.776 -0.2659 -0.6890  1.0807
  190MOL0     N25532   9.076   5.454   2.660 -0.9197 -0.0038  0.6492
  190MOL0     C25533   8.984   5.505   2.571  0.3430 -0.6588 -0.7075
  190MOL0     C25534   9.060   5.570   2.478 -0.0559 -0.7274 -0.3657
  190MOL0     C25535   9.031   5.631   2.349 -0.0834  0.3255  0.3933
  190MOL0     C25536   8.940   5.542   2.265 -0.3861  0.4076 -0.0458
  190MOL0     C25537   9.009   5.407   2.219  0.0233 -1.2981  0.2005
  190MOL0     C25538   8.918   5.329   2.131 -0.4612  0.5492 -0.3863
  190MOL0     O25539   8.886   5.399   2.012  0.9286 -0.1158 -0.2108
  190MOL0     C25540   8.851   5.327   1.901 -1.0132  0.1609  0.3941
  190MOL0     C25541   8.813   5.200   1.900  0.2271 -0.0180  0.3999
  190MOL0     C25542   8.783   5.126   1.785  0.9388  0.4442 -0.0675
  190MOL0     C25543   8.757   4.981   1.805 -0.1494  0.0818 -0.1463
  190MOL0     C25544   8.774   5.195   1.654 -0.2505  0.7137 -0.6897
  190MOL0     C25545   8.742   5.128   1.532 -0.0013 -0.4730 -0.4557
  190MOL0     O25546   8.712   4.991   1.533  0.3724 -0.0660  0.0732
  190MOL0     C25547   8.636   4.955   1.424 -0.3570 -1.0271 -0.2293
  190MOL0     C25548   8.702   4.904   1.308 -0.9516 -0.3114 -1.3960
  190MOL0     C25549   8.629   4.858   1.201  0.9684 -0.2450  0.4565
  190MOL0     C25550   8.482   4.834   1.214  0.2936 -0.4574  1.0855
  190MOL0     O25551   8.423   4.779   1.103 -0.0690 -0.1812  0.0656
  190MOL0     C25552   8.297   4.712   1.136  1.0639  0.3990 -0.6554
  190MOL0     C25553   8.309   4.562   1.125  0.2955 -0.6435 -0.2586
  190MOL0     C25554   8.422   4.501   1.215 -0.5030  0.2597  0.5003
  190MOL0     C25555   8.388   4.518   1.364 -0.1303  0.6129 -1.1722
  190MOL0     C25556   8.501   4.482   1.467  0.4233  0.4262 -0.2835
  190MOL0     C25557   8.625   4.572   1.465 -0.8284  1.0618 -0.5988
  190MOL0     C25558   8.706   4.544   1.592  0.5470 -0.5446  0.8041
  190MOL0     C25559   8.818   4.653   1.607  0.8392 -0.1631 -0.0204
  190MOL0    Cl25560   8.941   4.613   1.738  0.0780  0.0496 -0.0287
  190MOL0     C25561   8.428   4.903   1.324 -0.3974  0.1827 -0.3972
  190MOL0     C25562   8.501   4.951   1.430 -0.1000 -0.8566  0.3734
  190MOL0     O25563   8.744   5.203   1.433 -0.2285  0.6506  0.3728
  190MOL0     C25564   8.822   5.330   1.662 -0.3510  0.0348 -0.0694
  190MOL0     C25565   8.851   5.394   1.783 -0.4703  0.6855  0.2723
  190MOL0     N25566   9.196   5.549   2.514 -0.5449 -0.4370  0.3490
  190MOL0     N25567   9.208   5.490   2.626  0.2640 -0.2268 -1.0436
  190MOL0     C25568   8.964   5.614   3.884  0.0727  0.2780 -0.4606
  190MOL0     C25569   8.936   5.640   4.018  0.4126  0.7044  0.1054
  190MOL0     C25570   8.647   5.718   4.371  0.6571  0.6440 -0.8336
  190MOL0     C25571   8.699   5.833   4.431  0.5553 -0.2745  1.2868
  190MOL0     C25572   8.632   5.888   4.537 -0.6966  0.6023 -0.8958
  190MOL0     C25573   8.516   5.836   4.584  0.8478  0.0767  0.5359
  190MOL0     O25574   8.450   5.904   4.682  0.3182 -0.1399 -0.3024
  190MOL0     C25575   8.329   5.864   4.748  0.6783 -0.8156  0.0296
  190MOL0     C25576   8.310   5.964   4.863  0.0211 -0.6110 -0.6332
  190MOL0     C25577   8.171   5.952   4.937  0.3643 -0.6147 -0.4784
  190MOL0     C25578   8.052   6.016   4.866 -0.7686 -1.0496 -0.7447
  190MOL0     C25579   8.082   6.159   4.839  0.5112 -0.4091  0.4629
  190MOL0     C25580   8.106   6.281   4.810  0.3059  0.1249  0.1345
  190MOL0     C25581   8.467   5.719   4.532  0.4989  0.7510 -0.5070
  190MOL0     C25582   8.538   5.657   4.424 -0.6511  0.8871  0.8259
  190MOL0     H25583   8.607   5.714   3.983 -0.8510 -5.0601 -0.1200
  190MOL0     H25584   8.655   5.654   3.750  1.2694  0.7078 -1.8827
  190MOL0     H25585   8.722   5.521   3.613 -0.1578  1.0336  1.1146
  190MOL0     H25586   8.775   5.674   3.536 -0.6867 -0.1435 -1.9799
  190MOL0     H25587   8.922   5.582   3.412 -0.6502  1.0641  2.5804
  190MOL0     H25588   8.906   5.414   3.486 -0.0874  0.7269  2.2855
  190MOL0     H25589   8.676   5.418   3.405 -0.2431 -2.7545 -1.7520
  190MOL0     H25590   8.711   5.559   3.298 -0.9093  0.1359  1.0710
  190MOL0     H25591   8.864   5.290   3.262  1.1017  0.5291 -3.4138
  190MOL0     H25592   8.708   5.316   3.197  1.7819 -2.8864 -0.8320
  190MOL0     H25593   8.780   5.513   3.070 -2.5437 -3.3621 -1.4380
  190MOL0     H25594   8.948   5.489   3.145 -0.5287  0.1274  1.2111
  190MOL0     H25595   9.003   5.312   3.041 -0.4211 -3.3544 -2.4978
  190MOL0     H25596   8.849   5.268   2.976  2.4855 -1.0618 -0.3096
  190MOL0     H25597   8.851   5.440   2.811 -0.5784  1.2615  1.1377
  190MOL0     H25598   8.980   5.528   2.900  0.2831 -0.3335  1.9837
  190MOL0     H25599   9.013   5.263   2.745 -3.4721  0.0020  1.6868
  190MOL0     H25600   9.139   5.349   2.828  1.4004  0.3147 -1.4621
  190MOL0     H25601   8.876   5.492   2.576  0.5045 -1.6539  1.0444
  190MOL0     H25602   8.979   5.722   2.378 -1.9206 -0.3579 -0.5621
  190MOL0     H25603   9.119   5.668   2.295 -1.5989  1.3184 -1.5545
  190MOL0     H25604   8.906   5.604   2.182  0.8512  0.3685 -0.5940
  190MOL0     H25605   8.848   5.519   2.321  0.9403  0.3162  2.2350
  190MOL0     H25606   9.048   5.341   2.297  0.8651 -1.2323 -0.1550
  190MOL0     H25607   9.098   5.436   2.161 -0.4736  1.0463  0.5196
  190MOL0     H25608   8.824   5.301   2.181 -0.4038  0.1028 -0.5235
  190MOL0     H25609   8.976   5.240   2.106 -2.0610 -0.0368 -2.1834
  190MOL0     H25610   8.832   5.141   1.989  3.1837  1.7608  1.1045
  190MOL0     H25611   8.831   4.931   1.741  0.1739  2.8548 -2.1280
  190MOL0     H25612   8.778   4.932   1.901  1.3314 -0.4298 -0.6958
  190MOL0     H25613   8.657   4.944   1.780 -0.2759 -2.8448  3.7176
  190MOL0     H25614   8.810   4.908   1.298 -0.4779 -2.0327  1.7959
  190MOL0     H25615   8.687   4.832   1.113 -3.0436 -4.8030 -1.3564
  190MOL0     H25616   8.252   4.744   1.230  1.6212  0.7343 -0.4937
  190MOL0     H25617   8.234   4.743   1.052  2.4904  0.4656 -1.7523
  190MOL0     H25618   8.214   4.512   1.143 -2.0153  3.8057  1.4838
  190MOL0     H25619   8.339   4.535   1.024  1.5300  0.1411 -0.1268
  190MOL0     H25620   8.517   4.551   1.196  0.2224  0.1306  3.3554
  190MOL0     H25621   8.420   4.393   1.197 -0.4659  0.4584 -0.7969
  190MOL0     H25622   8.348   4.617   1.387 -2.0068  0.0697 -1.9122
  190MOL0     H25623   8.298   4.456   1.377 -0.4016  0.8303 -1.9535
  190MOL0     H25624   8.514   4.374   1.458 -0.4320  0.3096 -0.2045
  190MOL0     H25625   8.452   4.498   1.564 -0.9313  2.9255 -1.2865
  190MOL0     H25626   8.673   4.564   1.367 -1.6825  0.8170 -1.0056
  190MOL0     H25627   8.602   4.679   1.477  1.5043  1.5164  0.2600
  190MOL0     H25628   8.764   4.454   1.569 -0.1952 -0.9401  0.4365
  190MOL0     H25629   8.650   4.550   1.686  0.9548  0.9226  0.9724
  190MOL0     H25630   8.772   4.748   1.636  0.8635  0.3897 -1.6527
  190MOL0     H25631   8.872   4.658   1.512  3.3125 -0.2082  1.2918
  190MOL0     H25632   8.320   4.901   1.330 -0.5061  1.5468 -1.3746
  190MOL0     H25633   8.459   4.979   1.526 -0.2283 -3.2899  1.0854
  190MOL0     H25634   8.818   5.388   1.571  3.0723  0.7180  0.1132
  190MOL0     H25635   8.869   5.501   1.781  2.5718  0.2749 -0.0184
  190MOL0     H25636   9.063   5.581   3.852 -0.2631  0.7149 -2.0268
  190MOL0     H25637   9.010   5.642   4.097 -0.5838  2.6106  1.0809
  190MOL0     H25638   8.784   5.879   4.382  2.5315 -2.6889  2.1898
  190MOL0     H25639   8.670   5.975   4.589  1.7316  0.4547 -2.2955
  190MOL0     H25640   8.244   5.877   4.680 -0.5861 -3.7222  0.8855
  190MOL0     H25641   8.333   5.766   4.798  1.9699 -0.9452 -0.3008
  190MOL0     H25642   8.328   6.069   4.834 -0.9111 -0.2629 -0.0022
  190MOL0     H25643   8.392   5.950   4.933  1.4004  1.4536 -1.6983
  190MOL0     H25644   8.182   5.988   5.039 -1.6798  2.1416 -1.1337
  190MOL0     H25645   8.147   5.845   4.947  1.8861 -0.9027  0.5355
  190MOL0     H25646   7.956   6.008   4.920  0.4999  2.3079  2.4406
  190MOL0     H25647   8.030   5.961   4.774  1.8764 -2.8762 -0.3981
  190MOL0     H25648   8.110   6.386   4.790  0.2023  0.3065  1.0037
  190MOL0     H25649   8.380   5.669   4.573 -1.1472  2.9592 -1.1622
  190MOL0     H25650   8.494   5.562   4.393 -0.4422  1.2992 -0.8515
  191MOL0     O25651  11.420   4.284   6.671 -0.1954 -0.2685 -0.4263
  191MOL0     C25652  11.389   4.250   6.785  0.2673  0.0510 -0.9202
  191MOL0     O25653  11.379   4.120   6.823 -0.0618 -0.7049 -1.1000
  191MOL0     C25654  11.407   4.016   6.737  0.2711 -0.3156 -0.2736
  191MOL0     C25655  11.302   3.958   6.656 -0.2314 -0.8757 -0.2628
  191MOL0     C25656  11.327   3.883   6.549 -0.3046  0.2607  0.7723
  191MOL0     C25657  11.456   3.839   6.528 -0.5190 -0.5135  0.0697
  191MOL0     O25658  11.503   3.775   6.420  0.0938  0.4599  1.1742
  191MOL0     C25659  11.418   3.714   6.323  0.2039  0.5440 -0.4387
  191MOL0     C25660  11.503   3.706   6.193 -0.5409  0.6649 -0.1717
  191MOL0     C25661  11.555   3.835   6.126  0.0933  0.5000 -0.5472
  191MOL0     C25662  11.429   3.917   6.077  0.7100  0.1539 -0.9225
  191MOL0     C25663  11.480   4.050   6.026 -0.2332  0.9540 -1.1691
  191MOL0     C25664  11.376   4.125   5.950 -1.0316  0.6812 -0.3510
  191MOL0     C25665  11.441   4.261   5.922  0.2588 -0.1338  0.4685
  191MOL0     C25666  11.347   4.345   5.834 -0.2916 -0.8490 -0.2020
  191MOL0     N25667  11.231   4.381   5.919 -0.4082  0.0729  0.1613
  191MOL0     C25668  11.104   4.335   5.910 -0.4521  0.2797  0.1526
  191MOL0     C25669  11.016   4.424   5.966 -0.4767  0.1801 -0.2015
  191MOL0     C25670  10.871   4.424   5.972  1.0654 -0.1110  0.4476
  191MOL0     C25671  10.824   4.397   6.111 -0.4632  0.0396 -0.0885
  191MOL0     C25672  10.693   4.318   6.144 -0.6350  0.1975  0.4070
  191MOL0     C25673  10.564   4.390   6.119  0.3674 -0.6409  0.4548
  191MOL0     O25674  10.543   4.367   5.977  0.5840  0.2148  0.4041
  191MOL0     C25675  10.460   4.267   5.938  0.1089 -0.1769 -0.5271
  191MOL0     C25676  10.427   4.148   6.007  0.5284  0.5160 -1.2762
  191MOL0     C25677  10.339   4.054   5.961 -0.3225 -0.2146  0.1793
  191MOL0     C25678  10.321   3.937   6.047 -0.2483 -0.3229 -0.4212
  191MOL0     C25679  10.273   4.073   5.841  0.4588 -0.1296 -0.7403
  191MOL0     C25680  10.180   3.978   5.775 -0.7510 -0.1104 -0.6719
  191MOL0     O25681  10.094   3.904   5.850 -0.0135  0.9879  0.4488
  191MOL0     C25682   9.974   3.865   5.792 -0.0010  0.2881  0.2596
  191MOL0     C25683   9.850   3.885   5.855 -0.4147 -0.5910 -0.2211
  191MOL0     C25684   9.736   3.816   5.811 -0.6207  0.2444  0.5498
  191MOL0     C25685   9.737   3.731   5.701 -0.4645  0.1857 -0.5071
  191MOL0     O25686   9.615   3.689   5.655 -0.5077  1.0234 -0.2486
  191MOL0     C25687   9.610   3.549   5.630  0.9316 -0.1034  0.1660
  191MOL0     C25688   9.462   3.511   5.634  0.0465 -0.9006 -0.4505
  191MOL0     C25689   9.409   3.522   5.786  0.7356  0.4430  0.0442
  191MOL0     C25690   9.299   3.422   5.818 -0.5633  0.0936  0.0899
  191MOL0     C25691   9.236   3.460   5.950 -0.5225  0.2999 -0.0896
  191MOL0     C25692   9.127   3.354   5.982 -0.1333  0.3439 -0.4916
  191MOL0     C25693   9.065   3.371   6.109  0.3967 -0.4408  0.4059
  191MOL0     C25694   8.990   3.507   6.123 -0.0854 -1.0298  0.0791
  191MOL0    Cl25695   8.856   3.535   6.011 -0.6763 -0.3241  0.1489
  191MOL0     C25696   9.853   3.715   5.636  0.1645 -0.7157  0.9654
  191MOL0     C25697   9.975   3.781   5.679  0.6368  0.3546 -0.5877
  191MOL0     O25698  10.193   3.977   5.654 -0.2659 -0.5518  0.4375
  191MOL0     C25699  10.302   4.194   5.772 -0.0995  0.4455 -0.3521
  191MOL0     C25700  10.387   4.292   5.826  0.3229 -0.1799 -0.1519
  191MOL0     N25701  11.098   4.533   5.995  0.4712 -0.6757 -1.1413
  191MOL0     N25702  11.223   4.505   5.978 -0.2883  0.0366  0.4349
  191MOL0     C25703  11.563   3.890   6.602 -0.9184  0.3488 -0.6863
  191MOL0     C25704  11.542   3.980   6.706  1.0535  0.0895 -0.8212
  191MOL0     C25705  11.382   4.358   6.894  0.1361  0.5075  0.8744
  191MOL0     C25706  11.324   4.335   7.015 -0.3010  0.7683 -0.3896
  191MOL0     C25707  11.298   4.451   7.100  0.6829  0.0498  0.4839
  191MOL0     C25708  11.316   4.581   7.056 -0.4374  0.3389  0.9015
  191MOL0     O25709  11.306   4.693   7.141  0.0467  0.6564 -0.0734
  191MOL0     C25710  11.180   4.733   7.192 -0.6189 -0.3667  0.5218
  191MOL0     C25711  11.177   4.719   7.346 -0.3160 -0.9228 -0.2067
  191MOL0     C25712  11.304   4.781   7.415  0.4516 -0.1971  0.6540
  191MOL0     C25713  11.305   4.763   7.566 -0.2735  1.9323 -0.0608
  191MOL0     C25714  11.187   4.827   7.623  0.1285  0.2086  0.5835
  191MOL0     C25715  11.093   4.874   7.676  0.8573 -0.5683  0.1916
  191MOL0     C25716  11.390   4.595   6.943 -0.0242  0.2298  0.0543
  191MOL0     C25717  11.425   4.489   6.860 -0.6338 -0.2283  0.0859
  191MOL0     H25718  11.200   3.990   6.671  0.7045  1.5056  1.6627
  191MOL0     H25719  11.243   3.846   6.491  0.1265  0.2347  0.1601
  191MOL0     H25720  11.375   3.619   6.356 -1.0334  0.8930 -1.0065
  191MOL0     H25721  11.333   3.781   6.309  1.2882  1.8681 -0.9287
  191MOL0     H25722  11.595   3.654   6.222 -1.2904 -0.7331 -0.2647
  191MOL0     H25723  11.446   3.643   6.124 -1.7621  1.1798  0.3559
  191MOL0     H25724  11.623   3.885   6.196  0.7737  0.3156 -1.0661
  191MOL0     H25725  11.607   3.820   6.031  0.1544 -0.9503 -0.3152
  191MOL0     H25726  11.382   3.859   5.997  0.5723  0.1630 -0.8494
  191MOL0     H25727  11.350   3.931   6.152 -2.3398 -0.9019 -3.7004
  191MOL0     H25728  11.532   4.105   6.106  0.4603  3.1524 -3.0120
  191MOL0     H25729  11.546   4.021   5.944  0.7350  1.4873 -0.5952
  191MOL0     H25730  11.355   4.071   5.858  0.9093  1.3472 -1.2222
  191MOL0     H25731  11.286   4.141   6.011 -1.7850  0.0000 -1.2724
  191MOL0     H25732  11.465   4.314   6.015 -2.0333 -2.8774  2.8434
  191MOL0     H25733  11.531   4.248   5.861  0.6226  0.1742  0.9320
  191MOL0     H25734  11.313   4.278   5.755  1.8646  0.4722 -2.3829
  191MOL0     H25735  11.396   4.432   5.790 -3.6502  1.6659  0.6949
  191MOL0     H25736  11.067   4.239   5.875 -1.0986 -0.2938  2.2508
  191MOL0     H25737  10.825   4.520   5.948 -3.1351 -1.6478  1.5464
  191MOL0     H25738  10.837   4.342   5.907 -1.1784 -0.0040  1.3938
  191MOL0     H25739  10.818   4.498   6.154  0.1373  0.6190 -1.3238
  191MOL0     H25740  10.906   4.353   6.170  0.8671  2.8159  0.3255
  191MOL0     H25741  10.703   4.310   6.252  2.5456  1.9071  0.3714
  191MOL0     H25742  10.706   4.220   6.098 -2.6868 -0.9744  2.1330
  191MOL0     H25743  10.559   4.497   6.142 -0.3032 -0.3111 -1.1143
  191MOL0     H25744  10.494   4.340   6.187  1.0826 -0.6850  1.1752
  191MOL0     H25745  10.457   4.136   6.111 -1.5350 -1.4321 -0.8320
  191MOL0     H25746  10.406   3.925   6.115 -0.1304  0.7746 -0.3576
  191MOL0     H25747  10.233   3.937   6.113  0.8652 -1.7997  1.1548
  191MOL0     H25748  10.305   3.845   5.991 -0.9068 -1.7155  1.8877
  191MOL0     H25749   9.853   3.938   5.950 -1.7988 -2.8924  1.1874
  191MOL0     H25750   9.651   3.836   5.875 -1.3860 -0.2372 -0.3008
  191MOL0     H25751   9.645   3.524   5.530 -1.4117 -1.7014 -0.3342
  191MOL0     H25752   9.669   3.488   5.699  2.1953  0.0641 -0.7246
  191MOL0     H25753   9.407   3.581   5.570 -2.4080 -0.0646  2.3389
  191MOL0     H25754   9.441   3.409   5.600 -1.2564 -0.7135 -0.2357
  191MOL0     H25755   9.370   3.624   5.790  0.8819  0.5013 -0.0507
  191MOL0     H25756   9.485   3.499   5.861 -0.0503 -0.7295  0.5163
  191MOL0     H25757   9.230   3.421   5.733  2.5167 -1.0027 -2.6024
  191MOL0     H25758   9.337   3.320   5.817  1.4886  0.8161 -0.2734
  191MOL0     H25759   9.195   3.560   5.932  1.6770  0.8575 -2.5429
  191MOL0     H25760   9.312   3.472   6.028 -0.4856  4.0994 -0.5352
  191MOL0     H25761   9.051   3.357   5.903  1.2656 -1.6547 -2.0021
  191MOL0     H25762   9.156   3.249   5.976 -0.3428  0.3698 -3.2460
  191MOL0     H25763   9.143   3.377   6.186  1.7462 -0.8172 -0.8807
  191MOL0     H25764   8.996   3.288   6.129 -0.4481  0.0193 -0.5353
  191MOL0     H25765   9.056   3.591   6.099 -1.9429  0.3931 -0.3909
  191MOL0     H25766   8.965   3.517   6.229  1.0581 -3.2226  0.6062
  191MOL0     H25767   9.847   3.660   5.542 -1.3290 -1.3775  1.4303
  191MOL0     H25768  10.073   3.753   5.643  1.4431 -0.5078  2.0439
  191MOL0     H25769  10.259   4.218   5.675 -2.1105 -1.4354 -0.0042
  191MOL0     H25770  10.398   4.389   5.778  1.2954 -0.4574 -0.5149
  191MOL0     H25771  11.657   3.840   6.580 -2.6637 -3.9630  0.4478
  191MOL0     H25772  11.618   4.026   6.768  1.4907 -1.0365 -0.4870
  191MOL0     H25773  11.315   4.229   7.033  0.1366 -0.4534 -5.7521
  191MOL0     H25774  11.242   4.444   7.193  0.9613  1.4669  0.7769
  191MOL0     H25775  11.176   4.837   7.160  2.4038 -0.5066 -0.6393
  191MOL0     H25776  11.101   4.677   7.140 -2.9327  0.7451  2.6655
  191MOL0     H25777  11.157   4.617   7.377 -1.8201 -0.7396 -0.4954
  191MOL0     H25778  11.090   4.774   7.383  0.6386 -0.5720  1.6497
  191MOL0     H25779  11.303   4.888   7.389  1.6984 -0.7709 -2.1626
  191MOL0     H25780  11.396   4.736   7.377 -0.5595 -0.4408 -1.6912
  191MOL0     H25781  11.400   4.798   7.608 -0.0861  0.0367  1.2472
  191MOL0     H25782  11.285   4.657   7.579 -3.7327  1.7467 -4.4059
  191MOL0     H25783  11.016   4.942   7.710  0.9504  0.6767 -1.9383
  191MOL0     H25784  11.418   4.694   6.908  2.1732 -0.2116  0.4422
  191MOL0     H25785  11.489   4.507   6.774  1.1831  1.0898  1.6271
  192MOL0     O25786   1.833   8.328   7.532 -0.9509  0.1965  0.5417
  192MOL0     C25787   1.910   8.322   7.434 -0.0237  0.0040  0.0899
  192MOL0     O25788   1.955   8.203   7.375  0.0898 -0.2107  0.0140
  192MOL0     C25789   1.900   8.087   7.425  0.6372 -0.0775 -0.9510
  192MOL0     C25790   1.766   8.054   7.409  0.3362 -0.4912 -0.2767
  192MOL0     C25791   1.713   7.934   7.457  0.7400  0.5928  0.3646
  192MOL0     C25792   1.787   7.851   7.539  0.7822  0.2327  0.8526
  192MOL0     O25793   1.723   7.744   7.596 -0.0596  0.1762  0.6011
  192MOL0     C25794   1.797   7.625   7.615 -0.6256  0.9017 -0.2108
  192MOL0     C25795   1.765   7.522   7.504  0.1365 -0.2533  0.1120
  192MOL0     C25796   1.628   7.465   7.505  0.2922  0.3031 -0.4525
  192MOL0     C25797   1.618   7.335   7.434 -0.7527  0.1488  0.1064
  192MOL0     C25798   1.471   7.287   7.413  0.4076 -0.4196 -0.0604
  192MOL0     C25799   1.416   7.350   7.278 -0.5500  0.3416  0.4010
  192MOL0     C25800   1.266   7.325   7.266  0.5111 -0.2005  0.1331
  192MOL0     C25801   1.209   7.415   7.157 -0.1356 -0.9063 -0.0148
  192MOL0     N25802   1.071   7.378   7.114  0.1632 -0.6631  0.4247
  192MOL0     C25803   1.035   7.287   7.022 -0.4263  0.0991  0.7476
  192MOL0     C25804   0.901   7.289   7.019  0.6790 -0.2716  0.6183
  192MOL0     C25805   0.813   7.183   6.939 -1.2382 -0.9943 -0.7711
  192MOL0     C25806   0.808   7.045   6.987 -0.6733  0.0622  0.3253
  192MOL0     C25807   0.751   7.022   7.127  0.7579  0.0961 -1.4932
  192MOL0     C25808   0.792   6.886   7.184  0.2638 -0.2537 -0.2996
  192MOL0     O25809   0.773   6.874   7.318  0.3922 -0.3571 -0.1087
  192MOL0     C25810   0.863   6.942   7.394 -0.2072  0.6242  1.0155
  192MOL0     C25811   0.825   6.956   7.532  0.6306  0.7886  0.4542
  192MOL0     C25812   0.896   7.016   7.632 -0.0582  0.3988  0.1772
  192MOL0     C25813   0.833   7.028   7.765  0.2513  0.4674 -0.0245
  192MOL0     C25814   1.032   7.057   7.601 -0.4738 -0.9935  0.1488
  192MOL0     C25815   1.137   7.104   7.696  0.0500  0.4002  0.3874
  192MOL0     O25816   1.259   7.148   7.651 -0.1376 -0.4923 -0.2511
  192MOL0     C25817   1.336   7.227   7.734  0.0502  0.4662  0.3221
  192MOL0     C25818   1.471   7.207   7.722 -0.6084  0.0160  0.2139
  192MOL0     C25819   1.566   7.284   7.798 -0.9043 -0.1851  0.7200
  192MOL0     C25820   1.517   7.377   7.893  0.3816  0.7993 -0.2922
  192MOL0     O25821   1.609   7.440   7.971  0.5357 -0.4682 -0.3797
  192MOL0     C25822   1.579   7.573   8.021 -0.1340  0.4552  0.2024
  192MOL0     C25823   1.687   7.610   8.128 -0.0131  0.1257 -0.0506
  192MOL0     C25824   1.655   7.587   8.282  0.0281  0.1420 -0.3548
  192MOL0     C25825   1.557   7.684   8.336  0.4847  0.6471 -0.2623
  192MOL0     C25826   1.530   7.645   8.482 -0.0030 -0.0752 -0.2588
  192MOL0     C25827   1.421   7.529   8.497 -0.0249  0.4963 -0.6984
  192MOL0     C25828   1.377   7.528   8.644 -0.3519  1.2273  0.0169
  192MOL0     C25829   1.229   7.473   8.639 -0.1920 -0.0360  0.5536
  192MOL0    Cl25830   1.103   7.599   8.609  0.0203  0.0488 -0.3910
  192MOL0     C25831   1.376   7.395   7.900  0.4846 -0.7075  0.8621
  192MOL0     C25832   1.290   7.326   7.812 -0.5904 -0.8919  0.8076
  192MOL0     O25833   1.109   7.082   7.812  0.0558 -0.5825 -0.7203
  192MOL0     C25834   1.067   7.059   7.461  0.5239 -0.7717  0.3524
  192MOL0     C25835   0.986   7.003   7.359  0.2809 -0.0220  0.0777
  192MOL0     N25836   0.854   7.395   7.082 -1.0078 -0.3888 -0.3670
  192MOL0     N25837   0.956   7.442   7.141  0.0372  0.3576 -0.0520
  192MOL0     C25838   1.927   7.879   7.551  0.0720  1.0384  0.9334
  192MOL0     C25839   1.982   7.995   7.489 -0.2876 -0.4246 -0.2142
  192MOL0     C25840   1.951   8.448   7.375 -0.8596 -0.3002  0.3468
  192MOL0     C25841   1.920   8.569   7.445  0.1073  0.1805 -0.7687
  192MOL0     C25842   1.972   8.691   7.401  0.1909 -0.1494  0.1716
  192MOL0     C25843   2.049   8.706   7.295 -0.2566 -0.1380  0.2415
  192MOL0     O25844   2.111   8.818   7.282 -0.2384 -0.8117 -0.0275
  192MOL0     C25845   2.087   8.884   7.156  0.0106 -0.0010  0.7132
  192MOL0     C25846   2.168   9.014   7.157  0.2999  0.2555  0.7042
  192MOL0     C25847   2.120   9.096   7.038  0.0884 -0.4870  0.6333
  192MOL0     C25848   2.191   9.231   7.035 -0.5713 -1.1203  0.2323
  192MOL0     C25849   2.336   9.220   7.012  0.0232  0.3316 -0.2925
  192MOL0     C25850   2.457   9.208   6.998  0.5115  0.6884 -0.2526
  192MOL0     C25851   2.081   8.597   7.224 -0.1917 -0.8828  0.9522
  192MOL0     C25852   2.036   8.467   7.263 -1.0479 -0.4600 -0.2389
  192MOL0     H25853   1.722   8.135   7.352  1.8407  1.1241  0.7418
  192MOL0     H25854   1.608   7.912   7.442 -0.1528  3.5445  1.5465
  192MOL0     H25855   1.906   7.633   7.606 -0.3652  2.0417  2.7951
  192MOL0     H25856   1.783   7.579   7.713  0.6817  0.6206 -0.1391
  192MOL0     H25857   1.778   7.583   7.414  2.0309  0.9948  1.1729
  192MOL0     H25858   1.838   7.440   7.514 -0.4668 -0.4868  4.1538
  192MOL0     H25859   1.600   7.452   7.610 -1.2703  1.8091 -0.6309
  192MOL0     H25860   1.566   7.544   7.460  1.5993  1.1259 -0.8455
  192MOL0     H25861   1.670   7.341   7.338 -0.5296 -0.4639  0.1836
  192MOL0     H25862   1.668   7.257   7.491  0.5018 -0.4006 -1.6471
  192MOL0     H25863   1.462   7.179   7.400 -0.8878 -0.1283 -1.8453
  192MOL0     H25864   1.406   7.319   7.495 -1.8910  0.9020 -2.2612
  192MOL0     H25865   1.433   7.457   7.290 -0.1752  0.3611 -0.2645
  192MOL0     H25866   1.474   7.302   7.199 -0.0675 -1.1826  1.6292
  192MOL0     H25867   1.244   7.220   7.245 -2.7520 -0.5548  4.1409
  192MOL0     H25868   1.219   7.342   7.363  1.0317 -1.0955  0.5566
  192MOL0     H25869   1.264   7.430   7.063 -2.1199  2.5571 -0.8146
  192MOL0     H25870   1.208   7.516   7.199  0.0573 -1.4419  1.3380
  192MOL0     H25871   1.101   7.221   6.968 -0.1761  1.1156 -0.2306
  192MOL0     H25872   0.708   7.212   6.929 -0.6395  0.8998 -2.1681
  192MOL0     H25873   0.860   7.191   6.841  3.4899 -0.1527  1.3045
  192MOL0     H25874   0.912   7.014   6.972 -1.4259 -0.9668 -4.8774
  192MOL0     H25875   0.757   6.987   6.910  1.4366 -4.2189  1.8047
  192MOL0     H25876   0.643   7.041   7.129  0.2452 -2.4475 -1.4713
  192MOL0     H25877   0.795   7.100   7.190 -0.8209 -0.7019  0.7333
  192MOL0     H25878   0.894   6.859   7.154 -0.1644 -3.2038  0.5041
  192MOL0     H25879   0.734   6.804   7.141 -0.4251 -0.8091  1.5861
  192MOL0     H25880   0.731   6.911   7.560  0.6260  1.1626  1.0531
  192MOL0     H25881   0.890   6.988   7.850  1.0796 -1.8949 -1.6004
  192MOL0     H25882   0.806   7.134   7.778 -0.2378  0.3161  0.2239
  192MOL0     H25883   0.742   6.968   7.773  0.0093  0.4075 -2.6072
  192MOL0     H25884   1.503   7.133   7.649 -0.5319  0.5861 -0.3352
  192MOL0     H25885   1.673   7.276   7.782 -1.2597 -2.0176 -1.2982
  192MOL0     H25886   1.601   7.634   7.932  3.5168 -2.7535 -1.3948
  192MOL0     H25887   1.474   7.586   8.048 -0.3183  1.6868 -0.9953
  192MOL0     H25888   1.783   7.571   8.092 -0.2479  0.0277 -0.5764
  192MOL0     H25889   1.678   7.719   8.121 -0.7675  0.2297  1.7973
  192MOL0     H25890   1.744   7.583   8.345  0.4309  2.8088 -0.6657
  192MOL0     H25891   1.613   7.486   8.291  0.7964 -0.0203  1.9517
  192MOL0     H25892   1.613   7.777   8.335 -0.2851  1.1259  0.2183
  192MOL0     H25893   1.469   7.683   8.270  1.5832  1.6194 -1.8214
  192MOL0     H25894   1.485   7.734   8.527 -0.0630  0.2149 -0.8805
  192MOL0     H25895   1.624   7.616   8.530  1.0834  1.5041 -1.3258
  192MOL0     H25896   1.342   7.550   8.425 -3.2531 -1.2820  2.0126
  192MOL0     H25897   1.461   7.431   8.470 -0.4601 -0.1003  0.7249
  192MOL0     H25898   1.368   7.624   8.696  1.4403  1.0847  0.6667
  192MOL0     H25899   1.446   7.458   8.692  0.2827 -0.1636 -2.7296
  192MOL0     H25900   1.207   7.429   8.737 -0.9426  0.8257  0.7862
  192MOL0     H25901   1.227   7.391   8.567  1.1930  1.0909 -0.8263
  192MOL0     H25902   1.323   7.462   7.967  1.3510 -0.5157  1.3767
  192MOL0     H25903   1.184   7.347   7.810 -0.7701 -1.7957  0.1398
  192MOL0     H25904   1.165   7.102   7.444  0.0016 -0.3700 -2.1262
  192MOL0     H25905   1.025   6.994   7.258 -0.5393 -0.2292 -0.2314
  192MOL0     H25906   1.988   7.809   7.607 -1.1841 -0.8404  0.0677
  192MOL0     H25907   2.090   8.005   7.484 -0.2836  3.1245  2.8163
  192MOL0     H25908   1.863   8.563   7.537  0.3648  0.6968 -0.5700
  192MOL0     H25909   1.948   8.775   7.466  0.1142  0.6180 -0.8319
  192MOL0     H25910   2.112   8.817   7.074  1.3137 -1.1110  1.9534
  192MOL0     H25911   1.979   8.895   7.143  0.2388  0.4466 -1.0093
  192MOL0     H25912   2.275   8.991   7.150 -0.0145 -1.3867  0.9265
  192MOL0     H25913   2.142   9.072   7.246  0.2478  1.0595  0.1793
  192MOL0     H25914   2.010   9.093   7.037  0.0625  0.5087  0.2011
  192MOL0     H25915   2.149   9.035   6.952 -1.2943 -0.3346  0.0244
  192MOL0     H25916   2.164   9.281   7.128  1.5006 -1.1855  0.9206
  192MOL0     H25917   2.151   9.282   6.947 -2.1241  0.0445  1.5537
  192MOL0     H25918   2.563   9.202   6.980  0.4598  0.4441 -0.4944
  192MOL0     H25919   2.145   8.620   7.140 -2.6030 -2.5533 -1.5205
  192MOL0     H25920   2.077   8.387   7.203  1.6834  0.2515  0.5342
  193MOL0     O25921   1.759   7.121   6.047 -0.3319 -0.1906  0.7430
  193MOL0     C25922   1.681   7.206   6.008  0.1550 -0.0083  0.6536
  193MOL0     O25923   1.653   7.329   6.065 -0.0042 -0.8008 -0.0470
  193MOL0     C25924   1.739   7.376   6.171  0.0968 -0.3252  0.8625
  193MOL0     C25925   1.678   7.423   6.281  0.6001  0.2061  0.1472
  193MOL0     C25926   1.749   7.463   6.393 -0.3542  0.3468  1.0265
  193MOL0     C25927   1.887   7.477   6.396 -1.0147 -0.0013  0.1025
  193MOL0     O25928   1.933   7.525   6.515 -0.6744  0.3122  0.4983
  193MOL0     C25929   2.034   7.437   6.581  0.5608 -0.2339 -0.4789
  193MOL0     C25930   2.018   7.475   6.728 -0.1514  0.3869  0.5408
  193MOL0     C25931   2.095   7.603   6.751 -0.3183  0.4919  0.2399
  193MOL0     C25932   2.053   7.651   6.888 -0.0646  0.6712 -0.4355
  193MOL0     C25933   2.116   7.787   6.931 -0.0898  0.0522 -0.6282
  193MOL0     C25934   2.255   7.760   6.977  0.3780  0.4445  0.4129
  193MOL0     C25935   2.299   7.868   7.056  0.3928  0.2437  0.2141
  193MOL0     C25936   2.349   7.990   6.984 -0.3260 -0.1465 -1.2009
  193MOL0     N25937   2.326   8.112   7.065  1.1145  0.6597 -0.2995
  193MOL0     C25938   2.383   8.131   7.194  0.1065  0.8410  1.0528
  193MOL0     C25939   2.351   8.259   7.221 -0.4579 -0.2573 -0.2965
  193MOL0     C25940   2.390   8.333   7.354  0.2195  0.5013  0.4479
  193MOL0     C25941   2.288   8.277   7.461  0.0860 -0.4160 -0.1437
  193MOL0     C25942   2.306   8.363   7.581  0.4376 -0.2780 -0.9200
  193MOL0     C25943   2.199   8.355   7.694  0.1089  0.0606 -0.7940
  193MOL0     O25944   2.186   8.227   7.760  0.1963  0.2848 -0.4014
  193MOL0     C25945   2.072   8.194   7.828 -0.5128 -0.0185 -0.2970
  193MOL0     C25946   2.061   8.066   7.887  0.3066  0.7431 -0.5024
  193MOL0     C25947   1.942   8.023   7.950  0.3059  0.2285 -0.7605
  193MOL0     C25948   1.949   7.874   7.991  0.7562  1.2150 -0.4208
  193MOL0     C25949   1.834   8.117   7.965  0.1484 -1.0217  0.4266
  193MOL0     C25950   1.708   8.087   8.017  0.1717  1.0029 -0.3713
  193MOL0     O25951   1.647   8.191   8.074 -0.2662  1.4201 -0.1470
  193MOL0     C25952   1.515   8.183   8.108 -1.1839 -0.0085 -0.3184
  193MOL0     C25953   1.466   8.087   8.197 -0.0103 -0.3523 -0.2947
  193MOL0     C25954   1.334   8.101   8.236  0.1449 -0.4780 -0.1154
  193MOL0     C25955   1.254   8.207   8.191  0.2701  0.3139  0.0777
  193MOL0     O25956   1.128   8.234   8.231  0.1077  0.5159 -1.3290
  193MOL0     C25957   1.043   8.116   8.221 -0.0959 -1.1546 -0.9126
  193MOL0     C25958   0.894   8.148   8.195 -0.2524  0.8924  0.5814
  193MOL0     C25959   0.878   8.218   8.067 -0.1936  0.4829 -0.3341
  193MOL0     C25960   0.737   8.266   8.061  0.7386 -0.4666 -0.2097
  193MOL0     C25961   0.717   8.340   7.923 -0.0676 -0.3894  0.0300
  193MOL0     C25962   0.578   8.374   7.883  0.2956 -0.0243  0.0699
  193MOL0     C25963   0.485   8.251   7.849 -0.6496 -0.0168  0.3659
  193MOL0     C25964   0.348   8.277   7.790  0.2085 -0.1336 -0.5732
  193MOL0    Cl25965   0.356   8.363   7.639 -0.1538 -0.3484  0.1131
  193MOL0     C25966   1.309   8.308   8.118  0.6283  0.4354 -0.7680
  193MOL0     C25967   1.439   8.300   8.075 -0.1940 -0.4507 -0.6505
  193MOL0     O25968   1.667   7.973   8.007 -0.3318  0.0353 -0.0872
  193MOL0     C25969   1.862   8.259   7.928  0.1257  0.6599 -1.0251
  193MOL0     C25970   1.984   8.289   7.864  0.5723  0.1704 -0.0260
  193MOL0     N25971   2.283   8.317   7.108 -0.2981 -0.2270 -0.7318
  193MOL0     N25972   2.260   8.225   7.015 -0.0902  0.6314 -0.2384
  193MOL0     C25973   1.958   7.452   6.279 -0.0171  0.2029  0.5622
  193MOL0     C25974   1.881   7.391   6.170  0.3960  0.6109  0.1852
  193MOL0     C25975   1.612   7.161   5.881 -1.4743  0.2420 -0.6657
  193MOL0     C25976   1.680   7.080   5.789  0.7431  0.2361 -0.0587
  193MOL0     C25977   1.615   7.033   5.672  0.4971 -0.5186 -0.5942
  193MOL0     C25978   1.477   7.062   5.657 -0.1648 -1.1029  0.1148
  193MOL0     O25979   1.402   7.011   5.560 -0.3772  0.0875 -0.1952
  193MOL0     C25980   1.464   6.956   5.445  0.9453  1.5128 -0.0418
  193MOL0     C25981   1.339   6.897   5.365 -0.9167 -0.1256  0.6954
  193MOL0     C25982   1.398   6.831   5.236  0.2419 -0.2161 -0.3056
  193MOL0     C25983   1.428   6.682   5.251 -0.7644 -0.1944 -0.2382
  193MOL0     C25984   1.534   6.637   5.165 -0.1473 -0.6706 -0.0811
  193MOL0     C25985   1.608   6.599   5.080 -0.1396 -0.6085  0.3303
  193MOL0     C25986   1.410   7.144   5.754  0.6210 -0.6110  0.1344
  193MOL0     C25987   1.481   7.191   5.864 -0.2170 -0.8252  0.3838
  193MOL0     H25988   1.572   7.412   6.302  0.2117  2.3515 -0.3974
  193MOL0     H25989   1.683   7.483   6.477 -1.9521 -1.7690  0.3850
  193MOL0     H25990   2.006   7.332   6.571  1.4762 -0.4105 -1.2318
  193MOL0     H25991   2.136   7.455   6.547  1.0964 -4.9641 -2.0746
  193MOL0     H25992   1.912   7.483   6.750 -0.7808  1.2213 -2.3961
  193MOL0     H25993   2.068   7.402   6.792  0.9501 -0.0687 -0.7852
  193MOL0     H25994   2.204   7.597   6.743 -0.1931  2.3302  0.2392
  193MOL0     H25995   2.052   7.672   6.678  0.7291 -0.0886 -0.9566
  193MOL0     H25996   1.946   7.671   6.883 -0.2050  1.2796  2.6724
  193MOL0     H25997   2.058   7.565   6.956  2.2379  1.1494  0.0722
  193MOL0     H25998   2.120   7.860   6.850 -0.1943  1.5465  0.6686
  193MOL0     H25999   2.062   7.834   7.014 -1.9022 -1.6309 -0.7907
  193MOL0     H26000   2.277   7.665   7.027  2.1951 -0.3272 -1.6745
  193MOL0     H26001   2.320   7.744   6.891 -1.2477  0.2238 -0.8169
  193MOL0     H26002   2.229   7.902   7.132 -0.8432 -0.1424 -0.7237
  193MOL0     H26003   2.388   7.823   7.100  1.8883  1.8329 -1.0040
  193MOL0     H26004   2.308   8.003   6.883 -1.9305 -0.6118 -0.6434
  193MOL0     H26005   2.455   7.973   6.968 -0.2074 -2.2947  1.2032
  193MOL0     H26006   2.438   8.069   7.264 -0.9414  0.2976  1.4205
  193MOL0     H26007   2.492   8.327   7.393 -0.6040 -2.4543  2.4989
  193MOL0     H26008   2.372   8.438   7.328 -2.4439 -0.2626 -1.0837
  193MOL0     H26009   2.322   8.177   7.492 -2.4249 -0.5624  2.6876
  193MOL0     H26010   2.189   8.274   7.416  0.7204 -2.4351 -1.5344
  193MOL0     H26011   2.298   8.466   7.544  1.6613 -0.1803 -0.9731
  193MOL0     H26012   2.401   8.349   7.633 -0.1520  2.7806  1.2508
  193MOL0     H26013   2.104   8.387   7.650 -1.0500 -0.1436  1.4087
  193MOL0     H26014   2.226   8.431   7.768  2.7220 -0.6741 -0.9049
  193MOL0     H26015   2.148   8.002   7.900  1.7258  2.7514  0.4583
  193MOL0     H26016   1.864   7.821   7.945  1.1209 -2.0288  2.2985
  193MOL0     H26017   2.037   7.818   7.958 -0.7974 -2.8581  1.6778
  193MOL0     H26018   1.924   7.871   8.097  0.7313  1.5048 -0.4166
  193MOL0     H26019   1.531   8.005   8.225  0.7009 -0.2406 -1.5245
  193MOL0     H26020   1.288   8.024   8.297  0.6336 -2.9183 -2.6187
  193MOL0     H26021   1.080   8.045   8.147 -1.4081 -1.0080 -1.7370
  193MOL0     H26022   1.061   8.059   8.313  0.1355 -1.3072 -1.0524
  193MOL0     H26023   0.839   8.053   8.192 -2.4945  2.1092  0.5977
  193MOL0     H26024   0.845   8.198   8.278  0.1026 -1.3410  2.2156
  193MOL0     H26025   0.892   8.135   7.996 -1.7546 -0.2749  0.1941
  193MOL0     H26026   0.953   8.298   8.061 -2.2242  2.4245 -1.2146
  193MOL0     H26027   0.668   8.181   8.065 -0.9450  0.8712  0.0188
  193MOL0     H26028   0.719   8.333   8.145 -0.2770 -0.7492 -0.1927
  193MOL0     H26029   0.767   8.285   7.843 -1.5932  1.9384 -2.7190
  193MOL0     H26030   0.772   8.433   7.935  2.5518 -1.9510  0.7590
  193MOL0     H26031   0.531   8.436   7.960  3.7647  1.0206  1.5320
  193MOL0     H26032   0.580   8.432   7.790 -2.8394 -1.3977 -0.9851
  193MOL0     H26033   0.471   8.184   7.934  3.1058 -2.6670 -0.8194
  193MOL0     H26034   0.523   8.190   7.767  0.3624  0.6263  0.3368
  193MOL0     H26035   0.287   8.347   7.849  1.8936  2.1418 -1.3652
  193MOL0     H26036   0.289   8.188   7.770 -2.1004  0.6065  2.2464
  193MOL0     H26037   1.246   8.392   8.091  0.2079  0.5364  0.4650
  193MOL0     H26038   1.481   8.383   8.019 -0.5728 -2.5735 -4.4147
  193MOL0     H26039   1.791   8.336   7.956  0.0018  0.5239 -0.9634
  193MOL0     H26040   1.999   8.391   7.830  2.1007 -0.5402 -1.6663
  193MOL0     H26041   2.065   7.463   6.292  0.8652 -3.8498 -1.7033
  193MOL0     H26042   1.934   7.357   6.082 -2.7854 -2.2064 -0.8610
  193MOL0     H26043   1.784   7.058   5.810  0.1544 -1.5907  1.1593
  193MOL0     H26044   1.662   6.965   5.601  0.0964 -3.1513  1.5149
  193MOL0     H26045   1.517   7.032   5.387  2.2814 -1.9436 -3.8682
  193MOL0     H26046   1.539   6.879   5.464  2.3775  3.3973  2.5569
  193MOL0     H26047   1.276   6.982   5.336 -1.8766  0.3067  3.6195
  193MOL0     H26048   1.276   6.824   5.417 -0.4008 -1.2893 -0.2732
  193MOL0     H26049   1.479   6.891   5.193  1.8652 -2.5230 -0.6311
  193MOL0     H26050   1.331   6.859   5.154  1.8634  3.1704 -0.6493
  193MOL0     H26051   1.341   6.616   5.257 -0.7733 -0.2557 -0.9396
  193MOL0     H26052   1.467   6.671   5.352 -1.1028 -2.0893 -0.2832
  193MOL0     H26053   1.675   6.570   5.001  0.6899 -0.9354  1.1328
  193MOL0     H26054   1.307   7.172   5.738 -0.0358 -2.2738  1.2812
  193MOL0     H26055   1.416   7.257   5.920 -0.4176  3.2693 -3.9950
  194MOL0     O26056   9.288   3.990   3.193 -0.0040 -0.3234 -0.4638
  194MOL0     C26057   9.186   3.949   3.252  0.2907 -0.8574  0.2056
  194MOL0     O26058   9.131   4.014   3.367  0.3812  0.2505  0.5256
  194MOL0     C26059   9.181   4.130   3.413  0.3020  0.1662  0.0715
  194MOL0     C26060   9.221   4.120   3.540  0.0372 -0.8043  0.3059
  194MOL0     C26061   9.267   4.226   3.610  0.2467  0.2285  0.7553
  194MOL0     C26062   9.296   4.348   3.554 -0.9785 -1.3726  0.2388
  194MOL0     O26063   9.374   4.439   3.619  0.3041  0.4237  0.6944
  194MOL0     C26064   9.308   4.576   3.632 -0.0500  0.0659  0.8772
  194MOL0     C26065   9.360   4.639   3.765  0.3834 -0.2988  0.1588
  194MOL0     C26066   9.354   4.796   3.776  0.0797 -0.4533  1.0121
  194MOL0     C26067   9.445   4.860   3.677 -0.3902 -0.5258  0.6826
  194MOL0     C26068   9.511   4.994   3.730  0.2404  1.0128  0.2026
  194MOL0     C26069   9.420   5.112   3.725  0.3445 -0.0734 -0.9995
  194MOL0     C26070   9.356   5.143   3.590  0.0867 -0.5051 -0.6090
  194MOL0     C26071   9.312   5.298   3.596  0.2361  1.0226 -0.3588
  194MOL0     N26072   9.282   5.355   3.462  0.6491 -0.2286 -0.1674
  194MOL0     C26073   9.359   5.339   3.344  0.3560  0.1148  0.1854
  194MOL0     C26074   9.280   5.397   3.248  0.2814  0.5662  0.6001
  194MOL0     C26075   9.320   5.403   3.103  0.2520 -0.2743 -0.4357
  194MOL0     C26076   9.423   5.519   3.087 -0.0724 -0.5650  0.3050
  194MOL0     C26077   9.578   5.484   3.118 -0.1531  0.2727 -0.2620
  194MOL0     C26078   9.646   5.370   3.045  0.0719  0.6514 -0.1945
  194MOL0     O26079   9.616   5.242   3.109  0.1786  0.6449  1.1151
  194MOL0     C26080   9.681   5.126   3.062 -0.0185 -0.3552 -0.1050
  194MOL0     C26081   9.764   5.130   2.944  0.7330  0.6361 -0.6857
  194MOL0     C26082   9.831   5.010   2.904 -0.2625 -0.5557  0.4093
  194MOL0     C26083   9.925   5.015   2.790 -0.6437 -0.5822  0.3406
  194MOL0     C26084   9.816   4.889   2.985  0.3884  0.2179  0.4415
  194MOL0     C26085   9.882   4.758   2.963 -0.1006  0.7056  0.0536
  194MOL0     O26086   9.898   4.685   3.079  0.7903  0.3226 -1.2007
  194MOL0     C26087   9.929   4.548   3.083 -0.0700 -0.7239  0.4272
  194MOL0     C26088   9.988   4.505   3.203  0.2080  0.7956 -0.4313
  194MOL0     C26089  10.025   4.364   3.205 -0.7958 -0.6004  0.2123
  194MOL0     C26090  10.009   4.277   3.092  0.0301 -1.5299 -0.4961
  194MOL0     O26091  10.069   4.158   3.074 -0.2589 -0.2946 -0.1403
  194MOL0     C26092  10.136   4.094   3.178 -0.3916  0.2438  0.0861
  194MOL0     C26093  10.166   3.939   3.154  0.5933 -0.6104  0.0632
  194MOL0     C26094  10.241   3.870   3.274 -0.8854 -0.4188  0.8457
  194MOL0     C26095  10.315   3.947   3.373  0.5561 -0.5686  0.1882
  194MOL0     C26096  10.370   3.851   3.489  0.3887  0.0456 -0.7110
  194MOL0     C26097  10.435   3.939   3.593 -0.0482  0.3854 -0.3771
  194MOL0     C26098  10.475   3.871   3.729  0.0013 -0.0340  0.2783
  194MOL0     C26099  10.623   3.905   3.762 -0.0975 -1.1358 -0.4284
  194MOL0    Cl26100  10.737   3.869   3.632  0.0848 -0.3293 -0.0778
  194MOL0     C26101   9.948   4.317   2.979  0.3146 -0.5235 -0.4909
  194MOL0     C26102   9.899   4.456   2.975  0.1731  0.1457  0.1631
  194MOL0     O26103   9.914   4.722   2.853  0.4764  0.1420  0.3449
  194MOL0     C26104   9.735   4.895   3.094 -0.1577  0.0879 -0.2466
  194MOL0     C26105   9.674   5.010   3.137 -0.5416  0.3099 -0.4160
  194MOL0     N26106   9.169   5.448   3.307  0.3881 -0.1024 -0.2280
  194MOL0     N26107   9.168   5.421   3.431  0.5747 -0.3524 -0.2804
  194MOL0     C26108   9.249   4.359   3.418 -0.9498  0.7445 -0.7977
  194MOL0     C26109   9.198   4.250   3.342  0.4314 -0.2499 -0.8403
  194MOL0     C26110   9.134   3.813   3.210  0.4864  0.4484 -0.5474
  194MOL0     C26111   9.165   3.748   3.090  0.9777 -0.3034  0.2710
  194MOL0     C26112   9.090   3.639   3.057 -0.4097 -0.2151  0.2488
  194MOL0     C26113   8.981   3.595   3.132  0.3099  0.7650  1.0363
  194MOL0     O26114   8.884   3.496   3.087  0.0402 -0.2243  0.1159
  194MOL0     C26115   8.883   3.420   2.963 -0.7874 -0.5082  0.1468
  194MOL0     C26116   8.747   3.367   2.935  0.2157 -1.1458  0.4857
  194MOL0     C26117   8.747   3.297   2.800  1.1250 -0.1571 -0.3547
  194MOL0     C26118   8.620   3.307   2.719 -1.1119  0.8659  0.0809
  194MOL0     C26119   8.508   3.242   2.785  0.1507  0.9835 -1.0276
  194MOL0     C26120   8.417   3.184   2.839  0.6860  0.6819  0.5968
  194MOL0     C26121   8.958   3.657   3.254  0.3272 -0.1691  0.2960
  194MOL0     C26122   9.043   3.757   3.299  1.3977 -0.4812 -0.7337
  194MOL0     H26123   9.221   4.020   3.583  3.5753 -1.3705 -0.6497
  194MOL0     H26124   9.291   4.207   3.714  0.1194 -0.9201  0.5891
  194MOL0     H26125   9.355   4.630   3.549 -1.0800  0.1579  0.3383
  194MOL0     H26126   9.200   4.574   3.619  0.1645 -1.6451 -1.1848
  194MOL0     H26127   9.301   4.598   3.847  2.0757  0.6595  1.9460
  194MOL0     H26128   9.462   4.603   3.780  0.1158 -0.8136  0.8245
  194MOL0     H26129   9.253   4.829   3.749  1.4963  2.4947 -1.2681
  194MOL0     H26130   9.385   4.823   3.878 -1.1514 -0.3156  1.3604
  194MOL0     H26131   9.527   4.793   3.648  0.0011  0.7280 -1.2654
  194MOL0     H26132   9.389   4.874   3.584  1.5322  1.3421 -0.2594
  194MOL0     H26133   9.555   4.971   3.828  1.4775 -3.1531 -1.1102
  194MOL0     H26134   9.599   5.020   3.671  0.5727 -2.5880 -1.1129
  194MOL0     H26135   9.337   5.101   3.796  0.6338  3.7127  0.1637
  194MOL0     H26136   9.481   5.193   3.765 -0.9293 -0.4455  2.0239
  194MOL0     H26137   9.439   5.126   3.521  0.4448 -3.3761  0.4246
  194MOL0     H26138   9.269   5.083   3.563  2.6435 -3.7112 -2.4102
  194MOL0     H26139   9.388   5.353   3.653  0.4129  0.2078  0.2162
  194MOL0     H26140   9.214   5.304   3.645  1.2874  2.2887  1.7463
  194MOL0     H26141   9.450   5.282   3.327 -0.5883 -1.3358 -0.1949
  194MOL0     H26142   9.356   5.306   3.066 -0.4640 -1.9683  2.8816
  194MOL0     H26143   9.235   5.432   3.041  1.1791  1.2493 -1.0382
  194MOL0     H26144   9.398   5.605   3.150 -1.2093 -1.9126  1.7786
  194MOL0     H26145   9.415   5.563   2.988 -0.6810 -1.5444 -0.0920
  194MOL0     H26146   9.588   5.458   3.224  1.9135 -2.5186 -1.0238
  194MOL0     H26147   9.636   5.572   3.090 -2.2617  2.9063  2.8295
  194MOL0     H26148   9.755   5.377   3.046 -0.0260  2.7683  0.4784
  194MOL0     H26149   9.613   5.377   2.940  1.1359 -0.8016 -0.6528
  194MOL0     H26150   9.782   5.216   2.880 -0.2155 -0.3302 -2.3263
  194MOL0     H26151   9.908   5.115   2.750  0.3498  0.3095  2.0154
  194MOL0     H26152  10.031   4.998   2.812 -0.4462 -1.4405 -1.1410
  194MOL0     H26153   9.889   4.943   2.716 -1.4762  1.1097 -0.9702
  194MOL0     H26154   9.991   4.561   3.296 -1.0710 -0.9552  0.7127
  194MOL0     H26155  10.091   4.332   3.284 -0.5269 -0.4980  0.0302
  194MOL0     H26156  10.229   4.150   3.186  0.5214 -1.1090 -0.6112
  194MOL0     H26157  10.089   4.093   3.277  1.3150 -4.0698  1.0979
  194MOL0     H26158  10.078   3.878   3.131  1.3807 -3.5068  3.7637
  194MOL0     H26159  10.234   3.945   3.069  0.8329  0.2495  0.2962
  194MOL0     H26160  10.321   3.819   3.219 -0.5130  4.0217 -3.4461
  194MOL0     H26161  10.175   3.797   3.321 -1.0673 -1.1804 -0.5213
  194MOL0     H26162  10.394   4.003   3.323  0.0353  0.6190  0.6273
  194MOL0     H26163  10.254   4.021   3.427 -0.5943 -1.2421 -0.1511
  194MOL0     H26164  10.453   3.784   3.461  0.9480 -0.2619  1.4791
  194MOL0     H26165  10.302   3.776   3.530 -1.4599  1.1063 -1.7450
  194MOL0     H26166  10.525   3.974   3.542  0.9726  1.0206  1.7477
  194MOL0     H26167  10.369   4.022   3.619 -3.9057 -2.6393  0.5366
  194MOL0     H26168  10.477   3.762   3.720 -2.9386  0.0034 -3.1437
  194MOL0     H26169  10.410   3.901   3.813  1.7262 -0.5979  1.8796
  194MOL0     H26170  10.656   3.850   3.851  2.0057 -3.3129 -2.4185
  194MOL0     H26171  10.637   4.013   3.772  3.0772 -1.3779 -1.1875
  194MOL0     H26172   9.942   4.249   2.894  1.2136  0.0635 -1.0375
  194MOL0     H26173   9.845   4.482   2.885  2.1635  1.3169 -0.7608
  194MOL0     H26174   9.722   4.811   3.161  1.3976  0.9157  1.1664
  194MOL0     H26175   9.619   5.003   3.230 -1.8724  2.2123 -1.0031
  194MOL0     H26176   9.277   4.438   3.349 -0.9028 -0.6179 -2.4180
  194MOL0     H26177   9.191   4.258   3.234  3.2600  0.6913 -1.0562
  194MOL0     H26178   9.237   3.798   3.025 -0.4702  0.6298 -0.6889
  194MOL0     H26179   9.102   3.605   2.954  1.5517 -0.7529  0.6100
  194MOL0     H26180   8.919   3.479   2.878 -0.3780  3.7297  2.9143
  194MOL0     H26181   8.952   3.338   2.983 -0.8598 -0.3307  1.2117
  194MOL0     H26182   8.685   3.457   2.938  2.2657  0.3707 -0.5080
  194MOL0     H26183   8.734   3.289   3.011  1.2446 -2.2937 -0.4584
  194MOL0     H26184   8.766   3.189   2.801  2.2675 -0.1628 -4.2816
  194MOL0     H26185   8.830   3.331   2.737 -0.8963  1.8797 -2.0954
  194MOL0     H26186   8.634   3.254   2.624  0.3967  0.8246  0.3077
  194MOL0     H26187   8.594   3.410   2.693  1.0418  1.4971  0.2746
  194MOL0     H26188   8.355   3.129   2.906 -3.0791  1.6254 -1.7775
  194MOL0     H26189   8.884   3.614   3.321 -0.2207 -2.1674 -1.5024
  194MOL0     H26190   9.042   3.796   3.401 -0.5831  2.0957 -1.6369
  195MOL0     O26191   7.276   0.895   0.783 -0.1754 -0.0402  0.1237
  195MOL0     C26192   7.278   1.018   0.808  0.9769  0.0551  0.2705
  195MOL0     O26193   7.223   1.071   0.914 -0.4176  0.3755 -0.3086
  195MOL0     C26194   7.176   0.991   1.016 -0.8073 -0.5866 -0.2588
  195MOL0     C26195   7.259   0.923   1.096 -0.9513  0.2359 -0.6217
  195MOL0     C26196   7.204   0.830   1.183 -0.8368  0.8004  0.3418
  195MOL0     C26197   7.073   0.787   1.178 -1.0788  0.4120  0.7206
  195MOL0     O26198   7.034   0.673   1.252 -1.4895 -0.1592  0.1203
  195MOL0     C26199   6.925   0.674   1.339  0.6787 -0.4747  0.4608
  195MOL0     C26200   6.925   0.781   1.450  0.4233  0.5894  0.3712
  195MOL0     C26201   7.052   0.770   1.536 -0.6517  0.0642  0.0786
  195MOL0     C26202   7.033   0.813   1.680 -0.0160 -0.4361  0.9616
  195MOL0     C26203   6.995   0.697   1.766 -0.2699  0.6364 -0.5864
  195MOL0     C26204   6.951   0.743   1.903 -0.1140 -0.6383  0.1242
  195MOL0     C26205   6.950   0.640   2.013 -0.5762  0.3963  0.3754
  195MOL0     C26206   6.903   0.491   1.983  0.0928 -0.3833  0.3238
  195MOL0     N26207   6.863   0.408   2.102  0.5904 -0.3279 -0.3590
  195MOL0     C26208   6.754   0.415   2.182 -0.0560 -0.1406 -1.2512
  195MOL0     C26209   6.781   0.328   2.282 -0.0835  0.7524 -0.0134
  195MOL0     C26210   6.693   0.297   2.397  0.8777  0.3582  0.2786
  195MOL0     C26211   6.571   0.387   2.413  0.3031  1.1186 -0.2423
  195MOL0     C26212   6.508   0.367   2.552  0.0192 -0.4713  0.2269
  195MOL0     C26213   6.429   0.234   2.545  0.0613  0.1377 -0.4169
  195MOL0     O26214   6.338   0.228   2.656  0.5327 -0.0579  0.1784
  195MOL0     C26215   6.275   0.112   2.687 -0.5757 -1.0462  0.4473
  195MOL0     C26216   6.290  -0.013   2.619 -0.1055 -0.4769 -0.4782
  195MOL0     C26217   6.201  -0.118   2.653  0.0307  0.6026  0.1748
  195MOL0     C26218   6.224  -0.251   2.582 -0.6324 -0.3255  0.2653
  195MOL0     C26219   6.096  -0.101   2.754 -0.3256  0.6960 -0.0258
  195MOL0     C26220   6.011  -0.212   2.800 -0.0024  0.2642 -1.3453
  195MOL0     O26221   5.970  -0.304   2.709 -1.3769  0.3851  0.5540
  195MOL0     C26222   5.909  -0.403   2.772  0.9083 -1.0267 -0.3448
  195MOL0     C26223   5.769  -0.400   2.770  0.6817  0.3539  0.1564
  195MOL0     C26224   5.693  -0.500   2.835  0.4220 -0.0370  1.8149
  195MOL0     C26225   5.757  -0.607   2.884 -0.3327  0.3619 -0.0432
  195MOL0     O26226   5.679  -0.713   2.931  0.3519 -0.4294  0.6972
  195MOL0     C26227   5.717  -0.814   3.021 -0.8024  0.3042 -0.2234
  195MOL0     C26228   5.618  -0.923   3.050 -0.6333 -0.1817  0.6277
  195MOL0     C26229   5.487  -0.886   3.126  0.8023  0.4255  0.1911
  195MOL0     C26230   5.396  -1.001   3.168  0.1278  0.0990  0.5525
  195MOL0     C26231   5.275  -0.958   3.252 -0.1913  0.0574 -0.7428
  195MOL0     C26232   5.330  -0.966   3.394  0.5562  0.3117 -0.4281
  195MOL0     C26233   5.231  -0.945   3.499  0.1102  0.7902  0.7964
  195MOL0     C26234   5.281  -0.971   3.642 -0.2300  0.2082 -0.3943
  195MOL0    Cl26235   5.362  -1.126   3.651  0.1130  0.1829  0.2710
  195MOL0     C26236   5.900  -0.612   2.882 -0.2717 -0.6338 -0.7105
  195MOL0     C26237   5.977  -0.507   2.828  0.3963  0.0420 -0.1036
  195MOL0     O26238   5.987  -0.208   2.922 -0.1318 -0.5133  0.5989
  195MOL0     C26239   6.096   0.025   2.817 -0.0625  0.3661  0.1510
  195MOL0     C26240   6.182   0.127   2.780 -0.2479 -1.1290 -0.2634
  195MOL0     N26241   6.914   0.278   2.264  0.1383  0.2421  0.6338
  195MOL0     N26242   6.957   0.326   2.150 -0.4207  0.7794 -0.2538
  195MOL0     C26243   6.991   0.861   1.093  0.6272 -1.1497  0.4230
  195MOL0     C26244   7.036   0.957   1.014 -0.6007  0.1284 -0.1932
  195MOL0     C26245   7.343   1.109   0.706 -0.1752 -0.0252  0.1494
  195MOL0     C26246   7.382   1.055   0.581  0.2654  0.1132  0.6228
  195MOL0     C26247   7.460   1.125   0.497 -0.7086 -0.3107  0.3014
  195MOL0     C26248   7.521   1.247   0.536 -0.1401 -0.5082 -0.2532
  195MOL0     O26249   7.610   1.304   0.445 -0.0544 -0.0675 -0.8799
  195MOL0     C26250   7.657   1.424   0.496 -0.1074  0.1305  0.9254
  195MOL0     C26251   7.758   1.480   0.389  0.0972 -0.1947 -0.3224
  195MOL0     C26252   7.767   1.415   0.251  0.5474 -0.5561 -0.3326
  195MOL0     C26253   7.877   1.464   0.160  0.2238 -0.0005  0.7186
  195MOL0     C26254   8.004   1.420   0.211  0.6642 -0.1545 -0.0309
  195MOL0     C26255   8.107   1.393   0.265 -0.6261  0.2698 -0.4687
  195MOL0     C26256   7.469   1.312   0.656  0.6125  0.4420 -1.1006
  195MOL0     C26257   7.379   1.234   0.741 -0.5368 -0.5291 -0.0108
  195MOL0     H26258   7.365   0.942   1.100 -1.2638  2.1670  2.6886
  195MOL0     H26259   7.262   0.777   1.259  0.3588  1.2364 -0.2347
  195MOL0     H26260   6.830   0.676   1.284 -0.2828 -2.8302  1.8761
  195MOL0     H26261   6.922   0.581   1.397 -0.2562 -0.1560  0.9450
  195MOL0     H26262   6.919   0.881   1.404 -2.0252 -0.0575 -0.9278
  195MOL0     H26263   6.845   0.759   1.520  3.4304  0.4866  4.0877
  195MOL0     H26264   7.077   0.664   1.533 -0.6825  0.0303 -3.3190
  195MOL0     H26265   7.134   0.832   1.498 -2.6686  1.0599 -3.0074
  195MOL0     H26266   7.126   0.852   1.723  0.5129 -0.1926 -0.3560
  195MOL0     H26267   6.954   0.888   1.686  0.6198  0.2981  0.3958
  195MOL0     H26268   6.934   0.612   1.733  0.5449 -0.6998  1.1901
  195MOL0     H26269   7.093   0.652   1.777 -0.6914 -0.3855 -0.9214
  195MOL0     H26270   7.020   0.825   1.926  0.3745 -0.9045 -0.3590
  195MOL0     H26271   6.855   0.794   1.896  0.0235 -0.0727  1.8555
  195MOL0     H26272   7.057   0.624   2.024 -1.0035 -2.5133  1.2079
  195MOL0     H26273   6.894   0.678   2.099 -1.8606 -0.3339 -0.1022
  195MOL0     H26274   6.983   0.433   1.936  0.1695 -4.3737  4.5651
  195MOL0     H26275   6.818   0.501   1.915  0.8222  1.2582 -0.3871
  195MOL0     H26276   6.665   0.478   2.180 -0.0247 -0.1136 -1.9453
  195MOL0     H26277   6.660   0.194   2.380 -1.4654  1.3534 -1.8976
  195MOL0     H26278   6.753   0.299   2.488 -3.1890 -0.9822  3.2643
  195MOL0     H26279   6.494   0.356   2.343 -0.0980 -1.8348  1.3203
  195MOL0     H26280   6.607   0.490   2.408  5.5201 -0.3572  0.4210
  195MOL0     H26281   6.437   0.450   2.564  0.9279  0.5624 -1.2093
  195MOL0     H26282   6.571   0.365   2.641 -1.4246 -0.5924  1.2793
  195MOL0     H26283   6.497   0.148   2.554  0.1776  0.2814  0.1325
  195MOL0     H26284   6.367   0.238   2.455 -1.6237 -0.1053  0.6983
  195MOL0     H26285   6.359  -0.023   2.537 -0.0831  0.9612 -0.6568
  195MOL0     H26286   6.136  -0.275   2.521 -2.8056  1.8257  2.3215
  195MOL0     H26287   6.311  -0.245   2.516 -0.1186  0.0523  0.9607
  195MOL0     H26288   6.253  -0.327   2.655  0.3653  0.8390  1.1246
  195MOL0     H26289   5.729  -0.316   2.714  1.1640  1.4350  1.3902
  195MOL0     H26290   5.584  -0.500   2.831  0.4489 -0.2959  0.6722
  195MOL0     H26291   5.812  -0.863   2.995 -0.8208 -0.7308  1.5059
  195MOL0     H26292   5.733  -0.757   3.113 -0.7349  1.2879 -0.8286
  195MOL0     H26293   5.580  -0.979   2.964 -0.8276 -1.0396  1.2582
  195MOL0     H26294   5.679  -0.979   3.121 -0.8225  1.6152  2.2959
  195MOL0     H26295   5.430  -0.815   3.065  0.2703 -1.7174 -1.9415
  195MOL0     H26296   5.510  -0.829   3.217 -2.2300  0.0821  1.2825
  195MOL0     H26297   5.353  -1.057   3.085  2.0892 -2.3503  1.0801
  195MOL0     H26298   5.456  -1.071   3.227  0.4776 -0.7552 -0.7673
  195MOL0     H26299   5.194  -1.031   3.246 -1.2593  1.1644 -0.4171
  195MOL0     H26300   5.231  -0.860   3.230  0.1756  0.2020 -0.8269
  195MOL0     H26301   5.355  -1.072   3.396  0.3881  0.2833  0.5902
  195MOL0     H26302   5.423  -0.910   3.409 -1.7675  4.4126  0.3667
  195MOL0     H26303   5.147  -1.010   3.473  0.2246  1.5072 -1.5239
  195MOL0     H26304   5.191  -0.844   3.487 -1.9548 -0.1013 -0.4666
  195MOL0     H26305   5.196  -0.976   3.710 -0.8303 -0.8842 -1.1958
  195MOL0     H26306   5.345  -0.890   3.680 -2.3131  0.9390  1.8022
  195MOL0     H26307   5.959  -0.693   2.925  1.1036  0.7984  0.2576
  195MOL0     H26308   6.085  -0.505   2.816  0.2658  2.7315 -1.4089
  195MOL0     H26309   6.024   0.038   2.897 -1.3253  0.0888 -0.9040
  195MOL0     H26310   6.166   0.224   2.826  1.8002 -1.8201  2.1218
  195MOL0     H26311   6.885   0.840   1.098  0.7441 -1.6315  0.9832
  195MOL0     H26312   6.967   1.011   0.951  0.4132  1.8782  0.1089
  195MOL0     H26313   7.359   0.953   0.554 -0.8415 -0.0977  2.2018
  195MOL0     H26314   7.505   1.084   0.407  0.4587 -3.5498  2.1735
  195MOL0     H26315   7.578   1.499   0.501  0.8411  1.0949  3.1048
  195MOL0     H26316   7.713   1.414   0.590  3.0492 -0.5400 -0.9004
  195MOL0     H26317   7.859   1.488   0.429  1.4131 -0.9849 -3.2292
  195MOL0     H26318   7.719   1.581   0.368 -0.7262 -0.3918  0.2067
  195MOL0     H26319   7.680   1.439   0.189 -1.3747 -2.1489  1.5973
  195MOL0     H26320   7.766   1.306   0.266  0.2716 -0.1970  2.8557
  195MOL0     H26321   7.860   1.571   0.145  0.0021 -0.0916  0.3019
  195MOL0     H26322   7.861   1.422   0.060  0.5247 -0.3967  0.8304
  195MOL0     H26323   8.187   1.366   0.331  0.7600  1.8722 -1.4230
  195MOL0     H26324   7.491   1.415   0.681  3.8317 -0.3264 -0.4108
  195MOL0     H26325   7.353   1.272   0.839  3.2025 -0.3126  1.0660
  196MOL0     O26326   9.268  10.381   2.806 -0.0088 -0.0075  0.3880
  196MOL0     C26327   9.274  10.260   2.837 -0.5511 -1.0691  0.4888
  196MOL0     O26328   9.184  10.198   2.921  0.0783 -0.5971  0.0625
  196MOL0     C26329   9.084  10.261   2.994  0.4857 -0.7657 -0.0064
  196MOL0     C26330   9.052  10.221   3.128 -0.4711 -0.1881 -0.2224
  196MOL0     C26331   8.944  10.269   3.190  0.0143  0.9863  0.0516
  196MOL0     C26332   8.857  10.359   3.132  0.5171 -0.3169 -0.2367
  196MOL0     O26333   8.745  10.407   3.197 -0.1339  0.4258  0.8418
  196MOL0     C26334   8.713  10.351   3.332 -0.1547 -0.2039 -0.5497
  196MOL0     C26335   8.576  10.386   3.398  0.9219 -0.2393 -1.0648
  196MOL0     C26336   8.559  10.537   3.447  0.7461 -0.5477  1.1765
  196MOL0     C26337   8.408  10.561   3.476  0.3119  0.5302  0.2758
  196MOL0     C26338   8.356  10.702   3.511 -0.2882  1.2361  0.9471
  196MOL0     C26339   8.208  10.694   3.567  0.5492 -0.1928 -0.4223
  196MOL0     C26340   8.211  10.651   3.712  0.9353  0.2465 -0.2004
  196MOL0     C26341   8.280  10.754   3.809  0.3750  0.4924 -0.3284
  196MOL0     N26342   8.242  10.702   3.952  0.2443  0.0728  0.5804
  196MOL0     C26343   8.134  10.736   4.026 -0.5919 -0.1818  0.7825
  196MOL0     C26344   8.128  10.643   4.122 -0.1810  0.0659  0.0944
  196MOL0     C26345   8.014  10.628   4.226 -0.0141  0.5256  0.1596
  196MOL0     C26346   8.047  10.722   4.349  0.4578 -0.2210 -0.6074
  196MOL0     C26347   8.061  10.873   4.303 -0.2492 -0.7336 -0.4989
  196MOL0     C26348   8.059  10.973   4.417 -0.4917  0.7427  0.0531
  196MOL0     O26349   8.134  10.923   4.533  0.4281 -1.4044  0.0398
  196MOL0     C26350   8.249  10.988   4.566  0.2476 -0.6950 -0.3918
  196MOL0     C26351   8.351  11.014   4.480 -0.9956  0.0027  0.1314
  196MOL0     C26352   8.465  11.087   4.520  0.1591 -0.1550  0.3823
  196MOL0     C26353   8.576  11.111   4.416 -0.2098  0.9303  0.5492
  196MOL0     C26354   8.479  11.126   4.653  0.1441  0.2590 -0.6848
  196MOL0     C26355   8.594  11.196   4.713  0.5155 -0.6155  0.2477
  196MOL0     O26356   8.643  11.135   4.823  0.5978 -0.1763 -0.2371
  196MOL0     C26357   8.770  11.154   4.883  0.2078 -0.1464  0.6374
  196MOL0     C26358   8.793  11.090   5.001 -0.6491 -0.8616  0.7504
  196MOL0     C26359   8.923  11.055   5.036  0.2322  0.0031  1.3661
  196MOL0     C26360   9.025  11.079   4.945  0.2527 -0.1622  0.6704
  196MOL0     O26361   9.143  11.030   4.978 -0.1146 -0.3879  0.1524
  196MOL0     C26362   9.259  11.056   4.890  0.7964  0.0107 -0.1236
  196MOL0     C26363   9.392  10.983   4.934  1.0245  0.9394  0.3372
  196MOL0     C26364   9.418  10.994   5.088 -0.3726  0.2655  0.4571
  196MOL0     C26365   9.559  10.914   5.118 -0.0383  0.2933 -0.4443
  196MOL0     C26366   9.628  10.941   5.251 -1.1444  0.9779 -0.2270
  196MOL0     C26367   9.545  10.917   5.374  0.1994 -0.1827 -0.4726
  196MOL0     C26368   9.640  10.894   5.494 -0.1929  0.3170 -0.1745
  196MOL0     C26369   9.563  10.834   5.618  0.1576  0.4226 -0.2548
  196MOL0    Cl26370   9.497  10.956   5.732  0.5822 -0.4141  0.1203
  196MOL0     C26371   9.007  11.166   4.839 -0.4312  0.7290 -1.0192
  196MOL0     C26372   8.880  11.205   4.807  0.1650 -1.5652  0.0980
  196MOL0     O26373   8.628  11.308   4.670  0.9524 -1.2491 -0.2059
  196MOL0     C26374   8.373  11.102   4.741  0.8462 -0.1860 -0.5129
  196MOL0     C26375   8.259  11.043   4.691 -0.3815  0.8228 -0.2287
  196MOL0     N26376   8.230  10.557   4.107 -0.0827  0.3629 -0.4204
  196MOL0     N26377   8.301  10.593   4.010  0.0257  0.7134 -0.4571
  196MOL0     C26378   8.878  10.402   3.003  0.4998  0.3326  0.8470
  196MOL0     C26379   8.992  10.350   2.940 -0.4863 -0.3399 -0.1025
  196MOL0     C26380   9.401  10.189   2.797  0.7596 -1.8211  0.8684
  196MOL0     C26381   9.515  10.259   2.741 -0.3714  0.5494 -0.4962
  196MOL0     C26382   9.637  10.185   2.719 -0.0909 -0.8219 -0.0974
  196MOL0     C26383   9.652  10.047   2.752  0.8636  0.7331  0.8954
  196MOL0     O26384   9.779   9.993   2.717  0.1730  0.2990  0.7940
  196MOL0     C26385   9.797   9.845   2.729 -0.1702 -0.4989  0.4836
  196MOL0     C26386   9.936   9.814   2.771  0.7362  0.4568  0.2170
  196MOL0     C26387  10.025   9.855   2.655 -1.1759  0.3904  0.1310
  196MOL0     C26388  10.169   9.834   2.684 -0.0373  0.2316  0.1118
  196MOL0     C26389  10.195   9.696   2.719 -0.1505  0.4236 -0.1349
  196MOL0     C26390  10.223   9.590   2.767  0.1781  0.2543  0.3048
  196MOL0     C26391   9.543   9.986   2.789  0.1304  0.3040  0.1746
  196MOL0     C26392   9.426  10.058   2.825  0.1486  0.0657  0.1324
  196MOL0     H26393   9.111  10.141   3.171  1.4254  0.9952 -0.5227
  196MOL0     H26394   8.914  10.234   3.288 -1.1903 -0.3867 -0.7642
  196MOL0     H26395   8.713  10.242   3.333  2.2175 -0.2514 -0.6523
  196MOL0     H26396   8.792  10.376   3.403 -0.9212 -2.0644  1.0552
  196MOL0     H26397   8.487  10.346   3.349 -3.8807  3.9530  3.0488
  196MOL0     H26398   8.571  10.334   3.494  0.8767  1.9925  0.2050
  196MOL0     H26399   8.611  10.541   3.543  0.9995  1.4088  0.9897
  196MOL0     H26400   8.591  10.618   3.382 -0.6806 -2.0434 -1.5791
  196MOL0     H26401   8.356  10.537   3.383 -3.1246  2.4894  1.5042
  196MOL0     H26402   8.377  10.491   3.554  1.9532  0.5266  0.9811
  196MOL0     H26403   8.419  10.744   3.589  0.0307 -0.5559  1.7136
  196MOL0     H26404   8.359  10.762   3.420  2.8786 -0.8954 -0.5311
  196MOL0     H26405   8.170  10.796   3.551 -1.2335 -0.8255 -0.4524
  196MOL0     H26406   8.154  10.619   3.508  1.0071 -1.3706  0.6108
  196MOL0     H26407   8.107  10.640   3.742  0.6198  0.4982 -1.1635
  196MOL0     H26408   8.259  10.553   3.719 -1.1457 -0.9383 -1.4716
  196MOL0     H26409   8.240  10.853   3.787 -0.5667 -0.2721 -2.2517
  196MOL0     H26410   8.388  10.759   3.794  0.6389  2.8875  1.7180
  196MOL0     H26411   8.060  10.814   4.009 -1.8686 -0.6750  3.6147
  196MOL0     H26412   7.913  10.651   4.191  0.9707  0.1660 -3.2546
  196MOL0     H26413   7.998  10.527   4.265  0.4119  1.5217  3.2170
  196MOL0     H26414   8.131  10.679   4.405 -0.4073 -1.0789  0.0487
  196MOL0     H26415   7.957  10.718   4.410  1.1456 -1.4812  0.3763
  196MOL0     H26416   7.988  10.898   4.225 -1.2075  1.5166  1.0246
  196MOL0     H26417   8.155  10.881   4.249 -0.1553  0.2644 -0.2001
  196MOL0     H26418   7.961  11.003   4.454  0.2415  0.0136  2.9111
  196MOL0     H26419   8.104  11.067   4.383  4.2940 -1.4803 -0.6587
  196MOL0     H26420   8.340  10.985   4.376 -1.5473 -1.0613  0.4731
  196MOL0     H26421   8.547  11.099   4.312 -1.5831 -0.0863  1.0146
  196MOL0     H26422   8.639  11.200   4.422  3.2918 -1.0808 -2.4560
  196MOL0     H26423   8.646  11.029   4.431 -1.4275  0.0156  1.4009
  196MOL0     H26424   8.705  11.055   5.054  1.5552 -2.2755  3.8104
  196MOL0     H26425   8.939  10.994   5.124 -1.3410  0.4067  1.9858
  196MOL0     H26426   9.241  11.031   4.786  0.4766 -0.6184  0.0796
  196MOL0     H26427   9.278  11.163   4.904 -2.0693  0.4741  0.8157
  196MOL0     H26428   9.364  10.879   4.914 -0.9730  1.5039 -0.1119
  196MOL0     H26429   9.474  11.017   4.871  1.5799  0.7614  0.9508
  196MOL0     H26430   9.330  10.963   5.145 -0.9707 -1.6291 -1.3747
  196MOL0     H26431   9.435  11.101   5.107  1.5721 -0.1353  1.1781
  196MOL0     H26432   9.547  10.807   5.095 -0.2366  0.2362 -0.0741
  196MOL0     H26433   9.634  10.942   5.043  0.2024  0.1000 -0.2807
  196MOL0     H26434   9.662  11.045   5.252  1.2031  0.2782 -0.4199
  196MOL0     H26435   9.715  10.874   5.260 -0.0909  2.1361 -1.3900
  196MOL0     H26436   9.485  11.006   5.393  1.6906  0.6053  0.7496
  196MOL0     H26437   9.471  10.837   5.365 -0.5981  0.4073  0.6766
  196MOL0     H26438   9.679  10.989   5.530 -0.3602  0.5985 -0.7204
  196MOL0     H26439   9.726  10.830   5.471 -1.1569 -0.4511 -1.8216
  196MOL0     H26440   9.638  10.778   5.676 -0.9225  2.9689  4.0535
  196MOL0     H26441   9.478  10.773   5.586 -0.7904  0.6976  1.5972
  196MOL0     H26442   9.090  11.201   4.779  0.5226 -0.4477 -0.4406
  196MOL0     H26443   8.864  11.268   4.720 -1.8439 -0.3388  1.2935
  196MOL0     H26444   8.376  11.124   4.848 -3.2676 -1.3542  0.0402
  196MOL0     H26445   8.179  11.037   4.763 -0.9636 -0.7949 -0.9603
  196MOL0     H26446   8.807  10.470   2.956  0.5503  0.5336  1.0608
  196MOL0     H26447   9.000  10.372   2.834 -1.1611  0.2374 -0.0402
  196MOL0     H26448   9.512  10.367   2.736  1.4687  0.7284  0.8401
  196MOL0     H26449   9.725  10.233   2.677  0.0685 -2.0373 -1.2437
  196MOL0     H26450   9.726   9.801   2.800  1.8641 -3.8716  0.6671
  196MOL0     H26451   9.767   9.814   2.629 -3.7932  0.8167  1.0223
  196MOL0     H26452   9.951   9.709   2.796 -0.3688  0.0599 -0.7046
  196MOL0     H26453   9.969   9.872   2.857 -0.3680 -0.3571  1.2192
  196MOL0     H26454  10.026   9.965   2.649  0.9554  0.6426  2.6990
  196MOL0     H26455  10.005   9.811   2.557 -2.4708 -1.8737  1.3214
  196MOL0     H26456  10.198   9.895   2.770 -1.0140  0.3016  0.4037
  196MOL0     H26457  10.233   9.859   2.600 -2.1734 -0.3966 -1.8027
  196MOL0     H26458  10.245   9.494   2.809  1.7374  1.5197  2.5755
  196MOL0     H26459   9.545   9.882   2.819  0.1780 -0.2070 -1.5157
  196MOL0     H26460   9.354   9.986   2.863 -1.4295  0.9256 -1.0963
  197MOL0     O26461   9.027  11.406   1.224 -0.2213  0.9105 -0.1371
  197MOL0     C26462   9.138  11.427   1.253 -0.3468 -0.0891 -0.1919
  197MOL0     O26463   9.234  11.450   1.165 -0.1068 -0.4488  0.0084
  197MOL0     C26464   9.222  11.426   1.030  0.2893 -0.2135  1.1272
  197MOL0     C26465   9.307  11.336   0.973 -0.0532  0.5580  0.7650
  197MOL0     C26466   9.305  11.318   0.831 -0.0745 -0.1904 -0.5140
  197MOL0     C26467   9.204  11.378   0.746  0.6043  0.2298  0.1732
  197MOL0     O26468   9.207  11.365   0.604 -0.6314  0.7970 -0.5419
  197MOL0     C26469   9.092  11.316   0.530  0.5951  0.0702  0.3003
  197MOL0     C26470   9.108  11.407   0.402 -1.1994  0.4914 -0.2681
  197MOL0     C26471   8.990  11.377   0.306  0.2301 -1.2652  0.3550
  197MOL0     C26472   9.039  11.408   0.158  0.7028 -0.5223 -0.7873
  197MOL0     C26473   8.943  11.364   0.057 -0.4363  1.0163  0.2057
  197MOL0     C26474   8.817  11.458   0.032 -0.5618  0.5562 -0.3188
  197MOL0     C26475   8.862  11.609   0.028 -0.4665  0.1017 -0.2679
  197MOL0     C26476   8.935  11.641  -0.106  0.9527  0.2222 -0.9637
  197MOL0     N26477   8.972  11.778  -0.095 -0.0117 -0.3923  0.0788
  197MOL0     C26478   8.879  11.876  -0.123 -0.0843  0.6304  0.3275
  197MOL0     C26479   8.952  11.984  -0.123  0.0116 -0.1513  0.0813
  197MOL0     C26480   8.892  12.110  -0.157  0.2382  0.0649 -0.3851
  197MOL0     C26481   8.916  12.146  -0.300 -0.7450  0.5248  0.2032
  197MOL0     C26482   8.792  12.085  -0.382  0.1541 -0.1464 -0.5923
  197MOL0     C26483   8.781  12.170  -0.501  0.0329  0.0623 -1.2223
  197MOL0     O26484   8.690  12.099  -0.587 -0.4622 -0.1375  0.4539
  197MOL0     C26485   8.576  12.158  -0.628  0.2427  0.8420 -0.2041
  197MOL0     C26486   8.514  12.279  -0.594 -0.6494 -0.5036  0.3087
  197MOL0     C26487   8.402  12.330  -0.667  0.0652 -0.4321 -0.5223
  197MOL0     C26488   8.346  12.475  -0.620  0.2345  0.1631 -0.1193
  197MOL0     C26489   8.347  12.257  -0.782  0.0313 -0.3064  0.3466
  197MOL0     C26490   8.243  12.314  -0.871  0.6952 -0.8883  0.7180
  197MOL0     O26491   8.233  12.236  -0.990 -0.6438  0.0028  0.1660
  197MOL0     C26492   8.163  12.266  -1.100  0.9497 -1.3879 -0.2539
  197MOL0     C26493   8.074  12.377  -1.123 -0.2946  0.4257  0.4701
  197MOL0     C26494   8.001  12.400  -1.239 -0.3067 -0.5965  1.2369
  197MOL0     C26495   8.019  12.316  -1.345 -0.3112  0.4877  0.1612
  197MOL0     O26496   7.954  12.350  -1.462 -0.3442 -0.2357 -0.2442
  197MOL0     C26497   8.021  12.388  -1.577 -0.2061 -0.3819 -0.5117
  197MOL0     C26498   7.975  12.312  -1.694  0.3542  0.9261 -0.0549
  197MOL0     C26499   8.037  12.353  -1.819 -0.6990  0.4061 -0.2368
  197MOL0     C26500   8.043  12.240  -1.924 -0.3791 -0.1819  0.2692
  197MOL0     C26501   8.175  12.181  -1.936 -0.1958  0.1541  0.0053
  197MOL0     C26502   8.204  12.111  -2.071  0.0057 -0.5899 -0.4027
  197MOL0     C26503   8.347  12.093  -2.096 -0.4891 -0.2040  0.5206
  197MOL0     C26504   8.378  12.058  -2.240  1.0528 -0.3775 -0.3504
  197MOL0    Cl26505   8.548  12.045  -2.281  0.5343  0.1392 -0.1762
  197MOL0     C26506   8.115  12.212  -1.331 -0.2135 -0.1466 -0.1044
  197MOL0     C26507   8.184  12.188  -1.209  0.4797  0.6338  0.2339
  197MOL0     O26508   8.183  12.421  -0.857  0.0800 -0.1014 -0.9730
  197MOL0     C26509   8.397  12.131  -0.805  0.2176 -0.6952  0.0965
  197MOL0     C26510   8.508  12.090  -0.734 -0.6560  0.0360 -0.3151
  197MOL0     N26511   9.088  11.955  -0.112  0.7638 -0.8618 -0.3372
  197MOL0     N26512   9.092  11.834  -0.068  0.0622  0.6786  0.1550
  197MOL0     C26513   9.117  11.471   0.806  1.4333 -0.4415 -0.3371
  197MOL0     C26514   9.130  11.494   0.947  0.4704  0.6845 -0.0338
  197MOL0     C26515   9.160  11.454   1.396 -0.5868 -0.4980 -0.4174
  197MOL0     C26516   9.071  11.413   1.502 -0.7025  0.0642  0.8669
  197MOL0     C26517   9.101  11.429   1.639  0.4456  0.0266 -0.6605
  197MOL0     C26518   9.216  11.496   1.681 -0.1623  0.6493 -0.1293
  197MOL0     O26519   9.233  11.523   1.815  0.1100  0.5371 -0.3435
  197MOL0     C26520   9.347  11.583   1.866 -0.8744 -0.7949  0.1007
  197MOL0     C26521   9.337  11.584   2.014 -0.1810  0.0680  0.0990
  197MOL0     C26522   9.464  11.646   2.073  0.0944  0.3982 -1.2119
  197MOL0     C26523   9.591  11.587   2.022  0.1778 -0.5652  0.1221
  197MOL0     C26524   9.702  11.641   2.099  0.3685 -0.3333  0.2077
  197MOL0     C26525   9.775  11.706   2.178  0.1707 -0.3944  0.0268
  197MOL0     C26526   9.299  11.545   1.588 -0.3306  0.3431  1.3257
  197MOL0     C26527   9.280  11.522   1.445  0.5256  0.5395  0.1293
  197MOL0     H26528   9.378  11.284   1.036  1.9460  2.3805  0.1435
  197MOL0     H26529   9.374  11.250   0.782 -1.6061 -2.5906  0.4425
  197MOL0     H26530   9.100  11.211   0.501  1.8080  0.4988 -1.0313
  197MOL0     H26531   9.003  11.329   0.592 -0.3450 -0.7658 -0.8360
  197MOL0     H26532   9.108  11.512   0.433  2.8281  0.3059  0.9230
  197MOL0     H26533   9.202  11.375   0.356 -0.3901 -1.1040  2.2685
  197MOL0     H26534   8.958  11.273   0.313  0.4251 -1.4452 -1.0191
  197MOL0     H26535   8.900  11.433   0.334 -1.3061 -3.3688 -0.1747
  197MOL0     H26536   9.059  11.515   0.155 -0.4367 -0.1467  2.0877
  197MOL0     H26537   9.127  11.345   0.147  1.2638 -0.0914  0.9980
  197MOL0     H26538   9.013  11.361  -0.027  0.3632  3.5542  0.7195
  197MOL0     H26539   8.911  11.264   0.089  1.8027 -0.3676 -1.5194
  197MOL0     H26540   8.762  11.429  -0.058 -3.0710  0.0707  1.2602
  197MOL0     H26541   8.748  11.432   0.113  2.0335 -3.3231  0.9347
  197MOL0     H26542   8.765  11.659   0.022 -0.9810 -1.0170 -2.0083
  197MOL0     H26543   8.914  11.653   0.113 -0.3022 -1.9330  0.7279
  197MOL0     H26544   8.854  11.627  -0.178 -0.1349  0.2357  0.2143
  197MOL0     H26545   9.017  11.577  -0.140 -0.1955 -1.6121 -0.4178
  197MOL0     H26546   8.772  11.873  -0.145  0.3488  1.4231 -2.3446
  197MOL0     H26547   8.787  12.120  -0.129  0.5887  0.8491  0.7054
  197MOL0     H26548   8.942  12.192  -0.105 -1.7176  1.8689 -1.1819
  197MOL0     H26549   9.009  12.105  -0.342 -0.7938  0.8477 -0.2280
  197MOL0     H26550   8.912  12.252  -0.325  0.0750  0.6439  0.5387
  197MOL0     H26551   8.694  12.102  -0.338  0.2957  0.3778 -0.4785
  197MOL0     H26552   8.798  11.978  -0.403  2.6157 -0.3923  0.9425
  197MOL0     H26553   8.882  12.175  -0.542  1.8925 -0.3046  2.8708
  197MOL0     H26554   8.746  12.270  -0.474 -1.2162 -0.8584  0.8430
  197MOL0     H26555   8.561  12.333  -0.513 -1.8222 -1.9928  2.0583
  197MOL0     H26556   8.238  12.480  -0.604  0.2468  0.3601 -0.0944
  197MOL0     H26557   8.383  12.493  -0.518 -0.0832  2.7133 -0.3866
  197MOL0     H26558   8.371  12.555  -0.690  1.1930 -0.0419 -0.0343
  197MOL0     H26559   8.068  12.453  -1.046  1.8620 -1.4500  2.6290
  197MOL0     H26560   7.939  12.488  -1.252 -1.9194 -1.2447  3.9405
  197MOL0     H26561   7.998  12.492  -1.601  0.9397  0.5384  2.0049
  197MOL0     H26562   8.130  12.382  -1.563 -0.3168  2.4296  3.0325
  197MOL0     H26563   7.998  12.206  -1.683 -3.4880  0.0832  1.2309
  197MOL0     H26564   7.867  12.325  -1.702  0.1865  1.1404  2.0702
  197MOL0     H26565   8.139  12.382  -1.794  0.6584 -2.2052 -2.2695
  197MOL0     H26566   7.968  12.429  -1.859 -2.6070 -0.3051  1.5136
  197MOL0     H26567   7.958  12.172  -1.917  0.8329 -1.9194 -1.1005
  197MOL0     H26568   8.022  12.279  -2.024  0.9338  1.0585  0.4428
  197MOL0     H26569   8.184  12.106  -1.857 -3.2623 -1.9942 -1.5002
  197MOL0     H26570   8.256  12.254  -1.924  2.3236 -2.3011 -0.9799
  197MOL0     H26571   8.157  12.012  -2.063  0.1595 -1.1951 -4.7412
  197MOL0     H26572   8.154  12.168  -2.149 -0.3213  1.8559  1.4771
  197MOL0     H26573   8.376  12.017  -2.023 -1.5424 -0.3641  0.7780
  197MOL0     H26574   8.424  12.167  -2.070  0.9851  0.0632 -3.7190
  197MOL0     H26575   8.333  12.131  -2.308  0.2767 -0.7142 -0.2171
  197MOL0     H26576   8.330  11.962  -2.261 -0.6043  0.6473 -1.5156
  197MOL0     H26577   8.147  12.153  -1.416  2.6728  1.2128 -0.0926
  197MOL0     H26578   8.271  12.123  -1.202  0.8772  1.2175  0.8329
  197MOL0     H26579   8.370  12.071  -0.892  1.2082  1.3092 -1.6851
  197MOL0     H26580   8.548  11.994  -0.766 -2.8661 -2.6218  4.0236
  197MOL0     H26581   9.044  11.523   0.745  1.7599 -0.8226 -1.0595
  197MOL0     H26582   9.068  11.571   0.992 -0.0015  0.5074 -0.3736
  197MOL0     H26583   8.972  11.375   1.481 -1.9368  2.2304  2.3855
  197MOL0     H26584   9.037  11.403   1.722 -0.7551  4.8495  0.2231
  197MOL0     H26585   9.432  11.527   1.824  0.2613  0.1751  1.0334
  197MOL0     H26586   9.360  11.687   1.836 -0.8883  0.0990  2.9604
  197MOL0     H26587   9.322  11.480   2.044 -1.0353  0.9043  2.8484
  197MOL0     H26588   9.250  11.644   2.043 -0.9287 -0.3388 -1.2142
  197MOL0     H26589   9.453  11.645   2.182  0.5950 -0.6444 -1.1652
  197MOL0     H26590   9.468  11.752   2.049 -1.1792  0.4050 -1.5021
  197MOL0     H26591   9.610  11.628   1.923 -2.1334  1.1079  0.3026
  197MOL0     H26592   9.602  11.478   2.013 -2.0616 -0.6520 -4.2387
  197MOL0     H26593   9.830  11.762   2.250  0.7994 -0.3059 -0.5074
  197MOL0     H26594   9.383  11.612   1.607  0.4674 -0.4000  0.5177
  197MOL0     H26595   9.338  11.577   1.372  1.9554  1.4973  1.9022
  198MOL0     O26596   3.525   5.669   5.939 -0.3482 -0.5763  0.0092
  198MOL0     C26597   3.568   5.734   5.843 -0.3185  1.2954 -0.8411
  198MOL0     O26598   3.505   5.811   5.764  0.2762 -0.7261 -0.3997
  198MOL0     C26599   3.363   5.830   5.773  1.1553  1.6153  0.6267
  198MOL0     C26600   3.307   5.956   5.759  0.3589  0.2832 -0.3365
  198MOL0     C26601   3.173   5.967   5.771  0.3007  0.1858  0.7461
  198MOL0     C26602   3.085   5.862   5.771 -0.0991 -0.5109  0.0504
  198MOL0     O26603   2.952   5.875   5.781  1.0973 -0.4696 -0.0221
  198MOL0     C26604   2.898   5.984   5.853  0.5890 -0.2521  0.3717
  198MOL0     C26605   2.746   5.954   5.857 -0.7868 -0.6683  0.8206
  198MOL0     C26606   2.664   6.061   5.936  0.8898  0.1745 -0.3260
  198MOL0     C26607   2.510   6.064   5.915  0.6825  0.2379  0.4478
  198MOL0     C26608   2.439   5.940   5.979 -0.2651  0.3299  0.1635
  198MOL0     C26609   2.407   5.964   6.137  0.8835  0.9926 -0.0916
  198MOL0     C26610   2.404   5.822   6.206 -0.1997 -0.1564  0.0860
  198MOL0     C26611   2.387   5.847   6.353 -1.0410  0.4140 -0.0023
  198MOL0     N26612   2.479   5.747   6.414 -0.7343  0.1323  0.4794
  198MOL0     C26613   2.611   5.759   6.457  0.5838 -1.0016  0.1014
  198MOL0     C26614   2.642   5.648   6.529 -0.1807 -0.4675  1.1220
  198MOL0     C26615   2.773   5.621   6.599  0.1027 -0.0604  0.1890
  198MOL0     C26616   2.891   5.593   6.512  0.1146  0.0236 -0.4324
  198MOL0     C26617   3.016   5.551   6.585  0.3765  0.1505 -0.1550
  198MOL0     C26618   3.148   5.505   6.514 -0.8547  0.0466  0.8124
  198MOL0     O26619   3.260   5.513   6.598  0.4186 -0.1117  0.0697
  198MOL0     C26620   3.392   5.493   6.553 -0.2146 -0.2585  0.4800
  198MOL0     C26621   3.431   5.525   6.421  0.4873 -0.3723 -0.5447
  198MOL0     C26622   3.563   5.512   6.382 -0.5006 -0.0359 -0.6084
  198MOL0     C26623   3.594   5.568   6.244 -0.4107  0.2067 -0.3092
  198MOL0     C26624   3.667   5.461   6.472  1.0662 -0.2515 -0.4465
  198MOL0     C26625   3.811   5.444   6.443 -0.2256  0.6529  0.0506
  198MOL0     O26626   3.889   5.426   6.555  0.5549 -0.0266  0.1579
  198MOL0     C26627   4.006   5.366   6.544 -0.2570  0.7767  0.2438
  198MOL0     C26628   4.029   5.252   6.467 -0.5542  0.3366  0.6118
  198MOL0     C26629   4.156   5.192   6.468 -0.7607 -0.3389 -0.0517
  198MOL0     C26630   4.250   5.213   6.568  0.1633 -0.4331  0.8016
  198MOL0     O26631   4.371   5.147   6.600  0.3724 -0.5158  0.4446
  198MOL0     C26632   4.454   5.096   6.486 -0.4059 -0.4943  0.3302
  198MOL0     C26633   4.463   5.200   6.365 -0.3399 -0.2304 -1.1001
  198MOL0     C26634   4.576   5.164   6.265  0.7302 -0.5928  0.4569
  198MOL0     C26635   4.710   5.189   6.328 -0.3087 -0.2206 -0.4990
  198MOL0     C26636   4.838   5.154   6.251 -0.3334  0.4198  0.6553
  198MOL0     C26637   4.875   5.247   6.133  0.1098  0.7814  0.9816
  198MOL0     C26638   5.013   5.204   6.087 -0.1433  0.2232  0.1010
  198MOL0     C26639   5.057   5.276   5.948 -0.5087  0.8018 -0.6840
  198MOL0    Cl26640   5.091   5.151   5.815  0.1449 -0.6964 -0.2262
  198MOL0     C26641   4.214   5.317   6.656 -0.9382 -0.0816 -0.0302
  198MOL0     C26642   4.103   5.395   6.641  0.4739 -0.2168  0.2870
  198MOL0     O26643   3.851   5.461   6.331 -0.0784 -0.1728 -0.3412
  198MOL0     C26644   3.628   5.434   6.613  0.6668  1.1105 -0.2570
  198MOL0     C26645   3.489   5.457   6.645 -0.6280 -0.2690 -0.0502
  198MOL0     N26646   2.522   5.571   6.529 -0.4370 -0.6011 -0.5715
  198MOL0     N26647   2.428   5.635   6.466 -0.2583  0.1793 -0.2665
  198MOL0     C26648   3.133   5.736   5.760 -0.6787  0.6654  0.6494
  198MOL0     C26649   3.274   5.721   5.759  0.7734 -0.5581  0.2256
  198MOL0     C26650   3.710   5.704   5.812 -0.6312 -0.4317  0.7708
  198MOL0     C26651   3.773   5.723   5.680  0.6986  0.7329 -0.5275
  198MOL0     C26652   3.908   5.692   5.661 -0.6835  0.3708  0.4804
  198MOL0     C26653   3.981   5.644   5.762 -0.5515 -0.9747 -0.0165
  198MOL0     O26654   4.114   5.615   5.733 -0.1777 -0.4930 -0.2745
  198MOL0     C26655   4.135   5.473   5.709  0.2620 -0.7164  0.0091
  198MOL0     C26656   4.063   5.419   5.585 -0.0096 -0.4705  0.2880
  198MOL0     C26657   4.067   5.264   5.583  0.5164 -0.8588 -1.0672
  198MOL0     C26658   4.199   5.199   5.529  0.1880 -0.1701  0.2680
  198MOL0     C26659   4.226   5.250   5.395  0.1450 -0.4954  0.2193
  198MOL0     C26660   4.265   5.288   5.283 -0.1142 -0.2638  0.3149
  198MOL0     C26661   3.933   5.639   5.897 -0.1866 -0.4691  0.7393
  198MOL0     C26662   3.797   5.675   5.913  0.3375 -0.1962 -0.2497
  198MOL0     H26663   3.372   6.041   5.745 -0.0968  0.4797 -1.3328
  198MOL0     H26664   3.131   6.067   5.773 -0.2462 -0.0099 -0.3975
  198MOL0     H26665   2.945   6.007   5.949  0.6631 -0.8162  0.4722
  198MOL0     H26666   2.904   6.076   5.794  1.1584  0.6918  1.8705
  198MOL0     H26667   2.704   5.956   5.756 -0.5761 -0.1742  0.7452
  198MOL0     H26668   2.722   5.856   5.901 -0.0660 -0.9182  0.6700
  198MOL0     H26669   2.675   6.068   6.045 -3.6868  2.0151  0.2205
  198MOL0     H26670   2.715   6.154   5.911  2.9788  0.4540  3.9243
  198MOL0     H26671   2.467   6.159   5.948 -1.6842  0.2075 -2.2123
  198MOL0     H26672   2.503   6.065   5.806  1.3318  1.1575  0.4089
  198MOL0     H26673   2.345   5.904   5.937 -0.3348  0.4860  0.1810
  198MOL0     H26674   2.506   5.854   5.969 -2.1185 -0.9506 -2.2475
  198MOL0     H26675   2.479   6.027   6.190 -0.9546  1.5883  1.8478
  198MOL0     H26676   2.313   6.020   6.137 -0.3823 -0.8509 -3.3597
  198MOL0     H26677   2.329   5.754   6.164 -3.1610  1.9739  1.5597
  198MOL0     H26678   2.501   5.778   6.184  0.1049  0.3893  0.3162
  198MOL0     H26679   2.285   5.823   6.385 -1.2790 -1.2372 -1.8639
  198MOL0     H26680   2.389   5.949   6.394 -1.6841  0.1968  0.6019
  198MOL0     H26681   2.678   5.842   6.440 -0.2334 -0.3820 -0.1825
  198MOL0     H26682   2.783   5.708   6.665 -0.6543  2.4587 -2.7935
  198MOL0     H26683   2.754   5.530   6.657  1.7105 -1.8219 -1.9051
  198MOL0     H26684   2.917   5.682   6.453  0.2361 -1.2116 -2.3332
  198MOL0     H26685   2.868   5.506   6.450 -0.1496 -1.6448  1.8938
  198MOL0     H26686   2.992   5.491   6.674 -1.2646  0.2553 -0.5113
  198MOL0     H26687   3.049   5.641   6.637  2.1745 -1.4137  1.5914
  198MOL0     H26688   3.168   5.575   6.433  0.7704  1.7741  2.5924
  198MOL0     H26689   3.137   5.402   6.478 -0.7678  0.7421 -1.3652
  198MOL0     H26690   3.359   5.549   6.343  0.9708 -1.0942 -1.2211
  198MOL0     H26691   3.646   5.664   6.253  2.9219 -1.4022 -0.5373
  198MOL0     H26692   3.655   5.505   6.178 -2.4321  0.0724 -2.1258
  198MOL0     H26693   3.502   5.588   6.189  0.1514  3.9555 -0.1481
  198MOL0     H26694   3.944   5.214   6.412  0.3747  0.7195 -1.1525
  198MOL0     H26695   4.183   5.114   6.398 -2.6378  1.6143 -3.1663
  198MOL0     H26696   4.548   5.071   6.536 -1.4432  0.4609  2.9617
  198MOL0     H26697   4.413   5.005   6.442  1.8167 -1.6891  0.5852
  198MOL0     H26698   4.361   5.197   6.325 -1.2886 -1.1696  1.2153
  198MOL0     H26699   4.483   5.296   6.414  2.6765 -2.0897  1.6589
  198MOL0     H26700   4.564   5.236   6.184 -2.2248 -0.2503  1.0934
  198MOL0     H26701   4.575   5.061   6.226 -0.1102 -0.4789  0.1384
  198MOL0     H26702   4.722   5.293   6.359  0.2331 -0.0679 -1.1913
  198MOL0     H26703   4.712   5.136   6.424  2.7322  2.1276  0.9258
  198MOL0     H26704   4.837   5.052   6.211 -1.8859  1.2278 -1.5400
  198MOL0     H26705   4.920   5.161   6.323 -0.5057  0.5444  0.8380
  198MOL0     H26706   4.808   5.252   6.047  2.1781  1.0852 -0.7114
  198MOL0     H26707   4.877   5.352   6.165  1.1072  1.1880 -0.3344
  198MOL0     H26708   5.010   5.096   6.070 -2.5549  0.4036 -1.0534
  198MOL0     H26709   5.079   5.208   6.174 -0.0115 -2.8704  0.2543
  198MOL0     H26710   5.151   5.322   5.980 -1.6892  0.9365  3.1021
  198MOL0     H26711   4.982   5.351   5.921 -0.5101  1.3246  0.6539
  198MOL0     H26712   4.295   5.358   6.715  0.3761  0.4537 -2.0811
  198MOL0     H26713   4.081   5.485   6.699  1.0583 -0.1065  0.3428
  198MOL0     H26714   3.690   5.399   6.694  0.0447 -2.1658 -1.0361
  198MOL0     H26715   3.455   5.437   6.746  0.7807 -1.6633  0.1880
  198MOL0     H26716   3.064   5.654   5.773  1.7252 -1.7345 -0.6494
  198MOL0     H26717   3.312   5.619   5.756 -1.9254 -1.7093  1.5598
  198MOL0     H26718   3.733   5.759   5.586 -0.6432 -2.4287 -1.2812
  198MOL0     H26719   3.962   5.724   5.572  0.4852  0.2211  1.1193
  198MOL0     H26720   4.242   5.450   5.700  0.0901 -1.0113 -1.3904
  198MOL0     H26721   4.097   5.428   5.801 -4.6151 -0.2103 -1.4582
  198MOL0     H26722   4.105   5.470   5.498 -1.7052  1.7674  0.6979
  198MOL0     H26723   3.959   5.450   5.591  0.9984  3.0932  1.8187
  198MOL0     H26724   3.982   5.235   5.521 -0.0913 -0.7750 -0.2892
  198MOL0     H26725   4.039   5.222   5.680  0.8480 -2.6045 -1.7094
  198MOL0     H26726   4.183   5.090   5.526 -0.3219 -0.0912 -0.0376
  198MOL0     H26727   4.276   5.232   5.599 -3.0406  1.6116  3.2756
  198MOL0     H26728   4.296   5.330   5.189  4.0247 -5.0082 -0.8132
  198MOL0     H26729   3.999   5.614   5.979 -1.0845 -1.9927  1.0457
  198MOL0     H26730   3.757   5.692   6.013  0.3939 -0.3084 -0.2076
  199MOL0     O26731  10.650  10.885   4.028  0.2854  0.1830  0.5455
  199MOL0     C26732  10.753  10.822   4.005 -0.0908 -0.0023 -0.7721
  199MOL0     O26733  10.793  10.776   3.883 -0.2482  0.1158  0.3329
  199MOL0     C26734  10.716  10.748   3.770  0.9892 -0.1480 -0.5839
  199MOL0     C26735  10.605  10.823   3.735  0.6718 -0.1015 -0.4046
  199MOL0     C26736  10.528  10.795   3.624  0.3075  0.1593 -0.2122
  199MOL0     C26737  10.570  10.688   3.540  0.0762  0.3928 -0.5114
  199MOL0     O26738  10.506  10.655   3.427 -0.7900 -0.6848  1.5236
  199MOL0     C26739  10.386  10.575   3.440  0.4174  0.1276  0.2758
  199MOL0     C26740  10.283  10.650   3.359  0.3524 -0.5001  0.3292
  199MOL0     C26741  10.304  10.637   3.209 -0.0019  1.4315 -0.2676
  199MOL0     C26742  10.204  10.734   3.150 -0.4939  1.4386  0.4022
  199MOL0     C26743  10.208  10.723   2.994  0.4493 -0.1144 -0.1015
  199MOL0     C26744  10.101  10.820   2.929 -0.1034  0.0217 -0.0738
  199MOL0     C26745  10.106  10.811   2.779  0.7783 -0.3779  0.2000
  199MOL0     C26746  10.020  10.915   2.713 -0.0297 -1.0446 -0.0145
  199MOL0     N26747  10.031  10.928   2.565  0.4775  0.6043 -0.6238
  199MOL0     C26748   9.950  10.855   2.481 -0.6692  1.3786 -0.1741
  199MOL0     C26749  10.002  10.878   2.353 -0.4123  0.0958 -0.4823
  199MOL0     C26750   9.956  10.810   2.230  0.2314 -0.0447  0.3129
  199MOL0     C26751  10.027  10.672   2.207  0.0012  0.6980 -0.4874
  199MOL0     C26752  10.060  10.579   2.318 -1.2491  0.4116 -0.5776
  199MOL0     C26753  10.176  10.484   2.308 -0.6458 -0.0092 -0.5518
  199MOL0     O26754  10.174  10.406   2.426 -0.6051  0.1521  0.0618
  199MOL0     C26755  10.258  10.453   2.527  0.7507  0.1698  0.1981
  199MOL0     C26756  10.281  10.354   2.623  0.5887 -0.7264  0.2195
  199MOL0     C26757  10.373  10.385   2.725  0.0960  0.0354  1.5086
  199MOL0     C26758  10.392  10.265   2.809  0.3393  0.1005  0.5167
  199MOL0     C26759  10.423  10.516   2.737  0.0024 -0.6851 -0.4740
  199MOL0     C26760  10.527  10.558   2.850  0.1660  0.2101  0.4496
  199MOL0     O26761  10.608  10.673   2.828 -0.3140 -0.0418  0.0653
  199MOL0     C26762  10.721  10.704   2.905  0.0937  0.4222  0.0552
  199MOL0     C26763  10.731  10.689   3.047 -0.5895 -0.3979 -0.5041
  199MOL0     C26764  10.846  10.732   3.114 -0.1267  0.7085 -0.7940
  199MOL0     C26765  10.942  10.797   3.053 -0.0516 -0.3567  0.2165
  199MOL0     O26766  11.060  10.845   3.128 -0.1402  0.7742  0.7624
  199MOL0     C26767  11.196  10.828   3.078 -1.1971 -0.1766 -0.8053
  199MOL0     C26768  11.282  10.814   3.200  0.1049  0.7954  0.5712
  199MOL0     C26769  11.436  10.831   3.169  1.0709  0.9110  0.7704
  199MOL0     C26770  11.487  10.967   3.181 -0.0382 -0.1760  0.0630
  199MOL0     C26771  11.511  11.024   3.321  0.0246  1.0704  0.4523
  199MOL0     C26772  11.595  11.154   3.291 -0.6161  0.5001  0.5098
  199MOL0     C26773  11.636  11.226   3.413  0.2367  0.0517  0.0990
  199MOL0     C26774  11.723  11.339   3.385 -0.5258 -0.0305  0.2752
  199MOL0    Cl26775  11.770  11.413   3.547  0.0865 -0.1572 -0.0572
  199MOL0     C26776  10.925  10.836   2.919 -0.7105 -0.8273 -0.0255
  199MOL0     C26777  10.816  10.782   2.841 -0.1526  0.8632 -0.2426
  199MOL0     O26778  10.548  10.483   2.944 -1.4032  0.0860  0.9618
  199MOL0     C26779  10.400  10.611   2.638 -0.9133 -0.2096 -0.4006
  199MOL0     C26780  10.319  10.581   2.532  0.7859  0.4482 -0.4392
  199MOL0     N26781  10.102  10.979   2.364 -1.1306  0.9238  0.1705
  199MOL0     N26782  10.126  10.996   2.490  0.3307  0.2951  0.4837
  199MOL0     C26783  10.690  10.618   3.574 -0.1080 -0.1011 -0.9971
  199MOL0     C26784  10.758  10.641   3.689 -0.4566 -0.4688 -0.3026
  199MOL0     C26785  10.860  10.814   4.107 -0.4476  0.4523  0.2110
  199MOL0     C26786  10.947  10.703   4.117  0.7415  0.0048 -0.3701
  199MOL0     C26787  11.033  10.689   4.219 -0.3715 -1.0696  0.4971
  199MOL0     C26788  11.059  10.793   4.311 -0.8917 -0.3438  0.4316
  199MOL0     O26789  11.152  10.758   4.409 -0.1476 -0.3656  0.0621
  199MOL0     C26790  11.207  10.857   4.502  0.1363 -0.2172  0.0622
  199MOL0     C26791  11.336  10.905   4.437 -1.2006 -1.1071  1.3449
  199MOL0     C26792  11.416  11.002   4.532  0.5979 -0.1001 -0.2047
  199MOL0     C26793  11.348  11.135   4.552  0.0163  0.6051 -0.0279
  199MOL0     C26794  11.379  11.182   4.676 -0.4763  0.1934  0.3113
  199MOL0     C26795  11.400  11.244   4.782 -0.1382 -0.3938 -0.7186
  199MOL0     C26796  10.987  10.909   4.296  0.5094 -0.6701 -0.4351
  199MOL0     C26797  10.894  10.922   4.198  1.3698  0.1129  0.0024
  199MOL0     H26798  10.565  10.909   3.787  0.7659 -0.9046  1.0512
  199MOL0     H26799  10.437  10.853   3.610  0.6274  0.8793  0.6221
  199MOL0     H26800  10.407  10.474   3.403 -1.1836  0.0490 -0.5204
  199MOL0     H26801  10.356  10.578   3.545  2.4221 -0.3884  0.9091
  199MOL0     H26802  10.182  10.615   3.383 -0.4942 -1.4077 -3.8502
  199MOL0     H26803  10.290  10.755   3.389  0.8931 -1.3336  3.5697
  199MOL0     H26804  10.405  10.664   3.175  0.0670 -1.2496 -2.5758
  199MOL0     H26805  10.279  10.534   3.182 -3.9187  1.2944  2.9910
  199MOL0     H26806  10.105  10.707   3.186 -0.4822 -0.2483 -0.7216
  199MOL0     H26807  10.225  10.837   3.182  1.2373  1.2333  0.0492
  199MOL0     H26808  10.312  10.744   2.970  1.4312 -1.7466  2.3297
  199MOL0     H26809  10.187  10.620   2.962 -0.7773  0.0716  0.0533
  199MOL0     H26810  10.001  10.784   2.954  0.8562 -2.8219 -0.0120
  199MOL0     H26811  10.129  10.917   2.972 -0.8540  0.3331 -0.2780
  199MOL0     H26812  10.204  10.849   2.749  0.8728  0.0274  0.9949
  199MOL0     H26813  10.092  10.708   2.744 -0.0047  0.0436 -0.7824
  199MOL0     H26814  10.051  11.013   2.750 -4.0526  0.2609  0.3789
  199MOL0     H26815   9.914  10.896   2.731 -0.4848 -0.2786 -1.7023
  199MOL0     H26816   9.874  10.787   2.518  1.7050 -1.3122  0.1060
  199MOL0     H26817   9.850  10.792   2.252  0.1398 -0.1312 -0.1828
  199MOL0     H26818   9.971  10.880   2.147 -1.0805  0.8369  0.7834
  199MOL0     H26819  10.118  10.679   2.146  0.8877 -0.4671  0.6685
  199MOL0     H26820   9.954  10.620   2.144 -0.8530  0.2528  0.8260
  199MOL0     H26821   9.968  10.519   2.326 -0.9383  0.0924  0.7511
  199MOL0     H26822  10.067  10.628   2.415 -3.2500 -1.6009  0.6817
  199MOL0     H26823  10.273  10.531   2.288 -0.1645  0.8013  3.0130
  199MOL0     H26824  10.153  10.428   2.217  0.6993 -1.0488 -0.2893
  199MOL0     H26825  10.238  10.255   2.616  5.5077 -3.5419  3.7162
  199MOL0     H26826  10.295  10.218   2.829  0.2712 -0.3005 -0.6773
  199MOL0     H26827  10.460  10.193   2.761 -1.4482 -3.0553  2.3459
  199MOL0     H26828  10.435  10.290   2.906 -0.0440 -0.9659  0.9811
  199MOL0     H26829  10.664  10.633   3.112  0.6469  0.7775  1.9035
  199MOL0     H26830  10.861  10.700   3.217 -0.3212 -0.2997 -1.0773
  199MOL0     H26831  11.207  10.752   3.000 -0.0274 -0.5228 -0.3307
  199MOL0     H26832  11.232  10.922   3.035 -0.8961  2.2201  3.9951
  199MOL0     H26833  11.259  10.884   3.281  2.1480  0.0578  1.8339
  199MOL0     H26834  11.269  10.713   3.238  2.6386 -0.2122 -0.9818
  199MOL0     H26835  11.450  10.823   3.061 -3.1037 -3.0916  0.2203
  199MOL0     H26836  11.493  10.759   3.229  1.1372 -0.9082 -1.3320
  199MOL0     H26837  11.578  10.963   3.120 -1.0077  1.2116 -1.5676
  199MOL0     H26838  11.419  11.035   3.130 -0.1627 -0.1000  0.3269
  199MOL0     H26839  11.579  10.956   3.373 -1.2221 -0.6328 -0.0781
  199MOL0     H26840  11.413  11.045   3.365 -0.2514  1.1703 -0.2018
  199MOL0     H26841  11.682  11.139   3.226 -0.9508 -0.1169  0.1996
  199MOL0     H26842  11.527  11.218   3.233 -1.1981  0.9114  1.6122
  199MOL0     H26843  11.680  11.155   3.484  2.1115  2.3033  1.3158
  199MOL0     H26844  11.548  11.274   3.456 -0.4225 -0.4111 -0.7131
  199MOL0     H26845  11.667  11.412   3.326 -2.4273 -0.2876  1.6932
  199MOL0     H26846  11.820  11.314   3.341 -1.5487 -2.4710 -0.7354
  199MOL0     H26847  11.008  10.881   2.866 -0.3776 -1.8708 -0.4214
  199MOL0     H26848  10.808  10.791   2.734 -1.7263  0.7116 -0.1610
  199MOL0     H26849  10.432  10.713   2.658  1.2427 -1.2576  2.0340
  199MOL0     H26850  10.294  10.646   2.450 -1.9321 -1.7998 -1.5327
  199MOL0     H26851  10.701  10.526   3.517  0.0396  0.0404 -1.1959
  199MOL0     H26852  10.851  10.598   3.725  2.6967  3.4945 -2.9121
  199MOL0     H26853  10.943  10.613   4.055  1.5651  0.7272 -1.5254
  199MOL0     H26854  11.091  10.597   4.217 -0.9504 -1.4301 -1.0813
  199MOL0     H26855  11.130  10.931   4.525 -2.2109 -2.6205  0.3598
  199MOL0     H26856  11.230  10.798   4.591  1.4944 -1.3861 -1.0185
  199MOL0     H26857  11.311  10.971   4.353 -0.1305 -0.0694  1.8115
  199MOL0     H26858  11.396  10.823   4.397 -0.1346  1.5344 -3.2754
  199MOL0     H26859  11.509  11.033   4.485  0.3219 -0.1073 -0.7659
  199MOL0     H26860  11.445  10.963   4.630  0.4520  0.5568  0.1019
  199MOL0     H26861  11.242  11.109   4.551  0.1663 -0.1391  1.4351
  199MOL0     H26862  11.388  11.209   4.481  0.7954 -0.1198 -0.3581
  199MOL0     H26863  11.400  11.295   4.876 -2.4932 -1.6996  0.0835
  199MOL0     H26864  11.010  10.984   4.371 -1.0985  0.5194 -1.0765
  199MOL0     H26865  10.841  11.016   4.185 -0.7825 -0.9520  0.6235
  200MOL0     O26866   5.040   9.627   9.318  0.1541  0.0082 -0.2599
  200MOL0     C26867   5.134   9.703   9.302 -0.0792 -0.1344  0.5348
  200MOL0     O26868   5.129   9.833   9.256 -0.4075  0.6957 -0.4443
  200MOL0     C26869   5.022   9.896   9.204  0.9833 -0.4484  0.7301
  200MOL0     C26870   4.937   9.822   9.121 -0.6129  0.1792 -0.0637
  200MOL0     C26871   4.829   9.892   9.061 -0.7268  0.8337  0.0334
  200MOL0     C26872   4.809  10.029   9.077  0.4526 -0.0149  0.9497
  200MOL0     O26873   4.707  10.094   9.002 -0.7162  0.4277 -0.1296
  200MOL0     C26874   4.740  10.142   8.875  0.3061 -0.8994  0.4672
  200MOL0     C26875   4.630  10.239   8.828 -0.2080 -0.7960  0.5585
  200MOL0     C26876   4.503  10.160   8.809 -0.5827  0.2812 -0.9585
  200MOL0     C26877   4.392  10.247   8.740 -0.2298  0.8271 -0.3433
  200MOL0     C26878   4.262  10.167   8.720  0.2352 -0.2032  0.7062
  200MOL0     C26879   4.157  10.240   8.637  0.1220 -0.6379 -0.1424
  200MOL0     C26880   4.101  10.368   8.710 -0.4159  0.1621  0.1347
  200MOL0     C26881   4.019  10.449   8.611  0.4435 -0.3226 -0.3129
  200MOL0     N26882   3.956  10.573   8.670 -0.0094 -0.2839  0.6463
  200MOL0     C26883   3.844  10.590   8.750  0.3851  0.3629  0.8397
  200MOL0     C26884   3.834  10.725   8.762 -0.5924  0.3472 -0.4349
  200MOL0     C26885   3.718  10.795   8.841 -0.2562 -0.5962 -0.3675
  200MOL0     C26886   3.756  10.819   8.987  0.5290  0.6350 -0.2845
  200MOL0     C26887   3.643  10.896   9.054  0.3789 -0.0626 -0.4763
  200MOL0     C26888   3.703  10.959   9.175 -0.2410  0.7533  0.0715
  200MOL0     O26889   3.605  11.015   9.262  0.7859 -0.5780 -0.5712
  200MOL0     C26890   3.649  11.085   9.373 -0.1800  0.5720  0.3273
  200MOL0     C26891   3.544  11.118   9.459 -0.4804 -0.3894 -0.5662
  200MOL0     C26892   3.556  11.202   9.567 -1.4055  0.2639  0.3818
  200MOL0     C26893   3.425  11.264   9.607 -0.6485  0.4350 -0.0421
  200MOL0     C26894   3.683  11.252   9.597 -0.6059  0.4629 -0.2170
  200MOL0     C26895   3.718  11.344   9.714  0.1038  0.1605  1.4224
  200MOL0     O26896   3.602  11.377   9.788  0.0741 -0.8456  0.1104
  200MOL0     C26897   3.608  11.465   9.899 -0.3197  0.0473 -0.2084
  200MOL0     C26898   3.722  11.499   9.974  0.8624  0.8211  0.8326
  200MOL0     C26899   3.706  11.596  10.083  0.4381 -0.2277  0.9948
  200MOL0     C26900   3.577  11.643  10.123 -0.4146  0.0972  0.1886
  200MOL0     O26901   3.541  11.729  10.226 -0.2114 -0.2646  0.0293
  200MOL0     C26902   3.635  11.804  10.303 -0.0851  1.2860 -0.1899
  200MOL0     C26903   3.714  11.898  10.212  0.5941 -1.0560  0.9679
  200MOL0     C26904   3.638  11.988  10.118  0.8487 -0.5276  0.4242
  200MOL0     C26905   3.721  12.108  10.060  0.2575 -0.3198 -0.4178
  200MOL0     C26906   3.650  12.198   9.957  0.0160 -0.7703 -0.2605
  200MOL0     C26907   3.739  12.283   9.866 -0.5869 -0.8710  0.5517
  200MOL0     C26908   3.831  12.370   9.948 -1.4796 -0.5540 -0.7490
  200MOL0     C26909   3.908  12.468   9.859 -0.1514  0.5243  0.2292
  200MOL0    Cl26910   4.046  12.394   9.785  0.0621  0.3818  0.1538
  200MOL0     C26911   3.470  11.605  10.044  0.1159 -0.1350  0.2000
  200MOL0     C26912   3.484  11.524   9.928 -0.2243 -0.6675  0.2799
  200MOL0     O26913   3.831  11.375   9.739 -0.7755 -0.0974  1.1185
  200MOL0     C26914   3.795  11.212   9.516 -0.3321  0.0700 -0.2811
  200MOL0     C26915   3.774  11.129   9.404  0.5251  0.3888 -0.3395
  200MOL0     N26916   3.939  10.788   8.704 -0.0462 -0.5600 -0.3276
  200MOL0     N26917   4.014  10.698   8.644  0.1372  0.4063  0.8375
  200MOL0     C26918   4.894  10.098   9.163  0.1628 -0.2565  0.5044
  200MOL0     C26919   4.998  10.030   9.223 -0.1577 -0.8820 -0.5657
  200MOL0     C26920   5.270   9.657   9.330  0.5445 -0.0195  0.8673
  200MOL0     C26921   5.292   9.531   9.389  0.2449  1.0323 -0.7423
  200MOL0     C26922   5.415   9.482   9.422 -0.2379 -0.8225  0.5301
  200MOL0     C26923   5.532   9.553   9.381  0.4860  0.0635 -0.5235
  200MOL0     O26924   5.659   9.505   9.392  0.0286  0.4149 -0.6830
  200MOL0     C26925   5.729   9.486   9.272  0.1194 -0.5398  0.5789
  200MOL0     C26926   5.820   9.369   9.290  0.1749  0.1704  0.0426
  200MOL0     C26927   5.936   9.396   9.397  0.2310  0.1364  0.0747
  200MOL0     C26928   6.015   9.267   9.418  0.1337 -0.0135  0.4962
  200MOL0     C26929   6.163   9.280   9.382  0.0064 -0.9928 -0.0191
  200MOL0     C26930   6.280   9.287   9.334  0.0211 -0.3312 -0.1099
  200MOL0     C26931   5.517   9.675   9.303  0.0482 -0.2217  1.0129
  200MOL0     C26932   5.389   9.727   9.282 -0.3764 -0.9263  0.2193
  200MOL0     H26933   4.952   9.716   9.103  0.9555  0.3452  0.1491
  200MOL0     H26934   4.761   9.841   8.994 -0.0443 -0.7969  0.5217
  200MOL0     H26935   4.820  10.217   8.883 -0.2659 -0.1691 -0.4808
  200MOL0     H26936   4.757  10.059   8.806 -1.0788 -1.6907  1.0538
  200MOL0     H26937   4.620  10.319   8.901  2.1947  0.9339 -0.8634
  200MOL0     H26938   4.666  10.294   8.740  2.1654 -3.2557 -0.1638
  200MOL0     H26939   4.525  10.074   8.745  1.5502  0.3721 -0.4208
  200MOL0     H26940   4.481  10.115   8.907 -1.4471  1.0609 -0.7810
  200MOL0     H26941   4.380  10.337   8.802 -1.3164  0.5957 -0.2061
  200MOL0     H26942   4.426  10.281   8.642  0.6204 -2.2406 -1.2011
  200MOL0     H26943   4.287  10.079   8.660  1.5818 -0.3870  1.4864
  200MOL0     H26944   4.225  10.148   8.821 -1.2617 -0.2768  0.1705
  200MOL0     H26945   4.194  10.277   8.541 -1.5923  1.1688 -0.1656
  200MOL0     H26946   4.073  10.170   8.634 -0.1881 -0.2608 -0.4019
  200MOL0     H26947   4.040  10.337   8.795 -0.1928 -1.3077 -0.2118
  200MOL0     H26948   4.181  10.435   8.742 -0.2078  0.4801 -0.9873
  200MOL0     H26949   3.948  10.386   8.555  1.9514 -3.5677  1.1626
  200MOL0     H26950   4.097  10.471   8.538 -1.8251  1.0269 -2.4913
  200MOL0     H26951   3.792  10.508   8.798  0.0198 -0.3184 -0.6578
  200MOL0     H26952   3.688  10.891   8.798  2.6227  0.9973  0.9335
  200MOL0     H26953   3.621  10.743   8.842 -0.2475 -0.6475  1.1562
  200MOL0     H26954   3.852  10.869   9.000 -0.9887  3.2476  2.6391
  200MOL0     H26955   3.765  10.725   9.042 -0.8763  1.4040  1.3971
  200MOL0     H26956   3.564  10.830   9.091  0.0998  0.3769 -0.2899
  200MOL0     H26957   3.600  10.975   8.993 -1.4815  1.5080  2.6421
  200MOL0     H26958   3.751  11.049   9.136  0.4383  0.8139  1.0142
  200MOL0     H26959   3.777  10.895   9.223 -0.7656 -0.0934 -0.2312
  200MOL0     H26960   3.443  11.090   9.430 -0.0726 -1.4267 -1.0416
  200MOL0     H26961   3.425  11.372   9.586 -0.2845  0.5040  0.3194
  200MOL0     H26962   3.343  11.217   9.552  0.3230 -3.2788  1.4314
  200MOL0     H26963   3.408  11.239   9.712 -2.5532  0.9990 -0.1638
  200MOL0     H26964   3.818  11.450   9.964 -0.8890 -3.0863  1.1077
  200MOL0     H26965   3.794  11.622  10.140  0.6196 -0.8937  1.0325
  200MOL0     H26966   3.591  11.867  10.381  0.9402  1.2130  0.4606
  200MOL0     H26967   3.705  11.736  10.351 -1.5439  0.1030  0.3601
  200MOL0     H26968   3.775  11.960  10.278  3.9275 -1.8258 -1.1644
  200MOL0     H26969   3.787  11.851  10.146 -0.4964 -0.1236 -0.9756
  200MOL0     H26970   3.557  12.034  10.175 -0.5093 -2.2430 -0.0372
  200MOL0     H26971   3.592  11.925  10.042  0.8398 -1.0720  0.8802
  200MOL0     H26972   3.758  12.172  10.141  0.2718 -0.0150 -0.6611
  200MOL0     H26973   3.800  12.044  10.020 -3.2836 -5.7527  0.1305
  200MOL0     H26974   3.582  12.263  10.013 -1.2395 -2.0666 -0.2493
  200MOL0     H26975   3.589  12.136   9.891 -1.5322 -0.0275  0.4195
  200MOL0     H26976   3.799  12.210   9.811  0.2362 -1.2923  1.9497
  200MOL0     H26977   3.683  12.346   9.796  0.0022 -2.2823 -1.2981
  200MOL0     H26978   3.908  12.307   9.994  0.1562  0.3656 -2.1107
  200MOL0     H26979   3.781  12.434  10.022  3.2516  2.1397  0.5482
  200MOL0     H26980   3.945  12.555   9.914  0.5208 -0.0320  0.6706
  200MOL0     H26981   3.845  12.519   9.786 -0.0696  1.3064  0.6893
  200MOL0     H26982   3.373  11.641  10.077  1.9252  1.7917  3.8929
  200MOL0     H26983   3.395  11.498   9.871 -1.1016 -0.7275  1.6228
  200MOL0     H26984   3.892  11.256   9.537  0.3001 -1.2003 -0.4366
  200MOL0     H26985   3.860  11.118   9.338  0.9996 -0.3936  0.3811
  200MOL0     H26986   4.878  10.203   9.188  0.3724  0.0106 -0.4710
  200MOL0     H26987   5.068  10.070   9.296  0.5639 -1.2184 -1.0583
  200MOL0     H26988   5.210   9.468   9.424  0.9033  0.7742  0.4034
  200MOL0     H26989   5.424   9.385   9.468  0.5574 -1.7836 -1.5032
  200MOL0     H26990   5.661   9.474   9.187 -1.9374 -0.6882  2.1547
  200MOL0     H26991   5.790   9.575   9.258 -0.4852  0.0053  1.3469
  200MOL0     H26992   5.875   9.356   9.197 -0.0394 -1.9859  0.1575
  200MOL0     H26993   5.762   9.285   9.330 -3.0592  2.6487  1.0271
  200MOL0     H26994   5.902   9.439   9.491  2.7147  1.3058  0.5226
  200MOL0     H26995   6.007   9.468   9.354  0.3471  0.2063  0.3803
  200MOL0     H26996   5.971   9.185   9.360  2.8469  0.2660 -2.2628
  200MOL0     H26997   6.022   9.241   9.524  0.6235  1.6830  0.9120
  200MOL0     H26998   6.380   9.288   9.295 -0.8748  1.8292 -2.7114
  200MOL0     H26999   5.606   9.720   9.260  1.4068  0.2903  4.0739
  200MOL0     H27000   5.374   9.816   9.222 -0.6676  0.1242  1.7678
  201MOL0     O27001   9.049   1.213  10.050  0.4489  0.1942 -0.2026
  201MOL0     C27002   9.021   1.313   9.999 -0.4843 -0.2497  0.5326
  201MOL0     O27003   9.024   1.436  10.061 -0.1724  0.7854 -0.0787
  201MOL0     C27004   9.063   1.451  10.196 -0.3693 -0.2985 -0.3375
  201MOL0     C27005   9.040   1.584  10.249  0.1059  0.8009  0.2624
  201MOL0     C27006   9.096   1.622  10.374 -1.7477  0.3215  0.6988
  201MOL0     C27007   9.192   1.543  10.445  0.3821  0.2505  0.1222
  201MOL0     O27008   9.263   1.581  10.553  0.9689  0.4400 -0.1059
  201MOL0     C27009   9.281   1.718  10.584  0.1531  1.2017  0.2346
  201MOL0     C27010   9.184   1.768  10.693  0.3438 -0.1199 -0.2391
  201MOL0     C27011   9.188   1.676  10.811  0.2490  1.2586 -0.5087
  201MOL0     C27012   9.101   1.541  10.805 -0.1276  0.0742  0.2155
  201MOL0     C27013   9.143   1.431  10.894 -0.1058  0.8481  0.4175
  201MOL0     C27014   9.123   1.465  11.039 -0.4912  0.0394  0.0258
  201MOL0     C27015   9.141   1.347  11.123  0.3774 -0.0508  0.6968
  201MOL0     C27016   9.009   1.267  11.131 -0.1261 -0.7642 -0.4630
  201MOL0     N27017   9.025   1.138  11.197  0.2058  0.1094  0.0390
  201MOL0     C27018   9.094   1.114  11.316 -0.7574  0.0570  0.2109
  201MOL0     C27019   9.094   0.981  11.331  0.5489 -0.2216  0.8504
  201MOL0     C27020   9.167   0.908  11.443 -0.6105  0.1753  0.7909
  201MOL0     C27021   9.083   0.901  11.576  0.2686 -0.9569 -0.4776
  201MOL0     C27022   9.182   0.907  11.697 -0.0607 -0.8932  1.2017
  201MOL0     C27023   9.108   0.875  11.832 -0.6283  0.4258  0.5137
  201MOL0     O27024   9.166   0.924  11.957  0.0620 -0.6413 -0.2878
  201MOL0     C27025   9.286   0.869  11.999  0.5773 -0.0132  0.3481
  201MOL0     C27026   9.321   0.729  11.958 -0.7258 -0.5426 -0.7103
  201MOL0     C27027   9.443   0.674  11.997  0.8397 -0.5774  0.1337
  201MOL0     C27028   9.484   0.539  11.932 -0.0265  0.2005 -0.2179
  201MOL0     C27029   9.519   0.742  12.095 -0.4207  0.1618  0.0191
  201MOL0     C27030   9.640   0.674  12.159  1.0247  0.1885  0.7532
  201MOL0     O27031   9.640   0.545  12.172  0.3579  0.2013  0.1564
  201MOL0     C27032   9.719   0.482  12.257  0.2418  0.3965 -0.1365
  201MOL0     C27033   9.826   0.402  12.211  0.6232 -0.6398  0.5491
  201MOL0     C27034   9.890   0.322  12.307 -0.0046  0.5004  0.1755
  201MOL0     C27035   9.861   0.320  12.443  0.5448  1.2750  0.6022
  201MOL0     O27036   9.934   0.240  12.520  0.4274  1.2906  0.1088
  201MOL0     C27037   9.880   0.150  12.618  0.3216  0.6487  0.2827
  201MOL0     C27038   9.783   0.042  12.560 -1.0186 -0.0499  0.6126
  201MOL0     C27039   9.836  -0.026  12.435 -0.5201 -0.5295 -0.2871
  201MOL0     C27040   9.731  -0.077  12.329 -0.1544 -0.8259 -0.3259
  201MOL0     C27041   9.676   0.040  12.248  0.0670  0.0327  0.6302
  201MOL0     C27042   9.601  -0.001  12.122  0.0457 -0.6293  0.3670
  201MOL0     C27043   9.574   0.121  12.036 -0.0043  0.1516 -0.5904
  201MOL0     C27044   9.468   0.095  11.917 -0.0447  0.1314 -0.2925
  201MOL0    Cl27045   9.473   0.222  11.791 -0.5811 -0.7222 -0.0809
  201MOL0     C27046   9.753   0.394  12.480  0.8268  0.8511  0.3296
  201MOL0     C27047   9.684   0.479  12.391  0.3890 -0.9519  0.1971
  201MOL0     O27048   9.725   0.751  12.203  0.5568  0.6191 -0.7497
  201MOL0     C27049   9.484   0.874  12.125 -0.4142 -0.4687 -0.9140
  201MOL0     C27050   9.370   0.939  12.077  0.7748 -0.0719 -0.0828
  201MOL0     N27051   9.046   0.926  11.215  0.3989  0.1428 -0.4200
  201MOL0     N27052   9.004   1.014  11.137  0.9170 -0.4133 -0.1480
  201MOL0     C27053   9.224   1.424  10.384  1.2072  0.5282 -0.1039
  201MOL0     C27054   9.165   1.376  10.266  1.0762  0.9693  0.1820
  201MOL0     C27055   8.997   1.315   9.843  0.3065 -0.1366  0.0110
  201MOL0     C27056   8.959   1.435   9.782 -0.6341  0.2808 -0.7165
  201MOL0     C27057   8.945   1.435   9.644 -0.1320  0.4772 -0.1000
  201MOL0     C27058   8.961   1.318   9.570  0.7398  2.0381 -0.3150
  201MOL0     O27059   8.939   1.333   9.433  0.0528  0.5500 -0.7821
  201MOL0     C27060   8.939   1.224   9.336  0.6412 -0.0781  1.1118
  201MOL0     C27061   8.876   1.268   9.203  0.5311  0.2998 -0.3630
  201MOL0     C27062   8.958   1.356   9.102  0.4875  0.8553  0.6893
  201MOL0     C27063   9.024   1.480   9.175  1.1394  0.3664 -0.0206
  201MOL0     C27064   8.919   1.563   9.244 -0.5630  0.2757 -0.5576
  201MOL0     C27065   8.831   1.630   9.294 -0.4149 -0.9339 -0.4477
  201MOL0     C27066   8.994   1.201   9.635 -0.0068  0.2180 -0.5012
  201MOL0     C27067   9.021   1.199   9.768  0.4939  0.1041  0.5083
  201MOL0     H27068   8.987   1.662  10.195  2.4692  3.1748  1.1103
  201MOL0     H27069   9.082   1.725  10.404  1.6856  0.9430  0.5908
  201MOL0     H27070   9.380   1.741  10.624 -1.1869  4.4042  2.1199
  201MOL0     H27071   9.262   1.787  10.501 -1.5648  0.1072 -0.3330
  201MOL0     H27072   9.230   1.864  10.718  1.3446 -0.2955 -1.2989
  201MOL0     H27073   9.079   1.782  10.666 -0.6519 -1.8556  2.3442
  201MOL0     H27074   9.290   1.637  10.818 -0.6718 -1.3374 -0.2447
  201MOL0     H27075   9.159   1.734  10.899 -2.9647 -2.0787  0.9128
  201MOL0     H27076   9.001   1.574  10.836  0.0751 -0.4361  1.4937
  201MOL0     H27077   9.090   1.508  10.702 -3.0459  1.9944 -0.2079
  201MOL0     H27078   9.096   1.335  10.872  1.2191  0.4324 -0.7610
  201MOL0     H27079   9.249   1.423  10.866 -0.7076  0.9352 -2.0958
  201MOL0     H27080   9.209   1.523  11.073  0.6966 -2.3472  1.3907
  201MOL0     H27081   9.023   1.508  11.054 -1.3863 -2.6827  3.1714
  201MOL0     H27082   9.220   1.284  11.082 -0.3993 -0.5674 -0.0564
  201MOL0     H27083   9.192   1.377  11.215  0.3613  0.3586  0.5729
  201MOL0     H27084   8.957   1.259  11.036  2.9734 -3.4254 -2.1234
  201MOL0     H27085   8.940   1.319  11.199  0.0291 -0.1502 -0.7721
  201MOL0     H27086   9.126   1.187  11.388  0.6897  0.1773 -0.5213
  201MOL0     H27087   9.189   0.805  11.416  0.3942 -0.6771  4.3828
  201MOL0     H27088   9.268   0.949  11.455  0.5173 -2.2887  0.2783
  201MOL0     H27089   9.025   0.809  11.586  0.1161 -0.7144  1.0519
  201MOL0     H27090   9.008   0.980  11.584 -0.6210 -1.8883  0.8624
  201MOL0     H27091   9.241   0.998  11.697 -0.5945 -0.5022  3.3590
  201MOL0     H27092   9.247   0.820  11.684 -0.8706 -1.7498  2.6129
  201MOL0     H27093   9.100   0.767  11.824  0.1379  0.4729 -1.3821
  201MOL0     H27094   9.006   0.914  11.827 -0.3286  1.3743  1.4024
  201MOL0     H27095   9.257   0.667  11.896 -0.5048 -0.1941 -1.2983
  201MOL0     H27096   9.420   0.500  11.852  3.4309 -2.1629 -2.0891
  201MOL0     H27097   9.590   0.546  11.909 -0.1505  1.2079 -0.5587
  201MOL0     H27098   9.462   0.459  12.002  2.5593  0.1929  0.6525
  201MOL0     H27099   9.857   0.406  12.108 -0.4447  1.4414  0.2792
  201MOL0     H27100   9.981   0.272  12.276 -1.7063 -1.3195 -2.1654
  201MOL0     H27101   9.967   0.096  12.657  1.4647  0.6572 -2.0181
  201MOL0     H27102   9.833   0.205  12.700 -0.0293  0.7471  0.0181
  201MOL0     H27103   9.744  -0.032  12.631 -0.7774  0.7914  1.6562
  201MOL0     H27104   9.695   0.101  12.530 -0.3279  0.6628 -0.0608
  201MOL0     H27105   9.898  -0.106  12.476 -2.8220 -1.5330  1.4652
  201MOL0     H27106   9.913   0.033  12.385  1.9822 -2.1082  1.4339
  201MOL0     H27107   9.782  -0.152  12.267 -0.5662 -2.3274  1.0487
  201MOL0     H27108   9.649  -0.128  12.380 -0.2037 -0.1127  0.3235
  201MOL0     H27109   9.765   0.094  12.215  0.6481 -2.1698 -1.8467
  201MOL0     H27110   9.605   0.102  12.303  1.6168  3.8097 -1.2301
  201MOL0     H27111   9.663  -0.077  12.073  2.1636  0.6256  1.0036
  201MOL0     H27112   9.501  -0.041  12.142 -1.3416  1.2472 -2.1885
  201MOL0     H27113   9.668   0.157  11.996  0.1785  1.8964  1.2160
  201MOL0     H27114   9.530   0.205  12.092  1.5095 -1.3888  3.2945
  201MOL0     H27115   9.366   0.076  11.950  0.1881  0.9195  0.9257
  201MOL0     H27116   9.508   0.005  11.870 -0.3112 -1.2906  2.0496
  201MOL0     H27117   9.713   0.406  12.581 -0.0676 -0.4239  0.1453
  201MOL0     H27118   9.601   0.543  12.419  1.1794 -0.1620  0.7635
  201MOL0     H27119   9.544   0.924  12.200 -0.8176  2.0350 -2.1744
  201MOL0     H27120   9.338   1.040  12.100 -1.0110 -0.7329  0.5293
  201MOL0     H27121   9.305   1.364  10.425  0.6132  0.2523  0.6999
  201MOL0     H27122   9.201   1.279  10.235 -1.1624 -1.7512  4.9972
  201MOL0     H27123   8.953   1.533   9.828  0.9805 -0.2229  0.6738
  201MOL0     H27124   8.924   1.525   9.587  0.4123  0.6501 -0.0354
  201MOL0     H27125   9.041   1.192   9.310  0.5275 -0.0701  0.6498
  201MOL0     H27126   8.876   1.143   9.375 -2.1070  1.4485  0.0677
  201MOL0     H27127   8.778   1.317   9.211 -0.3698 -1.3980 -0.4917
  201MOL0     H27128   8.851   1.178   9.146  1.3777  0.4330 -0.9601
  201MOL0     H27129   8.904   1.392   9.014 -0.8911 -0.9436  0.7297
  201MOL0     H27130   9.037   1.290   9.065 -0.7299 -0.5184  0.4071
  201MOL0     H27131   9.077   1.533   9.096  2.2343  0.7063  0.9158
  201MOL0     H27132   9.108   1.460   9.241  0.4565  2.5298  1.6399
  201MOL0     H27133   8.752   1.683   9.343  0.6391  0.7998 -0.5316
  201MOL0     H27134   9.027   1.122   9.568 -0.5078 -0.2832 -0.1627
  201MOL0     H27135   9.061   1.115   9.825 -1.5350 -1.8996 -0.8854
  202MOL0     O27136   3.527   8.562   4.584 -0.0277  0.3506  0.2911
  202MOL0     C27137   3.588   8.472   4.527 -0.9027 -1.3854 -0.4960
  202MOL0     O27138   3.635   8.488   4.410  0.2854  0.1979  0.0286
  202MOL0     C27139   3.631   8.613   4.342 -0.1771 -0.3775 -0.5874
  202MOL0     C27140   3.596   8.623   4.210  0.1808  0.1094  0.1389
  202MOL0     C27141   3.593   8.746   4.145 -0.6287  0.4481  0.3218
  202MOL0     C27142   3.633   8.864   4.202 -0.9608  0.0634 -0.7047
  202MOL0     O27143   3.643   8.978   4.130 -0.6474  0.4575  0.0732
  202MOL0     C27144   3.536   9.020   4.046 -0.1986  0.2167 -1.2673
  202MOL0     C27145   3.573   9.112   3.941  0.6937  0.3297 -0.3964
  202MOL0     C27146   3.591   9.267   3.981  0.3042  0.5399  0.4552
  202MOL0     C27147   3.699   9.288   4.092  0.7763 -0.1649  0.3514
  202MOL0     C27148   3.714   9.427   4.173 -0.1568  0.3075 -0.1865
  202MOL0     C27149   3.823   9.511   4.100 -0.7485 -0.7427  0.7773
  202MOL0     C27150   3.854   9.644   4.159 -0.8744 -0.4817  0.0618
  202MOL0     C27151   3.730   9.734   4.171 -0.3424 -0.1538 -0.0062
  202MOL0     N27152   3.675   9.774   4.036  0.3975 -0.1013 -0.4346
  202MOL0     C27153   3.565   9.699   3.983  0.6220  0.8971  1.3876
  202MOL0     C27154   3.570   9.740   3.854  0.0537 -0.7131 -0.2786
  202MOL0     C27155   3.487   9.689   3.743 -0.5708 -0.1428  0.4521
  202MOL0     C27156   3.349   9.758   3.747  0.3188 -0.4353  0.9868
  202MOL0     C27157   3.356   9.911   3.706 -0.7222  0.3471  0.4186
  202MOL0     C27158   3.227   9.982   3.736  0.6157  0.1182 -0.0291
  202MOL0     O27159   3.120   9.926   3.654  0.2984 -0.6201  0.2212
  202MOL0     C27160   3.096   9.961   3.530  1.0686  0.0417  0.1444
  202MOL0     C27161   2.970   9.927   3.482 -0.8227  0.0839 -0.2487
  202MOL0     C27162   2.935   9.963   3.352  0.1513  0.3556 -0.0336
  202MOL0     C27163   2.806   9.916   3.288  0.2566 -0.1123 -0.1442
  202MOL0     C27164   3.031  10.032   3.263 -0.5071  0.7702  1.2855
  202MOL0     C27165   2.999  10.066   3.116  0.3076 -0.4750 -1.1190
  202MOL0     O27166   2.939   9.971   3.039 -0.4675  0.2937 -0.2006
  202MOL0     C27167   2.920  10.010   2.915 -0.3586 -0.4892  0.1524
  202MOL0     C27168   3.007   9.967   2.815 -0.4221  0.8132  0.5500
  202MOL0     C27169   2.989   9.994   2.670 -0.4510  0.2482 -0.7956
  202MOL0     C27170   2.881  10.078   2.631  0.8407  0.0482  0.1231
  202MOL0     O27171   2.844  10.122   2.504  0.1500  0.5812  0.4950
  202MOL0     C27172   2.896  10.052   2.395  0.0002  0.0672  0.5845
  202MOL0     C27173   2.787   9.983   2.321  0.4903  0.2288  0.1658
  202MOL0     C27174   2.801   9.971   2.168  0.1466 -0.2909  0.6235
  202MOL0     C27175   2.707   9.864   2.110 -0.4204 -0.8523  0.1514
  202MOL0     C27176   2.737   9.858   1.959  0.4787  0.5607 -0.5030
  202MOL0     C27177   2.623   9.779   1.893  0.6368 -0.4985  0.7167
  202MOL0     C27178   2.640   9.770   1.745  0.5967 -0.2766  0.2964
  202MOL0     C27179   2.764   9.684   1.710 -0.2941 -0.5422  0.1851
  202MOL0    Cl27180   2.746   9.506   1.761  0.4066  0.2049  0.0578
  202MOL0     C27181   2.808  10.137   2.738 -0.1698  0.4194 -0.6958
  202MOL0     C27182   2.820  10.101   2.875 -0.2269  0.2801 -0.3976
  202MOL0     O27183   3.021  10.176   3.078  0.0223 -0.4997 -0.7429
  202MOL0     C27184   3.164  10.060   3.319  0.1554 -0.3638  0.0498
  202MOL0     C27185   3.187  10.023   3.448 -1.4239  0.1981  0.1497
  202MOL0     N27186   3.661   9.841   3.837  0.3774 -0.3276 -0.0120
  202MOL0     N27187   3.727   9.858   3.939  0.0412 -0.7073 -0.5764
  202MOL0     C27188   3.692   8.850   4.336 -0.0282  0.1652 -0.3445
  202MOL0     C27189   3.687   8.729   4.409  0.6314 -0.1585 -0.1162
  202MOL0     C27190   3.612   8.350   4.601 -0.2834 -0.0629 -0.6989
  202MOL0     C27191   3.535   8.319   4.713 -1.4525  0.6183 -0.6876
  202MOL0     C27192   3.566   8.203   4.791  0.2304 -0.2551  0.0826
  202MOL0     C27193   3.672   8.121   4.765 -0.0875 -0.1335  0.1221
  202MOL0     O27194   3.700   8.003   4.832  0.1053 -1.0237 -0.3386
  202MOL0     C27195   3.634   7.975   4.952  0.8001  0.1556 -0.8211
  202MOL0     C27196   3.707   7.860   5.022  0.4132  0.0979 -0.8051
  202MOL0     C27197   3.823   7.909   5.097  1.3641  0.1667  0.1501
  202MOL0     C27198   3.938   7.930   5.011  0.3117 -0.4843 -0.2363
  202MOL0     C27199   4.046   7.969   5.109 -0.6962 -0.6108  0.5850
  202MOL0     C27200   4.135   7.988   5.198  0.4544  0.2478  0.6848
  202MOL0     C27201   3.751   8.148   4.651  0.5776 -0.0580  0.1925
  202MOL0     C27202   3.716   8.251   4.562  0.1820  0.2140 -0.3801
  202MOL0     H27203   3.573   8.534   4.152  1.0577  1.0001 -1.6714
  202MOL0     H27204   3.572   8.754   4.039 -1.1597 -0.1901  0.3754
  202MOL0     H27205   3.483   8.938   3.998 -1.7041 -1.0382  2.2215
  202MOL0     H27206   3.462   9.062   4.114  0.2431 -1.6790  0.4806
  202MOL0     H27207   3.664   9.087   3.886  1.3349  3.3916 -0.9033
  202MOL0     H27208   3.491   9.118   3.869  0.9392  3.0420 -0.5748
  202MOL0     H27209   3.617   9.328   3.894 -2.4914  1.5395  0.2341
  202MOL0     H27210   3.495   9.313   4.005  0.4216  0.7333  0.5523
  202MOL0     H27211   3.663   9.218   4.168  2.8360 -0.0403  1.5391
  202MOL0     H27212   3.795   9.249   4.058  1.0865  1.3445 -0.6008
  202MOL0     H27213   3.612   9.463   4.182  0.4523  1.5925  3.3332
  202MOL0     H27214   3.750   9.395   4.272 -0.0964  0.5153 -0.1408
  202MOL0     H27215   3.917   9.455   4.098  1.7589  3.0957  1.6303
  202MOL0     H27216   3.800   9.529   3.994  0.0586  0.0578  0.7328
  202MOL0     H27217   3.887   9.640   4.263  0.4617 -4.2439 -0.3751
  202MOL0     H27218   3.927   9.701   4.101  0.8687 -2.2269  0.4567
  202MOL0     H27219   3.758   9.821   4.231 -3.2737  0.4191  0.6570
  202MOL0     H27220   3.646   9.678   4.212 -0.6658  0.4208  0.1293
  202MOL0     H27221   3.505   9.624   4.033  2.2409  1.8748  5.1107
  202MOL0     H27222   3.530   9.701   3.643 -2.0181 -2.7230 -0.5670
  202MOL0     H27223   3.468   9.582   3.755  1.8418 -0.6561  0.1662
  202MOL0     H27224   3.318   9.764   3.852 -2.3646  0.0339  0.2375
  202MOL0     H27225   3.259   9.719   3.698 -0.0502  0.6975  0.7234
  202MOL0     H27226   3.384   9.911   3.600  2.2026  1.7031  1.0898
  202MOL0     H27227   3.442   9.967   3.742 -0.0650  1.6231 -2.7659
  202MOL0     H27228   3.239  10.088   3.712  1.5715 -0.4480 -2.2551
  202MOL0     H27229   3.209   9.974   3.844  0.2696  1.2147  0.0163
  202MOL0     H27230   2.895   9.877   3.543 -2.6423  2.3675 -0.4531
  202MOL0     H27231   2.722   9.901   3.357  0.2250 -2.0234 -0.5593
  202MOL0     H27232   2.760   9.989   3.220 -0.3581 -0.0666  0.3088
  202MOL0     H27233   2.816   9.821   3.235 -2.1213  1.1464 -3.2157
  202MOL0     H27234   3.094   9.906   2.837 -2.0608 -1.5206  0.8657
  202MOL0     H27235   3.056   9.946   2.600  2.7765 -0.5231  2.4980
  202MOL0     H27236   2.947  10.133   2.341  1.8320  0.1231  2.2808
  202MOL0     H27237   2.974   9.979   2.418 -0.7461 -0.8493  0.2521
  202MOL0     H27238   2.767   9.887   2.368 -0.0801 -1.0608 -2.5417
  202MOL0     H27239   2.687  10.025   2.336  0.5459 -0.6111  3.8698
  202MOL0     H27240   2.899   9.933   2.137  0.5713 -0.5363  2.1797
  202MOL0     H27241   2.796  10.069   2.121  0.6591 -0.0277  1.0973
  202MOL0     H27242   2.714   9.764   2.153  1.0215  0.6742  3.8016
  202MOL0     H27243   2.610   9.912   2.125  0.2183  0.4655  0.1664
  202MOL0     H27244   2.829   9.801   1.952  1.9191  2.8538 -1.1774
  202MOL0     H27245   2.757   9.955   1.912 -1.6933  2.2891  1.8351
  202MOL0     H27246   2.605   9.683   1.941 -0.9009 -0.7022 -0.1931
  202MOL0     H27247   2.535   9.843   1.903  0.8064  0.0363 -0.9329
  202MOL0     H27248   2.647   9.872   1.706  0.1059 -0.9937 -1.8097
  202MOL0     H27249   2.563   9.717   1.688  3.1602 -1.6985 -2.0938
  202MOL0     H27250   2.857   9.727   1.748 -0.0870 -0.9183  0.1127
  202MOL0     H27251   2.779   9.693   1.603  2.4962 -0.2361  0.5241
  202MOL0     H27252   2.736  10.216   2.718 -1.6562 -0.3367  1.4233
  202MOL0     H27253   2.759  10.139   2.957  2.8016 -3.0718  3.8580
  202MOL0     H27254   3.242  10.123   3.277 -0.9839  3.3815  2.9302
  202MOL0     H27255   3.290  10.041   3.476 -1.8490 -0.9368  2.6328
  202MOL0     H27256   3.735   8.939   4.380 -0.1580 -0.3912  0.9328
  202MOL0     H27257   3.700   8.739   4.516 -4.1878  1.3617  0.5826
  202MOL0     H27258   3.443   8.370   4.737 -0.4681  0.9090  3.2002
  202MOL0     H27259   3.508   8.166   4.875 -1.3841 -1.1861 -1.3640
  202MOL0     H27260   3.629   8.070   5.007 -0.8786 -0.2642 -0.1875
  202MOL0     H27261   3.535   7.943   4.921  0.9944  3.1743 -5.6237
  202MOL0     H27262   3.735   7.784   4.949  2.0465  0.9080 -1.0565
  202MOL0     H27263   3.636   7.802   5.082  0.4363  0.1019 -0.7737
  202MOL0     H27264   3.841   7.828   5.168  2.6489  1.3927  1.2708
  202MOL0     H27265   3.791   7.993   5.160  0.1172 -0.4208  0.3337
  202MOL0     H27266   3.924   8.020   4.950 -0.0376 -0.7101 -0.4932
  202MOL0     H27267   3.966   7.842   4.952 -1.7120 -0.8172 -0.7923
  202MOL0     H27268   4.213   8.008   5.269 -0.1448  1.3228  1.0592
  202MOL0     H27269   3.833   8.082   4.626  2.8326  1.4110  3.0928
  202MOL0     H27270   3.783   8.264   4.477 -0.7476 -0.1205 -1.1893
  203MOL0     O27271   7.565   7.563  10.944  0.7463  0.7228  0.2717
  203MOL0     C27272   7.591   7.509  11.053  0.3534  0.0264  0.0789
  203MOL0     O27273   7.693   7.532  11.136 -0.7557  0.0190 -0.6639
  203MOL0     C27274   7.809   7.613  11.113  0.1288  0.2401 -0.6689
  203MOL0     C27275   7.905   7.606  11.213  0.1163 -0.3119 -0.0356
  203MOL0     C27276   8.021   7.674  11.204 -0.0086 -0.4092  0.0539
  203MOL0     C27277   8.041   7.775  11.111 -0.3183  1.3781 -0.3310
  203MOL0     O27278   8.140   7.867  11.122  0.2886  0.2334 -0.0262
  203MOL0     C27279   8.177   7.950  11.009 -0.7542 -0.1218  0.0501
  203MOL0     C27280   8.131   8.091  11.050  0.4553 -0.7698 -0.7537
  203MOL0     C27281   8.161   8.187  10.931 -1.3203  0.8137  0.5250
  203MOL0     C27282   8.119   8.331  10.937  1.8940  0.1820 -0.5552
  203MOL0     C27283   8.184   8.432  10.837  1.3525  0.2035  0.9336
  203MOL0     C27284   8.126   8.567  10.828  0.8598 -0.0138  0.1263
  203MOL0     C27285   8.207   8.660  10.733  0.4973  0.3562 -0.3655
  203MOL0     C27286   8.129   8.786  10.699  0.6046  0.1550  0.1696
  203MOL0     N27287   8.211   8.857  10.596  0.6176 -0.3257  0.0735
  203MOL0     C27288   8.300   8.818  10.495  0.1595 -0.2302 -0.2947
  203MOL0     C27289   8.357   8.927  10.446  0.4731 -0.5636  0.7788
  203MOL0     C27290   8.488   8.945  10.372  0.0596  1.6579 -0.4338
  203MOL0     C27291   8.462   8.959  10.221 -1.3560  0.0372 -0.1153
  203MOL0     C27292   8.389   9.091  10.186 -0.2218  0.3920  0.6015
  203MOL0     C27293   8.431   9.153  10.057  0.5310 -0.8001 -0.0164
  203MOL0     O27294   8.340   9.267  10.041 -0.1425 -0.1779 -0.4538
  203MOL0     C27295   8.216   9.235   9.992  0.3320  0.5017 -0.1425
  203MOL0     C27296   8.164   9.115   9.936 -0.5096  0.1528 -0.0231
  203MOL0     C27297   8.029   9.098   9.887 -0.0457 -0.2597 -0.0746
  203MOL0     C27298   7.994   8.962   9.828 -0.2696  0.1069  0.0643
  203MOL0     C27299   7.937   9.204   9.914 -0.5860 -0.4937  0.8423
  203MOL0     C27300   7.795   9.196   9.873 -0.2173 -0.6161  0.8581
  203MOL0     O27301   7.758   9.316   9.814  0.2181 -0.7953  0.6491
  203MOL0     C27302   7.622   9.342   9.822  0.2784  0.1272  1.2295
  203MOL0     C27303   7.534   9.265   9.748  0.1961  0.9602  0.0734
  203MOL0     C27304   7.396   9.292   9.756  0.1488 -0.3089 -0.5640
  203MOL0     C27305   7.346   9.409   9.812 -0.9931 -0.1260  0.0916
  203MOL0     O27306   7.212   9.444   9.811 -0.1067 -0.7823 -0.2291
  203MOL0     C27307   7.119   9.342   9.829  0.6612 -0.7977 -0.0068
  203MOL0     C27308   6.994   9.391   9.902  0.1998 -0.4558  0.1143
  203MOL0     C27309   6.875   9.304   9.874 -0.0339  1.4191  0.3232
  203MOL0     C27310   6.901   9.150   9.917 -0.2454 -0.1172  1.0195
  203MOL0     C27311   6.775   9.074   9.959  0.0646 -0.0249  0.0917
  203MOL0     C27312   6.701   9.141  10.078 -0.4092  0.2958  0.1547
  203MOL0     C27313   6.615   9.054  10.159  0.4833  0.1893  0.8745
  203MOL0     C27314   6.493   8.993  10.084  0.3113 -0.6124 -0.1290
  203MOL0    Cl27315   6.396   8.924  10.217  0.0775  0.1547  0.1721
  203MOL0     C27316   7.439   9.492   9.868 -0.6917 -0.3052  0.7421
  203MOL0     C27317   7.579   9.462   9.883  0.1604  1.1653 -0.5189
  203MOL0     O27318   7.725   9.103   9.902 -0.2841  0.5696 -0.2373
  203MOL0     C27319   7.989   9.328   9.968 -0.6538 -0.5838 -0.1651
  203MOL0     C27320   8.119   9.335  10.015  0.0609 -0.0258 -0.3779
  203MOL0     N27321   8.301   9.045  10.508 -0.1192  0.0147  0.9482
  203MOL0     N27322   8.211   9.000  10.589  0.4463 -0.1090 -0.3245
  203MOL0     C27323   7.952   7.779  11.006  0.0580  0.2934  0.3604
  203MOL0     C27324   7.846   7.696  11.009 -0.2941 -0.5827  0.4516
  203MOL0     C27325   7.484   7.415  11.102 -0.1615  0.0359 -0.2790
  203MOL0     C27326   7.357   7.397  11.033  0.1196 -0.5621 -0.0260
  203MOL0     C27327   7.258   7.316  11.087  0.2208 -0.2754  0.0713
  203MOL0     C27328   7.291   7.242  11.199 -0.0506  0.6166 -0.4442
  203MOL0     O27329   7.195   7.146  11.241 -0.4105 -0.1672 -0.1934
  203MOL0     C27330   7.092   7.212  11.312  0.6237  0.2394 -0.8069
  203MOL0     C27331   7.031   7.106  11.408 -0.5898  0.3406 -0.3718
  203MOL0     C27332   7.099   7.089  11.544  0.3440 -0.3070 -0.7944
  203MOL0     C27333   7.045   6.966  11.624 -1.1162 -0.8060  1.2364
  203MOL0     C27334   6.907   6.967  11.643 -1.0284  0.2864 -0.8996
  203MOL0     C27335   6.788   6.999  11.650  0.4496  0.9428  0.2160
  203MOL0     C27336   7.412   7.243  11.258  0.5496 -0.0830 -0.2641
  203MOL0     C27337   7.511   7.334  11.213  0.6150  0.9472  0.3552
  203MOL0     H27338   7.896   7.533  11.293  2.5597 -0.4418  0.1839
  203MOL0     H27339   8.094   7.666  11.284  5.5034  1.3886 -4.1980
  203MOL0     H27340   8.286   7.941  11.012 -0.8029 -1.5673 -1.2567
  203MOL0     H27341   8.147   7.916  10.910 -1.6509  0.9545 -0.0705
  203MOL0     H27342   8.022   8.094  11.058  0.3009 -0.0059 -2.6242
  203MOL0     H27343   8.171   8.128  11.145 -0.6247  0.1340 -0.6215
  203MOL0     H27344   8.269   8.201  10.937 -0.8386  0.6402 -4.2670
  203MOL0     H27345   8.148   8.144  10.832  0.2143  2.6787 -0.5625
  203MOL0     H27346   8.012   8.348  10.926  1.5079 -0.6285  1.4634
  203MOL0     H27347   8.137   8.364  11.040 -1.9058  1.9316 -0.2960
  203MOL0     H27348   8.290   8.429  10.865  1.9568 -0.3124 -1.2471
  203MOL0     H27349   8.173   8.393  10.736  2.3397  1.8525  0.1382
  203MOL0     H27350   8.027   8.567  10.781  1.4571  0.8743 -1.1987
  203MOL0     H27351   8.125   8.608  10.929  0.0393 -1.5371  0.7748
  203MOL0     H27352   8.307   8.682  10.772  0.0402  2.3203 -0.2261
  203MOL0     H27353   8.221   8.597  10.644  0.6647  1.6565 -1.2866
  203MOL0     H27354   8.109   8.844  10.789  2.9053  0.4762  0.5410
  203MOL0     H27355   8.031   8.765  10.655  1.4241 -0.6450 -1.3492
  203MOL0     H27356   8.334   8.716  10.487 -1.5245 -1.1110  2.5303
  203MOL0     H27357   8.550   9.030  10.401  0.0423  2.0221 -1.4198
  203MOL0     H27358   8.552   8.859  10.395 -0.9522  1.3892  1.6835
  203MOL0     H27359   8.412   8.874  10.174 -0.0606 -1.0849  0.4687
  203MOL0     H27360   8.562   8.973  10.179 -0.9541  0.2826  0.8880
  203MOL0     H27361   8.401   9.164  10.267 -1.7703 -0.4145  1.6047
  203MOL0     H27362   8.285   9.058  10.186 -0.3084  0.5995  2.1639
  203MOL0     H27363   8.425   9.085   9.971 -3.3461 -0.0007 -0.5713
  203MOL0     H27364   8.531   9.195  10.073  0.3425  0.4328 -1.7147
  203MOL0     H27365   8.240   9.039   9.920  0.5538  1.6259 -2.6394
  203MOL0     H27366   8.029   8.961   9.725  2.3613  0.4541  0.8815
  203MOL0     H27367   8.051   8.885   9.882 -2.4670 -1.8596 -0.2353
  203MOL0     H27368   7.885   8.950   9.835 -0.4533 -0.9362 -3.0309
  203MOL0     H27369   7.572   9.190   9.680 -1.5696 -0.0705  0.1784
  203MOL0     H27370   7.322   9.228   9.708 -0.2051 -1.0117  0.8606
  203MOL0     H27371   7.087   9.289   9.739 -2.8449 -0.1982  0.7483
  203MOL0     H27372   7.169   9.269   9.894  4.1636  0.3317 -1.2115
  203MOL0     H27373   7.008   9.399  10.010 -2.1106  2.1216  0.3497
  203MOL0     H27374   6.973   9.493   9.867  0.8950  0.7227  2.8089
  203MOL0     H27375   6.848   9.312   9.768 -1.3039  0.7939  0.5804
  203MOL0     H27376   6.793   9.352   9.927 -2.5710 -3.1092  1.0711
  203MOL0     H27377   6.946   9.093   9.836  2.1641  2.1295  0.6274
  203MOL0     H27378   6.975   9.159   9.997 -0.1974  0.9772  0.8743
  203MOL0     H27379   6.810   8.972   9.981 -0.5961 -0.9073 -2.5287
  203MOL0     H27380   6.709   9.072   9.872  0.0855  0.3762  0.0643
  203MOL0     H27381   6.776   9.178  10.148 -1.6619 -1.2440  2.4642
  203MOL0     H27382   6.644   9.226  10.041 -0.0217 -0.2521 -1.8259
  203MOL0     H27383   6.595   9.106  10.254 -0.7631  2.8174 -0.7050
  203MOL0     H27384   6.674   8.964  10.176 -0.8438 -1.2237 -1.5494
  203MOL0     H27385   6.538   8.919  10.018  1.6495  0.0063  0.0523
  203MOL0     H27386   6.434   9.062  10.024 -0.1916 -0.7784  0.1696
  203MOL0     H27387   7.406   9.588   9.908 -2.2706 -0.8328  0.7673
  203MOL0     H27388   7.648   9.530   9.931  0.3450  1.3228 -1.0075
  203MOL0     H27389   7.941   9.425   9.965 -0.5284 -0.5359 -0.9916
  203MOL0     H27390   8.163   9.419  10.068  0.2723 -0.3282 -0.0659
  203MOL0     H27391   7.962   7.852  10.926  1.6074 -1.1344 -0.8307
  203MOL0     H27392   7.779   7.702  10.923  1.8549 -0.5733 -1.2979
  203MOL0     H27393   7.336   7.458  10.946 -1.8191 -2.5572 -1.0564
  203MOL0     H27394   7.161   7.301  11.041 -0.1774  1.6140  0.1929
  203MOL0     H27395   7.122   7.297  11.374 -1.9855 -1.5331  3.2777
  203MOL0     H27396   7.008   7.242  11.249 -2.4030 -2.0887  1.8061
  203MOL0     H27397   7.021   7.013  11.352 -0.7952 -0.0987  0.3852
  203MOL0     H27398   6.929   7.137  11.436 -1.1322 -2.1053  0.6266
  203MOL0     H27399   7.075   7.174  11.609 -0.4084 -1.9487  1.1806
  203MOL0     H27400   7.208   7.079  11.537  0.7994  3.1023 -0.4841
  203MOL0     H27401   7.102   6.960  11.718  0.6406 -1.8369  0.1626
  203MOL0     H27402   7.068   6.876  11.566  1.6343  0.9969 -0.6781
  203MOL0     H27403   6.684   7.016  11.667  0.2492 -0.2906  0.2846
  203MOL0     H27404   7.439   7.165  11.328 -0.0073  0.9912  1.2115
  203MOL0     H27405   7.604   7.330  11.269  1.0015 -0.8328 -0.3486
  204MOL0     O27406   0.516   0.146   9.790  0.0290  0.2018 -0.0162
  204MOL0     C27407   0.543   0.025   9.810  0.5662  0.5270 -0.5985
  204MOL0     O27408   0.456  -0.073   9.778  0.2790  0.6754  0.3428
  204MOL0     C27409   0.339  -0.049   9.710  0.4025 -0.4104  0.0151
  204MOL0     C27410   0.332   0.055   9.617 -1.2494  0.3938  0.1400
  204MOL0     C27411   0.212   0.081   9.553 -0.2206  0.1154 -0.1355
  204MOL0     C27412   0.094   0.027   9.586  0.0920  0.6825  0.4542
  204MOL0     O27413  -0.022   0.065   9.525  0.0527 -0.2203  0.0243
  204MOL0     C27414  -0.047   0.204   9.561 -0.3204 -0.4560 -0.1558
  204MOL0     C27415  -0.179   0.271   9.523 -0.1636 -0.3654 -0.1925
  204MOL0     C27416  -0.307   0.223   9.593 -0.1365  0.7729  0.0094
  204MOL0     C27417  -0.355   0.082   9.536 -0.1954 -0.3785  1.1656
  204MOL0     C27418  -0.477   0.035   9.628 -0.1464  0.6358  0.2272
  204MOL0     C27419  -0.602   0.123   9.610  0.8917 -0.1439 -0.3189
  204MOL0     C27420  -0.703   0.062   9.708 -0.5188  0.2549  0.4440
  204MOL0     C27421  -0.834   0.142   9.706  0.3781 -0.2897  0.2217
  204MOL0     N27422  -0.903   0.159   9.572 -0.6026 -0.2142  0.3994
  204MOL0     C27423  -0.904   0.076   9.469  0.6022  0.0080  1.0361
  204MOL0     C27424  -0.940   0.155   9.361 -0.1724  0.2812 -0.8366
  204MOL0     C27425  -0.948   0.110   9.217 -0.1110  0.7358 -0.8324
  204MOL0     C27426  -0.824   0.129   9.131  0.0257 -0.0005 -0.2535
  204MOL0     C27427  -0.716   0.040   9.183 -0.2344  0.2732  1.0826
  204MOL0     C27428  -0.597   0.042   9.079 -0.1632  0.1564  0.5058
  204MOL0     O27429  -0.484  -0.031   9.128  0.1941  0.5601  0.9586
  204MOL0     C27430  -0.360  -0.006   9.069  0.1040 -0.2634 -0.1578
  204MOL0     C27431  -0.243   0.027   9.144  0.5294 -0.6178 -0.5365
  204MOL0     C27432  -0.119   0.064   9.079  0.5567  0.3201 -0.0559
  204MOL0     C27433  -0.006   0.098   9.171 -1.0169 -0.7573 -0.6025
  204MOL0     C27434  -0.099   0.051   8.943 -0.3820  0.2061  0.7547
  204MOL0     C27435   0.040   0.064   8.878 -0.6095 -0.5357  0.5365
  204MOL0     O27436   0.147   0.104   8.948  0.3184 -0.5647 -0.2800
  204MOL0     C27437   0.266   0.088   8.899 -0.8117 -0.6480  0.0602
  204MOL0     C27438   0.346  -0.014   8.951 -0.2292  0.5122 -0.5500
  204MOL0     C27439   0.461  -0.042   8.884  0.4659 -0.1343 -0.1911
  204MOL0     C27440   0.505   0.033   8.782 -0.1100 -0.3619  0.2001
  204MOL0     O27441   0.622   0.012   8.729 -0.6713  0.1111  0.2690
  204MOL0     C27442   0.730   0.079   8.803 -0.2226  1.0008 -0.2009
  204MOL0     C27443   0.836   0.096   8.704 -0.4689 -0.4912  0.6697
  204MOL0     C27444   0.809   0.226   8.628 -0.8238  0.3489  0.9330
  204MOL0     C27445   0.927   0.253   8.538 -0.3191 -0.2873 -0.2216
  204MOL0     C27446   0.904   0.394   8.489  0.0795 -0.1276  0.4899
  204MOL0     C27447   1.025   0.436   8.395  0.1221 -0.5588  0.0388
  204MOL0     C27448   1.008   0.580   8.337 -0.9628  0.1672 -0.0849
  204MOL0     C27449   1.140   0.659   8.348  0.1380 -0.2060 -1.1092
  204MOL0    Cl27450   1.182   0.674   8.522 -0.4164  0.5126 -0.4231
  204MOL0     C27451   0.441   0.149   8.743  0.5508  0.2584  0.4287
  204MOL0     C27452   0.312   0.173   8.795  0.7855  0.1966 -0.0624
  204MOL0     O27453   0.046   0.045   8.752 -0.5944 -0.5460 -0.8926
  204MOL0     C27454  -0.210   0.036   8.868  0.8562 -0.4716 -0.4505
  204MOL0     C27455  -0.342   0.015   8.927  0.2633  0.2507  1.1708
  204MOL0     N27456  -0.947   0.281   9.401  0.5263 -0.5200  0.0702
  204MOL0     N27457  -0.940   0.279   9.532 -0.4384  0.3711 -0.2295
  204MOL0     C27458   0.097  -0.077   9.678  0.4827 -1.6089 -0.5375
  204MOL0     C27459   0.215  -0.123   9.740 -0.1633  0.2847  0.0341
  204MOL0     C27460   0.685  -0.026   9.845  0.1864 -0.8332 -0.3962
  204MOL0     C27461   0.768   0.072   9.897  0.1977 -0.6099 -0.9414
  204MOL0     C27462   0.906   0.044   9.909  0.6048  0.2213  0.5988
  204MOL0     C27463   0.950  -0.089   9.902  0.0509 -1.0863 -0.7973
  204MOL0     O27464   1.083  -0.101   9.926 -0.2748 -0.4355 -0.1172
  204MOL0     C27465   1.153  -0.228   9.937  0.2514 -0.1460 -0.0988
  204MOL0     C27466   1.273  -0.206   9.856 -0.0030  0.1717  0.6649
  204MOL0     C27467   1.367  -0.113   9.935  0.1932  0.4832  0.6992
  204MOL0     C27468   1.486  -0.076   9.847  0.7835  1.0360  0.3164
  204MOL0     C27469   1.582   0.005   9.912 -0.3764  0.4131  0.1077
  204MOL0     C27470   1.665   0.084   9.954 -0.1761  0.5223 -0.4572
  204MOL0     C27471   0.871  -0.184   9.841  0.8577  0.2426 -0.2406
  204MOL0     C27472   0.737  -0.155   9.808  0.6125 -0.3908 -0.0622
  204MOL0     H27473   0.428   0.098   9.592 -1.1585  1.0382  1.4965
  204MOL0     H27474   0.238   0.170   9.497  2.9936 -2.0792 -2.5298
  204MOL0     H27475  -0.040   0.228   9.668 -1.3172  0.4249 -0.2683
  204MOL0     H27476   0.022   0.260   9.497  1.4641 -1.4792  0.7891
  204MOL0     H27477  -0.177   0.378   9.546 -1.9590 -0.1526 -0.8654
  204MOL0     H27478  -0.199   0.281   9.416  0.3868  1.2258 -0.1658
  204MOL0     H27479  -0.290   0.225   9.701 -1.4181  2.1954  0.2216
  204MOL0     H27480  -0.388   0.291   9.566 -2.6735 -1.9044  0.3266
  204MOL0     H27481  -0.391   0.102   9.435 -2.2403  0.4430  2.0043
  204MOL0     H27482  -0.278   0.004   9.531  1.2531  1.0829 -0.9596
  204MOL0     H27483  -0.510  -0.067   9.609 -0.0434  0.2078  2.1952
  204MOL0     H27484  -0.437   0.035   9.730  0.5221  0.2861 -0.0272
  204MOL0     H27485  -0.574   0.223   9.643  0.2746  0.1137 -0.5664
  204MOL0     H27486  -0.642   0.110   9.509  0.3185  0.9338 -0.2427
  204MOL0     H27487  -0.716  -0.043   9.680  2.1665 -0.4241  1.4333
  204MOL0     H27488  -0.657   0.060   9.807  2.1161  0.3076 -0.6982
  204MOL0     H27489  -0.821   0.242   9.747 -0.0186  1.9057 -4.3053
  204MOL0     H27490  -0.913   0.085   9.755 -0.0438  0.4043  0.3687
  204MOL0     H27491  -0.879  -0.029   9.476 -1.3675 -0.4256  2.1206
  204MOL0     H27492  -0.973   0.004   9.220  2.5248  0.0541  0.9796
  204MOL0     H27493  -1.020   0.168   9.159  1.5422  0.6399 -3.1027
  204MOL0     H27494  -0.802   0.236   9.125 -3.4279  0.7657 -1.2696
  204MOL0     H27495  -0.843   0.095   9.029  2.0919 -4.5676  0.6172
  204MOL0     H27496  -0.751  -0.064   9.191  0.1512 -0.1722 -2.0213
  204MOL0     H27497  -0.669   0.079   9.274  1.5685  0.8872 -0.0628
  204MOL0     H27498  -0.568   0.147   9.075 -0.0803  0.1387  0.6358
  204MOL0     H27499  -0.615   0.007   8.977  3.6001  0.4211 -0.3663
  204MOL0     H27500  -0.251   0.025   9.252  0.6445  0.6100 -0.4948
  204MOL0     H27501   0.071   0.021   9.176 -0.7376 -0.4622  3.7264
  204MOL0     H27502   0.044   0.192   9.148 -1.3026  0.3021  2.5485
  204MOL0     H27503  -0.030   0.116   9.276  2.8620  0.1661  0.2700
  204MOL0     H27504   0.313  -0.082   9.029  2.9220 -1.0957 -0.4829
  204MOL0     H27505   0.522  -0.126   8.914 -0.0743 -0.1457  0.9184
  204MOL0     H27506   0.691   0.163   8.861  1.3759  1.1880  0.6611
  204MOL0     H27507   0.763   0.015   8.886  1.5239 -0.2738 -1.7945
  204MOL0     H27508   0.936   0.106   8.747  0.3062 -0.3122 -1.0897
  204MOL0     H27509   0.845   0.014   8.632  4.5703  0.6391 -0.4048
  204MOL0     H27510   0.806   0.313   8.695 -3.2754  2.5717 -1.8151
  204MOL0     H27511   0.711   0.232   8.579 -0.9207  0.1629  1.1009
  204MOL0     H27512   1.015   0.240   8.602  2.1200 -0.6817 -3.4235
  204MOL0     H27513   0.929   0.171   8.466  0.9268 -0.9845  0.5718
  204MOL0     H27514   0.891   0.472   8.565 -1.0219  1.5624 -1.3402
  204MOL0     H27515   0.816   0.391   8.425  0.3643  0.8055  0.0302
  204MOL0     H27516   1.113   0.437   8.459  0.1812 -0.7867 -0.0375
  204MOL0     H27517   1.036   0.366   8.312 -1.3117 -0.1079 -0.5581
  204MOL0     H27518   0.925   0.628   8.390 -0.0630 -0.3420  1.8882
  204MOL0     H27519   0.969   0.565   8.236 -0.1568  0.8866 -0.5110
  204MOL0     H27520   1.134   0.759   8.305 -0.4058  0.1070 -0.3223
  204MOL0     H27521   1.216   0.610   8.287  1.3523  1.3924 -0.9336
  204MOL0     H27522   0.474   0.221   8.669  1.7809  0.3408  1.0318
  204MOL0     H27523   0.251   0.256   8.762  0.4390  0.4523  1.1509
  204MOL0     H27524  -0.213   0.049   8.760  2.5382 -1.1547 -0.6149
  204MOL0     H27525  -0.428  -0.005   8.864 -1.3999  0.9716  3.1162
  204MOL0     H27526  -0.001  -0.118   9.701 -0.3466  1.0073  1.0709
  204MOL0     H27527   0.220  -0.205   9.812  1.1348 -0.4718 -0.8656
  204MOL0     H27528   0.731   0.172   9.916  0.0457 -1.3192  3.9577
  204MOL0     H27529   0.975   0.116   9.951  0.3075 -0.4266  2.2498
  204MOL0     H27530   1.165  -0.247  10.044 -1.1155 -0.8579 -0.0456
  204MOL0     H27531   1.102  -0.319   9.905  2.2301 -1.1831 -0.4369
  204MOL0     H27532   1.253  -0.168   9.755  3.5435 -0.2371 -0.3556
  204MOL0     H27533   1.331  -0.299   9.850 -0.9194 -0.4768  1.6684
  204MOL0     H27534   1.398  -0.157  10.030  2.3743 -0.3702 -0.3432
  204MOL0     H27535   1.316  -0.016   9.945  0.0705  0.4911  0.0613
  204MOL0     H27536   1.455  -0.044   9.747 -2.9482  0.9826  1.3018
  204MOL0     H27537   1.533  -0.172   9.825  2.6858  1.0713  3.6237
  204MOL0     H27538   1.749   0.133   9.999  1.1925 -3.7582  2.1949
  204MOL0     H27539   0.909  -0.284   9.820 -1.4597 -0.2048 -2.7805
  204MOL0     H27540   0.675  -0.216   9.742  1.7150  0.0932 -1.5923
  205MOL0     O27541   3.630   1.017   4.097 -0.2325 -0.9186  0.0880
  205MOL0     C27542   3.625   0.982   4.213  0.8180 -0.4369 -0.6522
  205MOL0     O27543   3.538   1.028   4.302 -0.1481 -0.1172  0.3886
  205MOL0     C27544   3.477   1.133   4.257  1.8745  0.3604  0.0604
  205MOL0     C27545   3.362   1.121   4.174  0.3772 -1.0811  0.2637
  205MOL0     C27546   3.283   1.230   4.132  0.1222 -1.0094 -0.6223
  205MOL0     C27547   3.313   1.359   4.183 -0.4453 -0.8206  0.3017
  205MOL0     O27548   3.233   1.471   4.166 -0.6186  0.2835  0.5559
  205MOL0     C27549   3.125   1.468   4.075 -0.5966  0.4457 -0.1390
  205MOL0     C27550   3.059   1.606   4.063 -0.3413  1.0135 -0.5141
  205MOL0     C27551   2.916   1.585   4.000  0.8635  0.3242 -0.2205
  205MOL0     C27552   2.853   1.717   3.958 -0.0251  0.2095 -0.4159
  205MOL0     C27553   2.714   1.689   3.908  0.2916  0.3433  1.0462
  205MOL0     C27554   2.642   1.810   3.845  0.6587 -0.0297 -0.2739
  205MOL0     C27555   2.492   1.796   3.859  0.4400 -0.0078 -0.8516
  205MOL0     C27556   2.419   1.916   3.803 -0.0635  0.7837  0.5966
  205MOL0     N27557   2.399   1.897   3.662  0.1002  0.2548 -0.1074
  205MOL0     C27558   2.307   1.801   3.621  0.8831  0.1326 -0.7953
  205MOL0     C27559   2.270   1.832   3.497  0.4423  0.0474 -0.0463
  205MOL0     C27560   2.185   1.748   3.408  0.0289  0.0620  0.8824
  205MOL0     C27561   2.051   1.814   3.373 -0.3308 -0.4004  0.4077
  205MOL0     C27562   1.963   1.713   3.301 -0.2294 -0.1654  0.9177
  205MOL0     C27563   1.998   1.676   3.152 -0.2688 -0.1096  0.1220
  205MOL0     O27564   1.876   1.619   3.094 -0.0184 -0.8665  0.1075
  205MOL0     C27565   1.887   1.530   2.995  0.2098 -0.4602  0.2349
  205MOL0     C27566   1.965   1.417   2.994 -0.9195  0.5792 -0.6462
  205MOL0     C27567   1.964   1.327   2.885  0.4808 -0.8010 -0.3387
  205MOL0     C27568   2.048   1.206   2.887 -1.1726 -0.9783  0.4896
  205MOL0     C27569   1.875   1.366   2.774  0.2862  0.2487 -0.0587
  205MOL0     C27570   1.873   1.289   2.646 -0.6138 -0.7565 -0.3240
  205MOL0     O27571   1.771   1.286   2.569 -0.8831 -1.0111 -0.3038
  205MOL0     C27572   1.787   1.248   2.436 -0.1301 -0.3783  0.1454
  205MOL0     C27573   1.889   1.286   2.347  0.7930  0.0689  0.4163
  205MOL0     C27574   1.882   1.245   2.206 -0.2007  0.0527 -1.4389
  205MOL0     C27575   1.784   1.164   2.163 -0.5873  0.6678 -0.7070
  205MOL0     O27576   1.790   1.136   2.021 -0.7007  0.2015 -0.4081
  205MOL0     C27577   1.673   1.075   1.958 -0.2915  0.3027 -1.1240
  205MOL0     C27578   1.716   1.068   1.809  0.3856  0.0849 -0.8738
  205MOL0     C27579   1.615   0.990   1.726 -0.6214  0.0478  0.8861
  205MOL0     C27580   1.494   1.088   1.698  0.0614 -0.4907  0.7469
  205MOL0     C27581   1.518   1.159   1.563 -0.2090  0.4306  0.2859
  205MOL0     C27582   1.445   1.090   1.450 -0.1302 -0.8615  0.6371
  205MOL0     C27583   1.479   1.138   1.299 -0.6109  0.3936 -0.6643
  205MOL0     C27584   1.606   1.081   1.250  0.4533 -0.0784 -0.3090
  205MOL0    Cl27585   1.633   1.167   1.102 -0.1612  0.4280  0.3254
  205MOL0     C27586   1.683   1.119   2.254 -0.7160 -0.1013 -0.1793
  205MOL0     C27587   1.685   1.169   2.387 -0.1113 -0.7133 -0.1464
  205MOL0     O27588   1.971   1.217   2.619 -0.2744 -0.8717  0.3822
  205MOL0     C27589   1.788   1.478   2.785  0.6106  0.0164  0.1529
  205MOL0     C27590   1.801   1.561   2.892  0.4727 -0.4869  0.8363
  205MOL0     N27591   2.332   1.949   3.462 -0.0668 -0.1001 -0.0839
  205MOL0     N27592   2.420   1.985   3.558  1.0601  0.1508 -0.1839
  205MOL0     C27593   3.425   1.374   4.267  0.4432  0.3892  0.7534
  205MOL0     C27594   3.507   1.258   4.301  0.6363 -0.4481 -0.5420
  205MOL0     C27595   3.690   0.862   4.257  0.3207 -0.1411 -0.7266
  205MOL0     C27596   3.716   0.829   4.397  0.5116  0.7243  0.2249
  205MOL0     C27597   3.773   0.708   4.430  0.6311 -0.0493  0.7021
  205MOL0     C27598   3.798   0.620   4.327 -0.1920  0.1529  0.5433
  205MOL0     O27599   3.834   0.492   4.358  0.3863 -0.2057  0.2520
  205MOL0     C27600   3.929   0.462   4.460 -0.0636 -0.1575 -0.5264
  205MOL0     C27601   4.059   0.406   4.405  0.0482  0.1809  0.0653
  205MOL0     C27602   4.039   0.302   4.295  0.7534 -0.8202  0.1259
  205MOL0     C27603   3.973   0.164   4.331 -0.3227 -0.6577 -0.2452
  205MOL0     C27604   3.967   0.050   4.241 -0.9151 -0.1390  1.1976
  205MOL0     C27605   3.973  -0.032   4.152 -0.4066  0.8300  0.5232
  205MOL0     C27606   3.791   0.648   4.188 -0.6824 -0.6476 -0.1145
  205MOL0     C27607   3.744   0.778   4.153  0.6808  0.3659 -0.5050
  205MOL0     H27608   3.335   1.021   4.142  1.9714 -0.6942 -2.6451
  205MOL0     H27609   3.206   1.193   4.065 -0.3178 -0.0536 -0.6704
  205MOL0     H27610   3.150   1.427   3.977  1.8374  1.7983 -0.1551
  205MOL0     H27611   3.054   1.405   4.130  2.9728 -1.2196  2.9639
  205MOL0     H27612   3.049   1.642   4.166  2.1755  0.7053 -0.0860
  205MOL0     H27613   3.118   1.679   4.007 -1.1842  0.8013 -1.7318
  205MOL0     H27614   2.918   1.532   3.905  0.6996 -0.0046 -0.0420
  205MOL0     H27615   2.851   1.524   4.064 -2.2609  3.5843  0.0092
  205MOL0     H27616   2.849   1.776   4.050 -0.3069  0.0208 -0.3068
  205MOL0     H27617   2.923   1.771   3.894  0.4209 -0.8269 -0.8307
  205MOL0     H27618   2.726   1.629   3.818  0.4582  2.5462 -0.4843
  205MOL0     H27619   2.656   1.638   3.985  1.2461 -1.9939  0.3058
  205MOL0     H27620   2.680   1.903   3.888  1.4644 -0.4786  0.0097
  205MOL0     H27621   2.673   1.825   3.741  1.1593 -2.4612 -0.5414
  205MOL0     H27622   2.453   1.708   3.808 -3.8489  1.9377 -1.3258
  205MOL0     H27623   2.470   1.778   3.964  3.3332 -4.3661 -0.7345
  205MOL0     H27624   2.474   2.006   3.832 -0.4642  1.4915 -0.7485
  205MOL0     H27625   2.317   1.923   3.842 -0.2011  0.8222  0.2339
  205MOL0     H27626   2.274   1.708   3.667  2.2923 -1.4117 -2.6873
  205MOL0     H27627   2.244   1.724   3.319 -1.0942 -1.7989  0.5907
  205MOL0     H27628   2.159   1.660   3.467  2.0274  0.0953  1.8783
  205MOL0     H27629   2.056   1.898   3.304 -0.5795 -0.6569  0.0699
  205MOL0     H27630   2.006   1.851   3.465 -0.8913 -0.7326  0.2747
  205MOL0     H27631   1.859   1.745   3.290 -1.3987 -3.2617  1.8460
  205MOL0     H27632   1.955   1.621   3.360  0.0061 -0.7711  0.0257
  205MOL0     H27633   2.092   1.621   3.147  0.1428  0.6351 -0.4211
  205MOL0     H27634   2.016   1.765   3.092  2.4081 -0.6394  0.0260
  205MOL0     H27635   2.005   1.385   3.090 -4.5427  0.0687  0.8515
  205MOL0     H27636   2.130   1.212   2.815 -0.8340 -1.3387  0.8360
  205MOL0     H27637   2.092   1.183   2.985  0.7233  1.6469  0.3602
  205MOL0     H27638   1.985   1.123   2.854 -0.4556 -2.9701  3.6131
  205MOL0     H27639   1.952   1.369   2.377  0.6864  0.1598  0.3851
  205MOL0     H27640   1.951   1.290   2.134  0.2699  2.5883  0.4334
  205MOL0     H27641   1.662   0.977   2.004  1.3310  0.8718  0.6110
  205MOL0     H27642   1.585   1.137   1.978 -0.0549 -0.3520  2.5502
  205MOL0     H27643   1.719   1.173   1.779 -2.9829 -0.2949 -2.9915
  205MOL0     H27644   1.815   1.022   1.795 -0.3482 -1.1531 -2.4361
  205MOL0     H27645   1.586   0.905   1.788 -4.2587  0.6037  0.1468
  205MOL0     H27646   1.651   0.968   1.626 -1.8627 -2.0038  0.8300
  205MOL0     H27647   1.399   1.034   1.707  0.4006 -1.0303  1.1613
  205MOL0     H27648   1.490   1.161   1.779 -0.6479 -1.7684  1.9107
  205MOL0     H27649   1.626   1.156   1.544 -0.3314 -1.1039 -0.2472
  205MOL0     H27650   1.491   1.265   1.560  0.2748  0.5512 -0.0123
  205MOL0     H27651   1.462   0.982   1.460 -1.0799 -1.0978 -0.2369
  205MOL0     H27652   1.338   1.107   1.459 -0.1510  1.3795 -2.3661
  205MOL0     H27653   1.476   1.248   1.302  1.3411  0.4673  1.0336
  205MOL0     H27654   1.391   1.096   1.249 -1.8678 -0.4998  2.0722
  205MOL0     H27655   1.598   0.972   1.235 -3.1539  0.0994 -0.6217
  205MOL0     H27656   1.685   1.089   1.325 -0.7831 -3.7735  1.6841
  205MOL0     H27657   1.606   1.047   2.228 -0.9614  0.6559 -1.6183
  205MOL0     H27658   1.611   1.136   2.460 -0.5592  2.3051  0.9074
  205MOL0     H27659   1.721   1.498   2.703  1.3017  1.6168 -0.0613
  205MOL0     H27660   1.743   1.653   2.898  1.6071  0.3448 -0.4135
  205MOL0     H27661   3.448   1.467   4.318 -1.0901  0.6859  0.9778
  205MOL0     H27662   3.583   1.292   4.371  1.1944  3.0786 -2.6532
  205MOL0     H27663   3.670   0.888   4.476 -1.8453 -0.7661  0.0588
  205MOL0     H27664   3.800   0.687   4.533  2.3196 -0.2506  0.2473
  205MOL0     H27665   3.957   0.550   4.517  1.0753 -0.6780 -0.2535
  205MOL0     H27666   3.869   0.381   4.505  1.4103 -0.5873  0.7283
  205MOL0     H27667   4.118   0.358   4.484  1.2718 -1.4703 -1.7553
  205MOL0     H27668   4.104   0.488   4.348 -1.8075 -0.8294 -3.0910
  205MOL0     H27669   4.139   0.271   4.266  0.4080 -1.9007  0.0544
  205MOL0     H27670   3.985   0.340   4.208 -0.3106 -2.3935  0.0549
  205MOL0     H27671   3.874   0.195   4.364 -0.1640  0.8955 -1.1229
  205MOL0     H27672   4.030   0.124   4.416  1.5062  2.7068  0.3042
  205MOL0     H27673   3.984  -0.091   4.063  4.4164  2.3911 -0.2187
  205MOL0     H27674   3.825   0.572   4.118  1.5346  0.9625 -0.8997
  205MOL0     H27675   3.721   0.804   4.049  1.1882  3.0330 -0.0302
  206MOL0     O27676   9.224   9.166  11.397  0.1556 -0.8035  0.6706
  206MOL0     C27677   9.124   9.231  11.371 -0.7238 -0.0983 -0.6049
  206MOL0     O27678   9.126   9.367  11.338 -0.5589  0.3807 -0.6140
  206MOL0     C27679   9.233   9.399  11.268  0.3353  0.2746 -0.2107
  206MOL0     C27680   9.219   9.386  11.131 -0.2722 -0.1224  0.2952
  206MOL0     C27681   9.320   9.423  11.041  0.8593  0.2893  0.6005
  206MOL0     C27682   9.440   9.474  11.092 -0.2677  0.5552 -0.1218
  206MOL0     O27683   9.524   9.516  10.992 -0.5354  1.0403  0.0432
  206MOL0     C27684   9.661   9.524  11.037 -0.8843  0.0705  0.1887
  206MOL0     C27685   9.744   9.443  10.923  0.0992 -0.9614 -0.6586
  206MOL0     C27686   9.895   9.463  10.950  0.0392 -0.2137 -0.8539
  206MOL0     C27687   9.981   9.398  10.846 -0.4180 -0.5617 -0.0937
  206MOL0     C27688  10.134   9.405  10.850 -0.1894  0.5718 -0.2770
  206MOL0     C27689  10.211   9.305  10.939  0.1834 -0.1142 -0.6777
  206MOL0     C27690  10.229   9.179  10.860 -0.3019 -0.4894  0.9661
  206MOL0     C27691  10.304   9.074  10.941  0.3087 -0.4567 -0.0951
  206MOL0     N27692  10.339   8.971  10.847 -0.9679  0.4295 -1.2561
  206MOL0     C27693  10.263   8.879  10.778 -0.5097 -0.2029 -1.1215
  206MOL0     C27694  10.353   8.813  10.700  0.6668  0.2057  0.4588
  206MOL0     C27695  10.318   8.701  10.606 -0.4999 -0.8009 -0.5663
  206MOL0     C27696  10.272   8.759  10.469 -0.7312  0.4662 -0.4121
  206MOL0     C27697  10.152   8.679  10.399 -0.3845  0.7104 -0.2460
  206MOL0     C27698  10.100   8.767  10.281 -1.0535  0.9931 -0.0647
  206MOL0     O27699  10.180   8.739  10.164 -0.5695  0.3067 -0.1830
  206MOL0     C27700  10.120   8.821  10.062 -1.2513  0.8920  0.0213
  206MOL0     C27701  10.178   8.947  10.022 -0.2396  0.2596 -0.9078
  206MOL0     C27702  10.127   9.022   9.916  0.5409 -0.3477  0.2579
  206MOL0     C27703  10.199   9.153   9.891 -0.3168  0.6257  0.3767
  206MOL0     C27704  10.040   8.953   9.832  0.0701 -0.3946 -0.6053
  206MOL0     C27705   9.999   9.006   9.696 -0.8738  0.5337 -0.1892
  206MOL0     O27706   9.902   8.937   9.627  0.7088  0.3958 -0.1703
  206MOL0     C27707   9.902   8.924   9.494 -0.3766 -1.1902  0.7989
  206MOL0     C27708   9.881   9.032   9.412 -0.0935 -0.1416 -0.6194
  206MOL0     C27709   9.860   9.014   9.279 -0.2915 -0.1021 -0.3064
  206MOL0     C27710   9.850   8.883   9.226  0.0416 -1.1368  1.0347
  206MOL0     O27711   9.808   8.875   9.091  0.0744 -0.1547  0.0816
  206MOL0     C27712   9.918   8.834   9.004 -1.0226 -0.6258  0.2199
  206MOL0     C27713  10.053   8.902   9.011 -0.0189  0.0419  0.1778
  206MOL0     C27714  10.036   9.046   8.956  0.0574 -0.1522  0.0165
  206MOL0     C27715  10.173   9.088   8.904  0.6182 -0.2729  0.7422
  206MOL0     C27716  10.167   9.227   8.849 -0.0414  0.5824 -0.1898
  206MOL0     C27717  10.298   9.246   8.757 -0.7818  0.4347  0.3235
  206MOL0     C27718  10.303   9.385   8.700 -0.6704 -0.9808 -0.0616
  206MOL0     C27719  10.184   9.420   8.607 -0.1009  0.1924  0.3491
  206MOL0    Cl27720  10.244   9.589   8.542 -0.4821 -0.3140 -0.0001
  206MOL0     C27721   9.875   8.778   9.308  0.2692  0.4398 -0.3238
  206MOL0     C27722   9.905   8.798   9.442 -0.1585  0.9826  0.2015
  206MOL0     O27723  10.060   9.096   9.646 -0.2676 -0.2515  0.4955
  206MOL0     C27724   9.975   8.832   9.880  0.7811 -1.6367 -0.2669
  206MOL0     C27725  10.011   8.774   9.997  0.1294 -1.0824  0.4692
  206MOL0     N27726  10.477   8.867  10.728  0.3392 -0.1958  0.1258
  206MOL0     N27727  10.472   8.949  10.823 -0.0841 -0.1443 -0.6613
  206MOL0     C27728   9.464   9.476  11.231 -0.1250 -0.6080 -0.3984
  206MOL0     C27729   9.357   9.448  11.321  0.3128  1.1285  0.1356
  206MOL0     C27730   8.995   9.167  11.409  0.5963 -0.3919  0.5422
  206MOL0     C27731   8.990   9.025  11.404 -1.0725 -0.7505  0.3533
  206MOL0     C27732   8.868   8.968  11.414  0.6875  1.1285 -0.1024
  206MOL0     C27733   8.753   9.049  11.451 -0.0391  0.0121 -1.0549
  206MOL0     O27734   8.626   8.991  11.470  0.1937  0.0311  1.1299
  206MOL0     C27735   8.575   8.915  11.363  0.2785 -0.5116  0.7241
  206MOL0     C27736   8.492   8.801  11.425 -0.2840  0.1228  0.1653
  206MOL0     C27737   8.574   8.696  11.504 -0.5127 -0.1969  0.0828
  206MOL0     C27738   8.479   8.594  11.562  0.4478 -0.8030 -0.1599
  206MOL0     C27739   8.363   8.652  11.625 -0.0883  0.1943 -0.6371
  206MOL0     C27740   8.253   8.687  11.672 -1.3530 -0.4772  0.2552
  206MOL0     C27741   8.761   9.183  11.489 -0.4477  0.2319  0.0421
  206MOL0     C27742   8.889   9.245  11.464  0.0832 -0.0518  0.1759
  206MOL0     H27743   9.129   9.345  11.087 -0.3423  0.4382 -0.0931
  206MOL0     H27744   9.300   9.419  10.934 -1.4334 -0.1999  0.9931
  206MOL0     H27745   9.695   9.627  11.050 -2.5006  0.6094  0.3954
  206MOL0     H27746   9.690   9.480  11.133  1.4732  1.5038  0.2087
  206MOL0     H27747   9.715   9.338  10.931  1.3042 -1.2245  0.4767
  206MOL0     H27748   9.718   9.480  10.823 -0.2042 -0.8747 -0.5513
  206MOL0     H27749   9.915   9.570  10.940 -2.8266  0.2633 -2.4938
  206MOL0     H27750   9.927   9.432  11.050  2.4349  0.9875 -1.1518
  206MOL0     H27751   9.948   9.295  10.836  0.0531 -0.9463  1.9393
  206MOL0     H27752   9.949   9.431  10.746  0.6003  0.7623 -0.0169
  206MOL0     H27753  10.177   9.392  10.750  1.1680 -1.4545  0.5015
  206MOL0     H27754  10.165   9.506  10.877  1.4647  0.1103 -0.3616
  206MOL0     H27755  10.312   9.346  10.948  0.2428 -0.1573 -1.0980
  206MOL0     H27756  10.169   9.285  11.038  5.1927 -2.4284  1.2997
  206MOL0     H27757  10.130   9.138  10.838  0.3316 -2.5894  1.7821
  206MOL0     H27758  10.277   9.203  10.764  1.5433  0.9016  2.1577
  206MOL0     H27759  10.255   9.043  11.034  4.0611 -2.2981  1.4939
  206MOL0     H27760  10.396   9.120  10.979  1.9473 -3.0882 -0.6433
  206MOL0     H27761  10.154   8.876  10.781 -0.4931 -1.3961 -1.4348
  206MOL0     H27762  10.404   8.634  10.599  0.3155  0.0546  0.9184
  206MOL0     H27763  10.234   8.647  10.651 -1.7054  1.4931  0.1018
  206MOL0     H27764  10.363   8.754  10.409  0.2907 -0.1072  1.1268
  206MOL0     H27765  10.241   8.864  10.472 -2.1845  0.0822 -1.1206
  206MOL0     H27766  10.072   8.675  10.473 -1.4562  1.6697 -1.3247
  206MOL0     H27767  10.174   8.579  10.361 -1.5105 -0.1922  1.3945
  206MOL0     H27768  10.119   8.873  10.302  0.2301  1.0584 -1.3486
  206MOL0     H27769   9.993   8.765  10.262 -1.0776  3.7535 -0.6671
  206MOL0     H27770  10.264   8.982  10.078  0.2941 -0.4114 -1.2945
  206MOL0     H27771  10.296   9.120   9.852 -1.9175 -0.3793 -3.0904
  206MOL0     H27772  10.142   9.219   9.825 -1.2849 -2.1205 -1.6992
  206MOL0     H27773  10.206   9.208   9.986 -0.8442  1.8357 -0.2598
  206MOL0     H27774   9.875   9.133   9.450  1.7298 -0.5106  0.7350
  206MOL0     H27775   9.844   9.105   9.221  0.5147  0.1173 -0.1958
  206MOL0     H27776   9.943   8.730   9.024 -0.6730 -0.3697  1.1606
  206MOL0     H27777   9.880   8.836   8.902 -1.6422 -1.6929  0.4204
  206MOL0     H27778  10.095   8.908   9.112 -0.4397  3.4032  0.2694
  206MOL0     H27779  10.121   8.839   8.954  2.5867 -1.2641  4.2396
  206MOL0     H27780  10.003   9.121   9.027  1.3422  0.2651  0.2051
  206MOL0     H27781   9.960   9.042   8.878 -0.4315  1.2108  0.4021
  206MOL0     H27782  10.248   9.083   8.984 -0.7328  0.3305  2.0900
  206MOL0     H27783  10.207   9.024   8.822 -1.6057 -0.5267 -0.0444
  206MOL0     H27784  10.159   9.303   8.928 -0.1500  0.2008  0.1749
  206MOL0     H27785  10.078   9.231   8.787 -0.2309  0.6693  0.0865
  206MOL0     H27786  10.388   9.229   8.817 -1.6482 -1.3426  1.1927
  206MOL0     H27787  10.297   9.179   8.671 -0.7130  1.5567 -0.5667
  206MOL0     H27788  10.397   9.398   8.647 -0.4547 -0.6179  0.3993
  206MOL0     H27789  10.298   9.461   8.779 -1.4729 -1.7379  0.6442
  206MOL0     H27790  10.092   9.426   8.666 -0.5611 -2.3009 -0.0092
  206MOL0     H27791  10.177   9.351   8.522 -2.7965  0.9796 -0.1768
  206MOL0     H27792   9.876   8.678   9.266 -0.4696  0.1445  0.3348
  206MOL0     H27793   9.919   8.720   9.516  3.1137  0.3414 -0.9288
  206MOL0     H27794   9.916   8.781   9.804 -1.0262  2.2011 -1.7007
  206MOL0     H27795   9.959   8.683  10.027 -0.6766 -0.5527  0.7180
  206MOL0     H27796   9.546   9.535  11.271  0.4464 -1.9610  0.4850
  206MOL0     H27797   9.358   9.469  11.427 -2.7641  2.1910  0.0400
  206MOL0     H27798   9.082   8.972  11.383  0.5403  2.5810 -1.8512
  206MOL0     H27799   8.858   8.864  11.384  2.2088  1.8020 -3.4100
  206MOL0     H27800   8.499   8.971  11.308  1.9741  1.8562  0.6563
  206MOL0     H27801   8.653   8.882  11.294 -1.3699 -1.2499 -0.8640
  206MOL0     H27802   8.417   8.763  11.356 -1.3369 -2.5355  2.5593
  206MOL0     H27803   8.420   8.846  11.494 -1.0007  1.7848 -1.5678
  206MOL0     H27804   8.636   8.750  11.576  2.1214 -1.2717 -1.2424
  206MOL0     H27805   8.644   8.642  11.439  1.4030  2.0585  0.1394
  206MOL0     H27806   8.530   8.538  11.641  2.1981  0.3703 -0.4125
  206MOL0     H27807   8.438   8.521  11.492 -1.9863 -2.0548  2.3684
  206MOL0     H27808   8.151   8.717  11.687 -1.6289 -0.3586 -1.5608
  206MOL0     H27809   8.685   9.246  11.534  1.4731  0.1850  3.7757
  206MOL0     H27810   8.899   9.351  11.481  0.9864  0.0002 -0.5762
  207MOL0     O27811   5.890   9.518   3.064 -0.1761 -0.0962 -0.2783
  207MOL0     C27812   5.974   9.461   3.005 -0.0570 -0.2937  0.0154
  207MOL0     O27813   5.993   9.471   2.870 -0.2889 -0.0184 -0.3251
  207MOL0     C27814   5.910   9.552   2.792 -0.2178 -0.5406  0.2888
  207MOL0     C27815   5.905   9.688   2.835 -0.6187 -0.3019 -0.0219
  207MOL0     C27816   5.815   9.783   2.773  0.1559  0.2075 -0.0692
  207MOL0     C27817   5.754   9.753   2.648  0.9514 -0.2463  0.6115
  207MOL0     O27818   5.689   9.853   2.573  0.9482  0.4131 -0.2305
  207MOL0     C27819   5.709   9.841   2.436 -0.9171  1.0444 -0.1882
  207MOL0     C27820   5.667   9.972   2.378  0.0329  0.9277 -0.3374
  207MOL0     C27821   5.653   9.980   2.226  0.1304  1.0632 -0.1254
  207MOL0     C27822   5.775   9.944   2.151 -0.5159 -0.5731  0.6533
  207MOL0     C27823   5.755   9.954   2.000 -0.2322 -0.0480  0.2465
  207MOL0     C27824   5.894   9.941   1.923  0.3054 -1.4471 -0.0073
  207MOL0     C27825   5.879   9.968   1.774 -1.1386 -0.1476 -0.5817
  207MOL0     C27826   6.011   9.955   1.694  0.5481  0.3680 -0.5842
  207MOL0     N27827   5.994   9.974   1.551  0.8890  0.0808 -0.1997
  207MOL0     C27828   5.955  10.087   1.479  0.0965 -0.5773  0.9735
  207MOL0     C27829   5.959  10.050   1.352  0.6805 -0.0708 -0.3607
  207MOL0     C27830   5.940  10.137   1.233 -0.0832  0.2530  0.2210
  207MOL0     C27831   5.813  10.218   1.258  0.3491  0.4636  0.1705
  207MOL0     C27832   5.776  10.310   1.136 -0.7890  0.5198 -0.3637
  207MOL0     C27833   5.663  10.403   1.169 -1.4085 -0.3768  0.3033
  207MOL0     O27834   5.555  10.335   1.221  0.0326 -0.4618 -0.2941
  207MOL0     C27835   5.490  10.255   1.129  0.2398  0.5075 -0.4365
  207MOL0     C27836   5.400  10.170   1.194 -0.3860 -0.3940 -0.5639
  207MOL0     C27837   5.322  10.081   1.126  0.5548 -0.3559 -0.1694
  207MOL0     C27838   5.243   9.973   1.209 -0.2980  0.5301 -0.2375
  207MOL0     C27839   5.316  10.088   0.981  0.1641 -0.4593  0.2806
  207MOL0     C27840   5.232  10.007   0.892  0.3750 -0.0771 -0.1344
  207MOL0     O27841   5.243  10.032   0.758  0.9876  0.0436  0.4001
  207MOL0     C27842   5.153   9.970   0.674  0.7807 -0.0915  0.5572
  207MOL0     C27843   5.116   9.831   0.684  0.3603 -0.0746 -0.3445
  207MOL0     C27844   5.015   9.786   0.600  1.0242 -1.0503  0.4396
  207MOL0     C27845   4.961   9.870   0.490 -0.2692  0.5147 -0.6277
  207MOL0     O27846   4.856   9.810   0.422  0.1466  0.4065  0.4949
  207MOL0     C27847   4.810   9.867   0.298  0.2469 -0.1025  0.4323
  207MOL0     C27848   4.681   9.778   0.256  0.2704  0.4428 -0.1394
  207MOL0     C27849   4.630   9.833   0.121 -0.2486  0.1972 -0.7475
  207MOL0     C27850   4.527   9.751   0.068  0.6121  0.9679 -0.2123
  207MOL0     C27851   4.457   9.793  -0.063  0.3293 -0.8592  1.2331
  207MOL0     C27852   4.408   9.678  -0.144  0.0583  0.2634  0.4458
  207MOL0     C27853   4.331   9.702  -0.277  1.1162  0.1502 -0.2900
  207MOL0     C27854   4.421   9.702  -0.400 -0.9280 -0.8943 -0.1543
  207MOL0    Cl27855   4.470   9.534  -0.417  0.3920 -0.2422  0.1776
  207MOL0     C27856   5.006   9.998   0.481 -0.4644 -0.5178  0.3104
  207MOL0     C27857   5.091  10.050   0.578 -0.1666  0.0241 -0.0031
  207MOL0     O27858   5.138   9.937   0.942 -0.7903  0.1826  0.0408
  207MOL0     C27859   5.408  10.181   0.918  0.3307 -0.7638 -0.2629
  207MOL0     C27860   5.498  10.261   0.991 -0.0307  0.0906 -1.0504
  207MOL0     N27861   6.006   9.920   1.336  0.4388  0.5117 -0.7441
  207MOL0     N27862   6.008   9.869   1.460  0.4036 -0.3211  0.7272
  207MOL0     C27863   5.742   9.618   2.626 -0.1236  0.4223 -0.3064
  207MOL0     C27864   5.821   9.517   2.691 -0.4043 -0.5737  0.7475
  207MOL0     C27865   6.059   9.362   3.067 -0.2074  0.4416 -0.5733
  207MOL0     C27866   6.060   9.339   3.207 -0.4242  0.0329  0.2522
  207MOL0     C27867   6.129   9.232   3.262 -0.6454 -0.4845 -0.1104
  207MOL0     C27868   6.215   9.148   3.193 -0.2790 -0.0920 -0.6534
  207MOL0     O27869   6.303   9.067   3.270 -0.0454 -0.6177 -0.0043
  207MOL0     C27870   6.259   8.928   3.264 -0.3059  0.0431 -0.7135
  207MOL0     C27871   6.330   8.842   3.373 -0.5703  0.3154 -0.0526
  207MOL0     C27872   6.471   8.808   3.327 -0.1452  1.3833 -0.1740
  207MOL0     C27873   6.536   8.696   3.411  0.0572  1.1218  0.9870
  207MOL0     C27874   6.588   8.726   3.542  0.1318 -0.7885 -0.8482
  207MOL0     C27875   6.643   8.740   3.645  0.3144  0.4732 -0.5566
  207MOL0     C27876   6.233   9.177   3.059  0.3273 -0.3397  0.5202
  207MOL0     C27877   6.156   9.289   3.002  0.4511 -0.4357  0.3056
  207MOL0     H27878   5.976   9.720   2.911 -1.0405  2.4902 -0.6816
  207MOL0     H27879   5.824   9.883   2.814 -0.9426  2.3920 -4.5030
  207MOL0     H27880   5.813   9.814   2.416 -0.7238  1.0803  0.7310
  207MOL0     H27881   5.659   9.754   2.391 -2.0309  1.4736  0.1915
  207MOL0     H27882   5.574  10.007   2.423 -0.3762  3.1046 -2.6249
  207MOL0     H27883   5.747  10.042   2.407 -0.2215  1.8732 -1.7967
  207MOL0     H27884   5.572   9.916   2.189  0.6479 -2.3899  3.8907
  207MOL0     H27885   5.625  10.084   2.209  3.2827  2.0875  0.3766
  207MOL0     H27886   5.863  10.001   2.183  1.6556 -3.5665  0.5354
  207MOL0     H27887   5.794   9.837   2.164 -3.0106 -1.1003  0.4733
  207MOL0     H27888   5.673   9.884   1.981  1.5558 -2.7019  1.6538
  207MOL0     H27889   5.702  10.044   1.968  0.7056 -0.4149 -2.6973
  207MOL0     H27890   5.952  10.022   1.969 -0.3404 -1.1277  0.2512
  207MOL0     H27891   5.956   9.854   1.943 -0.1329 -2.1117 -1.4423
  207MOL0     H27892   5.806   9.901   1.728 -2.5719 -0.3919  1.8262
  207MOL0     H27893   5.839  10.069   1.760 -4.1519 -0.9124  1.4824
  207MOL0     H27894   6.055   9.856   1.712 -0.2865  0.0433 -0.3057
  207MOL0     H27895   6.092  10.022   1.725  0.9723 -0.0091 -0.8733
  207MOL0     H27896   5.942  10.189   1.514  3.1935  0.5090 -0.6053
  207MOL0     H27897   6.024  10.205   1.220 -0.3658  0.4081 -0.9089
  207MOL0     H27898   5.934  10.071   1.145 -2.3870 -0.4339  0.8153
  207MOL0     H27899   5.813  10.282   1.346 -6.9012  1.0606  0.3716
  207MOL0     H27900   5.726  10.154   1.274 -0.4658  1.4103 -0.3531
  207MOL0     H27901   5.749  10.255   1.045  0.4784  2.1931 -1.8222
  207MOL0     H27902   5.858  10.381   1.116  1.3972 -1.8622 -0.3667
  207MOL0     H27903   5.635  10.467   1.085 -0.2094 -0.4945 -0.2107
  207MOL0     H27904   5.702  10.470   1.247  1.7009 -1.9197  0.2218
  207MOL0     H27905   5.388  10.158   1.301 -3.5581 -1.6852 -0.9425
  207MOL0     H27906   5.261   9.876   1.161 -0.5228  0.8494 -0.9928
  207MOL0     H27907   5.284   9.962   1.309 -1.3713  1.2131  0.2922
  207MOL0     H27908   5.138  10.003   1.209 -0.7728 -0.7952  2.8195
  207MOL0     H27909   5.146   9.768   0.767 -1.1030  0.7911  0.8911
  207MOL0     H27910   4.987   9.682   0.599 -3.5952 -0.0497 -2.0163
  207MOL0     H27911   4.787   9.974   0.310  1.9752  0.5744 -1.7048
  207MOL0     H27912   4.883   9.855   0.218  1.6710  2.5367  1.2143
  207MOL0     H27913   4.715   9.675   0.245  2.2007  1.0157  0.0353
  207MOL0     H27914   4.599   9.794   0.327 -0.2491 -3.4480  0.3284
  207MOL0     H27915   4.714   9.835   0.051  2.1168  0.4884  1.9153
  207MOL0     H27916   4.591   9.934   0.138  0.3846  0.4769 -0.9301
  207MOL0     H27917   4.575   9.654   0.053 -0.2468  0.4889  0.0728
  207MOL0     H27918   4.452   9.739   0.146 -0.6023 -1.6300 -1.6497
  207MOL0     H27919   4.520   9.859  -0.123 -0.1956  1.8077  3.3848
  207MOL0     H27920   4.367   9.849  -0.036 -1.5737 -3.6899  1.1117
  207MOL0     H27921   4.502   9.629  -0.170 -1.0439 -1.9539  0.4364
  207MOL0     H27922   4.347   9.611  -0.083  0.8020  0.1624  1.0928
  207MOL0     H27923   4.282   9.798  -0.259  1.2293 -0.2687  2.7351
  207MOL0     H27924   4.260   9.624  -0.305 -1.5893  2.9811 -2.0096
  207MOL0     H27925   4.508   9.768  -0.390  0.2383 -2.4067  0.1118
  207MOL0     H27926   4.366   9.732  -0.490  0.7965 -0.0804 -0.9833
  207MOL0     H27927   4.969  10.063   0.403 -0.3565 -2.1475 -1.1386
  207MOL0     H27928   5.117  10.156   0.576  2.5491 -0.5607 -2.3141
  207MOL0     H27929   5.421  10.184   0.810 -0.9173  3.1057 -0.4867
  207MOL0     H27930   5.579  10.317   0.944 -0.4617  2.1098  0.4743
  207MOL0     H27931   5.667   9.589   2.553 -0.0235  0.8596 -0.5899
  207MOL0     H27932   5.839   9.418   2.651  4.3481 -0.3600  1.8694
  207MOL0     H27933   6.003   9.406   3.271 -0.2177  2.2669 -1.7948
  207MOL0     H27934   6.130   9.220   3.370 -0.3265 -0.7565 -0.1414
  207MOL0     H27935   6.153   8.943   3.289  0.3119  4.9857  0.1315
  207MOL0     H27936   6.274   8.889   3.164  3.5157 -1.0847  0.1404
  207MOL0     H27937   6.272   8.750   3.386 -0.3518  0.3768  1.5063
  207MOL0     H27938   6.334   8.898   3.466  3.2349 -2.5003  1.7607
  207MOL0     H27939   6.533   8.898   3.326  0.6548  0.9066 -2.8224
  207MOL0     H27940   6.477   8.779   3.221  1.0721  0.3195  0.1564
  207MOL0     H27941   6.624   8.664   3.354 -1.4325 -1.5854 -0.0246
  207MOL0     H27942   6.469   8.610   3.427  2.0253  0.2189  6.6882
  207MOL0     H27943   6.679   8.754   3.744 -1.2592 -1.3835  0.3415
  207MOL0     H27944   6.305   9.128   2.994 -1.5999  0.4311 -2.3998
  207MOL0     H27945   6.181   9.321   2.901 -3.1530 -0.1394 -0.6144
  208MOL0     O27946   8.881   8.033   4.777 -0.6444  0.1299  0.4125
  208MOL0     C27947   8.959   8.128   4.791  0.7994 -0.3772  0.8654
  208MOL0     O27948   8.969   8.200   4.897 -0.1227 -0.2833 -0.6557
  208MOL0     C27949   8.916   8.151   5.013 -0.1837  0.3088 -0.2848
  208MOL0     C27950   8.790   8.194   5.053 -0.3619  0.0965  0.1957
  208MOL0     C27951   8.730   8.158   5.177 -0.2677  0.1811 -0.0663
  208MOL0     C27952   8.795   8.071   5.268  0.1750  1.2634  0.7197
  208MOL0     O27953   8.739   8.020   5.383 -0.5397  0.3568 -0.0787
  208MOL0     C27954   8.605   8.055   5.402  0.6347 -0.3650  0.1601
  208MOL0     C27955   8.540   7.956   5.509 -0.7078 -0.3894 -0.2276
  208MOL0     C27956   8.581   7.978   5.656  0.4655  0.1686  0.2766
  208MOL0     C27957   8.546   7.865   5.748 -0.2059 -0.9087 -0.8261
  208MOL0     C27958   8.403   7.842   5.797  0.0299 -0.3959 -0.1351
  208MOL0     C27959   8.340   7.980   5.847  0.7008  0.5603 -0.8943
  208MOL0     C27960   8.209   7.938   5.908  0.6113 -0.1967 -0.3977
  208MOL0     C27961   8.113   8.058   5.910  0.4168  0.6451  0.2088
  208MOL0     N27962   8.163   8.161   5.998  0.0351  0.1555  0.5974
  208MOL0     C27963   8.157   8.165   6.131 -0.0173 -0.3433 -0.4183
  208MOL0     C27964   8.172   8.297   6.166  0.7817 -0.2330 -0.3267
  208MOL0     C27965   8.161   8.358   6.306 -0.2835 -0.1811  0.1896
  208MOL0     C27966   8.029   8.430   6.331 -0.1983 -0.0488  0.2001
  208MOL0     C27967   8.015   8.443   6.483  0.1534  0.0293  0.5067
  208MOL0     C27968   7.954   8.311   6.536  0.3389 -0.4063  0.1591
  208MOL0     O27969   7.911   8.341   6.674  0.1026  0.5464  0.2476
  208MOL0     C27970   7.824   8.257   6.735 -0.5439 -0.0741  0.1193
  208MOL0     C27971   7.742   8.326   6.819  0.0304  0.4200  0.2295
  208MOL0     C27972   7.653   8.255   6.905 -0.0553  1.0575  0.0303
  208MOL0     C27973   7.578   8.340   7.003 -1.1517  0.0747  0.3422
  208MOL0     C27974   7.626   8.117   6.893  0.3273 -0.4227  1.2484
  208MOL0     C27975   7.523   8.041   6.962  0.7582 -0.1363 -0.2404
  208MOL0     O27976   7.518   7.912   6.917  0.2528  0.1504  0.2141
  208MOL0     C27977   7.409   7.844   6.962 -0.5793  0.5907  0.9945
  208MOL0     C27978   7.298   7.877   6.891  0.4891 -0.5126 -0.5057
  208MOL0     C27979   7.187   7.803   6.916 -0.5878 -0.5996  0.2449
  208MOL0     C27980   7.187   7.689   7.001  1.1968 -0.5469 -0.1837
  208MOL0     O27981   7.072   7.616   7.019 -0.1818 -0.3616 -0.4246
  208MOL0     C27982   6.971   7.685   7.094  0.6112  0.6527  0.1202
  208MOL0     C27983   6.858   7.581   7.111  0.5771  0.5705  0.2054
  208MOL0     C27984   6.748   7.643   7.196  0.7891 -0.8897  0.7575
  208MOL0     C27985   6.687   7.767   7.137  0.6335 -0.2178  0.9018
  208MOL0     C27986   6.564   7.822   7.207 -1.0640 -0.0940 -0.7830
  208MOL0     C27987   6.447   7.730   7.231 -0.1482 -0.1998 -0.6061
  208MOL0     C27988   6.328   7.801   7.296  0.6788 -0.1160  0.1018
  208MOL0     C27989   6.243   7.694   7.378 -1.7020 -0.2618  0.7187
  208MOL0    Cl27990   6.142   7.609   7.259 -0.1687 -0.5110  0.0575
  208MOL0     C27991   7.304   7.645   7.049  0.1408 -0.1813 -0.6092
  208MOL0     C27992   7.420   7.726   7.041  0.5110 -0.0886  0.1583
  208MOL0     O27993   7.462   8.084   7.059 -0.0225 -0.7091 -0.2777
  208MOL0     C27994   7.699   8.058   6.783  0.7659  0.3117  0.5122
  208MOL0     C27995   7.807   8.123   6.721 -0.2726 -0.1667  1.4741
  208MOL0     N27996   8.208   8.368   6.051 -0.4509 -0.6588  0.7864
  208MOL0     N27997   8.211   8.283   5.956  0.0488 -0.3541  0.1847
  208MOL0     C27998   8.921   8.037   5.226 -0.3571  0.6471 -1.0456
  208MOL0     C27999   8.987   8.075   5.101  1.6130  0.1662 -0.4358
  208MOL0     C28000   9.059   8.157   4.683  0.5632  0.0905 -0.1484
  208MOL0     C28001   9.152   8.264   4.699 -0.2519  0.0960  0.6940
  208MOL0     C28002   9.237   8.297   4.598  0.5393  0.8114 -0.4217
  208MOL0     C28003   9.262   8.204   4.499  0.3836 -0.4679  0.6140
  208MOL0     O28004   9.357   8.218   4.402  0.3087 -0.4056  0.7246
  208MOL0     C28005   9.386   8.352   4.356 -0.4935 -0.0114 -0.0169
  208MOL0     C28006   9.271   8.424   4.288  0.0081  0.1812 -0.1215
  208MOL0     C28007   9.202   8.337   4.184  0.6260  0.4091 -0.1446
  208MOL0     C28008   9.158   8.429   4.062 -0.8694  0.3230 -0.1120
  208MOL0     C28009   9.061   8.374   3.967  0.1033  0.3354 -1.2913
  208MOL0     C28010   8.971   8.325   3.895 -0.7624 -1.5731  0.6138
  208MOL0     C28011   9.176   8.088   4.478 -0.0219 -0.3767 -0.9300
  208MOL0     C28012   9.071   8.069   4.573  0.2497  0.1112  0.9323
  208MOL0     H28013   8.732   8.253   4.983  0.2947 -2.7759 -3.0262
  208MOL0     H28014   8.627   8.188   5.196 -0.4527 -1.3363  1.7149
  208MOL0     H28015   8.603   8.161   5.430  1.5412 -0.7680  1.9085
  208MOL0     H28016   8.549   8.045   5.309  2.0733  1.9262 -1.0398
  208MOL0     H28017   8.433   7.976   5.518 -0.5053 -0.3826  4.4584
  208MOL0     H28018   8.565   7.854   5.480 -1.0834 -0.7472  0.6855
  208MOL0     H28019   8.691   7.981   5.661  0.4057  0.0955  2.8851
  208MOL0     H28020   8.536   8.071   5.690  0.6845  0.8811 -1.2857
  208MOL0     H28021   8.587   7.772   5.708  1.5638 -0.1307 -0.8782
  208MOL0     H28022   8.596   7.885   5.843 -1.5952 -0.8853 -0.0693
  208MOL0     H28023   8.349   7.799   5.713 -0.4159 -1.0002  0.4518
  208MOL0     H28024   8.411   7.762   5.872  0.6980 -2.8696 -2.6652
  208MOL0     H28025   8.409   8.037   5.911 -0.1947 -1.2199  1.8351
  208MOL0     H28026   8.326   8.038   5.756 -0.1141 -0.6154 -1.5378
  208MOL0     H28027   8.151   7.861   5.855 -2.6292  1.0329  1.0797
  208MOL0     H28028   8.241   7.904   6.007  2.2472 -2.1571 -1.5195
  208MOL0     H28029   8.014   8.028   5.945  0.8896  0.9179  1.8459
  208MOL0     H28030   8.099   8.101   5.810  2.2456  1.0807  0.0921
  208MOL0     H28031   8.117   8.088   6.195 -0.6831 -1.3528 -1.9781
  208MOL0     H28032   8.165   8.274   6.376 -1.0090 -0.8222 -0.5261
  208MOL0     H28033   8.248   8.420   6.328  1.1240 -2.4700  1.4241
  208MOL0     H28034   7.944   8.378   6.286 -0.1383 -1.0336  1.1681
  208MOL0     H28035   8.026   8.531   6.290  0.4118  0.5789  1.6448
  208MOL0     H28036   7.944   8.526   6.485 -0.0024 -0.0736 -0.4785
  208MOL0     H28037   8.105   8.476   6.536 -1.6954 -0.5408  4.3936
  208MOL0     H28038   8.037   8.239   6.534  1.0584  0.3216  1.8042
  208MOL0     H28039   7.868   8.264   6.487 -0.2444 -0.6635  1.3825
  208MOL0     H28040   7.755   8.432   6.841 -1.3295  0.7337 -0.3470
  208MOL0     H28041   7.482   8.371   6.960 -0.0881  1.4562 -1.1659
  208MOL0     H28042   7.570   8.280   7.094  0.0193 -0.5397  0.0654
  208MOL0     H28043   7.646   8.423   7.028 -0.2780 -0.4052 -0.4072
  208MOL0     H28044   7.297   7.959   6.819 -0.9437  0.3013  0.3880
  208MOL0     H28045   7.094   7.812   6.861  0.4067 -4.6787 -2.6315
  208MOL0     H28046   6.997   7.732   7.189  1.0526  0.2596  0.1993
  208MOL0     H28047   6.944   7.770   7.030 -1.1681  1.2515  1.5838
  208MOL0     H28048   6.825   7.550   7.011 -0.5551 -1.7048  1.1957
  208MOL0     H28049   6.882   7.483   7.155  1.7452  0.9094  0.3499
  208MOL0     H28050   6.770   7.658   7.302 -2.4924  1.1423  1.3158
  208MOL0     H28051   6.674   7.562   7.202 -0.5444  0.1058 -1.1737
  208MOL0     H28052   6.761   7.848   7.144  1.1443 -0.6332  0.4133
  208MOL0     H28053   6.662   7.742   7.033  0.0208 -1.8518  1.4190
  208MOL0     H28054   6.534   7.917   7.163  0.2773  0.3333 -0.8239
  208MOL0     H28055   6.605   7.841   7.306 -0.0680 -2.6924 -0.6140
  208MOL0     H28056   6.412   7.692   7.135  1.0760 -1.8734 -0.4415
  208MOL0     H28057   6.487   7.648   7.292 -1.3576  0.4469  1.1474
  208MOL0     H28058   6.272   7.852   7.217 -0.6681 -0.4189  0.8201
  208MOL0     H28059   6.358   7.882   7.362 -2.8194 -0.7259  2.7552
  208MOL0     H28060   6.196   7.765   7.446 -0.7763  1.0316  0.0339
  208MOL0     H28061   6.295   7.619   7.440 -2.4209 -2.1579 -0.8542
  208MOL0     H28062   7.304   7.562   7.119 -2.9227  0.6802  0.5824
  208MOL0     H28063   7.513   7.696   7.090  0.5223 -3.7371 -1.7552
  208MOL0     H28064   7.675   7.953   6.769 -5.4335  1.4003  0.2102
  208MOL0     H28065   7.871   8.061   6.658 -2.5298  0.2665 -1.4703
  208MOL0     H28066   8.970   7.962   5.287  1.4273  0.2350 -2.8640
  208MOL0     H28067   9.083   8.026   5.084  1.1685 -1.2870  0.9659
  208MOL0     H28068   9.145   8.325   4.789  1.6008  0.1669  0.8318
  208MOL0     H28069   9.299   8.386   4.600 -0.0584  1.2844 -1.4819
  208MOL0     H28070   9.423   8.410   4.442 -0.3393 -0.7799  0.4437
  208MOL0     H28071   9.472   8.353   4.288 -1.8067  3.5012 -1.8680
  208MOL0     H28072   9.306   8.519   4.248 -0.1451  0.6547  0.8379
  208MOL0     H28073   9.199   8.459   4.364 -2.3620  0.3388 -2.2891
  208MOL0     H28074   9.115   8.286   4.225 -0.0930  2.3180  0.8270
  208MOL0     H28075   9.288   8.279   4.150 -0.8399 -1.4691 -0.8002
  208MOL0     H28076   9.251   8.463   4.016 -0.9181  1.0486  0.3113
  208MOL0     H28077   9.108   8.514   4.108  0.5901  2.1434 -1.7172
  208MOL0     H28078   8.898   8.318   3.816 -1.1217  1.2156  0.5726
  208MOL0     H28079   9.168   8.046   4.379 -0.6991 -0.2809 -0.9184
  208MOL0     H28080   9.001   7.989   4.550 -2.4899  1.7708  2.8036
  209MOL0     O28081   5.623   3.002   0.106  0.0377  0.0095  0.3153
  209MOL0     C28082   5.726   2.952   0.064  0.0612  0.1621  0.0742
  209MOL0     O28083   5.852   2.986   0.106  0.2064 -0.0939  0.8064
  209MOL0     C28084   5.881   3.078   0.200 -0.0190 -0.3934 -0.0578
  209MOL0     C28085   6.002   3.064   0.254  0.8110 -0.2132 -0.8380
  209MOL0     C28086   6.046   3.161   0.348  0.2712  0.1116 -0.2982
  209MOL0     C28087   5.976   3.266   0.392 -0.2618  0.5333  0.7201
  209MOL0     O28088   6.020   3.361   0.481  0.6086 -0.0227  0.5107
  209MOL0     C28089   6.160   3.379   0.502 -0.4361 -0.8396 -0.9384
  209MOL0     C28090   6.193   3.515   0.560  0.3659 -0.0091  0.2170
  209MOL0     C28091   6.131   3.554   0.699 -0.1888  0.0135  0.8514
  209MOL0     C28092   6.185   3.688   0.747  0.0798  0.5045  0.7419
  209MOL0     C28093   6.129   3.715   0.886 -0.3964 -0.3376  0.4759
  209MOL0     C28094   6.200   3.838   0.944  0.1283 -0.4813 -0.1310
  209MOL0     C28095   6.356   3.851   0.970  1.1510  0.4893 -0.0800
  209MOL0     C28096   6.407   3.767   1.092 -0.1016 -0.7386 -0.1557
  209MOL0     N28097   6.524   3.825   1.158  0.1255  0.2621 -0.6686
  209MOL0     C28098   6.523   3.882   1.284 -0.0584  0.6162 -1.2234
  209MOL0     C28099   6.653   3.913   1.300 -0.3435  0.5775  0.5027
  209MOL0     C28100   6.700   3.980   1.430  0.5510 -0.3172  1.8788
  209MOL0     C28101   6.823   3.929   1.493  0.6597  0.2025  0.3812
  209MOL0     C28102   6.947   4.024   1.479 -0.2660 -0.2530 -0.2314
  209MOL0     C28103   6.926   4.158   1.544 -0.2788  0.2949  0.3186
  209MOL0     O28104   6.909   4.132   1.687  0.2192  0.4412  0.1334
  209MOL0     C28105   6.889   4.241   1.760  0.8441  0.0982  1.0359
  209MOL0     C28106   6.978   4.285   1.851  0.6976 -0.8886 -1.0658
  209MOL0     C28107   6.954   4.397   1.937  0.2366  0.4907  0.0606
  209MOL0     C28108   7.052   4.428   2.043 -0.1134  0.2886 -1.2259
  209MOL0     C28109   6.823   4.458   1.921 -0.3349 -0.5576  0.2785
  209MOL0     C28110   6.782   4.564   2.013 -0.7962 -0.0655  0.4452
  209MOL0     O28111   6.649   4.581   2.018 -0.4014 -0.5836 -0.2056
  209MOL0     C28112   6.612   4.703   2.075  0.4818  0.3645  0.5185
  209MOL0     C28113   6.498   4.705   2.160  0.1978 -0.7389  0.0917
  209MOL0     C28114   6.432   4.834   2.188 -0.7313  0.6961  0.2248
  209MOL0     C28115   6.484   4.953   2.141 -0.1623 -0.1286 -0.4566
  209MOL0     O28116   6.429   5.076   2.160 -0.5340 -0.2742  0.2048
  209MOL0     C28117   6.311   5.087   2.240 -0.8964  0.1507 -0.3413
  209MOL0     C28118   6.267   5.237   2.256  0.1321  0.4583  0.4266
  209MOL0     C28119   6.384   5.334   2.280 -0.4342  0.1895 -0.7380
  209MOL0     C28120   6.338   5.465   2.331  0.1932  0.9739  0.1197
  209MOL0     C28121   6.451   5.573   2.305 -0.2231  0.0713 -0.0498
  209MOL0     C28122   6.400   5.715   2.315  0.5198  0.0640 -0.3210
  209MOL0     C28123   6.491   5.804   2.246 -0.4528  0.6391 -0.1089
  209MOL0     C28124   6.444   5.940   2.264 -0.4731  0.4582  0.8042
  209MOL0    Cl28125   6.556   6.058   2.189 -0.3659  0.4983  0.5537
  209MOL0     C28126   6.598   4.951   2.073 -0.0111  0.4552  0.0640
  209MOL0     C28127   6.654   4.833   2.032 -0.1736  0.7215 -0.9813
  209MOL0     O28128   6.863   4.629   2.076  0.5383 -0.1199 -0.2208
  209MOL0     C28129   6.744   4.424   1.821  0.0403 -0.4431  0.9895
  209MOL0     C28130   6.769   4.310   1.746 -0.0280  1.0356 -1.3266
  209MOL0     N28131   6.727   3.880   1.186 -0.0662  0.8317 -0.9386
  209MOL0     N28132   6.652   3.818   1.110  0.6576  0.0731 -0.7783
  209MOL0     C28133   5.848   3.276   0.330  0.3027  0.2825 -1.2593
  209MOL0     C28134   5.800   3.196   0.234  0.5661  0.0392  0.1413
  209MOL0     C28135   5.723   2.876  -0.056  0.1127  0.3181 -0.0056
  209MOL0     C28136   5.844   2.806  -0.090 -0.3379 -0.0209  0.7248
  209MOL0     C28137   5.848   2.722  -0.201 -0.5274 -0.6757 -0.2999
  209MOL0     C28138   5.736   2.721  -0.287  0.2532  0.2099  0.6856
  209MOL0     O28139   5.715   2.641  -0.399 -0.2369  0.2077  0.4967
  209MOL0     C28140   5.726   2.704  -0.525  0.2477  0.7355  0.1465
  209MOL0     C28141   5.843   2.798  -0.557 -0.1547 -0.1850  0.5222
  209MOL0     C28142   5.840   2.853  -0.697  0.2147 -0.2105 -0.4089
  209MOL0     C28143   5.728   2.955  -0.727 -0.5692  0.2883  1.0977
  209MOL0     C28144   5.699   3.043  -0.614  0.2103  0.3195  0.0223
  209MOL0     C28145   5.667   3.112  -0.522  1.0796  0.3227  0.4790
  209MOL0     C28146   5.624   2.800  -0.262 -0.1046  0.3906  0.4790
  209MOL0     C28147   5.616   2.873  -0.145  0.1061 -0.3722 -0.4941
  209MOL0     H28148   6.062   2.978   0.228  0.0955  0.0784 -3.7872
  209MOL0     H28149   6.145   3.138   0.385 -1.1392 -2.7338  2.1270
  209MOL0     H28150   6.194   3.301   0.571 -1.0646  1.0119  1.6492
  209MOL0     H28151   6.227   3.375   0.415  0.3372 -2.4446 -0.3093
  209MOL0     H28152   6.301   3.524   0.575  0.2231 -0.5417  1.8261
  209MOL0     H28153   6.149   3.575   0.480  2.8358 -1.5023 -2.4669
  209MOL0     H28154   6.022   3.554   0.684  0.1239 -0.1553 -1.9526
  209MOL0     H28155   6.154   3.472   0.767 -2.9706 -1.1335  0.5658
  209MOL0     H28156   6.294   3.685   0.745  0.0899  0.9835 -0.0623
  209MOL0     H28157   6.156   3.766   0.676  1.1813 -0.5542 -0.9507
  209MOL0     H28158   6.020   3.722   0.883 -0.3059  0.9624 -1.7363
  209MOL0     H28159   6.151   3.621   0.938  3.4928  0.4601  0.5472
  209MOL0     H28160   6.170   3.923   0.882  0.5656 -1.5542 -1.8905
  209MOL0     H28161   6.164   3.840   1.047 -0.1095 -3.0978 -0.0846
  209MOL0     H28162   6.404   3.816   0.878  3.3636  1.7434  0.5397
  209MOL0     H28163   6.380   3.957   0.975  0.0525  0.7253  0.2996
  209MOL0     H28164   6.435   3.671   1.048 -1.0323 -0.3169 -1.7523
  209MOL0     H28165   6.331   3.754   1.169  2.3657  1.6208  2.9308
  209MOL0     H28166   6.447   3.896   1.360 -0.2249  2.6537 -1.7116
  209MOL0     H28167   6.691   4.087   1.406 -3.3219 -0.3493  2.5889
  209MOL0     H28168   6.632   3.972   1.515  0.5086 -0.4500  1.8320
  209MOL0     H28169   6.858   3.836   1.447 -0.4416  1.0539 -2.3653
  209MOL0     H28170   6.800   3.916   1.599  1.1783  1.2329  0.6416
  209MOL0     H28171   6.986   4.047   1.379  1.9650 -3.2498 -0.1932
  209MOL0     H28172   7.030   3.980   1.535 -1.0545 -0.6998  0.6243
  209MOL0     H28173   6.837   4.198   1.495 -1.2026 -2.2010 -0.1712
  209MOL0     H28174   7.005   4.232   1.526 -1.5200  2.1588  2.1002
  209MOL0     H28175   7.071   4.229   1.850  1.4477  0.3265 -1.2482
  209MOL0     H28176   7.089   4.529   2.027 -3.2966  2.2121  1.9723
  209MOL0     H28177   6.990   4.426   2.133 -0.1540  1.5797 -1.2106
  209MOL0     H28178   7.141   4.364   2.044  0.3833  0.9052  1.4801
  209MOL0     H28179   6.452   4.612   2.191  0.2558 -1.1112 -0.9277
  209MOL0     H28180   6.339   4.819   2.241  0.2397  2.4261  2.5622
  209MOL0     H28181   6.231   5.032   2.190 -0.6309  1.2960 -2.1282
  209MOL0     H28182   6.331   5.043   2.338 -0.9617 -1.8800 -1.2005
  209MOL0     H28183   6.212   5.268   2.167  0.1353 -0.9312 -0.0747
  209MOL0     H28184   6.197   5.229   2.339 -0.3843  0.5261  0.0042
  209MOL0     H28185   6.447   5.345   2.192  1.0353  1.3147  0.4031
  209MOL0     H28186   6.450   5.292   2.357 -1.5167  0.0775  0.1606
  209MOL0     H28187   6.245   5.490   2.278 -0.5025  1.8023  1.6746
  209MOL0     H28188   6.306   5.470   2.435  0.1604 -0.5736  0.2001
  209MOL0     H28189   6.488   5.552   2.204 -1.7818  0.3618 -0.7260
  209MOL0     H28190   6.536   5.542   2.365  0.5888 -4.4087 -3.0529
  209MOL0     H28191   6.302   5.728   2.269 -0.6217 -3.2015  0.8482
  209MOL0     H28192   6.388   5.730   2.422 -1.0161 -1.4868 -0.2307
  209MOL0     H28193   6.494   5.781   2.139  0.0802 -2.7942  0.5419
  209MOL0     H28194   6.592   5.795   2.287 -0.8578 -0.3205  0.7111
  209MOL0     H28195   6.440   5.963   2.371  3.8979 -2.0286  1.7286
  209MOL0     H28196   6.348   5.949   2.212 -0.9895  0.8272  1.7926
  209MOL0     H28197   6.644   5.049   2.063  0.7515  0.4700  2.8802
  209MOL0     H28198   6.745   4.837   1.974 -0.4902  3.1223 -1.4171
  209MOL0     H28199   6.649   4.473   1.805  0.4930  0.4974  1.1363
  209MOL0     H28200   6.700   4.268   1.672  1.3363  0.0317 -2.0756
  209MOL0     H28201   5.796   3.369   0.352  0.0453  0.0121 -0.7007
  209MOL0     H28202   5.706   3.218   0.184  1.1378 -0.3752 -1.1428
  209MOL0     H28203   5.930   2.806  -0.023 -0.6532  2.2309  1.2052
  209MOL0     H28204   5.928   2.655  -0.232  0.6951  0.9396 -0.7340
  209MOL0     H28205   5.717   2.633  -0.608  0.3467 -0.7935  1.3860
  209MOL0     H28206   5.634   2.757  -0.552  0.8323  0.3019 -3.1361
  209MOL0     H28207   5.937   2.743  -0.555  0.0513  0.1235  3.2290
  209MOL0     H28208   5.858   2.886  -0.493 -2.0451  3.3842 -3.4726
  209MOL0     H28209   5.836   2.780  -0.778 -1.1360  0.0321 -0.5863
  209MOL0     H28210   5.933   2.909  -0.710 -0.8003  2.8508  3.4095
  209MOL0     H28211   5.635   2.898  -0.737 -0.9004  0.7509  1.5253
  209MOL0     H28212   5.741   3.000  -0.826 -0.2173  0.4385  1.2132
  209MOL0     H28213   5.645   3.164  -0.431 -0.3511 -2.3513  1.7811
  209MOL0     H28214   5.540   2.806  -0.331  0.6293  1.7100 -0.3482
  209MOL0     H28215   5.535   2.942  -0.120 -1.1092 -2.7702  3.0689
  210MOL0     O28216   7.378  10.662   3.933 -0.3477  0.3796  0.2940
  210MOL0     C28217   7.411  10.724   3.835  0.4274 -1.1809 -0.7027
  210MOL0     O28218   7.407  10.675   3.711  0.3047  0.4934  0.2305
  210MOL0     C28219   7.397  10.536   3.695  0.2465 -0.6542  0.5099
  210MOL0     C28220   7.514  10.459   3.669 -0.1388  1.1377  0.0230
  210MOL0     C28221   7.504  10.313   3.666  0.2071 -0.5702 -0.0205
  210MOL0     C28222   7.385  10.255   3.675  0.3103  0.3538  0.8423
  210MOL0     O28223   7.377  10.120   3.659  0.4197 -0.3426  0.0474
  210MOL0     C28224   7.310  10.086   3.535  0.3171 -0.0686  0.1885
  210MOL0     C28225   7.314   9.931   3.527 -0.6375  0.0084  1.3354
  210MOL0     C28226   7.436   9.876   3.459  0.2943 -0.5493  1.5647
  210MOL0     C28227   7.566   9.912   3.536  1.3632 -0.0195  0.5759
  210MOL0     C28228   7.690   9.874   3.460  0.5044  0.0644 -0.4845
  210MOL0     C28229   7.801   9.836   3.556 -1.0317  0.2692  0.2956
  210MOL0     C28230   7.941   9.820   3.493 -0.0378  0.3727  0.8807
  210MOL0     C28231   7.997   9.949   3.422  0.3770  0.2010 -0.5658
  210MOL0     N28232   8.136   9.933   3.383 -0.9468  0.2829 -0.2289
  210MOL0     C28233   8.246   9.968   3.465 -0.1806 -1.1122  0.3968
  210MOL0     C28234   8.348   9.968   3.386 -1.1582 -0.2097  0.3696
  210MOL0     C28235   8.495  10.014   3.419  0.3825  0.1972  0.7280
  210MOL0     C28236   8.595   9.924   3.352  0.2718 -0.5970  1.2995
  210MOL0     C28237   8.725   9.945   3.422 -0.4002  0.5195  0.2171
  210MOL0     C28238   8.848   9.883   3.360  0.2345  0.5761  0.6395
  210MOL0     O28239   8.871   9.940   3.234  0.5562  0.4953  0.6668
  210MOL0     C28240   8.947   9.873   3.142 -0.3412  0.6957 -0.1518
  210MOL0     C28241   8.966   9.918   3.015 -0.4131  0.4825  0.4401
  210MOL0     C28242   9.066   9.857   2.931 -0.2091  0.1586  0.9184
  210MOL0     C28243   9.074   9.921   2.794  1.4657  0.6128 -0.4002
  210MOL0     C28244   9.135   9.745   2.966 -0.4441  0.0972 -0.9896
  210MOL0     C28245   9.243   9.682   2.881  0.7347  0.5993 -0.6103
  210MOL0     O28246   9.286   9.562   2.931 -0.1234 -0.2412  0.4567
  210MOL0     C28247   9.370   9.486   2.854  0.2246  0.2828  1.5302
  210MOL0     C28248   9.503   9.506   2.863 -0.5979 -0.0963 -0.0782
  210MOL0     C28249   9.583   9.454   2.757 -0.2275  0.8107  0.2023
  210MOL0     C28250   9.544   9.367   2.662  0.0700  0.4638  0.0042
  210MOL0     O28251   9.646   9.317   2.595 -1.3609 -0.3408  0.5289
  210MOL0     C28252   9.643   9.177   2.572 -0.7613 -1.3555  0.3437
  210MOL0     C28253   9.752   9.138   2.469  0.5301  0.6569 -0.2056
  210MOL0     C28254   9.762   8.984   2.456  0.4993 -0.3437  0.4884
  210MOL0     C28255   9.811   8.935   2.319 -1.5524 -0.1288  0.9599
  210MOL0     C28256   9.866   8.791   2.320 -0.1132 -0.5208 -0.0200
  210MOL0     C28257   9.925   8.743   2.189 -0.3898 -0.0829  0.3130
  210MOL0     C28258   9.918   8.584   2.195  0.1133  0.2452  0.4077
  210MOL0     C28259  10.037   8.530   2.113 -0.1566  0.1126 -0.0471
  210MOL0    Cl28260  10.184   8.523   2.222 -0.4540 -0.4423  0.0063
  210MOL0     C28261   9.406   9.331   2.660  0.7504 -0.3915 -1.0943
  210MOL0     C28262   9.321   9.390   2.753 -0.0351 -0.9110 -0.1564
  210MOL0     O28263   9.297   9.748   2.800  0.7958  0.0071  0.3646
  210MOL0     C28264   9.109   9.698   3.101  0.2951 -0.3041  0.1015
  210MOL0     C28265   9.018   9.760   3.181  0.2969  0.2071  0.1076
  210MOL0     N28266   8.311   9.926   3.261  0.1237 -0.2458 -0.1645
  210MOL0     N28267   8.180   9.906   3.260  0.4531  0.1248 -0.8786
  210MOL0     C28268   7.267  10.328   3.692 -0.5656  1.1292 -1.2712
  210MOL0     C28269   7.272  10.466   3.709 -0.7163 -0.7180  0.3443
  210MOL0     C28270   7.420  10.875   3.841  1.0857 -0.4061 -0.7540
  210MOL0     C28271   7.392  10.942   3.962  0.9300 -0.2144 -0.5272
  210MOL0     C28272   7.404  11.082   3.967  0.3226 -0.8813  0.4790
  210MOL0     C28273   7.439  11.155   3.852  0.3267 -0.8673 -0.2804
  210MOL0     O28274   7.441  11.292   3.861 -0.1430  0.1230 -0.5725
  210MOL0     C28275   7.528  11.380   3.781 -0.0636  0.5464 -0.6892
  210MOL0     C28276   7.450  11.415   3.654 -0.1688 -0.3161  0.2354
  210MOL0     C28277   7.536  11.490   3.562 -1.0567 -0.4145  0.4235
  210MOL0     C28278   7.522  11.456   3.414  0.0154  0.7148 -0.2915
  210MOL0     C28279   7.580  11.319   3.382 -0.1344 -0.5832 -0.0797
  210MOL0     C28280   7.621  11.205   3.361  0.7136  0.1045  0.3145
  210MOL0     C28281   7.468  11.094   3.736 -0.9240 -0.9907 -0.0141
  210MOL0     C28282   7.457  10.953   3.729 -0.5576 -0.5719  0.0059
  210MOL0     H28283   7.607  10.515   3.673 -0.5700  1.7953  1.3781
  210MOL0     H28284   7.603  10.269   3.653 -0.2809 -1.8635  0.5369
  210MOL0     H28285   7.205  10.115   3.530 -0.3106 -2.3748 -2.5300
  210MOL0     H28286   7.359  10.116   3.442 -0.4788 -2.5422 -1.1192
  210MOL0     H28287   7.299   9.885   3.626  0.5345  1.0640  2.0377
  210MOL0     H28288   7.230   9.905   3.462  1.9347 -1.4006 -1.6383
  210MOL0     H28289   7.426   9.768   3.447  1.8686 -0.5954  0.3460
  210MOL0     H28290   7.435   9.910   3.355 -2.2787 -1.6819  1.1448
  210MOL0     H28291   7.565  10.020   3.554  0.0102 -0.0018  0.5058
  210MOL0     H28292   7.559   9.854   3.628  0.6145 -2.3091 -0.8427
  210MOL0     H28293   7.671   9.798   3.383  3.2539 -1.5139  0.2529
  210MOL0     H28294   7.723   9.961   3.404 -1.1666 -1.3353 -3.9139
  210MOL0     H28295   7.813   9.909   3.636  5.3004  0.5102 -0.3192
  210MOL0     H28296   7.767   9.745   3.606 -2.1855  0.9974  0.8870
  210MOL0     H28297   8.005   9.785   3.574 -0.7270 -2.2161  0.3862
  210MOL0     H28298   7.936   9.737   3.422  0.3375  1.4295 -0.4308
  210MOL0     H28299   7.991  10.033   3.492 -0.7042 -1.0468  0.8975
  210MOL0     H28300   7.946   9.974   3.328  3.4298 -0.9877 -2.7077
  210MOL0     H28301   8.237   9.989   3.571 -3.6648  3.3053 -0.4487
  210MOL0     H28302   8.503  10.120   3.393 -1.4537  0.2936  0.4230
  210MOL0     H28303   8.514  10.008   3.526  1.7429  0.9524  0.5454
  210MOL0     H28304   8.600   9.960   3.249 -0.4288 -1.4663  0.9423
  210MOL0     H28305   8.561   9.820   3.360 -0.0075 -0.7118 -0.7671
  210MOL0     H28306   8.716   9.911   3.526 -0.7166 -1.8639 -0.5263
  210MOL0     H28307   8.738  10.053   3.417  1.2939  0.3016 -0.5580
  210MOL0     H28308   8.823   9.776   3.362 -2.2025  1.0748  2.7479
  210MOL0     H28309   8.931   9.906   3.427  0.3839 -0.2098  0.7382
  210MOL0     H28310   8.921  10.012   2.986  1.3750  1.1126 -0.4628
  210MOL0     H28311   8.983   9.974   2.766  0.1745  1.7188  4.7931
  210MOL0     H28312   9.150  10.000   2.789  1.3128  0.7959  0.0564
  210MOL0     H28313   9.095   9.851   2.713 -1.4336 -1.3608  0.4037
  210MOL0     H28314   9.535   9.569   2.945  1.9777 -0.5686 -0.6545
  210MOL0     H28315   9.688   9.482   2.767  0.4570 -1.9349  1.7937
  210MOL0     H28316   9.652   9.138   2.674  0.2585  2.3778  1.8233
  210MOL0     H28317   9.547   9.141   2.535 -0.8884  0.3299 -1.0737
  210MOL0     H28318   9.722   9.174   2.370  0.5000 -4.0734 -2.1930
  210MOL0     H28319   9.851   9.182   2.487 -0.5440  2.0191  2.9662
  210MOL0     H28320   9.660   8.947   2.473 -0.3103  1.6116  0.2084
  210MOL0     H28321   9.829   8.944   2.532  0.0264 -1.0172  0.5609
  210MOL0     H28322   9.745   8.953   2.233 -2.5096 -0.9963  1.4869
  210MOL0     H28323   9.898   8.999   2.306 -0.4315 -1.8865 -0.9501
  210MOL0     H28324   9.789   8.718   2.348 -2.1601  0.9224 -1.5762
  210MOL0     H28325   9.943   8.775   2.396 -0.2335  1.1601  0.4888
  210MOL0     H28326   9.871   8.762   2.096  2.4020 -1.1697 -1.6981
  210MOL0     H28327  10.029   8.771   2.166  0.9559 -2.9281  2.2936
  210MOL0     H28328   9.825   8.542   2.154 -0.9232  3.5898 -0.9958
  210MOL0     H28329   9.925   8.552   2.299  2.1546 -1.5085 -0.1981
  210MOL0     H28330  10.056   8.597   2.029 -2.8148  1.6268  0.4291
  210MOL0     H28331  10.013   8.428   2.082 -0.4428 -0.0849  0.7916
  210MOL0     H28332   9.369   9.255   2.591  0.8940 -0.7829 -0.7477
  210MOL0     H28333   9.221   9.348   2.755  0.0676 -1.1320  0.8126
  210MOL0     H28334   9.159   9.605   3.129 -0.5774 -2.1533 -3.7666
  210MOL0     H28335   9.002   9.696   3.267 -1.9042 -2.3212 -1.9849
  210MOL0     H28336   7.169  10.283   3.700  0.4548 -1.0395 -0.1026
  210MOL0     H28337   7.179  10.518   3.731 -0.3553 -0.0376  0.2932
  210MOL0     H28338   7.357  10.896   4.054 -0.5917  0.8814 -0.5094
  210MOL0     H28339   7.387  11.135   4.060 -1.5138 -2.1451  0.9377
  210MOL0     H28340   7.545  11.472   3.838 -1.2985  1.1218 -1.2059
  210MOL0     H28341   7.619  11.329   3.750 -0.7252 -0.6304 -0.7534
  210MOL0     H28342   7.364  11.474   3.687  0.3299  2.2548 -2.5886
  210MOL0     H28343   7.419  11.327   3.597  0.2702 -0.5736  0.3875
  210MOL0     H28344   7.641  11.480   3.589 -0.5376  2.3799 -0.2712
  210MOL0     H28345   7.521  11.598   3.576 -0.2574 -0.5102  2.2975
  210MOL0     H28346   7.585  11.530   3.363  0.0549 -0.7204 -2.4744
  210MOL0     H28347   7.417  11.462   3.387 -0.6496  0.5185  2.0745
  210MOL0     H28348   7.650  11.104   3.342  0.9509 -0.0168  1.2808
  210MOL0     H28349   7.484  11.153   3.646  0.0883  1.8429  1.8992
  210MOL0     H28350   7.474  10.912   3.630 -3.0393 -0.9601 -0.3223
  211MOL0     O28351  10.550   9.509  10.947 -0.8191  0.0475 -0.4424
  211MOL0     C28352  10.518   9.560  10.846  0.3003  0.4286 -0.1312
  211MOL0     O28353  10.465   9.692  10.838 -0.3153  0.1817 -0.4213
  211MOL0     C28354  10.460   9.749  10.962 -0.2991  0.6787  0.8241
  211MOL0     C28355  10.349   9.750  11.040  0.1729  0.2217 -1.1385
  211MOL0     C28356  10.359   9.806  11.170 -0.9717 -0.6288 -0.1144
  211MOL0     C28357  10.482   9.860  11.228  0.6707  0.2349  0.0712
  211MOL0     O28358  10.484   9.895  11.367 -0.0165 -0.2703  0.7731
  211MOL0     C28359  10.596   9.969  11.432  0.5459 -0.4258  0.9833
  211MOL0     C28360  10.574  10.117  11.436  0.0247  0.5293 -0.4731
  211MOL0     C28361  10.495  10.144  11.569  0.6451  0.3893  0.4497
  211MOL0     C28362  10.358  10.064  11.578 -0.6414  0.2187  0.0175
  211MOL0     C28363  10.233  10.127  11.648 -0.2938 -1.1155  1.0211
  211MOL0     C28364  10.117  10.031  11.646 -0.4877 -0.0411 -0.5463
  211MOL0     C28365   9.984  10.106  11.679  0.3749  0.0374 -0.2811
  211MOL0     C28366   9.872  10.013  11.665 -0.6784  0.3637  0.8022
  211MOL0     N28367   9.864   9.922  11.773  0.9835 -0.2523 -0.3121
  211MOL0     C28368   9.756   9.904  11.847  0.2894 -0.6597  0.6643
  211MOL0     C28369   9.764   9.787  11.908  0.3903  0.3243  0.2373
  211MOL0     C28370   9.687   9.733  12.029  1.8466 -0.8545 -0.1854
  211MOL0     C28371   9.751   9.765  12.164 -0.6889  0.3761  0.4353
  211MOL0     C28372   9.878   9.691  12.185  0.0612 -0.5393  0.2347
  211MOL0     C28373   9.905   9.663  12.336 -0.1909 -1.2537  0.2014
  211MOL0     O28374   9.884   9.790  12.408 -0.4310  0.3412 -0.6484
  211MOL0     C28375   9.982   9.876  12.441  0.2388 -0.1041 -0.2707
  211MOL0     C28376  10.021   9.889  12.568 -0.2218  0.4272 -0.3471
  211MOL0     C28377  10.108   9.980  12.610 -1.1649 -0.7579 -0.0408
  211MOL0     C28378  10.149   9.978  12.757  0.1108 -0.1372  0.6501
  211MOL0     C28379  10.159  10.085  12.517 -0.1631  0.9480  0.2778
  211MOL0     C28380  10.236  10.202  12.553  0.3606 -0.7679 -0.6610
  211MOL0     O28381  10.304  10.259  12.453 -0.2929  0.4194 -0.2705
  211MOL0     C28382  10.395  10.358  12.477  0.3997 -0.2578 -1.1165
  211MOL0     C28383  10.374  10.476  12.409 -0.4521 -0.6203  0.4379
  211MOL0     C28384  10.466  10.578  12.424 -0.2883 -0.4747 -0.2284
  211MOL0     C28385  10.579  10.556  12.507  0.1500 -1.2208 -0.9679
  211MOL0     O28386  10.671  10.662  12.528  0.4415  0.4858 -0.1148
  211MOL0     C28387  10.811  10.631  12.540  0.2610  0.5251  0.6127
  211MOL0     C28388  10.908  10.753  12.563 -0.6940 -0.0843 -0.7797
  211MOL0     C28389  10.945  10.829  12.433 -0.3123  0.3332 -0.1480
  211MOL0     C28390  11.050  10.763  12.341 -1.0114 -0.1335  0.3535
  211MOL0     C28391  11.188  10.714  12.406 -0.1645 -0.3734 -0.9511
  211MOL0     C28392  11.256  10.827  12.486 -0.3215 -0.0235 -0.6209
  211MOL0     C28393  11.406  10.795  12.526 -0.4790  0.1367 -0.7909
  211MOL0     C28394  11.480  10.919  12.590 -0.5162 -0.1649 -1.2311
  211MOL0    Cl28395  11.663  10.862  12.611  0.0977  0.2735  0.4429
  211MOL0     C28396  10.602  10.433  12.566  0.0810  0.9356  0.5574
  211MOL0     C28397  10.510  10.325  12.546 -0.5436 -0.7629  0.2547
  211MOL0     O28398  10.227  10.244  12.667  0.3344 -0.0679 -0.2562
  211MOL0     C28399  10.113  10.069  12.376 -0.2431  0.0430 -1.0779
  211MOL0     C28400  10.020   9.972  12.347 -0.1957  0.2053  0.9389
  211MOL0     N28401   9.886   9.734  11.876  0.0460  0.0612  0.7881
  211MOL0     N28402   9.935   9.812  11.790 -0.0806  0.3329  0.1984
  211MOL0     C28403  10.589   9.863  11.131  0.5468  0.1128 -0.1043
  211MOL0     C28404  10.571   9.820  11.005  0.4685 -0.4106  0.2607
  211MOL0     C28405  10.499   9.483  10.732 -0.2565  0.5725  2.2331
  211MOL0     C28406  10.554   9.349  10.731  0.5999  0.5734  0.0733
  211MOL0     C28407  10.541   9.264  10.620 -0.3073  0.4490 -0.3155
  211MOL0     C28408  10.465   9.303  10.515 -0.3496 -0.2487 -0.3214
  211MOL0     O28409  10.429   9.230  10.399 -0.3002 -0.2270  0.1386
  211MOL0     C28410  10.469   9.092  10.386 -0.1761 -0.1912  0.1983
  211MOL0     C28411  10.503   9.064  10.241 -0.5371  0.9015  0.0474
  211MOL0     C28412  10.619   9.157  10.180 -0.8281  0.8758 -0.4035
  211MOL0     C28413  10.686   9.108  10.053  0.5566 -0.1675  0.3881
  211MOL0     C28414  10.622   9.164   9.931 -0.1016 -0.4685  0.3449
  211MOL0     C28415  10.589   9.201   9.817  0.0357 -0.2604  0.9859
  211MOL0     C28416  10.399   9.435  10.515  0.0694 -0.8972  0.3335
  211MOL0     C28417  10.423   9.529  10.620  0.0025  0.5752 -0.5042
  211MOL0     H28418  10.258   9.697  11.013  0.3807 -0.8773  0.2017
  211MOL0     H28419  10.271   9.812  11.233 -1.7947  1.1323 -1.3497
  211MOL0     H28420  10.620   9.941  11.535 -2.0450  1.1672  2.1273
  211MOL0     H28421  10.681   9.957  11.365 -0.4251 -0.6625 -0.2380
  211MOL0     H28422  10.668  10.171  11.446 -1.3001  2.5732  2.3323
  211MOL0     H28423  10.518  10.144  11.346  2.0004  1.1788 -1.5712
  211MOL0     H28424  10.553  10.117  11.658 -2.5017 -1.2057  2.1821
  211MOL0     H28425  10.461  10.247  11.577 -0.7863 -0.2245  4.3288
  211MOL0     H28426  10.335  10.027  11.478  1.7811 -1.6506  0.0622
  211MOL0     H28427  10.379   9.978  11.641 -0.2981 -0.3918 -0.9190
  211MOL0     H28428  10.264  10.146  11.751 -2.3369 -0.9059  1.6336
  211MOL0     H28429  10.211  10.228  11.613  0.9196 -1.5191 -1.1133
  211MOL0     H28430  10.128   9.958  11.565 -1.6911 -4.0509  2.5544
  211MOL0     H28431  10.140   9.968  11.732  1.1537  1.8749  0.5069
  211MOL0     H28432   9.975  10.159  11.774  0.6125 -0.3734 -0.0316
  211MOL0     H28433   9.979  10.186  11.604 -1.9438  1.5916  1.3859
  211MOL0     H28434   9.888   9.961  11.570 -0.3938  3.4870 -0.9695
  211MOL0     H28435   9.775  10.060  11.646 -0.1823  0.5863 -1.5320
  211MOL0     H28436   9.669   9.968  11.860 -1.2165 -2.0364 -1.9689
  211MOL0     H28437   9.594   9.790  12.023  1.5963 -1.3667 -1.6754
  211MOL0     H28438   9.653   9.629  12.016 -0.2708 -0.7480  3.1727
  211MOL0     H28439   9.683   9.743  12.248 -1.0239  0.8437  0.2897
  211MOL0     H28440   9.771   9.872  12.161  0.8042  0.1346  0.8720
  211MOL0     H28441   9.957   9.757  12.147 -1.1289  0.7715 -0.0214
  211MOL0     H28442   9.880   9.597  12.129  4.8614 -1.4186  1.3498
  211MOL0     H28443  10.006   9.626  12.351 -0.3076 -0.8220  2.3434
  211MOL0     H28444   9.837   9.585  12.370  2.2090 -3.6643 -0.2152
  211MOL0     H28445   9.981   9.831  12.650  0.6283 -0.0990 -0.2955
  211MOL0     H28446  10.126   9.878  12.794  1.5324 -0.3509  1.0211
  211MOL0     H28447  10.249  10.018  12.771  0.7699 -0.7374 -1.7853
  211MOL0     H28448  10.080  10.041  12.814 -0.3733 -0.3940  0.3527
  211MOL0     H28449  10.282  10.493  12.353  0.4952  1.0091 -0.7203
  211MOL0     H28450  10.448  10.677  12.383 -2.4405 -0.4350  0.7258
  211MOL0     H28451  10.831  10.561  12.621 -3.6423 -1.4032  0.1295
  211MOL0     H28452  10.848  10.575  12.454  0.8376  0.1787  1.0831
  211MOL0     H28453  10.865  10.821  12.638  1.4050  0.5819 -0.1267
  211MOL0     H28454  11.000  10.710  12.603 -0.8667  0.4334  0.2109
  211MOL0     H28455  10.985  10.929  12.454 -0.5907  0.7671 -1.5668
  211MOL0     H28456  10.850  10.854  12.384  0.4313  5.9983  0.6144
  211MOL0     H28457  11.002  10.682  12.286  2.1246 -0.3721 -2.3420
  211MOL0     H28458  11.076  10.837  12.265 -3.2182  0.0235 -0.3213
  211MOL0     H28459  11.258  10.684  12.327  3.2803  2.2971  0.8141
  211MOL0     H28460  11.167  10.633  12.475  1.2429 -0.0630 -0.1136
  211MOL0     H28461  11.256  10.912  12.418 -0.2456 -0.8660 -1.7061
  211MOL0     H28462  11.198  10.843  12.578  4.1140 -0.9776  2.6817
  211MOL0     H28463  11.464  10.755  12.442  1.7442  2.4588 -0.4747
  211MOL0     H28464  11.410  10.719  12.604  0.0203  0.2064 -0.7443
  211MOL0     H28465  11.436  10.951  12.685  1.8057 -0.9110  0.1578
  211MOL0     H28466  11.474  10.999  12.515 -0.9455  0.8279 -0.1810
  211MOL0     H28467  10.699  10.406  12.607  1.0736  0.3175 -1.9830
  211MOL0     H28468  10.518  10.232  12.602  0.8667 -0.8760 -0.0978
  211MOL0     H28469  10.139  10.138  12.297 -2.5395  0.1445 -1.8266
  211MOL0     H28470   9.979   9.963  12.247  0.2409  0.0475  0.7679
  211MOL0     H28471  10.693   9.885  11.153  1.4769 -0.9836 -2.9822
  211MOL0     H28472  10.664   9.821  10.949  2.1207 -1.6589  2.8151
  211MOL0     H28473  10.608   9.324  10.822 -1.1467  2.5690  1.7771
  211MOL0     H28474  10.591   9.169  10.634 -0.1038  0.8211  1.8822
  211MOL0     H28475  10.546   9.053  10.454  2.0853  1.8742 -1.0341
  211MOL0     H28476  10.378   9.031  10.394 -2.4027  2.8407 -0.1876
  211MOL0     H28477  10.411   9.081  10.184 -0.2680  0.3457 -0.5772
  211MOL0     H28478  10.534   8.959  10.236 -2.4040  0.3813 -2.4095
  211MOL0     H28479  10.694   9.158  10.260 -0.4145  0.9931 -0.7899
  211MOL0     H28480  10.585   9.260  10.166 -0.6211  0.6716 -2.9279
  211MOL0     H28481  10.675   8.999  10.058  0.0330 -0.1048  0.7705
  211MOL0     H28482  10.791   9.136  10.051  0.9769 -1.4845  1.9091
  211MOL0     H28483  10.550   9.238   9.724 -0.9557  1.6922  2.1104
  211MOL0     H28484  10.350   9.475  10.427  1.5917  0.7855  0.1885
  211MOL0     H28485  10.376   9.627  10.622 -2.2153 -0.2734 -3.4337
  212MOL0     O28486   2.698   0.773   0.425 -0.6661  0.5038 -0.7509
  212MOL0     C28487   2.577   0.760   0.442  0.1284  0.1507  0.2175
  212MOL0     O28488   2.517   0.643   0.474 -0.2775  0.2030  0.0613
  212MOL0     C28489   2.590   0.553   0.555  0.1219 -0.6052  0.4895
  212MOL0     C28490   2.680   0.591   0.659 -0.7956  0.6788 -0.7886
  212MOL0     C28491   2.763   0.486   0.726 -0.7349 -0.1409  0.0886
  212MOL0     C28492   2.742   0.348   0.697 -0.4654 -0.1093 -0.3847
  212MOL0     O28493   2.808   0.241   0.750  0.5749 -0.0218 -0.5813
  212MOL0     C28494   2.880   0.251   0.866 -0.3781  0.5132  0.2490
  212MOL0     C28495   2.958   0.118   0.876  0.0051 -0.8234 -0.3849
  212MOL0     C28496   3.065   0.117   0.998  0.6970 -0.3013 -0.2185
  212MOL0     C28497   3.160  -0.002   0.994 -0.7166  1.0764 -0.7794
  212MOL0     C28498   3.265  -0.012   1.108  0.6279 -0.3734 -0.1747
  212MOL0     C28499   3.298  -0.166   1.133  0.4336  0.9567  0.5619
  212MOL0     C28500   3.423  -0.196   1.216 -1.0397  0.1865 -0.2790
  212MOL0     C28501   3.420  -0.334   1.291 -0.0808  0.1627 -0.0629
  212MOL0     N28502   3.396  -0.327   1.434 -0.6626  0.2647  0.5400
  212MOL0     C28503   3.281  -0.353   1.498 -1.0773 -0.5224  0.1482
  212MOL0     C28504   3.313  -0.340   1.627  0.9911  0.0418 -0.1060
  212MOL0     C28505   3.217  -0.326   1.745  0.8616  0.0270  0.0682
  212MOL0     C28506   3.263  -0.395   1.873 -0.0714  0.0926  0.0037
  212MOL0     C28507   3.324  -0.298   1.979  0.8852  0.1180  0.4487
  212MOL0     C28508   3.455  -0.227   1.933  0.0556 -0.2003  0.1758
  212MOL0     O28509   3.522  -0.152   2.033  0.2948 -0.5445 -0.8329
  212MOL0     C28510   3.484  -0.018   2.044  0.3335 -1.6045 -0.2100
  212MOL0     C28511   3.382   0.049   1.973 -0.0116  0.2826 -0.0251
  212MOL0     C28512   3.350   0.184   1.993  0.6393  0.0889 -0.4151
  212MOL0     C28513   3.234   0.238   1.916  0.1533 -0.5132 -0.4846
  212MOL0     C28514   3.420   0.255   2.098  1.0532 -0.5648  0.5704
  212MOL0     C28515   3.421   0.409   2.104 -0.7989 -0.1680  1.3032
  212MOL0     O28516   3.518   0.469   2.036 -0.0956 -0.3338 -0.7259
  212MOL0     C28517   3.524   0.607   2.054  0.2533 -0.0433  0.3935
  212MOL0     C28518   3.527   0.665   2.182 -0.6686  0.4475  0.8257
  212MOL0     C28519   3.531   0.806   2.190 -0.2765 -0.1290 -0.0780
  212MOL0     C28520   3.521   0.890   2.088  0.8766 -0.4094  0.3512
  212MOL0     O28521   3.507   1.029   2.111  0.3213 -0.2522  0.5341
  212MOL0     C28522   3.497   1.132   2.010  0.3718 -0.3076 -0.0971
  212MOL0     C28523   3.406   1.257   2.044  0.6581 -0.2701 -0.0526
  212MOL0     C28524   3.433   1.335   2.181  1.3267  0.3663 -0.6964
  212MOL0     C28525   3.570   1.400   2.190 -0.4878  0.1995  1.5590
  212MOL0     C28526   3.590   1.495   2.301 -0.5147  0.0788  0.6474
  212MOL0     C28527   3.581   1.433   2.444 -0.2707 -0.7094  0.2986
  212MOL0     C28528   3.683   1.321   2.463 -0.1323  1.0000  0.1741
  212MOL0     C28529   3.630   1.176   2.477 -0.7154  0.3537 -0.6215
  212MOL0    Cl28530   3.763   1.058   2.488  0.3703 -0.4518 -0.1772
  212MOL0     C28531   3.517   0.829   1.963 -0.8888  0.1544  0.2213
  212MOL0     C28532   3.515   0.693   1.948  0.2085  0.5638 -0.2608
  212MOL0     O28533   3.326   0.466   2.151  0.0499 -0.5045 -0.3854
  212MOL0     C28534   3.518   0.191   2.171 -0.0459  0.0238  0.4372
  212MOL0     C28535   3.552   0.059   2.143  0.4330 -0.4417 -0.9350
  212MOL0     N28536   3.445  -0.309   1.638 -0.2877  0.6626  0.4523
  212MOL0     N28537   3.496  -0.309   1.523  0.8098 -0.2348  0.5329
  212MOL0     C28538   2.646   0.318   0.596  0.0600  0.1455 -0.0474
  212MOL0     C28539   2.570   0.415   0.527 -0.1068  0.0059 -0.1902
  212MOL0     C28540   2.488   0.864   0.402 -0.2089  0.2715  0.0584
  212MOL0     C28541   2.543   0.974   0.330 -1.3687  0.5601 -0.3071
  212MOL0     C28542   2.453   1.059   0.270 -0.0332  0.3228  0.1372
  212MOL0     C28543   2.318   1.061   0.305 -0.5301  0.8208  0.1794
  212MOL0     O28544   2.226   1.161   0.278  0.1073 -0.5865  0.5214
  212MOL0     C28545   2.264   1.278   0.195 -0.5525  0.8771  0.3066
  212MOL0     C28546   2.137   1.349   0.155 -0.4771 -0.6251 -0.5840
  212MOL0     C28547   2.028   1.258   0.097  0.0273  0.1081 -0.7440
  212MOL0     C28548   1.910   1.334   0.024 -0.1805  1.1006  0.8141
  212MOL0     C28549   1.871   1.289  -0.114 -0.1338  0.3028 -0.7833
  212MOL0     C28550   1.850   1.251  -0.224 -0.7071 -0.5624 -0.6661
  212MOL0     C28551   2.269   0.954   0.385  0.2303  0.0584  0.5043
  212MOL0     C28552   2.345   0.850   0.426  0.0610 -0.7666  0.4797
  212MOL0     H28553   2.704   0.692   0.689  1.8629  0.1918 -1.0324
  212MOL0     H28554   2.842   0.525   0.790  0.0758 -0.9805 -0.3657
  212MOL0     H28555   2.958   0.327   0.876  3.5208 -3.0411 -0.2811
  212MOL0     H28556   2.808   0.265   0.947  1.7852  0.1495  2.3489
  212MOL0     H28557   2.878   0.046   0.892 -1.2840  0.8644  1.2540
  212MOL0     H28558   3.017   0.091   0.787 -0.6037 -1.6181 -0.5581
  212MOL0     H28559   3.131   0.205   1.000  1.3910 -0.8069  1.3879
  212MOL0     H28560   3.009   0.111   1.092  1.5714 -1.1265  0.2686
  212MOL0     H28561   3.101  -0.095   1.000  2.5888 -1.6482 -4.9097
  212MOL0     H28562   3.202  -0.011   0.894 -0.0747  0.7806 -0.4952
  212MOL0     H28563   3.354   0.046   1.081  1.1362 -1.6887 -1.4605
  212MOL0     H28564   3.222   0.016   1.205 -1.9682  0.2707 -1.4288
  212MOL0     H28565   3.214  -0.220   1.177  0.9096  0.4738  0.8928
  212MOL0     H28566   3.311  -0.224   1.041 -0.7116  0.3316  0.7730
  212MOL0     H28567   3.503  -0.207   1.142  1.2386  1.5064  1.8314
  212MOL0     H28568   3.454  -0.113   1.280 -0.4818 -1.3576  1.5376
  212MOL0     H28569   3.523  -0.367   1.274  0.4689  2.4231 -1.6814
  212MOL0     H28570   3.359  -0.407   1.237  1.3654 -0.0045 -1.5322
  212MOL0     H28571   3.186  -0.344   1.447 -0.4057 -1.8683 -1.3783
  212MOL0     H28572   3.208  -0.217   1.754 -2.3830  0.1345 -2.3973
  212MOL0     H28573   3.120  -0.372   1.725 -0.5345  1.4213  3.0719
  212MOL0     H28574   3.348  -0.458   1.847 -0.4159 -0.3388 -0.0781
  212MOL0     H28575   3.182  -0.453   1.918  0.2080 -1.6708 -1.6572
  212MOL0     H28576   3.337  -0.355   2.071  3.8703 -2.5122 -1.4147
  212MOL0     H28577   3.249  -0.221   2.003  0.6687  0.1112 -0.1879
  212MOL0     H28578   3.436  -0.167   1.844 -1.2340 -0.8970 -0.0480
  212MOL0     H28579   3.527  -0.307   1.913 -1.8344 -2.4557  1.7845
  212MOL0     H28580   3.322  -0.006   1.900  0.3054  0.4243 -0.3950
  212MOL0     H28581   3.202   0.157   1.849  0.6630 -0.4876 -0.7627
  212MOL0     H28582   3.162   0.269   1.993  1.6513 -0.1191  0.7933
  212MOL0     H28583   3.257   0.326   1.856  1.6201  0.3723  1.2823
  212MOL0     H28584   3.537   0.592   2.263  0.2655 -2.6649 -1.8848
  212MOL0     H28585   3.517   0.842   2.291  2.7773 -4.2363  2.1063
  212MOL0     H28586   3.596   1.165   1.978  0.7260 -0.2229  1.0611
  212MOL0     H28587   3.436   1.086   1.931 -1.1994 -2.2770  2.1300
  212MOL0     H28588   3.427   1.330   1.965  0.2312  2.4998  2.2389
  212MOL0     H28589   3.305   1.224   2.018  1.4613 -0.3875 -3.5533
  212MOL0     H28590   3.421   1.269   2.268  1.0669  0.8094 -0.3958
  212MOL0     H28591   3.361   1.416   2.187  1.0003  0.0273  0.0331
  212MOL0     H28592   3.647   1.323   2.205  0.1129  0.7666  1.4451
  212MOL0     H28593   3.595   1.446   2.094 -1.0438 -4.5907 -1.2148
  212MOL0     H28594   3.512   1.572   2.292 -1.2403 -0.7962 -1.0274
  212MOL0     H28595   3.690   1.539   2.291 -0.8788  0.4294 -2.8974
  212MOL0     H28596   3.604   1.515   2.513  0.7405 -1.6447  1.1050
  212MOL0     H28597   3.479   1.404   2.469 -1.0992  0.2243 -1.7639
  212MOL0     H28598   3.734   1.349   2.556  0.9269  3.1061 -0.9523
  212MOL0     H28599   3.767   1.322   2.393 -1.7092  0.3639 -1.8185
  212MOL0     H28600   3.567   1.142   2.394 -0.5540  0.7508 -0.9103
  212MOL0     H28601   3.555   1.173   2.557 -1.9204 -0.9636 -1.7532
  212MOL0     H28602   3.511   0.886   1.871  0.9768  4.0731  2.2604
  212MOL0     H28603   3.506   0.644   1.852 -0.2276 -1.8186  0.9145
  212MOL0     H28604   3.578   0.249   2.239 -0.3638  0.8187  0.0562
  212MOL0     H28605   3.625   0.004   2.202 -1.0764 -0.9248  0.5621
  212MOL0     H28606   2.609   0.217   0.583 -0.9423  0.5025 -0.1174
  212MOL0     H28607   2.503   0.397   0.444 -0.6285  1.4399 -0.1203
  212MOL0     H28608   2.648   1.001   0.322 -1.5535  2.4762  2.3403
  212MOL0     H28609   2.478   1.132   0.193 -2.7597 -0.3656 -1.5392
  212MOL0     H28610   2.337   1.343   0.245 -0.7229  2.3195 -1.2078
  212MOL0     H28611   2.312   1.240   0.104 -0.3304 -1.1868  1.2340
  212MOL0     H28612   2.155   1.428   0.082  2.6534 -1.6377 -1.0360
  212MOL0     H28613   2.102   1.391   0.250  0.6875 -2.6174  0.8207
  212MOL0     H28614   1.998   1.202   0.186  0.4834  0.4701 -0.3605
  212MOL0     H28615   2.061   1.190   0.017  0.8813 -0.7179  0.2788
  212MOL0     H28616   1.938   1.440   0.022  0.3318  0.9653 -1.5401
  212MOL0     H28617   1.820   1.330   0.086 -0.4575  0.7307  0.3931
  212MOL0     H28618   1.838   1.227  -0.327 -5.4476  2.6507 -1.1752
  212MOL0     H28619   2.166   0.959   0.419  0.4721 -2.1971  1.7216
  212MOL0     H28620   2.297   0.767   0.478  0.1189 -1.5007 -0.5988
  213MOL0     O28621   4.837   4.917   5.866  0.1812 -0.4697 -0.0947
  213MOL0     C28622   4.868   4.799   5.841 -0.0633 -0.4146  0.4514
  213MOL0     O28623   4.828   4.686   5.906  0.1390 -0.4818 -0.2958
  213MOL0     C28624   4.756   4.700   6.019  0.7457  0.0699  1.1252
  213MOL0     C28625   4.630   4.654   6.014 -0.5709  0.4568 -0.3967
  213MOL0     C28626   4.549   4.680   6.131 -0.1560 -0.5994  0.4573
  213MOL0     C28627   4.594   4.743   6.246 -0.2670 -1.0304 -0.4387
  213MOL0     O28628   4.510   4.758   6.352 -0.8438  0.5495  0.6399
  213MOL0     C28629   4.544   4.699   6.482  0.0353  0.1258  0.1632
  213MOL0     C28630   4.438   4.757   6.576  1.4481  0.0769 -0.3295
  213MOL0     C28631   4.400   4.655   6.692  0.6180  0.6386  0.0548
  213MOL0     C28632   4.313   4.724   6.796 -0.2613  0.0900 -0.2991
  213MOL0     C28633   4.301   4.641   6.928 -0.4517  1.0520 -0.4333
  213MOL0     C28634   4.425   4.628   7.013 -0.1557 -0.4038  0.6486
  213MOL0     C28635   4.412   4.569   7.147 -0.0595  0.0095  0.5135
  213MOL0     C28636   4.336   4.659   7.250 -0.1223  0.7452  0.6453
  213MOL0     N28637   4.408   4.779   7.294 -0.2025  0.4701 -0.6352
  213MOL0     C28638   4.435   4.889   7.222 -0.9225 -0.5484 -0.3312
  213MOL0     C28639   4.515   4.973   7.304 -0.3573 -0.3111 -0.1928
  213MOL0     C28640   4.568   5.104   7.252 -0.4045 -0.3356  0.3099
  213MOL0     C28641   4.539   5.220   7.340  0.2696  0.9515 -0.3530
  213MOL0     C28642   4.383   5.233   7.343  0.0090 -0.6258 -0.5515
  213MOL0     C28643   4.335   5.236   7.495  0.2467 -0.1304  0.1773
  213MOL0     O28644   4.366   5.369   7.548 -0.4215 -0.8887 -1.0398
  213MOL0     C28645   4.380   5.369   7.692 -0.3893 -0.3191  1.2989
  213MOL0     C28646   4.282   5.308   7.776 -0.0159  0.6127 -0.1828
  213MOL0     C28647   4.294   5.310   7.918 -0.6651 -0.2532  0.2506
  213MOL0     C28648   4.197   5.243   8.013  0.2098 -1.3928  0.1526
  213MOL0     C28649   4.397   5.391   7.977 -0.4688  0.0111  0.4275
  213MOL0     C28650   4.421   5.419   8.125  0.7418  0.1361  0.6149
  213MOL0     O28651   4.553   5.446   8.158  0.4970 -0.0300 -0.8955
  213MOL0     C28652   4.576   5.484   8.290 -0.8000  0.8522 -0.9240
  213MOL0     C28653   4.718   5.459   8.315 -0.1258 -0.3017  0.3096
  213MOL0     C28654   4.782   5.495   8.437  0.8006 -0.8724 -0.4590
  213MOL0     C28655   4.701   5.531   8.547 -0.1413 -0.4850 -0.1044
  213MOL0     O28656   4.754   5.552   8.677  0.3390  0.0955 -0.0608
  213MOL0     C28657   4.663   5.588   8.789  0.9006 -0.0955 -0.1421
  213MOL0     C28658   4.758   5.561   8.912 -0.0342  0.6543 -0.2028
  213MOL0     C28659   4.885   5.643   8.906  0.2960  0.9033  1.2409
  213MOL0     C28660   4.967   5.599   9.025  0.0110  0.7326 -0.0534
  213MOL0     C28661   5.089   5.676   9.038 -0.6332 -0.5128  0.0396
  213MOL0     C28662   5.209   5.636   8.944 -0.0514  0.0766  0.6179
  213MOL0     C28663   5.323   5.738   8.961 -0.2337  0.0517  0.2724
  213MOL0     C28664   5.464   5.679   8.929  0.9400  0.3092 -0.7349
  213MOL0    Cl28665   5.510   5.570   9.063  0.6318 -0.2060 -0.0016
  213MOL0     C28666   4.565   5.550   8.525  0.6110  0.1183  0.4995
  213MOL0     C28667   4.500   5.533   8.394 -0.3456  0.2961  0.2602
  213MOL0     O28668   4.320   5.420   8.198  0.2799 -0.0161  0.6210
  213MOL0     C28669   4.487   5.454   7.897  0.0395 -0.2257 -0.2679
  213MOL0     C28670   4.478   5.452   7.754 -0.2538 -0.3075 -0.3349
  213MOL0     N28671   4.513   4.918   7.429 -0.3087 -0.2744 -0.0737
  213MOL0     N28672   4.450   4.806   7.423  0.2066  0.5686  0.7758
  213MOL0     C28673   4.730   4.781   6.246 -0.0719  0.2313 -0.4882
  213MOL0     C28674   4.809   4.756   6.133  0.4486  0.4736 -0.1316
  213MOL0     C28675   4.956   4.786   5.721 -0.3040  0.9369 -0.3481
  213MOL0     C28676   5.012   4.661   5.688 -1.1399  0.5753  0.0252
  213MOL0     C28677   5.065   4.627   5.559 -0.2766  0.7342 -0.0591
  213MOL0     C28678   5.079   4.727   5.459  0.1321 -0.4144 -0.1660
  213MOL0     O28679   5.140   4.693   5.342  0.3321  0.8440 -0.9832
  213MOL0     C28680   5.166   4.789   5.238  0.4249 -1.2712 -0.0679
  213MOL0     C28681   5.191   4.736   5.102  0.9479 -0.2671 -0.1815
  213MOL0     C28682   5.057   4.712   5.036  0.2916 -1.1385  0.8959
  213MOL0     C28683   4.961   4.603   5.091 -0.1526  0.7980 -0.4810
  213MOL0     C28684   4.855   4.545   5.005 -0.3785 -0.6878  0.4128
  213MOL0     C28685   4.771   4.498   4.930  1.0324 -0.0445 -0.2513
  213MOL0     C28686   5.036   4.854   5.499 -0.0665  1.0835  0.8943
  213MOL0     C28687   4.969   4.883   5.621  0.0619  1.6623  0.5168
  213MOL0     H28688   4.588   4.611   5.923 -1.6567  1.1508 -0.2477
  213MOL0     H28689   4.448   4.640   6.140 -0.7853  1.3404  3.8714
  213MOL0     H28690   4.527   4.591   6.477 -0.5167  0.1846  0.6570
  213MOL0     H28691   4.645   4.723   6.515  0.6023  1.9157 -2.5832
  213MOL0     H28692   4.475   4.856   6.606  3.0248 -0.7391  0.5559
  213MOL0     H28693   4.347   4.770   6.517 -0.0283 -1.1114  1.5558
  213MOL0     H28694   4.346   4.570   6.649  0.6463 -0.9119  2.8497
  213MOL0     H28695   4.497   4.627   6.735  2.0992 -0.0055 -3.3728
  213MOL0     H28696   4.362   4.818   6.824 -2.1577  1.2679 -0.7751
  213MOL0     H28697   4.214   4.732   6.751  0.0050 -2.8460 -1.6211
  213MOL0     H28698   4.227   4.689   6.992  0.8808 -0.0333  2.0806
  213MOL0     H28699   4.264   4.539   6.910  4.3473 -0.6727 -2.4550
  213MOL0     H28700   4.493   4.562   6.959  2.9060  1.0521  2.4479
  213MOL0     H28701   4.477   4.724   7.023 -1.8889  0.7071 -0.3857
  213MOL0     H28702   4.356   4.476   7.132 -1.9260  0.9212  1.4551
  213MOL0     H28703   4.506   4.534   7.191 -0.5509 -2.2528 -0.1069
  213MOL0     H28704   4.310   4.594   7.335 -2.0252 -1.5405 -1.5310
  213MOL0     H28705   4.243   4.692   7.202 -0.2188  0.2443  0.4794
  213MOL0     H28706   4.402   4.906   7.120  0.4474  1.0368 -0.5520
  213MOL0     H28707   4.673   5.086   7.227 -1.4553 -1.5153 -4.3067
  213MOL0     H28708   4.531   5.132   7.153  3.0129  0.3947 -0.8925
  213MOL0     H28709   4.588   5.304   7.289  0.8175 -1.3091 -3.9723
  213MOL0     H28710   4.580   5.207   7.440 -1.0004 -3.5893 -0.1779
  213MOL0     H28711   4.330   5.160   7.282 -4.1679  1.6817 -0.0750
  213MOL0     H28712   4.357   5.336   7.317 -1.3467 -0.4183  1.4414
  213MOL0     H28713   4.391   5.155   7.541  1.0460 -0.9690 -2.1282
  213MOL0     H28714   4.226   5.224   7.504  0.3925 -1.7969 -0.0157
  213MOL0     H28715   4.203   5.248   7.731  0.8969  1.2129 -2.7414
  213MOL0     H28716   4.246   5.195   8.098 -1.5982 -2.0766  0.8671
  213MOL0     H28717   4.123   5.317   8.045 -0.7627 -1.6899 -1.3241
  213MOL0     H28718   4.153   5.158   7.960  0.8698 -2.3653  1.1280
  213MOL0     H28719   4.786   5.420   8.240  0.5119  5.5400 -2.6992
  213MOL0     H28720   4.890   5.500   8.445  0.7250  0.2825 -0.0050
  213MOL0     H28721   4.638   5.695   8.783  2.2885  0.2483 -0.0085
  213MOL0     H28722   4.567   5.536   8.793  1.3645 -1.2113 -2.0903
  213MOL0     H28723   4.710   5.576   9.009  1.7471 -1.4010  1.0693
  213MOL0     H28724   4.779   5.454   8.911  0.5332  0.7539  0.2646
  213MOL0     H28725   4.853   5.747   8.899  0.8792  1.0415  0.5395
  213MOL0     H28726   4.935   5.621   8.812 -1.1662 -0.1622  0.6822
  213MOL0     H28727   4.905   5.591   9.115 -0.6285 -0.5500 -0.5740
  213MOL0     H28728   5.002   5.496   9.014 -0.2522  0.4682  1.4087
  213MOL0     H28729   5.114   5.671   9.145 -0.2582 -1.4793 -0.0861
  213MOL0     H28730   5.066   5.779   9.008  0.7887 -0.8917 -2.6552
  213MOL0     H28731   5.231   5.539   8.989  1.5964  1.6260  3.4197
  213MOL0     H28732   5.175   5.639   8.840 -2.1458  2.8245  1.2860
  213MOL0     H28733   5.330   5.787   9.059 -1.2507 -2.2539  1.5797
  213MOL0     H28734   5.295   5.808   8.882 -1.0831 -1.2205 -0.5896
  213MOL0     H28735   5.538   5.759   8.919  0.1804  1.0579 -0.4784
  213MOL0     H28736   5.466   5.628   8.832  2.3901  0.2108 -0.6747
  213MOL0     H28737   4.499   5.602   8.595  2.6671  0.5889  2.1768
  213MOL0     H28738   4.395   5.556   8.384 -1.0618 -2.4365  0.8744
  213MOL0     H28739   4.572   5.509   7.935 -0.4752  0.5327 -0.1918
  213MOL0     H28740   4.551   5.503   7.693 -0.3279 -0.2117 -0.3425
  213MOL0     H28741   4.782   4.799   6.340 -0.6097  3.0349 -0.6302
  213MOL0     H28742   4.913   4.787   6.132  0.6995 -0.3343 -0.4636
  213MOL0     H28743   4.996   4.577   5.755 -3.5891  1.5050  0.6975
  213MOL0     H28744   5.104   4.528   5.542 -0.2817  0.3973  1.6836
  213MOL0     H28745   5.090   4.869   5.239  0.4650 -1.1601  3.1025
  213MOL0     H28746   5.257   4.838   5.274 -0.6474 -1.1521  2.6770
  213MOL0     H28747   5.229   4.635   5.115 -3.5331 -2.2227 -0.4371
  213MOL0     H28748   5.267   4.798   5.053  0.8690 -1.7214 -2.2587
  213MOL0     H28749   5.075   4.692   4.930 -0.6966  0.1850  0.4530
  213MOL0     H28750   4.999   4.804   5.028 -0.3629 -1.3255  2.8947
  213MOL0     H28751   4.917   4.634   5.186  0.8132  1.2463 -0.1563
  213MOL0     H28752   5.020   4.514   5.113 -1.5584  0.4738  2.4588
  213MOL0     H28753   4.721   4.450   4.847  2.3077  0.4468 -1.3406
  213MOL0     H28754   5.069   4.933   5.433  0.5110 -1.8319 -2.6124
  213MOL0     H28755   4.934   4.985   5.637  0.9450  2.2697 -1.1902
  214MOL0     O28756   4.145   4.701   4.805  0.2065  0.4155  0.1717
  214MOL0     C28757   4.234   4.786   4.779  0.3117 -0.3379 -0.7067
  214MOL0     O28758   4.300   4.858   4.882  0.6433 -0.3457 -0.1884
  214MOL0     C28759   4.295   4.815   5.010 -0.3884 -1.2285 -0.1456
  214MOL0     C28760   4.263   4.898   5.116  0.4305 -0.3758 -0.9691
  214MOL0     C28761   4.246   4.852   5.251 -0.5590  0.3596  0.2283
  214MOL0     C28762   4.260   4.710   5.279 -0.2932 -0.2814 -0.4227
  214MOL0     O28763   4.247   4.655   5.404 -0.1647  1.2892 -0.1515
  214MOL0     C28764   4.169   4.714   5.502  0.1255 -0.5357  0.0583
  214MOL0     C28765   4.019   4.725   5.466 -0.7936  0.2197  0.0221
  214MOL0     C28766   3.941   4.595   5.468  0.2530  0.1250  0.5307
  214MOL0     C28767   3.786   4.596   5.477 -0.3135  0.3759  1.5722
  214MOL0     C28768   3.736   4.669   5.595  0.8858  0.1957 -0.2282
  214MOL0     C28769   3.789   4.617   5.728  0.3361  0.2897 -0.6448
  214MOL0     C28770   3.704   4.675   5.841  0.1609  0.0252  0.6738
  214MOL0     C28771   3.768   4.802   5.898  0.7315 -1.0425 -0.4034
  214MOL0     N28772   3.777   4.919   5.812 -0.6682 -0.6717 -0.0018
  214MOL0     C28773   3.677   5.006   5.775  0.3502  0.7016  0.8181
  214MOL0     C28774   3.724   5.074   5.674 -0.1488 -0.9918  0.2344
  214MOL0     C28775   3.641   5.185   5.606  0.8921 -0.1194 -0.1995
  214MOL0     C28776   3.603   5.292   5.700 -0.2224 -0.1810  0.1378
  214MOL0     C28777   3.530   5.409   5.639 -0.6456 -1.0497  0.2136
  214MOL0     C28778   3.386   5.379   5.587 -0.4585 -0.2294 -0.2758
  214MOL0     O28779   3.292   5.352   5.691  0.1527 -0.1861  0.3107
  214MOL0     C28780   3.151   5.343   5.655 -0.1564 -0.6073 -0.1655
  214MOL0     C28781   3.067   5.312   5.758  0.9297  0.5676  0.9514
  214MOL0     C28782   2.933   5.291   5.735  0.2215  0.0002  0.0177
  214MOL0     C28783   2.844   5.234   5.846 -0.1254  0.0115  0.0826
  214MOL0     C28784   2.874   5.319   5.605  1.0463  0.8818 -0.8279
  214MOL0     C28785   2.731   5.304   5.574 -0.2973 -0.3522 -0.2211
  214MOL0     O28786   2.685   5.404   5.499 -0.2767  0.3296 -0.2269
  214MOL0     C28787   2.567   5.379   5.436  0.1438  0.4592 -0.4708
  214MOL0     C28788   2.446   5.361   5.509  0.8454  0.1480  0.2806
  214MOL0     C28789   2.322   5.338   5.449  0.2098 -0.7706 -1.2894
  214MOL0     C28790   2.318   5.343   5.310 -0.7568  1.0250 -0.3763
  214MOL0     O28791   2.200   5.303   5.250 -0.2766  0.0433 -0.6832
  214MOL0     C28792   2.156   5.171   5.286  0.1783 -0.3370  0.1683
  214MOL0     C28793   2.005   5.158   5.259 -0.0962  0.2341 -0.4139
  214MOL0     C28794   1.993   5.150   5.107  0.1090  0.5163  0.6564
  214MOL0     C28795   1.839   5.167   5.071 -0.2576 -0.8457  0.9968
  214MOL0     C28796   1.803   5.169   4.919  0.4505 -0.5192  0.1612
  214MOL0     C28797   1.864   5.046   4.851  0.6283 -1.3749 -0.3226
  214MOL0     C28798   1.814   5.015   4.719  0.1936 -0.8601  0.9779
  214MOL0     C28799   1.698   4.906   4.736  0.2720  0.2403  0.5912
  214MOL0    Cl28800   1.608   4.879   4.577 -0.0590 -0.0306  0.2162
  214MOL0     C28801   2.439   5.365   5.229 -0.2126 -0.7858 -0.1841
  214MOL0     C28802   2.564   5.384   5.299 -0.6574 -0.2160  0.2288
  214MOL0     O28803   2.674   5.197   5.599  0.2634 -0.6833  0.3085
  214MOL0     C28804   2.959   5.367   5.507 -0.0536 -0.1306 -1.0215
  214MOL0     C28805   3.106   5.368   5.530  1.6379  0.3863 -0.0909
  214MOL0     N28806   3.858   5.032   5.648  0.4641 -1.0398  0.0146
  214MOL0     N28807   3.882   4.934   5.729  0.4703  0.2398  0.3404
  214MOL0     C28808   4.315   4.631   5.175  0.2174  0.0281 -0.2792
  214MOL0     C28809   4.324   4.684   5.044  0.1819  0.5416  0.9606
  214MOL0     C28810   4.257   4.824   4.641 -0.5305 -0.6301 -0.1522
  214MOL0     C28811   4.333   4.941   4.618  0.7348  0.1302 -0.4019
  214MOL0     C28812   4.343   4.988   4.490  1.0580  0.0153 -0.6093
  214MOL0     C28813   4.292   4.925   4.380  0.8268 -0.0957  0.8683
  214MOL0     O28814   4.312   4.990   4.257  0.9671 -0.3174  0.7960
  214MOL0     C28815   4.238   4.952   4.134 -1.1984  0.3866  0.5675
  214MOL0     C28816   4.322   4.861   4.033  0.1861  0.3223  0.3030
  214MOL0     C28817   4.404   4.940   3.938 -0.3805  0.5515 -0.2666
  214MOL0     C28818   4.471   4.838   3.837  0.4294 -1.0058  0.1779
  214MOL0     C28819   4.590   4.790   3.909 -0.4440  0.4254 -0.2970
  214MOL0     C28820   4.695   4.743   3.958 -0.0527 -0.2562  0.3535
  214MOL0     C28821   4.228   4.797   4.408 -0.3140 -0.9053 -0.1869
  214MOL0     C28822   4.223   4.746   4.533  0.5051  0.4455 -0.3958
  214MOL0     H28823   4.243   5.004   5.103 -3.8799 -0.9522 -0.4118
  214MOL0     H28824   4.218   4.929   5.323 -4.5360 -0.1464 -0.5374
  214MOL0     H28825   4.177   4.653   5.593  2.6638 -0.7724 -0.2525
  214MOL0     H28826   4.205   4.815   5.527  1.0899  0.1480 -3.5204
  214MOL0     H28827   3.976   4.791   5.541 -2.3035 -1.3347  0.5835
  214MOL0     H28828   3.998   4.779   5.373 -1.5924 -2.0021 -1.1645
  214MOL0     H28829   3.971   4.528   5.387  0.0323 -1.4865  1.7410
  214MOL0     H28830   3.984   4.537   5.550  0.5786 -1.6897 -0.8735
  214MOL0     H28831   3.742   4.636   5.386  1.9673 -1.0870 -0.2943
  214MOL0     H28832   3.743   4.496   5.482 -2.5923  1.2429  0.4062
  214MOL0     H28833   3.762   4.775   5.592 -1.1020  0.7421 -3.8597
  214MOL0     H28834   3.632   4.639   5.578  1.9089 -2.4613 -2.7510
  214MOL0     H28835   3.790   4.507   5.728  0.8407  0.2611 -2.0815
  214MOL0     H28836   3.893   4.649   5.740  1.5385 -3.2614 -0.1090
  214MOL0     H28837   3.601   4.680   5.805  0.1726 -0.8602  0.4947
  214MOL0     H28838   3.693   4.613   5.930 -1.0115  0.3816  0.7897
  214MOL0     H28839   3.868   4.773   5.931  0.2535 -2.1557  0.0938
  214MOL0     H28840   3.694   4.826   5.975 -0.9388 -0.5331 -2.0897
  214MOL0     H28841   3.575   4.999   5.811 -1.4154  1.4202 -3.5430
  214MOL0     H28842   3.700   5.233   5.527  0.4275 -2.1791 -1.8950
  214MOL0     H28843   3.552   5.144   5.558  1.3731 -1.1313 -0.2504
  214MOL0     H28844   3.687   5.340   5.751 -0.2626  0.4597 -0.3867
  214MOL0     H28845   3.531   5.256   5.773 -0.7769  2.2211  0.8819
  214MOL0     H28846   3.590   5.447   5.556  1.4574  0.0905  2.1261
  214MOL0     H28847   3.529   5.491   5.712 -0.3925  0.5337 -1.4844
  214MOL0     H28848   3.389   5.287   5.527 -0.6517  0.1986 -0.9557
  214MOL0     H28849   3.353   5.457   5.518  1.4712 -0.5793 -1.6762
  214MOL0     H28850   3.109   5.308   5.858 -0.0607 -0.1617  1.3554
  214MOL0     H28851   2.884   5.262   5.944  3.2410  1.3273 -1.5122
  214MOL0     H28852   2.743   5.275   5.843  0.4256  1.6945  2.0584
  214MOL0     H28853   2.842   5.124   5.843 -1.6230  0.0502 -1.5609
  214MOL0     H28854   2.448   5.336   5.615  0.3800 -2.1112 -0.1876
  214MOL0     H28855   2.232   5.323   5.508  2.0883  2.9603  3.2383
  214MOL0     H28856   2.210   5.096   5.228 -1.9503 -0.6996 -1.4506
  214MOL0     H28857   2.166   5.144   5.392 -4.6947  0.3383  1.0395
  214MOL0     H28858   1.956   5.072   5.306 -4.8302  0.6225 -3.8589
  214MOL0     H28859   1.961   5.253   5.289 -3.4467 -1.5186  0.7829
  214MOL0     H28860   2.029   5.052   5.075 -0.7545  0.4579 -0.1667
  214MOL0     H28861   2.059   5.224   5.060  2.3079 -1.7300  0.0152
  214MOL0     H28862   1.775   5.092   5.117 -0.0271 -1.8248 -0.2144
  214MOL0     H28863   1.811   5.261   5.118  0.7076 -0.8217  1.5475
  214MOL0     H28864   1.839   5.261   4.872  1.5803 -2.7386 -3.7014
  214MOL0     H28865   1.694   5.168   4.908  0.5886  1.7598 -2.3843
  214MOL0     H28866   1.970   5.066   4.840 -0.3130  3.3574 -3.3509
  214MOL0     H28867   1.852   4.962   4.921 -2.1021  0.7554  2.0331
  214MOL0     H28868   1.903   4.985   4.664  0.2056  0.4658  0.2476
  214MOL0     H28869   1.784   5.113   4.681  0.3734 -0.5731  1.5527
  214MOL0     H28870   1.617   4.932   4.805 -2.2635 -1.8962 -1.3589
  214MOL0     H28871   1.736   4.810   4.774 -0.1738  0.2600  1.0979
  214MOL0     H28872   2.415   5.369   5.123 -3.0326 -1.2567  0.3558
  214MOL0     H28873   2.657   5.391   5.245  0.2706 -0.0217  1.8053
  214MOL0     H28874   2.925   5.383   5.405  1.3367  5.1929 -0.9253
  214MOL0     H28875   3.172   5.386   5.445  0.7183  0.9840 -0.6998
  214MOL0     H28876   4.331   4.530   5.209 -1.3678  0.9860  3.8835
  214MOL0     H28877   4.350   4.620   4.961 -1.9846  2.3879 -1.2871
  214MOL0     H28878   4.369   4.998   4.703  2.8912 -0.9418 -0.5305
  214MOL0     H28879   4.398   5.080   4.470 -0.3794  0.5947 -2.0851
  214MOL0     H28880   4.144   4.898   4.150 -1.8478  0.3217 -2.7656
  214MOL0     H28881   4.215   5.046   4.083  0.9176  0.3190 -0.6124
  214MOL0     H28882   4.258   4.787   3.985  0.5018  0.0787  0.2539
  214MOL0     H28883   4.395   4.806   4.093  2.7440  1.3301 -1.6806
  214MOL0     H28884   4.481   4.996   3.992  2.6712 -2.7008 -0.8376
  214MOL0     H28885   4.335   5.012   3.894 -2.5455  0.8069  3.1483
  214MOL0     H28886   4.500   4.881   3.741 -2.3464  0.3561 -0.1646
  214MOL0     H28887   4.398   4.758   3.822  0.7023 -1.2420  0.0954
  214MOL0     H28888   4.784   4.712   4.009 -0.6239 -2.6921  0.0144
  214MOL0     H28889   4.212   4.733   4.322 -1.9908  1.1903 -1.5269
  214MOL0     H28890   4.206   4.640   4.549  2.9974  0.3241  2.0031
  215MOL0     O28891   5.839   9.719   6.737 -0.1371  0.6348  0.1527
  215MOL0     C28892   5.947   9.667   6.773 -0.4545  0.1074 -0.2478
  215MOL0     O28893   5.960   9.590   6.891 -1.1719 -0.4756 -0.1682
  215MOL0     C28894   5.855   9.569   6.980 -0.6811 -1.1505  0.2867
  215MOL0     C28895   5.761   9.668   7.005  0.0753 -0.4615  0.3985
  215MOL0     C28896   5.650   9.642   7.088  0.7673 -0.6266 -0.5429
  215MOL0     C28897   5.643   9.521   7.154 -0.9032  0.3069  0.1838
  215MOL0     O28898   5.542   9.490   7.242  0.7675 -0.0327  0.2514
  215MOL0     C28899   5.542   9.551   7.370  0.2677 -0.2585 -1.2749
  215MOL0     C28900   5.387   9.552   7.422  0.2703  0.0538  0.6769
  215MOL0     C28901   5.382   9.637   7.552  0.5384 -0.2395 -0.6893
  215MOL0     C28902   5.417   9.558   7.678 -0.5136 -0.6799  0.4813
  215MOL0     C28903   5.414   9.633   7.811 -0.3916  0.0246  0.5115
  215MOL0     C28904   5.513   9.737   7.817  0.1985  0.8739 -0.3384
  215MOL0     C28905   5.525   9.801   7.951 -0.1706 -0.7176 -0.2996
  215MOL0     C28906   5.403   9.902   7.987 -0.0690 -0.8330 -0.0758
  215MOL0     N28907   5.442  10.002   8.100  0.1932  0.6249  0.6446
  215MOL0     C28908   5.557  10.071   8.101 -0.1682 -0.2081 -1.1182
  215MOL0     C28909   5.553  10.136   8.221  0.6585  0.8538  0.3903
  215MOL0     C28910   5.677  10.207   8.281  0.9506 -0.4251 -0.4865
  215MOL0     C28911   5.719  10.115   8.399  0.3998  0.3052 -0.7400
  215MOL0     C28912   5.742   9.970   8.371 -0.3556  0.1806 -0.5612
  215MOL0     C28913   5.813   9.907   8.494 -0.2280  1.0834  0.1478
  215MOL0     O28914   5.736   9.910   8.620 -0.3593  0.4364  0.0271
  215MOL0     C28915   5.649   9.806   8.636 -0.4609  0.0613  0.7968
  215MOL0     C28916   5.583   9.791   8.764 -0.4810 -0.1778 -0.1102
  215MOL0     C28917   5.487   9.686   8.780  0.4703 -0.0569 -0.5962
  215MOL0     C28918   5.413   9.703   8.911  0.7280 -0.7744 -0.0785
  215MOL0     C28919   5.464   9.583   8.680 -0.2783 -1.3043 -0.2874
  215MOL0     C28920   5.379   9.470   8.704 -0.2492  0.1860 -0.1096
  215MOL0     O28921   5.396   9.356   8.627 -0.3627  0.3013  0.3406
  215MOL0     C28922   5.296   9.261   8.621 -0.7671 -0.0451 -0.6385
  215MOL0     C28923   5.175   9.295   8.574 -0.5749  0.0639 -0.7161
  215MOL0     C28924   5.076   9.199   8.560  0.1123  0.2296  0.2371
  215MOL0     C28925   5.098   9.070   8.612  0.5756  0.0850 -1.0028
  215MOL0     O28926   4.979   8.997   8.615 -0.6217  0.3594  0.4506
  215MOL0     C28927   4.989   8.866   8.661 -0.4057  0.3223 -0.2347
  215MOL0     C28928   4.853   8.800   8.677  0.0069 -0.1169  1.2092
  215MOL0     C28929   4.849   8.659   8.729 -0.1019  0.1507  0.2797
  215MOL0     C28930   4.704   8.611   8.720  0.0472  0.1371  0.6712
  215MOL0     C28931   4.686   8.471   8.787  0.3122 -0.0939  0.4280
  215MOL0     C28932   4.713   8.351   8.696  0.3452 -0.3567 -0.2636
  215MOL0     C28933   4.830   8.265   8.763 -0.4906 -0.5015 -0.1499
  215MOL0     C28934   4.840   8.123   8.695 -0.1538 -0.4151  0.6479
  215MOL0    Cl28935   4.695   8.011   8.729 -0.1536 -0.2516  0.3304
  215MOL0     C28936   5.225   9.033   8.663 -1.0597  0.5081 -0.3942
  215MOL0     C28937   5.325   9.131   8.665  0.0538  0.6412  0.6400
  215MOL0     O28938   5.283   9.492   8.777  0.7457  0.2954  0.7320
  215MOL0     C28939   5.530   9.596   8.563 -1.0710 -0.6006  0.4551
  215MOL0     C28940   5.624   9.700   8.540 -0.0535 -0.5955  0.2905
  215MOL0     N28941   5.427  10.114   8.283  0.5934  0.5594 -0.2910
  215MOL0     N28942   5.363  10.032   8.204  0.3432  1.0054 -1.5143
  215MOL0     C28943   5.743   9.426   7.131  0.2542  0.0531 -0.5661
  215MOL0     C28944   5.844   9.450   7.047 -0.8127  0.3349 -0.3546
  215MOL0     C28945   6.072   9.708   6.705 -0.0426  0.8118  0.4710
  215MOL0     C28946   6.190   9.669   6.763 -0.2992  0.2890 -0.1881
  215MOL0     C28947   6.313   9.681   6.699  0.4784 -0.7067 -0.3822
  215MOL0     C28948   6.326   9.752   6.577 -0.3435  0.3708 -0.0753
  215MOL0     O28949   6.448   9.782   6.515 -0.5536  0.9613  0.1966
  215MOL0     C28950   6.570   9.700   6.528  0.1958 -0.6411 -0.6233
  215MOL0     C28951   6.676   9.784   6.451  0.3036  0.5499  0.2502
  215MOL0     C28952   6.662   9.796   6.286  0.0048  0.8328 -0.3781
  215MOL0     C28953   6.663   9.946   6.244  0.0305 -0.1040 -0.6893
  215MOL0     C28954   6.779  10.019   6.288 -0.7545 -0.2902 -0.9599
  215MOL0     C28955   6.857  10.107   6.318 -0.5112 -0.6136  0.5051
  215MOL0     C28956   6.210   9.792   6.516 -0.2359 -0.4565 -0.4595
  215MOL0     C28957   6.086   9.770   6.575  0.0864 -0.1951  0.5294
  215MOL0     H28958   5.765   9.767   6.960  0.2698 -0.8029 -0.3383
  215MOL0     H28959   5.576   9.715   7.120  0.7557 -0.3125 -1.2572
  215MOL0     H28960   5.595   9.489   7.443 -2.5514 -0.0211  1.1571
  215MOL0     H28961   5.580   9.653   7.357  0.5339 -0.4248 -1.7972
  215MOL0     H28962   5.319   9.596   7.348  0.5467 -1.4883 -0.5470
  215MOL0     H28963   5.349   9.452   7.443  0.9397  0.2387  3.0533
  215MOL0     H28964   5.459   9.715   7.545  2.0677 -1.8136 -2.6351
  215MOL0     H28965   5.279   9.665   7.577  1.5259  3.0544  0.2371
  215MOL0     H28966   5.361   9.465   7.678 -0.4985 -0.7708 -2.1734
  215MOL0     H28967   5.521   9.527   7.664 -0.0335  0.2546  1.7482
  215MOL0     H28968   5.314   9.678   7.817  0.6333  2.3249  1.2198
  215MOL0     H28969   5.436   9.559   7.888 -0.7343 -2.5521 -1.7168
  215MOL0     H28970   5.612   9.700   7.789 -0.1483 -1.9979  1.6912
  215MOL0     H28971   5.488   9.820   7.751 -1.6922  2.4903  2.2356
  215MOL0     H28972   5.533   9.728   8.032  2.3310  0.3507  0.5023
  215MOL0     H28973   5.619   9.854   7.969 -0.4595  0.7162 -2.5695
  215MOL0     H28974   5.313   9.849   8.016 -1.0735  1.2069  0.7573
  215MOL0     H28975   5.369   9.961   7.901  1.2703  0.4185  0.2059
  215MOL0     H28976   5.642  10.065   8.034  1.3825 -0.3272  0.7706
  215MOL0     H28977   5.759  10.215   8.209 -1.0180  0.2141 -2.7956
  215MOL0     H28978   5.663  10.308   8.320 -1.0381 -0.7018 -0.3565
  215MOL0     H28979   5.646  10.125   8.480 -1.4578 -3.0300 -1.8176
  215MOL0     H28980   5.815  10.154   8.433 -0.4104  0.5170  1.4622
  215MOL0     H28981   5.810   9.954   8.288 -1.1205 -0.7997 -1.0284
  215MOL0     H28982   5.651   9.909   8.361 -0.4940 -0.0267  1.3841
  215MOL0     H28983   5.913   9.949   8.511  0.4094  0.2130 -1.3001
  215MOL0     H28984   5.836   9.805   8.464  2.3346  1.3770  0.8250
  215MOL0     H28985   5.596   9.860   8.847  1.1029  2.6720 -2.5340
  215MOL0     H28986   5.318   9.751   8.889  1.7385  0.3598 -2.2545
  215MOL0     H28987   5.406   9.602   8.954  0.2249 -1.2172 -1.1641
  215MOL0     H28988   5.469   9.763   8.984  0.9657  2.0336 -2.4020
  215MOL0     H28989   5.180   9.394   8.530  1.8023 -0.2795 -1.3935
  215MOL0     H28990   4.983   9.219   8.507 -0.7578  1.0928  2.0151
  215MOL0     H28991   5.060   8.812   8.598 -1.0231 -1.9859  0.9561
  215MOL0     H28992   5.037   8.875   8.759  0.2704  2.5493 -0.6936
  215MOL0     H28993   4.790   8.855   8.748  1.3442  2.3529  0.5544
  215MOL0     H28994   4.789   8.796   8.588 -1.2660  0.3759  2.0598
  215MOL0     H28995   4.882   8.665   8.833 -0.8547 -0.7330  0.5802
  215MOL0     H28996   4.922   8.592   8.681  1.7822  0.5535  2.4312
  215MOL0     H28997   4.636   8.676   8.775 -0.7080  0.6986 -0.8571
  215MOL0     H28998   4.665   8.614   8.617  0.9256  1.0008  0.3491
  215MOL0     H28999   4.581   8.457   8.816  0.3338  1.8449  1.6440
  215MOL0     H29000   4.739   8.475   8.883  1.5089  0.9316 -0.2416
  215MOL0     H29001   4.621   8.291   8.694 -2.0360  2.9867  0.3364
  215MOL0     H29002   4.723   8.381   8.592 -1.8515 -0.7592 -0.6457
  215MOL0     H29003   4.813   8.264   8.871  1.6720  0.9331  0.2616
  215MOL0     H29004   4.926   8.317   8.759 -1.2535  1.1704  1.6818
  215MOL0     H29005   4.934   8.079   8.730  0.5562  0.7062  0.2229
  215MOL0     H29006   4.837   8.133   8.586  0.5347 -3.3493  0.2887
  215MOL0     H29007   5.254   8.938   8.708 -1.1937  1.3356  1.5314
  215MOL0     H29008   5.426   9.104   8.693  1.7334  1.8804 -3.4535
  215MOL0     H29009   5.507   9.531   8.479 -0.5535  1.3392 -1.2720
  215MOL0     H29010   5.653   9.719   8.437 -0.4259 -0.5279  0.1951
  215MOL0     H29011   5.741   9.331   7.183  2.4438  1.2890  1.9986
  215MOL0     H29012   5.906   9.367   7.016  0.1293  0.2473  1.6608
  215MOL0     H29013   6.193   9.626   6.863  0.8010  1.8278  0.4952
  215MOL0     H29014   6.401   9.654   6.756  1.6181  0.5805 -1.4420
  215MOL0     H29015   6.603   9.687   6.632  3.2655  1.4132 -1.2081
  215MOL0     H29016   6.545   9.604   6.484  0.5787 -0.4510 -1.2673
  215MOL0     H29017   6.777   9.764   6.489 -0.3565  1.1725  2.5035
  215MOL0     H29018   6.673   9.885   6.493  0.6169  0.3980  0.6544
  215MOL0     H29019   6.575   9.744   6.248  1.0887 -0.4461 -1.1999
  215MOL0     H29020   6.741   9.746   6.230  2.9584  2.0208  2.3758
  215MOL0     H29021   6.569   9.981   6.288 -0.5954  0.3846 -2.3543
  215MOL0     H29022   6.649   9.948   6.136 -1.5979 -0.3356 -0.5148
  215MOL0     H29023   6.939  10.174   6.328 -0.9693  0.5039 -2.2481
  215MOL0     H29024   6.223   9.850   6.425  3.9303  0.7300  0.6815
  215MOL0     H29025   6.008   9.807   6.508  1.2819  0.4089 -0.5651
  216MOL0     O29026   1.005   3.108   3.927 -0.3041 -0.7547 -0.4483
  216MOL0     C29027   1.055   3.217   3.955 -0.4319 -0.5157 -0.4154
  216MOL0     O29028   1.041   3.339   3.889 -0.0006  0.2118 -0.0389
  216MOL0     C29029   0.953   3.335   3.782 -0.4308 -0.3635 -0.3767
  216MOL0     C29030   0.983   3.270   3.667  0.4877  0.3644 -0.0239
  216MOL0     C29031   0.882   3.253   3.570  0.0372 -0.0611  0.1818
  216MOL0     C29032   0.756   3.314   3.581  0.5317  0.4193 -0.6762
  216MOL0     O29033   0.675   3.298   3.470 -0.3548  0.1344  0.1338
  216MOL0     C29034   0.554   3.248   3.501  0.8168  0.2700 -0.0503
  216MOL0     C29035   0.504   3.152   3.401  0.0373  0.4339 -0.2998
  216MOL0     C29036   0.516   3.207   3.262 -1.0029  0.7787 -0.4855
  216MOL0     C29037   0.432   3.133   3.157  0.7782  0.3186  0.0375
  216MOL0     C29038   0.461   2.985   3.150 -0.2077 -0.2362 -0.5993
  216MOL0     C29039   0.386   2.922   3.034  1.0896  0.1295  0.9231
  216MOL0     C29040   0.326   2.789   3.070  0.2949  0.8553  0.1885
  216MOL0     C29041   0.257   2.718   2.957  0.4660  0.0575 -0.1152
  216MOL0     N29042   0.122   2.765   2.910  0.2065 -0.8275 -0.7054
  216MOL0     C29043   0.004   2.709   2.959  0.9631  0.0219 -0.1368
  216MOL0     C29044  -0.089   2.759   2.879  0.5198 -0.0993 -0.0620
  216MOL0     C29045  -0.233   2.730   2.857  0.6211  1.0298 -0.0452
  216MOL0     C29046  -0.274   2.585   2.812  0.2274  0.4173  0.4815
  216MOL0     C29047  -0.258   2.479   2.933  0.1761 -0.2450 -0.0971
  216MOL0     C29048  -0.308   2.341   2.889 -0.0649  0.2995 -0.6133
  216MOL0     O29049  -0.203   2.269   2.821 -0.5673  0.5879  0.8665
  216MOL0     C29050  -0.219   2.151   2.765 -0.3230 -0.1670 -0.8958
  216MOL0     C29051  -0.347   2.077   2.774 -0.4022 -0.0635  0.0147
  216MOL0     C29052  -0.358   1.955   2.710  1.3960  1.0177  0.3540
  216MOL0     C29053  -0.494   1.884   2.702  1.2212  0.0470  0.3912
  216MOL0     C29054  -0.250   1.901   2.635 -1.0003  0.3030  0.2733
  216MOL0     C29055  -0.248   1.778   2.554  0.1487  0.5165  0.0582
  216MOL0     O29056  -0.358   1.739   2.486 -1.0646  0.1744 -0.5438
  216MOL0     C29057  -0.354   1.626   2.406 -0.5785 -0.0129  0.7542
  216MOL0     C29058  -0.477   1.541   2.397 -0.5652 -0.8077 -0.4894
  216MOL0     C29059  -0.479   1.425   2.314 -0.0940 -0.3031 -0.0679
  216MOL0     C29060  -0.367   1.391   2.241 -0.3704 -0.1910  0.2984
  216MOL0     O29061  -0.348   1.291   2.148  0.3718  0.1386  0.4114
  216MOL0     C29062  -0.454   1.197   2.138  0.3050 -0.7728  0.2374
  216MOL0     C29063  -0.466   1.111   2.269  0.5314  0.8447  0.2424
  216MOL0     C29064  -0.367   0.994   2.282 -0.1702 -0.2647  0.0765
  216MOL0     C29065  -0.370   0.916   2.411  1.4507  0.3861  0.6752
  216MOL0     C29066  -0.346   0.994   2.536 -0.6288  0.5521 -0.2243
  216MOL0     C29067  -0.209   1.069   2.540  0.4752  0.0093  0.9251
  216MOL0     C29068  -0.189   1.112   2.686 -0.0324  1.0060  0.1595
  216MOL0     C29069  -0.059   1.180   2.706  0.3968 -0.1482 -0.7569
  216MOL0    Cl29070   0.081   1.078   2.657  0.2016  0.4916 -0.3669
  216MOL0     C29071  -0.249   1.472   2.249 -1.0103  0.5951 -0.0908
  216MOL0     C29072  -0.237   1.577   2.334  0.3043 -0.1452  0.7820
  216MOL0     O29073  -0.149   1.701   2.566 -0.1546 -0.6687  0.0685
  216MOL0     C29074  -0.129   1.969   2.636  0.6024 -0.3735  0.7236
  216MOL0     C29075  -0.113   2.082   2.706  0.3305 -0.8314 -0.3108
  216MOL0     N29076  -0.028   2.861   2.805 -0.3081  0.0182  0.1338
  216MOL0     N29077   0.103   2.865   2.821 -0.2793  0.1388  0.6450
  216MOL0     C29078   0.725   3.376   3.704  0.2920  0.9629  0.8852
  216MOL0     C29079   0.825   3.388   3.802  0.6491 -0.4755  0.5612
  216MOL0     C29080   1.137   3.214   4.072 -0.1242  0.0131  0.3596
  216MOL0     C29081   1.177   3.330   4.140  0.6830 -0.2771  0.3093
  216MOL0     C29082   1.267   3.317   4.244  1.3487  0.5363 -0.1234
  216MOL0     C29083   1.297   3.194   4.305 -0.1002  0.1147  0.1495
  216MOL0     O29084   1.377   3.168   4.417  0.1305 -0.7733 -0.4136
  216MOL0     C29085   1.438   3.283   4.488 -0.7081  0.0710  0.5268
  216MOL0     C29086   1.515   3.225   4.608 -0.1599  0.2751 -0.7297
  216MOL0     C29087   1.643   3.152   4.556  0.2066  0.1235 -0.0895
  216MOL0     C29088   1.722   3.081   4.656  0.1193 -0.3934 -0.1280
  216MOL0     C29089   1.646   2.962   4.715  0.3816  0.6078 -0.0585
  216MOL0     C29090   1.576   2.866   4.756 -0.0263  0.0632 -0.6958
  216MOL0     C29091   1.261   3.083   4.233  0.8028  0.2842 -0.1132
  216MOL0     C29092   1.186   3.088   4.114 -0.5083 -0.8787 -0.6402
  216MOL0     H29093   1.082   3.227   3.654 -0.6680 -2.8449  0.7463
  216MOL0     H29094   0.912   3.218   3.472 -1.9634 -1.8418  0.1173
  216MOL0     H29095   0.542   3.207   3.601 -2.7996 -0.3396 -0.5926
  216MOL0     H29096   0.484   3.332   3.503  0.8300  0.3102  3.3706
  216MOL0     H29097   0.570   3.065   3.408  0.5849  0.9111  0.5649
  216MOL0     H29098   0.399   3.126   3.417 -0.1184  2.3534  2.4180
  216MOL0     H29099   0.495   3.315   3.262 -0.0790  1.0094 -2.6401
  216MOL0     H29100   0.620   3.205   3.231 -1.1478  0.0789 -0.9633
  216MOL0     H29101   0.328   3.158   3.180  0.6634 -1.9918  2.4898
  216MOL0     H29102   0.458   3.167   3.056 -1.6464  2.0882 -0.0693
  216MOL0     H29103   0.569   2.966   3.156 -0.3352 -0.5434  1.4174
  216MOL0     H29104   0.424   2.944   3.244  1.6925 -1.2904 -0.2388
  216MOL0     H29105   0.300   2.985   3.010  0.2835 -1.0596  0.6241
  216MOL0     H29106   0.453   2.916   2.948  0.5834 -0.6247  0.5743
  216MOL0     H29107   0.415   2.733   3.099 -0.7566 -0.9136  0.1598
  216MOL0     H29108   0.263   2.783   3.159  0.9936  0.9581  0.6978
  216MOL0     H29109   0.242   2.614   2.986 -2.0646  0.5667  0.7016
  216MOL0     H29110   0.319   2.726   2.867 -0.3087  0.9283 -0.6007
  216MOL0     H29111  -0.019   2.643   3.043  4.3286 -0.2946  0.6835
  216MOL0     H29112  -0.290   2.762   2.945  2.1942  0.4692  1.2274
  216MOL0     H29113  -0.279   2.797   2.784  0.9352  3.0876  1.5576
  216MOL0     H29114  -0.219   2.555   2.722  0.2748  1.9183 -0.0222
  216MOL0     H29115  -0.380   2.581   2.785 -0.0503  1.8426  1.3062
  216MOL0     H29116  -0.321   2.514   3.015  0.4438  0.6938 -0.2800
  216MOL0     H29117  -0.155   2.466   2.967  0.1778 -0.8244 -0.3071
  216MOL0     H29118  -0.390   2.355   2.816  1.2532 -1.4856 -2.5565
  216MOL0     H29119  -0.344   2.293   2.980 -0.2770 -0.6622 -1.1861
  216MOL0     H29120  -0.431   2.113   2.832 -1.3862 -0.2668 -1.2483
  216MOL0     H29121  -0.575   1.924   2.764 -0.7449 -3.4968  0.3984
  216MOL0     H29122  -0.534   1.892   2.600 -0.8925 -1.8328  0.9775
  216MOL0     H29123  -0.496   1.776   2.721  0.0569 -0.0005  0.1032
  216MOL0     H29124  -0.568   1.572   2.447 -0.3044 -0.5592 -0.1665
  216MOL0     H29125  -0.562   1.357   2.330  1.3629 -2.3356 -0.6502
  216MOL0     H29126  -0.553   1.239   2.116  0.2389 -0.9062  0.2785
  216MOL0     H29127  -0.440   1.136   2.048  3.0942 -0.0627  0.1239
  216MOL0     H29128  -0.465   1.169   2.362  0.9685  2.3813 -0.6945
  216MOL0     H29129  -0.565   1.063   2.274  1.2795 -0.6366  2.3135
  216MOL0     H29130  -0.262   1.022   2.268 -0.2976 -0.5124 -1.4802
  216MOL0     H29131  -0.392   0.915   2.211  0.3613  0.3440 -0.8088
  216MOL0     H29132  -0.470   0.873   2.421  1.4924 -0.7556 -2.5247
  216MOL0     H29133  -0.303   0.830   2.401  2.3728  1.0391  1.1411
  216MOL0     H29134  -0.344   0.922   2.619 -0.4423  3.0565  2.0632
  216MOL0     H29135  -0.425   1.068   2.550 -1.0493  0.5942 -2.3785
  216MOL0     H29136  -0.121   1.014   2.506  0.6671  1.6928 -1.6646
  216MOL0     H29137  -0.211   1.158   2.475  0.8612 -0.9149 -0.3954
  216MOL0     H29138  -0.194   1.021   2.746  0.0914 -0.4833 -1.9810
  216MOL0     H29139  -0.275   1.170   2.722 -2.8956 -1.7437 -1.6660
  216MOL0     H29140  -0.049   1.203   2.813 -0.1101 -0.0082 -0.7386
  216MOL0     H29141  -0.045   1.268   2.644  0.4527 -2.0753 -3.6439
  216MOL0     H29142  -0.163   1.431   2.198  0.8679  3.1457  0.8344
  216MOL0     H29143  -0.140   1.623   2.318  0.9513 -2.0558 -1.3071
  216MOL0     H29144  -0.044   1.934   2.578 -1.1230  0.8052 -2.8312
  216MOL0     H29145  -0.016   2.131   2.700 -0.4957  0.8491 -0.4529
  216MOL0     H29146   0.634   3.435   3.714  0.8591  2.4104 -1.4672
  216MOL0     H29147   0.789   3.441   3.890  1.5844  2.0736 -0.4827
  216MOL0     H29148   1.143   3.424   4.099  0.2776 -0.7129 -0.3783
  216MOL0     H29149   1.316   3.408   4.276  0.5433  1.4068 -1.2918
  216MOL0     H29150   1.513   3.342   4.434  0.3979 -2.0822 -0.4262
  216MOL0     H29151   1.365   3.359   4.517  0.5523  1.2260  0.7975
  216MOL0     H29152   1.452   3.173   4.680  1.0252 -1.4169 -0.8644
  216MOL0     H29153   1.550   3.313   4.663 -1.0464  2.2950 -3.1985
  216MOL0     H29154   1.703   3.228   4.505  0.4103 -0.3464 -0.5642
  216MOL0     H29155   1.619   3.077   4.480 -1.5185  1.6598 -1.1419
  216MOL0     H29156   1.741   3.146   4.742 -2.3029 -0.8132  0.8112
  216MOL0     H29157   1.822   3.049   4.624  0.0023 -3.6630  2.2533
  216MOL0     H29158   1.528   2.780   4.797  2.2619 -0.9341  0.0450
  216MOL0     H29159   1.281   2.985   4.276  0.8789 -0.4743 -1.7924
  216MOL0     H29160   1.151   3.000   4.060 -2.4671 -1.8214  1.9839
  217MOL0     O29161   7.539   6.511   5.614  0.3162  0.2810  0.5338
  217MOL0     C29162   7.488   6.545   5.503 -0.7177 -0.5753  0.0914
  217MOL0     O29163   7.540   6.510   5.381 -0.2757 -0.1691 -0.1618
  217MOL0     C29164   7.617   6.395   5.357  0.1326  0.2634 -0.1331
  217MOL0     C29165   7.601   6.277   5.430  0.2908  0.4052 -0.2451
  217MOL0     C29166   7.673   6.161   5.391  0.8504 -0.0090  0.1978
  217MOL0     C29167   7.756   6.156   5.281 -0.5789 -0.3554  0.0546
  217MOL0     O29168   7.833   6.045   5.247 -0.1807  0.1736 -0.4768
  217MOL0     C29169   7.784   5.915   5.291 -0.2684 -0.9934  0.0095
  217MOL0     C29170   7.854   5.790   5.230  0.2897 -0.0710  1.1774
  217MOL0     C29171   7.797   5.662   5.285 -0.7325 -1.0647  0.5597
  217MOL0     C29172   7.891   5.611   5.394 -0.4542  0.9546 -0.8150
  217MOL0     C29173   7.829   5.492   5.465  0.5078 -0.1296 -0.6243
  217MOL0     C29174   7.788   5.367   5.383  0.5875  1.1931 -0.4861
  217MOL0     C29175   7.902   5.301   5.303  0.2826 -0.3709  0.8453
  217MOL0     C29176   7.855   5.167   5.246 -0.7245 -0.0295 -0.3587
  217MOL0     N29177   7.813   5.072   5.345  0.5361  0.1750 -0.1479
  217MOL0     C29178   7.899   4.986   5.419  0.1723 -0.3511  1.2684
  217MOL0     C29179   7.824   4.923   5.515 -0.6884 -0.4215  0.3295
  217MOL0     C29180   7.856   4.844   5.636  0.1040  0.3578 -0.3927
  217MOL0     C29181   7.939   4.722   5.600 -0.0458  0.4571 -0.8041
  217MOL0     C29182   7.984   4.650   5.729 -0.0908 -0.9211 -0.9791
  217MOL0     C29183   8.022   4.501   5.705 -0.4095  0.5916  0.2267
  217MOL0     O29184   8.152   4.492   5.642  0.7050  0.0148 -0.3600
  217MOL0     C29185   8.264   4.514   5.703  0.3129  0.7413 -0.7726
  217MOL0     C29186   8.382   4.522   5.629  0.7963 -0.0015 -0.2685
  217MOL0     C29187   8.506   4.540   5.695  0.2258  0.3069  0.6029
  217MOL0     C29188   8.625   4.553   5.594  0.3022 -0.3315  0.1704
  217MOL0     C29189   8.515   4.546   5.832 -0.7639 -0.0086 -0.4962
  217MOL0     C29190   8.644   4.549   5.894 -0.0538  0.5048 -1.3702
  217MOL0     O29191   8.736   4.459   5.847 -0.6460  0.7086 -0.3491
  217MOL0     C29192   8.864   4.434   5.895  0.2096 -0.5626 -0.3815
  217MOL0     C29193   8.925   4.503   5.997  0.1902 -0.0849  0.0752
  217MOL0     C29194   9.056   4.466   6.046  0.2253 -0.9411  0.0015
  217MOL0     C29195   9.127   4.362   5.976 -0.1062 -0.3426  0.0528
  217MOL0     O29196   9.252   4.319   6.013  0.0042 -0.3266 -0.6018
  217MOL0     C29197   9.347   4.310   5.904  0.2121 -0.7454 -0.1531
  217MOL0     C29198   9.382   4.445   5.853  0.2038  1.0892 -0.2745
  217MOL0     C29199   9.450   4.520   5.969  0.7726  0.6102  0.6685
  217MOL0     C29200   9.589   4.572   5.925 -0.5003  0.2767  0.2113
  217MOL0     C29201   9.669   4.637   6.038 -0.7692 -0.7500  0.1904
  217MOL0     C29202   9.813   4.696   5.998 -0.8588 -0.4169  0.0712
  217MOL0     C29203   9.845   4.806   6.101 -0.0941  0.3009 -0.2776
  217MOL0     C29204   9.986   4.847   6.076 -0.2349 -0.6074 -0.9528
  217MOL0    Cl29205  10.028   4.945   6.218  0.0517 -0.4407  0.4924
  217MOL0     C29206   9.056   4.281   5.890  0.6080  0.2088  0.2817
  217MOL0     C29207   8.927   4.317   5.853  0.7127  0.2876 -0.1475
  217MOL0     O29208   8.662   4.626   5.988  0.3360  0.0067  0.2325
  217MOL0     C29209   8.400   4.554   5.903  0.0559 -0.3377  0.0143
  217MOL0     C29210   8.271   4.519   5.845 -0.9394 -0.0947 -0.4075
  217MOL0     N29211   7.696   4.958   5.481  0.4949  0.5560  1.0087
  217MOL0     N29212   7.684   5.045   5.380  0.5544 -0.7321  0.0018
  217MOL0     C29213   7.759   6.272   5.204  0.1018 -0.5084 -0.7244
  217MOL0     C29214   7.697   6.391   5.243 -0.0294  0.4373  0.4368
  217MOL0     C29215   7.374   6.639   5.501  1.1853  0.2713 -0.5297
  217MOL0     C29216   7.314   6.672   5.617  0.0021  0.5510  0.5264
  217MOL0     C29217   7.224   6.768   5.619 -0.1909  0.2897  0.2334
  217MOL0     C29218   7.202   6.854   5.505 -0.6668  0.1716  0.0844
  217MOL0     O29219   7.119   6.972   5.507 -0.3612  0.1675 -0.1783
  217MOL0     C29220   7.041   6.985   5.624 -0.4713 -0.1981 -0.5609
  217MOL0     C29221   6.920   6.887   5.610  0.0026 -0.5274  0.3168
  217MOL0     C29222   6.820   6.946   5.504 -0.6577  0.2984  0.4294
  217MOL0     C29223   6.699   6.842   5.486 -0.2104 -0.0728 -0.7211
  217MOL0     C29224   6.613   6.876   5.371 -0.7851 -0.3701 -0.2791
  217MOL0     C29225   6.535   6.909   5.282 -0.1424 -0.4383  1.0055
  217MOL0     C29226   7.266   6.822   5.384  1.0550  0.8467 -0.4515
  217MOL0     C29227   7.352   6.709   5.384 -0.0333  0.1246 -0.1153
  217MOL0     H29228   7.541   6.268   5.520  2.3262 -0.4660  1.1000
  217MOL0     H29229   7.652   6.069   5.444 -1.0311 -0.8006 -1.7588
  217MOL0     H29230   7.793   5.893   5.398 -0.3030 -3.0758 -0.3812
  217MOL0     H29231   7.676   5.920   5.272  0.1364  1.9990 -2.2702
  217MOL0     H29232   7.852   5.799   5.121 -1.2924  0.3539  1.2170
  217MOL0     H29233   7.963   5.799   5.242  0.7511  0.5920 -2.2894
  217MOL0     H29234   7.698   5.681   5.327 -2.3858 -1.1641 -2.8837
  217MOL0     H29235   7.768   5.590   5.207 -1.7740 -2.1394  1.8877
  217MOL0     H29236   7.992   5.578   5.364  0.5844  0.3154  2.8966
  217MOL0     H29237   7.898   5.697   5.461  0.0566  0.0884  0.2903
  217MOL0     H29238   7.895   5.464   5.548  0.6711  0.9208 -0.3770
  217MOL0     H29239   7.736   5.529   5.508 -0.9920  0.1724 -3.8423
  217MOL0     H29240   7.749   5.312   5.469  2.4855  0.4427 -0.0442
  217MOL0     H29241   7.702   5.377   5.316  1.9101 -1.3124 -2.7199
  217MOL0     H29242   7.937   5.381   5.237 -1.4369 -0.1414  0.1502
  217MOL0     H29243   7.980   5.280   5.377 -0.8659 -2.8077  1.4688
  217MOL0     H29244   7.940   5.124   5.193  2.5495  0.0529  4.2624
  217MOL0     H29245   7.776   5.192   5.174 -1.9700 -3.6706 -0.4868
  217MOL0     H29246   8.007   4.983   5.420  0.1648 -0.8413  1.0236
  217MOL0     H29247   7.897   4.907   5.716 -1.0249  0.2055  0.3279
  217MOL0     H29248   7.764   4.801   5.677 -0.6474  0.6146 -1.7784
  217MOL0     H29249   8.018   4.756   5.532  0.5016 -1.5692 -1.2453
  217MOL0     H29250   7.872   4.646   5.560 -1.5827  0.9941  0.6524
  217MOL0     H29251   7.912   4.661   5.811 -0.4793  3.8352 -1.6426
  217MOL0     H29252   8.066   4.716   5.760  0.5330 -0.8229 -2.7477
  217MOL0     H29253   7.948   4.454   5.639 -1.5171  0.1427  1.7260
  217MOL0     H29254   8.012   4.438   5.794 -1.6863  1.8089  0.9980
  217MOL0     H29255   8.363   4.533   5.522 -2.1405  2.5108  0.3615
  217MOL0     H29256   8.656   4.658   5.604 -2.6800  0.5091  1.9889
  217MOL0     H29257   8.715   4.493   5.612 -0.2651 -1.3856 -0.4016
  217MOL0     H29258   8.584   4.538   5.494 -1.8122  1.8757  0.6128
  217MOL0     H29259   8.882   4.590   6.045  0.3749  0.7278 -1.2065
  217MOL0     H29260   9.112   4.517   6.123  0.0517  1.2543 -1.2461
  217MOL0     H29261   9.429   4.260   5.956  1.5566  3.1691  1.8749
  217MOL0     H29262   9.310   4.255   5.817 -0.0866  0.7868 -1.0355
  217MOL0     H29263   9.443   4.423   5.764 -0.4717 -0.4174 -0.3913
  217MOL0     H29264   9.296   4.509   5.831  0.1601  2.0460  2.3831
  217MOL0     H29265   9.466   4.461   6.059 -0.3342  1.5109  1.4824
  217MOL0     H29266   9.388   4.609   5.984  1.3594  1.5156 -1.7688
  217MOL0     H29267   9.647   4.488   5.886  0.1986 -1.0591  3.7542
  217MOL0     H29268   9.567   4.642   5.844  1.3772  0.1281 -0.4870
  217MOL0     H29269   9.690   4.557   6.109  2.2429 -0.1605  0.0931
  217MOL0     H29270   9.615   4.719   6.086  1.3764  0.2223  1.0488
  217MOL0     H29271   9.885   4.614   6.006 -1.3353 -0.7057  1.7947
  217MOL0     H29272   9.811   4.727   5.893 -2.8653 -0.8318 -0.0663
  217MOL0     H29273   9.853   4.757   6.199 -1.9476  0.6226  0.0629
  217MOL0     H29274   9.775   4.889   6.103 -1.1281 -0.5471 -0.5328
  217MOL0     H29275   9.997   4.900   5.981  1.6120  0.2473 -0.3031
  217MOL0     H29276  10.061   4.768   6.071  0.4152 -0.0783  0.1208
  217MOL0     H29277   9.097   4.195   5.840 -1.4022 -2.1384  2.3484
  217MOL0     H29278   8.871   4.255   5.784 -0.3094  0.4510  0.4966
  217MOL0     H29279   8.408   4.571   6.010  0.4778 -0.5609  0.0188
  217MOL0     H29280   8.181   4.515   5.906 -0.1235 -2.6186  0.7414
  217MOL0     H29281   7.808   6.273   5.107  0.4421  0.1097 -0.5572
  217MOL0     H29282   7.712   6.479   5.181  2.0972 -0.0323  0.1769
  217MOL0     H29283   7.336   6.640   5.718 -0.3071 -1.3885  0.0237
  217MOL0     H29284   7.175   6.793   5.712  0.4175  1.3283  0.2952
  217MOL0     H29285   7.095   6.968   5.718 -0.2928  1.8513 -0.2634
  217MOL0     H29286   6.999   7.085   5.638  0.5225  0.0472  0.8645
  217MOL0     H29287   6.881   6.894   5.712  0.3545  4.0874  0.3186
  217MOL0     H29288   6.945   6.786   5.577 -0.8460 -0.4984 -0.4560
  217MOL0     H29289   6.880   6.973   5.416 -1.2172 -0.2904 -0.1401
  217MOL0     H29290   6.772   7.041   5.531  2.3284  2.7655 -2.0221
  217MOL0     H29291   6.634   6.836   5.574 -0.8556 -0.6693 -1.2365
  217MOL0     H29292   6.743   6.743   5.474  2.5789  1.2069 -1.9535
  217MOL0     H29293   6.465   6.954   5.215  0.1689  0.1595  1.0695
  217MOL0     H29294   7.256   6.898   5.307  1.2013  0.4770 -0.8309
  217MOL0     H29295   7.419   6.685   5.302  0.6118 -1.8728  0.9148
  218MOL0     O29296   1.785   7.467   3.212  0.9114  0.7982 -0.2707
  218MOL0     C29297   1.865   7.552   3.244  1.3117  0.6058 -0.9170
  218MOL0     O29298   1.970   7.535   3.327  0.6312  0.8628 -0.5467
  218MOL0     C29299   1.991   7.410   3.384 -0.2764 -0.7699 -0.6739
  218MOL0     C29300   2.126   7.373   3.388 -0.6471  0.1826  0.1535
  218MOL0     C29301   2.171   7.257   3.447  0.9276 -0.4342  0.8960
  218MOL0     C29302   2.086   7.160   3.492 -0.3835  0.0348 -0.2597
  218MOL0     O29303   2.137   7.040   3.533  0.3408 -0.2311  0.1093
  218MOL0     C29304   2.073   6.932   3.476 -0.0693  0.5184 -0.2904
  218MOL0     C29305   2.143   6.801   3.517 -1.2291 -0.7621 -0.3928
  218MOL0     C29306   2.072   6.682   3.438 -1.4306  1.1961  1.1878
  218MOL0     C29307   1.930   6.659   3.471  0.1841 -0.1178  0.3655
  218MOL0     C29308   1.885   6.524   3.418 -0.5178 -0.7101 -1.1474
  218MOL0     C29309   1.731   6.525   3.411  0.5603 -0.0940 -0.5654
  218MOL0     C29310   1.684   6.366   3.421 -0.7185  0.1745  0.1119
  218MOL0     C29311   1.662   6.321   3.562 -0.5613 -0.5560  0.1190
  218MOL0     N29312   1.534   6.359   3.632  0.5213 -0.5394 -0.1753
  218MOL0     C29313   1.455   6.467   3.602  0.0698 -0.3570  0.2228
  218MOL0     C29314   1.334   6.425   3.648  0.2164  0.0720  0.1580
  218MOL0     C29315   1.200   6.501   3.644  0.0791  0.3769  0.6326
  218MOL0     C29316   1.107   6.494   3.767  0.4800  0.2513 -0.7961
  218MOL0     C29317   1.175   6.530   3.899 -0.3992 -0.2808 -0.4919
  218MOL0     C29318   1.206   6.684   3.910 -0.4831 -0.3170  0.3301
  218MOL0     O29319   1.328   6.719   3.833  0.4279 -0.0321  0.1882
  218MOL0     C29320   1.455   6.689   3.873 -0.6644  0.6550  0.5036
  218MOL0     C29321   1.490   6.649   4.004  0.6364  0.2592 -0.2667
  218MOL0     C29322   1.619   6.603   4.041 -0.2831  0.6544  0.0163
  218MOL0     C29323   1.630   6.528   4.171  0.9655 -0.3222 -0.2666
  218MOL0     C29324   1.717   6.608   3.938 -0.2817  0.0739  0.0601
  218MOL0     C29325   1.858   6.563   3.969 -0.0493 -0.5197  0.0091
  218MOL0     O29326   1.944   6.598   3.867 -0.1390 -0.3309 -0.2542
  218MOL0     C29327   2.070   6.547   3.880  0.1456  0.1581  0.2109
  218MOL0     C29328   2.101   6.414   3.842 -0.1935  0.0138  0.0204
  218MOL0     C29329   2.230   6.363   3.852  0.5173  0.1760  0.2830
  218MOL0     C29330   2.338   6.449   3.877  0.8431 -0.2149 -0.5187
  218MOL0     O29331   2.469   6.417   3.864 -0.2124 -0.0741  0.2937
  218MOL0     C29332   2.510   6.342   3.748 -0.5233  1.0591 -0.9609
  218MOL0     C29333   2.668   6.319   3.767  0.9426  0.9640  0.2676
  218MOL0     C29334   2.748   6.443   3.738 -0.0519 -0.5484  0.3896
  218MOL0     C29335   2.897   6.413   3.759 -1.4793 -0.5052 -0.1150
  218MOL0     C29336   2.978   6.536   3.726 -0.0198 -0.3180  0.2257
  218MOL0     C29337   3.133   6.517   3.762  0.8819 -0.2180 -0.5401
  218MOL0     C29338   3.227   6.633   3.753 -0.5980  0.0661 -0.0595
  218MOL0     C29339   3.361   6.562   3.767 -1.0884  0.1002  0.1192
  218MOL0    Cl29340   3.389   6.493   3.924 -0.4823 -0.6248 -0.4079
  218MOL0     C29341   2.314   6.575   3.907 -0.3691  0.1588  0.0539
  218MOL0     C29342   2.180   6.630   3.910  0.2202  0.9143  0.9365
  218MOL0     O29343   1.887   6.516   4.080  0.0438  0.6020 -0.1190
  218MOL0     C29344   1.683   6.658   3.816 -0.3471  0.0191  0.5040
  218MOL0     C29345   1.555   6.691   3.780 -0.7849 -1.0452  0.3388
  218MOL0     N29346   1.345   6.303   3.719  0.5977  0.0022  0.3934
  218MOL0     N29347   1.466   6.268   3.709  0.6267 -0.9490  0.5569
  218MOL0     C29348   1.949   7.192   3.495 -0.2324 -0.0495  0.7365
  218MOL0     C29349   1.904   7.319   3.453  0.2648 -0.8135 -0.9060
  218MOL0     C29350   1.861   7.680   3.179  0.3738  0.6243  0.0346
  218MOL0     C29351   1.941   7.785   3.229  0.0168  0.4253  0.0515
  218MOL0     C29352   1.951   7.912   3.156 -1.2146  0.6902  0.3520
  218MOL0     C29353   1.881   7.930   3.036  1.2134  0.1903  0.0085
  218MOL0     O29354   1.890   8.056   2.976 -0.7649 -1.0082 -0.8473
  218MOL0     C29355   1.836   8.066   2.839  0.2259  0.0467 -0.1998
  218MOL0     C29356   1.882   8.187   2.748 -0.3125 -0.0947 -0.2049
  218MOL0     C29357   1.830   8.191   2.604  0.2738 -0.1526 -0.1099
  218MOL0     C29358   1.913   8.294   2.523  0.1578 -0.0230  0.2009
  218MOL0     C29359   1.860   8.301   2.384 -1.2257 -0.0528 -0.7595
  218MOL0     C29360   1.773   8.292   2.300 -0.2726  1.1619 -0.4087
  218MOL0     C29361   1.793   7.830   2.990  0.5740  0.1338 -0.2802
  218MOL0     C29362   1.782   7.705   3.060 -0.9418 -0.1202  0.1302
  218MOL0     H29363   2.186   7.452   3.342 -2.0120  0.3703 -1.3942
  218MOL0     H29364   2.277   7.240   3.463  1.2038  0.4073  0.0784
  218MOL0     H29365   1.968   6.917   3.503  0.2169 -0.9733  0.0732
  218MOL0     H29366   2.075   6.950   3.368 -2.1839  3.7208  0.0659
  218MOL0     H29367   2.248   6.795   3.487 -0.5404 -2.0155  1.9632
  218MOL0     H29368   2.149   6.785   3.625  1.4811 -1.0643 -0.5200
  218MOL0     H29369   2.092   6.692   3.331 -2.2212  1.0677  1.0218
  218MOL0     H29370   2.133   6.592   3.451 -0.3229  1.4955 -1.3303
  218MOL0     H29371   1.906   6.649   3.577 -0.8322 -3.7481 -0.0712
  218MOL0     H29372   1.863   6.722   3.412 -1.8529 -3.1917 -0.8677
  218MOL0     H29373   1.934   6.513   3.321  1.2122 -1.1179 -0.2762
  218MOL0     H29374   1.921   6.443   3.482  0.6053 -0.4807 -1.4635
  218MOL0     H29375   1.683   6.586   3.488 -0.3282 -0.5777 -0.7223
  218MOL0     H29376   1.715   6.574   3.315  0.7696  0.3333 -0.3869
  218MOL0     H29377   1.590   6.369   3.366 -0.4245  0.3087 -0.3859
  218MOL0     H29378   1.751   6.301   3.363  1.3304  0.9586  1.4715
  218MOL0     H29379   1.747   6.353   3.622 -0.7964 -0.9724  0.6805
  218MOL0     H29380   1.661   6.211   3.568  1.6427 -0.5805  0.8373
  218MOL0     H29381   1.463   6.548   3.530 -3.8493  0.1983  0.2325
  218MOL0     H29382   1.223   6.607   3.628  2.8007  0.0155  1.7037
  218MOL0     H29383   1.151   6.467   3.552  1.2430  3.2417 -1.1915
  218MOL0     H29384   1.069   6.392   3.773  2.8359 -0.6762 -0.4067
  218MOL0     H29385   1.029   6.569   3.751  1.1070  0.7796 -1.4210
  218MOL0     H29386   1.259   6.462   3.912  0.1844  0.0290 -2.3342
  218MOL0     H29387   1.097   6.506   3.972 -1.0043  4.2127  0.6185
  218MOL0     H29388   1.226   6.713   4.014 -4.2974  0.9161  0.9041
  218MOL0     H29389   1.121   6.745   3.879  0.2566  0.5027 -0.1218
  218MOL0     H29390   1.419   6.629   4.083 -3.0808  0.5104 -3.2277
  218MOL0     H29391   1.536   6.521   4.227  2.0493 -0.2479  1.6238
  218MOL0     H29392   1.676   6.429   4.161  1.7168  0.1412 -1.7725
  218MOL0     H29393   1.686   6.593   4.238  0.5311 -1.0763  0.8548
  218MOL0     H29394   2.016   6.349   3.824  0.3937 -0.5263 -0.8442
  218MOL0     H29395   2.238   6.258   3.829 -1.8432 -0.4058  1.7135
  218MOL0     H29396   2.463   6.244   3.744  2.0073 -0.2085 -1.1364
  218MOL0     H29397   2.501   6.391   3.651  0.8720  0.3276 -1.4840
  218MOL0     H29398   2.692   6.283   3.868 -5.4799  3.4053  3.2513
  218MOL0     H29399   2.699   6.240   3.698 -0.0808 -0.0676  0.9633
  218MOL0     H29400   2.712   6.528   3.797 -1.9505 -1.6202  0.8504
  218MOL0     H29401   2.732   6.483   3.637  2.7622  1.1684  0.5083
  218MOL0     H29402   2.928   6.376   3.857 -1.5409 -1.0527 -0.2983
  218MOL0     H29403   2.929   6.327   3.701  1.8879 -0.2135  1.1271
  218MOL0     H29404   2.935   6.623   3.777  0.0280  0.4494 -1.0150
  218MOL0     H29405   2.975   6.574   3.624 -0.4770  2.4356  1.1764
  218MOL0     H29406   3.125   6.491   3.869 -1.3274  2.2452 -0.0042
  218MOL0     H29407   3.166   6.424   3.715  3.1934 -1.6275  3.3170
  218MOL0     H29408   3.202   6.700   3.836  0.1675  1.5868 -1.0238
  218MOL0     H29409   3.211   6.682   3.657 -1.5984 -1.0103 -0.4787
  218MOL0     H29410   3.432   6.644   3.752 -0.3152 -0.8319 -1.5720
  218MOL0     H29411   3.387   6.493   3.687  0.7696 -0.3757  1.0814
  218MOL0     H29412   2.398   6.643   3.915  1.5432 -1.9884 -0.6702
  218MOL0     H29413   2.163   6.737   3.920  0.7512  1.2555 -1.3063
  218MOL0     H29414   1.764   6.670   3.744 -0.5271 -2.1725 -0.1146
  218MOL0     H29415   1.546   6.740   3.683  1.1714 -3.1281 -0.9952
  218MOL0     H29416   1.867   7.125   3.520 -1.3729  1.7986  2.2551
  218MOL0     H29417   1.806   7.360   3.476  1.0275 -0.2373  1.6730
  218MOL0     H29418   2.004   7.767   3.315 -0.4178  0.4839  0.3872
  218MOL0     H29419   2.014   7.997   3.180  1.4430 -0.8712 -0.6536
  218MOL0     H29420   1.861   7.978   2.779 -0.2770  1.3626 -2.4425
  218MOL0     H29421   1.733   8.069   2.875  0.3906 -1.6364  0.4820
  218MOL0     H29422   1.991   8.189   2.747 -0.2598 -0.3405  1.6384
  218MOL0     H29423   1.856   8.283   2.794  1.2831  1.6612 -2.6949
  218MOL0     H29424   1.724   8.216   2.612 -0.4976 -3.6676  3.6138
  218MOL0     H29425   1.842   8.087   2.573 -1.0125 -0.8017  1.4216
  218MOL0     H29426   2.016   8.259   2.531 -0.2524 -1.3231 -0.0171
  218MOL0     H29427   1.902   8.393   2.569  2.6007  0.2660  0.2557
  218MOL0     H29428   1.677   8.292   2.252 -1.3665  0.1012  1.6453
  218MOL0     H29429   1.733   7.844   2.901 -2.7102 -1.7513  1.4270
  218MOL0     H29430   1.727   7.622   3.019  0.8028 -2.9412  3.0501
  219MOL0     O29431   5.907   1.669  10.214 -0.0091  0.2404  0.1483
  219MOL0     C29432   6.011   1.719  10.164 -0.9905  0.3878 -0.7477
  219MOL0     O29433   6.141   1.706  10.220 -0.4781 -0.1180  0.1189
  219MOL0     C29434   6.176   1.635  10.333  0.7065 -0.5550 -0.3879
  219MOL0     C29435   6.189   1.495  10.336 -0.8158  0.7561  0.2784
  219MOL0     C29436   6.218   1.430  10.455 -0.5496 -0.8122  0.0940
  219MOL0     C29437   6.231   1.507  10.578 -0.1072  0.5323  0.9173
  219MOL0     O29438   6.249   1.437  10.690  0.4028  0.1592 -0.3340
  219MOL0     C29439   6.133   1.433  10.777 -0.7966  1.2839 -0.2196
  219MOL0     C29440   6.124   1.297  10.842  0.3585 -0.6736  0.4391
  219MOL0     C29441   6.078   1.184  10.746 -0.6852  0.5104 -0.8985
  219MOL0     C29442   6.068   1.051  10.823  0.7477  0.0195 -0.2007
  219MOL0     C29443   6.023   0.938  10.737  0.9861  1.0253  0.0818
  219MOL0     C29444   5.880   0.927  10.694 -0.7854  0.0076  0.7179
  219MOL0     C29445   5.793   0.897  10.819 -0.5487  0.3824  0.4281
  219MOL0     C29446   5.638   0.881  10.804 -0.2353  0.8387  0.2051
  219MOL0     N29447   5.588   0.791  10.698 -0.4369  0.0540 -0.1732
  219MOL0     C29448   5.537   0.826  10.581 -0.7803 -0.3286  0.6408
  219MOL0     C29449   5.535   0.711  10.510 -0.4578  0.1470 -0.0731
  219MOL0     C29450   5.485   0.681  10.374 -0.6405 -0.6204 -0.0583
  219MOL0     C29451   5.506   0.795  10.287 -1.0514  0.0137  0.3066
  219MOL0     C29452   5.434   0.767  10.154  0.6809 -0.6494 -0.6736
  219MOL0     C29453   5.434   0.882  10.062  0.8102 -0.5448  0.3092
  219MOL0     O29454   5.414   1.005  10.146 -0.5134  0.3755 -0.1527
  219MOL0     C29455   5.459   1.122  10.101  0.8725  0.1160 -0.2524
  219MOL0     C29456   5.426   1.218  10.196  0.1613 -0.3637 -0.7131
  219MOL0     C29457   5.461   1.351  10.187  0.1702 -0.3146  0.0706
  219MOL0     C29458   5.442   1.444  10.301 -0.4912 -0.4361 -0.1028
  219MOL0     C29459   5.507   1.400  10.061 -0.2444 -0.8282  0.4899
  219MOL0     C29460   5.538   1.543  10.025 -0.1644 -0.3284 -0.4843
  219MOL0     O29461   5.480   1.636  10.111  0.6062 -0.8196 -0.2858
  219MOL0     C29462   5.526   1.766  10.107 -0.1675 -0.2854  0.7370
  219MOL0     C29463   5.592   1.822  10.218  0.4043 -0.0548 -0.3456
  219MOL0     C29464   5.640   1.959  10.224 -0.1036  0.1803  0.4690
  219MOL0     C29465   5.638   2.025  10.097  0.3719 -0.9249  0.4002
  219MOL0     O29466   5.686   2.149  10.078  0.2509 -0.2720 -0.2252
  219MOL0     C29467   5.830   2.165  10.059  0.3179  0.1681  0.3953
  219MOL0     C29468   5.893   2.274  10.144 -0.2682 -0.6138  0.4637
  219MOL0     C29469   6.048   2.257  10.158  0.2973 -0.6193  0.2074
  219MOL0     C29470   6.083   2.351  10.266 -0.1675 -0.0172 -0.6018
  219MOL0     C29471   6.237   2.344  10.286  0.1817 -0.3573  0.4510
  219MOL0     C29472   6.291   2.219  10.366  0.6302 -0.6077  0.5296
  219MOL0     C29473   6.253   2.209  10.518  0.2431  0.0064  0.7974
  219MOL0     C29474   6.312   2.088  10.598  0.8142  0.2897  0.3945
  219MOL0    Cl29475   6.242   2.088  10.760 -0.1207 -0.3303  0.2186
  219MOL0     C29476   5.572   1.971   9.987  0.5556 -1.1976  0.0372
  219MOL0     C29477   5.517   1.842   9.991  0.0523 -0.1257  0.7777
  219MOL0     O29478   5.584   1.567   9.913 -0.1380 -0.4139  0.2245
  219MOL0     C29479   5.525   1.307   9.952 -0.0827 -0.6847 -0.0302
  219MOL0     C29480   5.516   1.168   9.981  0.5679  0.5799  0.2017
  219MOL0     N29481   5.566   0.612  10.592  0.5302  0.5967 -1.1686
  219MOL0     N29482   5.607   0.658  10.710  0.7102 -0.8284  0.4466
  219MOL0     C29483   6.205   1.643  10.582  0.6180 -0.2735 -0.2288
  219MOL0     C29484   6.181   1.703  10.452 -0.1278  0.2378 -0.5108
  219MOL0     C29485   5.991   1.799  10.040 -0.0430 -0.1829 -0.2255
  219MOL0     C29486   5.869   1.781   9.971 -0.4683 -0.6329  0.4141
  219MOL0     C29487   5.837   1.845   9.844  0.0645  0.4359 -0.2646
  219MOL0     C29488   5.940   1.924   9.781  0.2228  0.3148  0.0457
  219MOL0     O29489   5.909   1.967   9.656 -0.8523 -0.0037 -0.5328
  219MOL0     C29490   6.027   1.977   9.573 -0.8284 -0.4674  0.0044
  219MOL0     C29491   5.998   2.022   9.426 -0.7299 -0.5484 -0.6274
  219MOL0     C29492   6.136   2.068   9.362 -0.0261  0.1706 -0.4994
  219MOL0     C29493   6.135   2.156   9.244 -0.4500  0.3324  0.0172
  219MOL0     C29494   6.075   2.289   9.263  0.5173  0.0669  0.2456
  219MOL0     C29495   6.012   2.387   9.268  0.4600 -0.3599 -0.1902
  219MOL0     C29496   6.066   1.948   9.856 -0.2942 -0.2616 -0.1557
  219MOL0     C29497   6.085   1.887   9.983  0.2583 -0.1978 -0.1754
  219MOL0     H29498   6.175   1.446  10.240 -3.1036 -1.7469  1.7210
  219MOL0     H29499   6.234   1.323  10.465 -1.1292 -0.9563 -0.4573
  219MOL0     H29500   6.141   1.519  10.845 -3.2028  0.9733  0.5600
  219MOL0     H29501   6.043   1.453  10.718 -2.6439 -0.4593  1.8711
  219MOL0     H29502   6.221   1.283  10.891  0.8301  1.4494  0.2182
  219MOL0     H29503   6.055   1.305  10.927 -0.2690  2.3024 -0.2296
  219MOL0     H29504   5.986   1.222  10.700 -0.2721  2.8981  0.0894
  219MOL0     H29505   6.148   1.171  10.663  0.4078 -1.8292  0.2833
  219MOL0     H29506   6.168   1.024  10.859  0.8779 -4.4905 -3.1523
  219MOL0     H29507   6.001   1.065  10.909  1.9586 -2.7435  1.3289
  219MOL0     H29508   6.077   0.953  10.643  3.5128 -0.1564  1.2638
  219MOL0     H29509   6.049   0.838  10.774  0.4148  0.9139  0.2049
  219MOL0     H29510   5.838   1.025  10.669 -1.7284 -0.3899  0.7032
  219MOL0     H29511   5.868   0.853  10.615  1.3253  0.5282 -0.1520
  219MOL0     H29512   5.825   0.804  10.865 -0.9784  0.6020  1.1976
  219MOL0     H29513   5.803   0.979  10.891 -1.1745  1.7982 -1.0344
  219MOL0     H29514   5.591   0.979  10.787  0.4147  1.2253  0.5779
  219MOL0     H29515   5.606   0.847  10.903  1.7533  0.2917  0.7021
  219MOL0     H29516   5.524   0.925  10.538  0.0626 -1.0808 -1.4701
  219MOL0     H29517   5.543   0.595  10.340  3.0571  0.5399  2.6527
  219MOL0     H29518   5.378   0.662  10.385 -0.8698  1.6936  3.1345
  219MOL0     H29519   5.613   0.812  10.272 -1.2435  0.4822 -0.5784
  219MOL0     H29520   5.474   0.889  10.333  1.7096  1.4694 -0.4874
  219MOL0     H29521   5.328   0.747  10.173  1.4976 -3.6593  1.5459
  219MOL0     H29522   5.476   0.683  10.098 -0.1907 -2.0165  0.6546
  219MOL0     H29523   5.370   0.875   9.973 -1.5627  1.6301  1.6884
  219MOL0     H29524   5.538   0.888  10.029  0.5920 -2.0188 -0.7487
  219MOL0     H29525   5.366   1.187  10.281 -0.7189  1.0970 -0.7709
  219MOL0     H29526   5.416   1.411  10.401 -2.3969  2.4236  0.4437
  219MOL0     H29527   5.541   1.492  10.307 -0.7305 -0.1421  2.1842
  219MOL0     H29528   5.368   1.521  10.280 -0.9830  0.0265  2.9037
  219MOL0     H29529   5.598   1.748  10.297 -2.1834  1.0401  1.0148
  219MOL0     H29530   5.687   1.999  10.314  0.0023  3.6273 -0.9426
  219MOL0     H29531   5.884   2.073  10.083  2.0439  1.4767  1.7568
  219MOL0     H29532   5.851   2.190   9.954  3.4862  1.2685  1.1728
  219MOL0     H29533   5.876   2.370  10.094 -1.1432 -1.2013 -0.4091
  219MOL0     H29534   5.846   2.280  10.243 -0.1430  1.6898  0.4267
  219MOL0     H29535   6.098   2.279  10.063  0.4416 -2.5342 -0.1940
  219MOL0     H29536   6.068   2.153  10.185  1.4752 -0.4520  0.0557
  219MOL0     H29537   6.061   2.452  10.231  1.5728  0.1347 -1.3686
  219MOL0     H29538   6.029   2.333  10.360  0.5551  2.6288  0.4098
  219MOL0     H29539   6.253   2.434  10.346  1.2084  0.0754 -0.4341
  219MOL0     H29540   6.281   2.357  10.187  0.6120 -0.4164  0.6309
  219MOL0     H29541   6.243   2.146  10.300  1.7500  0.4073 -1.5297
  219MOL0     H29542   6.392   2.182  10.349  0.3260 -0.5267 -1.7521
  219MOL0     H29543   6.147   2.227  10.540  0.1036  3.9830 -1.9647
  219MOL0     H29544   6.289   2.301  10.567 -4.9755  1.6232  2.2559
  219MOL0     H29545   6.420   2.103  10.601  0.7631  0.7698 -0.0785
  219MOL0     H29546   6.295   2.000  10.534 -0.2876  0.4441  0.4628
  219MOL0     H29547   5.556   2.025   9.894 -0.9748  0.8470  1.4086
  219MOL0     H29548   5.481   1.800   9.897 -0.1144  2.6934 -0.5128
  219MOL0     H29549   5.540   1.333   9.848 -1.0553  2.8200  0.5771
  219MOL0     H29550   5.531   1.100   9.898 -3.2553  1.4987 -1.4632
  219MOL0     H29551   6.209   1.702  10.673  2.6715  0.5796 -0.8202
  219MOL0     H29552   6.169   1.810  10.446  0.5877  0.3396 -0.1976
  219MOL0     H29553   5.788   1.718  10.007  0.4202 -2.6232 -0.8983
  219MOL0     H29554   5.742   1.822   9.797  0.0316 -1.5222  0.6600
  219MOL0     H29555   6.089   2.056   9.618 -1.7753  1.0196 -1.1919
  219MOL0     H29556   6.077   1.880   9.566 -1.4323 -0.6706 -2.1614
  219MOL0     H29557   5.933   2.109   9.417 -0.1287  0.4371  2.9288
  219MOL0     H29558   5.952   1.937   9.375 -2.7987  0.9789 -1.4668
  219MOL0     H29559   6.198   1.980   9.345  2.6510  1.8004  0.2658
  219MOL0     H29560   6.195   2.123   9.436 -0.3331  0.0847 -0.1861
  219MOL0     H29561   6.087   2.112   9.156 -2.2446  1.9594  0.1118
  219MOL0     H29562   6.236   2.183   9.214  0.0877 -3.2689 -1.9940
  219MOL0     H29563   5.951   2.475   9.273 -0.0707 -0.7619  0.8488
  219MOL0     H29564   6.137   2.021   9.819 -0.4290 -0.0912 -0.0846
  219MOL0     H29565   6.170   1.917  10.043  0.6697  0.9517 -1.3036
  220MOL0     O29566   4.560  11.207   0.103  0.3728 -0.5964  0.0138
  220MOL0     C29567   4.628  11.257   0.183 -0.5062 -1.0683 -0.4339
  220MOL0     O29568   4.675  11.395   0.180  0.3123 -0.3524 -0.0416
  220MOL0     C29569   4.618  11.467   0.084 -0.2979 -0.4499  0.2644
  220MOL0     C29570   4.485  11.511   0.111  0.1074  0.4093 -0.4678
  220MOL0     C29571   4.424  11.596   0.009  0.8068  0.5199  0.1525
  220MOL0     C29572   4.490  11.643  -0.106 -0.1527  0.9357  1.0673
  220MOL0     O29573   4.424  11.722  -0.192 -0.3183  0.2708  0.0245
  220MOL0     C29574   4.478  11.752  -0.323 -0.3731 -1.3401 -0.5798
  220MOL0     C29575   4.376  11.840  -0.396  0.5971 -0.8862  0.4700
  220MOL0     C29576   4.389  11.977  -0.334  0.9027  0.0280 -0.4886
  220MOL0     C29577   4.321  12.083  -0.408 -0.2810 -0.9470 -0.6560
  220MOL0     C29578   4.345  12.227  -0.364 -0.2291 -0.1425 -0.4569
  220MOL0     C29579   4.241  12.326  -0.417 -0.7698 -1.1519 -0.4716
  220MOL0     C29580   4.244  12.472  -0.372  0.4798  0.0135  0.6805
  220MOL0     C29581   4.367  12.545  -0.424 -0.2048  0.6393 -0.3111
  220MOL0     N29582   4.359  12.680  -0.452 -0.2669 -0.0402 -0.0575
  220MOL0     C29583   4.296  12.738  -0.558 -0.2555 -0.0861  0.8812
  220MOL0     C29584   4.346  12.866  -0.575  0.1202  0.3713 -0.6440
  220MOL0     C29585   4.316  12.968  -0.671  0.3708 -1.3277  0.3272
  220MOL0     C29586   4.181  13.046  -0.654 -0.2719  0.2154  0.0480
  220MOL0     C29587   4.153  13.112  -0.517 -0.2264 -0.5396 -0.0267
  220MOL0     C29588   4.022  13.196  -0.510 -0.1720 -0.5249 -1.3398
  220MOL0     O29589   3.915  13.126  -0.567  0.2145  0.0886  0.0472
  220MOL0     C29590   3.787  13.172  -0.585  0.8568  0.7496 -0.3388
  220MOL0     C29591   3.687  13.078  -0.592 -0.0421 -0.3288  0.3239
  220MOL0     C29592   3.552  13.112  -0.599 -0.3185 -0.7556 -0.4324
  220MOL0     C29593   3.455  13.002  -0.580  0.2601 -0.0757 -0.4087
  220MOL0     C29594   3.520  13.252  -0.617  0.5568  0.7299  0.3381
  220MOL0     C29595   3.388  13.289  -0.674  0.0344  1.4756 -0.5512
  220MOL0     O29596   3.290  13.195  -0.647 -0.0915 -0.3738  0.9494
  220MOL0     C29597   3.163  13.228  -0.693  0.3069  0.1039  0.0441
  220MOL0     C29598   3.074  13.316  -0.624 -0.0029  1.0566  0.1495
  220MOL0     C29599   2.941  13.331  -0.683 -0.6443 -0.0477  0.6153
  220MOL0     C29600   2.904  13.270  -0.803 -0.0627 -0.5797  0.4744
  220MOL0     O29601   2.781  13.285  -0.868  0.4009  0.1323 -0.0674
  220MOL0     C29602   2.700  13.392  -0.823 -0.8546 -1.0609 -0.1589
  220MOL0     C29603   2.586  13.401  -0.926 -0.2629  1.2075 -0.8503
  220MOL0     C29604   2.643  13.416  -1.073  0.2625  0.3892 -0.5215
  220MOL0     C29605   2.531  13.467  -1.158  0.0433 -0.0411  0.2762
  220MOL0     C29606   2.565  13.495  -1.305  0.9745 -0.3171 -0.2912
  220MOL0     C29607   2.428  13.516  -1.376  0.2833 -0.7450  1.6347
  220MOL0     C29608   2.461  13.534  -1.526 -0.4765 -0.3032 -0.0118
  220MOL0     C29609   2.330  13.537  -1.618 -0.7811 -0.8987 -0.9503
  220MOL0    Cl29610   2.346  13.630  -1.767 -0.1681 -0.3674 -0.2693
  220MOL0     C29611   2.991  13.190  -0.863 -0.4441  1.1383  0.6378
  220MOL0     C29612   3.116  13.167  -0.811 -0.3058 -0.1982  0.4214
  220MOL0     O29613   3.382  13.397  -0.734  0.5351  0.4257  0.0139
  220MOL0     C29614   3.624  13.349  -0.614  0.1624 -0.2545 -0.9890
  220MOL0     C29615   3.754  13.313  -0.599  0.6817 -1.2052 -0.4799
  220MOL0     N29616   4.441  12.885  -0.464  0.6079 -0.4747  1.4657
  220MOL0     N29617   4.452  12.771  -0.410 -0.9828  0.4323  0.2978
  220MOL0     C29618   4.619  11.591  -0.131 -0.6247  0.6069 -0.1880
  220MOL0     C29619   4.680  11.506  -0.040 -0.8500  0.5118 -0.1971
  220MOL0     C29620   4.663  11.169   0.295 -0.3121 -1.1240  0.7701
  220MOL0     C29621   4.626  11.035   0.292 -0.0997 -0.3723 -0.5978
  220MOL0     C29622   4.674  10.957   0.403 -0.5705  0.9363  0.7043
  220MOL0     C29623   4.746  11.011   0.508 -0.1370  0.6010 -1.3586
  220MOL0     O29624   4.781  10.923   0.605 -0.8185  1.0320 -1.0392
  220MOL0     C29625   4.913  10.874   0.572  1.4154 -1.2214 -1.1101
  220MOL0     C29626   4.991  10.840   0.695  0.6623  0.3025 -0.8274
  220MOL0     C29627   5.028  10.974   0.758  0.9920 -0.0004 -1.1605
  220MOL0     C29628   5.098  10.941   0.891 -0.3617  0.8540 -0.1158
  220MOL0     C29629   5.111  11.067   0.961 -0.0409 -0.1321 -0.5667
  220MOL0     C29630   5.130  11.177   1.013 -0.3134 -0.8965  0.4438
  220MOL0     C29631   4.788  11.147   0.510  0.6895  1.0022  0.3124
  220MOL0     C29632   4.741  11.221   0.396  0.2583  0.2209 -0.0139
  220MOL0     H29633   4.422  11.487   0.195  0.8591 -2.6121 -0.6558
  220MOL0     H29634   4.327  11.643   0.024 -0.2463 -2.1969  3.1080
  220MOL0     H29635   4.581  11.789  -0.324 -0.5275 -0.6255  2.0992
  220MOL0     H29636   4.478  11.669  -0.394 -2.6368 -0.1545 -2.0712
  220MOL0     H29637   4.397  11.837  -0.503  0.9226  0.2171  0.4864
  220MOL0     H29638   4.278  11.792  -0.385  0.8910 -1.2058  1.9658
  220MOL0     H29639   4.351  11.971  -0.231  0.1858 -1.1432 -0.7997
  220MOL0     H29640   4.493  12.010  -0.324  0.6207  1.2203 -1.3502
  220MOL0     H29641   4.347  12.065  -0.513 -0.4632 -0.1559 -0.8421
  220MOL0     H29642   4.213  12.062  -0.402 -0.2147 -1.8490 -2.0892
  220MOL0     H29643   4.350  12.239  -0.256  0.8500  1.2619 -0.6375
  220MOL0     H29644   4.440  12.258  -0.407 -1.4793  1.5698 -2.1699
  220MOL0     H29645   4.243  12.325  -0.526  1.1448  0.5247 -0.5129
  220MOL0     H29646   4.141  12.295  -0.384 -0.9535  0.2714  0.3994
  220MOL0     H29647   4.155  12.507  -0.425  0.7458 -3.6188 -2.6473
  220MOL0     H29648   4.228  12.480  -0.264  0.0926  0.6295  0.5769
  220MOL0     H29649   4.407  12.503  -0.517 -1.0122  0.2706 -0.5032
  220MOL0     H29650   4.444  12.519  -0.350  0.1746 -2.3545 -1.5784
  220MOL0     H29651   4.214  12.692  -0.612 -0.4027  0.7995  0.3391
  220MOL0     H29652   4.389  13.048  -0.688 -0.9835 -0.1684 -0.1806
  220MOL0     H29653   4.304  12.912  -0.765 -3.2412 -1.0856  0.5022
  220MOL0     H29654   4.097  12.978  -0.671 -1.6490  1.1842  2.4498
  220MOL0     H29655   4.164  13.115  -0.738 -3.3678 -0.7357 -0.2193
  220MOL0     H29656   4.230  13.184  -0.489 -1.1638 -0.4382  2.4998
  220MOL0     H29657   4.140  13.043  -0.433  1.0578  1.2616  1.7273
  220MOL0     H29658   4.032  13.294  -0.558  1.8776 -0.5169 -1.0135
  220MOL0     H29659   4.011  13.215  -0.402 -0.1277 -3.0671 -0.8330
  220MOL0     H29660   3.705  12.975  -0.563  2.7133  0.3237  1.2307
  220MOL0     H29661   3.507  12.920  -0.529 -2.8821 -2.5465 -0.9017
  220MOL0     H29662   3.374  13.033  -0.513 -0.2030 -2.5953  0.2866
  220MOL0     H29663   3.416  12.960  -0.673  3.6406 -1.1200 -1.5106
  220MOL0     H29664   3.112  13.359  -0.532  1.1129  1.0204 -0.2788
  220MOL0     H29665   2.872  13.388  -0.622  0.4425  1.4303  0.5238
  220MOL0     H29666   2.656  13.373  -0.725 -0.6775 -0.3686  0.0604
  220MOL0     H29667   2.764  13.481  -0.813  1.5621 -2.6037 -0.9467
  220MOL0     H29668   2.529  13.308  -0.917 -0.6726  1.5804  0.5864
  220MOL0     H29669   2.523  13.485  -0.898  0.6392  1.4689  0.5287
  220MOL0     H29670   2.674  13.319  -1.112 -1.6385 -0.3473 -0.3160
  220MOL0     H29671   2.729  13.481  -1.057  0.9180 -1.0232  2.3931
  220MOL0     H29672   2.458  13.386  -1.144  0.1036 -0.3399 -0.9753
  220MOL0     H29673   2.491  13.556  -1.109 -0.7178 -0.9427  1.3505
  220MOL0     H29674   2.619  13.416  -1.359 -1.4361 -0.6469 -2.3963
  220MOL0     H29675   2.625  13.585  -1.318  2.2224 -0.7100  2.2525
  220MOL0     H29676   2.359  13.434  -1.354 -0.2953 -0.8826 -0.5097
  220MOL0     H29677   2.378  13.606  -1.338  0.8057  0.1177  0.3553
  220MOL0     H29678   2.529  13.459  -1.567  1.0256  0.9961  0.0577
  220MOL0     H29679   2.518  13.627  -1.524  1.3060 -1.3512  1.9664
  220MOL0     H29680   2.253  13.586  -1.558  2.6446  1.2984  2.0342
  220MOL0     H29681   2.300  13.436  -1.647  0.7982 -1.3187 -1.2173
  220MOL0     H29682   2.968  13.139  -0.956 -2.0099 -0.7241  1.9520
  220MOL0     H29683   3.183  13.095  -0.856  0.4651  1.8685 -1.9990
  220MOL0     H29684   3.602  13.452  -0.639 -0.5231 -0.8847 -3.2049
  220MOL0     H29685   3.826  13.393  -0.591 -0.9054  0.1174  5.9266
  220MOL0     H29686   4.660  11.639  -0.220 -0.4300  0.1611 -0.3448
  220MOL0     H29687   4.782  11.474  -0.059 -0.8244 -1.8045  3.0520
  220MOL0     H29688   4.574  10.997   0.204 -2.2644  1.6431 -0.2916
  220MOL0     H29689   4.653  10.850   0.406 -0.1283  0.8521  0.8564
  220MOL0     H29690   4.919  10.784   0.510 -0.6368 -0.3880 -2.6314
  220MOL0     H29691   4.962  10.954   0.516  0.4743  0.7734  0.7243
  220MOL0     H29692   5.083  10.783   0.678  1.1473  0.6799  0.4679
  220MOL0     H29693   4.936  10.789   0.775 -1.0036  0.2878 -1.9336
  220MOL0     H29694   4.940  11.017   0.807  2.2355  0.0003  1.2391
  220MOL0     H29695   5.079  11.039   0.686 -1.7551  2.5971 -0.9485
  220MOL0     H29696   5.189  10.882   0.873 -1.9240 -1.3133 -1.3889
  220MOL0     H29697   5.028  10.880   0.949 -2.6423  1.7465 -1.7876
  220MOL0     H29698   5.165  11.270   1.053 -2.0981 -1.4437  3.5654
  220MOL0     H29699   4.841  11.197   0.590  0.8233  2.1703 -0.4820
  220MOL0     H29700   4.788  11.319   0.392  0.7969  0.0850  1.9736
  221MOL0     O29701   7.747   6.420   2.906  0.1353 -0.1808  0.6551
  221MOL0     C29702   7.866   6.384   2.896 -0.8629  0.5552 -0.0912
  221MOL0     O29703   7.916   6.263   2.871 -0.2528  0.3742 -0.0739
  221MOL0     C29704   7.831   6.158   2.865  0.1664  0.1362 -0.0098
  221MOL0     C29705   7.730   6.128   2.956 -0.5451  0.2205 -0.6333
  221MOL0     C29706   7.654   6.005   2.943 -0.0709  0.9578 -0.4653
  221MOL0     C29707   7.679   5.913   2.843  0.4003  0.4085  0.4847
  221MOL0     O29708   7.593   5.811   2.840 -0.4223  0.6894 -0.9880
  221MOL0     C29709   7.553   5.757   2.712 -0.5290  0.2936 -0.5537
  221MOL0     C29710   7.463   5.636   2.729 -0.1565 -0.5307  1.2523
  221MOL0     C29711   7.422   5.567   2.602 -0.8987  0.4153 -0.4083
  221MOL0     C29712   7.283   5.505   2.603 -0.6718 -0.5645  0.6445
  221MOL0     C29713   7.268   5.409   2.482  0.0075 -0.4703 -0.1855
  221MOL0     C29714   7.212   5.498   2.367  0.1072  0.3371 -0.2740
  221MOL0     C29715   7.232   5.412   2.244 -0.0635 -0.1578  0.8364
  221MOL0     C29716   7.169   5.476   2.119  0.1381  0.0393  0.0787
  221MOL0     N29717   7.209   5.608   2.098  0.3916 -0.2618  0.0779
  221MOL0     C29718   7.341   5.648   2.064  0.2989  0.3834  0.5791
  221MOL0     C29719   7.338   5.786   2.068  0.4149  0.5156 -1.0625
  221MOL0     C29720   7.469   5.851   2.042 -0.2258 -0.1874  0.5484
  221MOL0     C29721   7.541   5.879   2.170 -1.0710 -0.7756 -0.0354
  221MOL0     C29722   7.596   5.754   2.227  0.7264  0.1429 -0.1510
  221MOL0     C29723   7.731   5.775   2.298  0.1177  0.5113 -0.6346
  221MOL0     O29724   7.749   5.656   2.371  0.1405  0.5033  0.2664
  221MOL0     C29725   7.874   5.637   2.435 -0.1310 -0.3511  0.7649
  221MOL0     C29726   7.881   5.540   2.531  0.4089  0.2390 -0.2393
  221MOL0     C29727   7.999   5.506   2.600 -0.5845  0.4674 -0.5556
  221MOL0     C29728   7.986   5.387   2.698  0.3780 -0.3157  0.3918
  221MOL0     C29729   8.116   5.579   2.576 -0.2776  0.1606 -0.8192
  221MOL0     C29730   8.249   5.543   2.647  0.0264 -1.2155 -0.7970
  221MOL0     O29731   8.275   5.418   2.691  0.0147 -0.2566 -0.1331
  221MOL0     C29732   8.404   5.366   2.668 -0.3193 -0.2810 -0.6593
  221MOL0     C29733   8.458   5.284   2.767  1.0537  0.1013 -0.3784
  221MOL0     C29734   8.586   5.233   2.756 -0.5663 -0.1898 -1.4201
  221MOL0     C29735   8.668   5.267   2.653  0.1116 -0.3747 -0.3235
  221MOL0     O29736   8.785   5.199   2.645 -0.0848 -0.3198  0.1907
  221MOL0     C29737   8.807   5.133   2.519  0.4075  0.2043  0.3445
  221MOL0     C29738   8.725   5.006   2.520  0.6150  0.4469 -0.5657
  221MOL0     C29739   8.779   4.909   2.620 -0.5874 -0.6804 -0.2580
  221MOL0     C29740   8.685   4.784   2.635  0.9740  0.5979 -0.2641
  221MOL0     C29741   8.709   4.692   2.753  0.1471 -1.1515 -0.4057
  221MOL0     C29742   8.700   4.762   2.893  0.5163 -0.6988 -0.2556
  221MOL0     C29743   8.562   4.833   2.928 -0.7458 -0.7185  0.0248
  221MOL0     C29744   8.547   4.856   3.086  0.0260 -0.0320  0.1658
  221MOL0    Cl29745   8.446   4.991   3.119 -0.1843 -0.1598  0.2744
  221MOL0     C29746   8.622   5.357   2.556 -0.2620  1.4195  0.3308
  221MOL0     C29747   8.492   5.409   2.562 -0.5548  0.0588  0.4275
  221MOL0     O29748   8.329   5.639   2.654  0.6317  0.3488  0.1738
  221MOL0     C29749   8.110   5.678   2.473  1.0558  0.1814 -0.3316
  221MOL0     C29750   7.996   5.704   2.403  1.0999 -0.5453 -0.5463
  221MOL0     N29751   7.206   5.817   2.107 -0.1413 -0.1471 -0.2905
  221MOL0     N29752   7.129   5.717   2.103 -0.6477 -1.1704  0.7157
  221MOL0     C29753   7.776   5.937   2.751 -0.5120  1.1799 -0.4298
  221MOL0     C29754   7.847   6.061   2.756  0.5484  0.9591 -0.0778
  221MOL0     C29755   7.960   6.496   2.922 -0.0752  0.2427 -1.1886
  221MOL0     C29756   7.930   6.597   3.008 -0.1708  0.3074 -0.6680
  221MOL0     C29757   8.025   6.698   3.040 -0.8719  0.2690  0.7264
  221MOL0     C29758   8.156   6.692   2.981 -0.1298 -0.3927  0.4008
  221MOL0     O29759   8.254   6.782   3.015  0.1187  0.2706  0.0529
  221MOL0     C29760   8.238   6.875   3.126 -0.6747 -0.6028 -0.4478
  221MOL0     C29761   8.228   6.796   3.261 -0.8653  0.5200 -0.1239
  221MOL0     C29762   8.319   6.671   3.263 -0.3508 -0.6971 -0.1716
  221MOL0     C29763   8.467   6.695   3.239 -0.9952  0.5409 -0.2162
  221MOL0     C29764   8.544   6.578   3.281 -0.1786 -0.2818  0.3171
  221MOL0     C29765   8.621   6.492   3.319 -0.0328  0.4241  0.1641
  221MOL0     C29766   8.184   6.600   2.885  0.5635  0.7366 -0.6570
  221MOL0     C29767   8.087   6.506   2.861 -0.6613 -0.0666 -0.7001
  221MOL0     H29768   7.711   6.198   3.036 -0.7686 -1.6371  1.0283
  221MOL0     H29769   7.571   5.981   3.010  0.3958 -2.0032 -0.8501
  221MOL0     H29770   7.507   5.837   2.655  1.4531  0.6148 -1.8244
  221MOL0     H29771   7.635   5.722   2.648 -2.3244 -3.6944 -0.9771
  221MOL0     H29772   7.512   5.560   2.791 -0.1847 -1.5720  0.0394
  221MOL0     H29773   7.381   5.677   2.788 -0.5736 -0.9051  0.9366
  221MOL0     H29774   7.458   5.631   2.522  0.2694  1.3580  0.8291
  221MOL0     H29775   7.485   5.479   2.592 -0.0294  0.7662  1.5484
  221MOL0     H29776   7.265   5.435   2.685 -0.1937 -1.5719 -0.0823
  221MOL0     H29777   7.205   5.580   2.614 -1.3910 -1.4225  1.5845
  221MOL0     H29778   7.365   5.369   2.451 -0.2845  0.7463 -2.8926
  221MOL0     H29779   7.204   5.322   2.502 -0.8038  0.1778  0.0645
  221MOL0     H29780   7.107   5.528   2.380 -0.8043 -1.1086 -3.4649
  221MOL0     H29781   7.271   5.590   2.355 -1.6951  1.6305  0.2200
  221MOL0     H29782   7.341   5.404   2.236  0.1810 -0.5588  3.7394
  221MOL0     H29783   7.185   5.314   2.255 -2.2752  0.5693 -1.1487
  221MOL0     H29784   7.060   5.474   2.123  0.1689 -0.5369  0.9328
  221MOL0     H29785   7.184   5.414   2.029 -1.4017  0.0377 -0.2074
  221MOL0     H29786   7.415   5.576   2.031 -2.9100 -1.0881 -4.5395
  221MOL0     H29787   7.530   5.791   1.974  0.4440 -2.9605  3.3942
  221MOL0     H29788   7.453   5.950   1.997  0.1136 -0.0683  0.6880
  221MOL0     H29789   7.469   5.923   2.240 -0.7246  0.1018 -0.2114
  221MOL0     H29790   7.627   5.944   2.152 -0.9236 -1.1907 -0.8944
  221MOL0     H29791   7.603   5.679   2.147 -1.6824  0.6014 -0.8795
  221MOL0     H29792   7.513   5.717   2.287 -2.1244  0.5273 -3.5033
  221MOL0     H29793   7.733   5.870   2.353  0.7379  0.4250 -0.4987
  221MOL0     H29794   7.810   5.780   2.222  2.4887 -3.9974  1.1195
  221MOL0     H29795   7.793   5.479   2.551  0.6284  0.5391  1.8342
  221MOL0     H29796   8.028   5.299   2.648  1.1554  0.5262 -0.4792
  221MOL0     H29797   8.043   5.421   2.785 -1.0648 -0.3003  1.3637
  221MOL0     H29798   7.888   5.360   2.739 -0.0461  0.1705 -0.2837
  221MOL0     H29799   8.394   5.273   2.854  1.7899  3.5679  0.7667
  221MOL0     H29800   8.619   5.170   2.839  0.7659  1.1446 -0.8894
  221MOL0     H29801   8.775   5.200   2.438 -1.7378 -0.6354  0.4195
  221MOL0     H29802   8.910   5.100   2.502 -0.3530 -1.3843 -1.5687
  221MOL0     H29803   8.621   5.021   2.548 -0.0282 -2.2428 -1.2558
  221MOL0     H29804   8.745   4.954   2.426  4.8613 -1.7243  1.2229
  221MOL0     H29805   8.787   4.947   2.722  0.0672  0.2446 -0.6446
  221MOL0     H29806   8.881   4.882   2.591 -0.8068 -0.6919 -1.0362
  221MOL0     H29807   8.580   4.812   2.647  1.0371  1.2546 -1.0921
  221MOL0     H29808   8.685   4.722   2.545 -2.7254  1.7670 -1.2704
  221MOL0     H29809   8.811   4.651   2.756 -0.5682 -3.0039  0.3003
  221MOL0     H29810   8.633   4.614   2.745  0.6343 -1.6424 -0.3099
  221MOL0     H29811   8.700   4.686   2.972  0.4338  0.8365  1.2763
  221MOL0     H29812   8.783   4.832   2.909  0.3001 -0.7144  1.1303
  221MOL0     H29813   8.479   4.776   2.886 -1.0793  0.2246 -0.6467
  221MOL0     H29814   8.575   4.924   2.869  2.0323 -0.0273  1.5208
  221MOL0     H29815   8.645   4.875   3.131  0.3900  0.9750 -0.9892
  221MOL0     H29816   8.496   4.769   3.127 -0.1056 -0.6170 -1.1927
  221MOL0     H29817   8.666   5.384   2.460 -4.1604 -1.0436 -2.4361
  221MOL0     H29818   8.465   5.479   2.484  2.8394  0.9260 -0.1549
  221MOL0     H29819   8.195   5.733   2.433  0.8520  2.0338  1.6232
  221MOL0     H29820   8.008   5.786   2.334 -2.2234  1.9816  1.5763
  221MOL0     H29821   7.799   5.863   2.676 -0.5735 -0.0751  0.7473
  221MOL0     H29822   7.923   6.089   2.683  0.2953 -0.1128 -0.7642
  221MOL0     H29823   7.831   6.598   3.050 -0.1892  0.0223 -0.6961
  221MOL0     H29824   7.987   6.772   3.109 -2.3384  0.0379  0.1846
  221MOL0     H29825   8.327   6.937   3.140 -1.6541  0.5506  0.8934
  221MOL0     H29826   8.160   6.950   3.111  0.5158  0.8686  0.3558
  221MOL0     H29827   8.126   6.764   3.282 -0.1131 -0.4383  2.3734
  221MOL0     H29828   8.272   6.862   3.336  2.6017  0.1104 -1.6001
  221MOL0     H29829   8.275   6.610   3.183 -3.0864  4.1968 -2.8722
  221MOL0     H29830   8.313   6.627   3.363  3.5068 -2.4562 -0.5464
  221MOL0     H29831   8.522   6.772   3.293  3.3382 -2.9014  0.8416
  221MOL0     H29832   8.475   6.701   3.130 -0.0926 -2.3444 -0.3926
  221MOL0     H29833   8.683   6.415   3.361 -1.5039 -0.8834  0.0147
  221MOL0     H29834   8.275   6.602   2.826  1.6130 -0.6322  0.8025
  221MOL0     H29835   8.104   6.431   2.785 -1.2536  1.6403 -2.6256
  222MOL0     O29836  10.394   4.348   5.160 -0.2123 -0.0783 -0.1509
  222MOL0     C29837  10.407   4.284   5.266 -0.4414 -1.0924  0.5259
  222MOL0     O29838  10.317   4.280   5.366 -0.7311 -0.1541  0.4943
  222MOL0     C29839  10.200   4.354   5.351  0.5303 -0.6285 -0.1758
  222MOL0     C29840  10.174   4.466   5.421  0.5626  0.0736 -1.5986
  222MOL0     C29841  10.053   4.530   5.403 -0.5527  0.4875 -0.5544
  222MOL0     C29842   9.956   4.491   5.302  0.2276  0.3420 -0.5582
  222MOL0     O29843   9.834   4.558   5.292 -0.2121  0.3162 -0.0073
  222MOL0     C29844   9.730   4.519   5.380  0.2655  0.1325 -0.3473
  222MOL0     C29845   9.616   4.625   5.354 -0.3299 -0.7539  0.1498
  222MOL0     C29846   9.515   4.600   5.466  1.0890  0.1142  0.1891
  222MOL0     C29847   9.386   4.672   5.419  0.8280  0.3980  0.9056
  222MOL0     C29848   9.280   4.690   5.534 -0.8717 -1.2414  0.3365
  222MOL0     C29849   9.163   4.770   5.485 -0.0339 -0.2566 -0.6607
  222MOL0     C29850   9.071   4.783   5.610  0.0094 -0.2017 -0.7547
  222MOL0     C29851   8.927   4.738   5.592 -0.5528 -0.0860 -0.2190
  222MOL0     N29852   8.860   4.800   5.477 -0.1207  0.5279 -0.3967
  222MOL0     C29853   8.844   4.750   5.353  0.3576  0.2249 -0.6805
  222MOL0     C29854   8.760   4.833   5.288  1.1303  1.4124 -0.0298
  222MOL0     C29855   8.717   4.818   5.148  0.7555  0.3114 -0.2906
  222MOL0     C29856   8.576   4.880   5.133 -0.2168  0.1538 -0.0733
  222MOL0     C29857   8.472   4.797   5.199  0.7850  0.4183  0.4153
  222MOL0     C29858   8.350   4.879   5.245 -0.5615  0.8393  0.6329
  222MOL0     O29859   8.298   4.960   5.133  0.4269  0.3202 -0.0607
  222MOL0     C29860   8.297   5.092   5.138  0.0272 -0.2403  0.1937
  222MOL0     C29861   8.368   5.152   5.036 -1.0443  0.0109 -0.4957
  222MOL0     C29862   8.375   5.290   5.028 -0.6225  0.6694 -0.8085
  222MOL0     C29863   8.452   5.343   4.908  0.4872 -0.2780  0.4357
  222MOL0     C29864   8.308   5.363   5.134  0.5874 -0.7125  0.4637
  222MOL0     C29865   8.309   5.516   5.133 -1.0374  0.5895  0.7736
  222MOL0     O29866   8.308   5.564   5.266 -0.3106  0.2950  0.4618
  222MOL0     C29867   8.321   5.697   5.291 -0.0431 -0.5982 -0.3250
  222MOL0     C29868   8.407   5.777   5.210  0.2945 -0.1895  0.0190
  222MOL0     C29869   8.407   5.913   5.213  0.0550  0.5785 -0.0971
  222MOL0     C29870   8.317   5.985   5.296  0.0801 -1.3332 -0.2207
  222MOL0     O29871   8.314   6.121   5.295  0.1667 -0.0339  0.6193
  222MOL0     C29872   8.367   6.204   5.193 -0.4340 -0.5317  0.0763
  222MOL0     C29873   8.310   6.344   5.214 -0.0550 -0.4837  0.1431
  222MOL0     C29874   8.144   6.341   5.195 -0.5349 -0.0555 -0.9450
  222MOL0     C29875   8.071   6.470   5.215 -0.5952 -0.8848 -1.6584
  222MOL0     C29876   8.112   6.526   5.364 -0.1677 -0.0883  0.4541
  222MOL0     C29877   8.049   6.667   5.407 -0.9141  0.0474  0.7587
  222MOL0     C29878   7.897   6.672   5.391 -0.6293  0.1181 -0.4782
  222MOL0     C29879   7.852   6.812   5.338 -0.3704 -0.9393  0.3508
  222MOL0    Cl29880   7.886   6.934   5.458 -0.0043 -0.4795  0.2377
  222MOL0     C29881   8.228   5.907   5.383 -0.0106  0.8556 -0.2096
  222MOL0     C29882   8.234   5.765   5.381  0.4530 -0.2467  0.2023
  222MOL0     O29883   8.286   5.580   5.031  0.2545  0.1305  0.2099
  222MOL0     C29884   8.244   5.298   5.243  0.0272 -1.3102  0.8463
  222MOL0     C29885   8.245   5.162   5.244  0.2983  0.7147 -0.1166
  222MOL0     N29886   8.720   4.926   5.372 -0.2996 -0.1929 -0.0530
  222MOL0     N29887   8.781   4.917   5.483  0.2705  0.4844  0.0011
  222MOL0     C29888   9.984   4.373   5.237 -0.4410  0.1905  0.5662
  222MOL0     C29889  10.104   4.308   5.262 -0.0312  0.0245  0.8043
  222MOL0     C29890  10.530   4.210   5.271 -0.2117 -0.1159  0.0444
  222MOL0     C29891  10.646   4.236   5.192  0.2920 -0.2726 -0.0042
  222MOL0     C29892  10.759   4.166   5.213  0.6435 -0.0193 -0.5322
  222MOL0     C29893  10.766   4.062   5.301 -0.3992 -0.7207 -0.4786
  222MOL0     O29894  10.882   3.992   5.317 -0.9971  0.0610 -0.1017
  222MOL0     C29895  10.904   3.894   5.428 -0.6458 -0.4089  0.0566
  222MOL0     C29896  11.056   3.887   5.458 -0.4938  0.1595  0.1770
  222MOL0     C29897  11.109   4.024   5.505  0.9971 -0.6434 -0.9917
  222MOL0     C29898  11.042   4.074   5.639  0.0609 -0.0114  0.3872
  222MOL0     C29899  11.074   3.984   5.744 -0.0817 -0.1102 -0.2256
  222MOL0     C29900  11.109   3.920   5.840 -0.5020 -0.5516  0.1956
  222MOL0     C29901  10.642   4.027   5.360 -0.7586 -0.6199  0.1139
  222MOL0     C29902  10.521   4.098   5.359 -0.6289 -0.3530  0.2454
  222MOL0     H29903  10.249   4.482   5.499  0.7020  0.4413 -1.8045
  222MOL0     H29904  10.025   4.613   5.467  2.2427 -1.1973  3.2478
  222MOL0     H29905   9.693   4.421   5.352  3.6567 -0.7141 -2.5338
  222MOL0     H29906   9.771   4.515   5.482  2.5991  1.5575 -1.1275
  222MOL0     H29907   9.655   4.727   5.367  1.9023 -1.2872 -1.7413
  222MOL0     H29908   9.564   4.605   5.260 -0.7723 -4.3900  1.0400
  222MOL0     H29909   9.501   4.492   5.475  1.6111  0.1464  1.5714
  222MOL0     H29910   9.545   4.635   5.565  2.1301 -1.2960  0.3871
  222MOL0     H29911   9.408   4.777   5.399 -2.3527  0.6750 -2.0317
  222MOL0     H29912   9.330   4.626   5.337 -0.4946  0.0857  1.9377
  222MOL0     H29913   9.253   4.587   5.558  2.7911 -2.3078  0.4569
  222MOL0     H29914   9.339   4.737   5.613  2.1853 -1.8760 -1.3890
  222MOL0     H29915   9.194   4.869   5.453  0.7267 -0.4951 -0.6871
  222MOL0     H29916   9.107   4.724   5.404 -2.0093  1.1137 -0.1232
  222MOL0     H29917   9.114   4.733   5.698 -4.1511 -1.4038  0.8322
  222MOL0     H29918   9.062   4.892   5.623 -2.3947 -0.1525 -2.3075
  222MOL0     H29919   8.874   4.756   5.686 -0.0744  0.5081 -0.0571
  222MOL0     H29920   8.917   4.630   5.577 -1.9800  0.1725 -1.3606
  222MOL0     H29921   8.879   4.651   5.326  0.5007 -0.0782  0.5421
  222MOL0     H29922   8.789   4.869   5.083  1.5041  3.2446  2.5471
  222MOL0     H29923   8.716   4.715   5.111  2.4280  0.3617 -0.5621
  222MOL0     H29924   8.568   4.879   5.023  1.6602  1.5710 -0.2741
  222MOL0     H29925   8.592   4.979   5.177  2.9215  0.2513 -1.1930
  222MOL0     H29926   8.501   4.754   5.295 -2.0458 -0.1778  1.0916
  222MOL0     H29927   8.431   4.721   5.131 -3.8022  1.9304  1.0985
  222MOL0     H29928   8.378   4.944   5.328  0.4981 -1.8001  2.4812
  222MOL0     H29929   8.275   4.808   5.280 -1.0353  2.3669  2.8795
  222MOL0     H29930   8.416   5.080   4.969  2.3668 -0.2578  1.9447
  222MOL0     H29931   8.527   5.267   4.885 -2.9268 -4.2257  1.1502
  222MOL0     H29932   8.386   5.370   4.825 -0.7466  2.9684  2.2641
  222MOL0     H29933   8.490   5.440   4.942 -2.0292  0.1883  2.2897
  222MOL0     H29934   8.479   5.717   5.155  1.4228 -0.1343  1.3857
  222MOL0     H29935   8.475   5.960   5.143  2.8125 -0.4070  1.7460
  222MOL0     H29936   8.475   6.205   5.213 -0.8851 -0.9074  2.8373
  222MOL0     H29937   8.358   6.171   5.089  2.3790  0.3670 -0.5436
  222MOL0     H29938   8.332   6.366   5.319 -1.4288  0.5092  0.2531
  222MOL0     H29939   8.348   6.419   5.144 -4.3979 -0.4297 -2.5391
  222MOL0     H29940   8.101   6.279   5.274 -1.2089 -0.6040 -1.7236
  222MOL0     H29941   8.120   6.305   5.095  0.8326 -0.1374 -1.2719
  222MOL0     H29942   8.107   6.543   5.142  0.8615 -0.5217 -0.6419
  222MOL0     H29943   7.964   6.452   5.208 -0.0680 -3.8897 -5.7073
  222MOL0     H29944   8.222   6.528   5.371 -0.2430  1.5163  1.9040
  222MOL0     H29945   8.083   6.446   5.433  1.3117  0.9012  2.3522
  222MOL0     H29946   8.071   6.685   5.512 -0.1538 -0.9668  0.7867
  222MOL0     H29947   8.107   6.742   5.353 -2.1238  0.4479 -0.0178
  222MOL0     H29948   7.849   6.653   5.487 -2.5721  0.3416 -1.3486
  222MOL0     H29949   7.865   6.596   5.320  1.7538 -0.2599 -1.2102
  222MOL0     H29950   7.744   6.799   5.323 -0.3184 -2.2714  0.9722
  222MOL0     H29951   7.914   6.837   5.252  1.1914 -3.3880  0.6640
  222MOL0     H29952   8.146   5.960   5.429 -0.5622  1.1177 -1.4395
  222MOL0     H29953   8.163   5.708   5.439  0.0077 -1.0668 -1.1144
  222MOL0     H29954   8.187   5.353   5.317 -1.1084 -0.1020 -0.8631
  222MOL0     H29955   8.194   5.111   5.325  0.3560  0.1461 -0.4317
  222MOL0     H29956   9.908   4.335   5.169  1.3921  1.8335 -2.6406
  222MOL0     H29957  10.124   4.206   5.229  1.7603  0.3572  0.7852
  222MOL0     H29958  10.650   4.324   5.128 -0.9014 -1.2857 -1.5620
  222MOL0     H29959  10.844   4.208   5.162  0.0683  1.2350 -0.4957
  222MOL0     H29960  10.864   3.919   5.527  1.9056 -0.6962  1.2494
  222MOL0     H29961  10.869   3.793   5.403  0.7155 -1.8783  3.4611
  222MOL0     H29962  11.120   3.869   5.371  1.3876  2.8245  0.9193
  222MOL0     H29963  11.069   3.815   5.539 -2.0549 -1.0654 -0.5817
  222MOL0     H29964  11.081   4.105   5.438 -1.1833 -0.1794  0.3737
  222MOL0     H29965  11.217   4.033   5.517  0.6030  5.7183  1.5134
  222MOL0     H29966  10.934   4.084   5.633 -0.2012 -2.3470  0.0576
  222MOL0     H29967  11.079   4.173   5.667 -1.6160  0.5669  0.6407
  222MOL0     H29968  11.145   3.871   5.928 -1.0811  1.9453  1.9417
  222MOL0     H29969  10.632   3.929   5.405 -1.6149  0.2261  1.8704
  222MOL0     H29970  10.429   4.076   5.412 -0.9040  2.2133  0.9561
  223MOL0     O29971   3.970   4.533   7.280 -0.2731  0.0648  0.0287
  223MOL0     C29972   3.857   4.493   7.298  0.5919  0.2380 -0.4961
  223MOL0     O29973   3.785   4.416   7.209 -1.0699 -0.3835 -0.5960
  223MOL0     C29974   3.844   4.359   7.102 -1.3632 -0.5211  0.0722
  223MOL0     C29975   3.953   4.276   7.123  0.2807 -0.4975  0.2667
  223MOL0     C29976   4.025   4.222   7.013  0.3074 -0.3668  0.1676
  223MOL0     C29977   3.994   4.251   6.876 -0.7078 -1.1372 -0.8074
  223MOL0     O29978   4.077   4.210   6.776  0.7381  0.1962  0.0115
  223MOL0     C29979   4.118   4.311   6.684  0.1138  2.1671 -0.7853
  223MOL0     C29980   4.252   4.260   6.618  0.2348 -0.5558 -0.0289
  223MOL0     C29981   4.354   4.242   6.718  0.2620 -0.7669  0.0448
  223MOL0     C29982   4.482   4.179   6.667 -1.1462  0.7356  0.1428
  223MOL0     C29983   4.575   4.106   6.764 -0.4168  0.9151 -0.7352
  223MOL0     C29984   4.593   4.182   6.896 -0.2586 -0.4786  0.1022
  223MOL0     C29985   4.680   4.319   6.880  0.5503  0.8920 -0.0511
  223MOL0     C29986   4.824   4.299   6.825  0.3900  0.6504 -0.4061
  223MOL0     N29987   4.825   4.313   6.676 -0.0052  0.2343 -0.7800
  223MOL0     C29988   4.760   4.399   6.598 -0.8493  0.2031 -0.0091
  223MOL0     C29989   4.780   4.360   6.468  1.5261  0.3010 -0.0224
  223MOL0     C29990   4.717   4.420   6.353  1.0395 -0.3152 -0.0474
  223MOL0     C29991   4.572   4.386   6.321 -0.5276  0.9862  1.3052
  223MOL0     C29992   4.550   4.247   6.260  0.7810  0.1072  0.5062
  223MOL0     C29993   4.663   4.183   6.174 -0.0294 -1.3869  0.7105
  223MOL0     O29994   4.698   4.261   6.046 -0.4373  0.5049 -0.6464
  223MOL0     C29995   4.790   4.214   5.952 -0.4863 -0.1467 -0.1053
  223MOL0     C29996   4.867   4.100   5.963 -0.0811 -0.5575 -0.1698
  223MOL0     C29997   4.963   4.054   5.867 -0.0944  0.6737 -0.6310
  223MOL0     C29998   5.046   3.933   5.909  0.4199 -0.2610  0.2032
  223MOL0     C29999   4.985   4.140   5.753  0.0643  0.0966 -0.0705
  223MOL0     C30000   5.086   4.112   5.644  0.1084  0.4020  0.0789
  223MOL0     O30001   5.098   4.214   5.551  0.0001  0.2330  0.2308
  223MOL0     C30002   5.206   4.213   5.463  0.3441 -0.6091 -0.7723
  223MOL0     C30003   5.196   4.300   5.363 -0.3043  0.1894 -0.8564
  223MOL0     C30004   5.302   4.323   5.276  0.2313  0.6139  0.2532
  223MOL0     C30005   5.418   4.242   5.275 -0.4290 -0.5036 -0.7130
  223MOL0     O30006   5.514   4.262   5.183 -0.1461  0.3178 -0.1689
  223MOL0     C30007   5.649   4.234   5.215  0.1342 -0.9254 -0.5582
  223MOL0     C30008   5.734   4.310   5.109 -0.8353 -0.5116 -1.1848
  223MOL0     C30009   5.875   4.242   5.103 -0.7059  0.4751 -0.1274
  223MOL0     C30010   5.986   4.323   5.031 -0.3347 -0.5033  0.1752
  223MOL0     C30011   6.115   4.246   5.033  0.5244 -0.5141 -0.9504
  223MOL0     C30012   6.161   4.221   5.173 -0.2316  0.9096  0.2620
  223MOL0     C30013   6.313   4.216   5.203 -0.5066  0.3013  0.6991
  223MOL0     C30014   6.367   4.088   5.125 -1.0488  0.1153 -1.1624
  223MOL0    Cl30015   6.430   3.966   5.242 -0.3938  0.2607 -0.1559
  223MOL0     C30016   5.427   4.154   5.383  0.1052  0.7177 -0.7411
  223MOL0     C30017   5.326   4.146   5.479  0.5518  0.3267  0.4068
  223MOL0     O30018   5.128   3.997   5.638 -0.4818  0.9153  0.5126
  223MOL0     C30019   4.907   4.253   5.732  0.5329  0.1901 -0.4916
  223MOL0     C30020   4.822   4.292   5.841 -0.6106  0.6267  0.8388
  223MOL0     N30021   4.842   4.238   6.472  0.1157 -0.4111  0.6037
  223MOL0     N30022   4.881   4.211   6.601  0.4443  0.7688 -0.2328
  223MOL0     C30023   3.886   4.343   6.856 -0.8492  0.9501  0.3543
  223MOL0     C30024   3.811   4.387   6.963  1.1534  0.8951 -0.3152
  223MOL0     C30025   3.775   4.536   7.410  0.6721  0.4833 -0.4036
  223MOL0     C30026   3.667   4.470   7.468  0.0839  0.1300 -0.8877
  223MOL0     C30027   3.606   4.507   7.585 -0.3486 -0.5848  0.4966
  223MOL0     C30028   3.650   4.617   7.659 -0.4388 -0.3040  0.0330
  223MOL0     O30029   3.578   4.654   7.774  0.5502  0.4656 -0.0305
  223MOL0     C30030   3.643   4.744   7.868 -0.2264 -0.1257 -0.0840
  223MOL0     C30031   3.558   4.780   7.995  0.7579 -0.5767 -0.6714
  223MOL0     C30032   3.442   4.678   8.043 -0.8307 -0.8175  0.2842
  223MOL0     C30033   3.489   4.542   8.088  0.6474 -1.0383  0.3231
  223MOL0     C30034   3.404   4.502   8.196 -0.4853 -0.3686  0.2840
  223MOL0     C30035   3.313   4.465   8.274 -0.3133 -0.9187  0.5130
  223MOL0     C30036   3.762   4.679   7.619  0.4922  0.5283  0.1552
  223MOL0     C30037   3.820   4.642   7.497  0.3194 -0.0914 -0.6639
  223MOL0     H30038   3.974   4.262   7.229  2.5288 -0.0922 -0.0727
  223MOL0     H30039   4.101   4.152   7.046 -0.5414 -0.8349  1.1802
  223MOL0     H30040   4.038   4.334   6.613 -1.3958 -1.0149 -0.2706
  223MOL0     H30041   4.154   4.391   6.750  1.5693 -0.9431  2.5024
  223MOL0     H30042   4.223   4.169   6.565  1.1469  0.7540 -2.9829
  223MOL0     H30043   4.293   4.325   6.539  0.1632 -0.1995  0.2231
  223MOL0     H30044   4.374   4.343   6.755  0.0331  0.1530 -2.2012
  223MOL0     H30045   4.304   4.188   6.799 -0.2885 -0.5643 -0.1558
  223MOL0     H30046   4.453   4.104   6.593 -0.4538  0.0683  0.5284
  223MOL0     H30047   4.543   4.251   6.612 -0.6772  1.6938  1.8457
  223MOL0     H30048   4.517   4.017   6.790 -0.6934  0.8665 -1.4865
  223MOL0     H30049   4.672   4.081   6.720  0.5076  0.8790  1.2427
  223MOL0     H30050   4.495   4.205   6.941  1.3030  1.2190  2.9180
  223MOL0     H30051   4.646   4.114   6.964  0.3424 -0.7787 -0.6604
  223MOL0     H30052   4.627   4.398   6.827  0.0424  0.5543 -0.0572
  223MOL0     H30053   4.687   4.369   6.978  2.0674 -0.7908  0.7572
  223MOL0     H30054   4.868   4.204   6.857  0.4329  1.7160  3.2310
  223MOL0     H30055   4.894   4.375   6.861  1.1082 -1.3084  2.7205
  223MOL0     H30056   4.720   4.495   6.631 -1.4597 -1.1183  3.4608
  223MOL0     H30057   4.733   4.528   6.356 -1.1088  0.1122 -1.6201
  223MOL0     H30058   4.774   4.392   6.264 -2.5786 -0.6856 -2.4694
  223MOL0     H30059   4.557   4.451   6.234  5.0270  2.3396  1.0027
  223MOL0     H30060   4.501   4.399   6.404 -3.6051 -2.3075 -0.5137
  223MOL0     H30061   4.462   4.251   6.195  0.8792 -2.0797  0.1625
  223MOL0     H30062   4.541   4.171   6.338  1.6579  1.6837  2.2178
  223MOL0     H30063   4.628   4.081   6.153 -0.9123 -0.5449 -2.3049
  223MOL0     H30064   4.758   4.174   6.228 -0.9747  0.9877  2.9710
  223MOL0     H30065   4.853   4.040   6.052 -0.8851  0.3422  0.3163
  223MOL0     H30066   5.008   3.846   5.856  0.7966 -0.3036  0.0076
  223MOL0     H30067   5.152   3.953   5.891  0.3332  0.7085  0.7064
  223MOL0     H30068   5.034   3.916   6.017 -0.1180  0.9875  0.3686
  223MOL0     H30069   5.097   4.344   5.354 -1.1090 -0.6868  2.4325
  223MOL0     H30070   5.295   4.393   5.194 -0.4657  1.6322  1.1517
  223MOL0     H30071   5.681   4.252   5.319 -1.5413  0.9582 -0.3121
  223MOL0     H30072   5.661   4.126   5.212 -1.1019 -1.2409  2.3574
  223MOL0     H30073   5.686   4.306   5.010 -0.1877 -0.6684 -1.5029
  223MOL0     H30074   5.749   4.411   5.148 -1.1270 -1.3851  1.3750
  223MOL0     H30075   5.858   4.150   5.046  1.2928  1.0384 -1.7590
  223MOL0     H30076   5.901   4.204   5.202 -0.7767 -1.2945 -0.7547
  223MOL0     H30077   5.955   4.354   4.931  0.4117 -0.9843 -0.2157
  223MOL0     H30078   5.998   4.419   5.081  0.3499 -0.2967 -0.3842
  223MOL0     H30079   6.185   4.312   4.982  1.1073 -0.1712  0.2654
  223MOL0     H30080   6.122   4.154   4.974 -0.7109 -2.0050  1.0868
  223MOL0     H30081   6.124   4.308   5.228 -0.8754  1.7100 -1.3719
  223MOL0     H30082   6.124   4.124   5.207  1.3408  0.1997  0.0605
  223MOL0     H30083   6.338   4.213   5.309  0.0659  1.9469  0.6259
  223MOL0     H30084   6.358   4.305   5.159  1.3029 -0.3988  1.0571
  223MOL0     H30085   6.443   4.134   5.062 -1.0088  0.7595 -0.6605
  223MOL0     H30086   6.292   4.044   5.059 -1.8327  0.9480 -0.8398
  223MOL0     H30087   5.507   4.080   5.387 -1.9568 -1.5770  0.4488
  223MOL0     H30088   5.336   4.072   5.557 -2.9485  0.0347  0.7635
  223MOL0     H30089   4.911   4.331   5.656 -0.1111 -0.3509 -1.0861
  223MOL0     H30090   4.766   4.383   5.827 -0.9171  0.1396 -1.5106
  223MOL0     H30091   3.863   4.368   6.753  2.6640  3.3533 -0.0611
  223MOL0     H30092   3.730   4.459   6.958  1.0762  0.9936  1.5951
  223MOL0     H30093   3.625   4.391   7.406  0.6698  0.7961 -2.1774
  223MOL0     H30094   3.511   4.458   7.605 -1.5057  2.0705  2.1838
  223MOL0     H30095   3.736   4.698   7.902 -0.5796 -0.1225  0.9174
  223MOL0     H30096   3.658   4.840   7.816 -1.1663  0.8561  1.3778
  223MOL0     H30097   3.507   4.869   7.960 -0.5247  0.1515  2.6672
  223MOL0     H30098   3.631   4.799   8.075  0.9508 -0.4464 -0.8773
  223MOL0     H30099   3.370   4.665   7.961  0.3156 -2.7620 -0.4690
  223MOL0     H30100   3.396   4.737   8.123  0.9373  0.0710  0.6779
  223MOL0     H30101   3.597   4.547   8.108  0.8453 -0.4330 -0.7946
  223MOL0     H30102   3.498   4.459   8.018  1.5318 -1.7086  1.1991
  223MOL0     H30103   3.245   4.411   8.336 -0.7061 -2.4223 -1.1430
  223MOL0     H30104   3.810   4.754   7.681  2.9124 -2.3681  2.0576
  223MOL0     H30105   3.910   4.693   7.463 -0.3126  0.7772 -1.0715
  224MOL0     O30106   9.254   8.988   1.273 -0.7476 -0.3236 -0.0446
  224MOL0     C30107   9.320   8.926   1.191 -0.7132  0.6386  0.1155
  224MOL0     O30108   9.417   8.836   1.220 -0.1726 -0.6083  0.0097
  224MOL0     C30109   9.481   8.840   1.345 -0.6415 -0.2179  0.6864
  224MOL0     C30110   9.510   8.721   1.412 -0.3809 -0.1420  0.9271
  224MOL0     C30111   9.581   8.712   1.532  0.2931  0.3835  0.1606
  224MOL0     C30112   9.622   8.827   1.597  0.6243 -1.0264  0.0572
  224MOL0     O30113   9.699   8.834   1.704 -0.9257  0.1933  0.3324
  224MOL0     C30114   9.810   8.744   1.707 -0.6995  0.4560 -0.1399
  224MOL0     C30115   9.925   8.805   1.780  0.3027 -0.0649 -0.9128
  224MOL0     C30116  10.073   8.756   1.749 -0.0602  1.3468  0.4541
  224MOL0     C30117  10.195   8.830   1.808  0.0574  0.1022 -0.6555
  224MOL0     C30118  10.312   8.733   1.832  0.0315  0.0304  0.7227
  224MOL0     C30119  10.347   8.746   1.982 -0.4002  0.0889 -0.5040
  224MOL0     C30120  10.463   8.656   2.037 -0.4529  0.1049  1.1695
  224MOL0     C30121  10.587   8.643   1.944 -0.0837 -0.1906 -0.1528
  224MOL0     N30122  10.667   8.527   1.982  0.5163  0.6860  0.7788
  224MOL0     C30123  10.700   8.487   2.108 -0.5878 -0.5917 -0.1011
  224MOL0     C30124  10.795   8.392   2.121 -0.4393 -0.1344  0.3321
  224MOL0     C30125  10.858   8.319   2.244 -0.4847  0.1205 -0.3419
  224MOL0     C30126  11.008   8.332   2.252 -1.1192  0.1993  0.4223
  224MOL0     C30127  11.076   8.207   2.330  0.0014  0.6199 -0.3363
  224MOL0     C30128  11.221   8.225   2.361 -0.2498  0.0510  0.4341
  224MOL0     O30129  11.232   8.325   2.464 -0.2339 -0.4854  0.1198
  224MOL0     C30130  11.230   8.289   2.594  0.0540 -0.4533 -0.5207
  224MOL0     C30131  11.316   8.193   2.645 -0.3470  0.7120 -0.9028
  224MOL0     C30132  11.314   8.141   2.776  0.1880 -0.5064  0.8480
  224MOL0     C30133  11.421   8.039   2.825 -0.2053  0.4410 -0.3742
  224MOL0     C30134  11.214   8.199   2.864 -0.7048  0.1050  0.4948
  224MOL0     C30135  11.199   8.146   3.002  0.5975  0.8565  0.7105
  224MOL0     O30136  11.310   8.096   3.069  0.1092 -0.1304 -0.2634
  224MOL0     C30137  11.286   8.059   3.196 -0.0499  0.4826 -0.4843
  224MOL0     C30138  11.242   8.152   3.295  0.4013 -0.5398 -0.1552
  224MOL0     C30139  11.217   8.111   3.428 -0.4761 -0.6450 -1.5000
  224MOL0     C30140  11.258   7.979   3.471  0.5588  0.2420 -0.0028
  224MOL0     O30141  11.232   7.936   3.598  0.0872  0.3278  0.3604
  224MOL0     C30142  11.211   7.794   3.617  0.1244  0.2032 -0.2623
  224MOL0     C30143  11.135   7.766   3.749  0.6518  0.3047  0.2830
  224MOL0     C30144  11.235   7.735   3.854  0.2211 -0.4876 -0.1545
  224MOL0     C30145  11.162   7.729   3.984 -0.5328  0.8291 -0.0670
  224MOL0     C30146  11.111   7.588   4.019 -0.1445  0.3590 -0.0522
  224MOL0     C30147  10.969   7.595   4.098  0.6283  0.0180  1.1251
  224MOL0     C30148  10.886   7.472   4.055 -0.2568 -1.2107 -0.3435
  224MOL0     C30149  10.742   7.492   4.101  0.3499 -0.3717  0.6298
  224MOL0    Cl30150  10.655   7.605   3.976 -0.0840 -0.1268 -0.0800
  224MOL0     C30151  11.309   7.892   3.379  0.0290  0.3008 -0.0134
  224MOL0     C30152  11.315   7.925   3.237  0.0326  0.8071  0.2985
  224MOL0     O30153  11.092   8.170   3.057  0.5623 -0.4971 -0.0721
  224MOL0     C30154  11.126   8.303   2.814 -0.0452 -0.1290 -0.2064
  224MOL0     C30155  11.144   8.356   2.686  0.2743 -0.3982  0.2592
  224MOL0     N30156  10.806   8.374   1.981 -0.1088  0.6572  0.4776
  224MOL0     N30157  10.735   8.443   1.897  0.3168  0.0126 -0.1719
  224MOL0     C30158   9.587   8.945   1.538 -0.0166 -0.2696  0.7478
  224MOL0     C30159   9.513   8.959   1.426  0.3969 -0.2038 -0.1349
  224MOL0     C30160   9.291   8.929   1.053  0.0325  0.2864  0.2317
  224MOL0     C30161   9.232   9.050   0.996  0.2277  0.2351 -0.1263
  224MOL0     C30162   9.187   9.059   0.869 -0.1282 -0.4005  0.4967
  224MOL0     C30163   9.203   8.946   0.787 -0.8825  0.1670  0.8771
  224MOL0     O30164   9.166   8.952   0.652  0.3890  0.0124  0.1719
  224MOL0     C30165   9.031   8.912   0.620 -0.0106 -0.6437  0.6768
  224MOL0     C30166   9.009   8.852   0.478 -0.3863 -0.5295  0.1409
  224MOL0     C30167   9.014   8.960   0.371 -0.4574  0.9067  0.0520
  224MOL0     C30168   9.152   9.003   0.310  0.1455  1.2293  0.0073
  224MOL0     C30169   9.166   9.141   0.275 -0.0935 -0.0243 -0.6756
  224MOL0     C30170   9.195   9.252   0.241  0.2843 -0.0422 -0.1461
  224MOL0     C30171   9.252   8.821   0.838  0.2560 -0.9733  1.2769
  224MOL0     C30172   9.302   8.817   0.964 -0.4894 -1.4892 -0.7944
  224MOL0     H30173   9.487   8.625   1.366  0.2666 -0.4713  1.2722
  224MOL0     H30174   9.607   8.614   1.571 -1.6058  0.7102  2.4608
  224MOL0     H30175   9.783   8.657   1.767 -0.5394  1.6233  1.7225
  224MOL0     H30176   9.839   8.709   1.608  0.3182  0.0284  0.2901
  224MOL0     H30177   9.922   8.911   1.753  0.8384 -0.2372 -1.6659
  224MOL0     H30178   9.898   8.782   1.884 -0.9668  3.1473 -0.4097
  224MOL0     H30179  10.081   8.647   1.748 -1.4161  1.2284  0.7760
  224MOL0     H30180  10.084   8.782   1.643 -3.2665  1.1217 -0.0516
  224MOL0     H30181  10.231   8.905   1.737 -1.2015 -0.5086 -1.9847
  224MOL0     H30182  10.167   8.875   1.904  0.8683  1.3354 -0.9629
  224MOL0     H30183  10.279   8.634   1.798 -0.5970  1.3715 -3.0031
  224MOL0     H30184  10.398   8.771   1.776  0.7676  0.0986  1.8647
  224MOL0     H30185  10.372   8.851   2.000  1.2659 -0.5188  0.9546
  224MOL0     H30186  10.254   8.724   2.035 -1.3027 -0.0506 -2.0641
  224MOL0     H30187  10.493   8.686   2.138  0.0984  2.2671  0.4206
  224MOL0     H30188  10.419   8.557   2.024  0.0300  0.0643 -0.4293
  224MOL0     H30189  10.653   8.730   1.953 -1.8214  1.0376  1.6179
  224MOL0     H30190  10.546   8.624   1.845  0.2517 -0.4088 -0.2503
  224MOL0     H30191  10.667   8.539   2.198 -0.6099  2.8564 -1.9647
  224MOL0     H30192  10.811   8.352   2.337 -0.5515  1.3387 -0.7837
  224MOL0     H30193  10.823   8.218   2.222  1.7984 -0.2183 -3.0500
  224MOL0     H30194  11.037   8.429   2.294  1.8153 -0.5764  0.4267
  224MOL0     H30195  11.054   8.321   2.153  0.2859 -1.2928  1.1949
  224MOL0     H30196  11.063   8.130   2.253  2.2356 -0.1341 -0.0385
  224MOL0     H30197  11.017   8.185   2.419  3.6352 -0.6753  1.9737
  224MOL0     H30198  11.266   8.262   2.268  2.9174 -0.4492  1.6199
  224MOL0     H30199  11.271   8.133   2.392  2.1383  1.6090  1.5801
  224MOL0     H30200  11.395   8.151   2.584 -1.1947  2.2895 -3.2333
  224MOL0     H30201  11.481   8.018   2.735  1.8921 -0.0008  1.0679
  224MOL0     H30202  11.495   8.074   2.898  1.3909  3.2664 -3.1029
  224MOL0     H30203  11.383   7.941   2.854  0.9936  0.0973  0.0932
  224MOL0     H30204  11.237   8.258   3.273  1.1572 -0.1619  1.3180
  224MOL0     H30205  11.178   8.180   3.503  0.7787 -2.3041  0.8432
  224MOL0     H30206  11.144   7.762   3.537 -2.8686  0.9930  1.7469
  224MOL0     H30207  11.300   7.731   3.615 -1.4878 -2.1646 -1.3518
  224MOL0     H30208  11.083   7.861   3.763  0.2993  0.4644 -1.8319
  224MOL0     H30209  11.071   7.678   3.740  3.7241 -2.1809  1.0068
  224MOL0     H30210  11.310   7.812   3.874  0.6934 -0.7480 -0.8528
  224MOL0     H30211  11.287   7.640   3.838  1.1475 -0.2551  1.2916
  224MOL0     H30212  11.226   7.764   4.066 -1.0201  0.9675  0.2585
  224MOL0     H30213  11.081   7.802   3.987  0.2638  1.7151  1.7246
  224MOL0     H30214  11.187   7.518   4.054  1.1347  1.2192 -1.0372
  224MOL0     H30215  11.088   7.535   3.926  1.6337  1.3903 -1.1223
  224MOL0     H30216  10.984   7.602   4.206 -2.3448  0.3782  1.5921
  224MOL0     H30217  10.908   7.682   4.072  1.3866  1.8245  4.6997
  224MOL0     H30218  10.933   7.403   4.125  1.1654  1.2749  1.3257
  224MOL0     H30219  10.884   7.432   3.953 -0.2825 -2.6231  0.1859
  224MOL0     H30220  10.735   7.540   4.199 -1.7243 -1.9883  1.3340
  224MOL0     H30221  10.703   7.390   4.108  0.2122 -0.8026 -3.8219
  224MOL0     H30222  11.341   7.791   3.403  2.8166  0.5032 -2.2538
  224MOL0     H30223  11.331   7.844   3.166 -1.9090  1.0053 -0.4380
  224MOL0     H30224  11.044   8.344   2.872  2.0152  0.4982  2.5352
  224MOL0     H30225  11.086   8.444   2.659  0.9734  0.4162  1.2942
  224MOL0     H30226   9.614   9.038   1.586  0.8495 -0.5475  0.8177
  224MOL0     H30227   9.486   9.062   1.402  2.4269  1.2080  2.9434
  224MOL0     H30228   9.218   9.138   1.057 -0.4619 -0.3584  0.5928
  224MOL0     H30229   9.143   9.148   0.825  1.7646 -0.2464 -1.2639
  224MOL0     H30230   9.001   8.834   0.691  1.0049 -0.1618  1.6795
  224MOL0     H30231   8.961   8.996   0.629 -1.0658 -1.4837  0.4693
  224MOL0     H30232   8.910   8.806   0.483  0.0722 -1.6135 -0.4960
  224MOL0     H30233   9.079   8.774   0.448  0.8496  1.0232 -1.2128
  224MOL0     H30234   8.969   9.047   0.421 -0.0620  1.7114 -0.9449
  224MOL0     H30235   8.950   8.931   0.287  0.6002  0.8879 -0.7648
  224MOL0     H30236   9.185   8.951   0.220  3.6166  1.3291  1.0712
  224MOL0     H30237   9.220   8.976   0.391 -1.1780 -0.5628  0.5909
  224MOL0     H30238   9.235   9.350   0.228  4.4186 -1.3833  0.8294
  224MOL0     H30239   9.264   8.738   0.770 -1.3336  0.3178 -0.7029
  224MOL0     H30240   9.333   8.721   1.005  0.4735 -0.4193  1.1219
  225MOL0     O30241   5.439   5.846   6.046 -0.1392 -0.1819  0.6330
  225MOL0     C30242   5.355   5.758   6.029  0.0181  0.0956  0.0530
  225MOL0     O30243   5.259   5.743   5.930 -0.9979  0.2408  1.0821
  225MOL0     C30244   5.292   5.798   5.804 -1.3199  0.0712 -0.0730
  225MOL0     C30245   5.226   5.916   5.765  0.0366  0.6756 -0.1709
  225MOL0     C30246   5.237   5.956   5.629 -0.5222 -0.2714 -0.4538
  225MOL0     C30247   5.339   5.900   5.544 -0.4500  0.4859  0.5906
  225MOL0     O30248   5.373   5.955   5.423  0.0157 -0.4057  0.1143
  225MOL0     C30249   5.434   6.082   5.431  0.1942  0.3350  0.5520
  225MOL0     C30250   5.445   6.134   5.290  0.1965 -0.0710 -1.0071
  225MOL0     C30251   5.506   6.277   5.276 -0.2233 -0.3596  0.2976
  225MOL0     C30252   5.609   6.272   5.165  0.9691  0.8303  0.9581
  225MOL0     C30253   5.547   6.219   5.031  0.6967  1.1873 -0.4342
  225MOL0     C30254   5.636   6.224   4.915 -0.8400 -0.6124  0.2730
  225MOL0     C30255   5.767   6.143   4.948 -0.0778 -0.1506 -0.1349
  225MOL0     C30256   5.867   6.121   4.835  0.0426  0.3365  0.2061
  225MOL0     N30257   5.900   6.243   4.760 -0.0099 -0.4182  0.1880
  225MOL0     C30258   5.834   6.291   4.649  0.0285  0.5302 -0.3562
  225MOL0     C30259   5.907   6.385   4.603 -0.2653 -0.5354  0.9820
  225MOL0     C30260   5.875   6.463   4.477 -0.7543  0.6475 -0.5676
  225MOL0     C30261   5.773   6.566   4.508 -0.3794 -0.7135  0.5647
  225MOL0     C30262   5.695   6.605   4.370 -0.0641 -0.0856 -0.1617
  225MOL0     C30263   5.582   6.696   4.423 -0.9863  0.0734  0.2396
  225MOL0     O30264   5.494   6.741   4.323  0.0751 -0.2104 -0.1522
  225MOL0     C30265   5.375   6.812   4.377 -1.0516 -0.0332 -0.1338
  225MOL0     C30266   5.287   6.864   4.283  0.2852 -0.7793 -0.4885
  225MOL0     C30267   5.170   6.935   4.319 -0.5621 -0.4802 -0.4624
  225MOL0     C30268   5.092   6.988   4.197 -0.3834 -0.6916 -0.2398
  225MOL0     C30269   5.131   6.954   4.457 -0.7182  0.2251 -0.9489
  225MOL0     C30270   5.012   7.031   4.491  0.0189 -0.4216 -0.6466
  225MOL0     O30271   5.003   7.062   4.628 -0.5255  0.4963  0.6613
  225MOL0     C30272   4.900   7.107   4.709 -0.2040 -0.1827  0.4724
  225MOL0     C30273   4.820   7.212   4.667  0.1220  0.0969 -0.6917
  225MOL0     C30274   4.725   7.279   4.758 -0.1924 -0.7270 -0.8885
  225MOL0     C30275   4.719   7.243   4.893  0.2348  0.1638  1.4214
  225MOL0     O30276   4.627   7.295   4.964 -0.2068  0.6753  0.2336
  225MOL0     C30277   4.658   7.327   5.094  0.3614  0.8786 -0.2411
  225MOL0     C30278   4.585   7.455   5.130  0.3147  0.1161 -1.5370
  225MOL0     C30279   4.632   7.504   5.261 -0.6777  0.3512  0.0425
  225MOL0     C30280   4.529   7.619   5.294  0.3280  0.1292 -1.1132
  225MOL0     C30281   4.538   7.666   5.442 -0.7540 -0.5065 -0.2031
  225MOL0     C30282   4.439   7.781   5.473 -0.4905  1.0103 -0.0889
  225MOL0     C30283   4.292   7.737   5.459 -0.3868 -0.0105  0.4660
  225MOL0     C30284   4.203   7.844   5.524 -0.1729  0.3189 -0.1586
  225MOL0    Cl30285   4.272   8.008   5.565 -0.0712 -0.3876 -0.2052
  225MOL0     C30286   4.808   7.147   4.943  0.4021  0.0781 -0.2222
  225MOL0     C30287   4.890   7.077   4.852  0.3603  0.0744  0.5879
  225MOL0     O30288   4.924   7.054   4.408 -0.6524  0.3947 -0.8915
  225MOL0     C30289   5.217   6.897   4.548 -0.0702 -0.1557 -0.0025
  225MOL0     C30290   5.336   6.827   4.513 -0.3906  0.6485  0.0279
  225MOL0     N30291   6.015   6.399   4.684 -0.1728  0.3078  0.5115
  225MOL0     N30292   6.006   6.319   4.781 -0.4847  0.1968  0.2547
  225MOL0     C30293   5.420   5.800   5.599  0.0658 -0.1831  0.3759
  225MOL0     C30294   5.390   5.748   5.724 -0.2175 -0.2052 -0.0848
  225MOL0     C30295   5.336   5.653   6.143  0.3597 -0.4644 -0.8065
  225MOL0     C30296   5.210   5.592   6.159 -0.2191 -0.0499 -0.2525
  225MOL0     C30297   5.181   5.515   6.270 -0.6504 -0.1199 -0.5750
  225MOL0     C30298   5.289   5.490   6.364  0.2894  0.2664  0.9432
  225MOL0     O30299   5.277   5.404   6.474 -0.4519 -0.0685  0.5204
  225MOL0     C30300   5.156   5.375   6.545 -0.2414 -0.0628  0.5135
  225MOL0     C30301   5.115   5.497   6.624  0.1844 -0.5524  0.2695
  225MOL0     C30302   4.974   5.487   6.693  0.4350  0.0030  0.8495
  225MOL0     C30303   4.945   5.605   6.795  0.0473 -0.1407  0.3599
  225MOL0     C30304   4.926   5.726   6.708  0.8469  0.2203 -0.5601
  225MOL0     C30305   4.889   5.836   6.659 -0.4964  0.2304 -0.1413
  225MOL0     C30306   5.415   5.542   6.338 -0.9031  0.1854 -0.8768
  225MOL0     C30307   5.438   5.641   6.242  0.6552  0.1437 -0.5432
  225MOL0     H30308   5.161   5.969   5.833  0.1944  1.1230 -0.3692
  225MOL0     H30309   5.186   6.047   5.597  1.4033  0.4647 -1.5948
  225MOL0     H30310   5.363   6.154   5.474  0.7687  0.2850  1.6296
  225MOL0     H30311   5.524   6.080   5.493 -0.8926  0.1792  2.1893
  225MOL0     H30312   5.508   6.062   5.236  0.1099 -0.5633 -0.4653
  225MOL0     H30313   5.348   6.135   5.239  0.9383  3.0074 -2.5946
  225MOL0     H30314   5.425   6.344   5.246 -1.2599 -1.9245 -0.5452
  225MOL0     H30315   5.541   6.307   5.375  0.5332 -0.8842  0.1958
  225MOL0     H30316   5.653   6.371   5.151  1.2473  0.3995 -1.7002
  225MOL0     H30317   5.691   6.212   5.206  0.9363 -0.3894 -0.6473
  225MOL0     H30318   5.520   6.114   5.038 -1.3639  1.5870 -1.4427
  225MOL0     H30319   5.462   6.282   5.001  1.3129  1.0762 -2.5969
  225MOL0     H30320   5.592   6.169   4.831 -1.5388 -2.6629  1.8947
  225MOL0     H30321   5.680   6.321   4.892  1.6238 -2.3730 -3.5998
  225MOL0     H30322   5.822   6.196   5.026  1.3235 -3.0676  1.0140
  225MOL0     H30323   5.730   6.047   4.987 -0.8485  0.2763  0.1993
  225MOL0     H30324   5.815   6.058   4.761 -1.7643  0.0711  1.6312
  225MOL0     H30325   5.955   6.073   4.879  0.2339  2.2035  1.9515
  225MOL0     H30326   5.742   6.264   4.599  1.5083  1.3669 -3.9163
  225MOL0     H30327   5.964   6.505   4.430  0.9037 -2.9302 -0.9453
  225MOL0     H30328   5.834   6.387   4.410 -0.2840  1.2912 -1.5921
  225MOL0     H30329   5.816   6.657   4.552 -2.9321  0.6014  0.5185
  225MOL0     H30330   5.701   6.528   4.581 -3.6221  0.9909 -1.4697
  225MOL0     H30331   5.662   6.509   4.329 -1.4419 -0.3068  1.3723
  225MOL0     H30332   5.769   6.663   4.314 -1.9914  2.2127 -0.4561
  225MOL0     H30333   5.617   6.775   4.489 -1.8904  0.2642  0.5163
  225MOL0     H30334   5.521   6.634   4.489 -1.2711  0.2270  0.1233
  225MOL0     H30335   5.305   6.846   4.178 -1.5284 -1.8194 -0.6628
  225MOL0     H30336   5.058   7.089   4.223  2.8603  0.8328 -1.4277
  225MOL0     H30337   5.143   6.983   4.101  3.1298 -1.0431  1.4781
  225MOL0     H30338   5.012   6.913   4.195  0.2492 -1.3775 -0.2603
  225MOL0     H30339   4.814   7.236   4.562 -4.8174 -3.0020 -1.4492
  225MOL0     H30340   4.657   7.354   4.720 -0.2687 -1.2742 -1.8396
  225MOL0     H30341   4.621   7.252   5.164  0.0819  1.2685  0.0285
  225MOL0     H30342   4.762   7.352   5.114  0.3003  3.1929 -2.2887
  225MOL0     H30343   4.579   7.531   5.051  1.1717  0.2120 -1.5124
  225MOL0     H30344   4.482   7.422   5.147  0.6247  0.5409  1.7452
  225MOL0     H30345   4.731   7.551   5.258 -1.6744  2.5101 -2.6580
  225MOL0     H30346   4.622   7.414   5.323  4.1136 -3.6142 -4.0487
  225MOL0     H30347   4.546   7.697   5.220  1.1047  0.7795 -0.2661
  225MOL0     H30348   4.430   7.577   5.277  0.4783  0.8328 -4.4133
  225MOL0     H30349   4.640   7.701   5.456 -1.8857  3.8545 -1.2717
  225MOL0     H30350   4.519   7.589   5.518  1.0288  1.7630  2.7658
  225MOL0     H30351   4.465   7.811   5.575  1.4667 -2.1821  0.5050
  225MOL0     H30352   4.451   7.864   5.402 -4.3705 -1.4224 -4.0696
  225MOL0     H30353   4.268   7.651   5.523 -4.9116  1.1279  0.6775
  225MOL0     H30354   4.258   7.713   5.358  0.7262  0.3704 -0.0028
  225MOL0     H30355   4.158   7.808   5.617  1.3698 -0.6248  0.2458
  225MOL0     H30356   4.128   7.861   5.446  0.3898 -1.0221 -1.0260
  225MOL0     H30357   4.817   7.121   5.048  2.1879 -2.2784 -0.8702
  225MOL0     H30358   4.967   7.009   4.889  1.9835  0.0507 -2.5458
  225MOL0     H30359   5.219   6.915   4.655  3.0766 -1.7199  0.3037
  225MOL0     H30360   5.395   6.802   4.600 -0.0349  1.2289 -0.0402
  225MOL0     H30361   5.484   5.750   5.526 -1.2350 -1.7721  0.2681
  225MOL0     H30362   5.446   5.660   5.755 -2.9095 -0.8572  3.6699
  225MOL0     H30363   5.132   5.617   6.088  0.3681  2.4984 -0.1124
  225MOL0     H30364   5.088   5.463   6.289 -1.1791  0.8196 -0.5499
  225MOL0     H30365   5.071   5.361   6.476 -1.1327  1.4627  1.2590
  225MOL0     H30366   5.166   5.294   6.618 -1.2046 -0.7368 -0.0728
  225MOL0     H30367   5.106   5.586   6.561 -4.2680 -1.3932 -0.6599
  225MOL0     H30368   5.189   5.513   6.702 -0.2569 -2.2524  1.0762
  225MOL0     H30369   4.972   5.389   6.742  3.1006  0.7879  2.7452
  225MOL0     H30370   4.898   5.487   6.614  1.4550 -2.7976 -0.2797
  225MOL0     H30371   5.024   5.622   6.869 -2.2952 -2.5636  3.7196
  225MOL0     H30372   4.847   5.595   6.843 -1.0668 -1.1087 -1.9476
  225MOL0     H30373   4.859   5.937   6.638 -2.3449  0.0761  1.5133
  225MOL0     H30374   5.493   5.514   6.407 -1.0719 -0.7057 -1.0386
  225MOL0     H30375   5.534   5.685   6.219  1.5299 -0.4315  1.7036
  226MOL0     O30376   7.239   8.533   0.336 -0.9345 -0.4986 -0.0566
  226MOL0     C30377   7.132   8.553   0.388  0.0724  0.5889 -0.1740
  226MOL0     O30378   7.022   8.472   0.372 -0.1772 -0.1993  0.1378
  226MOL0     C30379   7.012   8.416   0.250 -0.3492  0.5045 -0.6225
  226MOL0     C30380   7.011   8.489   0.134  0.9228  0.3558 -0.2304
  226MOL0     C30381   6.995   8.415   0.013 -0.3431 -0.8500 -0.2679
  226MOL0     C30382   6.984   8.275   0.008 -0.0884 -0.0297 -0.1059
  226MOL0     O30383   6.953   8.223  -0.112  0.3359  0.2584  0.2862
  226MOL0     C30384   7.060   8.220  -0.210 -0.6685  0.0731 -0.0034
  226MOL0     C30385   7.060   8.074  -0.252 -0.1797 -0.2847  0.1940
  226MOL0     C30386   6.953   8.056  -0.360  0.8996 -0.1026  1.1032
  226MOL0     C30387   6.982   7.927  -0.449 -0.0345 -0.6996 -0.4335
  226MOL0     C30388   6.896   7.923  -0.580  0.1924  0.3308 -1.1415
  226MOL0     C30389   6.950   8.005  -0.695  0.3659  0.2979 -1.0486
  226MOL0     C30390   6.859   8.012  -0.815 -0.3560 -0.1900  0.1123
  226MOL0     C30391   6.922   8.079  -0.938  0.4354 -0.3512 -0.5238
  226MOL0     N30392   6.821   8.098  -1.041 -0.7182  0.3069 -0.3623
  226MOL0     C30393   6.736   8.207  -1.042 -0.4601 -0.4549  0.0367
  226MOL0     C30394   6.657   8.199  -1.155 -0.1609 -0.1025  0.3855
  226MOL0     C30395   6.558   8.289  -1.226 -0.1947 -0.2226  0.6905
  226MOL0     C30396   6.581   8.438  -1.206  0.3076  0.4857  0.3371
  226MOL0     C30397   6.690   8.487  -1.295  0.1594 -0.2614 -0.1076
  226MOL0     C30398   6.738   8.631  -1.252  1.0162  0.2583  0.6404
  226MOL0     O30399   6.767   8.642  -1.118 -0.6367 -0.2567  0.0214
  226MOL0     C30400   6.863   8.571  -1.061 -0.1811  0.5252  0.1744
  226MOL0     C30401   6.842   8.551  -0.926 -0.3560  0.1746 -0.8508
  226MOL0     C30402   6.932   8.483  -0.850 -1.2081  0.0041  0.5450
  226MOL0     C30403   6.897   8.440  -0.717  0.1295 -0.1329  0.2419
  226MOL0     C30404   7.054   8.431  -0.903  0.0486 -0.5238 -0.2397
  226MOL0     C30405   7.163   8.391  -0.817 -0.4159 -0.2416  0.0662
  226MOL0     O30406   7.209   8.488  -0.727  0.0192 -0.9183  0.2707
  226MOL0     C30407   7.303   8.451  -0.638 -0.4793 -0.0749 -0.5177
  226MOL0     C30408   7.418   8.533  -0.614 -0.8404 -0.1502  0.1995
  226MOL0     C30409   7.492   8.522  -0.488  0.2558 -0.7505 -0.7016
  226MOL0     C30410   7.463   8.435  -0.387  0.9284  0.0789 -0.9844
  226MOL0     O30411   7.537   8.441  -0.269  0.1768  0.1318  0.0383
  226MOL0     C30412   7.457   8.465  -0.160 -0.1927 -0.4200 -0.5252
  226MOL0     C30413   7.545   8.472  -0.034  0.1334 -0.1228  0.9106
  226MOL0     C30414   7.569   8.621   0.019 -0.1425  1.2657 -0.2955
  226MOL0     C30415   7.462   8.661   0.126  0.3441  0.3471  0.1300
  226MOL0     C30416   7.463   8.814   0.152  0.5130 -0.6097  0.0023
  226MOL0     C30417   7.334   8.870   0.220  0.8565 -0.7595 -0.5660
  226MOL0     C30418   7.340   9.020   0.272 -0.0660  0.0952  1.1578
  226MOL0     C30419   7.462   9.044   0.351 -0.1193  0.1351 -0.0772
  226MOL0    Cl30420   7.473   8.948   0.509 -0.2005  0.0592  0.2196
  226MOL0     C30421   7.347   8.352  -0.412  0.2378 -0.5121 -0.2385
  226MOL0     C30422   7.275   8.349  -0.531 -0.1314  0.7287 -0.7330
  226MOL0     O30423   7.208   8.279  -0.840  0.3084 -0.4580 -0.3461
  226MOL0     C30424   7.069   8.438  -1.040 -0.0688  0.3038 -0.1562
  226MOL0     C30425   6.971   8.503  -1.116  1.0726  0.2700 -0.0095
  226MOL0     N30426   6.710   8.081  -1.215  0.4418  0.6869 -0.7673
  226MOL0     N30427   6.801   8.018  -1.144 -0.1791 -0.6095  0.5948
  226MOL0     C30428   6.994   8.202   0.126 -0.4985 -0.1374 -0.5406
  226MOL0     C30429   7.000   8.276   0.247 -0.2527 -0.8999  0.8270
  226MOL0     C30430   7.096   8.665   0.472  0.1810 -1.1234  0.2938
  226MOL0     C30431   6.971   8.733   0.456 -1.3276  0.2527  0.6964
  226MOL0     C30432   6.944   8.846   0.524  0.3510 -0.0470 -0.4272
  226MOL0     C30433   7.045   8.908   0.602  0.4342  0.5559  0.7797
  226MOL0     O30434   7.016   9.014   0.680 -0.0862 -0.4518 -1.0371
  226MOL0     C30435   7.117   9.100   0.730 -0.3762 -0.4752 -0.6804
  226MOL0     C30436   7.050   9.232   0.779  0.8248  0.0764 -0.4841
  226MOL0     C30437   6.957   9.299   0.678 -0.4233 -0.0318  0.0292
  226MOL0     C30438   6.887   9.415   0.737 -0.0262  0.0373  0.5443
  226MOL0     C30439   6.794   9.461   0.639  0.5788  0.8760 -0.6146
  226MOL0     C30440   6.704   9.481   0.556  0.5080 -0.0234 -0.8757
  226MOL0     C30441   7.170   8.844   0.616  0.5400 -0.2638  0.5430
  226MOL0     C30442   7.195   8.730   0.542  0.3332 -0.0104  0.3313
  226MOL0     H30443   7.030   8.596   0.134  0.4381  0.4451 -0.6600
  226MOL0     H30444   6.988   8.469  -0.081 -0.8230 -1.8066 -0.8039
  226MOL0     H30445   7.037   8.284  -0.296  1.0767  1.5801  0.5786
  226MOL0     H30446   7.155   8.256  -0.167 -0.1565  1.1853 -1.9169
  226MOL0     H30447   7.160   8.045  -0.284  0.9616  2.6866  0.7294
  226MOL0     H30448   7.039   8.018  -0.160  0.0558  0.4990  0.7371
  226MOL0     H30449   6.852   8.053  -0.319  0.9977 -4.1333  1.4724
  226MOL0     H30450   6.958   8.138  -0.432 -0.3325  0.3102  1.4653
  226MOL0     H30451   7.089   7.916  -0.473 -0.3323 -0.0670 -2.2240
  226MOL0     H30452   6.948   7.842  -0.390  0.2938 -0.2974  0.3434
  226MOL0     H30453   6.895   7.817  -0.607 -0.8557  0.0328  0.0207
  226MOL0     H30454   6.793   7.943  -0.551  0.2060 -0.6841 -0.3411
  226MOL0     H30455   6.988   8.100  -0.658  2.1705  0.3397 -2.8395
  226MOL0     H30456   7.044   7.955  -0.720  1.1697 -1.0688  3.6323
  226MOL0     H30457   6.825   7.912  -0.845 -1.5771 -0.2340  1.4976
  226MOL0     H30458   6.771   8.072  -0.789  0.3920  0.4085  1.3347
  226MOL0     H30459   7.000   8.013  -0.977 -2.7801 -3.6291 -1.8907
  226MOL0     H30460   6.966   8.176  -0.912  1.4292 -0.4505 -1.7648
  226MOL0     H30461   6.720   8.290  -0.973 -2.5103 -1.3090  0.6756
  226MOL0     H30462   6.546   8.263  -1.331  0.4152 -1.6144  0.9504
  226MOL0     H30463   6.459   8.275  -1.181  0.3433 -0.4323  1.8541
  226MOL0     H30464   6.596   8.456  -1.100  0.8738  1.1953  0.1472
  226MOL0     H30465   6.496   8.501  -1.236  0.0980 -0.8436 -2.1913
  226MOL0     H30466   6.671   8.495  -1.402  3.3158 -2.4956 -0.9728
  226MOL0     H30467   6.775   8.419  -1.285  0.6558  0.6759  5.2369
  226MOL0     H30468   6.657   8.699  -1.281 -0.3866 -2.0986 -1.4448
  226MOL0     H30469   6.823   8.657  -1.317 -0.3165  0.3246 -1.1452
  226MOL0     H30470   6.756   8.586  -0.869 -2.3883  2.7785 -4.9526
  226MOL0     H30471   6.830   8.516  -0.676 -2.7552 -1.0638 -2.3888
  226MOL0     H30472   6.837   8.348  -0.726 -0.5973  0.3932 -0.3877
  226MOL0     H30473   6.983   8.426  -0.650  0.0073  2.9758  1.1872
  226MOL0     H30474   7.450   8.598  -0.694 -1.2712 -0.9496 -0.6494
  226MOL0     H30475   7.569   8.598  -0.475  2.0134 -2.1910 -2.0856
  226MOL0     H30476   7.394   8.555  -0.153 -0.5655 -0.7709  5.0491
  226MOL0     H30477   7.388   8.381  -0.157 -0.8286 -0.0333 -2.6504
  226MOL0     H30478   7.495   8.407   0.038  0.0575 -1.8635 -0.6488
  226MOL0     H30479   7.637   8.419  -0.062 -0.3685 -1.2558  1.3535
  226MOL0     H30480   7.561   8.687  -0.068  1.9116  0.8841 -0.8490
  226MOL0     H30481   7.671   8.635   0.058 -1.1014 -0.0309  3.0623
  226MOL0     H30482   7.366   8.636   0.079  0.8188 -0.5974 -0.3802
  226MOL0     H30483   7.477   8.600   0.215 -1.6420 -3.3047 -1.7955
  226MOL0     H30484   7.483   8.858   0.054  1.2003 -3.5339 -1.2915
  226MOL0     H30485   7.547   8.832   0.219  1.7888 -0.6901 -1.5425
  226MOL0     H30486   7.256   8.872   0.142  3.1541  2.7672 -3.0837
  226MOL0     H30487   7.313   8.811   0.310 -0.7489 -0.4473 -0.7030
  226MOL0     H30488   7.255   9.035   0.338  0.8108  0.6829  2.1856
  226MOL0     H30489   7.320   9.091   0.191  0.8890  1.3922  2.0202
  226MOL0     H30490   7.468   9.152   0.370  2.1144 -0.2886  2.1579
  226MOL0     H30491   7.551   9.026   0.290 -0.5165 -2.3462 -0.0398
  226MOL0     H30492   7.315   8.286  -0.332 -1.4402  0.4497 -0.0544
  226MOL0     H30493   7.189   8.283  -0.535  0.0180  0.5266 -0.6054
  226MOL0     H30494   7.151   8.394  -1.096  0.9313  0.5929  1.0191
  226MOL0     H30495   6.981   8.494  -1.224  1.8937 -0.7967  0.1336
  226MOL0     H30496   6.992   8.095   0.140 -3.3382 -0.0523  0.2621
  226MOL0     H30497   6.978   8.222   0.338 -1.3995  0.3086  1.3081
  226MOL0     H30498   6.896   8.678   0.399 -0.1600 -2.7072  1.8272
  226MOL0     H30499   6.845   8.891   0.527  0.8912  1.2666  3.6791
  226MOL0     H30500   7.178   9.054   0.809  1.5289  2.5089 -0.2681
  226MOL0     H30501   7.192   9.115   0.652  3.0751  2.5588  2.7528
  226MOL0     H30502   7.127   9.298   0.820  0.4775 -0.8382  1.7527
  226MOL0     H30503   6.993   9.203   0.867  1.2948  0.8410  0.0846
  226MOL0     H30504   6.882   9.230   0.639 -1.3266  0.2667  1.1743
  226MOL0     H30505   7.016   9.332   0.592 -2.1467  0.8142 -0.8792
  226MOL0     H30506   6.957   9.496   0.759  0.4995  1.1947 -4.2287
  226MOL0     H30507   6.842   9.377   0.829  1.1400  2.5153  2.2574
  226MOL0     H30508   6.619   9.502   0.494  1.5468  1.8243 -1.7638
  226MOL0     H30509   7.257   8.886   0.664  0.2976  1.0472 -0.1395
  226MOL0     H30510   7.300   8.703   0.531  0.4521 -0.3492  1.9922
  227MOL0     O30511   0.924   7.849   6.207 -0.3296 -0.5579  0.1719
  227MOL0     C30512   0.906   7.880   6.326 -0.0832 -0.5604  0.3858
  227MOL0     O30513   0.806   7.834   6.403  0.2680 -0.2514 -0.4387
  227MOL0     C30514   0.714   7.752   6.346  0.0223  0.6578  0.0135
  227MOL0     C30515   0.749   7.619   6.298  0.6615 -1.2224  0.6225
  227MOL0     C30516   0.635   7.542   6.264 -0.3908  1.3254  0.2486
  227MOL0     C30517   0.503   7.585   6.288 -1.1104 -1.3112  0.8720
  227MOL0     O30518   0.405   7.497   6.254 -0.3786  0.6542 -0.1831
  227MOL0     C30519   0.296   7.483   6.347  0.0801 -0.1438  0.0271
  227MOL0     C30520   0.206   7.379   6.282  0.6405  1.0119  0.1141
  227MOL0     C30521   0.232   7.229   6.326  0.2806 -0.2254  0.0548
  227MOL0     C30522   0.100   7.153   6.315  0.0996  0.1046  0.9188
  227MOL0     C30523   0.135   7.008   6.334 -0.9593  0.2998 -0.0080
  227MOL0     C30524   0.005   6.921   6.331  0.0185 -0.9717  0.1388
  227MOL0     C30525  -0.063   6.926   6.464 -0.3657  0.3804 -0.7263
  227MOL0     C30526   0.013   6.909   6.593  0.1117 -0.3877  0.2348
  227MOL0     N30527  -0.066   6.895   6.716 -0.0268  0.0282 -0.2827
  227MOL0     C30528  -0.176   6.969   6.741 -0.5080  0.3047 -0.0810
  227MOL0     C30529  -0.226   6.903   6.853  0.3039 -1.3851 -0.0637
  227MOL0     C30530  -0.359   6.930   6.894  0.1185 -0.3305 -1.0160
  227MOL0     C30531  -0.473   6.870   6.804  0.8293  0.0828  0.0314
  227MOL0     C30532  -0.608   6.905   6.871  0.4873 -0.4396 -0.5532
  227MOL0     C30533  -0.645   7.057   6.875  0.8225  1.0319  0.2081
  227MOL0     O30534  -0.632   7.121   6.749  0.3039 -0.1114 -0.1169
  227MOL0     C30535  -0.722   7.113   6.652  0.5652  0.1078 -0.4668
  227MOL0     C30536  -0.690   7.174   6.533 -0.6760  0.4320  0.1735
  227MOL0     C30537  -0.772   7.160   6.417 -0.0363 -0.1142  0.6341
  227MOL0     C30538  -0.723   7.205   6.289  0.6567  0.2780 -0.0570
  227MOL0     C30539  -0.899   7.100   6.426  0.4453 -0.4045 -0.7956
  227MOL0     C30540  -1.013   7.100   6.325  0.4522  0.6205  1.1467
  227MOL0     O30541  -1.122   7.014   6.356 -0.0055 -0.1485 -0.0393
  227MOL0     C30542  -1.237   7.036   6.294  0.3558  0.1619 -1.0532
  227MOL0     C30543  -1.334   7.116   6.357 -0.2063  0.0136  0.5745
  227MOL0     C30544  -1.438   7.165   6.277  0.4905  0.3229 -0.3440
  227MOL0     C30545  -1.459   7.123   6.141  0.8771  0.8342 -0.0486
  227MOL0     O30546  -1.567   7.177   6.077 -0.4203 -0.4096 -0.6178
  227MOL0     C30547  -1.655   7.075   6.011 -0.6263  0.3156 -0.7086
  227MOL0     C30548  -1.781   7.135   5.963  0.2362 -0.3199  0.0267
  227MOL0     C30549  -1.881   7.191   6.065  0.2283 -0.8182 -0.3485
  227MOL0     C30550  -1.850   7.324   6.138 -0.2604 -0.5564  0.6706
  227MOL0     C30551  -1.971   7.360   6.230 -0.1925 -0.5710 -0.8147
  227MOL0     C30552  -1.920   7.471   6.318  0.1863 -0.6894 -0.4357
  227MOL0     C30553  -2.025   7.527   6.423  0.9131  0.6116 -0.3604
  227MOL0     C30554  -1.970   7.638   6.511  0.0356 -0.2648 -0.1419
  227MOL0    Cl30555  -1.814   7.598   6.569  0.1501  0.2871  0.2890
  227MOL0     C30556  -1.369   7.030   6.090  0.6856  0.8673  0.6450
  227MOL0     C30557  -1.257   6.995   6.162 -0.7929  0.6601 -0.9732
  227MOL0     O30558  -1.020   7.182   6.241 -0.3159 -0.2430 -0.0415
  227MOL0     C30559  -0.932   7.050   6.547  0.4495 -0.3096 -0.3118
  227MOL0     C30560  -0.853   7.058   6.660 -0.6645  0.1508 -0.7851
  227MOL0     N30561  -0.145   6.789   6.880  0.1403 -0.0556 -0.3492
  227MOL0     N30562  -0.047   6.792   6.798 -0.3988 -0.1462  0.3552
  227MOL0     C30563   0.473   7.716   6.331 -0.4691  1.3654 -0.0654
  227MOL0     C30564   0.579   7.794   6.367 -0.3812  0.1709  0.2893
  227MOL0     C30565   1.019   7.939   6.398 -0.2609  0.0355 -0.0571
  227MOL0     C30566   1.121   8.003   6.319  0.3898  0.8488  0.7088
  227MOL0     C30567   1.228   8.062   6.381 -0.0569  0.2847 -0.2907
  227MOL0     C30568   1.233   8.058   6.523 -1.1597 -0.7803 -0.7575
  227MOL0     O30569   1.341   8.133   6.578  0.1062 -0.8382  0.7438
  227MOL0     C30570   1.363   8.120   6.718 -0.5658 -0.3862  0.2994
  227MOL0     C30571   1.289   8.222   6.796 -0.9638  0.1167 -0.7094
  227MOL0     C30572   1.266   8.352   6.731 -0.0570  0.5116  0.6699
  227MOL0     C30573   1.184   8.448   6.822  0.2670  1.0751 -1.2510
  227MOL0     C30574   1.256   8.568   6.875 -0.1590  0.1372  0.3197
  227MOL0     C30575   1.310   8.652   6.938  0.0845  0.5793 -1.7871
  227MOL0     C30576   1.139   7.989   6.601 -0.2042 -0.2207  0.2360
  227MOL0     C30577   1.034   7.924   6.534 -0.3965 -0.1136  0.4667
  227MOL0     H30578   0.843   7.570   6.278  0.1752 -1.2657 -1.9459
  227MOL0     H30579   0.653   7.441   6.231 -3.0125 -0.5732  3.9107
  227MOL0     H30580   0.332   7.455   6.446  0.3002  4.3425  1.4484
  227MOL0     H30581   0.239   7.576   6.360 -2.6422 -1.8904  1.4150
  227MOL0     H30582   0.102   7.407   6.305  0.1849 -0.2402 -0.3167
  227MOL0     H30583   0.226   7.368   6.175  4.1519 -0.9256  0.8162
  227MOL0     H30584   0.313   7.188   6.266  0.0416  1.5099 -1.5567
  227MOL0     H30585   0.248   7.225   6.434 -2.1949 -2.8962  0.4384
  227MOL0     H30586   0.027   7.185   6.391 -0.9489  2.1071 -0.8069
  227MOL0     H30587   0.062   7.168   6.214  1.3953  1.5973  0.6227
  227MOL0     H30588   0.193   6.996   6.243  0.3876  3.1255  0.3813
  227MOL0     H30589   0.207   6.991   6.414  2.2320  0.6015 -2.6046
  227MOL0     H30590  -0.070   6.950   6.258 -1.7509 -2.1163  1.4227
  227MOL0     H30591   0.035   6.815   6.328 -2.0546 -1.5771 -0.7289
  227MOL0     H30592  -0.124   7.016   6.467 -1.6217 -0.3944 -1.9254
  227MOL0     H30593  -0.139   6.847   6.472  2.4667 -2.3802  3.1407
  227MOL0     H30594   0.070   7.002   6.606  1.3888 -0.6890 -2.4578
  227MOL0     H30595   0.093   6.834   6.594  4.6276  3.8690  2.3909
  227MOL0     H30596  -0.212   7.053   6.683  2.3668 -0.9178 -3.9996
  227MOL0     H30597  -0.351   6.886   6.994 -0.8584  0.5951 -0.5064
  227MOL0     H30598  -0.377   7.038   6.907  0.8527  0.0108 -2.6312
  227MOL0     H30599  -0.448   6.765   6.791  2.5721  0.6552 -1.6230
  227MOL0     H30600  -0.464   6.920   6.707  0.0536 -0.5602 -0.3790
  227MOL0     H30601  -0.610   6.862   6.972  5.9114 -1.7868 -0.7093
  227MOL0     H30602  -0.681   6.846   6.814  0.5532 -2.7571  1.5756
  227MOL0     H30603  -0.578   7.104   6.948  0.4341 -2.8004  3.3394
  227MOL0     H30604  -0.749   7.070   6.908  0.5047 -1.6079  0.4321
  227MOL0     H30605  -0.595   7.226   6.531 -0.4811  0.0772  0.0885
  227MOL0     H30606  -0.777   7.296   6.261  2.1769  1.0426 -0.6624
  227MOL0     H30607  -0.618   7.236   6.293  0.9276 -0.2872 -1.6332
  227MOL0     H30608  -0.750   7.131   6.212 -2.7493  0.4010  0.8635
  227MOL0     H30609  -1.331   7.153   6.459 -3.8809  2.0386  0.1234
  227MOL0     H30610  -1.514   7.238   6.303  0.7227  0.9424 -1.3419
  227MOL0     H30611  -1.600   7.024   5.931  1.8327 -2.8334  2.6674
  227MOL0     H30612  -1.697   6.994   6.070 -0.4905 -0.7460 -2.0205
  227MOL0     H30613  -1.746   7.213   5.895  3.5031 -0.8346  0.9057
  227MOL0     H30614  -1.835   7.064   5.900 -0.0776 -0.6094  0.6137
  227MOL0     H30615  -1.892   7.109   6.136 -0.5744 -2.9369 -2.7637
  227MOL0     H30616  -1.979   7.204   6.017  1.2019  1.0502 -2.0186
  227MOL0     H30617  -1.757   7.320   6.196  0.8037  4.1558 -0.3283
  227MOL0     H30618  -1.828   7.411   6.076  1.0145 -0.1190  1.6934
  227MOL0     H30619  -1.998   7.272   6.290 -0.6597 -0.9506 -1.5625
  227MOL0     H30620  -2.054   7.394   6.167  0.1838 -1.0646 -1.5798
  227MOL0     H30621  -1.835   7.439   6.379  0.0413  1.5058  1.0224
  227MOL0     H30622  -1.892   7.561   6.262  0.9039 -0.9215 -0.4585
  227MOL0     H30623  -2.061   7.452   6.493 -0.9332 -0.2066 -2.0949
  227MOL0     H30624  -2.116   7.554   6.368 -1.0159 -1.7462  1.4777
  227MOL0     H30625  -2.036   7.649   6.597 -0.9802  2.0140 -1.1255
  227MOL0     H30626  -1.957   7.727   6.448  2.0365 -2.4108 -3.0019
  227MOL0     H30627  -1.369   6.993   5.988  1.1728 -2.7049  1.8019
  227MOL0     H30628  -1.175   6.931   6.129  0.0278  1.2419 -0.1414
  227MOL0     H30629  -1.019   6.985   6.557 -0.3058  0.5423 -1.0963
  227MOL0     H30630  -0.907   7.023   6.747 -3.4240 -0.6949 -2.7133
  227MOL0     H30631   0.372   7.744   6.357 -0.1896  1.3639  1.1000
  227MOL0     H30632   0.558   7.887   6.419 -0.6682  0.6542 -0.6839
  227MOL0     H30633   1.130   8.015   6.212  2.5669  2.2762  0.9890
  227MOL0     H30634   1.298   8.120   6.321 -0.8220  3.9178  2.0417
  227MOL0     H30635   1.351   8.019   6.760  0.7908 -0.5960  0.2454
  227MOL0     H30636   1.471   8.133   6.728 -0.5147 -2.3049  3.5082
  227MOL0     H30637   1.346   8.238   6.888 -0.5714  0.7472 -1.0576
  227MOL0     H30638   1.190   8.181   6.822  0.4588 -1.4920  2.8837
  227MOL0     H30639   1.210   8.344   6.637 -0.3886  0.8940  0.8313
  227MOL0     H30640   1.362   8.388   6.693  0.2565 -1.4291 -0.5006
  227MOL0     H30641   1.145   8.392   6.907  1.7421 -0.3423 -1.4464
  227MOL0     H30642   1.104   8.486   6.758 -1.4501 -2.2124 -1.2578
  227MOL0     H30643   1.351   8.728   7.001  2.1588 -0.1731 -2.1199
  227MOL0     H30644   1.137   7.986   6.709  0.0263 -0.9848  0.2195
  227MOL0     H30645   0.959   7.877   6.597 -0.0022 -0.5284  0.6290
  228MOL0     O30646   1.597   3.603   5.365  0.2624  0.2640 -0.6259
  228MOL0     C30647   1.648   3.585   5.475 -0.5197 -0.1122  0.2154
  228MOL0     O30648   1.731   3.673   5.533 -0.2431 -0.1867 -0.2220
  228MOL0     C30649   1.798   3.665   5.650  0.3341  0.5742  0.6708
  228MOL0     C30650   1.731   3.608   5.756 -0.3361  0.3571 -0.2649
  228MOL0     C30651   1.801   3.613   5.886 -0.7562  0.1181  0.2842
  228MOL0     C30652   1.926   3.661   5.899  0.6063  0.4916  0.9396
  228MOL0     O30653   2.001   3.646   6.007 -0.9972  0.0149 -0.4573
  228MOL0     C30654   1.956   3.723   6.126 -0.2113  0.6480 -0.1933
  228MOL0     C30655   2.081   3.742   6.213  0.3888 -0.5450 -0.0624
  228MOL0     C30656   2.047   3.803   6.348 -0.2673  0.8211  0.8212
  228MOL0     C30657   2.161   3.841   6.438  0.0322  0.8099  0.6943
  228MOL0     C30658   2.281   3.746   6.443  0.4254 -0.6252  0.6938
  228MOL0     C30659   2.238   3.615   6.501  0.6581 -0.9021  1.1139
  228MOL0     C30660   2.353   3.508   6.497 -0.7940 -0.5940 -0.8124
  228MOL0     C30661   2.293   3.370   6.521 -0.3527  0.1936 -1.1054
  228MOL0     N30662   2.257   3.341   6.660  0.3110  0.0903 -0.4743
  228MOL0     C30663   2.148   3.394   6.717 -0.7493  0.1915  0.1929
  228MOL0     C30664   2.152   3.355   6.849 -0.3981  0.0168  0.2051
  228MOL0     C30665   2.047   3.397   6.945 -0.2143  0.4537  0.9373
  228MOL0     C30666   1.995   3.275   7.011 -0.0537  0.1330  0.6159
  228MOL0     C30667   1.938   3.175   6.914 -0.1539 -0.3285 -0.4422
  228MOL0     C30668   1.858   3.071   6.981  0.1748 -0.3026 -0.7667
  228MOL0     O30669   1.779   3.002   6.885 -0.1070  0.0797 -0.1975
  228MOL0     C30670   1.762   2.867   6.881 -0.7670  0.0027  0.5204
  228MOL0     C30671   1.805   2.777   6.979 -0.7460  1.0031 -0.3867
  228MOL0     C30672   1.789   2.630   6.960  0.5825 -0.5372  0.3272
  228MOL0     C30673   1.806   2.541   7.086 -0.1834 -0.6831 -0.1138
  228MOL0     C30674   1.725   2.591   6.837 -0.3415  0.0928 -0.0954
  228MOL0     C30675   1.676   2.454   6.806  1.0157 -0.1352  0.4368
  228MOL0     O30676   1.678   2.406   6.675  0.4210  0.0223  0.5218
  228MOL0     C30677   1.672   2.274   6.646  0.3525  0.2594 -0.5813
  228MOL0     C30678   1.769   2.173   6.694  0.2344 -0.8245 -1.0401
  228MOL0     C30679   1.755   2.043   6.652 -0.7228  0.5017 -1.4345
  228MOL0     C30680   1.668   2.010   6.546 -0.5603  1.5132  0.4430
  228MOL0     O30681   1.657   1.884   6.496 -0.2888 -0.7661  0.3778
  228MOL0     C30682   1.743   1.776   6.532  0.3245 -0.5124 -0.9290
  228MOL0     C30683   1.722   1.656   6.433  0.5403  0.3481 -0.2580
  228MOL0     C30684   1.816   1.536   6.444  0.3786  0.5532  0.3477
  228MOL0     C30685   1.956   1.569   6.487  0.2561  0.6248  0.0050
  228MOL0     C30686   2.050   1.444   6.467 -0.9261  0.2916  0.2541
  228MOL0     C30687   2.045   1.336   6.571 -1.1333  0.4060 -0.0448
  228MOL0     C30688   2.154   1.232   6.538  0.0993  0.7691  0.3228
  228MOL0     C30689   2.291   1.280   6.573  0.0737 -0.2343 -0.2162
  228MOL0    Cl30690   2.371   1.365   6.433  0.5482  0.2006 -0.3866
  228MOL0     C30691   1.570   2.098   6.505  0.9868  0.1106  0.0880
  228MOL0     C30692   1.588   2.232   6.542  0.2966 -0.0136  1.0040
  228MOL0     O30693   1.644   2.384   6.903  0.2809 -0.1391 -0.1038
  228MOL0     C30694   1.700   2.683   6.734 -0.0008 -0.3330 -0.1460
  228MOL0     C30695   1.709   2.824   6.765  0.8545  0.0730 -0.9781
  228MOL0     N30696   2.276   3.295   6.866 -0.0739 -0.1818  0.3959
  228MOL0     N30697   2.332   3.278   6.754  0.0092  0.2500  0.2324
  228MOL0     C30698   1.986   3.716   5.786 -0.5974 -0.8703  0.2556
  228MOL0     C30699   1.922   3.723   5.667 -0.0707  0.1797 -0.2919
  228MOL0     C30700   1.642   3.439   5.513 -0.2606 -0.2834  0.2165
  228MOL0     C30701   1.513   3.369   5.499 -0.2362 -0.7110 -0.4110
  228MOL0     C30702   1.493   3.240   5.534 -0.6448 -0.2653  0.3386
  228MOL0     C30703   1.606   3.169   5.586 -0.1322  0.1727  0.8364
  228MOL0     O30704   1.605   3.041   5.616  0.1827 -0.0647 -0.1617
  228MOL0     C30705   1.475   2.977   5.621 -0.4905  0.0561  0.1985
  228MOL0     C30706   1.500   2.829   5.669 -0.7211 -0.3746  0.1015
  228MOL0     C30707   1.403   2.729   5.611 -0.4132 -0.0967 -0.6216
  228MOL0     C30708   1.465   2.596   5.552 -0.1753  0.1651 -0.0531
  228MOL0     C30709   1.564   2.610   5.448 -0.1247 -0.7750  0.4875
  228MOL0     C30710   1.665   2.625   5.381 -0.8092 -0.2546 -0.0101
  228MOL0     C30711   1.729   3.224   5.592  0.0475 -0.1649  0.3384
  228MOL0     C30712   1.746   3.357   5.554 -0.0174  0.4408 -0.4043
  228MOL0     H30713   1.637   3.553   5.751  0.3548 -0.9898  0.6422
  228MOL0     H30714   1.762   3.554   5.969 -3.4643  0.7762 -0.4150
  228MOL0     H30715   1.925   3.823   6.093 -1.3053  0.3685 -0.0495
  228MOL0     H30716   1.879   3.678   6.188  2.4198 -1.0147  2.0901
  228MOL0     H30717   2.128   3.646   6.235 -2.5609 -1.3508  3.9533
  228MOL0     H30718   2.153   3.809   6.166  0.5662  2.1940  3.7138
  228MOL0     H30719   1.977   3.885   6.328 -4.3032 -2.7610 -1.8118
  228MOL0     H30720   1.995   3.726   6.405 -1.7387  0.0407 -1.4165
  228MOL0     H30721   2.183   3.944   6.410 -3.2046  1.0893 -1.3000
  228MOL0     H30722   2.113   3.839   6.537 -1.6199  0.3995 -0.0860
  228MOL0     H30723   2.317   3.737   6.340 -3.1844 -0.8479 -0.7018
  228MOL0     H30724   2.361   3.787   6.506  0.8604  0.0051 -0.2462
  228MOL0     H30725   2.196   3.633   6.600 -2.7049  0.3460 -0.4200
  228MOL0     H30726   2.155   3.573   6.443 -2.7057  3.1935  2.4946
  228MOL0     H30727   2.411   3.507   6.405  1.4805  1.1166  0.4997
  228MOL0     H30728   2.418   3.524   6.584 -0.0704 -4.3650 -0.4841
  228MOL0     H30729   2.377   3.310   6.486  1.0794  1.6411 -0.3133
  228MOL0     H30730   2.203   3.338   6.468  0.4215 -0.7190 -1.8955
  228MOL0     H30731   2.070   3.449   6.665 -1.6482  3.6190  4.5515
  228MOL0     H30732   2.091   3.449   7.031 -0.5921  1.2417  0.6659
  228MOL0     H30733   1.963   3.457   6.909  0.4140  2.4013  2.4922
  228MOL0     H30734   1.912   3.309   7.072 -1.1410 -2.4534  0.6959
  228MOL0     H30735   2.071   3.224   7.071  0.3728 -2.9634 -2.2313
  228MOL0     H30736   2.018   3.128   6.855 -0.4993 -0.7129 -0.6112
  228MOL0     H30737   1.878   3.229   6.840 -2.2574 -2.8361 -0.7082
  228MOL0     H30738   1.788   3.114   7.053  1.1874  0.1219 -0.0221
  228MOL0     H30739   1.929   3.010   7.038  2.5539  2.1317 -0.9616
  228MOL0     H30740   1.833   2.820   7.075  0.9895 -0.6031 -0.1097
  228MOL0     H30741   1.884   2.466   7.077  2.8559  2.4206 -2.4758
  228MOL0     H30742   1.836   2.605   7.170  0.8452 -2.7649  1.1958
  228MOL0     H30743   1.712   2.500   7.125  0.2162 -1.8786 -0.3910
  228MOL0     H30744   1.839   2.201   6.772 -0.2530  1.5887 -1.3786
  228MOL0     H30745   1.830   1.975   6.691 -1.8101 -0.0884 -0.2510
  228MOL0     H30746   1.846   1.812   6.522  0.7524 -1.9736 -1.9886
  228MOL0     H30747   1.717   1.754   6.636  2.4659 -1.4345 -0.5305
  228MOL0     H30748   1.627   1.612   6.463  0.4314  3.0543  4.2558
  228MOL0     H30749   1.714   1.685   6.328  1.5418 -0.0400 -0.4561
  228MOL0     H30750   1.812   1.490   6.345 -1.6591  2.4768 -0.5617
  228MOL0     H30751   1.785   1.462   6.519  0.6170  0.9486  0.8434
  228MOL0     H30752   2.000   1.653   6.433 -1.9470  0.7054 -1.8224
  228MOL0     H30753   1.965   1.595   6.593  1.3355 -1.2578  0.4131
  228MOL0     H30754   2.148   1.493   6.460 -3.0029  4.6837 -2.8429
  228MOL0     H30755   2.032   1.414   6.364 -3.3562  3.1903 -0.2923
  228MOL0     H30756   2.059   1.381   6.669 -1.7495 -0.3645  0.4117
  228MOL0     H30757   1.944   1.296   6.559 -1.1904  1.0169 -1.9337
  228MOL0     H30758   2.129   1.208   6.434 -1.5883  0.5020  0.7604
  228MOL0     H30759   2.130   1.140   6.593  1.3517  1.3677  1.9294
  228MOL0     H30760   2.340   1.184   6.587  3.0518  1.0321 -1.1327
  228MOL0     H30761   2.295   1.341   6.664 -0.4146  0.0070 -0.3551
  228MOL0     H30762   1.499   2.070   6.428 -2.2589  3.6205  1.4721
  228MOL0     H30763   1.534   2.306   6.485  1.2887  0.1145  0.1935
  228MOL0     H30764   1.658   2.653   6.639 -1.6990 -0.4850  0.6116
  228MOL0     H30765   1.680   2.886   6.680 -1.4219 -0.7148 -0.8314
  228MOL0     H30766   2.089   3.750   5.789 -0.3829 -1.2575 -1.8280
  228MOL0     H30767   1.975   3.749   5.576 -0.2784  0.9730 -0.2000
  228MOL0     H30768   1.434   3.440   5.480  1.0608  0.5185 -1.4576
  228MOL0     H30769   1.400   3.188   5.511  0.0905 -1.0702 -0.9901
  228MOL0     H30770   1.409   3.014   5.701 -4.3821 -0.2538 -2.5861
  228MOL0     H30771   1.423   2.979   5.525 -3.5482 -0.2714  1.7349
  228MOL0     H30772   1.506   2.825   5.778 -2.0475 -3.1749  0.1453
  228MOL0     H30773   1.598   2.805   5.627 -0.1358  3.5834 -1.2984
  228MOL0     H30774   1.346   2.785   5.536  2.0392  0.6136 -2.0873
  228MOL0     H30775   1.352   2.691   5.700  3.4461 -1.4139  1.2771
  228MOL0     H30776   1.389   2.534   5.504 -1.2377  1.5095 -0.1684
  228MOL0     H30777   1.506   2.536   5.633 -0.7292 -2.6961 -1.7442
  228MOL0     H30778   1.755   2.646   5.326 -1.7486 -0.1419 -1.5744
  228MOL0     H30779   1.818   3.172   5.624 -0.0803 -0.4180  0.2861
  228MOL0     H30780   1.848   3.386   5.576  1.4580 -2.5870 -2.6075
  229MOL0     O30781   4.230   1.515   0.154 -0.4364  0.8805  0.6153
  229MOL0     C30782   4.115   1.529   0.176 -0.4407  0.1220 -0.9270
  229MOL0     O30783   4.021   1.520   0.088 -0.0273  0.4401 -0.3493
  229MOL0     C30784   4.028   1.451  -0.034  0.0166  0.9793  0.9554
  229MOL0     C30785   4.132   1.419  -0.111  0.2977  0.5038  0.3286
  229MOL0     C30786   4.119   1.351  -0.237  0.3050  0.2160 -0.4822
  229MOL0     C30787   3.989   1.310  -0.283 -0.7388 -0.0054 -0.4685
  229MOL0     O30788   3.983   1.234  -0.405  0.5454  0.2623  0.3410
  229MOL0     C30789   3.852   1.212  -0.466 -0.3301  0.4007 -0.3139
  229MOL0     C30790   3.855   1.160  -0.609 -0.7726  0.6576  0.8828
  229MOL0     C30791   3.723   1.178  -0.686 -0.3942 -0.7105 -0.5996
  229MOL0     C30792   3.715   1.108  -0.827 -0.4321  1.6083  0.1458
  229MOL0     C30793   3.578   1.101  -0.894 -0.9475 -0.1870  0.1741
  229MOL0     C30794   3.518   1.246  -0.891 -0.2642 -0.1134  0.2249
  229MOL0     C30795   3.419   1.257  -1.008 -0.2164 -0.1287 -0.4108
  229MOL0     C30796   3.362   1.391  -1.032 -0.0389  0.0071  0.3137
  229MOL0     N30797   3.468   1.481  -1.059 -0.9391 -0.7201  0.8706
  229MOL0     C30798   3.506   1.566  -0.961  0.9191 -0.2503  0.3536
  229MOL0     C30799   3.548   1.675  -1.022 -0.6393 -0.0179 -0.4342
  229MOL0     C30800   3.624   1.795  -0.956  0.2445  0.6486  0.1189
  229MOL0     C30801   3.752   1.840  -1.023  0.4593  0.2188  0.1742
  229MOL0     C30802   3.864   1.728  -1.026 -0.3077  0.3884  0.0826
  229MOL0     C30803   3.894   1.651  -0.908  0.5845  0.2735 -0.7287
  229MOL0     O30804   4.009   1.570  -0.931  0.0716  0.7845  0.3647
  229MOL0     C30805   4.012   1.463  -1.004  0.3131 -0.4092  0.0830
  229MOL0     C30806   3.901   1.409  -1.072  0.1141 -0.1906 -0.5180
  229MOL0     C30807   3.912   1.293  -1.158 -0.2435 -0.2833 -0.2800
  229MOL0     C30808   3.779   1.240  -1.220 -0.1560  0.3167  0.3518
  229MOL0     C30809   4.035   1.227  -1.165 -0.4263  0.0292 -0.2630
  229MOL0     C30810   4.066   1.106  -1.235 -0.2322  0.2415  0.2672
  229MOL0     O30811   4.136   1.016  -1.173 -0.3677 -0.4155 -0.4491
  229MOL0     C30812   4.151   0.888  -1.226  0.1959  0.0179 -0.0791
  229MOL0     C30813   4.279   0.866  -1.265 -0.2056  0.7970  1.1161
  229MOL0     C30814   4.316   0.750  -1.345 -0.1596  0.4580 -0.3582
  229MOL0     C30815   4.210   0.659  -1.367  0.4356  0.4156 -0.8579
  229MOL0     O30816   4.214   0.535  -1.411 -0.3413 -0.3018  0.0208
  229MOL0     C30817   4.347   0.473  -1.408  0.2278  0.0454 -0.0698
  229MOL0     C30818   4.337   0.326  -1.467  0.4269  0.7069  0.3706
  229MOL0     C30819   4.229   0.226  -1.393  0.0526 -0.3234 -0.1024
  229MOL0     C30820   4.208   0.105  -1.477 -0.9551 -0.4133  0.0107
  229MOL0     C30821   4.096   0.005  -1.447 -0.2018 -0.9349 -0.2795
  229MOL0     C30822   4.122  -0.054  -1.311 -1.1152 -0.8701 -0.2621
  229MOL0     C30823   4.014  -0.156  -1.274  0.2435 -1.2852 -0.8032
  229MOL0     C30824   3.926  -0.106  -1.164 -0.0460  0.4904 -0.7151
  229MOL0    Cl30825   3.970  -0.191  -1.008  0.1010  0.1961 -0.0577
  229MOL0     C30826   4.077   0.694  -1.320  0.1854  0.3298 -0.5293
  229MOL0     C30827   4.048   0.808  -1.263  0.1018  0.2154  0.8418
  229MOL0     O30828   4.023   1.097  -1.352 -0.0102 -0.3300  0.3314
  229MOL0     C30829   4.147   1.292  -1.107  0.4895 -0.2445 -1.7948
  229MOL0     C30830   4.135   1.404  -1.015  1.1851  0.6104 -0.1122
  229MOL0     N30831   3.552   1.649  -1.160 -0.2766  0.2787 -0.1551
  229MOL0     N30832   3.496   1.533  -1.180  0.5590  0.0040  0.7250
  229MOL0     C30833   3.874   1.340  -0.204 -0.1784 -0.1545  1.1546
  229MOL0     C30834   3.893   1.416  -0.085 -0.9278 -0.3474  0.2642
  229MOL0     C30835   4.077   1.598   0.307 -0.1585 -0.0870  0.4717
  229MOL0     C30836   3.945   1.603   0.334  0.3665 -0.7107  0.3085
  229MOL0     C30837   3.901   1.667   0.448  0.8050  0.4521  0.1727
  229MOL0     C30838   3.990   1.717   0.549  1.2462 -0.8784  0.7182
  229MOL0     O30839   3.947   1.797   0.656  0.7878  0.6894 -0.4106
  229MOL0     C30840   3.825   1.753   0.719  0.2110 -0.0450 -0.0648
  229MOL0     C30841   3.703   1.826   0.657 -0.1248  0.6620 -0.4814
  229MOL0     C30842   3.707   1.971   0.642 -0.0359  0.6923 -0.0491
  229MOL0     C30843   3.690   2.057   0.773  0.3342  0.2236 -0.1454
  229MOL0     C30844   3.814   2.065   0.847 -0.0791  0.8220 -0.1737
  229MOL0     C30845   3.913   2.073   0.916 -0.4895  0.0125  0.9306
  229MOL0     C30846   4.129   1.708   0.515  0.4554  0.0270 -0.6545
  229MOL0     C30847   4.169   1.647   0.398 -0.2332  0.3746  0.2885
  229MOL0     H30848   4.223   1.443  -0.057  0.9817 -0.1396 -0.5074
  229MOL0     H30849   4.205   1.320  -0.296 -0.5069 -1.5162 -0.8286
  229MOL0     H30850   3.796   1.145  -0.400 -0.9167 -0.8453 -2.0021
  229MOL0     H30851   3.806   1.311  -0.465 -0.5062  0.3285  1.1577
  229MOL0     H30852   3.923   1.231  -0.657 -1.7285  1.5781  0.8305
  229MOL0     H30853   3.892   1.058  -0.624 -2.0594  0.4815 -1.5095
  229MOL0     H30854   3.650   1.147  -0.611  1.7278 -3.5208  0.4614
  229MOL0     H30855   3.719   1.286  -0.702 -0.4538 -0.5248  0.6194
  229MOL0     H30856   3.798   1.139  -0.891 -1.1523  1.1408 -1.0348
  229MOL0     H30857   3.749   1.005  -0.816 -1.7567  1.0331 -0.8873
  229MOL0     H30858   3.581   1.071  -0.999  0.3123  0.1664  0.0986
  229MOL0     H30859   3.510   1.031  -0.844 -1.6533 -2.9883 -4.1663
  229MOL0     H30860   3.472   1.258  -0.793 -2.7805 -1.3292 -0.7272
  229MOL0     H30861   3.597   1.319  -0.909  0.2533 -0.9122 -0.9312
  229MOL0     H30862   3.472   1.231  -1.101  2.4190  1.5902  0.4896
  229MOL0     H30863   3.337   1.191  -0.980 -0.4018  0.4878  0.5211
  229MOL0     H30864   3.301   1.412  -0.943  0.2108  0.4706  0.3752
  229MOL0     H30865   3.292   1.380  -1.115 -0.2485 -0.0990  0.5035
  229MOL0     H30866   3.493   1.564  -0.853 -1.8225  1.3892  0.1488
  229MOL0     H30867   3.556   1.880  -0.942 -0.3851  0.1824 -0.0402
  229MOL0     H30868   3.656   1.757  -0.859  1.8758 -4.0109 -1.9481
  229MOL0     H30869   3.781   1.921  -0.956  0.3230  0.5095 -0.1139
  229MOL0     H30870   3.725   1.874  -1.123 -0.8051  2.9987  1.3382
  229MOL0     H30871   3.950   1.790  -1.051 -1.4883  1.7668 -0.7193
  229MOL0     H30872   3.844   1.658  -1.108  2.7368 -0.5098 -0.0215
  229MOL0     H30873   3.805   1.592  -0.883 -2.1782  4.5376  0.7108
  229MOL0     H30874   3.902   1.713  -0.818  0.2114 -1.9647  0.9525
  229MOL0     H30875   3.800   1.437  -1.043  0.4221 -1.3826  1.8930
  229MOL0     H30876   3.692   1.306  -1.206 -0.5227 -0.6948  3.9771
  229MOL0     H30877   3.804   1.220  -1.324  4.9084  1.8073  1.0248
  229MOL0     H30878   3.756   1.152  -1.160 -0.0843 -0.3676 -0.6074
  229MOL0     H30879   4.359   0.934  -1.240  2.4303 -0.3774 -3.1099
  229MOL0     H30880   4.418   0.736  -1.377  1.2148 -0.1834  3.6400
  229MOL0     H30881   4.423   0.520  -1.470  2.3054 -1.8180  0.8999
  229MOL0     H30882   4.388   0.475  -1.306  1.5127  0.6303 -0.5753
  229MOL0     H30883   4.298   0.341  -1.568  0.3273  0.9787  0.4495
  229MOL0     H30884   4.436   0.279  -1.479  1.1484  1.2542  3.4831
  229MOL0     H30885   4.135   0.279  -1.378  1.3648  2.0773  0.2232
  229MOL0     H30886   4.262   0.196  -1.294  0.4723  1.2087  0.2532
  229MOL0     H30887   4.196   0.130  -1.583  0.0222 -0.5097 -0.1326
  229MOL0     H30888   4.309   0.062  -1.470  0.6102  2.7434 -1.1947
  229MOL0     H30889   4.093  -0.070  -1.527  1.9020 -0.1494 -1.1739
  229MOL0     H30890   4.005   0.064  -1.432  1.4242  0.9690  3.1013
  229MOL0     H30891   4.217  -0.107  -1.318  0.6160  2.1656 -1.7170
  229MOL0     H30892   4.131   0.024  -1.235 -1.8320  0.6956 -1.7185
  229MOL0     H30893   4.062  -0.237  -1.217 -0.8607 -0.2296  1.7943
  229MOL0     H30894   3.951  -0.193  -1.355 -0.8390 -1.4627  0.0926
  229MOL0     H30895   3.823  -0.143  -1.167  0.5111 -1.0932 -1.1350
  229MOL0     H30896   3.919   0.003  -1.158 -2.3907  0.4956 -2.4516
  229MOL0     H30897   4.001   0.617  -1.326 -1.7343  1.8897  1.9530
  229MOL0     H30898   3.945   0.827  -1.233 -1.0084 -4.0720  0.4331
  229MOL0     H30899   4.249   1.254  -1.103  1.4044  2.1162  0.4673
  229MOL0     H30900   4.225   1.426  -0.958  1.6246 -3.2854  0.9946
  229MOL0     H30901   3.774   1.314  -0.237  1.1591 -1.3363 -2.4880
  229MOL0     H30902   3.817   1.438  -0.011 -1.1644 -2.7885  0.8171
  229MOL0     H30903   3.877   1.570   0.256  1.8793 -0.4066 -1.2231
  229MOL0     H30904   3.794   1.681   0.460  0.9240  0.6451  1.0433
  229MOL0     H30905   3.815   1.647   0.743 -1.2795 -0.4263 -2.0711
  229MOL0     H30906   3.834   1.796   0.820 -2.4480  1.2862 -0.2940
  229MOL0     H30907   3.623   1.801   0.728 -2.4951 -1.9627 -3.7166
  229MOL0     H30908   3.657   1.775   0.571  0.0545 -1.0081  0.3696
  229MOL0     H30909   3.641   2.005   0.561  0.4124  0.1249 -0.6689
  229MOL0     H30910   3.805   2.005   0.607 -0.2566  1.9688  0.5100
  229MOL0     H30911   3.619   2.005   0.838  1.0959  1.0886  1.4559
  229MOL0     H30912   3.648   2.156   0.752  0.4642 -0.2952 -3.3094
  229MOL0     H30913   4.008   2.087   0.963 -0.9069  2.2368  1.2064
  229MOL0     H30914   4.201   1.750   0.584 -0.6879 -0.6992  1.0641
  229MOL0     H30915   4.276   1.629   0.391 -0.1016  0.6972  1.3326
  230MOL0     O30916   0.634   8.962   8.015  0.5119 -0.3764 -0.0285
  230MOL0     C30917   0.609   8.891   7.912 -0.0848  0.9802 -0.0545
  230MOL0     O30918   0.688   8.795   7.868 -1.0902 -0.8062 -0.0187
  230MOL0     C30919   0.806   8.786   7.932 -0.3953 -0.4750 -0.5447
  230MOL0     C30920   0.937   8.827   7.884  0.4313  0.0892  0.1481
  230MOL0     C30921   1.054   8.786   7.946  0.5124  0.1110  0.4457
  230MOL0     C30922   1.046   8.724   8.068  0.7585 -0.2852  0.5251
  230MOL0     O30923   1.151   8.663   8.136  0.5516 -0.0636 -0.1078
  230MOL0     C30924   1.293   8.679   8.098 -0.5884 -0.2314  0.3463
  230MOL0     C30925   1.332   8.812   8.152  0.6229  1.5776 -0.0321
  230MOL0     C30926   1.487   8.851   8.162 -0.0783  0.2362  0.2832
  230MOL0     C30927   1.506   9.000   8.152 -0.3878  0.3439  0.1906
  230MOL0     C30928   1.637   9.049   8.206 -0.3357 -0.3838 -0.4571
  230MOL0     C30929   1.751   9.018   8.116  0.5569  0.5206  0.7194
  230MOL0     C30930   1.891   9.063   8.168 -0.2356  0.5299  0.0642
  230MOL0     C30931   1.918   9.214   8.196  0.1614 -0.0849  0.2803
  230MOL0     N30932   1.915   9.284   8.063  1.0098 -0.5396 -0.1156
  230MOL0     C30933   2.011   9.284   7.963 -0.1887 -0.4682  0.1547
  230MOL0     C30934   1.985   9.385   7.881  0.9637 -1.1979 -0.7440
  230MOL0     C30935   2.055   9.421   7.754 -0.0891 -0.1735  0.0075
  230MOL0     C30936   2.101   9.569   7.762 -0.0422 -0.0268  0.1311
  230MOL0     C30937   2.215   9.617   7.677  0.6226 -0.9058  0.6189
  230MOL0     C30938   2.191   9.615   7.527  0.5287 -0.2576  0.1583
  230MOL0     O30939   2.169   9.480   7.488 -0.6825  0.6065 -0.3530
  230MOL0     C30940   2.083   9.454   7.383  0.7162  0.1207  0.5094
  230MOL0     C30941   2.055   9.550   7.284  0.9479 -0.5950  0.1728
  230MOL0     C30942   1.972   9.519   7.171 -0.1470  0.0146 -0.1188
  230MOL0     C30943   1.949   9.629   7.057 -0.7609  0.0359  0.0426
  230MOL0     C30944   1.902   9.396   7.175  1.0191 -0.0982  0.8150
  230MOL0     C30945   1.810   9.357   7.067 -0.8128 -0.1348 -0.8143
  230MOL0     O30946   1.865   9.336   6.943  0.0633  0.0709 -0.0289
  230MOL0     C30947   1.788   9.289   6.842  0.2402  1.0386 -0.6189
  230MOL0     C30948   1.771   9.349   6.719 -0.3232 -0.2858  0.8665
  230MOL0     C30949   1.707   9.286   6.615 -0.3566 -0.7659 -0.3184
  230MOL0     C30950   1.644   9.162   6.638  0.5156  0.1584 -0.4912
  230MOL0     O30951   1.594   9.096   6.533  0.1165 -0.0858 -0.2898
  230MOL0     C30952   1.552   8.959   6.531  0.3919  0.3374  0.1501
  230MOL0     C30953   1.492   8.926   6.396  0.9873  0.4817  0.1265
  230MOL0     C30954   1.419   8.789   6.411 -0.6202 -0.1918 -0.6114
  230MOL0     C30955   1.327   8.761   6.289 -0.2593  0.2298 -0.1951
  230MOL0     C30956   1.258   8.621   6.308 -0.6203 -0.2916 -0.6196
  230MOL0     C30957   1.108   8.611   6.297 -0.3097  1.1744 -0.5916
  230MOL0     C30958   1.062   8.463   6.288  0.5178 -0.1397 -0.2070
  230MOL0     C30959   0.913   8.462   6.276 -0.2825 -0.2538 -0.1961
  230MOL0    Cl30960   0.883   8.283   6.240 -0.4827 -0.3074  0.3234
  230MOL0     C30961   1.652   9.113   6.766  0.5523 -0.0001  0.5333
  230MOL0     C30962   1.732   9.167   6.866 -0.7920  0.1979  0.3322
  230MOL0     O30963   1.693   9.346   7.094  0.9750  0.5861  0.3076
  230MOL0     C30964   1.923   9.307   7.276 -0.2533 -0.4947 -0.1205
  230MOL0     C30965   2.012   9.341   7.381  0.5194 -0.6668 -0.3161
  230MOL0     N30966   1.869   9.450   7.936 -0.3493 -0.0341  0.3462
  230MOL0     N30967   1.824   9.381   8.036 -1.1695 -0.2241 -0.3206
  230MOL0     C30968   0.922   8.691   8.122 -1.4116  0.2026 -0.8786
  230MOL0     C30969   0.800   8.723   8.057  0.1145  0.6796 -0.1898
  230MOL0     C30970   0.503   8.937   7.823 -0.2172 -0.5804 -0.6707
  230MOL0     C30971   0.468   8.849   7.715  0.2522 -0.0686  0.8580
  230MOL0     C30972   0.366   8.899   7.631  0.6136 -0.0494  0.3009
  230MOL0     C30973   0.303   9.026   7.639  0.2486 -0.3258 -0.7558
  230MOL0     O30974   0.190   9.070   7.578 -0.1227 -0.4086  0.0003
  230MOL0     C30975   0.125   8.992   7.477 -0.7138 -0.0519 -0.3242
  230MOL0     C30976  -0.016   8.934   7.521 -0.1388 -0.9353  0.2820
  230MOL0     C30977  -0.009   8.859   7.652  0.6608  0.8112  0.8872
  230MOL0     C30978  -0.147   8.801   7.693 -0.0270  0.2128 -0.4181
  230MOL0     C30979  -0.235   8.906   7.736 -0.1885  0.4228 -0.5407
  230MOL0     C30980  -0.310   8.997   7.774  0.3889 -0.5414 -0.2059
  230MOL0     C30981   0.344   9.108   7.743  0.6511 -0.2073 -0.4965
  230MOL0     C30982   0.453   9.073   7.826  0.1929 -0.1823  0.4511
  230MOL0     H30983   0.950   8.852   7.780  2.6578 -2.7297 -0.3619
  230MOL0     H30984   1.143   8.807   7.889 -0.9485  0.0058 -2.0193
  230MOL0     H30985   1.348   8.598   8.146  0.0249  0.7467  1.3517
  230MOL0     H30986   1.301   8.676   7.989  2.2479 -1.7805  0.4912
  230MOL0     H30987   1.294   8.886   8.081  0.7527  1.8562  0.1884
  230MOL0     H30988   1.283   8.822   8.250 -3.0306 -2.7724 -1.0797
  230MOL0     H30989   1.512   8.829   8.266  1.5220  0.4762 -0.0256
  230MOL0     H30990   1.548   8.790   8.095 -0.8403  0.2588 -0.4491
  230MOL0     H30991   1.483   9.046   8.056 -1.2503  1.2489  0.8074
  230MOL0     H30992   1.431   9.048   8.216 -2.8377 -1.2142 -1.3539
  230MOL0     H30993   1.637   9.156   8.226 -0.9945 -0.5713  0.6915
  230MOL0     H30994   1.653   9.008   8.306  1.4755 -3.9937 -2.0459
  230MOL0     H30995   1.756   8.909   8.107  0.4231  0.4238  1.7122
  230MOL0     H30996   1.732   9.046   8.013  0.9465 -3.1364 -0.4939
  230MOL0     H30997   1.914   9.009   8.260 -0.0884 -1.1639 -0.9147
  230MOL0     H30998   1.963   9.026   8.094 -3.1795 -1.2397 -2.1144
  230MOL0     H30999   2.023   9.223   8.225  0.1136  2.9617 -0.1613
  230MOL0     H31000   1.845   9.251   8.269 -3.3977 -2.6482 -1.6231
  230MOL0     H31001   2.087   9.209   7.946 -0.7245 -0.6618 -1.5873
  230MOL0     H31002   2.148   9.363   7.746 -0.4065 -0.6868  0.0197
  230MOL0     H31003   1.991   9.403   7.668  1.3516  3.3066 -2.0013
  230MOL0     H31004   2.125   9.584   7.868  3.1262 -0.1407 -0.4822
  230MOL0     H31005   2.008   9.618   7.732 -0.9646 -2.8138 -1.9701
  230MOL0     H31006   2.300   9.549   7.692  0.6015 -1.1270 -0.2489
  230MOL0     H31007   2.235   9.720   7.709 -2.0952 -0.1687  0.2053
  230MOL0     H31008   2.278   9.656   7.474  0.5104 -0.7831 -0.2865
  230MOL0     H31009   2.106   9.682   7.511  0.5497 -0.5998 -1.5905
  230MOL0     H31010   2.099   9.649   7.279 -1.8080  0.7649 -4.9873
  230MOL0     H31011   1.841   9.632   7.040 -0.2298  2.4174 -4.3908
  230MOL0     H31012   1.999   9.720   7.092  2.9632 -2.4281  1.7773
  230MOL0     H31013   1.985   9.594   6.960 -1.5643  0.5196 -0.4377
  230MOL0     H31014   1.827   9.440   6.698  1.1698 -1.3035  0.2873
  230MOL0     H31015   1.723   9.339   6.521  1.5987  2.7678  1.7673
  230MOL0     H31016   1.635   8.890   6.547 -1.0672 -1.7069 -0.6412
  230MOL0     H31017   1.474   8.940   6.605 -0.2408 -3.6920 -1.2993
  230MOL0     H31018   1.433   9.008   6.355  2.9678  1.6950 -0.3941
  230MOL0     H31019   1.565   8.909   6.316 -0.5034 -1.0762 -0.9938
  230MOL0     H31020   1.363   8.794   6.505 -1.5527 -2.6463 -0.9841
  230MOL0     H31021   1.497   8.713   6.420  1.0695  1.5691  0.5229
  230MOL0     H31022   1.252   8.840   6.281 -1.5922 -1.0716 -1.1596
  230MOL0     H31023   1.383   8.765   6.196  3.6946 -0.6395  1.9303
  230MOL0     H31024   1.282   8.580   6.406  2.0941 -2.1042 -1.9282
  230MOL0     H31025   1.306   8.560   6.231  3.1719  0.3238  1.0233
  230MOL0     H31026   1.059   8.649   6.387 -0.5932 -3.1749  1.3300
  230MOL0     H31027   1.075   8.671   6.212 -5.2087 -0.8546 -0.4379
  230MOL0     H31028   1.084   8.403   6.377  0.7314 -0.3267 -0.3828
  230MOL0     H31029   1.099   8.404   6.204  1.0129 -0.5578  0.2931
  230MOL0     H31030   0.884   8.538   6.203 -2.0660 -0.6586  0.0601
  230MOL0     H31031   0.864   8.475   6.373  0.1706 -2.6759  0.4345
  230MOL0     H31032   1.610   9.013   6.771  0.3047  0.1010  0.4692
  230MOL0     H31033   1.739   9.107   6.956 -1.3819  3.8242  3.0029
  230MOL0     H31034   1.876   9.210   7.290  3.4029 -2.1154  2.3567
  230MOL0     H31035   2.017   9.264   7.458 -1.0890 -0.6269 -0.1429
  230MOL0     H31036   0.919   8.655   8.225  0.0171 -1.0297 -1.2352
  230MOL0     H31037   0.703   8.694   8.096 -0.9407  0.6597 -2.6609
  230MOL0     H31038   0.505   8.748   7.701 -0.1630 -0.0260 -0.6657
  230MOL0     H31039   0.332   8.822   7.562  1.4416 -0.6636  0.5702
  230MOL0     H31040   0.103   9.060   7.394 -2.0855 -0.9953 -0.7705
  230MOL0     H31041   0.191   8.911   7.446 -2.0745 -3.2197  4.1323
  230MOL0     H31042  -0.055   8.864   7.446  1.4708 -2.3650  0.7107
  230MOL0     H31043  -0.080   9.020   7.541  0.6786 -0.5933  1.5104
  230MOL0     H31044   0.044   8.919   7.727 -0.2105  2.6754  0.0871
  230MOL0     H31045   0.053   8.774   7.624  0.7538  1.1958 -0.1365
  230MOL0     H31046  -0.130   8.717   7.761 -2.3274  0.0930  0.1166
  230MOL0     H31047  -0.197   8.757   7.606 -0.8938 -0.5687  0.4487
  230MOL0     H31048  -0.367   9.074   7.821  0.6774 -0.3130 -0.2230
  230MOL0     H31049   0.298   9.202   7.771  0.8804 -0.6704  1.6014
  230MOL0     H31050   0.475   9.136   7.911 -2.7629  3.5678 -1.3021
  231MOL0     O31051  11.050   4.716   0.536  0.1331  0.3050 -0.8264
  231MOL0     C31052  11.124   4.770   0.625  0.3130  0.5237  0.2596
  231MOL0     O31053  11.084   4.804   0.752  0.4690  0.5553  0.4569
  231MOL0     C31054  10.956   4.796   0.789  0.7208 -0.7116  0.1674
  231MOL0     C31055  10.926   4.887   0.894  0.0869  0.4520  0.2967
  231MOL0     C31056  10.805   4.867   0.967 -0.0512  0.4542 -0.7362
  231MOL0     C31057  10.700   4.795   0.911 -0.6349  0.7591  0.3569
  231MOL0     O31058  10.583   4.771   0.964  0.2303  1.6128  0.5206
  231MOL0     C31059  10.527   4.879   1.046 -0.0585  1.3234  1.0376
  231MOL0     C31060  10.392   4.823   1.104 -0.0183  0.0821 -0.6800
  231MOL0     C31061  10.352   4.889   1.242  0.0629  0.3496  0.3509
  231MOL0     C31062  10.229   4.829   1.319  0.3649 -0.2429  0.5323
  231MOL0     C31063  10.184   4.908   1.441 -0.8775  0.5732  0.0972
  231MOL0     C31064  10.155   5.064   1.420 -0.5148 -0.3068 -0.2950
  231MOL0     C31065  10.083   5.127   1.541  0.4693  0.3663  0.1474
  231MOL0     C31066  10.072   5.289   1.519 -0.6550  0.6318  0.6038
  231MOL0     N31067  10.021   5.352   1.644 -0.4766 -0.3956  0.1095
  231MOL0     C31068   9.894   5.337   1.690 -0.7904  0.6284 -0.0411
  231MOL0     C31069   9.884   5.400   1.804 -0.0042  0.1109  0.9653
  231MOL0     C31070   9.756   5.418   1.886  0.5310 -0.0824 -0.3431
  231MOL0     C31071   9.686   5.552   1.858  0.2969  0.2203  0.4183
  231MOL0     C31072   9.780   5.678   1.866  0.5429  0.0500 -0.5883
  231MOL0     C31073   9.689   5.793   1.890 -0.3960 -0.4162 -1.1033
  231MOL0     O31074   9.760   5.907   1.935 -0.1746  0.0371 -0.2327
  231MOL0     C31075   9.696   6.026   1.917  0.6060  0.6522 -1.2447
  231MOL0     C31076   9.567   6.048   1.978 -0.4995 -0.8837  0.9002
  231MOL0     C31077   9.514   6.179   1.973 -0.4115  0.2081 -0.0056
  231MOL0     C31078   9.394   6.214   2.060  0.1867 -0.3237 -0.4781
  231MOL0     C31079   9.574   6.270   1.891  0.2348 -0.5551 -0.1572
  231MOL0     C31080   9.522   6.410   1.877 -0.0752  1.1846  0.9772
  231MOL0     O31081   9.536   6.447   1.748  0.3208 -0.3267 -0.1186
  231MOL0     C31082   9.528   6.581   1.726 -0.3281 -0.1761  0.9760
  231MOL0     C31083   9.410   6.641   1.690  0.5681 -0.0005 -0.4790
  231MOL0     C31084   9.406   6.780   1.662 -0.2127 -0.0371  0.0452
  231MOL0     C31085   9.518   6.861   1.685 -1.1208  0.0421 -0.3436
  231MOL0     O31086   9.517   7.005   1.686  0.9527  0.3405 -0.1817
  231MOL0     C31087   9.395   7.067   1.645 -0.9822  0.4002 -0.7069
  231MOL0     C31088   9.412   7.212   1.678  0.7579 -0.1976  0.5912
  231MOL0     C31089   9.262   7.273   1.687 -0.2241  0.8984 -0.3042
  231MOL0     C31090   9.264   7.424   1.693 -0.0906  0.2276  0.3238
  231MOL0     C31091   9.127   7.490   1.694 -0.0098  0.3393  0.2712
  231MOL0     C31092   9.031   7.429   1.795 -0.3661 -0.0218  0.3325
  231MOL0     C31093   8.895   7.503   1.803 -0.0795  0.6820  0.0281
  231MOL0     C31094   8.794   7.422   1.886 -0.3172 -0.2176  0.7952
  231MOL0    Cl31095   8.850   7.420   2.052  0.4213  0.5371 -0.0745
  231MOL0     C31096   9.639   6.791   1.725 -0.8514 -1.0810  0.5766
  231MOL0     C31097   9.642   6.658   1.746 -0.7390  0.0631 -0.0174
  231MOL0     O31098   9.452   6.468   1.963  0.4534  0.1343  0.1930
  231MOL0     C31099   9.690   6.232   1.816  0.5171  0.1247 -0.4286
  231MOL0     C31100   9.757   6.121   1.846 -0.0351 -0.0114 -0.9327
  231MOL0     N31101  10.011   5.460   1.824 -0.6977 -0.3949 -0.7355
  231MOL0     N31102  10.094   5.426   1.731  0.1844  0.5524  0.3959
  231MOL0     C31103  10.726   4.727   0.788  0.8460 -0.3236 -0.6566
  231MOL0     C31104  10.854   4.714   0.738  0.2054 -0.0906 -0.0447
  231MOL0     C31105  11.261   4.818   0.589 -1.0687  0.2333  0.1337
  231MOL0     C31106  11.336   4.752   0.489 -0.1926 -0.4788  0.2962
  231MOL0     C31107  11.459   4.795   0.441 -1.1300  0.0156 -0.9562
  231MOL0     C31108  11.521   4.902   0.512 -0.7243  0.6400  0.3003
  231MOL0     O31109  11.643   4.960   0.481 -0.4612 -0.2216  0.5488
  231MOL0     C31110  11.704   4.919   0.363 -0.0179 -0.2570  0.0605
  231MOL0     C31111  11.841   4.988   0.335 -0.3669 -0.2123  0.9862
  231MOL0     C31112  11.961   4.889   0.310  0.2779 -0.4138 -1.1381
  231MOL0     C31113  12.063   4.957   0.220 -0.0749 -0.6516  0.0141
  231MOL0     C31114  12.095   5.094   0.253 -0.4669 -0.2836  0.0386
  231MOL0     C31115  12.131   5.212   0.280 -0.2892  0.2891 -1.2855
  231MOL0     C31116  11.455   4.957   0.613  0.6157 -0.5283  0.1384
  231MOL0     C31117  11.328   4.922   0.660 -0.0311  0.1092  0.5105
  231MOL0     H31118  11.008   4.956   0.910  1.0921 -0.3130 -1.3030
  231MOL0     H31119  10.797   4.904   1.069  2.1167 -1.2285  0.1390
  231MOL0     H31120  10.591   4.915   1.128  1.1157 -0.0626  0.7668
  231MOL0     H31121  10.500   4.964   0.983  1.2092  1.3072  0.4356
  231MOL0     H31122  10.313   4.822   1.028 -0.3786 -5.1849 -0.5894
  231MOL0     H31123  10.402   4.718   1.133 -2.5642 -0.2575 -0.8478
  231MOL0     H31124  10.439   4.903   1.306  0.8511  0.7931 -0.7894
  231MOL0     H31125  10.335   4.994   1.215  0.0159  0.3476  0.3722
  231MOL0     H31126  10.140   4.818   1.257  1.4707  0.4634 -1.2892
  231MOL0     H31127  10.252   4.725   1.343 -1.2114 -0.5216  0.9074
  231MOL0     H31128  10.095   4.854   1.474 -0.0553  0.2764  1.9119
  231MOL0     H31129  10.262   4.898   1.516 -0.6022 -3.8537 -0.4927
  231MOL0     H31130  10.247   5.122   1.412 -0.6437  0.1752  1.2930
  231MOL0     H31131  10.096   5.081   1.330  1.3074 -0.0515 -1.4755
  231MOL0     H31132   9.994   5.078   1.581  3.3830 -4.0726  1.9941
  231MOL0     H31133  10.155   5.127   1.624 -1.7843  4.2081  2.3899
  231MOL0     H31134   9.996   5.303   1.441 -1.1149  0.5675  1.0335
  231MOL0     H31135  10.169   5.329   1.488 -1.5296  2.5349  0.1871
  231MOL0     H31136   9.805   5.283   1.657 -2.2666  1.7646  1.8196
  231MOL0     H31137   9.700   5.325   1.876  1.9556 -0.8217 -2.1285
  231MOL0     H31138   9.782   5.420   1.992 -1.0173 -0.5582  0.0666
  231MOL0     H31139   9.605   5.568   1.930  0.5782  3.1809  0.2101
  231MOL0     H31140   9.638   5.546   1.760  1.1499 -0.4362  0.0330
  231MOL0     H31141   9.823   5.696   1.767  2.4461 -3.3334 -0.5171
  231MOL0     H31142   9.856   5.663   1.943 -1.9581 -1.8912  1.6714
  231MOL0     H31143   9.616   5.767   1.968 -0.4113  2.6514  0.0288
  231MOL0     H31144   9.624   5.808   1.803 -1.2865  0.6156 -0.2917
  231MOL0     H31145   9.504   5.975   2.028 -2.1054  0.9178  1.6611
  231MOL0     H31146   9.299   6.241   2.013 -0.0066  2.0755  1.1286
  231MOL0     H31147   9.357   6.128   2.117 -2.4328  2.1427  1.8678
  231MOL0     H31148   9.424   6.296   2.126  0.5575 -2.1147  1.6850
  231MOL0     H31149   9.318   6.583   1.693  2.4609 -3.2189  0.6359
  231MOL0     H31150   9.310   6.826   1.639 -1.0750 -2.3968 -1.4158
  231MOL0     H31151   9.380   7.055   1.537 -0.1703  2.8566 -1.1592
  231MOL0     H31152   9.313   7.021   1.701  1.2188 -1.0087  1.5405
  231MOL0     H31153   9.450   7.208   1.781  0.0124 -2.2384  0.8384
  231MOL0     H31154   9.472   7.273   1.610 -1.3013  1.3154  0.0427
  231MOL0     H31155   9.218   7.233   1.779 -3.1414  2.7521 -0.7761
  231MOL0     H31156   9.216   7.243   1.592  1.7381 -0.4916 -0.8858
  231MOL0     H31157   9.319   7.450   1.784 -2.6455  0.7250  1.8209
  231MOL0     H31158   9.315   7.459   1.603  0.5924 -3.2311 -0.8206
  231MOL0     H31159   9.085   7.481   1.593  2.2813 -1.7703 -0.6068
  231MOL0     H31160   9.144   7.594   1.723  1.0490 -0.6090  3.4042
  231MOL0     H31161   9.003   7.327   1.768 -3.1354  0.8394 -0.3739
  231MOL0     H31162   9.082   7.437   1.892  0.2179 -0.6920  0.0830
  231MOL0     H31163   8.849   7.523   1.706  1.4543 -3.2343 -1.7019
  231MOL0     H31164   8.904   7.601   1.852 -3.1215  1.1944 -0.2767
  231MOL0     H31165   8.771   7.326   1.839 -1.5454 -0.1516  1.2238
  231MOL0     H31166   8.698   7.474   1.883  0.1391  0.8142  2.6451
  231MOL0     H31167   9.730   6.847   1.741 -2.7849  2.1429  1.1737
  231MOL0     H31168   9.744   6.623   1.757 -0.2953 -1.1901 -5.3094
  231MOL0     H31169   9.742   6.313   1.766 -0.5788  2.8921  2.5007
  231MOL0     H31170   9.860   6.104   1.817 -0.6198 -3.4342 -1.4346
  231MOL0     H31171  10.642   4.667   0.756  0.9077 -0.3707 -0.7293
  231MOL0     H31172  10.880   4.637   0.665  2.8278  0.6991 -0.0382
  231MOL0     H31173  11.293   4.671   0.431 -1.0616  0.4745 -0.4406
  231MOL0     H31174  11.518   4.746   0.365  0.7517  2.4790 -1.2319
  231MOL0     H31175  11.725   4.812   0.366  2.6002  0.1419 -1.2332
  231MOL0     H31176  11.629   4.935   0.284  0.2910 -1.1590 -0.4283
  231MOL0     H31177  11.871   5.035   0.429  2.3638  1.3395 -0.5315
  231MOL0     H31178  11.821   5.065   0.260  0.6612 -2.7260 -2.1260
  231MOL0     H31179  11.917   4.795   0.276 -3.2451  0.4374  0.4865
  231MOL0     H31180  12.012   4.857   0.402 -0.7285  3.5810  1.0827
  231MOL0     H31181  12.027   4.942   0.118 -1.3871 -2.9987  0.7608
  231MOL0     H31182  12.153   4.897   0.235 -0.6623 -1.6218 -0.2583
  231MOL0     H31183  12.170   5.306   0.314  0.4077  0.2953 -2.0514
  231MOL0     H31184  11.498   5.036   0.674 -1.0619 -1.1390  2.2747
  231MOL0     H31185  11.277   4.965   0.746  0.9673 -0.7926  1.6048
  232MOL0     O31186   3.437   0.389   5.391 -0.9135 -0.1269  0.8055
  232MOL0     C31187   3.328   0.405   5.352  0.9400 -0.2705 -0.0766
  232MOL0     O31188   3.255   0.519   5.355  0.2427  0.6333  0.0333
  232MOL0     C31189   3.322   0.634   5.392 -0.3131 -0.3928 -0.4727
  232MOL0     C31190   3.260   0.738   5.464 -0.2519  0.5010 -0.1680
  232MOL0     C31191   3.320   0.860   5.491 -0.1752 -0.4986  0.8142
  232MOL0     C31192   3.455   0.878   5.458 -0.9350  0.5530 -0.8619
  232MOL0     O31193   3.528   0.988   5.484 -0.3143  0.3575 -0.3894
  232MOL0     C31194   3.492   1.062   5.599  0.6298 -0.2137 -0.8222
  232MOL0     C31195   3.598   1.170   5.617  0.5346 -0.1968 -0.7880
  232MOL0     C31196   3.571   1.281   5.510  0.0262 -0.7432 -0.4808
  232MOL0     C31197   3.675   1.399   5.511 -0.3463 -0.3813 -0.5560
  232MOL0     C31198   3.638   1.529   5.443 -0.3749  0.9331  0.1952
  232MOL0     C31199   3.596   1.515   5.294 -0.7921  0.8612 -0.4651
  232MOL0     C31200   3.713   1.482   5.198 -0.3841 -0.9826  0.4458
  232MOL0     C31201   3.838   1.562   5.203 -0.4451 -0.8251  0.9837
  232MOL0     N31202   3.804   1.701   5.194  0.1008  0.4423 -0.3548
  232MOL0     C31203   3.734   1.774   5.090 -0.2894  0.4697  0.3202
  232MOL0     C31204   3.741   1.901   5.127  0.2951  0.1522  1.1113
  232MOL0     C31205   3.674   2.022   5.066 -0.2198  0.0705  0.8191
  232MOL0     C31206   3.600   2.113   5.170  0.3905 -0.0062 -0.1432
  232MOL0     C31207   3.694   2.216   5.231  0.4529  0.4688 -0.3794
  232MOL0     C31208   3.788   2.290   5.137 -0.0892  0.0378  1.0623
  232MOL0     O31209   3.865   2.368   5.231 -0.5346 -0.0383  0.0472
  232MOL0     C31210   3.852   2.508   5.237 -0.0484  0.5126 -0.2848
  232MOL0     C31211   3.756   2.583   5.163  0.7447 -0.1729 -0.8822
  232MOL0     C31212   3.735   2.715   5.200  0.3282 -0.3430 -0.8548
  232MOL0     C31213   3.627   2.787   5.140 -0.6352 -0.0083 -0.1672
  232MOL0     C31214   3.810   2.774   5.304  0.0344  0.8472 -0.3234
  232MOL0     C31215   3.779   2.898   5.375  0.4238 -0.9135 -0.0003
  232MOL0     O31216   3.732   3.004   5.295  0.3091 -0.4691 -0.1506
  232MOL0     C31217   3.660   3.109   5.335  0.9542  0.6391 -0.2551
  232MOL0     C31218   3.579   3.110   5.447 -0.2947 -0.7730 -0.8776
  232MOL0     C31219   3.494   3.221   5.481  0.4012 -0.0685 -0.4832
  232MOL0     C31220   3.495   3.336   5.395 -0.3108 -0.7155 -0.1638
  232MOL0     O31221   3.407   3.446   5.408 -0.9675 -0.2149 -0.1891
  232MOL0     C31222   3.278   3.417   5.453  0.5357  0.9419 -0.1249
  232MOL0     C31223   3.280   3.441   5.601  0.0926  0.2127 -0.7259
  232MOL0     C31224   3.320   3.580   5.630 -0.2117 -0.1809  0.6712
  232MOL0     C31225   3.272   3.630   5.763  1.0108  1.4955  0.0264
  232MOL0     C31226   3.367   3.748   5.816  0.2451  0.6614 -0.5853
  232MOL0     C31227   3.325   3.759   5.957 -0.2424 -0.7698 -0.1199
  232MOL0     C31228   3.408   3.867   6.035  0.4020 -0.3301 -0.6456
  232MOL0     C31229   3.379   3.893   6.181 -0.8175  0.9857 -0.9306
  232MOL0    Cl31230   3.450   3.746   6.277 -0.0246  0.3259  0.1411
  232MOL0     C31231   3.573   3.335   5.276  0.9047 -0.2586  0.4053
  232MOL0     C31232   3.653   3.221   5.248  0.3114  0.3060 -0.2238
  232MOL0     O31233   3.791   2.904   5.502 -0.3531  0.3539 -0.6272
  232MOL0     C31234   3.912   2.700   5.360  0.1466 -0.1864 -0.1338
  232MOL0     C31235   3.930   2.568   5.331 -0.6257  0.1969  0.0479
  232MOL0     N31236   3.839   1.906   5.227  0.3214  0.6874 -0.9227
  232MOL0     N31237   3.875   1.800   5.260  0.2552  0.0873 -0.6881
  232MOL0     C31238   3.522   0.780   5.387 -0.6391 -0.3038  0.2442
  232MOL0     C31239   3.449   0.668   5.337 -0.0820 -0.2591 -0.3827
  232MOL0     C31240   3.262   0.288   5.276 -0.8952  0.2127 -0.7943
  232MOL0     C31241   3.145   0.299   5.208 -0.9594  0.2626  0.2434
  232MOL0     C31242   3.096   0.193   5.129 -0.8915  0.8676 -0.7390
  232MOL0     C31243   3.162   0.070   5.123  0.2880 -0.7596  0.0807
  232MOL0     O31244   3.113  -0.036   5.050 -0.0637  0.8156 -0.3136
  232MOL0     C31245   3.061  -0.147   5.127  0.0560  0.2239  0.0100
  232MOL0     C31246   2.917  -0.129   5.170  0.6789  1.1477 -0.0017
  232MOL0     C31247   2.878  -0.268   5.227 -0.1193  0.1854  0.0314
  232MOL0     C31248   2.744  -0.263   5.299  0.0941 -0.7556  0.3222
  232MOL0     C31249   2.636  -0.213   5.210 -0.3884  0.0548  0.2861
  232MOL0     C31250   2.549  -0.186   5.126 -0.4071 -0.2732 -0.1026
  232MOL0     C31251   3.275   0.055   5.199 -0.0271 -0.0555  0.0627
  232MOL0     C31252   3.329   0.165   5.268 -0.4750  0.3813 -0.0058
  232MOL0     H31253   3.154   0.735   5.488 -0.1648  0.7246  0.2519
  232MOL0     H31254   3.261   0.928   5.552  2.5130  1.1513  1.7289
  232MOL0     H31255   3.398   1.116   5.582  0.0727 -0.9986 -0.2429
  232MOL0     H31256   3.491   0.997   5.686  0.5949 -1.4168 -1.6941
  232MOL0     H31257   3.580   1.213   5.716  0.7116 -0.3182 -0.7014
  232MOL0     H31258   3.699   1.128   5.612  1.8430  2.5349  0.8015
  232MOL0     H31259   3.577   1.238   5.410  1.0855  0.9835 -1.2113
  232MOL0     H31260   3.471   1.323   5.525  0.9393  0.8055  1.8886
  232MOL0     H31261   3.708   1.422   5.613  1.7168  0.0706 -1.2682
  232MOL0     H31262   3.760   1.369   5.449 -1.1310 -0.5088 -1.5829
  232MOL0     H31263   3.556   1.580   5.495 -0.0923 -2.8153  4.9598
  232MOL0     H31264   3.727   1.591   5.454  0.2108 -0.2555  2.8451
  232MOL0     H31265   3.528   1.429   5.284 -0.8369  0.4594  2.4230
  232MOL0     H31266   3.545   1.605   5.258 -0.4975  0.7546 -1.1670
  232MOL0     H31267   3.741   1.377   5.208  2.6305 -0.1050  2.6587
  232MOL0     H31268   3.670   1.484   5.097 -2.6742 -4.4888  1.1972
  232MOL0     H31269   3.903   1.538   5.118 -0.3990  0.0656  0.7515
  232MOL0     H31270   3.888   1.539   5.297 -1.4108 -0.0411  1.7184
  232MOL0     H31271   3.677   1.725   5.012 -1.1589  1.0696  0.5632
  232MOL0     H31272   3.744   2.072   4.999 -1.5628  2.6070  1.1933
  232MOL0     H31273   3.594   1.983   5.003  1.5029  1.3412 -2.3628
  232MOL0     H31274   3.552   2.056   5.249 -0.7877 -0.5920 -1.2495
  232MOL0     H31275   3.536   2.174   5.107 -0.2099  0.4863  0.9247
  232MOL0     H31276   3.757   2.174   5.309  2.2247  0.9785 -1.4702
  232MOL0     H31277   3.635   2.293   5.282 -0.4116  0.2218 -0.9801
  232MOL0     H31278   3.727   2.355   5.073 -0.7664 -1.4694  0.1136
  232MOL0     H31279   3.855   2.225   5.081  0.1610  1.1584  0.0156
  232MOL0     H31280   3.703   2.543   5.078 -2.8614 -0.6753  1.3909
  232MOL0     H31281   3.557   2.729   5.078  2.0130 -1.7651 -1.7231
  232MOL0     H31282   3.573   2.817   5.230 -1.4148  0.8493 -0.8932
  232MOL0     H31283   3.660   2.874   5.082 -0.2039  3.2365  4.4538
  232MOL0     H31284   3.580   3.023   5.513  5.0972 -1.0355 -0.8369
  232MOL0     H31285   3.423   3.205   5.561  1.1734 -1.6301 -0.0673
  232MOL0     H31286   3.200   3.473   5.401 -1.0655 -0.2973  0.8291
  232MOL0     H31287   3.237   3.316   5.438  0.9409  0.7038  0.3296
  232MOL0     H31288   3.182   3.420   5.645  0.6807 -2.2864 -0.4658
  232MOL0     H31289   3.353   3.376   5.649 -3.0924 -1.1601  2.7237
  232MOL0     H31290   3.284   3.644   5.549 -1.7313 -2.5166 -0.5694
  232MOL0     H31291   3.429   3.589   5.625 -0.3496  3.7316  1.1589
  232MOL0     H31292   3.167   3.659   5.768 -0.0379 -1.2956 -2.4907
  232MOL0     H31293   3.279   3.551   5.839  2.7033 -0.3053 -1.8476
  232MOL0     H31294   3.349   3.834   5.750  3.8332  4.5173  2.8275
  232MOL0     H31295   3.474   3.724   5.815 -0.0830 -1.0638  0.8904
  232MOL0     H31296   3.217   3.766   5.976  0.2432  0.3243  2.6733
  232MOL0     H31297   3.339   3.675   6.026  0.3037 -0.7661 -0.2248
  232MOL0     H31298   3.371   3.963   5.998 -1.2280 -1.0438 -0.9830
  232MOL0     H31299   3.511   3.863   6.000  0.3327 -1.0621 -0.7970
  232MOL0     H31300   3.272   3.896   6.204 -0.3967  0.1195  1.4471
  232MOL0     H31301   3.433   3.981   6.217  1.7071 -2.0189  3.6929
  232MOL0     H31302   3.585   3.427   5.220  0.5735  0.5574  1.6235
  232MOL0     H31303   3.726   3.215   5.169  0.0698 -2.3710 -0.3247
  232MOL0     H31304   3.979   2.727   5.442  0.8906 -2.4365  0.0701
  232MOL0     H31305   4.005   2.509   5.384  0.2932  2.5945  1.5893
  232MOL0     H31306   3.627   0.794   5.361 -1.5553  0.8010 -3.4683
  232MOL0     H31307   3.490   0.606   5.259  0.0929  2.6422 -2.7849
  232MOL0     H31308   3.081   0.387   5.213 -0.3627  0.6350  1.9992
  232MOL0     H31309   3.001   0.187   5.077 -0.5073 -1.8233 -1.2994
  232MOL0     H31310   3.063  -0.240   5.069  2.3859  0.5168 -0.4785
  232MOL0     H31311   3.121  -0.144   5.219 -0.4928  0.6167  0.3593
  232MOL0     H31312   2.852  -0.097   5.088  0.6475  0.5055 -0.2350
  232MOL0     H31313   2.886  -0.050   5.240 -2.8148  2.5491 -2.7671
  232MOL0     H31314   2.955  -0.322   5.284  0.7588 -0.0502 -1.3256
  232MOL0     H31315   2.860  -0.326   5.136  1.6162 -1.6379  0.7436
  232MOL0     H31316   2.747  -0.199   5.388 -1.6116 -1.6534  1.0615
  232MOL0     H31317   2.723  -0.362   5.338  2.5064 -1.2431  0.5603
  232MOL0     H31318   2.465  -0.170   5.061 -0.8739 -1.2709  0.2187
  232MOL0     H31319   3.340  -0.031   5.212  2.5007  1.8465  0.8194
  232MOL0     H31320   3.422   0.159   5.324 -0.5160  1.3896  0.1883
  233MOL0     O31321   4.104   9.521   4.734 -0.3802 -0.5647 -0.5450
  233MOL0     C31322   4.140   9.401   4.751 -0.5093  0.0242 -0.4793
  233MOL0     O31323   4.201   9.326   4.658  0.2682 -0.6224 -0.3433
  233MOL0     C31324   4.210   9.372   4.529  1.2714 -0.8097 -0.7177
  233MOL0     C31325   4.262   9.497   4.487 -0.1055  0.7800  0.6212
  233MOL0     C31326   4.255   9.541   4.351  0.1030 -0.1028 -0.2388
  233MOL0     C31327   4.211   9.445   4.266 -0.5288  0.5333  0.1932
  233MOL0     O31328   4.197   9.479   4.132  0.0571  0.1126  0.5257
  233MOL0     C31329   4.306   9.498   4.048  0.0918 -0.0076 -0.3638
  233MOL0     C31330   4.357   9.378   3.981 -0.3824 -0.1204  0.4312
  233MOL0     C31331   4.468   9.422   3.880  0.9412 -0.0323 -0.2743
  233MOL0     C31332   4.546   9.308   3.805 -1.2262  0.2847 -1.0842
  233MOL0     C31333   4.662   9.371   3.723 -0.8426 -1.2539 -0.5162
  233MOL0     C31334   4.605   9.432   3.606  0.4218 -0.4686 -0.3899
  233MOL0     C31335   4.717   9.431   3.494 -0.3097  1.0983  0.3010
  233MOL0     C31336   4.658   9.503   3.372 -0.6398  0.1052 -0.2483
  233MOL0     N31337   4.582   9.415   3.283 -0.9168  0.1293 -0.1279
  233MOL0     C31338   4.458   9.428   3.233  0.6731  0.3837 -0.6824
  233MOL0     C31339   4.438   9.319   3.151  0.5276  0.1454  0.0410
  233MOL0     C31340   4.317   9.277   3.066  0.8216  0.1245 -0.6701
  233MOL0     C31341   4.235   9.398   3.013 -0.1353  0.5366  0.4095
  233MOL0     C31342   4.108   9.341   2.946 -0.1610  0.4076 -0.2706
  233MOL0     C31343   4.016   9.452   2.891  0.0523 -0.6078 -0.0423
  233MOL0     O31344   4.072   9.502   2.771 -0.1751 -0.8355 -0.7359
  233MOL0     C31345   4.017   9.615   2.707  0.0373  0.4580  0.4161
  233MOL0     C31346   4.053   9.622   2.575  0.1107  0.0584  1.0737
  233MOL0     C31347   4.025   9.740   2.496  0.3791  0.7275  0.1301
  233MOL0     C31348   4.055   9.730   2.348 -0.9705  0.3804  0.0740
  233MOL0     C31349   3.957   9.855   2.559 -0.1536  0.2513 -0.2669
  233MOL0     C31350   3.918   9.983   2.489 -0.1520 -0.0327 -0.0237
  233MOL0     O31351   4.015  10.023   2.393 -0.0026 -0.3362 -0.9143
  233MOL0     C31352   4.010  10.154   2.351  0.3395 -0.2722  0.4286
  233MOL0     C31353   3.899  10.212   2.283 -0.5676  1.1559 -0.0124
  233MOL0     C31354   3.903  10.345   2.245  0.1731 -0.8635  0.6201
  233MOL0     C31355   4.019  10.427   2.264 -0.1583  0.2932 -0.8036
  233MOL0     O31356   4.039  10.556   2.227  0.9078  0.0418  0.7825
  233MOL0     C31357   3.923  10.630   2.249  0.9460  0.7289 -1.0998
  233MOL0     C31358   3.942  10.774   2.199 -0.1556  0.0991 -0.4833
  233MOL0     C31359   3.821  10.857   2.242 -0.5434  0.2468  1.1462
  233MOL0     C31360   3.867  11.007   2.227  1.0173  0.0841 -0.0461
  233MOL0     C31361   3.881  11.044   2.080  0.1267 -0.6769  0.7061
  233MOL0     C31362   3.882  11.199   2.075  0.3247  0.0141  1.3917
  233MOL0     C31363   3.876  11.251   1.931 -0.5424  0.2166 -0.4480
  233MOL0     C31364   3.893  11.404   1.944  0.2653  0.3270  1.0639
  233MOL0    Cl31365   4.057  11.439   1.997  0.1978  0.1609 -0.2253
  233MOL0     C31366   4.129  10.364   2.312 -0.7212 -0.2182 -0.6511
  233MOL0     C31367   4.123  10.233   2.366  0.1557  0.3527 -0.1043
  233MOL0     O31368   3.823  10.044   2.529  0.1817  0.2252 -0.6920
  233MOL0     C31369   3.923   9.835   2.691  0.5290 -0.6129  0.2882
  233MOL0     C31370   3.943   9.714   2.770 -0.4334 -0.3242 -0.5976
  233MOL0     N31371   4.561   9.257   3.143  1.2262  0.4584 -0.3244
  233MOL0     N31372   4.638   9.306   3.228 -0.2807 -0.1342 -0.0991
  233MOL0     C31373   4.165   9.326   4.300 -0.7195 -0.4094 -1.3759
  233MOL0     C31374   4.172   9.285   4.430  0.2444  0.1350 -0.3782
  233MOL0     C31375   4.155   9.353   4.896  0.1358 -0.2915 -0.3553
  233MOL0     C31376   4.092   9.422   5.006 -0.2096  0.0675  0.7952
  233MOL0     C31377   4.093   9.371   5.140 -0.0981  0.4284 -0.0956
  233MOL0     C31378   4.144   9.241   5.165 -0.2943 -0.2385 -0.6577
  233MOL0     O31379   4.140   9.170   5.285  0.5450 -0.7883 -0.1104
  233MOL0     C31380   4.002   9.108   5.281 -0.1545 -0.5678 -1.0595
  233MOL0     C31381   3.947   9.097   5.423  0.1632 -0.0653  0.8907
  233MOL0     C31382   3.921   9.228   5.484  0.5397 -0.0384 -0.2895
  233MOL0     C31383   3.862   9.225   5.631  0.8281 -1.1402  0.1014
  233MOL0     C31384   3.892   9.118   5.730 -0.1295  0.0857 -0.6420
  233MOL0     C31385   3.946   9.032   5.798 -0.5715  0.2660 -0.0893
  233MOL0     C31386   4.203   9.176   5.056 -0.3869 -0.3223  0.2954
  233MOL0     C31387   4.214   9.228   4.924  0.2836 -1.1053 -0.5128
  233MOL0     H31388   4.291   9.572   4.560 -1.2179  1.3080  0.5482
  233MOL0     H31389   4.303   9.632   4.318  0.6144  1.2020  3.5473
  233MOL0     H31390   4.269   9.567   3.971  1.8174  0.7587 -0.5555
  233MOL0     H31391   4.381   9.540   4.114 -2.0185 -0.3488  2.4223
  233MOL0     H31392   4.404   9.302   4.044  3.2441 -0.8649 -2.8203
  233MOL0     H31393   4.273   9.333   3.927 -2.3677  2.7771  0.8383
  233MOL0     H31394   4.419   9.472   3.796  0.0889 -2.7362 -1.5004
  233MOL0     H31395   4.537   9.487   3.934 -1.2797  1.0352  1.4425
  233MOL0     H31396   4.591   9.250   3.886 -2.5615  1.0040  0.2150
  233MOL0     H31397   4.472   9.249   3.751 -2.2013  1.0737 -0.6339
  233MOL0     H31398   4.706   9.452   3.783  0.5257 -0.3208 -2.6878
  233MOL0     H31399   4.739   9.297   3.701  0.3395  0.3347 -1.9834
  233MOL0     H31400   4.517   9.379   3.565 -2.3899  0.9231  3.2859
  233MOL0     H31401   4.582   9.536   3.630  1.7823 -0.5008  1.1757
  233MOL0     H31402   4.804   9.488   3.527  0.8695 -2.0064  3.1323
  233MOL0     H31403   4.751   9.334   3.456  2.3001  1.7108  0.9322
  233MOL0     H31404   4.745   9.546   3.323 -0.0220 -2.0340 -1.1322
  233MOL0     H31405   4.585   9.578   3.403 -2.1863 -1.1437 -0.7309
  233MOL0     H31406   4.380   9.496   3.266  3.4085  1.7115  3.8713
  233MOL0     H31407   4.357   9.222   2.980  3.2144  0.2255  0.3075
  233MOL0     H31408   4.254   9.218   3.134  2.3885 -3.7586 -2.2839
  233MOL0     H31409   4.291   9.459   2.941  0.2973 -1.5380 -1.0850
  233MOL0     H31410   4.188   9.452   3.096 -0.3230  1.1839 -0.1166
  233MOL0     H31411   4.044   9.297   3.023  0.0769  0.5011 -0.0187
  233MOL0     H31412   4.134   9.266   2.870  0.6488  1.0001 -0.5964
  233MOL0     H31413   4.009   9.518   2.977  2.7390 -1.5749  1.0405
  233MOL0     H31414   3.915   9.411   2.880  0.1304 -0.8961  0.2804
  233MOL0     H31415   4.095   9.536   2.524 -3.1355 -1.8939  1.3778
  233MOL0     H31416   4.124   9.650   2.320  1.7175  2.1520  1.1509
  233MOL0     H31417   3.955   9.711   2.307 -2.3352 -0.3329  3.4074
  233MOL0     H31418   4.102   9.825   2.319 -0.6623 -0.2228 -1.4994
  233MOL0     H31419   3.805  10.159   2.291  0.0459  0.3256  3.7616
  233MOL0     H31420   3.811  10.386   2.204 -0.1912 -0.1997  2.0458
  233MOL0     H31421   3.842  10.592   2.187 -1.4959  0.3221  2.0818
  233MOL0     H31422   3.903  10.618   2.356 -0.3716 -1.1652 -1.5156
  233MOL0     H31423   4.034  10.819   2.235  0.0573 -0.1758 -0.6781
  233MOL0     H31424   3.946  10.772   2.090 -0.2300 -0.9808 -0.4768
  233MOL0     H31425   3.810  10.850   2.351 -0.1799  0.6027  1.2041
  233MOL0     H31426   3.732  10.838   2.181 -2.6401  4.1794  2.6315
  233MOL0     H31427   3.789  11.069   2.273  0.5064 -2.4488  2.8277
  233MOL0     H31428   3.960  11.036   2.276  2.0890  1.3731 -2.6229
  233MOL0     H31429   3.793  11.003   2.029  0.5975 -1.9261  0.8364
  233MOL0     H31430   3.962  11.000   2.020 -0.3338  0.9763 -1.2489
  233MOL0     H31431   3.784  11.220   2.117  0.9207  0.2448  2.7394
  233MOL0     H31432   3.966  11.246   2.129  2.7276  0.5497 -2.4025
  233MOL0     H31433   3.781  11.222   1.884 -1.2857 -0.9754  1.6150
  233MOL0     H31434   3.964  11.221   1.875  0.1921  0.1684  0.7005
  233MOL0     H31435   3.819  11.457   2.005  1.2684  1.3818  1.3908
  233MOL0     H31436   3.884  11.440   1.842  3.1209 -0.5561  0.3978
  233MOL0     H31437   4.215  10.424   2.340 -2.2581  0.9369  2.0484
  233MOL0     H31438   4.212  10.192   2.413 -0.3565  0.7015  1.1840
  233MOL0     H31439   3.890   9.923   2.745  3.7707  1.1189 -0.3097
  233MOL0     H31440   3.918   9.707   2.876 -3.0774  0.0538 -1.1170
  233MOL0     H31441   4.126   9.269   4.216 -0.5545 -0.3646 -1.4842
  233MOL0     H31442   4.122   9.191   4.447 -2.5540  1.7136  0.8583
  233MOL0     H31443   4.048   9.520   4.991  0.8872  0.4852  0.1942
  233MOL0     H31444   4.038   9.429   5.213 -3.4896 -2.4276 -0.1487
  233MOL0     H31445   3.933   9.160   5.215 -0.8848  0.5594  0.5275
  233MOL0     H31446   4.004   9.002   5.254 -2.7112 -0.3829 -2.2555
  233MOL0     H31447   4.016   9.054   5.497  0.1339  3.6781  3.4140
  233MOL0     H31448   3.859   9.033   5.412  1.8396 -1.9600 -4.1132
  233MOL0     H31449   3.862   9.294   5.420 -0.1788  1.3010  1.6755
  233MOL0     H31450   4.014   9.282   5.499 -0.3233  1.6143 -0.6270
  233MOL0     H31451   3.754   9.236   5.617  1.2804  1.8175 -2.2072
  233MOL0     H31452   3.894   9.313   5.687 -3.7136  0.2298  0.9316
  233MOL0     H31453   3.993   8.959   5.860 -0.7450  0.7813  0.6583
  233MOL0     H31454   4.237   9.073   5.063 -0.0290 -0.3578 -1.5143
  233MOL0     H31455   4.268   9.185   4.841  0.6994 -1.1647 -0.2121
  234MOL0     O31456   6.955   9.905   9.895 -0.3541 -0.7520  0.5560
  234MOL0     C31457   7.019   9.832   9.817 -0.1623 -0.3008 -0.9319
  234MOL0     O31458   6.966   9.730   9.740  0.2728  0.5709  0.7528
  234MOL0     C31459   6.837   9.675   9.749 -0.6316 -0.3921 -0.9106
  234MOL0     C31460   6.786   9.665   9.878 -0.5445  1.2275 -0.1650
  234MOL0     C31461   6.672   9.576   9.901 -0.5290  0.3931 -0.4994
  234MOL0     C31462   6.594   9.530   9.786  0.1524 -0.4592 -0.4445
  234MOL0     O31463   6.493   9.439   9.817  0.0556 -0.1460 -0.1412
  234MOL0     C31464   6.371   9.448   9.737 -0.9313  0.1626  0.6222
  234MOL0     C31465   6.306   9.584   9.731  0.0996  0.1613  0.1089
  234MOL0     C31466   6.176   9.581   9.645  0.4044  0.4207 -1.0221
  234MOL0     C31467   6.082   9.686   9.691 -0.4968 -0.6169 -1.0236
  234MOL0     C31468   5.977   9.730   9.587 -0.3455 -0.0416 -0.2555
  234MOL0     C31469   5.875   9.839   9.638 -0.6164 -0.4106 -0.3753
  234MOL0     C31470   5.730   9.816   9.584  0.4570  0.4422  0.3519
  234MOL0     C31471   5.658   9.723   9.674  0.5696 -0.5457  0.5036
  234MOL0     N31472   5.507   9.724   9.677 -0.5299 -0.1635 -0.5116
  234MOL0     C31473   5.430   9.613   9.706 -1.5839  0.6839 -0.1187
  234MOL0     C31474   5.304   9.662   9.720  0.6216  0.7853  0.1439
  234MOL0     C31475   5.175   9.589   9.737 -0.2268  0.7248  0.7590
  234MOL0     C31476   5.189   9.542   9.888  0.1695  0.3939  0.3255
  234MOL0     C31477   5.059   9.482   9.931  0.0298  0.6402 -0.1360
  234MOL0     C31478   5.086   9.398  10.063 -0.2044 -0.6384  0.5256
  234MOL0     O31479   5.177   9.463  10.153  0.3755 -0.7690 -0.0911
  234MOL0     C31480   5.192   9.411  10.280  0.8833 -0.9892 -0.1113
  234MOL0     C31481   5.164   9.283  10.325 -0.9263  0.2765 -0.5112
  234MOL0     C31482   5.164   9.262  10.465  1.2819  0.1001  0.7649
  234MOL0     C31483   5.089   9.135  10.512  0.4674 -0.3781  0.5467
  234MOL0     C31484   5.219   9.360  10.561  0.2622  0.4037  0.3664
  234MOL0     C31485   5.245   9.328  10.711  0.1151  0.0595  0.2941
  234MOL0     O31486   5.343   9.404  10.770  0.5090 -0.4635 -0.8103
  234MOL0     C31487   5.371   9.394  10.910  0.0651  0.5996 -0.5203
  234MOL0     C31488   5.512   9.378  10.952  0.4134 -0.4856  0.7335
  234MOL0     C31489   5.537   9.385  11.090  0.1444  0.8251  0.1575
  234MOL0     C31490   5.432   9.404  11.182  0.7385 -0.5035 -0.3495
  234MOL0     O31491   5.462   9.406  11.315 -0.4515 -0.6613  0.3252
  234MOL0     C31492   5.506   9.280  11.366 -0.3055  0.1619 -0.5793
  234MOL0     C31493   5.570   9.308  11.503 -0.7122 -0.0019 -0.2046
  234MOL0     C31494   5.475   9.371  11.610  0.0537 -0.2713 -0.1324
  234MOL0     C31495   5.386   9.264  11.675  0.3411 -0.2866 -0.0248
  234MOL0     C31496   5.301   9.341  11.775  0.0840 -0.3157 -0.3469
  234MOL0     C31497   5.198   9.453  11.721  0.5721  0.7303 -0.4951
  234MOL0     C31498   5.116   9.414  11.595  0.1505  0.0779 -0.1562
  234MOL0     C31499   5.049   9.267  11.588 -0.3407  0.2145 -0.3320
  234MOL0    Cl31500   4.964   9.221  11.733  0.4504 -0.9075 -0.0727
  234MOL0     C31501   5.302   9.404  11.145 -0.7436  0.0181  1.6802
  234MOL0     C31502   5.272   9.405  11.005  0.2436  0.1623 -0.4311
  234MOL0     O31503   5.165   9.244  10.763 -0.2983  0.1876 -0.5362
  234MOL0     C31504   5.268   9.480  10.503  0.2488 -0.5793  0.5571
  234MOL0     C31505   5.243   9.507  10.369 -0.9566  0.4240  0.1126
  234MOL0     N31506   5.307   9.793   9.685  0.3566  0.0045  0.1999
  234MOL0     N31507   5.419   9.831   9.660 -0.3266 -0.6845  0.2955
  234MOL0     C31508   6.647   9.561   9.656  0.8806  0.8508  0.0082
  234MOL0     C31509   6.766   9.623   9.639 -0.2184  0.2203  0.0141
  234MOL0     C31510   7.164   9.860   9.816 -0.3151  1.0420 -0.0859
  234MOL0     C31511   7.235   9.784   9.720 -0.4660  0.3571  0.2549
  234MOL0     C31512   7.367   9.804   9.688  0.0635  0.0647 -0.7744
  234MOL0     C31513   7.439   9.891   9.762 -0.8067  0.4920  1.2317
  234MOL0     O31514   7.570   9.906   9.731 -0.2465 -0.0031 -0.2203
  234MOL0     C31515   7.643   9.792   9.787 -0.7695  0.1365  0.7752
  234MOL0     C31516   7.786   9.858   9.811  0.4968  0.5925 -0.1205
  234MOL0     C31517   7.895   9.749   9.841  0.4436 -1.3233 -0.2353
  234MOL0     C31518   8.032   9.810   9.874  0.7809 -0.3465 -1.1757
  234MOL0     C31519   8.126   9.711   9.913 -1.0481 -1.7138 -0.1884
  234MOL0     C31520   8.224   9.637   9.919 -0.1418  0.1044  0.2091
  234MOL0     C31521   7.381   9.968   9.856  0.0266  0.3132  0.3440
  234MOL0     C31522   7.242   9.952   9.884  0.7299 -0.8145  0.8006
  234MOL0     H31523   6.831   9.693   9.973  0.9360 -1.1151 -0.0866
  234MOL0     H31524   6.651   9.555  10.005  0.5662 -0.0412 -0.3528
  234MOL0     H31525   6.381   9.394   9.643  1.6585 -0.8632  1.3991
  234MOL0     H31526   6.301   9.389   9.798 -2.2185  1.7686  0.7785
  234MOL0     H31527   6.286   9.617   9.833  1.0750 -1.3030  0.8085
  234MOL0     H31528   6.374   9.657   9.686 -0.2858  0.8669  0.6678
  234MOL0     H31529   6.213   9.620   9.550  1.2874  1.5468 -0.2467
  234MOL0     H31530   6.134   9.481   9.630  0.3737  0.5439 -1.8009
  234MOL0     H31531   6.037   9.640   9.779  2.1834 -0.8216  0.3544
  234MOL0     H31532   6.142   9.773   9.722  0.6776 -2.3889  2.1156
  234MOL0     H31533   6.034   9.773   9.504  1.1735 -0.8343  0.3365
  234MOL0     H31534   5.922   9.643   9.549 -1.0922  0.5277 -0.4998
  234MOL0     H31535   5.872   9.846   9.748 -0.2763  3.4541 -0.4788
  234MOL0     H31536   5.908   9.938   9.605  1.7780 -0.7520  0.7963
  234MOL0     H31537   5.689   9.917   9.579 -0.8702 -0.0949 -0.3595
  234MOL0     H31538   5.723   9.777   9.482  0.7335 -0.3518  0.6263
  234MOL0     H31539   5.696   9.749   9.774  1.5012 -0.0375  0.0360
  234MOL0     H31540   5.686   9.622   9.643  2.3910 -0.5391  1.8949
  234MOL0     H31541   5.466   9.513   9.727  1.7134  1.7212 -0.1970
  234MOL0     H31542   5.082   9.642   9.715  0.4583  1.1454 -1.3356
  234MOL0     H31543   5.179   9.508   9.664  0.1058  1.2685  0.1700
  234MOL0     H31544   5.212   9.628   9.952  2.7377  0.1603 -0.1918
  234MOL0     H31545   5.268   9.470   9.909 -0.5664 -0.0952  1.5395
  234MOL0     H31546   5.031   9.413   9.851  0.5576 -0.3046  0.4800
  234MOL0     H31547   4.969   9.544   9.937  0.5494  1.2878  1.4975
  234MOL0     H31548   5.117   9.296  10.038  1.4897 -0.3106  1.2052
  234MOL0     H31549   4.989   9.397  10.115 -0.1835 -0.3756  0.5711
  234MOL0     H31550   5.130   9.211  10.252 -0.5225  0.2114 -0.6424
  234MOL0     H31551   5.167   9.086  10.571  2.4922  1.1976 -0.7005
  234MOL0     H31552   4.999   9.162  10.569  0.9910  0.1323  1.1544
  234MOL0     H31553   5.069   9.073  10.424  0.2078  0.4548  0.0066
  234MOL0     H31554   5.577   9.380  10.866 -0.9910  1.3763 -0.3743
  234MOL0     H31555   5.638   9.407  11.123  0.1467 -1.2258  1.6843
  234MOL0     H31556   5.415   9.222  11.384 -0.0326 -0.5373 -1.4092
  234MOL0     H31557   5.569   9.224  11.297  1.2771  2.1645 -0.8674
  234MOL0     H31558   5.603   9.210  11.538 -3.4508 -1.6741 -1.8771
  234MOL0     H31559   5.646   9.385  11.488  0.8468 -1.3200  0.6340
  234MOL0     H31560   5.414   9.450  11.566 -1.3426 -0.0104  2.1476
  234MOL0     H31561   5.534   9.411  11.692 -0.5246 -0.1362  0.2195
  234MOL0     H31562   5.331   9.201  11.604  1.9797 -1.0151 -0.7082
  234MOL0     H31563   5.445   9.193  11.734 -1.1017 -0.4853  1.2449
  234MOL0     H31564   5.368   9.381  11.851  1.8184 -0.6503 -1.6253
  234MOL0     H31565   5.240   9.266  11.826 -0.7570 -0.7256 -1.8871
  234MOL0     H31566   5.125   9.468  11.801  1.6863 -4.7222  1.9630
  234MOL0     H31567   5.254   9.545  11.701 -0.3526  0.9555 -2.2599
  234MOL0     H31568   5.181   9.431  11.509  1.5983 -0.5141  0.7764
  234MOL0     H31569   5.037   9.487  11.574 -0.3754 -0.1546  0.9402
  234MOL0     H31570   5.137   9.202  11.586 -2.8118 -3.4872  0.9724
  234MOL0     H31571   4.985   9.263  11.499 -1.3807  4.7948 -0.0387
  234MOL0     H31572   5.226   9.402  11.222 -0.6856 -0.3197  1.7294
  234MOL0     H31573   5.167   9.420  10.979  0.3336 -0.2784 -1.0784
  234MOL0     H31574   5.314   9.564  10.554 -1.3518 -0.8152  2.5233
  234MOL0     H31575   5.275   9.604  10.332 -3.6365  1.9840  1.5433
  234MOL0     H31576   6.598   9.527   9.565  0.4596  2.7490 -0.5335
  234MOL0     H31577   6.808   9.636   9.540  0.7665  1.9774  0.6027
  234MOL0     H31578   7.194   9.690   9.683 -3.8196  1.4852  0.6888
  234MOL0     H31579   7.414   9.750   9.605  0.3687 -0.8167 -0.0480
  234MOL0     H31580   7.604   9.759   9.884 -0.1806 -2.1893  0.2898
  234MOL0     H31581   7.656   9.709   9.717  4.2275  0.2135  1.2051
  234MOL0     H31582   7.778   9.918   9.902  1.0128 -2.2975  1.9711
  234MOL0     H31583   7.827   9.932   9.741  1.6254  0.2375  0.1456
  234MOL0     H31584   7.904   9.699   9.744  2.0380 -2.9103  0.6755
  234MOL0     H31585   7.865   9.679   9.919 -0.0665 -1.1396 -0.2643
  234MOL0     H31586   8.010   9.879   9.955 -2.4672 -1.6785 -0.7402
  234MOL0     H31587   8.068   9.858   9.782  3.5404  0.2563  0.1399
  234MOL0     H31588   8.313   9.578   9.925  0.9942  1.8869  2.0751
  234MOL0     H31589   7.448  10.040   9.900  0.4619  0.5420 -0.6793
  234MOL0     H31590   7.192  10.010   9.961 -1.5416  0.4556 -1.4927
  235MOL0     O31591   0.055   7.027   8.290  0.4284  0.3484 -0.2249
  235MOL0     C31592   0.008   7.124   8.224  0.4852  0.6595  0.5009
  235MOL0     O31593   0.071   7.231   8.184  0.4020 -0.1807  0.4367
  235MOL0     C31594   0.199   7.270   8.201  0.5527  0.8164  0.3658
  235MOL0     C31595   0.289   7.222   8.295  0.2242 -0.6784  0.1483
  235MOL0     C31596   0.413   7.276   8.296 -0.4818 -0.0521 -1.1546
  235MOL0     C31597   0.446   7.382   8.208  0.0693  0.8716 -0.4327
  235MOL0     O31598   0.581   7.404   8.201  0.2998  0.0357  0.7322
  235MOL0     C31599   0.642   7.415   8.072 -0.3076 -0.7217  0.5540
  235MOL0     C31600   0.788   7.365   8.063 -0.0983  0.5490  0.3432
  235MOL0     C31601   0.797   7.222   8.104 -0.5126  0.2213 -0.4834
  235MOL0     C31602   0.948   7.175   8.135 -0.2071  0.0049  0.0078
  235MOL0     C31603   0.991   7.223   8.273 -0.3999  0.0703 -0.7441
  235MOL0     C31604   1.108   7.133   8.316 -0.3874 -0.2190 -0.5158
  235MOL0     C31605   1.237   7.143   8.234 -0.2130 -0.4349 -0.6041
  235MOL0     C31606   1.353   7.060   8.292 -0.2121  1.1160 -0.8707
  235MOL0     N31607   1.395   7.070   8.435  0.1682 -0.3599 -0.0422
  235MOL0     C31608   1.398   6.966   8.524 -0.0149  0.4006  0.6318
  235MOL0     C31609   1.403   7.026   8.642  0.1421  0.1338 -1.1137
  235MOL0     C31610   1.445   6.961   8.768 -0.2270  0.1272  0.5516
  235MOL0     C31611   1.452   7.057   8.891 -0.0500 -0.5833  0.8125
  235MOL0     C31612   1.565   7.169   8.885 -0.2058  0.8166  0.5967
  235MOL0     C31613   1.580   7.227   9.029 -0.0942  0.2445  0.1994
  235MOL0     O31614   1.625   7.362   9.022  0.1959 -0.0015  0.5536
  235MOL0     C31615   1.655   7.428   9.136 -0.1887  0.0394  0.7944
  235MOL0     C31616   1.678   7.563   9.135  0.7823  0.4927 -0.3113
  235MOL0     C31617   1.701   7.648   9.238 -0.3704  0.2676 -0.7151
  235MOL0     C31618   1.726   7.785   9.215  0.7793 -0.5615 -0.1594
  235MOL0     C31619   1.716   7.599   9.371  0.1298  0.8699  0.4186
  235MOL0     C31620   1.746   7.678   9.491  0.2057 -0.0482 -0.1452
  235MOL0     O31621   1.736   7.813   9.495 -0.4847 -0.3302 -0.0304
  235MOL0     C31622   1.794   7.896   9.596 -0.8084  0.2732 -1.4623
  235MOL0     C31623   1.880   7.838   9.696 -0.2555 -0.8342  1.0566
  235MOL0     C31624   1.917   7.912   9.807  0.3462 -0.0030 -0.6245
  235MOL0     C31625   1.883   8.047   9.815 -0.8189 -0.2478 -0.5995
  235MOL0     O31626   1.932   8.133   9.912 -0.3476  0.3669  0.2112
  235MOL0     C31627   1.841   8.176  10.019 -0.2468 -0.0195 -0.8638
  235MOL0     C31628   1.922   8.180  10.154  0.6651  0.5936  0.4084
  235MOL0     C31629   1.861   8.263  10.266  0.0023  0.6021 -0.3851
  235MOL0     C31630   1.880   8.225  10.415  0.0975 -1.1194 -0.4328
  235MOL0     C31631   1.816   8.086  10.437  0.0961  0.4222  0.1553
  235MOL0     C31632   1.873   8.013  10.567 -0.0377 -0.4141  0.3880
  235MOL0     C31633   1.783   7.902  10.618  0.3667 -0.4889 -0.0690
  235MOL0     C31634   1.638   7.936  10.639  0.2918  1.0373  0.0754
  235MOL0    Cl31635   1.625   8.065  10.765 -0.4135  0.1336 -0.1273
  235MOL0     C31636   1.810   8.106   9.709 -0.2334  0.2294 -0.9345
  235MOL0     C31637   1.757   8.030   9.610  0.1481  0.1239  0.0117
  235MOL0     O31638   1.756   7.604   9.587 -0.2820  0.1522 -0.5876
  235MOL0     C31639   1.711   7.453   9.373  0.3303 -0.0269 -0.9572
  235MOL0     C31640   1.664   7.375   9.262  0.1630 -0.3000  0.2796
  235MOL0     N31641   1.387   7.160   8.632  0.6306 -0.5327 -0.9975
  235MOL0     N31642   1.388   7.185   8.510 -0.5293  0.4156  0.0444
  235MOL0     C31643   0.350   7.429   8.124  0.4412  0.0114  0.7342
  235MOL0     C31644   0.222   7.375   8.117 -0.8283 -0.0174 -0.3772
  235MOL0     C31645  -0.129   7.111   8.184 -1.9060 -0.5551  1.1877
  235MOL0     C31646  -0.200   6.998   8.211 -0.3508 -0.1804  0.3927
  235MOL0     C31647  -0.336   6.989   8.197 -0.2848 -0.0407  0.0950
  235MOL0     C31648  -0.401   7.088   8.127  0.3165  0.1777  0.4290
  235MOL0     O31649  -0.534   7.101   8.100  0.5398  0.3134 -0.6329
  235MOL0     C31650  -0.623   7.002   8.147  0.6758 -0.6015  0.4284
  235MOL0     C31651  -0.766   7.032   8.086  0.5515 -0.5241  0.3613
  235MOL0     C31652  -0.771   7.014   7.938 -0.0229 -0.2450  0.8330
  235MOL0     C31653  -0.888   7.095   7.879 -0.0913  0.1014  0.6054
  235MOL0     C31654  -0.933   7.066   7.745 -0.3219  0.2526  0.3170
  235MOL0     C31655  -0.979   7.018   7.636 -0.2829  0.0007 -0.0171
  235MOL0     C31656  -0.331   7.198   8.079 -0.4869  0.1567 -0.4787
  235MOL0     C31657  -0.196   7.205   8.109 -0.2527 -0.5169  1.2473
  235MOL0     H31658   0.246   7.137   8.349  0.4778  0.5873  2.4785
  235MOL0     H31659   0.484   7.235   8.367  0.0478 -0.6264 -1.9997
  235MOL0     H31660   0.582   7.376   7.989  3.4995 -1.8107 -1.9564
  235MOL0     H31661   0.647   7.522   8.049 -0.1216 -0.1628  3.0052
  235MOL0     H31662   0.828   7.382   7.962  2.1380 -1.6988  0.7516
  235MOL0     H31663   0.856   7.434   8.114 -0.3639  0.6082  0.6172
  235MOL0     H31664   0.743   7.198   8.196  2.1620 -2.6271  0.5589
  235MOL0     H31665   0.768   7.152   8.025 -1.1699  0.7814 -0.7457
  235MOL0     H31666   0.938   7.066   8.138 -2.8122  0.2049  0.5376
  235MOL0     H31667   1.013   7.207   8.053 -2.1241  0.8510 -1.2489
  235MOL0     H31668   1.008   7.330   8.263 -3.1413  0.5337 -1.0552
  235MOL0     H31669   0.908   7.214   8.343 -0.4872  2.8453 -0.4100
  235MOL0     H31670   1.145   7.168   8.413 -0.2120  1.0427 -1.0160
  235MOL0     H31671   1.079   7.029   8.326  2.1579 -0.8804  0.8298
  235MOL0     H31672   1.203   7.092   8.142 -2.6555  0.6608 -0.3912
  235MOL0     H31673   1.270   7.246   8.219 -0.8539 -0.1871 -0.3831
  235MOL0     H31674   1.435   7.053   8.220  0.6886  1.7703  0.0768
  235MOL0     H31675   1.318   6.956   8.296  3.1779 -0.2093 -1.8003
  235MOL0     H31676   1.400   6.859   8.510 -2.5120  0.4150 -0.2487
  235MOL0     H31677   1.378   6.879   8.797 -2.6300  2.3261  1.6021
  235MOL0     H31678   1.542   6.915   8.749 -0.6473 -1.1158  1.3025
  235MOL0     H31679   1.467   6.995   8.980  1.0865 -1.2156  0.2042
  235MOL0     H31680   1.359   7.107   8.916  1.7782  2.8392  1.3705
  235MOL0     H31681   1.537   7.255   8.823 -1.2280  0.2977  0.3076
  235MOL0     H31682   1.659   7.122   8.856 -0.6832  0.9700 -1.3450
  235MOL0     H31683   1.638   7.159   9.092  1.4138  1.7030  0.4739
  235MOL0     H31684   1.484   7.218   9.081 -0.8216 -2.0195 -1.3747
  235MOL0     H31685   1.679   7.613   9.038  0.4164  0.4355 -0.3469
  235MOL0     H31686   1.749   7.808   9.111  0.0837 -3.0917 -0.9404
  235MOL0     H31687   1.637   7.838   9.250  2.0446  1.5276  0.0953
  235MOL0     H31688   1.813   7.827   9.267 -2.1160  3.2006  2.1982
  235MOL0     H31689   1.915   7.736   9.693 -0.4755 -0.8821 -1.1923
  235MOL0     H31690   1.978   7.870   9.887 -2.2311 -0.9160  1.0055
  235MOL0     H31691   1.827   8.280   9.989 -0.4922 -0.2548 -1.5983
  235MOL0     H31692   1.753   8.118  10.048 -0.9067  2.5923  3.1284
  235MOL0     H31693   1.940   8.078  10.189  1.3538  0.3772 -0.5229
  235MOL0     H31694   2.019   8.212  10.115  0.2797  1.8176  0.4349
  235MOL0     H31695   1.754   8.276  10.247  0.3109  1.3504 -1.7685
  235MOL0     H31696   1.899   8.363  10.239 -2.4239  1.7895  0.3052
  235MOL0     H31697   1.986   8.229  10.443  0.8320  4.5724 -2.5575
  235MOL0     H31698   1.833   8.291  10.488  0.7183 -2.2176  1.0181
  235MOL0     H31699   1.839   8.020  10.353  3.5850 -1.1445  2.1816
  235MOL0     H31700   1.706   8.089  10.442  0.0362 -0.4148 -0.4307
  235MOL0     H31701   1.975   7.979  10.547  0.1707  0.0689  0.6203
  235MOL0     H31702   1.879   8.088  10.646  2.5702 -0.4493  0.3066
  235MOL0     H31703   1.819   7.876  10.718  2.4578  1.2337 -0.3031
  235MOL0     H31704   1.791   7.817  10.550  0.5778 -0.0469 -0.5993
  235MOL0     H31705   1.582   7.845  10.660  3.0766 -1.4108 -2.1785
  235MOL0     H31706   1.600   7.972  10.544  1.2133  2.3596  0.1699
  235MOL0     H31707   1.781   8.210   9.717 -0.8610  0.3304 -3.5805
  235MOL0     H31708   1.690   8.086   9.545  1.4888  0.4781 -1.1442
  235MOL0     H31709   1.721   7.404   9.469  1.0413  1.5152 -0.2211
  235MOL0     H31710   1.640   7.270   9.271 -2.1500 -0.2570 -3.3485
  235MOL0     H31711   0.371   7.502   8.046  2.1559 -2.7436 -1.5826
  235MOL0     H31712   0.150   7.402   8.040  1.5979  0.5160 -2.5870
  235MOL0     H31713  -0.157   6.907   8.249  0.4590 -1.2107 -2.7066
  235MOL0     H31714  -0.388   6.897   8.222  1.2521 -0.6756  1.1528
  235MOL0     H31715  -0.584   6.902   8.129  1.5983 -0.2874  0.6186
  235MOL0     H31716  -0.625   7.013   8.256  0.5821  0.6603  0.3175
  235MOL0     H31717  -0.784   7.137   8.111 -2.3526 -0.3117 -1.9930
  235MOL0     H31718  -0.841   6.959   8.120 -0.0165  0.1491  0.5829
  235MOL0     H31719  -0.802   6.910   7.927 -0.2369 -0.3756  2.4601
  235MOL0     H31720  -0.680   7.044   7.886 -0.2975 -0.6527  0.1111
  235MOL0     H31721  -0.860   7.201   7.871 -0.4334  0.1389 -0.1910
  235MOL0     H31722  -0.981   7.094   7.937 -1.6772  3.3461 -1.5461
  235MOL0     H31723  -1.022   6.963   7.555 -1.6957 -1.2927  1.5272
  235MOL0     H31724  -0.381   7.281   8.031  2.5124  0.3694 -3.6132
  235MOL0     H31725  -0.137   7.284   8.066 -3.8637  1.3799 -0.6221
  236MOL0     O31726   4.393   7.940   3.830  0.6874 -0.1251  0.8578
  236MOL0     C31727   4.426   7.828   3.857 -0.2732 -0.3301  0.3320
  236MOL0     O31728   4.366   7.714   3.838 -0.0166  0.7603 -0.7899
  236MOL0     C31729   4.260   7.698   3.753  0.5681 -0.7501 -0.5070
  236MOL0     C31730   4.217   7.567   3.725 -0.3133 -0.6841  0.0182
  236MOL0     C31731   4.117   7.533   3.635  0.8170 -0.7863 -0.6114
  236MOL0     C31732   4.041   7.635   3.589  0.5227  0.3167 -0.0808
  236MOL0     O31733   3.949   7.607   3.498 -0.6403  0.5746 -0.2439
  236MOL0     C31734   3.947   7.677   3.367 -0.1834 -0.2471 -0.3755
  236MOL0     C31735   3.881   7.581   3.259  0.0133 -0.2067  0.8508
  236MOL0     C31736   3.732   7.582   3.284  0.4666  1.1028  0.9329
  236MOL0     C31737   3.656   7.501   3.168 -0.3375 -0.1685 -1.3702
  236MOL0     C31738   3.517   7.506   3.210  0.0577  0.8744  0.2336
  236MOL0     C31739   3.487   7.383   3.284 -0.0681  0.6428 -0.0314
  236MOL0     C31740   3.376   7.409   3.382 -0.0132  0.4125 -1.1243
  236MOL0     C31741   3.238   7.436   3.306 -0.4465 -0.3149 -0.6446
  236MOL0     N31742   3.185   7.320   3.243 -0.1254  0.1588  0.1334
  236MOL0     C31743   3.221   7.292   3.119 -0.1125 -0.0978  0.3805
  236MOL0     C31744   3.158   7.176   3.088  0.5721 -0.0943 -0.7272
  236MOL0     C31745   3.169   7.090   2.969  0.7355  0.5960  0.8795
  236MOL0     C31746   3.113   7.162   2.842  0.3252  0.4458  0.3826
  236MOL0     C31747   3.057   7.065   2.729  0.2735  0.1803 -0.3102
  236MOL0     C31748   3.145   6.942   2.691  0.1201 -1.2695 -0.2254
  236MOL0     O31749   3.248   6.990   2.610 -0.6823 -0.3651 -0.6744
  236MOL0     C31750   3.227   7.011   2.477 -0.2595  0.9807 -0.4182
  236MOL0     C31751   3.340   7.071   2.414 -0.0507  1.2998  0.6363
  236MOL0     C31752   3.350   7.073   2.275  1.5128 -1.1671  0.0070
  236MOL0     C31753   3.488   7.116   2.218  0.0084  0.0712 -0.4131
  236MOL0     C31754   3.244   7.019   2.199  0.5135 -0.0171 -0.1676
  236MOL0     C31755   3.247   7.028   2.050 -0.7983 -0.7999 -0.5026
  236MOL0     O31756   3.297   7.141   2.003  0.3172 -0.9919  0.1407
  236MOL0     C31757   3.276   7.167   1.868 -0.6251 -0.5804 -0.9522
  236MOL0     C31758   3.183   7.111   1.781  0.1668 -0.1837 -0.5139
  236MOL0     C31759   3.193   7.139   1.649  0.8788  0.8171 -0.1521
  236MOL0     C31760   3.293   7.220   1.595  0.8117  0.1832 -0.7845
  236MOL0     O31761   3.283   7.245   1.465 -0.3700 -0.3540 -0.3434
  236MOL0     C31762   3.398   7.225   1.386  0.3112  0.7723 -0.3216
  236MOL0     C31763   3.377   7.153   1.252  0.0036 -0.1163  0.0652
  236MOL0     C31764   3.260   7.229   1.184  0.5523 -0.1012 -0.3715
  236MOL0     C31765   3.256   7.162   1.046  0.2103 -0.1063 -0.3645
  236MOL0     C31766   3.216   7.251   0.926 -0.3452  0.3610  0.7629
  236MOL0     C31767   3.079   7.329   0.936  0.2057  0.8557 -0.5427
  236MOL0     C31768   3.074   7.457   0.835 -0.1181 -0.3962  1.2290
  236MOL0     C31769   3.166   7.573   0.891 -0.1731 -0.2153  0.7971
  236MOL0    Cl31770   3.128   7.648   1.049 -0.2337  0.3759  0.3193
  236MOL0     C31771   3.392   7.269   1.681 -0.1535  0.1170 -0.2699
  236MOL0     C31772   3.379   7.241   1.818 -0.2445  0.7698 -1.0339
  236MOL0     O31773   3.222   6.924   1.988  0.1595  0.4889 -1.0951
  236MOL0     C31774   3.129   6.970   2.260  0.4128 -0.6309  1.3580
  236MOL0     C31775   3.118   6.964   2.397  0.4678 -0.1756  0.7592
  236MOL0     N31776   3.099   7.125   3.196 -0.0315  1.1078 -0.4785
  236MOL0     N31777   3.119   7.217   3.296  0.6171  0.6331 -0.6016
  236MOL0     C31778   4.083   7.765   3.612  0.1201 -0.7166  0.6998
  236MOL0     C31779   4.187   7.802   3.695 -0.0990 -0.0327  0.4952
  236MOL0     C31780   4.556   7.803   3.916  0.2129 -0.8856 -0.5842
  236MOL0     C31781   4.618   7.676   3.922  0.6428  0.4323  0.3880
  236MOL0     C31782   4.734   7.650   3.990  0.1046 -0.3245  0.8626
  236MOL0     C31783   4.803   7.762   4.040  0.4957  1.0991 -0.7890
  236MOL0     O31784   4.925   7.752   4.115 -0.2384  0.0987  0.4087
  236MOL0     C31785   5.013   7.631   4.100  0.8557 -0.1502  0.0190
  236MOL0     C31786   4.963   7.535   4.214  0.1574  0.2787  0.1214
  236MOL0     C31787   5.079   7.458   4.291  0.8809 -0.4760 -0.8559
  236MOL0     C31788   5.175   7.381   4.202 -0.5224 -0.0779 -0.3460
  236MOL0     C31789   5.321   7.420   4.221  0.9412  0.5239 -0.6502
  236MOL0     C31790   5.440   7.454   4.234  0.4817  0.0830  0.1871
  236MOL0     C31791   4.744   7.890   4.025  0.5295  0.2519  0.6105
  236MOL0     C31792   4.626   7.910   3.964 -0.5507  1.3377  0.3108
  236MOL0     H31793   4.279   7.491   3.773  0.4664  0.7052  1.3125
  236MOL0     H31794   4.110   7.428   3.609  1.6288 -0.4995 -2.0899
  236MOL0     H31795   3.884   7.766   3.381 -0.7380 -0.6062 -0.5562
  236MOL0     H31796   4.042   7.707   3.321 -1.0420  2.2224 -0.7246
  236MOL0     H31797   3.899   7.626   3.161 -0.5925  1.3100  1.4101
  236MOL0     H31798   3.930   7.483   3.256 -0.8697 -0.6661  1.1229
  236MOL0     H31799   3.709   7.541   3.383  0.0696 -0.0014  0.3964
  236MOL0     H31800   3.686   7.681   3.277  1.6960  1.5790 -3.5300
  236MOL0     H31801   3.660   7.557   3.074 -0.3895 -2.2567 -2.6733
  236MOL0     H31802   3.704   7.403   3.159 -1.0977 -0.5604 -1.1826
  236MOL0     H31803   3.483   7.593   3.268 -0.3213  0.5401  0.5139
  236MOL0     H31804   3.464   7.504   3.115  1.8834  1.0623 -0.8448
  236MOL0     H31805   3.459   7.316   3.202  1.8960 -0.4506  0.1177
  236MOL0     H31806   3.570   7.337   3.339  0.8211  0.0615 -1.7837
  236MOL0     H31807   3.385   7.327   3.453  0.7235  0.6914 -0.8848
  236MOL0     H31808   3.409   7.494   3.443  0.0898  1.9107 -3.1383
  236MOL0     H31809   3.247   7.526   3.243  0.3922  1.4632  1.8499
  236MOL0     H31810   3.167   7.461   3.385 -0.6535  3.5932 -1.8325
  236MOL0     H31811   3.298   7.341   3.061  0.3224  0.1692  1.1619
  236MOL0     H31812   3.265   7.038   2.958  0.4026  0.5281 -3.6088
  236MOL0     H31813   3.100   7.007   2.986 -2.4982  1.7828 -4.4081
  236MOL0     H31814   3.189   7.223   2.793  0.3908 -2.0285 -2.9475
  236MOL0     H31815   3.030   7.224   2.875  0.7654  1.2763 -0.0512
  236MOL0     H31816   3.028   7.126   2.642 -0.6976  1.8030  1.0826
  236MOL0     H31817   2.963   7.028   2.770  0.6189  2.5713  3.0720
  236MOL0     H31818   3.086   6.871   2.632 -3.4009  0.2340  1.2146
  236MOL0     H31819   3.180   6.897   2.784 -1.1733 -1.1912  0.3307
  236MOL0     H31820   3.429   7.076   2.476  0.2739 -0.1466  0.3216
  236MOL0     H31821   3.503   7.167   2.122  0.6878 -2.0644 -1.5249
  236MOL0     H31822   3.526   7.182   2.296 -0.2625 -0.1125 -0.1257
  236MOL0     H31823   3.547   7.024   2.230 -1.6007 -0.7795  1.6340
  236MOL0     H31824   3.114   7.038   1.822  1.1677  1.1768  4.1920
  236MOL0     H31825   3.125   7.096   1.576  0.4437 -0.6385  1.0505
  236MOL0     H31826   3.438   7.323   1.362  0.5250  0.6747 -0.3602
  236MOL0     H31827   3.463   7.159   1.445 -0.9100 -0.2285 -0.0474
  236MOL0     H31828   3.466   7.155   1.189  1.3246  0.0386  1.8772
  236MOL0     H31829   3.358   7.049   1.279  0.6705  0.1444  1.6609
  236MOL0     H31830   3.286   7.335   1.177 -1.6185  0.3643 -2.3679
  236MOL0     H31831   3.168   7.206   1.239  0.9782  5.2602  3.2808
  236MOL0     H31832   3.343   7.104   1.015  0.1193 -1.5017  1.7452
  236MOL0     H31833   3.184   7.081   1.057 -0.0915  0.4476  2.3595
  236MOL0     H31834   3.214   7.186   0.838 -1.2825  3.2743 -1.5245
  236MOL0     H31835   3.284   7.334   0.905 -1.5916  1.6977  1.8691
  236MOL0     H31836   2.996   7.261   0.914  1.3615 -0.4667 -0.9689
  236MOL0     H31837   3.050   7.371   1.033 -0.6186 -0.0892 -0.3702
  236MOL0     H31838   2.972   7.488   0.814  1.0490  2.2550 -1.2335
  236MOL0     H31839   3.118   7.433   0.738 -0.9772  1.5787  0.3066
  236MOL0     H31840   3.155   7.653   0.817  0.3393  0.0563  1.0123
  236MOL0     H31841   3.272   7.546   0.886  0.1178  0.9316  0.3948
  236MOL0     H31842   3.468   7.337   1.646 -1.6329  0.7241 -2.5024
  236MOL0     H31843   3.456   7.260   1.891 -0.1366  0.1186 -0.9663
  236MOL0     H31844   3.040   6.937   2.209 -0.1643 -0.3103  2.1404
  236MOL0     H31845   3.024   6.926   2.435  0.4338 -0.6501  0.2100
  236MOL0     H31846   4.036   7.847   3.559  5.2396  2.0440 -0.1973
  236MOL0     H31847   4.203   7.909   3.706 -0.2561  0.2196 -1.3952
  236MOL0     H31848   4.575   7.586   3.881  1.3921 -0.6524  1.8878
  236MOL0     H31849   4.768   7.549   4.010  1.5498 -0.1376 -0.4689
  236MOL0     H31850   5.009   7.591   3.998  3.3308 -2.4511  0.6901
  236MOL0     H31851   5.118   7.653   4.122  1.3533 -3.8550  2.2187
  236MOL0     H31852   4.892   7.463   4.171 -1.9725  1.5974  1.2202
  236MOL0     H31853   4.903   7.587   4.289 -2.8084 -2.5164 -0.0678
  236MOL0     H31854   5.025   7.398   4.365 -3.1670  2.0757 -1.4395
  236MOL0     H31855   5.133   7.524   4.359 -1.2940 -1.7448  2.3675
  236MOL0     H31856   5.147   7.402   4.098 -1.8303 -1.4490 -0.3138
  236MOL0     H31857   5.167   7.273   4.215  0.9400 -0.3086 -1.2150
  236MOL0     H31858   5.546   7.469   4.231  0.8922 -2.2395 -3.3892
  236MOL0     H31859   4.790   7.979   4.067 -1.7189  1.2544  1.1158
  236MOL0     H31860   4.599   8.015   3.962  1.3166  1.9393  2.3780
  237MOL0     O31861   3.227   6.736   6.251 -0.1699  0.2596  0.8585
  237MOL0     C31862   3.271   6.651   6.330  1.2044  0.4436  0.7162
  237MOL0     O31863   3.293   6.521   6.297 -0.7369  0.4133 -0.2907
  237MOL0     C31864   3.296   6.488   6.168 -0.0361 -0.4316 -0.0365
  237MOL0     C31865   3.176   6.445   6.108  0.4568  0.1831 -0.8181
  237MOL0     C31866   3.184   6.380   5.977  0.1409 -0.4952  0.2963
  237MOL0     C31867   3.312   6.371   5.910  0.1249  0.3472  0.8576
  237MOL0     O31868   3.310   6.297   5.793  0.2185 -0.0656 -0.0049
  237MOL0     C31869   3.390   6.356   5.694 -0.2201 -1.4234 -0.9571
  237MOL0     C31870   3.368   6.310   5.555  0.4464  0.5019  0.2158
  237MOL0     C31871   3.486   6.371   5.470  0.4643  0.1981  0.5743
  237MOL0     C31872   3.517   6.283   5.347  0.1871 -0.5960 -1.2777
  237MOL0     C31873   3.578   6.370   5.243 -0.8736 -0.1590  0.0068
  237MOL0     C31874   3.615   6.296   5.113  1.2945  0.0908  0.3207
  237MOL0     C31875   3.717   6.185   5.131  0.4790  0.0001  0.2809
  237MOL0     C31876   3.782   6.125   5.003  0.7282 -0.1251 -0.3886
  237MOL0     N31877   3.680   6.081   4.908  0.6532  0.0669 -0.2947
  237MOL0     C31878   3.547   6.037   4.923  0.3961 -0.3719  0.0607
  237MOL0     C31879   3.514   5.984   4.801 -0.1390 -0.4597 -0.0419
  237MOL0     C31880   3.383   5.910   4.782 -0.5299 -1.0803 -0.7828
  237MOL0     C31881   3.376   5.856   4.644  0.0211 -0.0840 -0.2107
  237MOL0     C31882   3.482   5.749   4.616  0.3874 -0.5164  0.0342
  237MOL0     C31883   3.535   5.750   4.471  0.7741 -0.1329 -0.2282
  237MOL0     O31884   3.422   5.734   4.381 -0.1889 -0.8407  0.2719
  237MOL0     C31885   3.443   5.723   4.245  0.4299  0.2824 -0.6037
  237MOL0     C31886   3.333   5.694   4.162  0.3807 -0.0454  1.1528
  237MOL0     C31887   3.350   5.674   4.025 -0.2743  0.3723  0.3721
  237MOL0     C31888   3.232   5.644   3.947 -0.0723  0.1591 -0.0907
  237MOL0     C31889   3.476   5.678   3.968  1.3447 -0.3072 -0.1499
  237MOL0     C31890   3.484   5.642   3.827 -0.2051  0.4117  0.4911
  237MOL0     O31891   3.490   5.730   3.727 -0.3053  0.4570  0.0114
  237MOL0     C31892   3.555   5.693   3.611 -0.3182 -0.5780 -0.3828
  237MOL0     C31893   3.531   5.772   3.498 -0.4545  0.1010  0.5358
  237MOL0     C31894   3.587   5.745   3.374  0.3708  0.1203  0.3561
  237MOL0     C31895   3.670   5.638   3.364 -0.2502  0.1540 -0.4607
  237MOL0     O31896   3.723   5.611   3.241  0.4314 -0.2077 -0.0475
  237MOL0     C31897   3.788   5.709   3.167 -0.9547 -0.0440  0.1958
  237MOL0     C31898   3.946   5.719   3.204  0.6241 -1.0248 -0.9096
  237MOL0     C31899   4.003   5.828   3.112  0.2458 -0.8722 -0.1943
  237MOL0     C31900   4.155   5.827   3.136  0.4196 -0.1103  0.1150
  237MOL0     C31901   4.225   5.941   3.045  1.4772  0.0103 -0.5424
  237MOL0     C31902   4.378   5.915   3.042  1.3315 -0.7628 -0.5455
  237MOL0     C31903   4.431   5.948   2.902 -0.5202 -0.2057  1.1595
  237MOL0     C31904   4.582   5.965   2.903  0.8442  1.1194 -0.8961
  237MOL0    Cl31905   4.636   6.107   2.990  0.4062  0.2402 -0.2462
  237MOL0     C31906   3.700   5.558   3.470  0.6107  0.5010  0.8586
  237MOL0     C31907   3.638   5.583   3.591  0.6409  0.1567 -0.8567
  237MOL0     O31908   3.480   5.521   3.816 -0.0867 -0.4329  0.3149
  237MOL0     C31909   3.584   5.701   4.049 -0.0138 -0.3009 -0.0688
  237MOL0     C31910   3.570   5.730   4.189  0.3648 -0.3561 -0.2191
  237MOL0     N31911   3.618   6.021   4.708 -1.1812  0.2026 -0.3633
  237MOL0     N31912   3.714   6.081   4.773  0.5100  0.5695 -1.5622
  237MOL0     C31913   3.419   6.422   5.969 -0.0012  0.4298  0.9276
  237MOL0     C31914   3.413   6.480   6.096  0.2724 -0.8385 -0.8069
  237MOL0     C31915   3.329   6.718   6.450 -0.6780 -0.4665  0.1792
  237MOL0     C31916   3.246   6.809   6.519 -0.7311  1.3067  0.5311
  237MOL0     C31917   3.301   6.876   6.631  0.0349  0.3755  0.0358
  237MOL0     C31918   3.438   6.844   6.678 -0.0056 -0.8377 -0.7698
  237MOL0     O31919   3.464   6.908   6.799  0.1113 -0.4688 -0.3915
  237MOL0     C31920   3.602   6.901   6.850  0.0141  0.6647 -1.1654
  237MOL0     C31921   3.617   7.017   6.947  0.2503 -0.5948  0.7619
  237MOL0     C31922   3.558   6.975   7.082 -0.8219  0.4907 -0.1722
  237MOL0     C31923   3.645   6.874   7.174 -0.3840 -0.4747  0.2115
  237MOL0     C31924   3.767   6.960   7.202  0.0116  0.8422  0.3727
  237MOL0     C31925   3.879   7.010   7.224 -0.3714  0.7530  0.3016
  237MOL0     C31926   3.506   6.750   6.612 -0.8580  0.7185 -0.3816
  237MOL0     C31927   3.460   6.689   6.492  0.0608  1.1391 -0.8014
  237MOL0     H31928   3.082   6.434   6.161  1.6040  0.5710  1.3878
  237MOL0     H31929   3.106   6.310   5.949  1.3858 -0.9558 -2.3270
  237MOL0     H31930   3.389   6.464   5.712  0.6880 -1.1742 -2.2065
  237MOL0     H31931   3.495   6.336   5.717  0.4130  1.4661 -0.9304
  237MOL0     H31932   3.363   6.201   5.554 -2.6392  0.4835  2.5173
  237MOL0     H31933   3.272   6.353   5.525 -0.7435 -1.3372  1.1826
  237MOL0     H31934   3.445   6.469   5.443  0.3352 -0.6676 -2.8053
  237MOL0     H31935   3.574   6.392   5.531  0.3606 -1.4795  1.3639
  237MOL0     H31936   3.584   6.201   5.372 -1.9151 -1.9593  0.2765
  237MOL0     H31937   3.427   6.241   5.302 -1.4134  0.6952  0.5194
  237MOL0     H31938   3.516   6.459   5.224  0.3475  1.5852  3.3978
  237MOL0     H31939   3.664   6.412   5.295 -0.8030  0.1242 -0.3346
  237MOL0     H31940   3.526   6.249   5.070  1.8865  1.2196 -2.3516
  237MOL0     H31941   3.648   6.371   5.040  1.8633  1.2849  1.7440
  237MOL0     H31942   3.800   6.228   5.188  0.2863 -2.3588  2.4600
  237MOL0     H31943   3.678   6.110   5.200  0.2566 -0.2656 -0.1302
  237MOL0     H31944   3.842   6.041   5.041  1.0023  1.3523  2.8458
  237MOL0     H31945   3.848   6.200   4.960 -2.3525  2.4254 -1.0659
  237MOL0     H31946   3.499   6.026   5.020  3.1247  1.2198  1.7345
  237MOL0     H31947   3.374   5.839   4.865  0.2498  1.2300  1.3751
  237MOL0     H31948   3.297   5.976   4.788  0.3695  0.0306  0.1505
  237MOL0     H31949   3.382   5.932   4.565 -1.5425 -0.0800 -0.3581
  237MOL0     H31950   3.286   5.794   4.638  1.4678 -2.1944 -1.8936
  237MOL0     H31951   3.429   5.653   4.619 -0.6112 -0.0240 -1.0629
  237MOL0     H31952   3.574   5.752   4.675  0.3437  2.5659  0.1013
  237MOL0     H31953   3.608   5.669   4.460 -0.8238 -1.6053 -0.3729
  237MOL0     H31954   3.587   5.845   4.457  0.1654  0.5695  1.9140
  237MOL0     H31955   3.234   5.701   4.207  1.0026  2.6929  2.3262
  237MOL0     H31956   3.246   5.543   3.908 -2.9209 -2.3449  4.4054
  237MOL0     H31957   3.142   5.633   4.008  0.7679 -4.0537  0.6741
  237MOL0     H31958   3.227   5.722   3.871 -0.7315 -2.5097 -2.9425
  237MOL0     H31959   3.450   5.841   3.481  1.5572  2.2314 -1.0138
  237MOL0     H31960   3.556   5.792   3.281 -1.7577  0.8614  1.3618
  237MOL0     H31961   3.786   5.685   3.061 -0.3645  1.2513 -0.1193
  237MOL0     H31962   3.738   5.805   3.182 -0.1776  0.1232  2.0269
  237MOL0     H31963   3.956   5.753   3.307 -0.6922 -0.9686 -0.7864
  237MOL0     H31964   3.984   5.617   3.200  1.1634 -1.0784  2.4691
  237MOL0     H31965   3.965   5.926   3.143 -0.8915 -1.2209 -0.4170
  237MOL0     H31966   3.978   5.811   3.007  0.7446  0.1180 -0.4887
  237MOL0     H31967   4.172   5.852   3.241 -0.2325  2.0547 -0.2422
  237MOL0     H31968   4.203   5.733   3.108  1.9846  0.6504  0.0949
  237MOL0     H31969   4.204   6.035   3.096  0.5625 -0.3019 -0.3195
  237MOL0     H31970   4.171   5.951   2.951  1.1513  0.6599 -0.2890
  237MOL0     H31971   4.420   5.975   3.123  0.6455 -1.9893  0.7543
  237MOL0     H31972   4.403   5.810   3.062  1.2660 -1.2544 -2.7933
  237MOL0     H31973   4.383   6.041   2.869 -2.7700 -2.1165 -1.4364
  237MOL0     H31974   4.407   5.867   2.832 -2.2553 -1.5138  3.1519
  237MOL0     H31975   4.613   5.985   2.800  0.1714  0.6910 -1.1898
  237MOL0     H31976   4.633   5.880   2.949 -1.0837  1.2726  1.7587
  237MOL0     H31977   3.787   5.494   3.460 -0.3508 -0.6513 -0.4928
  237MOL0     H31978   3.665   5.516   3.672 -0.4494 -0.1231 -0.7022
  237MOL0     H31979   3.681   5.705   4.000 -1.5959  0.9953 -3.3983
  237MOL0     H31980   3.661   5.752   4.242  0.4351  2.6903 -1.3964
  237MOL0     H31981   3.512   6.413   5.915 -1.4611 -2.0823 -1.4754
  237MOL0     H31982   3.500   6.502   6.157  1.1856  0.4200 -2.4816
  237MOL0     H31983   3.146   6.825   6.481 -0.9361  2.6104  1.5788
  237MOL0     H31984   3.238   6.942   6.690 -2.5351 -0.1928 -1.8934
  237MOL0     H31985   3.615   6.802   6.894 -0.6197  1.2948  0.5131
  237MOL0     H31986   3.682   6.916   6.777  0.2156  2.1316 -0.6707
  237MOL0     H31987   3.563   7.105   6.911 -0.7503 -1.0121  1.1895
  237MOL0     H31988   3.724   7.033   6.959 -0.2286  2.1408  2.1010
  237MOL0     H31989   3.457   6.938   7.064 -0.7998  0.9420 -1.3200
  237MOL0     H31990   3.550   7.063   7.147  0.9121  0.5242  0.0565
  237MOL0     H31991   3.666   6.789   7.109 -1.4769 -0.0848 -0.6862
  237MOL0     H31992   3.588   6.859   7.266 -0.3175  4.6533  1.4054
  237MOL0     H31993   3.964   7.064   7.262  2.0110 -0.1418 -3.3072
  237MOL0     H31994   3.605   6.726   6.650 -1.6668 -2.8712 -0.2065
  237MOL0     H31995   3.503   6.610   6.431 -1.8112  1.3660 -2.5454
  238MOL0     O31996   1.900   4.106   4.633 -0.1250  0.4586 -0.1413
  238MOL0     C31997   1.863   4.140   4.743  0.6117 -0.0313 -0.0533
  238MOL0     O31998   1.883   4.078   4.870 -0.4890  0.3677  0.4865
  238MOL0     C31999   1.969   3.967   4.879 -0.0131  0.5225 -0.0647
  238MOL0     C32000   2.009   3.876   4.776  0.0747  0.5420 -0.1206
  238MOL0     C32001   2.099   3.767   4.795  0.3169  1.0956 -1.1434
  238MOL0     C32002   2.146   3.750   4.923  0.8935  0.3804  0.3288
  238MOL0     O32003   2.231   3.657   4.967 -0.2791  0.4328 -0.5227
  238MOL0     C32004   2.277   3.554   4.876  0.1960 -0.2175  0.0383
  238MOL0     C32005   2.169   3.448   4.860 -0.8820 -0.4976  1.3027
  238MOL0     C32006   2.206   3.345   4.754  0.0588  0.6615  0.5240
  238MOL0     C32007   2.096   3.247   4.731 -0.2670  1.0668 -0.2279
  238MOL0     C32008   2.107   3.153   4.609 -0.0401 -0.0708  0.3971
  238MOL0     C32009   2.233   3.066   4.615 -0.1549 -0.8607  0.3347
  238MOL0     C32010   2.215   2.971   4.494 -0.7101 -0.0093  0.1561
  238MOL0     C32011   2.344   2.889   4.467 -0.3206  0.6573  1.2463
  238MOL0     N32012   2.396   2.807   4.584 -0.2949 -0.3704  0.1589
  238MOL0     C32013   2.447   2.856   4.704  0.1497 -0.6416 -0.2073
  238MOL0     C32014   2.534   2.765   4.742  0.0838  0.7880 -0.4890
  238MOL0     C32015   2.640   2.782   4.843  1.0360  0.3129 -0.4968
  238MOL0     C32016   2.641   2.664   4.942  0.2208 -0.1616 -0.3115
  238MOL0     C32017   2.700   2.685   5.085 -0.1042  0.1234  0.3795
  238MOL0     C32018   2.823   2.784   5.085 -0.4867 -0.1850 -0.5486
  238MOL0     O32019   2.930   2.752   4.987 -0.2975  0.1567 -0.2845
  238MOL0     C32020   3.034   2.841   4.976 -0.1562  1.0258  0.9079
  238MOL0     C32021   3.123   2.874   5.072  1.3853 -0.5541 -0.1317
  238MOL0     C32022   3.240   2.947   5.046  0.9250 -0.0613  1.3892
  238MOL0     C32023   3.320   2.991   5.172  0.5433  0.7101 -0.4906
  238MOL0     C32024   3.273   2.982   4.913 -0.2139  0.0743  0.6370
  238MOL0     C32025   3.391   3.059   4.893 -1.2945 -0.4007 -0.2835
  238MOL0     O32026   3.514   3.005   4.905 -0.6771 -0.3844  0.3834
  238MOL0     C32027   3.624   3.081   4.872  0.8238 -0.4118 -0.2259
  238MOL0     C32028   3.730   3.012   4.816 -0.2449 -0.1146 -0.3573
  238MOL0     C32029   3.842   3.084   4.785  0.2020 -0.1722  0.2004
  238MOL0     C32030   3.859   3.224   4.797  0.8214 -0.3957 -0.6485
  238MOL0     O32031   3.977   3.273   4.748 -0.6334 -0.7115 -0.0926
  238MOL0     C32032   3.953   3.377   4.646 -0.0908  0.5159 -0.0409
  238MOL0     C32033   4.022   3.344   4.519 -0.0615  1.2892  0.7449
  238MOL0     C32034   3.952   3.225   4.457 -0.2320 -0.4214  0.2061
  238MOL0     C32035   4.043   3.171   4.346  0.9589  1.0202 -0.8591
  238MOL0     C32036   3.970   3.098   4.226  0.4695  0.9431  0.4644
  238MOL0     C32037   3.892   3.201   4.137 -0.5457 -0.4512  0.0895
  238MOL0     C32038   3.993   3.293   4.061 -0.0006  0.2102 -0.3842
  238MOL0     C32039   3.967   3.442   4.078  0.4581  0.0351 -0.1413
  238MOL0    Cl32040   3.821   3.496   3.983  0.1740  0.2030  0.4973
  238MOL0     C32041   3.747   3.297   4.847  0.3218 -0.0008 -0.3715
  238MOL0     C32042   3.633   3.219   4.883 -0.1649 -0.8567  0.6283
  238MOL0     O32043   3.362   3.155   4.823 -0.2032 -0.5610  0.5890
  238MOL0     C32044   3.176   2.949   4.811 -0.7255  0.1138 -0.5388
  238MOL0     C32045   3.066   2.876   4.843  0.4531  0.0728 -0.9215
  238MOL0     N32046   2.524   2.653   4.663 -0.2212  0.5333  1.0079
  238MOL0     N32047   2.445   2.686   4.566  0.4480 -1.2769  0.7243
  238MOL0     C32048   2.100   3.834   5.026  0.5170 -0.1710 -0.5707
  238MOL0     C32049   2.021   3.940   4.998 -0.2521 -0.7327 -0.5350
  238MOL0     C32050   1.781   4.258   4.757 -0.1817 -0.4116 -0.3944
  238MOL0     C32051   1.692   4.285   4.657  0.4367 -0.2546  0.3696
  238MOL0     C32052   1.605   4.390   4.672 -0.2912 -0.7801 -0.4496
  238MOL0     C32053   1.607   4.471   4.787  0.1211 -0.1004  0.5907
  238MOL0     O32054   1.533   4.580   4.816  0.2076  0.4572 -0.4092
  238MOL0     C32055   1.392   4.569   4.790  0.4047 -0.2373  0.1683
  238MOL0     C32056   1.353   4.649   4.667 -0.5343  0.1577  0.0381
  238MOL0     C32057   1.246   4.590   4.574 -0.1698  0.0944  0.2068
  238MOL0     C32058   1.111   4.557   4.635  0.0578  0.0756  0.6319
  238MOL0     C32059   1.020   4.528   4.523  0.0468  0.0600 -0.0662
  238MOL0     C32060   0.947   4.488   4.436  0.1936  1.0198 -0.3506
  238MOL0     C32061   1.700   4.446   4.879 -0.7152 -0.3830  0.2339
  238MOL0     C32062   1.792   4.337   4.866  0.8483 -0.2745 -1.2245
  238MOL0     H32063   1.968   3.888   4.676  0.7282 -3.1399 -0.9816
  238MOL0     H32064   2.134   3.705   4.713  3.4953  1.3053 -0.0819
  238MOL0     H32065   2.311   3.589   4.779  1.3438 -2.5045 -0.4620
  238MOL0     H32066   2.358   3.500   4.927 -0.0246 -2.7410 -2.0620
  238MOL0     H32067   2.153   3.405   4.959  1.2142 -1.1579  1.4030
  238MOL0     H32068   2.074   3.498   4.837 -0.6561  0.2765  2.0030
  238MOL0     H32069   2.233   3.397   4.662 -2.3942 -0.7497 -1.1031
  238MOL0     H32070   2.292   3.298   4.802  0.2767  3.8854  3.7307
  238MOL0     H32071   2.086   3.178   4.816 -1.0381  2.1551  0.5959
  238MOL0     H32072   2.010   3.313   4.721 -1.7929 -0.7339  0.4332
  238MOL0     H32073   2.014   3.095   4.601 -2.8150  3.5814  2.8942
  238MOL0     H32074   2.106   3.219   4.522 -1.8454  1.0459  1.2143
  238MOL0     H32075   2.321   3.131   4.613 -1.0429  0.3610 -0.0112
  238MOL0     H32076   2.242   3.012   4.710  2.8751 -1.3105 -0.1086
  238MOL0     H32077   2.139   2.898   4.522  1.1132 -1.5280  1.4814
  238MOL0     H32078   2.202   3.032   4.405  0.2872  1.8251  1.2018
  238MOL0     H32079   2.423   2.952   4.428 -0.0830 -0.0635  0.5284
  238MOL0     H32080   2.326   2.813   4.390 -1.4838  1.3612  0.7945
  238MOL0     H32081   2.449   2.959   4.739 -3.9136 -0.2635 -0.6629
  238MOL0     H32082   2.734   2.782   4.787  1.1179  1.8629 -0.3976
  238MOL0     H32083   2.633   2.882   4.887  3.6390  1.7988 -3.0435
  238MOL0     H32084   2.706   2.597   4.886  0.6372  1.7496 -2.2619
  238MOL0     H32085   2.555   2.597   4.951 -1.2221  1.4505 -1.3712
  238MOL0     H32086   2.743   2.589   5.118 -2.0583 -0.5054  1.2747
  238MOL0     H32087   2.620   2.718   5.153 -1.2086  3.5699 -2.3122
  238MOL0     H32088   2.871   2.787   5.183 -0.8170 -0.5410 -0.3778
  238MOL0     H32089   2.776   2.878   5.057 -3.5501 -1.2417  0.6781
  238MOL0     H32090   3.094   2.851   5.174  3.1132 -2.1399  0.0543
  238MOL0     H32091   3.427   2.987   5.148  1.4022 -1.5927  2.9925
  238MOL0     H32092   3.297   3.094   5.199  0.0569  0.5856 -0.4250
  238MOL0     H32093   3.296   2.918   5.250 -0.6197 -0.6777 -2.0642
  238MOL0     H32094   3.727   2.909   4.783 -0.5225  0.0217 -0.7630
  238MOL0     H32095   3.925   3.035   4.735  2.1145  1.2177  1.8328
  238MOL0     H32096   3.846   3.396   4.631 -0.7087  0.0513  3.0760
  238MOL0     H32097   4.004   3.470   4.674  2.2269 -0.9348  0.7618
  238MOL0     H32098   4.014   3.433   4.455 -0.4688  0.3193 -0.6003
  238MOL0     H32099   4.127   3.312   4.524 -1.3095 -4.0278 -0.8096
  238MOL0     H32100   3.857   3.256   4.412  1.4940  1.3679 -2.5279
  238MOL0     H32101   3.930   3.152   4.535 -2.3055  0.8878  0.9278
  238MOL0     H32102   4.115   3.235   4.295  2.2701 -0.5643 -1.0770
  238MOL0     H32103   4.102   3.102   4.407 -1.3445 -1.1947 -0.9540
  238MOL0     H32104   3.904   3.026   4.277  1.1028  2.3157  3.4215
  238MOL0     H32105   4.028   3.037   4.156 -0.7543  0.1860  0.0726
  238MOL0     H32106   3.835   3.147   4.061  0.6344 -2.2724  0.4276
  238MOL0     H32107   3.821   3.256   4.200 -1.7587 -1.6676 -0.1871
  238MOL0     H32108   3.988   3.265   3.955  0.3319  0.1909 -0.3949
  238MOL0     H32109   4.097   3.267   4.084 -0.2546 -2.7545 -2.0912
  238MOL0     H32110   4.047   3.498   4.028  1.0260 -1.8517 -1.4516
  238MOL0     H32111   3.956   3.473   4.182  0.1426 -3.5771  1.0634
  238MOL0     H32112   3.763   3.403   4.863 -0.0213 -0.2743  2.0973
  238MOL0     H32113   3.556   3.280   4.928 -1.1421 -0.9372 -0.8742
  238MOL0     H32114   3.217   2.978   4.714  1.4175  2.4973  0.9490
  238MOL0     H32115   2.999   2.820   4.777 -1.5364 -0.6572  1.5227
  238MOL0     H32116   2.139   3.838   5.127 -0.4909  1.8348 -0.1975
  238MOL0     H32117   1.980   4.003   5.076  2.2597 -1.2702  1.3413
  238MOL0     H32118   1.700   4.226   4.566  0.0500 -0.3900  0.4207
  238MOL0     H32119   1.537   4.418   4.591  0.3846  1.3644 -0.3327
  238MOL0     H32120   1.363   4.464   4.784 -2.5709  0.2498  3.0328
  238MOL0     H32121   1.330   4.606   4.873 -1.4792 -1.9324 -0.4097
  238MOL0     H32122   1.449   4.643   4.616  0.3884  1.6445  1.4956
  238MOL0     H32123   1.327   4.755   4.680 -0.9883  0.2576 -1.5333
  238MOL0     H32124   1.289   4.522   4.501 -0.8634 -0.1610  0.0235
  238MOL0     H32125   1.224   4.677   4.511 -0.8087 -0.9238 -1.0165
  238MOL0     H32126   1.055   4.635   4.690 -5.6421 -2.2167 -1.1453
  238MOL0     H32127   1.121   4.460   4.684 -1.6459 -0.8201 -0.7166
  238MOL0     H32128   0.890   4.448   4.356  2.4493  0.9868 -2.0366
  238MOL0     H32129   1.708   4.500   4.972 -0.7565  4.3993 -2.2049
  238MOL0     H32130   1.855   4.310   4.950 -0.9942 -2.0155 -0.3244
  239MOL0     O32131   8.406   5.959   7.381 -1.1987  0.4233  0.0903
  239MOL0     C32132   8.417   6.036   7.283  0.2446  0.5131  0.3394
  239MOL0     O32133   8.313   6.111   7.232 -0.1299 -0.1279  0.1715
  239MOL0     C32134   8.181   6.116   7.271  0.3930 -0.0959 -0.5480
  239MOL0     C32135   8.133   6.069   7.397 -0.2548  0.4891  0.3514
  239MOL0     C32136   8.005   6.102   7.439  0.3993  0.1515  0.3034
  239MOL0     C32137   7.909   6.155   7.348  0.6470  0.3519  0.1900
  239MOL0     O32138   7.779   6.172   7.378 -0.2418 -0.5160 -0.2902
  239MOL0     C32139   7.698   6.106   7.282 -0.3765  0.9308  0.0375
  239MOL0     C32140   7.560   6.114   7.334  1.1501  0.0245 -0.5491
  239MOL0     C32141   7.550   5.992   7.431 -0.3155  0.8506  0.0541
  239MOL0     C32142   7.422   6.008   7.517  0.3141  0.9337 -0.2438
  239MOL0     C32143   7.370   5.893   7.604 -0.4208  0.8528  0.1876
  239MOL0     C32144   7.248   5.939   7.689  0.4268  1.4265  0.1219
  239MOL0     C32145   7.119   5.886   7.632 -0.2401 -0.4474 -0.4890
  239MOL0     C32146   7.098   5.737   7.609 -1.0809 -0.0943  0.8473
  239MOL0     N32147   6.958   5.713   7.651  0.4202  0.6196 -0.4627
  239MOL0     C32148   6.916   5.681   7.773 -0.0556  0.3839 -0.1427
  239MOL0     C32149   6.787   5.704   7.772  0.5731 -0.1970 -0.5411
  239MOL0     C32150   6.703   5.683   7.891  0.5255 -0.6697 -0.8256
  239MOL0     C32151   6.705   5.532   7.924 -0.2838  0.2317  0.4214
  239MOL0     C32152   6.571   5.476   7.979 -0.2940  0.5288  0.3913
  239MOL0     C32153   6.527   5.537   8.109 -0.1750  1.1579  0.3540
  239MOL0     O32154   6.635   5.524   8.202 -0.0754 -0.1642 -0.3007
  239MOL0     C32155   6.622   5.584   8.324 -0.2676  0.1379 -0.0159
  239MOL0     C32156   6.720   5.551   8.423  0.3974 -0.2960  0.2756
  239MOL0     C32157   6.735   5.621   8.553  0.6157 -0.4229  0.9295
  239MOL0     C32158   6.840   5.577   8.652  0.3618 -0.2675  0.0108
  239MOL0     C32159   6.647   5.722   8.579  0.4040  0.1036 -0.0571
  239MOL0     C32160   6.664   5.801   8.701  0.6672 -0.2227  0.1759
  239MOL0     O32161   6.786   5.827   8.743  0.7959  0.4040 -0.2566
  239MOL0     C32162   6.816   5.883   8.872  0.1938  0.3391 -0.5579
  239MOL0     C32163   6.730   5.897   8.978  0.0720  0.4375 -0.1304
  239MOL0     C32164   6.772   5.931   9.110  0.3250 -0.1535  0.5774
  239MOL0     C32165   6.902   5.956   9.139  0.4457  0.3962  0.1758
  239MOL0     O32166   6.939   5.986   9.267  0.2586 -0.4190 -0.0711
  239MOL0     C32167   7.031   6.091   9.288  0.2692  0.1809  0.5128
  239MOL0     C32168   7.046   6.100   9.441  0.1788  0.3264  0.3686
  239MOL0     C32169   7.171   6.174   9.489  0.0418 -0.2540 -0.1924
  239MOL0     C32170   7.153   6.317   9.455  0.0735 -0.3917 -0.5178
  239MOL0     C32171   7.275   6.391   9.470  0.2993 -0.3651 -0.6811
  239MOL0     C32172   7.240   6.540   9.478  0.0091  0.0395  1.0976
  239MOL0     C32173   7.363   6.631   9.480  1.0542  0.4076 -1.2692
  239MOL0     C32174   7.449   6.615   9.357  0.3907 -0.6352 -0.3245
  239MOL0    Cl32175   7.571   6.749   9.344  0.0661  0.1977 -0.5815
  239MOL0     C32176   6.989   5.958   9.023 -0.2409 -0.5892 -1.3817
  239MOL0     C32177   6.952   5.917   8.893 -0.2935  1.0955 -0.9481
  239MOL0     O32178   6.560   5.849   8.742 -0.3509  0.2916  0.0848
  239MOL0     C32179   6.546   5.746   8.483  0.4931 -0.3788 -0.8460
  239MOL0     C32180   6.529   5.675   8.359 -1.2909 -0.5920  0.5269
  239MOL0     N32181   6.740   5.728   7.643  0.5181  0.6479 -0.2769
  239MOL0     N32182   6.845   5.719   7.568 -0.5711 -0.7109 -0.2361
  239MOL0     C32183   7.956   6.202   7.225 -0.8557  0.0041  0.8001
  239MOL0     C32184   8.096   6.197   7.188  0.5366  1.4851  0.1167
  239MOL0     C32185   8.537   6.066   7.210  0.1388 -0.3157 -0.3230
  239MOL0     C32186   8.662   6.026   7.266 -0.3934  0.9393  0.0195
  239MOL0     C32187   8.786   6.067   7.207  0.0259  0.4199 -1.3928
  239MOL0     C32188   8.780   6.138   7.092 -0.4051 -0.1698 -0.6159
  239MOL0     O32189   8.902   6.190   7.051  0.3251 -0.2118  0.4009
  239MOL0     C32190   8.905   6.303   6.956  0.1608  0.7310  1.0245
  239MOL0     C32191   8.879   6.284   6.805  0.8462  0.7498 -0.1344
  239MOL0     C32192   8.961   6.170   6.742  0.2955 -0.4544 -1.0592
  239MOL0     C32193   8.946   6.164   6.592 -0.4123 -0.4570  0.5696
  239MOL0     C32194   9.035   6.061   6.539  0.0184  0.1827  0.8892
  239MOL0     C32195   9.110   5.975   6.505  0.5107  0.5583 -0.1421
  239MOL0     C32196   8.655   6.175   7.038 -0.6134  0.0460  0.1410
  239MOL0     C32197   8.540   6.133   7.088 -0.4326  0.3800  0.2433
  239MOL0     H32198   8.202   6.017   7.463  3.1227 -0.5298 -3.5485
  239MOL0     H32199   7.968   6.072   7.536 -1.5024  1.1071 -0.0736
  239MOL0     H32200   7.710   6.163   7.190  0.5471 -0.3990 -0.6968
  239MOL0     H32201   7.724   6.002   7.263  1.2061  0.8702  2.1463
  239MOL0     H32202   7.542   6.206   7.391 -1.0881  1.7898 -3.8173
  239MOL0     H32203   7.488   6.096   7.254  1.9477 -4.9367 -0.4571
  239MOL0     H32204   7.548   5.896   7.378  2.1704  1.7217 -1.8292
  239MOL0     H32205   7.629   5.984   7.507 -2.0977  2.4013  2.2001
  239MOL0     H32206   7.440   6.104   7.565 -0.3247 -1.0216  4.4401
  239MOL0     H32207   7.348   6.008   7.436 -0.1481  2.6005  0.1466
  239MOL0     H32208   7.349   5.809   7.537  0.8253  2.0795 -1.8617
  239MOL0     H32209   7.444   5.863   7.679 -0.0161  2.3768  0.4392
  239MOL0     H32210   7.247   5.903   7.792 -1.8998  2.9566  0.7223
  239MOL0     H32211   7.239   6.046   7.711 -3.3282  1.4593 -0.8261
  239MOL0     H32212   7.047   5.933   7.700  2.0315  2.5836  0.0596
  239MOL0     H32213   7.098   5.932   7.535  0.7932  1.1270 -0.0160
  239MOL0     H32214   7.168   5.677   7.669 -0.7132 -1.2945 -0.7011
  239MOL0     H32215   7.124   5.712   7.506  2.4760  0.5422  1.4434
  239MOL0     H32216   6.983   5.648   7.852 -1.6394 -1.3983  0.5322
  239MOL0     H32217   6.732   5.736   7.982  0.8393 -0.6710 -0.9252
  239MOL0     H32218   6.603   5.714   7.858  0.2563  2.6496  2.4615
  239MOL0     H32219   6.791   5.523   7.992  0.0491 -0.8539 -0.1120
  239MOL0     H32220   6.729   5.473   7.835 -1.3050 -1.9100  1.4842
  239MOL0     H32221   6.591   5.369   7.985  4.7745  1.2126  0.0617
  239MOL0     H32222   6.489   5.478   7.908  0.6952  0.5815 -0.7814
  239MOL0     H32223   6.436   5.493   8.149 -0.9946  2.7979  0.3770
  239MOL0     H32224   6.507   5.644   8.097  1.5787  1.3239 -1.5309
  239MOL0     H32225   6.799   5.482   8.393  1.2097  1.4622 -1.9216
  239MOL0     H32226   6.802   5.567   8.754 -0.0834 -1.7838 -0.2755
  239MOL0     H32227   6.885   5.483   8.617  2.1319  1.2319 -2.0418
  239MOL0     H32228   6.925   5.646   8.644  0.2042  0.4873  3.2119
  239MOL0     H32229   6.624   5.875   8.976 -0.3636  2.3756 -0.8480
  239MOL0     H32230   6.702   5.937   9.193 -0.2732 -0.9254  0.1381
  239MOL0     H32231   7.127   6.078   9.238  0.4770  3.4064 -0.1344
  239MOL0     H32232   6.995   6.184   9.243  0.8513  1.7116  2.9759
  239MOL0     H32233   6.957   6.156   9.473 -0.3222 -1.2768  1.9071
  239MOL0     H32234   7.043   6.008   9.499  1.3544 -2.7407 -3.9647
  239MOL0     H32235   7.266   6.140   9.447  0.1453  0.0540 -0.2111
  239MOL0     H32236   7.179   6.161   9.598  0.0568 -0.0997 -0.1754
  239MOL0     H32237   7.109   6.337   9.357  0.9931 -0.2292 -0.9087
  239MOL0     H32238   7.089   6.347   9.539  1.1131 -1.2518  0.6064
  239MOL0     H32239   7.339   6.380   9.382  3.8765  0.0409  1.6706
  239MOL0     H32240   7.337   6.361   9.556  1.9076  0.0401 -1.6513
  239MOL0     H32241   7.177   6.569   9.393  1.8825 -0.2927 -0.4656
  239MOL0     H32242   7.179   6.557   9.567 -1.2914  1.2135  0.0405
  239MOL0     H32243   7.418   6.610   9.572  3.4465 -1.1416 -2.9193
  239MOL0     H32244   7.332   6.735   9.466  1.1374  0.5269 -0.5998
  239MOL0     H32245   7.389   6.615   9.265  2.0392  0.1622 -1.4462
  239MOL0     H32246   7.494   6.516   9.365 -1.2323 -1.2587  2.0712
  239MOL0     H32247   7.092   5.993   9.025 -0.2991  0.0840 -4.6659
  239MOL0     H32248   7.020   5.913   8.809 -1.0650 -2.1793 -1.5375
  239MOL0     H32249   6.471   5.819   8.513 -0.9742 -1.6040 -1.4074
  239MOL0     H32250   6.446   5.701   8.294 -2.2439 -2.7500  0.8094
  239MOL0     H32251   7.897   6.242   7.143  1.0544 -0.5904 -0.9599
  239MOL0     H32252   8.140   6.224   7.092  0.1944  0.5090 -0.3375
  239MOL0     H32253   8.667   5.961   7.352  2.4188  0.6240 -0.2797
  239MOL0     H32254   8.881   6.040   7.253  0.1159 -0.3918 -2.0463
  239MOL0     H32255   8.829   6.373   6.994 -1.8721 -1.7093  1.6967
  239MOL0     H32256   9.007   6.343   6.959  0.0615  1.5386 -2.3836
  239MOL0     H32257   8.898   6.376   6.749 -0.8283 -0.1117 -2.2713
  239MOL0     H32258   8.774   6.261   6.783  1.1433 -0.6861 -0.1652
  239MOL0     H32259   8.950   6.074   6.794  2.6238 -1.1081 -1.6831
  239MOL0     H32260   9.064   6.196   6.768 -0.2784 -1.1894  2.4981
  239MOL0     H32261   8.961   6.262   6.546 -0.3752 -0.0008  1.5446
  239MOL0     H32262   8.845   6.136   6.562 -0.6960  2.2913 -1.4698
  239MOL0     H32263   9.171   5.901   6.457  1.9441 -0.1473  2.5635
  239MOL0     H32264   8.641   6.237   6.950 -2.9416 -0.4667  0.0736
  239MOL0     H32265   8.453   6.166   7.031 -0.2758  1.5269  0.6419
  240MOL0     O32266   6.667   0.052   2.704  0.0824  0.4393  0.6323
  240MOL0     C32267   6.608   0.018   2.803 -0.9233 -0.7138  0.6395
  240MOL0     O32268   6.600   0.095   2.910  0.1197  0.0607 -0.1820
  240MOL0     C32269   6.677   0.207   2.928  0.3335  0.0454 -0.5575
  240MOL0     C32270   6.825   0.197   2.941  0.6377 -0.6120 -0.1690
  240MOL0     C32271   6.896   0.312   2.951 -0.1584 -0.3468  0.1034
  240MOL0     C32272   6.836   0.437   2.934 -0.4404  0.4867 -0.6754
  240MOL0     O32273   6.915   0.550   2.940 -0.1414 -0.2981  0.0335
  240MOL0     C32274   6.986   0.556   3.058 -0.3622  0.3057 -0.3027
  240MOL0     C32275   7.071   0.688   3.054  0.2397 -0.3716  0.1488
  240MOL0     C32276   7.193   0.711   3.157  0.0504  0.1704 -0.4411
  240MOL0     C32277   7.262   0.848   3.148 -0.3695  0.4492  0.7549
  240MOL0     C32278   7.384   0.854   3.248  0.1881 -0.4204  0.7891
  240MOL0     C32279   7.445   0.988   3.223 -0.5435 -0.8851 -0.7838
  240MOL0     C32280   7.583   1.005   3.287  0.8315  0.9651  0.7591
  240MOL0     C32281   7.694   0.948   3.194  0.1582 -0.0255 -0.3595
  240MOL0     N32282   7.827   0.950   3.263 -0.4461 -0.0889 -0.4331
  240MOL0     C32283   7.865   0.862   3.353 -0.4679  0.0622 -0.0613
  240MOL0     C32284   8.001   0.878   3.370 -0.5184  0.3872  0.1599
  240MOL0     C32285   8.079   0.789   3.462 -0.6489 -0.0425  0.2315
  240MOL0     C32286   8.234   0.762   3.434  0.0946 -0.1832  0.1468
  240MOL0     C32287   8.334   0.821   3.527 -0.3995 -0.7120 -0.0991
  240MOL0     C32288   8.347   0.975   3.534  1.7415 -0.2478 -0.2657
  240MOL0     O32289   8.432   1.011   3.638 -0.4846  0.4415  0.7048
  240MOL0     C32290   8.569   0.992   3.636  0.0613  1.0717  0.1344
  240MOL0     C32291   8.649   0.976   3.523  0.2249 -0.7174 -0.6911
  240MOL0     C32292   8.784   0.937   3.534  0.3566 -0.5755 -0.6273
  240MOL0     C32293   8.851   0.904   3.403  0.3557 -0.7248 -0.0510
  240MOL0     C32294   8.843   0.951   3.668 -0.4868 -0.4738 -0.2283
  240MOL0     C32295   8.989   0.931   3.686  0.1943  0.5273 -0.6911
  240MOL0     O32296   9.030   0.863   3.801 -0.4569 -0.6964  0.4832
  240MOL0     C32297   9.161   0.838   3.832  0.7072  0.5071 -0.1091
  240MOL0     C32298   9.215   0.868   3.956 -0.4571 -0.4583  0.2232
  240MOL0     C32299   9.349   0.846   3.986 -0.8377  0.4312  0.5590
  240MOL0     C32300   9.436   0.786   3.885 -0.0407  0.1505 -0.5866
  240MOL0     O32301   9.566   0.759   3.913  0.7050  0.0768 -0.5252
  240MOL0     C32302   9.638   0.876   3.918 -0.1810 -0.0815 -0.1120
  240MOL0     C32303   9.787   0.846   3.895 -1.0108  0.8159 -0.3477
  240MOL0     C32304   9.868   0.770   4.008 -0.8815 -1.1263 -0.3542
  240MOL0     C32305  10.004   0.721   3.955  1.0335  0.2615 -0.1548
  240MOL0     C32306  10.097   0.687   4.075  0.1838  0.5137  0.4695
  240MOL0     C32307  10.235   0.672   4.036  0.5705  0.8941  0.2070
  240MOL0     C32308  10.326   0.676   4.166  0.4753  0.4563 -0.6626
  240MOL0     C32309  10.466   0.637   4.135  1.4502 -0.3682 -0.2534
  240MOL0    Cl32310  10.574   0.622   4.279  0.0087  0.2598 -0.5278
  240MOL0     C32311   9.382   0.739   3.766  0.4555 -0.1045 -0.2675
  240MOL0     C32312   9.250   0.775   3.741 -0.2376  0.2729  0.7598
  240MOL0     O32313   9.064   0.978   3.602 -0.2179  0.3635  0.9984
  240MOL0     C32314   8.761   0.992   3.773 -0.0990 -0.3909  0.1326
  240MOL0     C32315   8.623   1.011   3.760  0.1970  0.0412 -0.3016
  240MOL0     N32316   8.038   0.985   3.288 -0.0150  0.6002  0.1104
  240MOL0     N32317   7.932   1.027   3.228 -0.3948  0.0056  0.8076
  240MOL0     C32318   6.693   0.446   2.917 -0.7695 -0.4984  0.1073
  240MOL0     C32319   6.622   0.328   2.895 -0.6040 -0.4413  0.2888
  240MOL0     C32320   6.557  -0.120   2.811 -0.0034  0.3325  1.1185
  240MOL0     C32321   6.487  -0.168   2.919  0.6240 -0.2755  0.6246
  240MOL0     C32322   6.448  -0.301   2.927 -0.1325 -0.2857  0.1220
  240MOL0     C32323   6.466  -0.390   2.816  0.4303  0.1037  0.4512
  240MOL0     O32324   6.415  -0.520   2.810 -0.5852 -0.7785 -0.1762
  240MOL0     C32325   6.400  -0.601   2.928  0.2028 -0.2067 -0.4408
  240MOL0     C32326   6.437  -0.747   2.864 -0.3572 -0.6698  0.4949
  240MOL0     C32327   6.395  -0.857   2.954 -1.1290 -0.1134 -1.0952
  240MOL0     C32328   6.492  -0.974   2.935  0.0841  0.0779 -0.3970
  240MOL0     C32329   6.619  -0.965   3.010  0.1892  0.3024 -0.2945
  240MOL0     C32330   6.720  -0.954   3.084 -1.2728  0.0848 -0.7396
  240MOL0     C32331   6.545  -0.350   2.706  0.3827  0.8030 -0.6070
  240MOL0     C32332   6.593  -0.215   2.710  1.0508 -0.5289 -0.2411
  240MOL0     H32333   6.857   0.093   2.938  0.4385 -0.6785 -0.0475
  240MOL0     H32334   7.003   0.293   2.949  0.1168  1.0900 -0.1899
  240MOL0     H32335   6.928   0.535   3.147  0.0187 -2.7191 -0.6720
  240MOL0     H32336   7.057   0.473   3.054 -0.3855  0.1182  1.9722
  240MOL0     H32337   7.105   0.703   2.951 -0.5095  0.3316 -0.0056
  240MOL0     H32338   6.993   0.761   3.079 -1.7829 -0.8322 -3.9925
  240MOL0     H32339   7.156   0.687   3.257 -0.4691  0.8817 -0.4584
  240MOL0     H32340   7.263   0.632   3.127 -0.7171 -1.0739  0.9193
  240MOL0     H32341   7.295   0.876   3.047 -3.2612  1.2725 -0.0620
  240MOL0     H32342   7.187   0.921   3.180 -0.1560 -0.1215  2.6328
  240MOL0     H32343   7.337   0.845   3.346 -4.7825 -1.6597 -1.3741
  240MOL0     H32344   7.450   0.770   3.225 -0.5019 -0.7050 -0.2247
  240MOL0     H32345   7.438   1.009   3.116 -2.8069 -3.5637 -1.2818
  240MOL0     H32346   7.383   1.062   3.274  2.4838  0.9573  0.5478
  240MOL0     H32347   7.610   1.104   3.325  2.7163 -0.3475  3.1182
  240MOL0     H32348   7.587   0.951   3.382 -1.3359 -2.3137 -0.8465
  240MOL0     H32349   7.712   1.010   3.105  0.8577 -1.2633 -1.0994
  240MOL0     H32350   7.664   0.847   3.164 -1.7061  0.4805 -0.3666
  240MOL0     H32351   7.798   0.794   3.404  1.8223 -1.8051  0.6106
  240MOL0     H32352   8.076   0.839   3.559 -1.9310 -1.7306  1.1071
  240MOL0     H32353   8.022   0.696   3.466 -0.4607 -0.1661  0.0908
  240MOL0     H32354   8.272   0.776   3.333 -2.6851 -0.9554 -1.0831
  240MOL0     H32355   8.236   0.655   3.457 -0.7217 -0.4850 -1.0968
  240MOL0     H32356   8.433   0.791   3.491 -1.0751  0.4824 -3.3251
  240MOL0     H32357   8.323   0.790   3.632  0.0411  0.6392  0.3654
  240MOL0     H32358   8.256   1.023   3.572  0.2571  0.2776 -4.0082
  240MOL0     H32359   8.367   1.028   3.440 -1.6727  4.7953  1.4062
  240MOL0     H32360   8.599   0.981   3.426 -0.3632 -1.7426 -0.4590
  240MOL0     H32361   8.930   0.829   3.413 -0.1899 -1.1167  1.5541
  240MOL0     H32362   8.771   0.877   3.333  0.3586  1.1361 -0.8277
  240MOL0     H32363   8.888   1.002   3.372 -1.6475 -0.2817 -1.2738
  240MOL0     H32364   9.145   0.902   4.032  0.8488  1.9091  0.4446
  240MOL0     H32365   9.406   0.859   4.077  0.3220 -2.2328  0.3082
  240MOL0     H32366   9.608   0.942   3.837  3.3893 -0.9033 -2.3181
  240MOL0     H32367   9.609   0.917   4.016 -3.2805 -2.0986 -0.0637
  240MOL0     H32368   9.791   0.780   3.808 -1.8735 -3.7326  2.6772
  240MOL0     H32369   9.844   0.937   3.874  0.7603  0.6035  2.8704
  240MOL0     H32370   9.812   0.683   4.045  1.9586 -3.6237 -1.5312
  240MOL0     H32371   9.889   0.842   4.088  3.2006  0.6763 -2.7548
  240MOL0     H32372   9.990   0.636   3.889  0.6434  0.0456  0.2032
  240MOL0     H32373  10.055   0.800   3.899  1.4459  2.2456  2.7433
  240MOL0     H32374  10.067   0.592   4.121 -2.2561  0.4475 -1.0696
  240MOL0     H32375  10.076   0.766   4.149 -3.5375 -2.1007  2.5818
  240MOL0     H32376  10.254   0.580   3.980 -1.7528 -3.9018  6.1595
  240MOL0     H32377  10.254   0.759   3.972  1.3929  1.4510  1.1808
  240MOL0     H32378  10.286   0.596   4.229 -1.0928 -0.3412 -2.5819
  240MOL0     H32379  10.310   0.778   4.201  0.6438 -0.3645  2.0301
  240MOL0     H32380  10.513   0.703   4.061  0.3409 -1.7022 -2.2271
  240MOL0     H32381  10.451   0.544   4.079 -0.4585 -0.0648 -0.3045
  240MOL0     H32382   9.437   0.676   3.697 -0.0202  1.3945 -2.1042
  240MOL0     H32383   9.206   0.740   3.648  0.6149 -0.0710  0.4760
  240MOL0     H32384   8.809   1.016   3.867  0.4234 -1.3797  0.1428
  240MOL0     H32385   8.562   1.060   3.835  2.7041  2.3545  0.3876
  240MOL0     H32386   6.655   0.544   2.891  1.2785  0.1998 -0.4264
  240MOL0     H32387   6.518   0.330   2.865  0.0901 -0.4025 -2.3693
  240MOL0     H32388   6.477  -0.112   3.011  1.7268 -1.8469  1.7404
  240MOL0     H32389   6.395  -0.330   3.018 -0.5700  0.8484  0.2401
  240MOL0     H32390   6.462  -0.571   3.014 -1.2842 -2.6511  1.6286
  240MOL0     H32391   6.296  -0.598   2.961 -0.2805 -0.9227 -1.8572
  240MOL0     H32392   6.546  -0.749   2.850  0.1242  1.5985  3.1537
  240MOL0     H32393   6.389  -0.763   2.767 -0.2157 -0.6152  0.4149
  240MOL0     H32394   6.297  -0.896   2.927 -0.8733 -0.9117 -0.9076
  240MOL0     H32395   6.389  -0.817   3.056  0.9561  1.4613 -1.4958
  240MOL0     H32396   6.501  -0.999   2.829 -0.9862 -0.9653 -0.2594
  240MOL0     H32397   6.441  -1.059   2.981  2.8725 -0.3518  2.2403
  240MOL0     H32398   6.790  -0.949   3.164 -1.0931  0.1950 -0.9026
  240MOL0     H32399   6.565  -0.407   2.615  1.4831  2.5662 -1.5314
  240MOL0     H32400   6.665  -0.191   2.632  1.1287  1.9525  0.4970
  241MOL0     O32401   0.819   9.840   6.516 -0.2081  0.6725 -0.3666
  241MOL0     C32402   0.723   9.903   6.563  0.1372 -0.0169 -0.5027
  241MOL0     O32403   0.732  10.017   6.637  0.3410 -0.6887  0.1269
  241MOL0     C32404   0.870  10.059   6.647  0.1993  0.2267 -0.4215
  241MOL0     C32405   0.929  10.149   6.562 -0.2242 -0.0402  0.1039
  241MOL0     C32406   1.062  10.187   6.583  0.0155  0.2169  0.1456
  241MOL0     C32407   1.145  10.113   6.661  0.5222  0.7983 -0.2011
  241MOL0     O32408   1.270  10.151   6.686  0.6137 -1.2356  0.1717
  241MOL0     C32409   1.348  10.134   6.563  0.2401  0.3960 -0.5382
  241MOL0     C32410   1.414  10.267   6.528 -0.3742  0.1695 -0.2366
  241MOL0     C32411   1.478  10.247   6.389  0.1776  0.1919  0.1885
  241MOL0     C32412   1.581  10.355   6.360  0.2855 -0.3398 -0.6728
  241MOL0     C32413   1.638  10.371   6.212 -0.3628  0.6979 -0.9613
  241MOL0     C32414   1.734  10.500   6.198  0.5442  0.2647 -0.3845
  241MOL0     C32415   1.821  10.490   6.075 -0.3672 -0.1165  0.2867
  241MOL0     C32416   1.927  10.381   6.090  0.1137  0.3383  0.7807
  241MOL0     N32417   1.990  10.353   5.957 -0.3472 -0.1065 -0.4768
  241MOL0     C32418   2.076  10.439   5.903 -0.5526 -0.3549  0.3882
  241MOL0     C32419   2.129  10.367   5.801  0.0255 -0.2082 -0.4023
  241MOL0     C32420   2.227  10.403   5.698 -0.1366  0.8975 -0.4156
  241MOL0     C32421   2.161  10.401   5.561 -0.4208 -0.8824 -0.3571
  241MOL0     C32422   2.250  10.438   5.443  0.5246  0.0217 -0.0714
  241MOL0     C32423   2.172  10.493   5.327 -0.4091  0.3266  0.1909
  241MOL0     O32424   2.127  10.384   5.250  0.1336 -0.3832  0.8979
  241MOL0     C32425   2.122  10.389   5.117 -0.2086  0.1857 -0.0412
  241MOL0     C32426   2.082  10.501   5.045 -0.3906 -1.3842  0.8504
  241MOL0     C32427   2.075  10.499   4.904  0.2668 -0.6340  0.1029
  241MOL0     C32428   2.039  10.630   4.832  0.5654 -0.0011  0.7997
  241MOL0     C32429   2.090  10.379   4.840 -0.2938  0.8342 -0.1762
  241MOL0     C32430   2.086  10.371   4.695  1.1145 -1.2790  0.3723
  241MOL0     O32431   2.159  10.465   4.621 -0.1592 -0.1340  0.7103
  241MOL0     C32432   2.135  10.469   4.485 -1.1436  0.2606 -0.3954
  241MOL0     C32433   2.023  10.535   4.438 -0.3731 -0.1692 -0.6272
  241MOL0     C32434   2.004  10.552   4.305 -0.3837  0.2541  0.7562
  241MOL0     C32435   2.091  10.504   4.212 -1.1360 -0.3614 -0.2900
  241MOL0     O32436   2.069  10.487   4.079  0.3742  0.2959  0.0133
  241MOL0     C32437   2.110  10.602   4.010  0.4822  0.2540  0.0440
  241MOL0     C32438   2.108  10.574   3.856 -0.0441  0.5293  0.1129
  241MOL0     C32439   2.209  10.467   3.830  0.0103  0.0475 -0.4303
  241MOL0     C32440   2.239  10.453   3.680  0.1881 -0.6757 -0.3597
  241MOL0     C32441   2.388  10.424   3.670  0.4359 -0.3771 -0.0349
  241MOL0     C32442   2.437  10.415   3.525 -0.6577  0.0514  1.0350
  241MOL0     C32443   2.596  10.401   3.514  0.2839 -0.1839 -0.4984
  241MOL0     C32444   2.645  10.312   3.403  0.2555 -0.5831  0.1327
  241MOL0    Cl32445   2.605  10.398   3.255 -0.3102 -0.3845  0.0419
  241MOL0     C32446   2.201  10.438   4.260  0.1376 -0.2737  0.0042
  241MOL0     C32447   2.224  10.424   4.395  0.4159  0.0805 -0.3839
  241MOL0     O32448   2.013  10.287   4.642  0.6832 -0.2306 -0.7569
  241MOL0     C32449   2.118  10.253   4.912  1.3852 -0.2991  0.7087
  241MOL0     C32450   2.134  10.275   5.048  0.0030  0.1326  0.0467
  241MOL0     N32451   2.076  10.237   5.808 -0.6663  0.0252  0.0156
  241MOL0     N32452   1.996  10.232   5.901  0.4054  0.8629  0.0587
  241MOL0     C32453   1.090  10.014   6.734 -0.3310  0.0504 -0.6491
  241MOL0     C32454   0.949   9.991   6.746 -0.0487  0.9853  0.1486
  241MOL0     C32455   0.591   9.834   6.548  0.2243  0.2489 -0.3243
  241MOL0     C32456   0.503   9.816   6.663  0.0479  0.1415 -0.3244
  241MOL0     C32457   0.372   9.769   6.638 -0.4034 -0.0664 -0.3559
  241MOL0     C32458   0.324   9.766   6.508  0.1516  0.8586 -0.2470
  241MOL0     O32459   0.200   9.753   6.472 -0.6523  1.0356 -0.2341
  241MOL0     C32460   0.102   9.729   6.571 -0.1893  0.0850 -0.3717
  241MOL0     C32461  -0.021   9.783   6.519  0.2944 -0.0192  0.2851
  241MOL0     C32462  -0.103   9.686   6.434  0.5928  0.3808 -0.9778
  241MOL0     C32463  -0.067   9.699   6.290 -0.0269 -0.5462  0.8085
  241MOL0     C32464  -0.129   9.594   6.210 -0.5253  0.2656  0.8653
  241MOL0     C32465  -0.165   9.502   6.135  0.2404 -0.2887 -0.7211
  241MOL0     C32466   0.413   9.788   6.409  0.1073  1.0398 -0.2349
  241MOL0     C32467   0.549   9.812   6.425  0.6057 -0.1952  0.8068
  241MOL0     H32468   0.865  10.214   6.503 -1.6473 -2.9030 -1.7364
  241MOL0     H32469   1.097  10.273   6.527 -2.6865  0.4043 -1.4414
  241MOL0     H32470   1.427  10.059   6.571  0.1544  0.3280 -0.3200
  241MOL0     H32471   1.286  10.101   6.479 -1.9779 -1.0882  1.5566
  241MOL0     H32472   1.341  10.349   6.528 -1.5270 -0.8139  0.5815
  241MOL0     H32473   1.491  10.278   6.605 -1.8173  0.2979  1.2497
  241MOL0     H32474   1.521  10.147   6.384 -3.5020 -1.5207 -0.4891
  241MOL0     H32475   1.404  10.248   6.308 -1.4796  2.6764  1.5899
  241MOL0     H32476   1.540  10.453   6.387  0.4825 -0.4160 -0.0885
  241MOL0     H32477   1.663  10.345   6.432 -1.3218  2.6526  1.7952
  241MOL0     H32478   1.687  10.277   6.185  2.2495  2.5547 -3.2070
  241MOL0     H32479   1.558  10.381   6.138  1.6079  1.4039 -3.0931
  241MOL0     H32480   1.680  10.595   6.207 -0.1846 -0.3537  3.7451
  241MOL0     H32481   1.796  10.502   6.288  3.5059 -0.8984 -2.2523
  241MOL0     H32482   1.767  10.472   5.982  2.0819  0.5668 -1.3817
  241MOL0     H32483   1.877  10.584   6.065  1.6680 -1.4118 -1.3299
  241MOL0     H32484   1.881  10.289   6.126  0.5011  0.1594  0.8242
  241MOL0     H32485   2.003  10.421   6.158 -2.5226  6.3260  0.8321
  241MOL0     H32486   2.108  10.543   5.911 -1.4950  0.1492 -1.7317
  241MOL0     H32487   2.267  10.504   5.712  0.5223  0.4353  1.2266
  241MOL0     H32488   2.305  10.328   5.710 -2.7882 -1.7825  1.9704
  241MOL0     H32489   2.098  10.490   5.569  0.8582  0.1433 -1.1505
  241MOL0     H32490   2.116  10.307   5.528  1.4511 -2.4833  1.3713
  241MOL0     H32491   2.322  10.362   5.414  1.1862  0.5064  0.2616
  241MOL0     H32492   2.304  10.529   5.471 -3.9317  2.5565  1.1704
  241MOL0     H32493   2.243  10.563   5.282  1.6802 -0.8839  1.4293
  241MOL0     H32494   2.090  10.559   5.357 -0.5796  0.4741 -0.5715
  241MOL0     H32495   2.081  10.599   5.091 -2.6277 -1.4451  1.0274
  241MOL0     H32496   1.967  10.675   4.901  1.1258  0.4900  1.0693
  241MOL0     H32497   2.122  10.701   4.839  0.8774  0.0010 -1.9049
  241MOL0     H32498   2.001  10.629   4.730 -1.7533 -0.1174  1.5804
  241MOL0     H32499   1.948  10.569   4.508  0.9385 -0.0138  0.7676
  241MOL0     H32500   1.909  10.593   4.272  1.7360  3.0192 -2.4644
  241MOL0     H32501   2.044  10.688   4.027 -2.0394 -1.7090  0.8505
  241MOL0     H32502   2.206  10.639   4.048  2.1905 -2.7326 -0.9731
  241MOL0     H32503   2.008  10.557   3.815 -0.4750  0.4362  1.1748
  241MOL0     H32504   2.146  10.663   3.805  0.1101  0.0056 -0.7061
  241MOL0     H32505   2.175  10.375   3.878  1.1818  0.9923  2.4093
  241MOL0     H32506   2.294  10.500   3.891 -2.6177  0.9082  3.0450
  241MOL0     H32507   2.187  10.361   3.653  1.1720 -0.6984 -2.4030
  241MOL0     H32508   2.223  10.544   3.621  1.0609  0.3874  0.9732
  241MOL0     H32509   2.400  10.325   3.716  1.3591  0.3454  1.3443
  241MOL0     H32510   2.452  10.492   3.726 -1.9375  3.3465 -1.4726
  241MOL0     H32511   2.380  10.329   3.490 -2.5869  0.3506  3.1846
  241MOL0     H32512   2.409  10.511   3.482 -1.3487  0.5295  2.4957
  241MOL0     H32513   2.627  10.346   3.604 -0.0315 -1.7703 -1.3159
  241MOL0     H32514   2.641  10.501   3.522 -1.0492  0.3747  0.2533
  241MOL0     H32515   2.604  10.212   3.417  0.1927 -0.8427 -1.6741
  241MOL0     H32516   2.754  10.303   3.408  0.4128  0.6024 -0.6437
  241MOL0     H32517   2.259  10.396   4.178 -0.3052  1.9681 -1.5492
  241MOL0     H32518   2.316  10.373   4.420  0.0007 -2.2280 -3.1037
  241MOL0     H32519   2.132  10.162   4.855  2.0549  0.9950 -1.3019
  241MOL0     H32520   2.158  10.189   5.110 -2.8380 -0.5867  0.2950
  241MOL0     H32521   1.162   9.948   6.781  0.5095  0.1110 -1.7953
  241MOL0     H32522   0.909   9.908   6.803  1.0741 -2.4842 -3.5544
  241MOL0     H32523   0.542   9.830   6.763  1.0905  0.8016 -0.8183
  241MOL0     H32524   0.308   9.745   6.722  0.7744 -0.3656  0.4707
  241MOL0     H32525   0.092   9.625   6.605 -1.5612  0.6182  1.0407
  241MOL0     H32526   0.113   9.794   6.659  2.4361 -2.4442  1.3333
  241MOL0     H32527  -0.007   9.883   6.476  3.0538 -0.3035  0.3370
  241MOL0     H32528  -0.070   9.796   6.615  1.1721 -1.9811  1.0485
  241MOL0     H32529  -0.211   9.699   6.443  0.5253  2.6211 -3.7405
  241MOL0     H32530  -0.084   9.583   6.465  0.9600  0.8031  0.2696
  241MOL0     H32531   0.042   9.695   6.281  0.0571 -4.3124  1.4801
  241MOL0     H32532  -0.095   9.800   6.261  1.7596 -0.0546  0.6541
  241MOL0     H32533  -0.208   9.420   6.081 -0.4270 -0.5677  0.2008
  241MOL0     H32534   0.380   9.797   6.305  0.7334  0.9254 -0.4461
  241MOL0     H32535   0.608   9.823   6.334  0.2151  0.8618  0.6745
  242MOL0     O32536   3.055  10.029   1.853 -0.1372  0.4484 -0.6087
  242MOL0     C32537   3.099  10.141   1.885 -0.3439 -0.7259  0.4307
  242MOL0     O32538   3.106  10.252   1.795  0.3394  0.3499 -0.7862
  242MOL0     C32539   3.090  10.214   1.669 -0.1044 -0.0363  0.8186
  242MOL0     C32540   3.203  10.227   1.583 -0.7627  0.3940  0.3389
  242MOL0     C32541   3.198  10.206   1.444  0.0522  0.7344  0.3294
  242MOL0     C32542   3.076  10.178   1.379  0.2907  1.1194  0.8166
  242MOL0     O32543   3.072  10.163   1.238 -1.0113  0.0843 -0.7354
  242MOL0     C32544   3.122  10.274   1.156  0.8081  0.2521  0.0965
  242MOL0     C32545   3.076  10.270   1.015  0.2674 -0.0477  0.1347
  242MOL0     C32546   2.925  10.253   1.007 -0.5126  0.5011  0.6590
  242MOL0     C32547   2.861  10.382   0.954  0.3170  0.0169  1.1529
  242MOL0     C32548   2.708  10.351   0.922  0.5770  0.6468 -0.1168
  242MOL0     C32549   2.640  10.479   0.886 -0.4067 -0.5759 -0.1930
  242MOL0     C32550   2.660  10.507   0.738  0.6797 -0.1257  0.6297
  242MOL0     C32551   2.573  10.637   0.698  0.4796  0.1857  0.1339
  242MOL0     N32552   2.590  10.658   0.548  0.7134 -0.0100 -0.2820
  242MOL0     C32553   2.711  10.695   0.489 -0.7524  0.1567 -0.3078
  242MOL0     C32554   2.695  10.683   0.357 -0.5651 -0.0422  0.6360
  242MOL0     C32555   2.792  10.713   0.246  0.6234 -1.1060  0.1104
  242MOL0     C32556   2.897  10.608   0.245 -0.8015 -0.7170  0.6847
  242MOL0     C32557   3.016  10.639   0.150  0.3590 -0.1255  0.7326
  242MOL0     C32558   2.991  10.637  -0.008  0.3659  0.4428 -1.3401
  242MOL0     O32559   2.993  10.503  -0.049 -0.2525 -0.2044 -0.3981
  242MOL0     C32560   2.910  10.437  -0.138  0.6002 -0.3330 -0.9216
  242MOL0     C32561   2.815  10.496  -0.216  0.1084  0.0820 -0.0366
  242MOL0     C32562   2.739  10.424  -0.308  0.2586 -0.2044 -0.1273
  242MOL0     C32563   2.645  10.488  -0.403 -0.1107  0.0177  0.3050
  242MOL0     C32564   2.755  10.282  -0.309  0.4147  0.0763  0.0034
  242MOL0     C32565   2.679  10.193  -0.399 -0.1319  0.5809 -0.0010
  242MOL0     O32566   2.676  10.058  -0.365  0.0858 -0.3602  0.6485
  242MOL0     C32567   2.617   9.973  -0.458  0.3551 -0.4647 -0.1088
  242MOL0     C32568   2.472   9.979  -0.466  0.1819 -0.9881  0.8698
  242MOL0     C32569   2.392   9.901  -0.550 -0.9081 -0.1874 -0.8294
  242MOL0     C32570   2.464   9.808  -0.632 -0.5941  0.1618  0.1830
  242MOL0     O32571   2.403   9.717  -0.724 -0.6170 -0.2224  0.1345
  242MOL0     C32572   2.319   9.774  -0.825 -1.6894  0.3235  0.1992
  242MOL0     C32573   2.357   9.696  -0.956  0.3617  1.1157  0.6229
  242MOL0     C32574   2.275   9.751  -1.072  0.2957  0.0683 -0.0266
  242MOL0     C32575   2.270   9.668  -1.199  0.1989  0.4588 -0.3312
  242MOL0     C32576   2.187   9.733  -1.302 -0.2869  0.4185  0.5445
  242MOL0     C32577   2.146   9.642  -1.401 -0.2667 -0.2505 -0.1765
  242MOL0     C32578   2.068   9.685  -1.524  0.2787  0.0650 -0.5071
  242MOL0     C32579   2.057   9.585  -1.633 -0.0271 -0.3359  0.5610
  242MOL0    Cl32580   2.007   9.420  -1.572 -0.4120  0.1804 -0.3171
  242MOL0     C32581   2.613   9.803  -0.632 -0.0493 -0.0118  0.5599
  242MOL0     C32582   2.685   9.877  -0.537 -0.4152  0.3578  0.4098
  242MOL0     O32583   2.644  10.234  -0.505  0.4880 -0.5660  0.2990
  242MOL0     C32584   2.840  10.219  -0.219 -1.1055 -0.0629 -0.3495
  242MOL0     C32585   2.922  10.297  -0.130 -0.0216  0.1388 -0.2866
  242MOL0     N32586   2.556  10.671   0.345  0.1939  0.8641  0.0239
  242MOL0     N32587   2.494  10.654   0.459  0.1504 -0.0142 -0.3618
  242MOL0     C32588   2.964  10.153   1.466  0.5817  0.2195  0.7426
  242MOL0     C32589   2.973  10.170   1.606 -0.0270  0.1662  1.2229
  242MOL0     C32590   3.179  10.162   2.009 -0.2179 -0.0370 -0.5519
  242MOL0     C32591   3.265  10.269   2.033  0.7706  1.0417  0.6417
  242MOL0     C32592   3.323  10.281   2.157 -0.4274 -0.2466  0.8128
  242MOL0     C32593   3.300  10.189   2.260  0.7112  0.0527  1.2588
  242MOL0     O32594   3.330  10.226   2.388  0.9099  0.0903 -0.2692
  242MOL0     C32595   3.295  10.360   2.430  0.2688  0.2208  0.0390
  242MOL0     C32596   3.142  10.375   2.424  0.5460 -0.2418  0.2948
  242MOL0     C32597   3.106  10.507   2.484  0.1104 -1.5742 -0.1312
  242MOL0     C32598   2.956  10.530   2.502 -0.0543 -0.3416 -0.1320
  242MOL0     C32599   2.879  10.530   2.384  0.5331  0.0157  0.7517
  242MOL0     C32600   2.816  10.563   2.282  0.3139  0.3819 -0.6935
  242MOL0     C32601   3.238  10.070   2.234  0.2096  0.0791  0.2638
  242MOL0     C32602   3.175  10.060   2.107  0.5218 -0.5749  0.3417
  242MOL0     H32603   3.299  10.253   1.626  0.0706 -0.9934 -0.5871
  242MOL0     H32604   3.289  10.225   1.387  0.9933 -0.5604  1.3514
  242MOL0     H32605   3.075  10.364   1.197  0.2094  0.9781 -2.0604
  242MOL0     H32606   3.230  10.284   1.166  0.7954 -0.4798  1.1801
  242MOL0     H32607   3.103  10.360   0.959 -2.8284  1.7614  1.3031
  242MOL0     H32608   3.117  10.186   0.957 -0.5262  0.7240 -1.6075
  242MOL0     H32609   2.908  10.180   0.927 -2.4070  1.8591 -0.2741
  242MOL0     H32610   2.880  10.214   1.099 -0.0124 -1.4499  0.1343
  242MOL0     H32611   2.880  10.458   1.031  1.0389  0.8413  0.1989
  242MOL0     H32612   2.914  10.425   0.868  1.4552  1.1534  2.3821
  242MOL0     H32613   2.704  10.277   0.841 -0.3328  1.1970 -0.5938
  242MOL0     H32614   2.664  10.307   1.012  0.7158 -1.6057 -1.0667
  242MOL0     H32615   2.535  10.462   0.909 -0.5808  1.7202  0.8794
  242MOL0     H32616   2.674  10.566   0.942  1.7958 -0.1441 -2.0392
  242MOL0     H32617   2.766  10.515   0.714  0.6045 -0.9343 -0.0215
  242MOL0     H32618   2.631  10.427   0.668  0.0100  2.2449 -1.9843
  242MOL0     H32619   2.609  10.720   0.758 -0.0806  1.7055 -1.5508
  242MOL0     H32620   2.467  10.624   0.721  0.1841  3.2110  0.7733
  242MOL0     H32621   2.811  10.710   0.530  0.0767 -1.6939 -1.5235
  242MOL0     H32622   2.734  10.714   0.154  0.3619 -3.3072  0.1861
  242MOL0     H32623   2.834  10.811   0.270 -3.1292  0.0612  2.8158
  242MOL0     H32624   2.848  10.513   0.220  0.1055 -1.0414  0.1090
  242MOL0     H32625   2.939  10.601   0.346 -0.2821 -0.5625  0.4780
  242MOL0     H32626   3.092  10.563   0.170 -1.1619 -3.3126 -3.9031
  242MOL0     H32627   3.045  10.742   0.175 -3.1666  0.3287  3.9995
  242MOL0     H32628   3.075  10.691  -0.053  1.5829  2.3758  2.7960
  242MOL0     H32629   2.897  10.684  -0.038  0.8109  1.5896 -0.9858
  242MOL0     H32630   2.804  10.604  -0.210 -3.2230 -0.0295 -1.7172
  242MOL0     H32631   2.627  10.583  -0.351  4.1417  1.2939 -0.2139
  242MOL0     H32632   2.687  10.505  -0.502  4.3201 -2.6442  1.4373
  242MOL0     H32633   2.552  10.430  -0.410 -0.5769  0.8288 -0.4285
  242MOL0     H32634   2.421  10.063  -0.421  2.4502  3.5936 -4.0262
  242MOL0     H32635   2.284   9.909  -0.543 -0.9999 -1.8210  0.2602
  242MOL0     H32636   2.215   9.756  -0.794 -1.2981  1.5597  2.4165
  242MOL0     H32637   2.337   9.881  -0.837  0.3355  0.2684  2.1827
  242MOL0     H32638   2.465   9.707  -0.968  0.0221  2.8096 -1.5123
  242MOL0     H32639   2.339   9.588  -0.955  1.7320  0.8492 -0.1477
  242MOL0     H32640   2.313   9.849  -1.100 -1.4382  0.9298  0.5429
  242MOL0     H32641   2.171   9.766  -1.043  0.4402  2.4284 -0.5559
  242MOL0     H32642   2.367   9.639  -1.239 -0.0788  0.1603 -0.7948
  242MOL0     H32643   2.215   9.579  -1.165  3.8063 -0.9351  2.4256
  242MOL0     H32644   2.245   9.809  -1.356  2.8489 -2.6230 -0.7175
  242MOL0     H32645   2.093   9.776  -1.265  1.2693  1.8927  3.1211
  242MOL0     H32646   2.242   9.598  -1.430 -0.5916 -0.4110 -1.0560
  242MOL0     H32647   2.082   9.573  -1.345 -0.3536  1.7171  2.2828
  242MOL0     H32648   2.124   9.770  -1.564  0.5977  0.1687  0.1419
  242MOL0     H32649   1.966   9.708  -1.492 -0.3749  1.3471 -3.2532
  242MOL0     H32650   2.159   9.578  -1.673 -0.4572 -1.6820 -0.3961
  242MOL0     H32651   2.000   9.626  -1.716  1.8211  2.4690  0.5534
  242MOL0     H32652   2.660   9.721  -0.685 -0.0628 -0.5572  1.3719
  242MOL0     H32653   2.792   9.864  -0.521 -0.5188 -0.8464  0.2464
  242MOL0     H32654   2.841  10.114  -0.191  0.7071 -0.0429 -0.2177
  242MOL0     H32655   2.989  10.264  -0.052  1.1194  1.7602 -0.5191
  242MOL0     H32656   2.870  10.124   1.421  1.1455 -0.1687 -0.2050
  242MOL0     H32657   2.878  10.173   1.658  0.0377  0.1398  1.3444
  242MOL0     H32658   3.278  10.350   1.962  0.4406  0.0689 -0.5711
  242MOL0     H32659   3.373  10.375   2.176  0.6096 -0.6473  0.1664
  242MOL0     H32660   3.330  10.367   2.534 -1.1723 -0.7729  0.6233
  242MOL0     H32661   3.355  10.424   2.364 -0.5706 -0.6514 -1.6329
  242MOL0     H32662   3.097  10.292   2.480  3.4634 -0.9512  1.7937
  242MOL0     H32663   3.102  10.369   2.323 -0.8059 -1.3019  0.8617
  242MOL0     H32664   3.141  10.594   2.428  2.6364 -1.9662  0.6894
  242MOL0     H32665   3.163  10.510   2.578  0.9575  0.7676 -0.6426
  242MOL0     H32666   2.929  10.624   2.550 -4.5183  0.2335 -3.1487
  242MOL0     H32667   2.911  10.449   2.559 -1.5749 -0.7396 -1.7953
  242MOL0     H32668   2.770  10.577   2.186 -2.1604 -1.9383  0.0428
  242MOL0     H32669   3.248   9.988   2.303  3.4080  0.4302  0.3804
  242MOL0     H32670   3.123   9.965   2.094 -2.0648  0.9276 -1.3175
  243MOL0     O32671   4.724   2.374   3.091 -0.2459 -0.4358  0.3574
  243MOL0     C32672   4.756   2.330   3.203  0.8331  0.7306  0.0863
  243MOL0     O32673   4.851   2.240   3.231 -1.1699 -0.0781  0.3456
  243MOL0     C32674   4.910   2.158   3.132 -0.7839  0.0148 -0.5744
  243MOL0     C32675   4.869   2.148   3.008 -1.0110  0.1954 -0.3697
  243MOL0     C32676   4.938   2.060   2.919 -0.2796 -0.2790 -0.4353
  243MOL0     C32677   5.047   1.981   2.963 -0.4670  0.1117  0.2725
  243MOL0     O32678   5.098   1.888   2.876 -0.2760 -0.4366  0.1062
  243MOL0     C32679   5.212   1.797   2.917  0.1808  0.6970 -0.3992
  243MOL0     C32680   5.250   1.707   2.796  0.5692  0.8175 -0.0218
  243MOL0     C32681   5.373   1.758   2.725  0.2727 -0.3174 -0.1707
  243MOL0     C32682   5.431   1.672   2.611 -0.7188 -0.9801  0.3090
  243MOL0     C32683   5.560   1.731   2.549 -0.3318 -0.7946 -0.5613
  243MOL0     C32684   5.526   1.862   2.481  0.4196  0.2309 -0.3119
  243MOL0     C32685   5.618   1.884   2.365 -0.4351  0.9829  0.0970
  243MOL0     C32686   5.770   1.886   2.412 -0.4090  0.3707  0.6944
  243MOL0     N32687   5.796   1.996   2.503  0.1311  0.7004  0.3680
  243MOL0     C32688   5.736   2.118   2.502  0.1323  0.8251  0.8744
  243MOL0     C32689   5.778   2.183   2.609  0.2043  0.3444 -0.2320
  243MOL0     C32690   5.736   2.337   2.634  0.4960 -0.1477 -0.0097
  243MOL0     C32691   5.671   2.352   2.766 -0.5069  0.0245 -0.7698
  243MOL0     C32692   5.615   2.493   2.801  0.8466 -0.2940 -0.4229
  243MOL0     C32693   5.535   2.484   2.932 -0.0786 -0.0255 -0.3316
  243MOL0     O32694   5.636   2.454   3.030  0.4687  0.1499  0.3840
  243MOL0     C32695   5.726   2.550   3.071 -0.6645 -0.0406 -0.0256
  243MOL0     C32696   5.861   2.518   3.093 -0.5220 -0.2890  0.4777
  243MOL0     C32697   5.953   2.613   3.125 -0.3914 -0.1894 -0.2505
  243MOL0     C32698   6.095   2.564   3.150 -0.1398  0.5436 -0.9579
  243MOL0     C32699   5.911   2.755   3.140 -0.6217  0.3655  0.8599
  243MOL0     C32700   5.998   2.871   3.175 -0.2661  0.9815  0.6850
  243MOL0     O32701   5.936   2.994   3.164  0.3331  0.1540 -0.6114
  243MOL0     C32702   5.996   3.113   3.196 -0.3750  0.4481 -0.6452
  243MOL0     C32703   5.910   3.215   3.192 -0.2728 -0.3096 -0.7547
  243MOL0     C32704   5.952   3.347   3.202 -0.9330 -0.8087  0.0168
  243MOL0     C32705   6.085   3.381   3.222 -0.3333  0.4952  0.5158
  243MOL0     O32706   6.150   3.507   3.233  0.3115 -0.8765 -0.0720
  243MOL0     C32707   6.067   3.623   3.255 -0.4993 -0.0649 -0.4165
  243MOL0     C32708   6.142   3.737   3.320 -1.7015 -0.2308 -0.2753
  243MOL0     C32709   6.275   3.793   3.259  0.5345  0.1058  0.0922
  243MOL0     C32710   6.239   3.897   3.144  0.0108 -0.4646 -0.4141
  243MOL0     C32711   6.368   3.973   3.090  0.4440 -0.0736  0.5100
  243MOL0     C32712   6.342   4.079   2.981  0.4828 -0.2494 -0.4497
  243MOL0     C32713   6.456   4.149   2.914  0.5417 -0.3212 -0.0543
  243MOL0     C32714   6.402   4.260   2.824 -0.5492  1.1025 -0.7174
  243MOL0    Cl32715   6.526   4.388   2.811  0.2422  0.1670 -0.3007
  243MOL0     C32716   6.173   3.273   3.231 -0.3931 -0.3257 -0.4056
  243MOL0     C32717   6.134   3.138   3.213  0.4399  0.2095 -0.1885
  243MOL0     O32718   6.118   2.847   3.195  0.2255  0.8304 -0.3378
  243MOL0     C32719   5.769   2.776   3.118 -0.4552  0.3625  0.1169
  243MOL0     C32720   5.678   2.681   3.082 -0.1577  0.4032  0.1011
  243MOL0     N32721   5.859   2.096   2.678 -0.0241 -0.4451  1.1793
  243MOL0     N32722   5.874   1.982   2.613  0.5729 -0.6433 -0.2167
  243MOL0     C32723   5.089   2.005   3.094  0.4852  0.5473  0.3450
  243MOL0     C32724   5.027   2.096   3.173  1.8436  0.4738 -1.1582
  243MOL0     C32725   4.699   2.401   3.311 -0.7487 -0.7297 -0.7437
  243MOL0     C32726   4.697   2.353   3.440 -0.9371 -0.1815 -0.1764
  243MOL0     C32727   4.625   2.431   3.539 -0.7131 -0.2788  0.4207
  243MOL0     C32728   4.564   2.556   3.517  0.4097  0.1089 -0.3064
  243MOL0     O32729   4.502   2.617   3.626  1.1941 -0.0997  0.0439
  243MOL0     C32730   4.368   2.550   3.633  0.1304  0.2924  0.7430
  243MOL0     C32731   4.271   2.627   3.720  0.2912 -1.4225  1.4745
  243MOL0     C32732   4.122   2.584   3.703  0.3167 -0.3633  0.2867
  243MOL0     C32733   4.026   2.626   3.810  0.3320  0.2951 -0.6713
  243MOL0     C32734   4.052   2.570   3.947  0.7134 -0.4082  0.3361
  243MOL0     C32735   4.057   2.529   4.059  0.8439  0.1325 -1.3025
  243MOL0     C32736   4.577   2.609   3.387  0.4698 -0.6897 -0.7763
  243MOL0     C32737   4.655   2.538   3.290  0.4506  0.5518 -0.5311
  243MOL0     H32738   4.775   2.187   2.970 -1.1487  1.0749  0.8570
  243MOL0     H32739   4.902   2.046   2.818  0.9887 -0.5483 -0.8669
  243MOL0     H32740   5.307   1.844   2.943  0.6976  0.1276 -1.2297
  243MOL0     H32741   5.177   1.749   3.009 -1.8724  2.5162 -0.1410
  243MOL0     H32742   5.263   1.605   2.833 -2.9887 -0.4467 -1.7892
  243MOL0     H32743   5.157   1.690   2.742 -0.5619  0.9711  1.7777
  243MOL0     H32744   5.357   1.848   2.666 -1.0386  0.1199  0.7949
  243MOL0     H32745   5.459   1.772   2.792 -0.1609  2.4060 -0.0527
  243MOL0     H32746   5.447   1.567   2.636 -1.2155 -0.8775  1.0899
  243MOL0     H32747   5.342   1.662   2.547 -1.1594  1.1727  0.5015
  243MOL0     H32748   5.638   1.762   2.618  0.2702 -0.7878 -1.2293
  243MOL0     H32749   5.606   1.669   2.471  0.3690  0.1256 -0.9023
  243MOL0     H32750   5.423   1.857   2.445  0.7456 -0.3361 -1.2148
  243MOL0     H32751   5.540   1.937   2.559  0.8875  1.1849 -1.2787
  243MOL0     H32752   5.607   1.803   2.293 -2.1126  0.7011  0.6415
  243MOL0     H32753   5.594   1.982   2.321 -1.9288  2.6502  4.0935
  243MOL0     H32754   5.830   1.898   2.321  3.9314 -0.4155  3.1703
  243MOL0     H32755   5.794   1.791   2.460 -1.2945  2.0148  4.7666
  243MOL0     H32756   5.679   2.167   2.424  2.2377  1.0250 -0.6182
  243MOL0     H32757   5.822   2.403   2.623 -0.2973  1.0044  0.4446
  243MOL0     H32758   5.658   2.372   2.565  1.2437  3.5953  0.8271
  243MOL0     H32759   5.745   2.332   2.844  0.5780 -0.2077 -1.8311
  243MOL0     H32760   5.596   2.273   2.758 -0.6456  0.3850 -4.8538
  243MOL0     H32761   5.553   2.528   2.718 -0.7668 -0.6577  0.6105
  243MOL0     H32762   5.692   2.571   2.810 -0.2002  0.5111  2.6894
  243MOL0     H32763   5.473   2.395   2.931 -0.5044  0.1933  1.8226
  243MOL0     H32764   5.475   2.575   2.942 -0.6132 -0.6037  2.8672
  243MOL0     H32765   5.877   2.414   3.067 -1.4395 -0.3672  0.1975
  243MOL0     H32766   6.110   2.456   3.165  1.5936  0.3789 -3.3046
  243MOL0     H32767   6.146   2.594   3.058 -2.0450  3.3355 -1.1991
  243MOL0     H32768   6.137   2.613   3.238  0.4675 -1.5834  0.0099
  243MOL0     H32769   5.805   3.194   3.174 -2.0570  3.3305  3.5134
  243MOL0     H32770   5.872   3.418   3.183  0.0571  0.3866  0.1834
  243MOL0     H32771   6.026   3.664   3.162 -0.4522  4.0473  1.1653
  243MOL0     H32772   5.988   3.599   3.326 -1.2669 -1.6239 -1.7476
  243MOL0     H32773   6.066   3.816   3.327 -3.2059 -1.7014  0.9013
  243MOL0     H32774   6.153   3.704   3.424 -1.2922 -1.8859 -0.8043
  243MOL0     H32775   6.347   3.719   3.222 -0.4134  1.1096 -4.3117
  243MOL0     H32776   6.312   3.844   3.349 -0.9998 -1.5284  1.7571
  243MOL0     H32777   6.197   3.849   3.055 -1.1124  0.6395 -0.5091
  243MOL0     H32778   6.158   3.958   3.185  2.4863  1.6543  1.6267
  243MOL0     H32779   6.430   3.898   3.040 -2.3898 -1.1575 -1.7308
  243MOL0     H32780   6.436   4.018   3.162  0.7972  2.2490 -1.1501
  243MOL0     H32781   6.281   4.032   2.903  1.3069  1.5435 -2.2859
  243MOL0     H32782   6.292   4.163   3.030  3.0436 -0.4617  2.8836
  243MOL0     H32783   6.510   4.075   2.854 -4.7904 -3.1116 -2.1508
  243MOL0     H32784   6.521   4.187   2.993  1.3470 -2.6661  0.5094
  243MOL0     H32785   6.313   4.297   2.875  0.4237  1.0469  1.1057
  243MOL0     H32786   6.371   4.217   2.729 -1.6182 -0.4863  0.3068
  243MOL0     H32787   6.278   3.292   3.249 -0.1526 -0.6241 -1.4564
  243MOL0     H32788   6.202   3.054   3.215  0.3695  0.1670  0.6229
  243MOL0     H32789   5.730   2.874   3.143  3.5426  1.4720  3.0623
  243MOL0     H32790   5.572   2.700   3.068 -0.5148 -1.9740 -0.9830
  243MOL0     H32791   5.177   1.953   3.130  0.3856  0.2513  0.1663
  243MOL0     H32792   5.050   2.113   3.278 -0.4877  3.8910 -1.0090
  243MOL0     H32793   4.741   2.256   3.462  0.6887  0.6119  0.2924
  243MOL0     H32794   4.616   2.391   3.640  1.2847  1.5956  1.4051
  243MOL0     H32795   4.322   2.523   3.537  1.4724 -0.9511  0.4212
  243MOL0     H32796   4.391   2.454   3.682 -2.1449 -0.5811  0.2446
  243MOL0     H32797   4.280   2.734   3.703 -0.2603 -1.3815  1.4308
  243MOL0     H32798   4.311   2.615   3.822  0.5176 -0.0845  1.5536
  243MOL0     H32799   4.109   2.476   3.710 -3.4470  0.0473  2.0041
  243MOL0     H32800   4.089   2.627   3.608  2.4745 -0.1792 -0.4348
  243MOL0     H32801   3.923   2.604   3.782 -0.3590  2.5378 -0.1137
  243MOL0     H32802   4.029   2.735   3.814  0.8855  0.2489  0.9530
  243MOL0     H32803   4.090   2.516   4.160 -0.3135 -0.0323 -0.9287
  243MOL0     H32804   4.516   2.689   3.348 -1.9413 -2.7481 -1.5037
  243MOL0     H32805   4.655   2.577   3.188 -1.3639 -0.4524 -0.9560
  244MOL0     O32806   6.259   7.419   6.511  0.1248 -0.1696  0.3510
  244MOL0     C32807   6.349   7.341   6.480 -0.9463  0.8111  0.0387
  244MOL0     O32808   6.444   7.282   6.569  0.0642  1.5490  0.4712
  244MOL0     C32809   6.436   7.308   6.705  0.3534 -0.5954 -0.9624
  244MOL0     C32810   6.531   7.389   6.763 -0.1182  0.1648 -0.3233
  244MOL0     C32811   6.531   7.422   6.901 -0.5597 -0.4194  0.1112
  244MOL0     C32812   6.433   7.384   6.981 -0.3899  1.0803 -0.7141
  244MOL0     O32813   6.442   7.421   7.114 -0.6098  0.0589 -0.6956
  244MOL0     C32814   6.355   7.361   7.212  0.7236  1.0294  0.4189
  244MOL0     C32815   6.409   7.223   7.236  0.8801  0.5457  0.4694
  244MOL0     C32816   6.339   7.150   7.357  0.1654  0.7104  0.1039
  244MOL0     C32817   6.185   7.170   7.349 -0.8775  0.6019 -0.1032
  244MOL0     C32818   6.116   7.061   7.437 -0.6837 -0.0817 -0.0536
  244MOL0     C32819   5.971   7.086   7.443 -0.3944 -0.0691 -0.2669
  244MOL0     C32820   5.906   6.998   7.540  0.6724 -0.0847  0.2658
  244MOL0     C32821   5.749   6.991   7.541 -0.0516  0.4276  0.0471
  244MOL0     N32822   5.694   7.093   7.634  0.2223 -0.0028  0.1507
  244MOL0     C32823   5.715   7.104   7.769 -0.4493  0.3786 -0.4336
  244MOL0     C32824   5.632   7.188   7.822 -0.0306  0.7142 -0.1447
  244MOL0     C32825   5.603   7.232   7.961  0.6196  0.2725  0.0153
  244MOL0     C32826   5.697   7.354   7.993 -0.2292  0.6119 -0.6212
  244MOL0     C32827   5.651   7.418   8.127 -0.3092 -0.1633 -0.1975
  244MOL0     C32828   5.748   7.515   8.184  0.1966  1.1597  0.6128
  244MOL0     O32829   5.695   7.579   8.292  0.1175  0.1639 -0.1511
  244MOL0     C32830   5.602   7.679   8.265 -0.4393  0.0908  0.3781
  244MOL0     C32831   5.597   7.760   8.150 -0.1547  0.8920  0.2951
  244MOL0     C32832   5.509   7.873   8.132 -1.0201 -0.0569 -0.3803
  244MOL0     C32833   5.506   7.945   7.998 -0.3856  0.3929 -0.0905
  244MOL0     C32834   5.422   7.899   8.245 -0.4162 -0.0388  0.1146
  244MOL0     C32835   5.331   8.020   8.255 -0.0265 -0.5430 -0.2859
  244MOL0     O32836   5.293   8.061   8.381 -1.2075  0.0402  0.8682
  244MOL0     C32837   5.240   8.187   8.404 -0.0836 -1.0637 -0.8434
  244MOL0     C32838   5.323   8.298   8.419 -0.4954  0.0938  0.2215
  244MOL0     C32839   5.264   8.419   8.449  0.2024 -0.6919 -0.4888
  244MOL0     C32840   5.116   8.434   8.445 -0.6008 -0.2290 -0.6785
  244MOL0     O32841   5.062   8.557   8.451  0.1274 -0.2466 -0.4542
  244MOL0     C32842   5.008   8.615   8.330  0.8797  0.1955 -0.3557
  244MOL0     C32843   5.072   8.733   8.268  0.1342 -0.0720 -0.0927
  244MOL0     C32844   4.985   8.811   8.161  0.7303  0.3230  1.3988
  244MOL0     C32845   5.067   8.918   8.094  0.0664 -0.7652  0.6329
  244MOL0     C32846   5.120   9.018   8.200  0.8235 -0.6219  0.3613
  244MOL0     C32847   5.165   9.146   8.130 -0.1934 -0.0832 -0.4188
  244MOL0     C32848   5.208   9.243   8.239 -0.2973  0.3983  0.9976
  244MOL0     C32849   5.294   9.353   8.183  0.6874  1.0248  1.3285
  244MOL0    Cl32850   5.451   9.278   8.138  0.0648  0.3107  0.4564
  244MOL0     C32851   5.038   8.318   8.422  0.1302 -0.5095  1.2366
  244MOL0     C32852   5.098   8.194   8.405  0.0414 -0.0969  1.0988
  244MOL0     O32853   5.295   8.071   8.150 -0.9245 -0.4065 -0.7627
  244MOL0     C32854   5.424   7.809   8.360 -0.2397 -0.6109  0.4150
  244MOL0     C32855   5.512   7.697   8.369  0.6591 -0.7422  0.0478
  244MOL0     N32856   5.552   7.229   7.717 -0.2580 -0.3154  0.0781
  244MOL0     N32857   5.583   7.156   7.616 -0.0661 -0.3127 -0.3373
  244MOL0     C32858   6.336   7.314   6.924 -0.0115  0.9316 -0.4589
  244MOL0     C32859   6.331   7.274   6.789  1.1796 -0.4784  0.0873
  244MOL0     C32860   6.344   7.282   6.341  0.0387  0.0893  0.5255
  244MOL0     C32861   6.248   7.331   6.243 -0.0625 -0.4118  0.6272
  244MOL0     C32862   6.260   7.278   6.110 -0.4560 -0.5688  0.1792
  244MOL0     C32863   6.349   7.181   6.061 -0.0843 -0.3452  0.6572
  244MOL0     O32864   6.371   7.144   5.938  0.0908  0.0629  0.4925
  244MOL0     C32865   6.329   7.221   5.819 -0.3321  0.2103  0.3104
  244MOL0     C32866   6.441   7.234   5.717  1.0666 -0.6170  0.7269
  244MOL0     C32867   6.412   7.327   5.596 -0.5539 -1.2865  0.1642
  244MOL0     C32868   6.505   7.300   5.475  0.2358  0.7760 -0.5030
  244MOL0     C32869   6.644   7.312   5.515 -0.8644 -0.5692 -0.1964
  244MOL0     C32870   6.760   7.331   5.549 -0.0277  0.6784 -1.1724
  244MOL0     C32871   6.440   7.137   6.160  0.2941  0.5661 -0.3193
  244MOL0     C32872   6.435   7.180   6.291  0.0928 -0.1688  0.3972
  244MOL0     H32873   6.623   7.414   6.712 -1.4971  1.1682 -2.4687
  244MOL0     H32874   6.617   7.477   6.936 -0.3034  1.6966 -3.3773
  244MOL0     H32875   6.375   7.420   7.302  2.0939 -1.4198  1.8359
  244MOL0     H32876   6.248   7.373   7.191  0.1995 -2.1729  0.8568
  244MOL0     H32877   6.400   7.160   7.147  0.8986 -2.9970  2.7777
  244MOL0     H32878   6.516   7.225   7.256  1.0007 -0.3551 -0.0379
  244MOL0     H32879   6.357   7.042   7.354 -2.2330  0.2464  0.6891
  244MOL0     H32880   6.378   7.184   7.454  0.1659 -3.5128  1.8357
  244MOL0     H32881   6.149   7.271   7.372 -3.6713 -0.5857  1.1375
  244MOL0     H32882   6.163   7.145   7.244  1.2337  3.4991 -1.3804
  244MOL0     H32883   6.147   6.962   7.403 -0.0488 -0.0216  0.3291
  244MOL0     H32884   6.161   7.068   7.537 -0.0613 -0.0228 -0.3340
  244MOL0     H32885   5.966   7.188   7.480  4.7583 -0.3049  1.8886
  244MOL0     H32886   5.931   7.074   7.342  0.8834 -2.5722 -0.5674
  244MOL0     H32887   5.935   6.896   7.514  0.8029  0.4858 -2.0075
  244MOL0     H32888   5.928   7.026   7.643  0.3780  1.0620  0.0283
  244MOL0     H32889   5.719   6.894   7.582 -1.5560  1.0734  0.5113
  244MOL0     H32890   5.707   7.001   7.441  0.6907 -1.6634 -0.5359
  244MOL0     H32891   5.792   7.049   7.821  1.6355  2.1600 -1.4742
  244MOL0     H32892   5.497   7.259   7.972  1.7402  5.3206  0.8488
  244MOL0     H32893   5.615   7.147   8.029 -1.0088 -0.7209 -0.8700
  244MOL0     H32894   5.709   7.436   7.922  1.1620  2.1489  1.2586
  244MOL0     H32895   5.796   7.315   8.018  0.6736  2.3565 -1.3110
  244MOL0     H32896   5.619   7.346   8.203 -2.8752  1.4145  0.3431
  244MOL0     H32897   5.559   7.476   8.126  0.1217  0.5580 -2.3127
  244MOL0     H32898   5.800   7.572   8.107 -0.2659 -1.5610 -1.8795
  244MOL0     H32899   5.822   7.446   8.227  0.5155  1.8825  1.2483
  244MOL0     H32900   5.654   7.737   8.061 -1.0821 -2.6379  0.4739
  244MOL0     H32901   5.402   7.955   7.964 -0.2419  0.9510 -0.3694
  244MOL0     H32902   5.533   8.050   8.005 -0.5827  0.4450 -0.0974
  244MOL0     H32903   5.563   7.893   7.920  0.0403 -0.8610  1.0180
  244MOL0     H32904   5.430   8.286   8.434  0.2027  0.5487 -3.3522
  244MOL0     H32905   5.330   8.502   8.471 -1.4423  0.0648  2.0723
  244MOL0     H32906   5.022   8.538   8.253 -0.1702  0.3068 -0.6737
  244MOL0     H32907   4.902   8.639   8.342  1.2813  0.4707  4.9992
  244MOL0     H32908   5.101   8.804   8.346  0.9492  0.8342 -1.1775
  244MOL0     H32909   5.165   8.708   8.216  1.7000  1.0970  1.9870
  244MOL0     H32910   4.888   8.838   8.204  1.1783  1.3398  1.8020
  244MOL0     H32911   4.964   8.747   8.074  3.1484  1.1108  0.1546
  244MOL0     H32912   5.155   8.884   8.038  0.0642 -0.0852  0.2014
  244MOL0     H32913   5.004   8.974   8.025 -1.4337 -2.2619  0.7244
  244MOL0     H32914   5.200   8.974   8.261 -1.1078 -6.9472 -0.9801
  244MOL0     H32915   5.041   9.048   8.269  0.7009  0.5914 -0.2672
  244MOL0     H32916   5.249   9.128   8.062  0.1679  0.7861 -0.2156
  244MOL0     H32917   5.093   9.185   8.059 -1.2303 -0.2280  0.5231
  244MOL0     H32918   5.256   9.199   8.327  0.8158 -0.7586 -0.1643
  244MOL0     H32919   5.115   9.294   8.267  0.5828  3.4334 -1.1155
  244MOL0     H32920   5.300   9.424   8.266  2.5827  1.3363  0.9700
  244MOL0     H32921   5.248   9.401   8.096  2.7623 -0.6273 -0.7887
  244MOL0     H32922   4.932   8.337   8.416  0.0338 -0.4702  2.6447
  244MOL0     H32923   5.030   8.110   8.397  0.4907 -0.3769  0.1154
  244MOL0     H32924   5.349   7.806   8.438  2.2781 -0.6154  3.0051
  244MOL0     H32925   5.503   7.625   8.450 -0.2728 -0.8511 -0.1349
  244MOL0     H32926   6.249   7.279   6.979 -0.0326 -2.4428 -2.3741
  244MOL0     H32927   6.265   7.195   6.755  1.0442 -0.8276  1.1386
  244MOL0     H32928   6.183   7.410   6.278  0.4632  0.7926 -0.9827
  244MOL0     H32929   6.194   7.331   6.042 -0.5246 -3.5650 -2.2994
  244MOL0     H32930   6.247   7.169   5.768  0.7188  2.5323 -4.2861
  244MOL0     H32931   6.287   7.319   5.846 -1.1208  0.1772 -0.7545
  244MOL0     H32932   6.460   7.129   5.695 -3.3896 -2.0110  2.4389
  244MOL0     H32933   6.526   7.281   5.768  1.8020 -0.1762 -0.8400
  244MOL0     H32934   6.423   7.432   5.627 -4.5943 -0.0172 -2.0945
  244MOL0     H32935   6.305   7.325   5.576 -0.9021  2.0697  1.0807
  244MOL0     H32936   6.487   7.378   5.401  0.4778  0.4721 -0.8848
  244MOL0     H32937   6.475   7.214   5.415 -0.0840  1.9735 -2.1149
  244MOL0     H32938   6.860   7.358   5.578  0.3228 -2.4866  1.1101
  244MOL0     H32939   6.514   7.060   6.136 -3.0141 -2.7598 -0.8279
  244MOL0     H32940   6.487   7.120   6.365 -0.8935  1.5276  2.5600
  245MOL0     O32941   9.005   1.651   5.662 -0.0321 -0.1215  0.3688
  245MOL0     C32942   9.013   1.731   5.759 -0.5899 -0.0907 -0.6665
  245MOL0     O32943   9.022   1.694   5.882  0.1071 -0.4742  0.2597
  245MOL0     C32944   9.031   1.565   5.919  0.9060  0.0308 -0.1597
  245MOL0     C32945   8.921   1.483   5.898 -0.6666 -0.0996  0.6515
  245MOL0     C32946   8.933   1.348   5.925 -0.0595  0.5960 -0.0457
  245MOL0     C32947   9.040   1.294   6.001 -0.3929  0.4741  0.6268
  245MOL0     O32948   9.049   1.173   6.058 -0.1801 -0.0061 -1.3932
  245MOL0     C32949   8.946   1.086   6.032 -0.6586  0.0963 -0.3133
  245MOL0     C32950   8.964   0.950   6.106  0.1814  1.4445 -0.7587
  245MOL0     C32951   8.863   0.843   6.072 -1.0233 -0.5312  0.0562
  245MOL0     C32952   8.723   0.875   6.129  0.0615  0.7093 -0.3190
  245MOL0     C32953   8.615   0.774   6.090  0.5833  0.2199 -0.6411
  245MOL0     C32954   8.582   0.783   5.935 -0.1881 -0.8866 -0.1837
  245MOL0     C32955   8.512   0.663   5.876  0.5870  0.2459  0.3996
  245MOL0     C32956   8.364   0.642   5.900  0.4563 -0.1695  0.7419
  245MOL0     N32957   8.326   0.527   5.824  0.0637  0.1223  0.8118
  245MOL0     C32958   8.207   0.463   5.842 -0.0642  0.4403  0.3243
  245MOL0     C32959   8.217   0.336   5.780 -0.2821 -1.2693 -0.1316
  245MOL0     C32960   8.117   0.230   5.749 -0.6574 -1.2003  0.4484
  245MOL0     C32961   8.149   0.119   5.655  0.2204  1.2083  0.6345
  245MOL0     C32962   8.053  -0.001   5.650  0.9107  0.8725  0.6777
  245MOL0     C32963   8.063  -0.089   5.529  0.2065  0.0199  0.2483
  245MOL0     O32964   8.008  -0.221   5.545  1.0518 -0.4467 -0.6777
  245MOL0     C32965   7.886  -0.249   5.494  0.4010  0.8340  0.6054
  245MOL0     C32966   7.779  -0.159   5.497 -0.2648 -1.1871  0.4842
  245MOL0     C32967   7.649  -0.186   5.455  0.1311  0.3288 -0.1282
  245MOL0     C32968   7.547  -0.078   5.473  0.4175  0.0132 -0.0102
  245MOL0     C32969   7.633  -0.311   5.387  0.7521  0.4077 -0.7919
  245MOL0     C32970   7.505  -0.354   5.329 -1.1983 -0.3411  0.5354
  245MOL0     O32971   7.463  -0.485   5.343 -0.6773 -0.3856 -0.4724
  245MOL0     C32972   7.370  -0.525   5.246 -0.4132  0.8216 -0.2006
  245MOL0     C32973   7.244  -0.568   5.282  0.4136  0.5855  0.1656
  245MOL0     C32974   7.165  -0.628   5.197  0.1965  0.3222  1.0719
  245MOL0     C32975   7.216  -0.651   5.062  0.0561  0.2704  0.5710
  245MOL0     O32976   7.137  -0.729   4.987 -0.0506 -0.3175 -0.2443
  245MOL0     C32977   7.155  -0.742   4.843 -0.6811 -0.4476 -0.1888
  245MOL0     C32978   7.032  -0.810   4.787 -0.3736 -0.1809  0.2037
  245MOL0     C32979   7.033  -0.848   4.642  0.6217  0.2439  0.4599
  245MOL0     C32980   7.142  -0.948   4.597 -0.3720  0.0412  0.1262
  245MOL0     C32981   7.113  -1.011   4.459  0.1369 -0.0636  0.1615
  245MOL0     C32982   7.155  -1.161   4.449 -1.5658  0.0329  0.1471
  245MOL0     C32983   7.094  -1.249   4.556 -0.2251  0.3576  0.1933
  245MOL0     C32984   6.940  -1.250   4.555 -0.1776 -0.0623 -0.6917
  245MOL0    Cl32985   6.882  -1.284   4.397 -0.2580  0.2202  0.3685
  245MOL0     C32986   7.344  -0.600   5.021 -0.4834 -0.7232  0.4686
  245MOL0     C32987   7.422  -0.536   5.120 -0.2210  0.1444  0.3560
  245MOL0     O32988   7.450  -0.272   5.256  0.0913 -0.1658 -0.2516
  245MOL0     C32989   7.742  -0.410   5.389  0.2613  0.5371 -0.2806
  245MOL0     C32990   7.861  -0.375   5.452 -0.5499 -0.3045  0.7409
  245MOL0     N32991   8.347   0.323   5.742 -0.5934  0.6218 -0.1393
  245MOL0     N32992   8.406   0.434   5.764 -0.8000 -0.2565  0.5302
  245MOL0     C32993   9.149   1.381   6.032 -0.5402  0.2526 -0.0658
  245MOL0     C32994   9.134   1.513   5.998 -0.5836  0.2449  0.1635
  245MOL0     C32995   9.013   1.866   5.726  0.0493  0.1201  0.1004
  245MOL0     C32996   8.970   1.964   5.815  0.1559 -0.4136 -0.0398
  245MOL0     C32997   8.976   2.093   5.787 -0.2082  1.5281  0.1420
  245MOL0     C32998   9.024   2.133   5.665  0.0933 -0.3134  0.6259
  245MOL0     O32999   9.030   2.268   5.642 -0.4611  0.1749  0.3233
  245MOL0     C33000   9.106   2.316   5.527  0.6674 -0.2764 -0.5702
  245MOL0     C33001   9.137   2.457   5.533  0.5645  1.2433  0.0129
  245MOL0     C33002   9.230   2.504   5.426 -0.2300 -0.1386  0.1953
  245MOL0     C33003   9.257   2.651   5.441  0.8338 -1.1395  0.3369
  245MOL0     C33004   9.389   2.684   5.387  0.0759  0.5484 -0.6135
  245MOL0     C33005   9.490   2.698   5.329  0.2665 -0.0062 -0.5117
  245MOL0     C33006   9.065   2.043   5.571 -0.4979  1.3443  0.7486
  245MOL0     C33007   9.056   1.905   5.596  0.3698 -1.3297  0.5297
  245MOL0     H33008   8.829   1.527   5.862 -1.6733 -0.6975  2.3454
  245MOL0     H33009   8.846   1.283   5.925  0.7159 -0.4830  0.7570
  245MOL0     H33010   8.849   1.127   6.059 -1.5166 -0.9443 -1.6794
  245MOL0     H33011   8.951   1.070   5.924  1.4739  4.0514 -0.9990
  245MOL0     H33012   9.062   0.910   6.079  1.2333  2.2731  1.5422
  245MOL0     H33013   8.963   0.958   6.215 -2.0782  2.3195 -0.8000
  245MOL0     H33014   8.864   0.839   5.962 -1.9427 -1.8936  0.0758
  245MOL0     H33015   8.894   0.741   6.094  1.8425 -0.2793 -2.1448
  245MOL0     H33016   8.728   0.885   6.238  1.6410 -0.4863 -0.2420
  245MOL0     H33017   8.679   0.968   6.093  0.8564  1.3929  0.4176
  245MOL0     H33018   8.668   0.681   6.111  4.6959  2.5571  0.4675
  245MOL0     H33019   8.527   0.799   6.151  0.3679  0.5337 -1.0779
  245MOL0     H33020   8.521   0.871   5.914  1.8025  0.8890  1.0393
  245MOL0     H33021   8.676   0.805   5.883 -1.1187  2.1671 -0.8002
  245MOL0     H33022   8.525   0.675   5.768  0.3120  0.2914  0.3705
  245MOL0     H33023   8.580   0.584   5.909  2.1229  1.2665 -0.1635
  245MOL0     H33024   8.307   0.729   5.866 -1.0983 -1.7441 -0.9128
  245MOL0     H33025   8.338   0.617   6.003 -2.0970  3.1401  1.0356
  245MOL0     H33026   8.114   0.514   5.867 -0.6728 -1.0739  1.2871
  245MOL0     H33027   8.097   0.174   5.840  1.0428 -4.9993 -1.3228
  245MOL0     H33028   8.022   0.274   5.715  0.5828  0.9194 -0.5066
  245MOL0     H33029   8.240   0.069   5.688 -0.0127 -3.3860 -4.2162
  245MOL0     H33030   8.166   0.141   5.549 -0.4139 -0.6999  0.0959
  245MOL0     H33031   7.949   0.029   5.663 -0.3033 -3.4662  3.0678
  245MOL0     H33032   8.079  -0.054   5.742  2.2743 -0.0725 -0.2141
  245MOL0     H33033   8.170  -0.107   5.521  1.0384  2.9788  2.4084
  245MOL0     H33034   8.024  -0.038   5.440 -1.8437  2.5658  2.3931
  245MOL0     H33035   7.807  -0.059   5.530  0.6562 -1.3137  0.0928
  245MOL0     H33036   7.447  -0.119   5.491  0.1016  0.6949 -0.1642
  245MOL0     H33037   7.570  -0.025   5.566  2.6549  3.0011 -2.0849
  245MOL0     H33038   7.545  -0.001   5.395 -3.0953 -0.0981 -0.2126
  245MOL0     H33039   7.216  -0.568   5.387 -1.3776  0.4941 -0.2701
  245MOL0     H33040   7.072  -0.676   5.226  0.0999 -0.6345 -0.6480
  245MOL0     H33041   7.153  -0.646   4.791  0.7237 -1.2757 -1.8761
  245MOL0     H33042   7.245  -0.797   4.816 -1.1723 -0.7228 -1.3570
  245MOL0     H33043   7.034  -0.904   4.843  1.9777 -0.5592 -0.4056
  245MOL0     H33044   6.938  -0.756   4.804 -0.5105  0.1642 -1.4472
  245MOL0     H33045   7.042  -0.764   4.573  4.0381 -1.3327 -1.3028
  245MOL0     H33046   6.937  -0.896   4.623  0.4339  0.8716 -0.2227
  245MOL0     H33047   7.240  -0.900   4.598 -0.4302  0.7551 -4.6160
  245MOL0     H33048   7.134  -1.030   4.669 -1.5800 -1.2724 -1.4228
  245MOL0     H33049   7.146  -0.953   4.372  1.6058 -1.4448 -0.2511
  245MOL0     H33050   7.004  -1.008   4.456  0.1464  0.2959 -2.4152
  245MOL0     H33051   7.133  -1.205   4.352  1.5734 -0.9728 -0.2294
  245MOL0     H33052   7.262  -1.172   4.471 -1.7573 -1.4097  0.3972
  245MOL0     H33053   7.141  -1.238   4.653  3.8948 -3.8771 -0.9678
  245MOL0     H33054   7.121  -1.352   4.531 -0.6102 -0.3982  2.6331
  245MOL0     H33055   6.891  -1.165   4.603  4.0527  1.4874  1.3292
  245MOL0     H33056   6.921  -1.341   4.614  0.6385  0.9089  1.1793
  245MOL0     H33057   7.394  -0.618   4.927 -2.0267 -4.3964  0.1598
  245MOL0     H33058   7.522  -0.503   5.093 -0.3691  0.4288  0.1545
  245MOL0     H33059   7.739  -0.506   5.340  3.4589 -0.7626  1.7055
  245MOL0     H33060   7.948  -0.438   5.465 -0.3679  0.1504  1.8372
  245MOL0     H33061   9.236   1.343   6.085  0.0050  0.9198 -0.4626
  245MOL0     H33062   9.211   1.581   6.035  0.3094 -1.1557  1.0135
  245MOL0     H33063   8.942   1.930   5.915 -1.2345  1.1917  0.1678
  245MOL0     H33064   8.943   2.164   5.862 -0.8372  2.2566 -0.8123
  245MOL0     H33065   9.202   2.264   5.524  0.2706 -1.2255  1.1982
  245MOL0     H33066   9.053   2.292   5.435  1.4342  2.3625 -1.7983
  245MOL0     H33067   9.178   2.474   5.632 -0.0776 -1.7225  0.8977
  245MOL0     H33068   9.042   2.509   5.521 -0.2563 -0.1070  0.3696
  245MOL0     H33069   9.193   2.490   5.324  2.7753 -0.8935 -0.9205
  245MOL0     H33070   9.320   2.441   5.421 -1.6622 -2.3244  0.5485
  245MOL0     H33071   9.247   2.672   5.548 -1.0165 -4.8576  1.0590
  245MOL0     H33072   9.179   2.709   5.391  0.4143 -0.4281  1.7738
  245MOL0     H33073   9.571   2.701   5.260  0.9791 -2.5689  0.1123
  245MOL0     H33074   9.109   2.062   5.473  0.4481 -3.8827 -0.1658
  245MOL0     H33075   9.081   1.852   5.504 -3.3015  2.4292 -3.1199
  246MOL0     O33076   5.658   7.124   7.224 -0.6236  0.8871  0.0534
  246MOL0     C33077   5.700   7.110   7.110 -0.3064  0.0349 -0.2373
  246MOL0     O33078   5.663   7.009   7.018  0.3222  0.4492 -0.4415
  246MOL0     C33079   5.582   6.913   7.058 -0.2099  1.5194 -0.3396
  246MOL0     C33080   5.632   6.774   7.047  0.7951 -0.8941  0.9676
  246MOL0     C33081   5.523   6.680   7.072 -0.3427 -0.0396 -0.1249
  246MOL0     C33082   5.389   6.712   7.087  0.8199  0.4875 -0.7725
  246MOL0     O33083   5.308   6.599   7.101  0.1698  0.4991  0.0552
  246MOL0     C33084   5.182   6.602   7.165  0.2281  0.3453 -0.6489
  246MOL0     C33085   5.142   6.457   7.124  0.5252 -0.2261  0.3205
  246MOL0     C33086   4.996   6.409   7.162  0.5345  0.4223 -0.9798
  246MOL0     C33087   4.995   6.342   7.302  0.6757  0.0639  0.8934
  246MOL0     C33088   4.870   6.255   7.340  0.1567  0.5514 -0.2071
  246MOL0     C33089   4.826   6.141   7.234 -0.1527  1.1224  0.4794
  246MOL0     C33090   4.709   6.057   7.294 -0.6908 -0.2402  0.3474
  246MOL0     C33091   4.670   5.942   7.208 -0.6089  1.5095 -0.2867
  246MOL0     N33092   4.606   5.975   7.085  0.1357 -0.1981  0.5582
  246MOL0     C33093   4.615   5.895   6.965 -0.4805 -0.8140 -0.9405
  246MOL0     C33094   4.561   5.972   6.875 -0.1608  0.6180  0.8783
  246MOL0     C33095   4.547   5.943   6.725 -0.4130  0.2267 -0.5070
  246MOL0     C33096   4.405   5.941   6.668 -0.1746  0.3245  0.3319
  246MOL0     C33097   4.326   5.832   6.749  0.5635  0.2797  0.4376
  246MOL0     C33098   4.315   5.707   6.662 -0.1725 -0.2684  0.4678
  246MOL0     O33099   4.441   5.635   6.636 -0.6198  0.5049  0.7602
  246MOL0     C33100   4.472   5.607   6.506  0.6770 -0.1320  0.4680
  246MOL0     C33101   4.607   5.610   6.462 -0.1722  0.4557  0.0338
  246MOL0     C33102   4.641   5.584   6.329 -0.2891  0.0800 -0.3075
  246MOL0     C33103   4.789   5.616   6.293  0.3650  0.3370  0.1352
  246MOL0     C33104   4.546   5.533   6.237  0.1275  0.6781 -0.6690
  246MOL0     C33105   4.572   5.490   6.092  0.0515 -0.4201 -0.1785
  246MOL0     O33106   4.477   5.457   6.005  0.6114  0.3656 -0.7739
  246MOL0     C33107   4.513   5.423   5.881 -0.4528 -0.2615  0.8674
  246MOL0     C33108   4.507   5.510   5.778  0.6149  0.2742  0.5905
  246MOL0     C33109   4.552   5.474   5.651  0.5222 -0.2059 -0.2467
  246MOL0     C33110   4.610   5.351   5.630  0.3243 -0.2514  0.8766
  246MOL0     O33111   4.635   5.288   5.511 -0.7827  0.3336  0.0582
  246MOL0     C33112   4.668   5.372   5.398 -0.3344  0.2011 -0.6140
  246MOL0     C33113   4.738   5.293   5.303 -0.0127  0.4539  0.8832
  246MOL0     C33114   4.657   5.190   5.231 -0.3224 -0.1897  0.1963
  246MOL0     C33115   4.742   5.125   5.117 -0.1528 -0.6179  0.3920
  246MOL0     C33116   4.658   5.070   4.997  0.2953 -0.0706  0.0304
  246MOL0     C33117   4.745   5.036   4.878 -0.2819  0.1606  0.1114
  246MOL0     C33118   4.673   4.941   4.773  0.9875 -0.6210  0.0978
  246MOL0     C33119   4.671   4.798   4.827 -0.4751  0.4058  0.6283
  246MOL0    Cl33120   4.565   4.696   4.721 -0.2127 -0.1480 -0.0220
  246MOL0     C33121   4.627   5.266   5.744  1.3205 -0.0060  0.2288
  246MOL0     C33122   4.568   5.298   5.861 -0.2260 -0.1122 -1.3075
  246MOL0     O33123   4.689   5.493   6.063 -0.5401 -0.8806 -0.1562
  246MOL0     C33124   4.410   5.526   6.292 -0.4597  0.7822  0.3198
  246MOL0     C33125   4.377   5.567   6.418 -0.0423  0.2911 -0.1928
  246MOL0     N33126   4.514   6.088   6.933  0.0561 -0.7224 -0.5499
  246MOL0     N33127   4.550   6.095   7.059  0.5541  0.0875  0.4585
  246MOL0     C33128   5.364   6.842   7.100  1.0567  0.3109  0.0496
  246MOL0     C33129   5.447   6.942   7.100 -0.0953 -0.5383  0.6170
  246MOL0     C33130   5.772   7.221   7.051  0.1320  0.6257 -0.6143
  246MOL0     C33131   5.801   7.239   6.915 -0.5897  0.0846 -0.0807
  246MOL0     C33132   5.870   7.347   6.859  0.8373  0.1090 -0.2475
  246MOL0     C33133   5.936   7.429   6.948 -0.7740 -0.8194 -0.3261
  246MOL0     O33134   6.017   7.534   6.920  0.0210 -0.0035  0.7029
  246MOL0     C33135   6.044   7.565   6.783  0.1167 -0.6336 -0.7494
  246MOL0     C33136   6.138   7.686   6.772  0.5335 -0.6069 -0.1571
  246MOL0     C33137   6.285   7.671   6.820  0.2137  0.0831  0.1837
  246MOL0     C33138   6.333   7.814   6.849 -0.7940 -0.1491  0.3476
  246MOL0     C33139   6.335   7.899   6.729  0.6899  0.0302 -0.0485
  246MOL0     C33140   6.352   7.967   6.630  0.2819 -0.2817 -0.1376
  246MOL0     C33141   5.903   7.420   7.084 -0.5123  0.7168  0.5270
  246MOL0     C33142   5.827   7.324   7.133  1.1012  0.4906 -0.1312
  246MOL0     H33143   5.732   6.743   7.020  0.0937 -1.7663 -0.7773
  246MOL0     H33144   5.546   6.575   7.087 -2.4730 -0.5797 -0.3032
  246MOL0     H33145   5.182   6.604   7.275 -0.0210  0.6850 -0.6544
  246MOL0     H33146   5.115   6.678   7.125  0.9603  2.1317  1.3259
  246MOL0     H33147   5.167   6.432   7.021 -0.1442 -0.1137  0.1239
  246MOL0     H33148   5.212   6.404   7.188 -1.1900  0.1348  2.6259
  246MOL0     H33149   4.915   6.482   7.165 -2.1577 -2.3816  0.4860
  246MOL0     H33150   4.968   6.348   7.075  2.6117 -1.4314 -0.4411
  246MOL0     H33151   5.087   6.283   7.307  3.2250  3.1703 -3.0195
  246MOL0     H33152   5.005   6.421   7.378 -1.1214  1.9265 -0.6845
  246MOL0     H33153   4.880   6.211   7.440  0.2602  0.4316 -0.2694
  246MOL0     H33154   4.786   6.323   7.358 -0.9474 -0.8213  0.0480
  246MOL0     H33155   4.790   6.182   7.139  0.2930  0.6737  0.1110
  246MOL0     H33156   4.909   6.073   7.215  0.4965  1.0902  3.0587
  246MOL0     H33157   4.746   6.018   7.390 -0.1120 -2.2193 -0.6365
  246MOL0     H33158   4.619   6.108   7.331 -1.1056 -2.3066  2.4727
  246MOL0     H33159   4.596   5.882   7.262 -0.8598 -0.9843 -3.0891
  246MOL0     H33160   4.762   5.887   7.185 -2.9914 -2.6612 -0.8705
  246MOL0     H33161   4.664   5.799   6.955 -1.6080 -1.4598 -0.3849
  246MOL0     H33162   4.592   6.033   6.682 -0.6778 -1.2628 -4.1954
  246MOL0     H33163   4.600   5.852   6.697 -0.0891 -0.7347  2.8146
  246MOL0     H33164   4.395   5.918   6.561  3.1630  0.5916 -0.1473
  246MOL0     H33165   4.360   6.040   6.678 -0.3725  0.2626  0.0646
  246MOL0     H33166   4.224   5.871   6.760  1.0737  1.8152 -0.0316
  246MOL0     H33167   4.379   5.808   6.842  0.0636  0.9994  0.9211
  246MOL0     H33168   4.263   5.734   6.570 -2.5681 -0.0690  1.7895
  246MOL0     H33169   4.254   5.632   6.714 -1.4220  2.0892  2.6785
  246MOL0     H33170   4.680   5.636   6.538 -0.2668  0.9258 -0.0371
  246MOL0     H33171   4.816   5.657   6.196  4.4764 -0.0810  0.9132
  246MOL0     H33172   4.840   5.686   6.360  2.7697  1.5578 -2.7825
  246MOL0     H33173   4.845   5.522   6.301  2.3580  1.3492 -1.1193
  246MOL0     H33174   4.470   5.606   5.810 -0.5103 -0.1196  0.5386
  246MOL0     H33175   4.531   5.547   5.573  2.5035 -1.3750 -1.9498
  246MOL0     H33176   4.579   5.416   5.352  0.3379  2.1521 -0.1549
  246MOL0     H33177   4.723   5.464   5.418 -2.2840  1.3897 -0.3994
  246MOL0     H33178   4.768   5.369   5.230 -2.1640  0.8980  0.3930
  246MOL0     H33179   4.831   5.253   5.344  0.2186 -0.0905 -0.1408
  246MOL0     H33180   4.564   5.230   5.188  0.9108 -0.6853 -3.2109
  246MOL0     H33181   4.640   5.111   5.305  0.3956 -3.1719 -2.5929
  246MOL0     H33182   4.814   5.195   5.073  1.7221 -2.1323  0.9169
  246MOL0     H33183   4.806   5.055   5.172  0.3799  1.2077  2.2417
  246MOL0     H33184   4.583   5.138   4.955  0.8533 -0.6994 -2.1031
  246MOL0     H33185   4.604   4.984   5.039  2.2107 -2.1196 -1.4866
  246MOL0     H33186   4.780   5.128   4.831 -0.0353 -2.1966 -4.8920
  246MOL0     H33187   4.835   4.981   4.907 -0.4350  0.3789  1.0225
  246MOL0     H33188   4.736   4.945   4.684 -0.7835 -0.2220 -1.1804
  246MOL0     H33189   4.580   4.995   4.754  2.2010  2.7041  2.5780
  246MOL0     H33190   4.641   4.800   4.932  0.2756  1.1411  0.8413
  246MOL0     H33191   4.769   4.751   4.818 -2.3967 -4.2712  1.4485
  246MOL0     H33192   4.669   5.166   5.740 -1.2782 -1.2342  0.8662
  246MOL0     H33193   4.566   5.232   5.948  2.1589  2.0346  0.5180
  246MOL0     H33194   4.330   5.470   6.244 -1.2547  1.6725  0.5955
  246MOL0     H33195   4.273   5.570   6.449  0.8222  1.5154  2.9434
  246MOL0     H33196   5.260   6.851   7.131  0.3394  0.1569 -2.0898
  246MOL0     H33197   5.411   7.043   7.117  2.7086  0.7724 -0.5101
  246MOL0     H33198   5.746   7.168   6.854  1.8223 -0.6719 -1.5184
  246MOL0     H33199   5.877   7.338   6.751  0.7780 -4.2878 -0.0634
  246MOL0     H33200   6.082   7.478   6.728 -1.9956 -2.0511 -0.0977
  246MOL0     H33201   5.948   7.587   6.735 -0.9560 -2.2458  0.5345
  246MOL0     H33202   6.087   7.764   6.830  0.0597 -0.9505 -0.1087
  246MOL0     H33203   6.137   7.721   6.668 -2.1471 -1.3308 -0.4659
  246MOL0     H33204   6.345   7.623   6.742  0.1315  1.1879 -0.5884
  246MOL0     H33205   6.303   7.613   6.911 -0.1095  0.6412  0.6108
  246MOL0     H33206   6.439   7.804   6.874 -1.4357 -4.1131  2.2251
  246MOL0     H33207   6.300   7.863   6.941  1.9189  1.1176  0.7454
  246MOL0     H33208   6.373   8.032   6.548 -2.9939  0.3849 -0.5863
  246MOL0     H33209   5.943   7.485   7.161 -1.9980 -1.1960  3.0396
  246MOL0     H33210   5.825   7.333   7.241  0.9250  1.0099 -0.1748
  247MOL0     O33211   5.973   6.938   4.491  0.2462 -0.2230 -0.0619
  247MOL0     C33212   5.976   6.897   4.374  0.7473  0.3026 -1.1606
  247MOL0     O33213   6.062   6.812   4.316  0.5166 -0.8486 -0.0999
  247MOL0     C33214   6.171   6.758   4.377 -0.0384 -0.3647  0.4841
  247MOL0     C33215   6.165   6.695   4.501 -0.9740  0.3170 -0.9440
  247MOL0     C33216   6.284   6.631   4.559  0.3396 -0.4514 -1.3223
  247MOL0     C33217   6.396   6.630   4.483  0.0712  0.6933  0.6151
  247MOL0     O33218   6.506   6.581   4.536 -0.0822  0.0787  0.4379
  247MOL0     C33219   6.509   6.511   4.662 -0.4048 -0.7159 -0.4808
  247MOL0     C33220   6.643   6.434   4.693 -0.3454 -1.2463  0.3739
  247MOL0     C33221   6.761   6.528   4.682 -0.4549 -0.2189  0.2950
  247MOL0     C33222   6.882   6.468   4.756 -0.3479  0.3049 -0.6971
  247MOL0     C33223   6.995   6.565   4.788 -0.5343 -0.7883 -0.1998
  247MOL0     C33224   7.095   6.496   4.883 -0.2560  0.2758  0.1741
  247MOL0     C33225   7.224   6.577   4.869 -0.1257  0.6398  0.2998
  247MOL0     C33226   7.327   6.567   4.987 -0.2260  0.0019  0.2122
  247MOL0     N33227   7.426   6.678   4.999 -0.6779 -0.4775 -0.0526
  247MOL0     C33228   7.549   6.698   4.942 -0.2093  0.0871 -0.0500
  247MOL0     C33229   7.589   6.823   4.948  0.0212 -0.6608 -0.3732
  247MOL0     C33230   7.717   6.881   4.898 -0.0899  0.4387 -0.0292
  247MOL0     C33231   7.806   6.893   5.016  1.6215  0.0378  1.0853
  247MOL0     C33232   7.911   6.994   4.979 -0.0821 -0.2587 -1.1758
  247MOL0     C33233   8.029   7.018   5.077  0.3473  0.9074  0.7735
  247MOL0     O33234   8.096   6.892   5.109  0.4208 -0.0390 -0.3414
  247MOL0     C33235   8.226   6.870   5.057  0.9535 -0.4201 -0.2714
  247MOL0     C33236   8.258   6.753   5.002 -0.3712 -0.7011  0.7004
  247MOL0     C33237   8.398   6.733   4.957  0.5789 -0.1213 -0.1291
  247MOL0     C33238   8.412   6.591   4.904  0.8002 -0.1048 -0.2224
  247MOL0     C33239   8.493   6.835   4.974  0.2792  0.2652  1.0204
  247MOL0     C33240   8.629   6.810   4.914  0.6596 -1.1209 -0.6176
  247MOL0     O33241   8.678   6.686   4.883 -0.3040 -0.4121  0.2388
  247MOL0     C33242   8.806   6.685   4.842 -0.0769  0.2205  0.1082
  247MOL0     C33243   8.833   6.609   4.726 -0.1708  0.0642 -0.4380
  247MOL0     C33244   8.964   6.612   4.672  0.1647  0.6192  0.9472
  247MOL0     C33245   9.064   6.691   4.730  0.1240  0.3708  0.9103
  247MOL0     O33246   9.184   6.688   4.670 -0.4747  0.8256 -0.1986
  247MOL0     C33247   9.298   6.750   4.725 -0.6117  0.7804  0.2106
  247MOL0     C33248   9.427   6.701   4.662 -0.8886 -0.9782 -1.3827
  247MOL0     C33249   9.556   6.761   4.731 -0.4277  0.6217  0.1330
  247MOL0     C33250   9.671   6.708   4.651 -0.3934 -0.0298 -0.4157
  247MOL0     C33251   9.788   6.814   4.680  0.2286  0.5397 -0.2990
  247MOL0     C33252   9.857   6.853   4.540  0.6260  0.0256  0.2557
  247MOL0     C33253   9.996   6.925   4.568 -0.5599  0.2083  0.2391
  247MOL0     C33254   9.993   7.049   4.645  0.3111 -0.3192  0.0925
  247MOL0    Cl33255  10.147   7.131   4.600  0.0201 -0.0914  0.2476
  247MOL0     C33256   9.036   6.756   4.845  0.3781 -0.3421 -0.6601
  247MOL0     C33257   8.917   6.751   4.906  0.5861 -0.0475 -0.3070
  247MOL0     O33258   8.691   6.922   4.896 -0.1274 -0.1024 -0.3615
  247MOL0     C33259   8.460   6.950   5.035  0.5725  0.0853 -0.3675
  247MOL0     C33260   8.326   6.970   5.073  0.4467  0.1454  0.0107
  247MOL0     N33261   7.487   6.887   5.009 -0.5000  0.4370  0.3824
  247MOL0     N33262   7.397   6.801   5.046  1.1813 -0.4283  0.0235
  247MOL0     C33263   6.405   6.682   4.351 -0.8828 -0.7755  0.6581
  247MOL0     C33264   6.290   6.751   4.302 -0.3185 -0.9369  0.1683
  247MOL0     C33265   5.868   6.939   4.275  0.2769 -0.1829 -1.1358
  247MOL0     C33266   5.757   7.007   4.327  0.3130  0.2277 -0.9601
  247MOL0     C33267   5.659   7.050   4.229  0.7466  0.1537 -0.4994
  247MOL0     C33268   5.664   7.009   4.098  0.5041 -0.4998 -1.0857
  247MOL0     O33269   5.577   7.055   4.007 -0.0069 -0.2830  0.5978
  247MOL0     C33270   5.465   7.129   4.042  0.5306  0.0649  0.7484
  247MOL0     C33271   5.379   7.146   3.919  0.3821  0.0173 -0.0271
  247MOL0     C33272   5.435   7.233   3.802  0.2838 -0.1820  0.0287
  247MOL0     C33273   5.534   7.163   3.710 -0.7175 -0.3924 -0.7229
  247MOL0     C33274   5.577   7.240   3.597 -0.2991 -0.5140  1.2303
  247MOL0     C33275   5.593   7.322   3.505 -0.3550  0.7613  0.6210
  247MOL0     C33276   5.781   6.950   4.046 -0.5669 -1.1242 -0.5526
  247MOL0     C33277   5.880   6.910   4.135 -0.0953 -0.1166 -0.7255
  247MOL0     H33278   6.076   6.685   4.562 -0.9206  0.8421 -0.7719
  247MOL0     H33279   6.264   6.611   4.664 -1.8673 -0.5130 -1.7078
  247MOL0     H33280   6.485   6.589   4.734  0.8670 -1.2830  0.5888
  247MOL0     H33281   6.435   6.431   4.675 -1.1694  0.2547  1.4276
  247MOL0     H33282   6.634   6.396   4.796  1.6159 -0.2587  0.9731
  247MOL0     H33283   6.663   6.351   4.625  1.5638  0.8366 -1.7682
  247MOL0     H33284   6.782   6.540   4.576 -0.7226  0.6837  0.3425
  247MOL0     H33285   6.740   6.632   4.709  1.8879  1.0780 -2.3227
  247MOL0     H33286   6.847   6.422   4.849  1.5696  0.5444  0.1917
  247MOL0     H33287   6.917   6.385   4.693  1.9515 -0.0152  0.8756
  247MOL0     H33288   7.042   6.603   4.696 -1.0932  1.5275  0.4205
  247MOL0     H33289   6.966   6.652   4.847  0.5764 -2.1199  2.5129
  247MOL0     H33290   7.052   6.504   4.983 -1.9853  1.4336 -0.6098
  247MOL0     H33291   7.113   6.391   4.860 -0.3676  0.2899  0.0159
  247MOL0     H33292   7.267   6.550   4.773 -1.3770 -2.8526  0.5831
  247MOL0     H33293   7.195   6.681   4.849  0.4545  0.5782 -0.9257
  247MOL0     H33294   7.376   6.470   4.981 -3.4923 -1.7426 -1.1101
  247MOL0     H33295   7.270   6.564   5.080 -0.5020  0.5879  0.0681
  247MOL0     H33296   7.603   6.617   4.895 -1.4514 -1.3604  0.9075
  247MOL0     H33297   7.765   6.808   4.833  1.6657  0.9169  0.6727
  247MOL0     H33298   7.701   6.975   4.846  0.4792 -0.2653 -1.5182
  247MOL0     H33299   7.858   6.799   5.035 -0.4529 -1.0753  1.5475
  247MOL0     H33300   7.753   6.928   5.105  1.4687  0.0026  1.0081
  247MOL0     H33301   7.845   7.081   4.974 -2.1349 -1.3111  2.8214
  247MOL0     H33302   7.952   6.962   4.883  2.2763 -0.6630 -0.0954
  247MOL0     H33303   7.988   7.074   5.161  0.7695  1.4215  0.6367
  247MOL0     H33304   8.101   7.087   5.034  0.3263  2.7448  3.4450
  247MOL0     H33305   8.178   6.680   4.996 -0.7439 -0.4153  1.8164
  247MOL0     H33306   8.488   6.543   4.966  0.3891  1.0026  1.1958
  247MOL0     H33307   8.320   6.536   4.920  0.9354 -0.5855 -1.0649
  247MOL0     H33308   8.439   6.578   4.799 -0.2129  0.0909 -0.5119
  247MOL0     H33309   8.756   6.547   4.681 -3.5527  2.9846  0.8253
  247MOL0     H33310   8.974   6.542   4.589 -3.8550 -1.3319  1.8397
  247MOL0     H33311   9.291   6.858   4.707 -0.8330  0.8188  0.5279
  247MOL0     H33312   9.294   6.719   4.829  3.8341 -2.2181 -0.2307
  247MOL0     H33313   9.430   6.592   4.666 -0.0147 -0.9343 -0.4219
  247MOL0     H33314   9.420   6.729   4.557 -2.1789  4.1112 -0.2465
  247MOL0     H33315   9.565   6.730   4.836  2.3290  1.4939  0.2386
  247MOL0     H33316   9.552   6.869   4.746  2.6877  0.6396  1.7361
  247MOL0     H33317   9.692   6.604   4.676 -1.7277 -0.1547  0.2836
  247MOL0     H33318   9.662   6.711   4.542 -0.1968  0.5293 -0.4210
  247MOL0     H33319   9.857   6.766   4.751  1.8011  0.0702 -2.0874
  247MOL0     H33320   9.748   6.907   4.722 -1.5778  0.3951 -1.5995
  247MOL0     H33321   9.866   6.769   4.470 -1.3636 -0.7790  0.8913
  247MOL0     H33322   9.782   6.921   4.500  2.8291  2.0163 -0.7398
  247MOL0     H33323  10.041   6.941   4.470  1.0033 -1.4613  0.6288
  247MOL0     H33324  10.065   6.855   4.617 -1.3181  2.3411  4.9639
  247MOL0     H33325   9.997   7.028   4.752 -0.2120  1.7048  0.5564
  247MOL0     H33326   9.906   7.110   4.618  1.2970  2.1456  2.0694
  247MOL0     H33327   9.112   6.817   4.894  0.6189 -0.5253 -0.8068
  247MOL0     H33328   8.904   6.810   4.997 -0.7706 -1.3712  0.4047
  247MOL0     H33329   8.531   7.031   5.042 -0.6639  1.0850  1.1958
  247MOL0     H33330   8.308   7.066   5.121 -0.0298  0.2438 -0.3587
  247MOL0     H33331   6.505   6.672   4.311  0.2824  0.3087  3.1517
  247MOL0     H33332   6.303   6.793   4.203  1.5061 -0.9603  0.3706
  247MOL0     H33333   5.727   7.015   4.431 -3.5620 -4.0241 -1.4296
  247MOL0     H33334   5.566   7.085   4.273 -1.0961 -3.6076 -1.0218
  247MOL0     H33335   5.406   7.079   4.119  2.4863 -2.0813  0.9653
  247MOL0     H33336   5.495   7.227   4.080 -3.8471  2.3215 -0.8953
  247MOL0     H33337   5.295   7.200   3.964  2.0862  2.1998  0.7293
  247MOL0     H33338   5.351   7.047   3.882 -1.8872 -0.7787  3.4227
  247MOL0     H33339   5.465   7.326   3.851 -0.3445 -1.3855  2.9278
  247MOL0     H33340   5.350   7.250   3.735  2.7061  1.0968 -2.9169
  247MOL0     H33341   5.487   7.069   3.679  3.8530 -2.4499 -2.2591
  247MOL0     H33342   5.630   7.137   3.755  1.6159  1.9503 -3.8786
  247MOL0     H33343   5.578   7.398   3.431 -1.9844 -1.3330 -1.3613
  247MOL0     H33344   5.793   6.946   3.938 -1.8257  3.5630 -1.0914
  247MOL0     H33345   5.972   6.866   4.099 -0.6610 -1.4802 -0.5749
  248MOL0     O33346   7.671  10.226  11.016 -0.8489 -0.0392 -0.4656
  248MOL0     C33347   7.620  10.234  11.129  0.1285  0.5478  0.6121
  248MOL0     O33348   7.578  10.352  11.188 -0.6756  0.1631  0.4500
  248MOL0     C33349   7.587  10.474  11.121  1.0613  0.1746 -0.3654
  248MOL0     C33350   7.510  10.494  11.010 -0.2129 -0.0589  0.1925
  248MOL0     C33351   7.515  10.611  10.930  0.1139  0.1937  0.0427
  248MOL0     C33352   7.598  10.715  10.977  1.1484 -0.6025 -0.4818
  248MOL0     O33353   7.603  10.846  10.930 -0.0345  0.3220 -0.2534
  248MOL0     C33354   7.502  10.880  10.828  0.1597 -1.1501 -0.6223
  248MOL0     C33355   7.502  11.035  10.815  0.4615 -0.1707 -0.0452
  248MOL0     C33356   7.389  11.091  10.721  0.8858  0.1909 -1.1586
  248MOL0     C33357   7.405  11.050  10.573  0.6205 -0.1395  0.3428
  248MOL0     C33358   7.269  11.059  10.498  0.0968  0.0906  0.5578
  248MOL0     C33359   7.286  11.013  10.345 -0.0937  0.9722  0.7440
  248MOL0     C33360   7.290  10.854  10.325  0.2201 -1.2181 -0.6367
  248MOL0     C33361   7.164  10.777  10.348 -0.2517 -0.6220  0.5322
  248MOL0     N33362   7.074  10.759  10.235  0.4800  0.7796  0.1476
  248MOL0     C33363   7.040  10.629  10.194  0.1425  0.2149  0.0649
  248MOL0     C33364   6.938  10.665  10.110  0.0871 -0.0640  1.0039
  248MOL0     C33365   6.857  10.561  10.037 -0.5378 -0.1815  0.0636
  248MOL0     C33366   6.923  10.529   9.901 -0.3970  0.1057 -0.5749
  248MOL0     C33367   6.830  10.459   9.799  0.5637 -0.5021 -0.2746
  248MOL0     C33368   6.914  10.440   9.673  0.5363 -0.5360 -0.1848
  248MOL0     O33369   7.020  10.356   9.706 -0.0039 -0.2827 -0.4522
  248MOL0     C33370   7.128  10.336   9.619  0.0485 -0.9002  0.0090
  248MOL0     C33371   7.137  10.361   9.480  0.1242 -0.4775 -0.0273
  248MOL0     C33372   7.244  10.320   9.400 -0.1930 -0.3786  0.2489
  248MOL0     C33373   7.246  10.360   9.262  0.0294 -0.7098  0.6159
  248MOL0     C33374   7.347  10.246   9.452 -0.0923 -0.0106  0.9116
  248MOL0     C33375   7.454  10.183   9.367  0.2599 -0.0819 -0.9682
  248MOL0     O33376   7.501  10.058   9.402 -0.0705 -0.3151  0.4603
  248MOL0     C33377   7.614  10.000   9.347 -0.0395 -0.3203  0.5272
  248MOL0     C33378   7.624   9.981   9.213 -0.5780 -0.1028 -0.5888
  248MOL0     C33379   7.739   9.945   9.142 -0.3225 -0.4253  1.2785
  248MOL0     C33380   7.859   9.916   9.213 -0.1765 -0.0500 -0.1159
  248MOL0     O33381   7.969   9.865   9.156  0.5962  0.0535  0.4501
  248MOL0     C33382   7.956   9.816   9.024 -0.1752  0.5812  0.3755
  248MOL0     C33383   8.085   9.739   9.001  0.6809  0.4542  0.6574
  248MOL0     C33384   8.207   9.820   9.008  0.8759 -0.4803  1.5874
  248MOL0     C33385   8.329   9.754   8.957 -0.2928 -1.3260 -0.5146
  248MOL0     C33386   8.452   9.846   8.952 -0.0788  0.9331  0.5774
  248MOL0     C33387   8.496   9.929   9.072  0.2788 -0.4836 -0.2226
  248MOL0     C33388   8.588  10.046   9.040  0.2596  0.8389  0.2989
  248MOL0     C33389   8.727  10.024   8.983  0.1224  0.4693  0.2021
  248MOL0    Cl33390   8.731   9.987   8.815 -0.1749  0.3868  0.4637
  248MOL0     C33391   7.849   9.924   9.358 -0.1542 -0.2115  0.0039
  248MOL0     C33392   7.733   9.986   9.427 -1.6677 -0.5778  0.4229
  248MOL0     O33393   7.514  10.258   9.288 -0.3759 -0.4219  0.2130
  248MOL0     C33394   7.332  10.210   9.586 -0.0818 -0.1298  0.3577
  248MOL0     C33395   7.226  10.256   9.676 -0.5760 -0.8458 -0.3324
  248MOL0     N33396   6.913  10.804  10.120  0.7135 -0.1048  0.1163
  248MOL0     N33397   6.993  10.861  10.195 -0.1285  0.2679  0.3571
  248MOL0     C33398   7.660  10.698  11.099 -0.2574 -0.2759  0.6246
  248MOL0     C33399   7.662  10.581  11.166  0.2035 -0.9433 -0.2576
  248MOL0     C33400   7.609  10.105  11.204 -0.2052  0.1803  0.5796
  248MOL0     C33401   7.672   9.983  11.175  0.7202  0.0956 -0.9006
  248MOL0     C33402   7.684   9.881  11.272  0.6127  0.5240 -0.0698
  248MOL0     C33403   7.610   9.895  11.391 -0.0848  0.3480  0.5539
  248MOL0     O33404   7.640   9.799  11.482 -0.2480  0.5724  0.5563
  248MOL0     C33405   7.683   9.832  11.619  0.7278  0.3912 -0.1288
  248MOL0     C33406   7.578   9.810  11.726  0.4289 -0.4655  0.5141
  248MOL0     C33407   7.508   9.667  11.714  0.3129 -1.1087  0.1803
  248MOL0     C33408   7.388   9.667  11.804  0.0700  0.9238  0.3525
  248MOL0     C33409   7.277   9.758  11.781  0.4353 -1.2758 -0.2552
  248MOL0     C33410   7.181   9.833  11.772 -0.6061  0.3541  0.4817
  248MOL0     C33411   7.535  10.013  11.421 -0.4968  0.6848  0.4897
  248MOL0     C33412   7.537  10.113  11.324 -0.2138  0.5022  0.6925
  248MOL0     H33413   7.440  10.417  10.980 -0.5052  0.3727 -0.2493
  248MOL0     H33414   7.465  10.604  10.834 -1.4952  1.1552  0.7469
  248MOL0     H33415   7.534  10.852  10.727  0.4174  2.6632 -1.7399
  248MOL0     H33416   7.403  10.836  10.840 -0.2547 -0.5632 -1.7102
  248MOL0     H33417   7.478  11.081  10.912  1.0429 -1.2329  0.6145
  248MOL0     H33418   7.591  11.072  10.765 -0.2247  1.4485 -0.1278
  248MOL0     H33419   7.293  11.056  10.760  2.0237 -1.6271  0.1469
  248MOL0     H33420   7.387  11.200  10.733 -1.0158 -0.1522  3.8698
  248MOL0     H33421   7.490  11.104  10.529  1.2035 -1.0985  0.2588
  248MOL0     H33422   7.438  10.946  10.564  1.2213  0.0070  0.7739
  248MOL0     H33423   7.191  11.002  10.550  1.0330  0.6659  2.6719
  248MOL0     H33424   7.243  11.166  10.496 -0.5073 -0.0357  1.0808
  248MOL0     H33425   7.194  11.040  10.293 -0.3453 -2.1968 -0.6862
  248MOL0     H33426   7.370  11.061  10.295  0.7197  0.0931  1.2379
  248MOL0     H33427   7.321  10.844  10.221  2.1814  0.1287 -0.2407
  248MOL0     H33428   7.374  10.814  10.384 -2.2568 -3.2076  1.8190
  248MOL0     H33429   7.101  10.836  10.415  1.5014  1.0049  0.8576
  248MOL0     H33430   7.193  10.684  10.397  2.0894  1.2634  3.0944
  248MOL0     H33431   7.081  10.531  10.216 -0.8085 -0.2886 -0.3207
  248MOL0     H33432   6.826  10.479  10.103 -1.6886  0.5153  0.4242
  248MOL0     H33433   6.759  10.602  10.009 -0.3792 -1.3758 -2.5458
  248MOL0     H33434   7.018  10.481   9.928  0.0934  1.5112  0.3134
  248MOL0     H33435   6.960  10.623   9.860 -1.6380  1.5945  1.5163
  248MOL0     H33436   6.746  10.526   9.775  0.1130 -0.8097  0.4146
  248MOL0     H33437   6.787  10.375   9.855 -0.3006  0.5589  0.6867
  248MOL0     H33438   6.950  10.535   9.632 -1.7174 -0.0444 -1.1520
  248MOL0     H33439   6.856  10.394   9.593  1.0779  1.6914 -1.9761
  248MOL0     H33440   7.067  10.427   9.430  2.1166  1.9959  0.2181
  248MOL0     H33441   7.315  10.445   9.253 -2.6295  1.7361  1.5398
  248MOL0     H33442   7.264  10.277   9.194 -2.6020 -0.5092 -0.4265
  248MOL0     H33443   7.146  10.394   9.236  0.4381  0.7781  0.8604
  248MOL0     H33444   7.531   9.986   9.159 -0.2800  1.1383 -1.0310
  248MOL0     H33445   7.730   9.935   9.034 -1.9376  0.6809  1.2810
  248MOL0     H33446   7.873   9.745   9.029 -0.9737  1.5251  0.7291
  248MOL0     H33447   7.955   9.889   8.943 -1.8402 -0.5451 -0.6824
  248MOL0     H33448   8.094   9.655   9.071 -0.9269 -0.4367 -0.1422
  248MOL0     H33449   8.078   9.690   8.904  2.0341 -2.1722  1.7712
  248MOL0     H33450   8.213   9.840   9.115 -1.1285 -1.0738  1.8526
  248MOL0     H33451   8.195   9.912   8.951 -1.0535 -0.4008  2.0676
  248MOL0     H33452   8.361   9.669   9.019  3.0463  0.2920  0.2114
  248MOL0     H33453   8.315   9.722   8.853 -3.1120 -2.5049  0.1414
  248MOL0     H33454   8.436   9.910   8.866  1.5484  0.6422  0.0178
  248MOL0     H33455   8.540   9.782   8.937 -0.1484  0.9801 -0.0518
  248MOL0     H33456   8.410   9.985   9.113  1.3389  0.1037  1.3073
  248MOL0     H33457   8.543   9.867   9.148  2.6678  1.4542 -0.0135
  248MOL0     H33458   8.613  10.096   9.134 -1.6730  2.7398 -0.1082
  248MOL0     H33459   8.539  10.112   8.968  0.1567  0.6035  0.1508
  248MOL0     H33460   8.783   9.944   9.033 -0.9410 -0.5768 -0.2200
  248MOL0     H33461   8.787  10.115   8.992  1.9928 -0.6140 -0.6045
  248MOL0     H33462   7.928   9.883   9.419  1.9653 -0.0480 -2.4773
  248MOL0     H33463   7.728  10.011   9.532 -2.7828  1.1580  0.0045
  248MOL0     H33464   7.419  10.160   9.627  0.3353 -0.8702 -1.3513
  248MOL0     H33465   7.237  10.234   9.781 -0.5834  1.0183  0.0904
  248MOL0     H33466   7.713  10.787  11.131  2.4399 -0.4452 -2.7641
  248MOL0     H33467   7.702  10.585  11.266 -1.1030  2.3235  0.2684
  248MOL0     H33468   7.740   9.964  11.092 -0.5086 -1.0079 -1.6878
  248MOL0     H33469   7.756   9.802  11.253  2.0340  1.7433  0.0365
  248MOL0     H33470   7.764   9.761  11.639 -1.4895 -2.8654 -1.7120
  248MOL0     H33471   7.719   9.935  11.626 -1.6670  1.2832  0.0662
  248MOL0     H33472   7.507   9.894  11.722 -0.4859 -1.2517 -0.8926
  248MOL0     H33473   7.629   9.812  11.822  0.0841  0.0276  0.6915
  248MOL0     H33474   7.584   9.599  11.753 -0.4454 -0.8896  2.1965
  248MOL0     H33475   7.478   9.642  11.612 -0.9038 -0.4301  0.3514
  248MOL0     H33476   7.417   9.656  11.909 -2.5293  1.0674  1.1456
  248MOL0     H33477   7.338   9.571  11.785 -0.5335  0.8855  2.0350
  248MOL0     H33478   7.095   9.897  11.765 -1.5112 -0.9655 -1.1511
  248MOL0     H33479   7.483  10.019  11.516 -1.2151  3.4134  0.0190
  248MOL0     H33480   7.472  10.195  11.352 -1.2886  0.9430 -2.6316
  249MOL0     O33481   4.041   3.711  10.832  0.7236 -0.7127 -0.3992
  249MOL0     C33482   4.090   3.613  10.778  0.6260  0.2465 -0.3516
  249MOL0     O33483   4.019   3.495  10.766  0.0732  0.8205  0.7225
  249MOL0     C33484   3.907   3.454  10.837  0.0675 -0.4055  0.4680
  249MOL0     C33485   3.847   3.527  10.944  0.0747 -0.4025 -1.3526
  249MOL0     C33486   3.738   3.464  10.997 -0.3613  1.3059 -0.1014
  249MOL0     C33487   3.673   3.347  10.951 -0.3857  1.0809  0.1641
  249MOL0     O33488   3.571   3.299  11.018  0.0111  0.5499  0.4103
  249MOL0     C33489   3.604   3.168  11.060 -0.1394 -0.0561  0.3922
  249MOL0     C33490   3.682   3.166  11.195  0.6048 -0.4265 -0.2874
  249MOL0     C33491   3.769   3.039  11.205 -0.7677 -0.6467 -0.1096
  249MOL0     C33492   3.811   3.017  11.348 -0.7748  0.3587 -0.2568
  249MOL0     C33493   3.939   2.935  11.355 -0.0179  0.7769  0.2537
  249MOL0     C33494   4.066   3.018  11.339 -0.3016  1.2253  0.5201
  249MOL0     C33495   4.173   2.930  11.288  0.3213 -0.2457  0.1172
  249MOL0     C33496   4.239   2.883  11.413  0.5488 -0.7209 -0.2366
  249MOL0     N33497   4.338   2.774  11.385 -0.1288 -0.0897  0.6663
  249MOL0     C33498   4.333   2.641  11.402 -0.3471  0.4348  0.9030
  249MOL0     C33499   4.434   2.584  11.331 -0.5013 -0.6302  0.3659
  249MOL0     C33500   4.475   2.434  11.327  0.2544  0.4077 -0.4718
  249MOL0     C33501   4.491   2.376  11.467 -0.1768  0.7930  0.4116
  249MOL0     C33502   4.551   2.238  11.464  0.9848  0.0113  0.7309
  249MOL0     C33503   4.568   2.187  11.604 -0.0617  0.1662  0.6666
  249MOL0     O33504   4.543   2.048  11.594 -0.1185  0.5376  0.5933
  249MOL0     C33505   4.545   1.968  11.708 -0.2739  0.3594 -0.2244
  249MOL0     C33506   4.595   1.996  11.837 -0.2846 -0.3149 -0.3366
  249MOL0     C33507   4.609   1.904  11.944  0.6496  0.7155  0.1545
  249MOL0     C33508   4.680   1.954  12.071  0.8067  0.7035  0.6659
  249MOL0     C33509   4.576   1.764  11.924 -0.3516 -0.6281  0.0335
  249MOL0     C33510   4.588   1.658  12.030 -0.1507 -0.7195  0.6609
  249MOL0     O33511   4.625   1.701  12.156  0.3525 -0.4719 -0.2932
  249MOL0     C33512   4.606   1.609  12.261 -0.8929  0.7015  0.3078
  249MOL0     C33513   4.700   1.505  12.258  0.1124 -0.2002 -0.6780
  249MOL0     C33514   4.701   1.406  12.359  0.1996 -0.6772  0.5232
  249MOL0     C33515   4.609   1.413  12.467  1.0537  0.6100 -0.2419
  249MOL0     O33516   4.608   1.310  12.564  0.1843  0.3511  0.6111
  249MOL0     C33517   4.545   1.340  12.688  0.3360 -0.6743  0.3833
  249MOL0     C33518   4.527   1.219  12.774  0.1574  0.2904  0.5500
  249MOL0     C33519   4.652   1.174  12.842  0.5968  0.5110 -0.0567
  249MOL0     C33520   4.630   1.035  12.905 -0.3552 -0.1551 -0.9171
  249MOL0     C33521   4.768   0.968  12.952 -0.3286  0.1591  1.0125
  249MOL0     C33522   4.750   0.865  13.069  0.7777 -0.7046 -0.5774
  249MOL0     C33523   4.675   0.749  13.025  0.8691  0.0433  0.4883
  249MOL0     C33524   4.703   0.617  13.111  0.4196 -0.1196 -1.0016
  249MOL0    Cl33525   4.593   0.627  13.265 -0.1348  0.3196  0.2480
  249MOL0     C33526   4.497   1.513  12.451 -0.1500  0.4978 -0.1276
  249MOL0     C33527   4.502   1.611  12.346  0.0816  0.0593 -0.2449
  249MOL0     O33528   4.559   1.542  12.005  0.1840 -0.2052  0.8935
  249MOL0     C33529   4.520   1.734  11.798 -1.3732 -0.1070  0.3212
  249MOL0     C33530   4.507   1.831  11.695 -0.1739 -0.2025  0.1573
  249MOL0     N33531   4.481   2.685  11.245  0.1569 -0.0525  0.6295
  249MOL0     N33532   4.424   2.792  11.284  0.0214  0.7226 -0.0217
  249MOL0     C33533   3.724   3.290  10.842 -0.2023 -0.0627  0.6485
  249MOL0     C33534   3.841   3.338  10.786 -0.2784 -0.3836  0.3835
  249MOL0     C33535   4.219   3.640  10.717 -0.4499  0.3362 -0.3709
  249MOL0     C33536   4.293   3.761  10.727 -0.4890  0.7391 -0.0615
  249MOL0     C33537   4.419   3.775  10.663 -0.2300  1.1058 -1.4396
  249MOL0     C33538   4.481   3.667  10.610 -0.4296  0.1942 -0.2606
  249MOL0     O33539   4.609   3.662  10.569 -0.4110  0.2938  0.2170
  249MOL0     C33540   4.677   3.777  10.530 -0.0550  0.6232  0.5206
  249MOL0     C33541   4.754   3.828  10.641 -0.8543  0.4631 -1.3782
  249MOL0     C33542   4.894   3.758  10.656  0.1036 -0.0382  0.0657
  249MOL0     C33543   4.977   3.806  10.778  0.0321  0.5176 -0.6119
  249MOL0     C33544   4.992   3.948  10.785 -0.9422 -0.1887 -0.8670
  249MOL0     C33545   5.031   4.062  10.810 -0.2375  0.4796 -0.3514
  249MOL0     C33546   4.408   3.542  10.618 -0.9056 -0.9716  0.2565
  249MOL0     C33547   4.280   3.529  10.663 -0.0055 -0.1933  0.8754
  249MOL0     H33548   3.889   3.611  10.998 -3.2319 -1.1245  2.7831
  249MOL0     H33549   3.694   3.511  11.085 -0.9780  1.0000 -0.2421
  249MOL0     H33550   3.512   3.109  11.064 -1.0535  1.3346  0.5195
  249MOL0     H33551   3.670   3.109  10.997 -0.6362  0.3467 -0.5288
  249MOL0     H33552   3.755   3.244  11.217  0.3325 -0.0570 -0.6664
  249MOL0     H33553   3.612   3.169  11.279 -0.9918 -3.1554 -1.3763
  249MOL0     H33554   3.714   2.952  11.169 -1.9143  0.7828 -2.0652
  249MOL0     H33555   3.859   3.056  11.144 -0.6602  2.4302  0.7555
  249MOL0     H33556   3.827   3.109  11.405  1.1405 -2.6395  4.8428
  249MOL0     H33557   3.739   2.960  11.408  0.8546  0.9843  2.4761
  249MOL0     H33558   3.962   2.897  11.455  2.8311  0.1036 -0.5770
  249MOL0     H33559   3.921   2.853  11.285  0.7468  0.0174  0.9098
  249MOL0     H33560   4.047   3.084  11.254  3.3154  0.2425 -1.2350
  249MOL0     H33561   4.086   3.072  11.432  1.3962  2.5317 -0.5406
  249MOL0     H33562   4.145   2.839  11.234  0.0377  0.7190 -1.4118
  249MOL0     H33563   4.237   2.986  11.219 -1.8937  0.8557 -1.1735
  249MOL0     H33564   4.169   2.838  11.485  1.5833 -1.6785  0.2022
  249MOL0     H33565   4.296   2.964  11.459  1.2069 -2.3688  2.0190
  249MOL0     H33566   4.262   2.590  11.468 -1.3235  1.3578  0.5861
  249MOL0     H33567   4.406   2.368  11.275  0.7699  0.6076 -1.4313
  249MOL0     H33568   4.564   2.421  11.264  1.2277 -3.2097  1.3264
  249MOL0     H33569   4.401   2.377  11.530 -1.7142 -0.4388 -1.6602
  249MOL0     H33570   4.548   2.451  11.523  0.9959 -0.9960  1.7089
  249MOL0     H33571   4.648   2.251  11.417  0.5146 -0.4163 -0.4085
  249MOL0     H33572   4.484   2.173  11.404 -0.8762 -0.2453  2.9444
  249MOL0     H33573   4.504   2.232  11.680 -1.9954 -2.6132  0.8266
  249MOL0     H33574   4.674   2.193  11.633  0.5956 -1.4891 -1.1536
  249MOL0     H33575   4.620   2.100  11.856 -0.8232 -0.4520  1.3474
  249MOL0     H33576   4.765   1.887  12.090 -0.9935 -2.2416 -0.9743
  249MOL0     H33577   4.722   2.053  12.052  0.2925  0.6526 -0.9289
  249MOL0     H33578   4.606   1.948  12.151 -1.5739  1.2830 -1.3660
  249MOL0     H33579   4.764   1.497  12.171  0.2219 -0.9470 -0.5353
  249MOL0     H33580   4.776   1.328  12.368  0.7919 -0.1300  0.4056
  249MOL0     H33581   4.590   1.425  12.741 -1.8005  1.6679 -1.3331
  249MOL0     H33582   4.440   1.366  12.675 -0.1571 -1.8769  1.7355
  249MOL0     H33583   4.448   1.246  12.844  0.2335 -0.8874  1.1221
  249MOL0     H33584   4.478   1.137  12.720  0.9078 -2.3350  3.5207
  249MOL0     H33585   4.669   1.255  12.913  1.7018  0.7460 -0.5668
  249MOL0     H33586   4.736   1.177  12.771 -0.7801  2.3370 -1.6896
  249MOL0     H33587   4.565   1.030  12.992  0.1033 -0.3793 -0.5865
  249MOL0     H33588   4.580   0.967  12.835 -1.7412 -2.5333  2.1483
  249MOL0     H33589   4.834   1.048  12.988  1.1439 -0.6994  0.3035
  249MOL0     H33590   4.824   0.918  12.872 -1.6020 -1.0384  0.8405
  249MOL0     H33591   4.846   0.828  13.104  0.1081  0.1575  2.5038
  249MOL0     H33592   4.717   0.921  13.158  3.0848  1.2703 -0.8769
  249MOL0     H33593   4.697   0.729  12.920  0.1301  0.5922  0.2240
  249MOL0     H33594   4.570   0.775  13.035  0.6694 -0.9665  1.2317
  249MOL0     H33595   4.811   0.614  13.125  0.4153  1.5523 -0.3561
  249MOL0     H33596   4.679   0.531  13.048 -0.1326 -0.6249 -0.1176
  249MOL0     H33597   4.418   1.518  12.525 -2.2689  1.1516 -2.3070
  249MOL0     H33598   4.413   1.671  12.327 -2.3422 -2.5845  1.9080
  249MOL0     H33599   4.489   1.633  11.775 -0.8611  0.1129 -1.4652
  249MOL0     H33600   4.478   1.809  11.593 -2.5270  0.1700  0.6846
  249MOL0     H33601   3.696   3.194  10.798 -0.0670 -0.7176  1.9393
  249MOL0     H33602   3.875   3.279  10.702  0.3340  3.3853 -2.3186
  249MOL0     H33603   4.255   3.851  10.776  1.9516  2.2303 -0.7410
  249MOL0     H33604   4.476   3.867  10.662 -0.1403  1.0432 -2.3813
  249MOL0     H33605   4.750   3.752  10.453 -1.0633 -0.6495 -0.0730
  249MOL0     H33606   4.606   3.847  10.485 -2.0671 -0.0562  2.4479
  249MOL0     H33607   4.705   3.813  10.737  1.1759  0.0339 -0.3664
  249MOL0     H33608   4.779   3.934  10.630  0.8678  0.3117  0.5446
  249MOL0     H33609   4.950   3.755  10.562  1.5568  1.4564  0.8392
  249MOL0     H33610   4.869   3.652  10.664  1.1821 -0.3463 -0.4316
  249MOL0     H33611   5.078   3.766  10.775 -0.7135 -1.4684 -0.2863
  249MOL0     H33612   4.921   3.766  10.863 -0.3218 -0.4210 -1.2619
  249MOL0     H33613   5.049   4.167  10.820  1.1104  0.3632 -1.4284
  249MOL0     H33614   4.457   3.455  10.574 -0.2419 -0.0216 -0.9393
  249MOL0     H33615   4.232   3.432  10.653 -0.7071  0.2074  0.2202
  250MOL0     O33616   6.493   8.835   2.118 -0.1066 -0.0987 -1.1791
  250MOL0     C33617   6.488   8.915   2.208  0.7189 -0.4552 -0.1821
  250MOL0     O33618   6.368   8.987   2.238  0.1010 -0.4147 -0.3741
  250MOL0     C33619   6.255   8.976   2.167 -0.7575  0.3639  0.5050
  250MOL0     C33620   6.138   8.925   2.223 -0.8895  0.9416 -0.4939
  250MOL0     C33621   6.021   8.905   2.150  0.7568 -0.9611  0.5778
  250MOL0     C33622   6.021   8.924   2.012 -0.5967  0.4434  0.3333
  250MOL0     O33623   5.910   8.929   1.941  0.2022 -0.4155 -0.0291
  250MOL0     C33624   5.901   8.834   1.835  0.0495  0.5226  0.4289
  250MOL0     C33625   5.766   8.856   1.764 -0.1196  0.1288 -0.2889
  250MOL0     C33626   5.642   8.873   1.841  0.9372 -0.2895 -0.6605
  250MOL0     C33627   5.609   8.741   1.912  0.4942 -0.0701 -1.2367
  250MOL0     C33628   5.466   8.695   1.882 -0.4705  0.1187  0.1568
  250MOL0     C33629   5.455   8.549   1.918 -0.2548 -0.5893  0.3008
  250MOL0     C33630   5.314   8.498   1.909  0.2798  0.2211 -0.0575
  250MOL0     C33631   5.273   8.349   1.949 -0.2005 -0.6485 -0.8871
  250MOL0     N33632   5.332   8.260   1.850 -0.0327 -0.0022  0.6520
  250MOL0     C33633   5.279   8.229   1.721 -0.0727 -0.4955 -0.7764
  250MOL0     C33634   5.373   8.158   1.659  0.2310  0.6254  0.4558
  250MOL0     C33635   5.363   8.084   1.531 -0.0651 -0.6154 -0.7871
  250MOL0     C33636   5.265   7.962   1.539  0.7688  0.3629 -0.2041
  250MOL0     C33637   5.341   7.838   1.586 -0.8766 -0.0505  0.2823
  250MOL0     C33638   5.276   7.705   1.549  0.1946  0.0672  0.8122
  250MOL0     O33639   5.318   7.658   1.427  0.2413 -0.0227  0.2835
  250MOL0     C33640   5.256   7.542   1.380  0.5339  0.5985  0.4261
  250MOL0     C33641   5.151   7.471   1.439  0.0256  0.1984  0.1742
  250MOL0     C33642   5.089   7.354   1.375  0.1088  0.0721 -0.9376
  250MOL0     C33643   4.968   7.293   1.455  0.3522 -0.8393  0.1222
  250MOL0     C33644   5.130   7.324   1.241 -0.1823 -0.6542 -0.4372
  250MOL0     C33645   5.068   7.220   1.151 -0.0074  1.2294 -0.5105
  250MOL0     O33646   4.963   7.145   1.208 -0.6370  0.2901  0.1454
  250MOL0     C33647   4.908   7.050   1.126 -1.6647  1.1676 -0.3219
  250MOL0     C33648   4.959   6.922   1.144 -0.5285 -0.8062 -0.1853
  250MOL0     C33649   4.913   6.816   1.060  0.0266  0.7506  0.1702
  250MOL0     C33650   4.800   6.835   0.974 -0.6747  0.0641  0.1264
  250MOL0     O33651   4.752   6.750   0.886 -0.2597  0.0216  0.2893
  250MOL0     C33652   4.767   6.616   0.905  0.1759  1.6158  0.3047
  250MOL0     C33653   4.682   6.569   1.010  1.2614  0.7498 -0.6591
  250MOL0     C33654   4.690   6.424   1.050  0.6001 -0.2250 -0.2176
  250MOL0     C33655   4.621   6.379   1.170 -0.1804  0.2479 -0.1252
  250MOL0     C33656   4.658   6.224   1.190  0.1503  0.3463 -0.6777
  250MOL0     C33657   4.565   6.164   1.299 -0.4898 -0.5100  0.3100
  250MOL0     C33658   4.602   6.016   1.340 -0.9047 -0.0765 -0.1881
  250MOL0     C33659   4.522   5.971   1.468  0.1020 -0.6286  0.0961
  250MOL0    Cl33660   4.372   5.895   1.402  0.0436  0.4482 -0.0988
  250MOL0     C33661   4.749   6.958   0.952 -0.0946 -0.4445  0.4455
  250MOL0     C33662   4.808   7.063   1.024  0.0327  0.3118  0.2747
  250MOL0     O33663   5.118   7.201   1.039  0.2434 -0.7934  0.4952
  250MOL0     C33664   5.244   7.389   1.197  0.0726 -0.4616 -0.5565
  250MOL0     C33665   5.302   7.495   1.257  0.5016 -0.4635  0.1312
  250MOL0     N33666   5.484   8.146   1.746  0.2909  0.6003  0.2146
  250MOL0     N33667   5.456   8.200   1.859  0.4387 -0.2536  0.1689
  250MOL0     C33668   6.145   8.964   1.954  0.1098  0.1653 -0.4251
  250MOL0     C33669   6.258   8.993   2.032 -1.1587 -0.6774 -0.9663
  250MOL0     C33670   6.613   8.950   2.286  0.6230  0.5888  0.4576
  250MOL0     C33671   6.608   9.044   2.386  0.0450  0.7002 -0.0681
  250MOL0     C33672   6.726   9.079   2.455  0.0662 -0.1514  0.0075
  250MOL0     C33673   6.843   9.003   2.437  0.9175 -0.5436  0.0190
  250MOL0     O33674   6.963   9.021   2.501 -1.0753  0.7272 -0.0052
  250MOL0     C33675   6.961   9.075   2.629  0.1721 -0.4649  0.6201
  250MOL0     C33676   7.102   9.068   2.682 -0.0328 -0.0926  0.5170
  250MOL0     C33677   7.118   8.945   2.776 -0.6459  1.0309  0.1119
  250MOL0     C33678   7.037   8.923   2.900 -0.1230 -0.1900 -0.5184
  250MOL0     C33679   7.014   9.053   2.966 -0.5232 -0.5585 -0.0421
  250MOL0     C33680   6.987   9.155   3.022  0.2563  0.1662 -0.3375
  250MOL0     C33681   6.847   8.922   2.335  0.0126  0.2541  0.1307
  250MOL0     C33682   6.741   8.892   2.264  0.8278  0.2912  0.3213
  250MOL0     H33683   6.144   8.910   2.331 -1.4572  4.1067  0.0733
  250MOL0     H33684   5.922   8.889   2.193  0.2566 -2.1928 -0.9182
  250MOL0     H33685   5.986   8.838   1.766  1.0401 -1.2419  1.4682
  250MOL0     H33686   5.913   8.735   1.880 -1.8441 -0.2813 -0.6843
  250MOL0     H33687   5.783   8.951   1.712 -2.7845  0.2446 -1.0991
  250MOL0     H33688   5.743   8.784   1.685 -3.4757 -2.5498  2.7567
  250MOL0     H33689   5.654   8.963   1.901 -1.1427  0.0627 -0.7128
  250MOL0     H33690   5.570   8.905   1.766  2.8054  0.4892 -2.2124
  250MOL0     H33691   5.683   8.673   1.869  0.6069  0.4324 -1.8456
  250MOL0     H33692   5.624   8.744   2.021 -0.1441 -0.4464 -1.1402
  250MOL0     H33693   5.386   8.744   1.939  0.3563 -0.1105  1.5538
  250MOL0     H33694   5.443   8.703   1.775 -0.5038 -2.5831 -0.1065
  250MOL0     H33695   5.521   8.484   1.860 -0.8218 -0.7920 -0.1233
  250MOL0     H33696   5.494   8.538   2.020  0.3016  1.3685  0.3357
  250MOL0     H33697   5.259   8.573   1.966  0.6602  1.5471 -1.3597
  250MOL0     H33698   5.277   8.510   1.807 -3.1484 -2.9161  0.5893
  250MOL0     H33699   5.164   8.343   1.951 -0.2370 -1.9048 -3.1291
  250MOL0     H33700   5.303   8.321   2.050 -3.1361  3.7721  1.5452
  250MOL0     H33701   5.182   8.261   1.685  1.1677  5.6095  0.2124
  250MOL0     H33702   5.328   8.154   1.454 -0.1520 -0.2632 -0.4274
  250MOL0     H33703   5.463   8.056   1.496 -0.2908 -0.3762 -1.6566
  250MOL0     H33704   5.228   7.947   1.437 -2.5681  1.2807  0.7372
  250MOL0     H33705   5.176   7.990   1.596  0.9882  2.0748 -0.6439
  250MOL0     H33706   5.346   7.843   1.695 -3.1836 -0.2645  0.4610
  250MOL0     H33707   5.448   7.828   1.568 -1.1296 -0.1468 -1.3550
  250MOL0     H33708   5.169   7.723   1.534  0.6016  0.2633 -2.5578
  250MOL0     H33709   5.305   7.626   1.618 -0.3079  0.7031  1.7804
  250MOL0     H33710   5.121   7.503   1.538 -0.5399 -1.0163  0.4114
  250MOL0     H33711   4.873   7.287   1.402  0.1011 -5.0669  0.6970
  250MOL0     H33712   4.982   7.189   1.486 -2.1047 -1.8436 -1.7323
  250MOL0     H33713   4.946   7.362   1.537  0.4533  2.2737 -2.3179
  250MOL0     H33714   5.038   6.918   1.219 -3.1321  3.7439  3.2589
  250MOL0     H33715   4.948   6.714   1.067 -3.5790 -0.5296  1.6917
  250MOL0     H33716   4.740   6.566   0.811  0.9473  3.7770 -1.1353
  250MOL0     H33717   4.871   6.588   0.921  0.1067  0.1135 -1.4184
  250MOL0     H33718   4.705   6.620   1.104 -1.2628  1.9848 -0.6156
  250MOL0     H33719   4.580   6.592   0.979  0.8940 -2.3813 -2.1469
  250MOL0     H33720   4.794   6.391   1.052  1.0467  0.7684  4.2685
  250MOL0     H33721   4.653   6.374   0.961 -1.7148  0.4593  0.2824
  250MOL0     H33722   4.649   6.430   1.262  1.2646 -0.4864 -0.1172
  250MOL0     H33723   4.513   6.393   1.159  0.0739  2.2720 -0.3533
  250MOL0     H33724   4.759   6.215   1.231  0.9797 -0.2709 -2.7184
  250MOL0     H33725   4.655   6.164   1.099 -3.4573 -2.3064  0.9499
  250MOL0     H33726   4.586   6.222   1.390  2.3479 -2.1055  0.8010
  250MOL0     H33727   4.460   6.177   1.271  0.3006  0.0402 -2.7310
  250MOL0     H33728   4.708   6.001   1.362 -1.0590 -3.7662 -1.1431
  250MOL0     H33729   4.590   5.943   1.259  3.1358  0.7521 -1.7734
  250MOL0     H33730   4.485   6.053   1.529  2.3423 -0.6391  1.5600
  250MOL0     H33731   4.574   5.907   1.540 -1.1981 -0.3915  1.2842
  250MOL0     H33732   4.675   6.973   0.874  0.2825  2.9204  0.6049
  250MOL0     H33733   4.762   7.160   1.006 -3.5694 -1.7384 -3.1250
  250MOL0     H33734   5.284   7.357   1.102 -1.0118 -1.4840 -0.6938
  250MOL0     H33735   5.377   7.552   1.203  0.8775 -0.8975  0.1848
  250MOL0     H33736   6.162   8.981   1.848  0.3624 -1.5869 -0.7010
  250MOL0     H33737   6.350   9.021   1.982  0.7345 -1.4439  1.8476
  250MOL0     H33738   6.520   9.098   2.419  0.4282  1.0028  0.4877
  250MOL0     H33739   6.717   9.167   2.518  2.9922  0.4093 -0.2099
  250MOL0     H33740   6.938   9.181   2.618  1.9343  0.1562  2.2849
  250MOL0     H33741   6.882   9.033   2.692 -2.1209  1.8013 -0.5467
  250MOL0     H33742   7.128   9.165   2.724  2.9118 -1.1941  1.5376
  250MOL0     H33743   7.161   9.045   2.593 -5.4262  0.1520 -3.6522
  250MOL0     H33744   7.217   8.953   2.822 -1.6775  2.2026  2.2743
  250MOL0     H33745   7.111   8.856   2.713  3.9514  0.2550  0.2890
  250MOL0     H33746   7.085   8.855   2.970  1.1384  1.1570 -0.0294
  250MOL0     H33747   6.942   8.878   2.870 -0.9286 -0.8852  2.6899
  250MOL0     H33748   6.955   9.234   3.087  1.7311  1.1093 -0.6943
  250MOL0     H33749   6.947   8.883   2.315  0.8270  0.6011  3.0746
  250MOL0     H33750   6.748   8.821   2.182  0.8216  1.2018 -0.4843
  251MOL0     O33751   6.842   9.736   5.888 -0.0083 -0.3751  0.1800
  251MOL0     C33752   6.805   9.722   5.777 -0.0108 -0.2361  0.3487
  251MOL0     O33753   6.889   9.725   5.658  0.2531  0.1628 -0.0029
  251MOL0     C33754   7.016   9.743   5.684 -0.5347  0.6373 -1.4259
  251MOL0     C33755   7.083   9.861   5.660 -0.6765 -0.1283 -0.2118
  251MOL0     C33756   7.220   9.867   5.698 -0.2699  0.3908 -0.1194
  251MOL0     C33757   7.282   9.752   5.751  0.3772  0.0305 -0.0218
  251MOL0     O33758   7.407   9.777   5.798  0.0553 -0.4624 -1.2092
  251MOL0     C33759   7.413   9.814   5.938  1.2621  0.7778  0.2571
  251MOL0     C33760   7.554   9.794   5.989  0.3657  0.2911  0.3810
  251MOL0     C33761   7.671   9.880   5.938  0.0485 -0.6575 -0.6427
  251MOL0     C33762   7.640  10.028   5.953 -0.6192 -1.5691 -0.6722
  251MOL0     C33763   7.746  10.103   5.868 -0.5961  0.0366  0.0113
  251MOL0     C33764   7.893  10.086   5.927  0.6081 -0.9655 -0.7236
  251MOL0     C33765   7.965   9.982   5.847 -0.1027 -0.3350  0.8326
  251MOL0     C33766   8.109  10.020   5.795  0.4645  0.6332 -0.1551
  251MOL0     N33767   8.174   9.906   5.734 -0.5077 -0.9262  0.2799
  251MOL0     C33768   8.161   9.779   5.762  0.6029  0.0511  0.2014
  251MOL0     C33769   8.264   9.722   5.694  0.1829  0.3395  0.5455
  251MOL0     C33770   8.285   9.579   5.710 -0.0145  0.2048 -0.1679
  251MOL0     C33771   8.408   9.556   5.796 -0.5124  0.4958 -0.5824
  251MOL0     C33772   8.458   9.408   5.812 -1.0787 -0.1832  0.9114
  251MOL0     C33773   8.575   9.386   5.910  0.2220 -0.6516 -0.0575
  251MOL0     O33774   8.525   9.440   6.035 -0.2656  0.3826  0.3791
  251MOL0     C33775   8.608   9.436   6.140  0.8714  0.2937  0.1005
  251MOL0     C33776   8.736   9.380   6.127  0.0952 -0.8511 -0.2542
  251MOL0     C33777   8.817   9.364   6.242  0.7727 -0.5614 -0.3451
  251MOL0     C33778   8.938   9.274   6.224 -1.0314 -0.3249  0.3648
  251MOL0     C33779   8.775   9.409   6.363  0.2981 -0.3520 -0.0570
  251MOL0     C33780   8.859   9.399   6.484  0.1351 -0.2058  1.1983
  251MOL0     O33781   8.850   9.497   6.572 -0.8123 -0.1422 -0.3127
  251MOL0     C33782   8.916   9.479   6.692 -0.1269  0.2273 -0.3546
  251MOL0     C33783   8.831   9.493   6.805 -0.5350 -0.6047  0.5649
  251MOL0     C33784   8.903   9.501   6.929  0.1398 -1.3242 -0.6815
  251MOL0     C33785   9.035   9.497   6.939  0.6357 -0.0697 -0.1217
  251MOL0     O33786   9.093   9.518   7.061 -0.0893  0.6955 -0.1054
  251MOL0     C33787   9.178   9.633   7.067 -0.1273  0.6567  0.2036
  251MOL0     C33788   9.117   9.741   7.148  0.0626  0.6111 -0.3002
  251MOL0     C33789   9.072   9.860   7.072  0.4728  0.4502 -0.8440
  251MOL0     C33790   9.056   9.996   7.145  0.2604  0.9681 -0.1490
  251MOL0     C33791   9.054  10.113   7.047 -0.6934 -0.6071  0.6095
  251MOL0     C33792   9.174  10.112   6.954 -0.2344 -0.3727 -0.7020
  251MOL0     C33793   9.202  10.254   6.890  0.1443  0.3817  0.9333
  251MOL0     C33794   9.085  10.305   6.797  0.5199 -0.5152 -0.3952
  251MOL0    Cl33795   9.039  10.184   6.685 -0.4592 -0.0569  0.1624
  251MOL0     C33796   9.114   9.465   6.828  0.2090  0.0037 -0.7220
  251MOL0     C33797   9.052   9.460   6.709  0.1518 -0.4362 -0.0580
  251MOL0     O33798   8.919   9.299   6.507 -0.3903 -0.1561  0.0517
  251MOL0     C33799   8.652   9.472   6.374  0.7077  0.4497  0.5446
  251MOL0     C33800   8.560   9.480   6.269 -0.6558 -0.0061  0.4840
  251MOL0     N33801   8.342   9.821   5.631  0.9730 -0.2699 -0.8201
  251MOL0     N33802   8.288   9.930   5.661  1.1087  0.5086 -0.7015
  251MOL0     C33803   7.210   9.633   5.767 -0.2427 -1.0334  0.2326
  251MOL0     C33804   7.082   9.624   5.725  0.2647  0.2943 -0.3442
  251MOL0     C33805   6.660   9.694   5.754  0.4306 -0.0590 -0.1211
  251MOL0     C33806   6.608   9.661   5.621 -0.6220  0.1465 -0.5963
  251MOL0     C33807   6.476   9.624   5.605  0.9566  0.1596 -0.6477
  251MOL0     C33808   6.379   9.633   5.709 -0.1866 -0.6065 -0.3292
  251MOL0     O33809   6.250   9.625   5.672  0.0858  0.4262 -0.1726
  251MOL0     C33810   6.146   9.645   5.770  0.1214  0.1382  0.2500
  251MOL0     C33811   6.002   9.655   5.715 -0.3543 -0.2632 -0.5090
  251MOL0     C33812   5.954   9.522   5.654 -0.1842  0.0441  0.6515
  251MOL0     C33813   5.861   9.446   5.749 -0.0380 -0.7026  0.3354
  251MOL0     C33814   5.733   9.505   5.723 -0.2538  0.5027  0.6618
  251MOL0     C33815   5.614   9.534   5.706 -0.6305 -1.0146  0.9121
  251MOL0     C33816   6.425   9.673   5.837 -0.2309  0.0568  0.8178
  251MOL0     C33817   6.570   9.698   5.862  0.7865  0.0696 -0.2084
  251MOL0     H33818   7.015   9.940   5.628 -1.5336 -0.3717  0.9253
  251MOL0     H33819   7.283   9.953   5.680  1.2834 -0.3167  1.5720
  251MOL0     H33820   7.375   9.916   5.948 -3.2277 -0.6715  0.3824
  251MOL0     H33821   7.359   9.740   5.998  2.3695 -3.0356 -3.0386
  251MOL0     H33822   7.567   9.792   6.097  3.0148  0.7181  0.1396
  251MOL0     H33823   7.575   9.692   5.956 -1.0707 -0.1537  0.7761
  251MOL0     H33824   7.754   9.860   6.007  1.0725  0.8965 -1.3586
  251MOL0     H33825   7.696   9.860   5.834 -1.4185  3.8188 -2.1194
  251MOL0     H33826   7.541  10.065   5.925 -1.2794  0.8370  3.8101
  251MOL0     H33827   7.651  10.066   6.055  1.9775  0.2920 -1.5250
  251MOL0     H33828   7.745  10.073   5.762 -0.1021 -1.1195  0.3137
  251MOL0     H33829   7.714  10.208   5.865 -0.9228 -0.0442 -3.2271
  251MOL0     H33830   7.956  10.175   5.928  0.4778 -0.8711  0.2290
  251MOL0     H33831   7.893  10.068   6.035  3.7930  0.9311 -0.2538
  251MOL0     H33832   7.984   9.901   5.918 -0.4199 -0.1793  1.1016
  251MOL0     H33833   7.909   9.948   5.760  0.9780  1.3588 -0.5832
  251MOL0     H33834   8.176  10.049   5.876  1.7977  0.1697 -1.0558
  251MOL0     H33835   8.093  10.102   5.724 -3.0088 -1.5094 -2.1318
  251MOL0     H33836   8.090   9.726   5.824  1.7130  1.1880  2.5712
  251MOL0     H33837   8.198   9.538   5.762 -0.0023 -0.0979 -0.3806
  251MOL0     H33838   8.288   9.531   5.611 -3.2477 -1.7856  0.5324
  251MOL0     H33839   8.384   9.592   5.896 -0.4365  1.7210 -0.9933
  251MOL0     H33840   8.483   9.619   5.748 -0.8131  0.6831 -0.8134
  251MOL0     H33841   8.478   9.360   5.715 -1.2783 -3.5300  2.4047
  251MOL0     H33842   8.370   9.349   5.841 -0.8550 -2.2360 -2.0279
  251MOL0     H33843   8.661   9.449   5.884 -0.9227  2.1066  2.2784
  251MOL0     H33844   8.593   9.279   5.923  1.8396 -0.0925  3.2629
  251MOL0     H33845   8.783   9.361   6.032  1.3816 -1.4089  0.4670
  251MOL0     H33846   8.936   9.174   6.269 -0.5441 -0.3097  0.4272
  251MOL0     H33847   8.969   9.261   6.120  0.9316 -1.5057  1.0459
  251MOL0     H33848   9.020   9.320   6.280 -1.0988 -0.4280  0.5491
  251MOL0     H33849   8.723   9.501   6.801 -1.0301 -4.9022  1.1712
  251MOL0     H33850   8.826   9.522   7.002  0.3197 -0.6455 -0.6752
  251MOL0     H33851   9.255   9.598   7.137 -1.4699  1.3060  2.0819
  251MOL0     H33852   9.222   9.666   6.972  1.1446  0.2846  0.6368
  251MOL0     H33853   9.029   9.706   7.202 -1.0739  1.3206 -1.6197
  251MOL0     H33854   9.192   9.764   7.224 -2.4915 -0.1218  2.6408
  251MOL0     H33855   8.972   9.835   7.036  0.7213  0.6691 -1.7140
  251MOL0     H33856   9.120   9.880   6.975 -0.2874  3.7990 -0.6418
  251MOL0     H33857   8.958   9.984   7.192 -0.3429 -0.3798 -1.6557
  251MOL0     H33858   9.125  10.008   7.229 -0.1069  2.7554 -0.0668
  251MOL0     H33859   9.043  10.197   7.117  0.4169  2.2535 -2.3940
  251MOL0     H33860   8.960  10.119   6.992  0.3412 -1.5444 -1.3422
  251MOL0     H33861   9.255  10.072   7.015  0.1465  0.2514 -0.7853
  251MOL0     H33862   9.169  10.040   6.872 -2.0618 -3.2562  1.7258
  251MOL0     H33863   9.295  10.232   6.838 -1.7764 -2.9664 -1.4559
  251MOL0     H33864   9.227  10.326   6.968 -0.2125  0.7544  0.7119
  251MOL0     H33865   9.108  10.403   6.754  0.4812  1.2469  3.2462
  251MOL0     H33866   8.999  10.318   6.863  1.6132 -4.6380  2.2001
  251MOL0     H33867   9.219   9.443   6.842  0.0381 -1.3104 -1.3784
  251MOL0     H33868   9.112   9.432   6.623 -0.0579 -0.4567 -0.1964
  251MOL0     H33869   8.621   9.502   6.473 -1.6672  1.0099 -0.3086
  251MOL0     H33870   8.466   9.532   6.286  0.9212  3.2182  0.0934
  251MOL0     H33871   7.260   9.542   5.799  0.0071 -1.5494 -1.5033
  251MOL0     H33872   7.026   9.533   5.748  4.9602 -2.3057  2.4287
  251MOL0     H33873   6.669   9.677   5.534  1.2802  0.5506  0.7494
  251MOL0     H33874   6.445   9.599   5.504  0.9270 -1.8648 -0.1896
  251MOL0     H33875   6.162   9.549   5.821 -0.2656 -1.6571 -2.7767
  251MOL0     H33876   6.168   9.737   5.825  0.2891  2.4106 -3.2748
  251MOL0     H33877   6.007   9.741   5.647 -1.1365  0.1508 -0.0493
  251MOL0     H33878   5.942   9.680   5.803  1.4503 -4.9941  2.4331
  251MOL0     H33879   6.044   9.464   5.629 -1.3817 -0.9721 -1.5110
  251MOL0     H33880   5.927   9.536   5.549  0.4542 -1.7501  0.2114
  251MOL0     H33881   5.886   9.459   5.855 -0.0596 -3.2672  0.7090
  251MOL0     H33882   5.856   9.337   5.739  0.4439 -1.0373  3.0141
  251MOL0     H33883   5.515   9.576   5.707 -0.2457 -0.0520  0.5343
  251MOL0     H33884   6.367   9.691   5.926 -1.0726 -0.8597  0.4694
  251MOL0     H33885   6.605   9.718   5.962  1.7940  2.3751 -0.9576
  252MOL0     O33886  11.160   2.249   4.216 -0.4385 -0.3045 -0.3751
  252MOL0     C33887  11.247   2.328   4.186 -0.7097 -1.0207  0.1989
  252MOL0     O33888  11.233   2.451   4.126  0.0643 -0.2027 -0.7258
  252MOL0     C33889  11.120   2.500   4.082  0.7600 -0.1850  1.1536
  252MOL0     C33890  11.023   2.423   4.022  0.3607  0.0121 -0.7322
  252MOL0     C33891  10.895   2.471   3.980 -0.6007  0.0502  0.2149
  252MOL0     C33892  10.875   2.611   3.986 -0.3777 -0.2745  0.4429
  252MOL0     O33893  10.752   2.650   3.938 -0.2942  0.4095 -0.5487
  252MOL0     C33894  10.700   2.778   3.985  0.2358 -0.8124  0.3328
  252MOL0     C33895  10.701   2.866   3.863  0.7944  1.2034 -0.6726
  252MOL0     C33896  10.609   2.990   3.879  0.8742  0.3700 -0.0532
  252MOL0     C33897  10.663   3.094   3.973 -0.1279 -0.2914  0.1456
  252MOL0     C33898  10.562   3.207   4.018  0.5451 -0.3494  0.9439
  252MOL0     C33899  10.534   3.314   3.918  0.1146  0.4529  0.0779
  252MOL0     C33900  10.646   3.416   3.904  0.5355  0.8039 -0.1060
  252MOL0     C33901  10.624   3.503   3.782 -0.0792 -0.9807 -1.6370
  252MOL0     N33902  10.615   3.448   3.653  0.6620 -0.3265  0.3707
  252MOL0     C33903  10.709   3.370   3.592 -0.4637 -0.2903 -0.2927
  252MOL0     C33904  10.655   3.321   3.482 -0.7626  0.2035  0.0614
  252MOL0     C33905  10.723   3.229   3.370 -0.5564  0.5979  0.1467
  252MOL0     C33906  10.666   3.092   3.355  0.0579  0.8510 -0.5504
  252MOL0     C33907  10.525   3.083   3.321  0.6837  0.3054 -0.0104
  252MOL0     C33908  10.502   3.137   3.175 -0.2608 -0.3909  0.3835
  252MOL0     O33909  10.584   3.066   3.079 -0.2019  0.4924 -0.5456
  252MOL0     C33910  10.566   3.096   2.947 -0.1954 -0.8680  1.7575
  252MOL0     C33911  10.619   2.999   2.862 -1.0253 -0.5754 -0.6454
  252MOL0     C33912  10.590   2.999   2.729  1.3918  0.2877 -0.3185
  252MOL0     C33913  10.646   2.897   2.638  0.3299 -0.2002  0.1589
  252MOL0     C33914  10.494   3.091   2.673 -0.6498  0.2377  0.7388
  252MOL0     C33915  10.448   3.098   2.536 -0.6885  0.3333 -0.2399
  252MOL0     O33916  10.445   3.222   2.481 -0.3838  0.5603  0.2686
  252MOL0     C33917  10.363   3.230   2.365 -1.2715 -0.3253 -0.7395
  252MOL0     C33918  10.223   3.244   2.370  0.9479  1.2555 -0.8195
  252MOL0     C33919  10.142   3.252   2.258  0.0177 -0.2715 -0.5390
  252MOL0     C33920  10.214   3.257   2.137 -0.2225  0.0603  0.1850
  252MOL0     O33921  10.165   3.266   2.013  0.2809 -0.6332  0.1042
  252MOL0     C33922  10.024   3.267   1.985 -0.9659  0.0277  0.3362
  252MOL0     C33923   9.996   3.403   1.905  0.2994  0.3434  0.0845
  252MOL0     C33924   9.845   3.415   1.874 -0.3914  0.5521  0.4290
  252MOL0     C33925   9.812   3.528   1.775 -0.1656  0.1098  0.3367
  252MOL0     C33926   9.667   3.508   1.720  0.8723  0.3540 -0.2029
  252MOL0     C33927   9.563   3.540   1.824 -0.5378  0.3371 -0.3433
  252MOL0     C33928   9.425   3.529   1.761  0.0234  0.3418  0.4222
  252MOL0     C33929   9.324   3.539   1.884  0.5800 -0.1091  0.2825
  252MOL0    Cl33930   9.329   3.403   2.003 -0.1413  0.2801 -0.2036
  252MOL0     C33931  10.357   3.235   2.133 -0.0755 -0.2286  0.4215
  252MOL0     C33932  10.427   3.238   2.246  0.3890 -0.0247  0.0594
  252MOL0     O33933  10.387   2.998   2.494 -0.0310 -0.1096 -0.6050
  252MOL0     C33934  10.445   3.189   2.764  0.1818 -1.0597  0.5093
  252MOL0     C33935  10.473   3.190   2.899  0.2907 -0.8244  0.5660
  252MOL0     N33936  10.531   3.385   3.475 -0.1286  0.6265  0.3504
  252MOL0     N33937  10.497   3.451   3.576 -0.3435  0.3740  0.0418
  252MOL0     C33938  10.984   2.690   4.034 -0.0134  0.5407 -0.0837
  252MOL0     C33939  11.096   2.634   4.090  0.0663 -0.3273 -0.3251
  252MOL0     C33940  11.386   2.299   4.230 -0.2587  0.0099 -0.5025
  252MOL0     C33941  11.438   2.165   4.226  0.2644 -0.5840 -0.2818
  252MOL0     C33942  11.569   2.125   4.253 -0.0647 -1.1598 -0.3454
  252MOL0     C33943  11.658   2.236   4.282  0.3565  0.6126 -0.0316
  252MOL0     O33944  11.794   2.212   4.303 -0.8504 -0.5396 -0.4265
  252MOL0     C33945  11.863   2.280   4.404  0.0456  0.5722 -0.4665
  252MOL0     C33946  11.973   2.188   4.461 -0.3087 -1.6149  0.4543
  252MOL0     C33947  11.909   2.062   4.517  1.0621  0.5593 -0.2839
  252MOL0     C33948  11.995   2.000   4.633 -1.1620 -0.4576 -0.6665
  252MOL0     C33949  11.939   1.886   4.707  0.3266  0.2285  0.5306
  252MOL0     C33950  11.912   1.784   4.760  0.7238  0.8015 -0.5132
  252MOL0     C33951  11.614   2.368   4.272 -0.2360  0.4081 -0.7263
  252MOL0     C33952  11.480   2.406   4.243  1.0626  0.0517 -0.5939
  252MOL0     H33953  11.045   2.318   4.004  4.1844  1.0601 -3.4942
  252MOL0     H33954  10.825   2.398   3.942 -0.3902 -2.3102  3.9086
  252MOL0     H33955  10.595   2.758   4.010  0.7624 -2.1797  1.5614
  252MOL0     H33956  10.752   2.812   4.076 -1.4846  2.5154  0.2433
  252MOL0     H33957  10.806   2.895   3.849  1.0434  1.5151  1.4387
  252MOL0     H33958  10.687   2.802   3.776 -2.5226 -1.0031  1.2945
  252MOL0     H33959  10.598   3.034   3.780  0.9709 -0.5459 -0.4794
  252MOL0     H33960  10.510   2.957   3.912  1.9209 -1.9521  0.9519
  252MOL0     H33961  10.699   3.038   4.060 -0.6599 -2.8893 -1.2111
  252MOL0     H33962  10.749   3.130   3.915 -0.6806 -1.6761 -1.6020
  252MOL0     H33963  10.464   3.173   4.052 -0.7099  2.3535  0.2807
  252MOL0     H33964  10.608   3.252   4.107  0.2351  0.3054  0.7718
  252MOL0     H33965  10.505   3.276   3.819 -1.6653  2.6659 -0.3270
  252MOL0     H33966  10.445   3.366   3.956 -0.8584 -1.7531  1.0056
  252MOL0     H33967  10.653   3.479   3.993  1.1430  0.8050 -0.1546
  252MOL0     H33968  10.738   3.366   3.873 -0.9063 -0.8397 -1.9808
  252MOL0     H33969  10.709   3.571   3.785 -2.1887  1.8256 -0.7114
  252MOL0     H33970  10.536   3.564   3.802  0.8913 -0.4792  1.7435
  252MOL0     H33971  10.805   3.335   3.629 -0.8090 -1.4364 -0.4502
  252MOL0     H33972  10.718   3.280   3.273 -2.3258 -1.8143 -1.1376
  252MOL0     H33973  10.832   3.223   3.382 -0.4442  2.5622  0.3647
  252MOL0     H33974  10.686   3.035   3.447 -0.4392 -1.9412 -2.0589
  252MOL0     H33975  10.726   3.039   3.281  3.0117 -0.7084  2.6593
  252MOL0     H33976  10.462   3.137   3.391  0.1653 -1.4522  0.9372
  252MOL0     H33977  10.482   2.982   3.322 -2.9485  1.6841 -1.1114
  252MOL0     H33978  10.523   3.244   3.166  0.0944 -0.6098 -1.7769
  252MOL0     H33979  10.395   3.119   3.166 -0.4645  0.8906  0.0684
  252MOL0     H33980  10.678   2.924   2.914 -2.4854 -0.6285  1.0094
  252MOL0     H33981  10.571   2.848   2.575  2.5920 -1.8801 -1.4192
  252MOL0     H33982  10.724   2.941   2.575 -0.7678  2.6487  0.6682
  252MOL0     H33983  10.707   2.818   2.684  1.0187 -2.3333 -3.9156
  252MOL0     H33984  10.173   3.238   2.467  2.0755 -0.4846 -0.2907
  252MOL0     H33985  10.035   3.250   2.274 -0.4975 -0.1430 -3.4577
  252MOL0     H33986  10.007   3.187   1.911 -1.0079 -2.0132  2.4370
  252MOL0     H33987   9.962   3.264   2.074  0.5474 -0.1869  1.4178
  252MOL0     H33988  10.019   3.491   1.967  0.8269  0.8240 -0.7821
  252MOL0     H33989  10.054   3.417   1.814  0.7871  2.1482  0.6350
  252MOL0     H33990   9.785   3.426   1.965  0.5406 -0.3615  1.1855
  252MOL0     H33991   9.812   3.322   1.826 -0.7647  0.7748  0.2558
  252MOL0     H33992   9.831   3.626   1.819  3.3596 -0.0631 -0.4361
  252MOL0     H33993   9.879   3.521   1.688 -0.2734 -1.8666  0.3793
  252MOL0     H33994   9.641   3.405   1.694 -2.3223  1.5713 -2.4913
  252MOL0     H33995   9.656   3.579   1.638  4.5440  2.0867  0.6131
  252MOL0     H33996   9.571   3.464   1.903  2.0596  0.2727 -0.5885
  252MOL0     H33997   9.580   3.638   1.869 -3.4505 -0.0596  1.9747
  252MOL0     H33998   9.408   3.428   1.722  1.0622 -0.4340  1.8496
  252MOL0     H33999   9.408   3.595   1.676  1.1033 -2.0372 -1.7421
  252MOL0     H34000   9.220   3.548   1.851  0.1352  0.6404  1.7867
  252MOL0     H34001   9.346   3.636   1.929  2.0336  0.9444 -2.5194
  252MOL0     H34002  10.415   3.233   2.042  2.0239 -2.4349  1.6804
  252MOL0     H34003  10.535   3.226   2.243  0.3507 -0.7184  0.9504
  252MOL0     H34004  10.387   3.270   2.719 -0.1908 -1.7182 -0.2200
  252MOL0     H34005  10.426   3.274   2.948 -1.6052 -0.6950 -1.3571
  252MOL0     H34006  10.971   2.796   4.056  0.5474 -0.0077  3.4847
  252MOL0     H34007  11.172   2.698   4.134  2.2201 -0.8895 -2.9650
  252MOL0     H34008  11.380   2.078   4.196 -0.3948 -1.8935  4.1202
  252MOL0     H34009  11.599   2.020   4.254 -0.1976 -1.2022 -0.6505
  252MOL0     H34010  11.908   2.360   4.345  1.9117 -2.1829 -3.1120
  252MOL0     H34011  11.789   2.319   4.474 -0.8833 -0.6116 -0.7418
  252MOL0     H34012  12.019   2.255   4.534 -1.5175 -1.5801  1.2183
  252MOL0     H34013  12.034   2.164   4.373 -1.6527  1.0592 -1.3679
  252MOL0     H34014  11.901   1.982   4.442  1.0175  0.6508 -0.3763
  252MOL0     H34015  11.809   2.092   4.549  1.0619  1.1666 -0.8319
  252MOL0     H34016  12.008   2.086   4.700  3.3726  0.9969 -3.0265
  252MOL0     H34017  12.095   1.968   4.606  0.6472  2.5883  1.7027
  252MOL0     H34018  11.882   1.688   4.798 -0.8318  1.7837  0.9007
  252MOL0     H34019  11.692   2.444   4.279 -0.6530  1.0006 -2.1577
  252MOL0     H34020  11.448   2.507   4.218  0.5723  0.0929  0.1721
  253MOL0     O34021  11.456  10.998   5.727 -0.2019 -0.1017 -0.0775
  253MOL0     C34022  11.557  11.038   5.666  0.9178  0.0611  0.8721
  253MOL0     O34023  11.612  10.974   5.554  0.2286  0.3523  0.2944
  253MOL0     C34024  11.569  10.851   5.509  0.1781 -0.5818  1.8695
  253MOL0     C34025  11.570  10.832   5.371 -0.4121  0.6838  0.3417
  253MOL0     C34026  11.547  10.713   5.318  0.4310 -0.3162 -0.4181
  253MOL0     C34027  11.516  10.603   5.399  0.3517 -0.1898 -0.9517
  253MOL0     O34028  11.485  10.476   5.351  0.0368 -0.6101 -0.3113
  253MOL0     C34029  11.354  10.423   5.385 -0.2647 -0.2290  0.0510
  253MOL0     C34030  11.342  10.298   5.297  0.0988  0.6412 -0.5889
  253MOL0     C34031  11.445  10.198   5.343  0.4233  0.0215 -0.7521
  253MOL0     C34032  11.476  10.079   5.250 -0.1762 -0.2022  1.0274
  253MOL0     C34033  11.354   9.985   5.233  1.0067  0.4588 -0.0872
  253MOL0     C34034  11.387   9.869   5.137 -0.2396 -1.1892  0.7056
  253MOL0     C34035  11.275   9.764   5.126  0.1737 -0.5229  1.1937
  253MOL0     C34036  11.158   9.828   5.051  0.2308 -0.1776 -0.4139
  253MOL0     N34037  11.049   9.734   5.028  0.8747  0.5534  0.3364
  253MOL0     C34038  10.938   9.735   5.113 -0.8201 -0.0206  0.0657
  253MOL0     C34039  10.856   9.658   5.040  0.1078 -0.1960 -0.9612
  253MOL0     C34040  10.713   9.623   5.086  1.4155  0.7134 -0.6743
  253MOL0     C34041  10.714   9.491   5.165  0.2118  1.5882 -0.6139
  253MOL0     C34042  10.578   9.450   5.249 -0.2882 -0.8385  0.9234
  253MOL0     C34043  10.550   9.545   5.369 -0.1038 -0.0319 -0.4583
  253MOL0     O34044  10.674   9.568   5.436  0.1142 -1.0359  0.7322
  253MOL0     C34045  10.672   9.659   5.535  0.8837  0.4201 -0.2727
  253MOL0     C34046  10.566   9.735   5.582 -0.4011  1.1585 -0.1474
  253MOL0     C34047  10.576   9.818   5.697 -0.2824 -0.1936 -0.5694
  253MOL0     C34048  10.454   9.896   5.736 -0.4168 -0.3862 -2.2755
  253MOL0     C34049  10.710   9.836   5.756  1.1632  0.0444 -0.2132
  253MOL0     C34050  10.737   9.929   5.869 -0.3427 -0.1288  0.4334
  253MOL0     O34051  10.635   9.981   5.929  0.4977 -0.6507  0.4512
  253MOL0     C34052  10.637  10.080   6.027  0.9858  0.7923  0.2892
  253MOL0     C34053  10.540  10.188   6.017  0.5155  1.5390  0.2165
  253MOL0     C34054  10.548  10.294   6.104 -0.5734  0.8333 -0.4632
  253MOL0     C34055  10.638  10.288   6.208 -0.6249  0.4452  0.3379
  253MOL0     O34056  10.647  10.383   6.304 -0.5173 -0.4562  0.2134
  253MOL0     C34057  10.678  10.519   6.262  0.6146  0.0075 -0.1322
  253MOL0     C34058  10.753  10.583   6.382 -0.6741 -0.6499  0.7226
  253MOL0     C34059  10.900  10.539   6.379 -0.7054 -0.2750 -0.4437
  253MOL0     C34060  10.969  10.575   6.510 -0.1738  0.5956  0.8984
  253MOL0     C34061  11.120  10.541   6.485 -0.5268  0.5006 -1.8669
  253MOL0     C34062  11.215  10.586   6.605 -0.2639  1.1684  0.8104
  253MOL0     C34063  11.226  10.742   6.619 -0.2286 -0.7363  0.1209
  253MOL0     C34064  11.348  10.797   6.546  0.5101  0.0913  0.3421
  253MOL0    Cl34065  11.385  10.955   6.590 -0.0831 -0.1591 -0.2551
  253MOL0     C34066  10.716  10.175   6.229  0.2302  0.1913  0.4280
  253MOL0     C34067  10.715  10.076   6.134 -1.7937 -0.8838  1.0918
  253MOL0     O34068  10.855   9.957   5.901  0.7539 -0.2665 -0.7167
  253MOL0     C34069  10.818   9.764   5.704  0.1036  1.4686 -0.1624
  253MOL0     C34070  10.794   9.675   5.602 -0.4117  0.6591  0.3629
  253MOL0     N34071  10.917   9.606   4.925 -0.2288  0.9044  0.2311
  253MOL0     N34072  11.038   9.650   4.922  0.0351 -0.4638 -0.1384
  253MOL0     C34073  11.521  10.616   5.536  0.4683 -0.3451  0.3063
  253MOL0     C34074  11.551  10.743   5.592  0.7913 -0.1885  0.3565
  253MOL0     C34075  11.609  11.170   5.692  0.1111 -0.3194 -0.2932
  253MOL0     C34076  11.707  11.229   5.611 -0.7871  0.0505  0.6510
  253MOL0     C34077  11.762  11.358   5.643 -1.1939  0.9765  0.1572
  253MOL0     C34078  11.714  11.434   5.754  0.2845 -0.4398 -0.5473
  253MOL0     O34079  11.763  11.557   5.782 -0.4519 -0.1197 -0.2353
  253MOL0     C34080  11.719  11.637   5.892  0.9710  0.5276  0.4414
  253MOL0     C34081  11.763  11.781   5.906 -0.3667  0.7325  0.0635
  253MOL0     C34082  11.913  11.803   5.876 -0.0779  0.4114  0.6139
  253MOL0     C34083  11.973  11.893   5.980  0.4558 -0.8823 -0.2279
  253MOL0     C34084  11.924  12.032   5.972 -0.7973  0.0381 -0.1323
  253MOL0     C34085  11.886  12.148   5.948  0.3716  0.7065  0.5550
  253MOL0     C34086  11.613  11.370   5.826  0.1449  0.0478 -0.2829
  253MOL0     C34087  11.559  11.244   5.801 -0.9848 -0.1315 -0.3568
  253MOL0     H34088  11.593  10.910   5.300 -4.8473 -0.4972 -2.7650
  253MOL0     H34089  11.555  10.712   5.210  0.6142  2.3540 -0.5007
  253MOL0     H34090  11.368  10.399   5.491 -0.3673 -0.3162  0.0446
  253MOL0     H34091  11.278  10.497   5.359 -0.2028 -0.6935 -1.5414
  253MOL0     H34092  11.239  10.260   5.297 -0.3462  1.7140 -2.4321
  253MOL0     H34093  11.368  10.333   5.197  1.9457  1.5055  0.1571
  253MOL0     H34094  11.540  10.246   5.372  0.1595 -1.1790  2.5067
  253MOL0     H34095  11.401  10.151   5.431 -1.5699  4.1077  0.7085
  253MOL0     H34096  11.494  10.120   5.150 -2.4029  0.3419  0.8030
  253MOL0     H34097  11.569  10.029   5.277  0.3985 -1.8684 -3.1970
  253MOL0     H34098  11.320   9.948   5.330 -0.1826 -2.0133 -1.3448
  253MOL0     H34099  11.270  10.044   5.194  0.4212 -0.6128 -0.4908
  253MOL0     H34100  11.416   9.916   5.043 -2.9835  1.3879  0.9886
  253MOL0     H34101  11.477   9.825   5.181  1.3630  2.7319  1.8293
  253MOL0     H34102  11.315   9.677   5.073 -1.3969 -1.2337  1.1039
  253MOL0     H34103  11.243   9.739   5.228  0.1588 -1.0379  1.0662
  253MOL0     H34104  11.185   9.861   4.950  2.2028  0.5709  0.2942
  253MOL0     H34105  11.120   9.912   5.109  1.2763  0.0626 -0.0583
  253MOL0     H34106  10.933   9.781   5.212  3.2937 -2.0476  1.4354
  253MOL0     H34107  10.655   9.693   5.147  0.4591  0.9141 -1.7645
  253MOL0     H34108  10.657   9.601   4.995  2.0325  0.9258 -1.1090
  253MOL0     H34109  10.809   9.492   5.219 -0.0540 -2.8295  0.3283
  253MOL0     H34110  10.726   9.409   5.094 -1.6832  0.7455 -0.0331
  253MOL0     H34111  10.575   9.346   5.284  0.1805 -1.7237 -1.4331
  253MOL0     H34112  10.499   9.462   5.174  0.8812 -2.9487 -0.7892
  253MOL0     H34113  10.478   9.497   5.437  0.0549  0.9242  0.4092
  253MOL0     H34114  10.508   9.639   5.331  0.3291  1.9385  3.3951
  253MOL0     H34115  10.463   9.722   5.550 -0.9878  1.2131  1.6073
  253MOL0     H34116  10.474  10.004   5.732  0.7562 -0.3676  1.1056
  253MOL0     H34117  10.377   9.882   5.659 -0.2584  2.2552 -3.0241
  253MOL0     H34118  10.421   9.871   5.837  1.0261 -1.1524 -1.9663
  253MOL0     H34119  10.474  10.190   5.931 -1.4018  2.2977  1.6283
  253MOL0     H34120  10.493  10.386   6.083 -1.2029  0.3799 -0.8318
  253MOL0     H34121  10.736  10.542   6.173  1.1426  1.5468  0.5681
  253MOL0     H34122  10.587  10.574   6.239 -0.2555 -0.8250  1.1232
  253MOL0     H34123  10.754  10.691   6.370  3.6994 -0.7687 -2.6487
  253MOL0     H34124  10.719  10.562   6.484  1.8153 -0.3081  1.7085
  253MOL0     H34125  10.943  10.590   6.292 -0.3350 -0.0796 -0.1459
  253MOL0     H34126  10.892  10.431   6.366 -2.4231 -0.0591 -1.5562
  253MOL0     H34127  10.955  10.682   6.528 -0.0947  0.3913  2.3262
  253MOL0     H34128  10.927  10.514   6.591 -2.3738 -0.0169 -0.6190
  253MOL0     H34129  11.157  10.591   6.395 -0.5589  1.9300 -1.1037
  253MOL0     H34130  11.131  10.433   6.466  2.1845  0.9305 -3.2357
  253MOL0     H34131  11.171  10.559   6.701  2.2925 -0.5949  1.5879
  253MOL0     H34132  11.307  10.529   6.592 -0.6802  0.6148  0.2711
  253MOL0     H34133  11.232  10.776   6.723  1.3908  1.8211 -0.7080
  253MOL0     H34134  11.131  10.776   6.577 -1.4047 -2.4657  1.2164
  253MOL0     H34135  11.327  10.788   6.439  0.3027 -3.0199  0.5673
  253MOL0     H34136  11.435  10.740   6.580 -0.6652 -0.2931  2.9594
  253MOL0     H34137  10.787  10.182   6.311 -0.6722  0.7473  1.1769
  253MOL0     H34138  10.775   9.988   6.154  0.3253 -0.6012 -3.0038
  253MOL0     H34139  10.913   9.769   5.756  0.9513 -1.2606 -1.2723
  253MOL0     H34140  10.883   9.641   5.551 -0.6708 -0.1438  0.4390
  253MOL0     H34141  11.514  10.521   5.590 -0.1222  0.7251  2.2196
  253MOL0     H34142  11.566  10.752   5.699 -1.1544  0.7330  0.6055
  253MOL0     H34143  11.746  11.173   5.527  0.9323  0.5147  1.0974
  253MOL0     H34144  11.840  11.414   5.591  1.4280 -1.3058  1.3660
  253MOL0     H34145  11.610  11.638   5.893  0.9093 -0.8855 -0.7024
  253MOL0     H34146  11.760  11.590   5.982  0.0815 -1.0304  0.0821
  253MOL0     H34147  11.738  11.812   6.008  0.1603 -0.0460  0.4293
  253MOL0     H34148  11.686  11.834   5.848 -5.4102 -0.7488  4.6037
  253MOL0     H34149  11.926  11.838   5.773  1.5070  1.9482  1.2977
  253MOL0     H34150  11.963  11.707   5.890  0.3563  0.9163  2.8365
  253MOL0     H34151  12.081  11.892   5.967  0.2043 -2.3950 -3.0758
  253MOL0     H34152  11.949  11.859   6.081 -1.4788 -0.6203 -0.5443
  253MOL0     H34153  11.854  12.247   5.923  5.5889  2.7061  0.4339
  253MOL0     H34154  11.587  11.427   5.915  3.2338  1.5282 -0.2079
  253MOL0     H34155  11.492  11.197   5.872  0.1557 -2.7313 -0.8895
  254MOL0     O34156   7.943   7.421   6.321 -0.6933  0.2812 -0.2854
  254MOL0     C34157   7.934   7.505   6.405  0.0224  0.2709  0.8328
  254MOL0     O34158   8.027   7.608   6.422 -0.1033  0.0701  0.0772
  254MOL0     C34159   8.152   7.616   6.359  0.5064 -0.8258  0.4696
  254MOL0     C34160   8.236   7.512   6.325 -0.4479  0.3089  0.2444
  254MOL0     C34161   8.355   7.531   6.254  0.2376 -0.1002 -1.2385
  254MOL0     C34162   8.399   7.655   6.224  0.1081  0.2434 -1.1750
  254MOL0     O34163   8.524   7.685   6.185  0.2227  0.1850  0.1288
  254MOL0     C34164   8.592   7.593   6.105  0.3493 -0.0499 -1.8117
  254MOL0     C34165   8.733   7.655   6.067  1.0940 -0.6451 -0.3131
  254MOL0     C34166   8.778   7.608   5.931  0.2313 -0.0163 -0.1331
  254MOL0     C34167   8.896   7.689   5.884 -0.8959 -0.0623 -0.1933
  254MOL0     C34168   9.028   7.632   5.947  0.0120  0.9486  0.4044
  254MOL0     C34169   9.136   7.747   5.955 -0.2313  0.6679 -0.6202
  254MOL0     C34170   9.195   7.786   5.827 -0.4515 -0.8648  0.8122
  254MOL0     C34171   9.154   7.929   5.784  0.0431  0.7443 -0.0897
  254MOL0     N34172   9.225   7.953   5.658  0.5238 -0.1630  0.4570
  254MOL0     C34173   9.200   7.881   5.539 -0.6584  0.3257  0.3261
  254MOL0     C34174   9.309   7.916   5.464 -0.1871 -0.1857 -0.1558
  254MOL0     C34175   9.350   7.848   5.333 -0.1571  0.0774  0.0815
  254MOL0     C34176   9.496   7.863   5.299 -0.2204  0.5262  0.9138
  254MOL0     C34177   9.587   7.766   5.376  0.4167 -1.1388 -0.3699
  254MOL0     C34178   9.737   7.772   5.338  0.5980 -0.9022  0.5102
  254MOL0     O34179   9.761   7.678   5.226 -0.0393 -0.0443  0.3527
  254MOL0     C34180   9.887   7.627   5.205 -0.1568 -0.9292  0.8239
  254MOL0     C34181   9.892   7.546   5.088  0.8316 -0.6532 -0.7823
  254MOL0     C34182  10.012   7.507   5.031  0.0666 -0.4822  0.5938
  254MOL0     C34183  10.006   7.407   4.922  0.1878  0.0043  0.9617
  254MOL0     C34184  10.130   7.552   5.093 -0.2715 -0.1203 -1.0360
  254MOL0     C34185  10.268   7.543   5.024  0.0614  0.4343  0.3113
  254MOL0     O34186  10.356   7.647   5.049  0.4171  0.2327 -0.6741
  254MOL0     C34187  10.477   7.650   4.981 -0.4676 -0.8278 -1.0977
  254MOL0     C34188  10.517   7.764   4.918 -0.7637  0.3695 -0.1580
  254MOL0     C34189  10.647   7.777   4.855  1.3684 -0.7102  0.2025
  254MOL0     C34190  10.734   7.666   4.839 -0.0737 -0.9834  0.1440
  254MOL0     O34191  10.839   7.671   4.744  0.8949  0.3117  0.0305
  254MOL0     C34192  10.965   7.672   4.810  0.1627  0.7793 -0.0491
  254MOL0     C34193  11.087   7.698   4.715  1.2366  0.1636  0.8664
  254MOL0     C34194  11.083   7.823   4.630  0.8398  0.6540 -0.2408
  254MOL0     C34195  11.174   7.803   4.503  0.2529  1.2816  0.1375
  254MOL0     C34196  11.214   7.939   4.442  0.3106 -0.0588  0.0856
  254MOL0     C34197  11.227   7.931   4.284  0.8833 -0.5681  0.3865
  254MOL0     C34198  11.281   8.074   4.239  0.0503  0.2497 -1.1835
  254MOL0     C34199  11.437   8.082   4.223 -0.7177  0.4657  0.1368
  254MOL0    Cl34200  11.471   8.249   4.178  0.2929 -0.2094 -0.2872
  254MOL0     C34201  10.692   7.545   4.897 -0.2208 -0.4988 -0.2112
  254MOL0     C34202  10.563   7.538   4.964  0.2388 -0.7880 -0.3256
  254MOL0     O34203  10.292   7.438   4.958 -0.8412  0.0851  0.1368
  254MOL0     C34204  10.122   7.638   5.213  1.5222  0.0487  0.5250
  254MOL0     C34205  10.000   7.679   5.267  0.0848 -0.4720  1.1744
  254MOL0     N34206   9.398   8.005   5.543  0.1349  1.1680 -0.6103
  254MOL0     N34207   9.345   8.025   5.653  0.2108 -0.6306  0.3543
  254MOL0     C34208   8.319   7.765   6.249  0.7355 -0.8594 -0.6060
  254MOL0     C34209   8.192   7.742   6.308 -0.6588  0.0667  0.0751
  254MOL0     C34210   7.818   7.508   6.495  0.0163 -0.4125  0.1403
  254MOL0     C34211   7.751   7.383   6.524 -0.6379 -1.0531 -0.3910
  254MOL0     C34212   7.641   7.384   6.608 -1.5867 -0.3801 -0.4269
  254MOL0     C34213   7.593   7.501   6.664 -0.3059 -0.5542 -0.4979
  254MOL0     O34214   7.475   7.498   6.739  0.0512  0.2437  0.3107
  254MOL0     C34215   7.354   7.531   6.668 -0.5596 -0.4063  1.2952
  254MOL0     C34216   7.243   7.428   6.711 -0.4325 -0.1516 -0.5020
  254MOL0     C34217   7.121   7.456   6.624  0.3847  0.4035  0.0255
  254MOL0     C34218   6.986   7.404   6.691  0.2457  0.3230  0.1130
  254MOL0     C34219   6.874   7.425   6.603  0.9254 -0.2733 -0.5276
  254MOL0     C34220   6.799   7.431   6.503  0.4405  0.0686  0.8205
  254MOL0     C34221   7.662   7.625   6.648  0.3233 -0.0397 -0.0284
  254MOL0     C34222   7.773   7.625   6.571 -1.3701  0.9307 -0.3708
  254MOL0     H34223   8.216   7.415   6.370  0.0083  0.2558  0.3388
  254MOL0     H34224   8.426   7.449   6.258  3.1333  1.9362 -4.5765
  254MOL0     H34225   8.624   7.495   6.141  0.2086  0.5860  0.1213
  254MOL0     H34226   8.533   7.587   6.013  0.9527  1.1114 -2.2971
  254MOL0     H34227   8.728   7.765   6.070 -1.0672 -0.7031  0.7599
  254MOL0     H34228   8.806   7.632   6.145 -0.0718  1.7815  1.6657
  254MOL0     H34229   8.798   7.501   5.925  1.6306  0.2868 -1.7471
  254MOL0     H34230   8.702   7.623   5.853 -1.6267 -3.4575  0.8044
  254MOL0     H34231   8.900   7.684   5.775 -0.4904 -1.0771 -0.1475
  254MOL0     H34232   8.882   7.791   5.920  0.6578 -0.0088  0.3163
  254MOL0     H34233   9.012   7.595   6.049 -3.3029 -2.8825 -1.2416
  254MOL0     H34234   9.065   7.543   5.896 -2.8470 -0.3267  0.3825
  254MOL0     H34235   9.086   7.834   5.999  0.0088  0.6327 -0.2757
  254MOL0     H34236   9.220   7.724   6.021 -0.4370 -0.9703 -0.8964
  254MOL0     H34237   9.303   7.797   5.842 -0.4262  1.5441 -0.5959
  254MOL0     H34238   9.162   7.721   5.745 -4.7200 -0.8199  2.2563
  254MOL0     H34239   9.190   7.997   5.862  1.4811  1.7669 -1.5956
  254MOL0     H34240   9.045   7.931   5.791  0.0867 -0.6143  2.9073
  254MOL0     H34241   9.116   7.816   5.513 -3.1140  3.7308 -0.9976
  254MOL0     H34242   9.317   7.744   5.340  1.9634 -0.5674  1.3960
  254MOL0     H34243   9.292   7.893   5.251 -0.1759  0.3809  0.2607
  254MOL0     H34244   9.522   7.968   5.312 -3.2717  1.0764  4.0645
  254MOL0     H34245   9.504   7.843   5.192  0.2767 -1.4256  1.2738
  254MOL0     H34246   9.550   7.663   5.364 -1.7083 -0.8335  2.4152
  254MOL0     H34247   9.586   7.796   5.481  0.7631  0.4193 -0.7978
  254MOL0     H34248   9.784   7.748   5.434 -4.0327 -0.9277  3.0589
  254MOL0     H34249   9.773   7.866   5.297 -0.2263 -0.9584 -0.3711
  254MOL0     H34250   9.798   7.519   5.042 -0.7619 -0.0279  1.8731
  254MOL0     H34251  10.043   7.451   4.829 -1.2460  1.7663  1.1512
  254MOL0     H34252  10.057   7.314   4.949  0.4896 -0.4751 -1.0821
  254MOL0     H34253   9.900   7.378   4.918 -0.0259  0.7002  1.4036
  254MOL0     H34254  10.444   7.844   4.916 -0.5430  0.6310  1.1052
  254MOL0     H34255  10.682   7.866   4.804 -2.0243 -0.5142 -2.1060
  254MOL0     H34256  10.969   7.747   4.889 -0.8794  0.2313  0.5380
  254MOL0     H34257  10.976   7.571   4.851  0.0396 -0.2622 -2.4143
  254MOL0     H34258  11.177   7.702   4.776  2.8684  0.6740 -1.4269
  254MOL0     H34259  11.082   7.615   4.644  1.9018  1.9341 -1.3614
  254MOL0     H34260  11.126   7.904   4.689  3.8836 -0.0625 -1.2911
  254MOL0     H34261  10.979   7.849   4.605  0.8428  0.8995 -0.0023
  254MOL0     H34262  11.271   7.763   4.533 -0.4758 -1.1437 -0.4394
  254MOL0     H34263  11.122   7.735   4.434  1.0599 -0.0235  0.7646
  254MOL0     H34264  11.307   7.971   4.489  2.1592 -2.4453 -1.6735
  254MOL0     H34265  11.133   8.012   4.443  1.9364  1.9211 -1.9006
  254MOL0     H34266  11.299   7.854   4.256  0.4429 -0.9175  0.2062
  254MOL0     H34267  11.133   7.906   4.234  2.7545 -0.9699 -3.1867
  254MOL0     H34268  11.244   8.148   4.311  0.5942  1.3202 -1.9820
  254MOL0     H34269  11.245   8.099   4.139 -0.9163  1.0588 -0.6459
  254MOL0     H34270  11.474   8.006   4.153 -2.2404  0.2363 -0.4394
  254MOL0     H34271  11.493   8.054   4.312 -0.1484 -1.0606 -0.6665
  254MOL0     H34272  10.749   7.454   4.882 -0.7469 -0.5523 -2.2281
  254MOL0     H34273  10.523   7.448   5.011 -2.1898  0.0190 -0.7109
  254MOL0     H34274  10.216   7.681   5.245  1.4644 -0.2012  1.0337
  254MOL0     H34275  10.013   7.756   5.342  2.0124 -0.0712  0.4909
  254MOL0     H34276   8.370   7.859   6.227  2.2579 -1.1817  1.3260
  254MOL0     H34277   8.127   7.829   6.310 -0.8923 -0.0027 -2.0408
  254MOL0     H34278   7.799   7.293   6.488  1.6226 -1.0153  2.1948
  254MOL0     H34279   7.590   7.289   6.622 -1.9366 -0.0627  0.4371
  254MOL0     H34280   7.328   7.636   6.686  1.2465  1.0316 -3.1363
  254MOL0     H34281   7.378   7.516   6.562  1.3353 -0.0035  1.6327
  254MOL0     H34282   7.225   7.443   6.818  0.6590  1.7628 -0.5463
  254MOL0     H34283   7.295   7.333   6.695 -0.6377 -0.1938 -0.9186
  254MOL0     H34284   7.125   7.427   6.519 -0.6757 -0.1959  0.1341
  254MOL0     H34285   7.106   7.564   6.637  0.2894  0.3553  0.3159
  254MOL0     H34286   6.967   7.463   6.782  2.3185 -4.5925  4.2209
  254MOL0     H34287   7.000   7.300   6.720  0.1745  0.1655 -0.4226
  254MOL0     H34288   6.740   7.431   6.414 -0.6036 -0.7250  1.4905
  254MOL0     H34289   7.613   7.712   6.691  0.9033  0.5630 -0.5786
  254MOL0     H34290   7.822   7.722   6.570 -0.2620  0.6191  4.1369
  255MOL0     O34291   1.889   7.108   0.221 -0.0255  0.2218  0.7060
  255MOL0     C34292   1.761   7.107   0.214 -0.2071  0.8189 -0.8571
  255MOL0     O34293   1.671   7.146   0.310 -0.5517 -0.5215 -0.2212
  255MOL0     C34294   1.710   7.201   0.433  0.1212  0.1317  0.5450
  255MOL0     C34295   1.815   7.158   0.513 -0.5838 -0.2097 -0.5722
  255MOL0     C34296   1.846   7.217   0.643 -0.2326  0.4319 -0.2629
  255MOL0     C34297   1.765   7.331   0.685 -0.9788  0.6095  0.1827
  255MOL0     O34298   1.748   7.385   0.808  0.6406  0.1885  0.6764
  255MOL0     C34299   1.855   7.353   0.903  0.5189 -0.1670  0.1510
  255MOL0     C34300   1.837   7.412   1.043 -0.0761 -0.0064  0.6101
  255MOL0     C34301   1.835   7.559   1.047  1.0559  0.4222 -0.0765
  255MOL0     C34302   1.975   7.621   1.033 -0.6370 -0.4530 -0.4896
  255MOL0     C34303   1.964   7.770   1.016 -0.0145  0.5575  0.0837
  255MOL0     C34304   1.852   7.846   1.084  0.8569  0.2637 -0.6913
  255MOL0     C34305   1.858   8.000   1.057  0.7089  0.4290 -0.3737
  255MOL0     C34306   1.980   8.066   1.116 -0.0688 -0.1049  0.4572
  255MOL0     N34307   2.037   8.162   1.024  0.8619  0.2184  0.2485
  255MOL0     C34308   2.154   8.150   0.963 -0.2105 -0.8415  1.0618
  255MOL0     C34309   2.139   8.233   0.853  0.4358 -0.6840  0.2664
  255MOL0     C34310   2.221   8.214   0.734 -0.2249 -1.3877  0.0709
  255MOL0     C34311   2.176   8.097   0.644  0.2038  0.1321  0.3484
  255MOL0     C34312   2.250   8.086   0.519 -1.2187  0.5586 -0.2329
  255MOL0     C34313   2.177   8.157   0.397 -0.0994  0.8076 -0.3846
  255MOL0     O34314   2.087   8.048   0.347 -0.7316 -0.5145 -0.0484
  255MOL0     C34315   2.026   8.069   0.229 -0.6760 -0.1934  0.4391
  255MOL0     C34316   1.957   7.958   0.172 -0.4302  0.0054 -0.0226
  255MOL0     C34317   1.887   7.983   0.051 -1.0858 -0.7658 -0.1923
  255MOL0     C34318   1.788   7.892  -0.008  1.1337  0.5504  0.0077
  255MOL0     C34319   1.890   8.112  -0.012 -0.6901  0.4386 -0.5974
  255MOL0     C34320   1.805   8.154  -0.129 -0.2020 -0.4232  0.8917
  255MOL0     O34321   1.756   8.288  -0.116 -0.2738  0.0124 -0.1162
  255MOL0     C34322   1.702   8.336  -0.229 -0.4544  0.9576 -0.6759
  255MOL0     C34323   1.755   8.434  -0.314 -0.3215 -0.9908  0.5106
  255MOL0     C34324   1.676   8.492  -0.418 -0.1518 -1.5097  0.1776
  255MOL0     C34325   1.543   8.449  -0.444  0.5016 -0.3679  0.2348
  255MOL0     O34326   1.482   8.505  -0.547 -0.1497 -0.6547  0.2134
  255MOL0     C34327   1.443   8.428  -0.658 -0.1546 -0.0729 -1.0615
  255MOL0     C34328   1.383   8.511  -0.773 -0.2974 -0.5246  0.3755
  255MOL0     C34329   1.305   8.426  -0.870  0.9548  0.6368 -0.3090
  255MOL0     C34330   1.392   8.384  -0.990 -0.5862 -1.1217  0.1903
  255MOL0     C34331   1.316   8.281  -1.077  0.1358 -0.2960  0.6095
  255MOL0     C34332   1.415   8.214  -1.174  0.8379 -0.7133 -0.2044
  255MOL0     C34333   1.367   8.169  -1.313 -0.1483 -0.1519  0.6584
  255MOL0     C34334   1.366   8.290  -1.410 -0.0374  0.3032 -0.5053
  255MOL0    Cl34335   1.529   8.354  -1.450 -0.0625 -0.5575 -0.3569
  255MOL0     C34336   1.495   8.338  -0.370 -0.4706  0.1508 -0.4521
  255MOL0     C34337   1.575   8.293  -0.260 -0.3358 -0.0521  0.2798
  255MOL0     O34338   1.803   8.082  -0.232 -0.1019 -0.2736 -0.7763
  255MOL0     C34339   1.978   8.204   0.043  0.6216 -0.1833  0.0220
  255MOL0     C34340   2.046   8.185   0.158  0.4855 -0.1132  0.8181
  255MOL0     N34341   2.017   8.296   0.858 -0.2393 -0.7360  0.2925
  255MOL0     N34342   1.956   8.255   0.965 -0.3032 -0.5258  0.0447
  255MOL0     C34343   1.661   7.372   0.600  0.2785 -0.1790 -0.7994
  255MOL0     C34344   1.638   7.309   0.475  0.3172  0.1100  0.2374
  255MOL0     C34345   1.696   7.055   0.092 -0.2474 -0.2950 -0.9931
  255MOL0     C34346   1.562   7.071   0.065  0.1621  0.1168 -0.3608
  255MOL0     C34347   1.496   6.999  -0.036 -0.5768  0.4634  0.0734
  255MOL0     C34348   1.573   6.920  -0.128 -0.0135 -0.7242 -0.9482
  255MOL0     O34349   1.538   6.857  -0.245 -0.1419 -0.5911  0.8758
  255MOL0     C34350   1.424   6.778  -0.233  0.2503 -0.2790 -0.3617
  255MOL0     C34351   1.451   6.629  -0.257 -0.2207 -0.1905  0.5981
  255MOL0     C34352   1.357   6.529  -0.184 -0.8087 -0.4695  0.2379
  255MOL0     C34353   1.341   6.390  -0.248  0.2655 -0.9569 -0.1366
  255MOL0     C34354   1.295   6.290  -0.146  0.3297 -0.8264  0.6428
  255MOL0     C34355   1.284   6.211  -0.057  0.6732  0.0088  0.4519
  255MOL0     C34356   1.714   6.917  -0.107  0.4067 -0.4013 -0.5528
  255MOL0     C34357   1.774   6.990  -0.003  0.9735  0.1480  1.0498
  255MOL0     H34358   1.871   7.075   0.471 -0.4393 -0.4908  0.1623
  255MOL0     H34359   1.920   7.184   0.715 -0.4627 -0.8062 -0.5715
  255MOL0     H34360   1.856   7.245   0.918 -0.2020 -0.5900 -2.3663
  255MOL0     H34361   1.957   7.382   0.878  0.1396  3.2912  1.9853
  255MOL0     H34362   1.739   7.379   1.076 -0.8186  1.5637  0.0938
  255MOL0     H34363   1.914   7.373   1.110 -0.2118 -0.7620  0.3304
  255MOL0     H34364   1.760   7.586   0.972 -0.1056  1.4575  1.3953
  255MOL0     H34365   1.797   7.594   1.144 -0.1619 -1.0793  0.0311
  255MOL0     H34366   2.027   7.594   1.125 -0.3878  0.0808 -0.4725
  255MOL0     H34367   2.035   7.590   0.947  1.6338  4.6801 -1.1086
  255MOL0     H34368   2.065   7.806   1.039  1.1468 -2.5834  0.4173
  255MOL0     H34369   1.938   7.784   0.910 -0.5244 -4.1829 -0.6477
  255MOL0     H34370   1.757   7.807   1.045  3.0762 -1.3654 -5.1804
  255MOL0     H34371   1.867   7.833   1.191  2.7096  0.3020 -0.9201
  255MOL0     H34372   1.860   7.998   0.947  2.2851 -2.6208 -0.3925
  255MOL0     H34373   1.769   8.057   1.087  0.5497  0.2779 -0.5549
  255MOL0     H34374   2.046   7.989   1.157  0.5457 -0.2932 -0.8590
  255MOL0     H34375   1.939   8.124   1.200  2.3836  1.8117  0.4581
  255MOL0     H34376   2.227   8.070   0.971 -0.9761 -1.8121 -0.9094
  255MOL0     H34377   2.212   8.306   0.676  0.7082 -1.0241  0.4907
  255MOL0     H34378   2.325   8.206   0.767 -0.0152 -0.9638 -0.4701
  255MOL0     H34379   2.070   8.122   0.639  0.7021  2.4261  0.0772
  255MOL0     H34380   2.198   8.002   0.694  0.0453 -0.0618  0.0505
  255MOL0     H34381   2.268   7.980   0.500  0.8375  0.9497 -0.7752
  255MOL0     H34382   2.346   8.139   0.525 -0.2133 -1.1518 -0.6032
  255MOL0     H34383   2.253   8.185   0.324 -0.0189  2.9465  0.4206
  255MOL0     H34384   2.123   8.246   0.430 -2.3670 -0.2743 -1.0275
  255MOL0     H34385   1.950   7.868   0.232 -0.6522 -0.2185 -0.3776
  255MOL0     H34386   1.771   7.798   0.044  1.8581  0.8427  0.8027
  255MOL0     H34387   1.694   7.948  -0.012  0.3223 -0.3351  3.6674
  255MOL0     H34388   1.825   7.873  -0.109  3.1855  2.4682  0.3254
  255MOL0     H34389   1.857   8.468  -0.301  0.4651 -3.6505  1.9711
  255MOL0     H34390   1.717   8.573  -0.478  1.0512 -1.0375  1.5753
  255MOL0     H34391   1.523   8.366  -0.699 -0.1457 -0.4511 -0.4845
  255MOL0     H34392   1.368   8.359  -0.618  2.1256 -1.9594  0.2143
  255MOL0     H34393   1.309   8.571  -0.719 -3.5006 -3.2009 -0.6681
  255MOL0     H34394   1.453   8.573  -0.830 -0.8288 -2.8747 -3.1208
  255MOL0     H34395   1.215   8.482  -0.896  2.0843  2.8307  0.2687
  255MOL0     H34396   1.285   8.333  -0.816 -0.6087  1.8247  1.2706
  255MOL0     H34397   1.422   8.474  -1.045  0.6013 -1.6439 -0.0422
  255MOL0     H34398   1.483   8.336  -0.953  0.2798 -0.3594 -0.8922
  255MOL0     H34399   1.233   8.334  -1.125 -0.9819  0.5566  3.2905
  255MOL0     H34400   1.271   8.192  -1.030 -0.1777 -0.2774  0.3516
  255MOL0     H34401   1.496   8.285  -1.197  0.2649 -0.5044 -1.6819
  255MOL0     H34402   1.462   8.137  -1.112  4.6464  0.8752 -0.7949
  255MOL0     H34403   1.265   8.132  -1.305 -0.6991  0.5870 -1.9185
  255MOL0     H34404   1.423   8.084  -1.351 -2.6480 -1.4085 -0.3870
  255MOL0     H34405   1.301   8.373  -1.380  1.1295 -0.4137  5.4297
  255MOL0     H34406   1.336   8.256  -1.509  0.6377 -0.2378 -0.5371
  255MOL0     H34407   1.392   8.305  -0.382 -0.4078 -1.2230  2.2059
  255MOL0     H34408   1.543   8.209  -0.199  1.1353  0.7007  2.2129
  255MOL0     H34409   1.989   8.299  -0.009 -2.5937 -1.0611 -2.6235
  255MOL0     H34410   2.105   8.266   0.200  3.8438 -1.7163 -0.4733
  255MOL0     H34411   1.600   7.455   0.636  1.6608  0.9707 -1.0336
  255MOL0     H34412   1.551   7.339   0.417  0.1435  0.9841  0.9397
  255MOL0     H34413   1.501   7.142   0.121  1.1025  1.1556 -0.6426
  255MOL0     H34414   1.388   6.999  -0.049 -0.4388  0.4423 -1.2226
  255MOL0     H34415   1.377   6.784  -0.135 -0.5065 -0.6443 -0.6989
  255MOL0     H34416   1.354   6.822  -0.304  2.2418 -0.2661 -2.4415
  255MOL0     H34417   1.555   6.609  -0.231  0.5164 -0.3910 -2.2199
  255MOL0     H34418   1.455   6.609  -0.364  1.3244 -0.2333  0.6477
  255MOL0     H34419   1.263   6.582  -0.169 -1.9664 -2.3693  0.0957
  255MOL0     H34420   1.405   6.521  -0.086  1.0012  0.6934 -0.5159
  255MOL0     H34421   1.434   6.366  -0.301  0.6239 -1.6025  0.7645
  255MOL0     H34422   1.273   6.387  -0.333 -2.1093  1.5589  1.5386
  255MOL0     H34423   1.291   6.140   0.024  2.0194 -0.4453 -0.0339
  255MOL0     H34424   1.766   6.871  -0.189  1.1490  2.4828 -1.8197
  255MOL0     H34425   1.883   6.997   0.001  0.9263  0.2354  3.4382
  256MOL0     O34426   6.022   1.133   7.971 -0.9832  0.2563  0.8833
  256MOL0     C34427   5.902   1.128   7.977  0.2100 -0.4678 -0.1983
  256MOL0     O34428   5.819   1.209   7.914  0.7792  0.0594  1.1718
  256MOL0     C34429   5.865   1.303   7.820 -0.0068  0.0719  0.3705
  256MOL0     C34430   5.913   1.433   7.861  0.8375  0.3235  0.8994
  256MOL0     C34431   5.982   1.519   7.773 -1.4536  1.0915  0.0336
  256MOL0     C34432   5.984   1.470   7.641 -0.9448  0.8031 -0.3890
  256MOL0     O34433   6.051   1.551   7.547  0.5476  0.6821  0.0352
  256MOL0     C34434   6.195   1.545   7.564  0.0021  0.3447  1.0281
  256MOL0     C34435   6.250   1.585   7.428 -0.7039 -0.0694  0.0227
  256MOL0     C34436   6.408   1.565   7.404  0.8033  0.6773  0.2869
  256MOL0     C34437   6.482   1.678   7.477 -0.3671  0.9619 -0.1868
  256MOL0     C34438   6.630   1.630   7.518 -0.1532  0.0563  0.4385
  256MOL0     C34439   6.726   1.730   7.568 -0.0467 -0.3942  0.9112
  256MOL0     C34440   6.735   1.853   7.467  0.8388  0.4129  0.3049
  256MOL0     C34441   6.828   1.961   7.499  0.4641 -0.4570 -1.2706
  256MOL0     N34442   6.967   1.935   7.473  0.5242  0.0828  0.6319
  256MOL0     C34443   7.009   1.899   7.343 -0.3679 -0.1072 -1.1319
  256MOL0     C34444   7.099   1.808   7.356 -0.4233 -0.0838  0.4895
  256MOL0     C34445   7.154   1.765   7.221 -0.3099  0.0651 -0.0990
  256MOL0     C34446   7.071   1.640   7.166  0.3773 -0.2269  0.4495
  256MOL0     C34447   7.105   1.509   7.241 -0.3723 -0.4939  0.9184
  256MOL0     C34448   7.006   1.398   7.209  0.9330 -0.7596 -0.4013
  256MOL0     O34449   6.879   1.410   7.279 -0.8197 -0.5306  0.4118
  256MOL0     C34450   6.881   1.339   7.398 -0.2230 -0.2874 -0.6470
  256MOL0     C34451   6.922   1.403   7.510 -0.4266 -0.3389 -0.1213
  256MOL0     C34452   6.934   1.338   7.637  0.1908  0.7716  0.3527
  256MOL0     C34453   6.954   1.420   7.767  0.1484 -0.0189  0.3768
  256MOL0     C34454   6.895   1.198   7.631  0.7690 -0.2726 -0.7917
  256MOL0     C34455   6.887   1.130   7.763 -0.1944 -0.5411  0.2289
  256MOL0     O34456   6.794   1.042   7.788  0.7070  0.3944  0.5794
  256MOL0     C34457   6.776   1.009   7.920 -0.1872 -0.2428  0.0705
  256MOL0     C34458   6.651   1.049   7.959 -0.3952 -0.8264  0.7260
  256MOL0     C34459   6.618   1.030   8.090  0.1054  0.3143 -0.3861
  256MOL0     C34460   6.711   0.965   8.177 -0.1834  0.2180 -0.0061
  256MOL0     O34461   6.695   0.937   8.314 -0.9451  0.3716 -0.2338
  256MOL0     C34462   6.684   1.059   8.396  1.0435 -0.4012  0.2031
  256MOL0     C34463   6.816   1.141   8.398  0.4841 -0.3613  0.2799
  256MOL0     C34464   6.937   1.063   8.421  0.1671  0.3391 -0.5246
  256MOL0     C34465   7.075   1.128   8.473 -0.2206  0.8466  0.5131
  256MOL0     C34466   7.194   1.024   8.471  0.5906  0.1191  0.1145
  256MOL0     C34467   7.263   1.023   8.336  0.1506  0.0567  0.0402
  256MOL0     C34468   7.405   0.959   8.314 -0.1176  0.0780 -0.2603
  256MOL0     C34469   7.518   1.043   8.358  0.5880 -0.0168  0.0647
  256MOL0    Cl34470   7.677   0.985   8.298 -0.5109 -0.9560  0.4195
  256MOL0     C34471   6.836   0.921   8.124 -0.3139 -0.3127 -0.5218
  256MOL0     C34472   6.871   0.946   7.994 -0.4418 -0.1932  0.0127
  256MOL0     O34473   6.985   1.147   7.829 -0.0947  1.4454  0.4869
  256MOL0     C34474   6.854   1.123   7.520 -0.1755 -0.4342  0.0865
  256MOL0     C34475   6.847   1.199   7.397 -0.2836 -0.5090 -0.0186
  256MOL0     N34476   7.128   1.795   7.489  0.6774 -0.3029  0.8197
  256MOL0     N34477   7.049   1.872   7.560 -0.8478 -0.0786 -1.4043
  256MOL0     C34478   5.913   1.360   7.591 -0.4540  0.4961 -0.2716
  256MOL0     C34479   5.861   1.270   7.681  1.1464 -0.2206  0.3139
  256MOL0     C34480   5.849   1.024   8.063  0.0006 -0.1753 -1.0842
  256MOL0     C34481   5.750   0.953   7.996 -0.4782  0.5113 -0.1652
  256MOL0     C34482   5.687   0.833   8.039 -0.7304  0.0923  0.0681
  256MOL0     C34483   5.728   0.776   8.162 -1.6696 -0.4510 -1.0600
  256MOL0     O34484   5.690   0.651   8.216  0.5228 -0.1151 -0.6025
  256MOL0     C34485   5.604   0.564   8.136 -1.0463 -0.5873 -1.1542
  256MOL0     C34486   5.462   0.617   8.128  0.9217 -0.7204 -0.0691
  256MOL0     C34487   5.360   0.525   8.066  0.2094  0.3532 -0.5870
  256MOL0     C34488   5.212   0.566   8.075 -0.6020 -0.8877 -0.2025
  256MOL0     C34489   5.192   0.691   8.000  0.2697 -0.0887 -0.4365
  256MOL0     C34490   5.155   0.784   7.931 -0.0681 -0.6797  0.2855
  256MOL0     C34491   5.837   0.849   8.228  0.2041 -0.8958  0.3954
  256MOL0     C34492   5.899   0.974   8.189 -0.0281  0.5984  0.3916
  256MOL0     H34493   5.903   1.468   7.964  0.4354 -0.9851  1.3332
  256MOL0     H34494   6.013   1.619   7.798 -0.2735  1.4273 -2.4949
  256MOL0     H34495   6.214   1.607   7.652  0.5092  1.1389  0.3767
  256MOL0     H34496   6.236   1.445   7.583 -2.7797 -1.4426 -1.4878
  256MOL0     H34497   6.191   1.521   7.362 -0.7202  1.8579 -1.9420
  256MOL0     H34498   6.220   1.690   7.418 -0.3759  0.4731  3.4916
  256MOL0     H34499   6.431   1.475   7.461 -0.1885  0.9784  1.1899
  256MOL0     H34500   6.429   1.559   7.297 -0.3399  2.2471 -0.0633
  256MOL0     H34501   6.489   1.767   7.414  2.8058  1.3538  0.5616
  256MOL0     H34502   6.421   1.706   7.563  1.2521 -3.2846  2.7020
  256MOL0     H34503   6.610   1.548   7.587  1.2304 -1.0456 -0.4109
  256MOL0     H34504   6.680   1.603   7.425  2.3221  2.7632  0.8416
  256MOL0     H34505   6.693   1.755   7.669 -1.7928 -3.9651  1.3666
  256MOL0     H34506   6.825   1.683   7.566  1.4386  2.3983 -2.0118
  256MOL0     H34507   6.735   1.817   7.364 -3.2841  1.6341 -0.2773
  256MOL0     H34508   6.637   1.901   7.466 -0.7114 -2.5608  0.9905
  256MOL0     H34509   6.838   1.958   7.608  1.1196 -0.3569 -1.3208
  256MOL0     H34510   6.808   2.058   7.454  0.9919 -0.2650 -1.1062
  256MOL0     H34511   6.964   1.918   7.246 -0.4053 -1.7116 -1.4437
  256MOL0     H34512   7.154   1.845   7.146  1.2080  1.3261  1.1716
  256MOL0     H34513   7.258   1.739   7.245  0.7992  1.7422 -2.6939
  256MOL0     H34514   7.088   1.631   7.058 -1.7514 -0.9512  0.1079
  256MOL0     H34515   6.963   1.660   7.168  1.0430  4.8318 -0.5146
  256MOL0     H34516   7.125   1.534   7.346  3.3401  4.0843 -0.5116
  256MOL0     H34517   7.201   1.479   7.198  0.1777  0.1338  1.6514
  256MOL0     H34518   7.054   1.300   7.212  3.4797  0.4272  0.4514
  256MOL0     H34519   6.988   1.421   7.104  1.1971  2.8213  0.2093
  256MOL0     H34520   6.948   1.507   7.496  0.0889 -0.8294 -3.7117
  256MOL0     H34521   6.908   1.519   7.758 -0.0899 -0.1529  0.0943
  256MOL0     H34522   6.897   1.371   7.846 -2.6683  0.4268 -1.2550
  256MOL0     H34523   7.062   1.425   7.786 -0.0797  1.6864  1.3764
  256MOL0     H34524   6.589   1.086   7.879  2.2285  0.3946 -0.8731
  256MOL0     H34525   6.524   1.059   8.138  0.1107 -2.7850  1.8154
  256MOL0     H34526   6.599   1.121   8.367  0.4737 -1.5152 -0.5828
  256MOL0     H34527   6.653   1.032   8.498 -0.3039 -1.5574 -0.4756
  256MOL0     H34528   6.814   1.195   8.303 -1.5347 -4.8639 -2.5843
  256MOL0     H34529   6.810   1.213   8.481  1.5613 -0.9357  0.8832
  256MOL0     H34530   6.966   1.023   8.324  0.9248  0.1012 -0.2051
  256MOL0     H34531   6.911   0.977   8.483  1.6662 -0.4476 -0.9500
  256MOL0     H34532   7.097   1.218   8.416 -2.4401 -0.6853 -3.0556
  256MOL0     H34533   7.056   1.156   8.577  2.3265  0.0015  1.2745
  256MOL0     H34534   7.143   0.935   8.510  1.6700 -0.5063  0.1315
  256MOL0     H34535   7.270   1.053   8.543  0.5790  0.4778 -0.0145
  256MOL0     H34536   7.207   0.967   8.260  1.2379  0.7166 -1.3045
  256MOL0     H34537   7.259   1.127   8.302 -0.7068  0.5419  1.5186
  256MOL0     H34538   7.422   0.945   8.207 -0.7720  1.1506 -0.5161
  256MOL0     H34539   7.400   0.859   8.358 -0.2491 -1.1150 -2.8072
  256MOL0     H34540   7.524   1.062   8.466  0.9139 -2.5129  0.5593
  256MOL0     H34541   7.489   1.137   8.311 -0.6997 -2.4937 -4.7516
  256MOL0     H34542   6.912   0.869   8.181 -0.2494 -0.5996 -0.8681
  256MOL0     H34543   6.968   0.926   7.951 -0.8400 -1.1156 -0.4782
  256MOL0     H34544   6.836   1.016   7.520  1.1694 -0.6835 -0.4616
  256MOL0     H34545   6.816   1.152   7.304  1.3686  2.4636 -2.2522
  256MOL0     H34546   5.913   1.342   7.484 -1.0925  0.6510 -0.2984
  256MOL0     H34547   5.818   1.183   7.633  0.5829 -0.0986  0.5898
  256MOL0     H34548   5.718   1.000   7.903 -1.6022 -1.3862 -0.7980
  256MOL0     H34549   5.617   0.789   7.969  0.1323  1.1393 -1.5020
  256MOL0     H34550   5.662   0.550   8.044  0.3432 -0.8308 -0.2801
  256MOL0     H34551   5.604   0.475   8.200 -1.9193  0.6060  0.5890
  256MOL0     H34552   5.466   0.711   8.072  0.7056 -0.5231  0.2440
  256MOL0     H34553   5.421   0.637   8.227 -1.3141  1.6929 -1.3496
  256MOL0     H34554   5.377   0.426   8.109 -0.6835  0.6081  0.3961
  256MOL0     H34555   5.383   0.514   7.959  2.4411  2.9154 -0.4714
  256MOL0     H34556   5.183   0.582   8.180  1.3685 -1.3929  0.4595
  256MOL0     H34557   5.149   0.491   8.027 -1.5156 -0.2359 -0.0419
  256MOL0     H34558   5.100   0.863   7.883  0.4306  1.0451  2.3803
  256MOL0     H34559   5.867   0.808   8.324  0.2119  2.8508  2.1512
  256MOL0     H34560   5.973   1.024   8.251  1.9209 -0.0082 -1.3252
  257MOL0     O34561  10.185   5.750   7.262 -0.7042 -0.4572 -0.3402
  257MOL0     C34562  10.181   5.725   7.388  0.3807 -0.4505  0.3453
  257MOL0     O34563  10.236   5.618   7.446  0.0470  0.6005 -0.2977
  257MOL0     C34564  10.309   5.539   7.351  0.0136 -0.2604 -0.5260
  257MOL0     C34565  10.436   5.585   7.314  0.3540 -0.8013  0.6565
  257MOL0     C34566  10.523   5.514   7.230  0.0538 -0.0940  0.7858
  257MOL0     C34567  10.484   5.391   7.179 -0.3805  1.0181  0.3008
  257MOL0     O34568  10.566   5.330   7.079  0.0562 -0.3378 -0.1458
  257MOL0     C34569  10.626   5.196   7.105  0.5394 -0.0458 -0.5965
  257MOL0     C34570  10.734   5.192   7.206 -0.8048 -0.1657 -0.0852
  257MOL0     C34571  10.845   5.295   7.172 -0.7897 -0.0712  0.2867
  257MOL0     C34572  10.963   5.259   7.270 -0.2960 -0.8373 -0.6230
  257MOL0     C34573  11.061   5.381   7.276 -0.1098  0.0489  0.4812
  257MOL0     C34574  11.172   5.357   7.379  0.1549 -0.5274  0.4770
  257MOL0     C34575  11.280   5.261   7.321  0.5907 -0.6343  0.0851
  257MOL0     C34576  11.420   5.313   7.363  0.4897  0.0376 -0.1320
  257MOL0     N34577  11.473   5.272   7.495  0.7658  0.2364 -0.5623
  257MOL0     C34578  11.468   5.145   7.545 -0.4036  0.2074  0.3772
  257MOL0     C34579  11.521   5.160   7.667  0.6373  0.8652 -0.1677
  257MOL0     C34580  11.547   5.038   7.758  0.5614 -0.6118  1.2597
  257MOL0     C34581  11.464   5.071   7.885  0.7424 -0.5332  0.0245
  257MOL0     C34582  11.422   4.944   7.965  0.0897  0.5092 -0.6767
  257MOL0     C34583  11.404   4.961   8.118 -0.1975  0.5510  0.3209
  257MOL0     O34584  11.280   5.010   8.160 -0.3489 -0.4049  0.2303
  257MOL0     C34585  11.226   4.982   8.280 -0.4004 -0.6236 -0.2610
  257MOL0     C34586  11.130   5.080   8.324  0.0423 -0.7404  0.5173
  257MOL0     C34587  11.066   5.064   8.446  0.5512 -0.0643 -0.1482
  257MOL0     C34588  10.967   5.179   8.471  0.4062 -0.7173  0.2132
  257MOL0     C34589  11.091   4.952   8.527  0.7993 -0.2365 -0.1896
  257MOL0     C34590  11.015   4.926   8.658  0.4658 -0.1398 -0.4946
  257MOL0     O34591  11.094   4.875   8.757 -0.0112  0.0792  0.4417
  257MOL0     C34592  11.045   4.841   8.884  0.0826  0.9907 -0.1686
  257MOL0     C34593  10.914   4.865   8.937  0.3195 -0.9457  0.4976
  257MOL0     C34594  10.891   4.813   9.062  0.7601  0.1190  0.8085
  257MOL0     C34595  10.986   4.733   9.135  0.6332 -1.3406  0.3120
  257MOL0     O34596  10.964   4.678   9.259  0.1248  0.3467 -0.0943
  257MOL0     C34597  10.848   4.711   9.337 -0.1954 -0.6345 -1.0396
  257MOL0     C34598  10.841   4.644   9.483 -0.1859 -0.5053 -0.0755
  257MOL0     C34599  10.962   4.686   9.564 -0.6949  0.6811  0.1658
  257MOL0     C34600  11.052   4.561   9.555 -0.3608 -0.1779  0.0426
  257MOL0     C34601  11.178   4.572   9.636 -0.3563 -0.4151  0.8626
  257MOL0     C34602  11.264   4.447   9.615 -0.9844  0.0173  0.0407
  257MOL0     C34603  11.381   4.450   9.710 -0.6423  0.2057 -0.0498
  257MOL0     C34604  11.502   4.382   9.654 -0.3015  0.1134 -0.2559
  257MOL0    Cl34605  11.588   4.494   9.535 -0.0037  0.0350  0.7070
  257MOL0     C34606  11.112   4.714   9.080  0.0202 -0.3750  0.7498
  257MOL0     C34607  11.136   4.771   8.958  0.3009  0.7841 -0.2826
  257MOL0     O34608  10.896   4.958   8.668  0.4038 -0.0006  0.9528
  257MOL0     C34609  11.185   4.853   8.479  0.6694 -0.3239 -0.0661
  257MOL0     C34610  11.253   4.872   8.361  0.0860 -0.2787 -1.0141
  257MOL0     N34611  11.551   5.294   7.692  0.5129  0.5171  0.6182
  257MOL0     N34612  11.506   5.364   7.593  0.8332  0.6925 -0.5922
  257MOL0     C34613  10.354   5.338   7.220  0.1466  0.3132 -0.3931
  257MOL0     C34614  10.267   5.423   7.293  0.6167 -0.3433 -0.6605
  257MOL0     C34615  10.083   5.799   7.459 -0.1961 -0.4276 -0.2460
  257MOL0     C34616   9.982   5.887   7.392 -0.9510 -0.0637  0.3350
  257MOL0     C34617   9.896   5.973   7.471 -0.1282  0.3708  1.1212
  257MOL0     C34618   9.920   5.989   7.606  0.0937  0.7185 -0.1814
  257MOL0     O34619   9.840   6.074   7.681 -0.6605  0.1438 -0.1811
  257MOL0     C34620   9.834   6.067   7.824  0.9865 -0.2002 -0.3457
  257MOL0     C34621   9.796   6.205   7.881  0.2544 -0.9533 -0.0828
  257MOL0     C34622   9.694   6.207   7.989  0.0924 -0.5417  0.4004
  257MOL0     C34623   9.643   6.355   8.020 -0.3845  0.3713  1.4123
  257MOL0     C34624   9.589   6.427   7.903  1.5658  0.6502  0.1783
  257MOL0     C34625   9.544   6.472   7.802  0.4941 -0.8196 -0.5582
  257MOL0     C34626  10.008   5.895   7.666  0.0109 -0.4795 -0.4225
  257MOL0     C34627  10.089   5.808   7.601 -0.4295  0.7659 -0.0943
  257MOL0     H34628  10.472   5.679   7.356 -1.7024  0.2943  0.0897
  257MOL0     H34629  10.617   5.540   7.183 -0.9497 -2.3645 -2.9542
  257MOL0     H34630  10.538   5.135   7.129  2.0151 -1.0258  3.0132
  257MOL0     H34631  10.667   5.146   7.018 -2.7449 -0.3965 -2.0816
  257MOL0     H34632  10.688   5.221   7.301 -0.0622 -1.8514  0.8247
  257MOL0     H34633  10.766   5.089   7.224 -0.4724  0.1373  1.1962
  257MOL0     H34634  10.878   5.263   7.073 -1.4462  0.8833 -0.2605
  257MOL0     H34635  10.817   5.400   7.163  2.5364  0.7426 -2.0727
  257MOL0     H34636  10.935   5.240   7.374  0.0279 -0.5540 -0.4819
  257MOL0     H34637  11.013   5.165   7.244 -0.1168 -1.1395  0.7011
  257MOL0     H34638  11.106   5.398   7.178 -1.3010 -1.4602 -0.3863
  257MOL0     H34639  11.010   5.474   7.303  2.0664  1.1416  0.9803
  257MOL0     H34640  11.207   5.458   7.402  2.6443 -1.8510  3.3614
  257MOL0     H34641  11.144   5.319   7.479  6.2535 -2.8168  1.7398
  257MOL0     H34642  11.250   5.157   7.339 -1.7675  0.1234  0.8995
  257MOL0     H34643  11.265   5.274   7.213 -1.0071 -2.6038  0.0055
  257MOL0     H34644  11.419   5.422   7.362 -0.7558  0.0600  0.6997
  257MOL0     H34645  11.491   5.285   7.285  0.0004  2.5220 -1.5618
  257MOL0     H34646  11.433   5.052   7.500  1.4759  0.6563 -2.2325
  257MOL0     H34647  11.517   4.946   7.707 -0.1146  1.1708 -1.8014
  257MOL0     H34648  11.654   5.030   7.781  1.2849 -1.2053 -1.7987
  257MOL0     H34649  11.363   5.105   7.865  0.3256 -1.8718 -0.2348
  257MOL0     H34650  11.514   5.153   7.938 -1.7105  0.9248  0.2373
  257MOL0     H34651  11.509   4.878   7.955  0.8423  1.0766  1.4718
  257MOL0     H34652  11.331   4.896   7.929 -0.5273  1.3165 -0.2131
  257MOL0     H34653  11.480   5.028   8.160  0.2922 -1.4582  2.9357
  257MOL0     H34654  11.432   4.870   8.172 -1.8142  0.7907  1.6458
  257MOL0     H34655  11.114   5.170   8.265 -0.2185  1.0730  3.1796
  257MOL0     H34656  10.986   5.262   8.402  1.5066 -2.7531 -2.0899
  257MOL0     H34657  10.872   5.126   8.460  0.5590 -0.5641 -2.8771
  257MOL0     H34658  10.980   5.224   8.570  0.7469 -1.2499  0.4199
  257MOL0     H34659  10.840   4.929   8.891  2.0951  2.1358  1.5973
  257MOL0     H34660  10.802   4.844   9.116  1.9046  1.2807  2.1300
  257MOL0     H34661  10.841   4.819   9.354  0.5338 -0.5095 -1.5081
  257MOL0     H34662  10.758   4.683   9.280 -1.5496 -2.6143  1.8329
  257MOL0     H34663  10.746   4.669   9.530 -0.3713 -0.2353 -0.5789
  257MOL0     H34664  10.834   4.536   9.467 -2.7927 -0.2306 -1.2178
  257MOL0     H34665  10.939   4.717   9.666  1.7228  2.2403  0.2998
  257MOL0     H34666  11.018   4.766   9.514  1.4498 -1.1043 -0.4572
  257MOL0     H34667  10.991   4.484   9.603 -1.4569 -0.0593 -1.0903
  257MOL0     H34668  11.072   4.530   9.452 -1.3960 -2.4681  0.4605
  257MOL0     H34669  11.161   4.604   9.739  4.1659  2.0644  1.0841
  257MOL0     H34670  11.235   4.660   9.605  0.8938 -1.9603 -1.5002
  257MOL0     H34671  11.195   4.365   9.635 -1.0793 -0.3420 -1.5970
  257MOL0     H34672  11.303   4.448   9.512  3.1185  4.2578  1.2728
  257MOL0     H34673  11.344   4.415   9.807 -4.0835 -0.2894 -1.4076
  257MOL0     H34674  11.415   4.553   9.722  1.7505 -0.5154 -0.1817
  257MOL0     H34675  11.476   4.284   9.613 -0.1094  0.0078 -0.1309
  257MOL0     H34676  11.582   4.358   9.725 -0.7327 -2.1439 -0.4640
  257MOL0     H34677  11.198   4.663   9.123  2.0993  2.0933 -0.2570
  257MOL0     H34678  11.236   4.746   8.926  0.3282  0.3774  0.1246
  257MOL0     H34679  11.204   4.761   8.532  1.6736  0.2778  0.6505
  257MOL0     H34680  11.310   4.786   8.329 -2.7059 -3.7489  2.3322
  257MOL0     H34681  10.315   5.247   7.176 -4.3660  0.6885  2.1516
  257MOL0     H34682  10.167   5.391   7.322  0.0114  2.1850  0.2998
  257MOL0     H34683   9.970   5.893   7.284 -0.0842  0.0968  0.2393
  257MOL0     H34684   9.843   6.061   7.437  2.6178  3.0344  3.1604
  257MOL0     H34685   9.766   5.988   7.855  1.4698 -1.2043 -1.7168
  257MOL0     H34686   9.931   6.040   7.868  1.0459  1.9463  1.0026
  257MOL0     H34687   9.764   6.273   7.802 -3.7181  1.0994  2.9610
  257MOL0     H34688   9.890   6.253   7.913 -0.9043  1.8198 -0.5915
  257MOL0     H34689   9.738   6.166   8.080  2.3211  1.9123  0.5546
  257MOL0     H34690   9.620   6.131   7.964  0.4579 -1.0218  0.7739
  257MOL0     H34691   9.726   6.415   8.057 -0.7426  0.8069  1.5144
  257MOL0     H34692   9.568   6.357   8.100 -0.7785 -1.0315  1.1090
  257MOL0     H34693   9.502   6.515   7.713 -2.1376  0.7343  1.2886
  257MOL0     H34694  10.027   5.893   7.773 -1.4973 -5.2459 -0.0277
  257MOL0     H34695  10.172   5.758   7.650 -1.0583  0.8589  1.0960
  258MOL0     O34696   2.991   4.072   4.147 -0.6268  0.1955 -0.4265
  258MOL0     C34697   3.065   4.159   4.182 -0.4883  0.8581 -0.7781
  258MOL0     O34698   3.073   4.282   4.143  1.4124  0.1651  0.6705
  258MOL0     C34699   3.003   4.329   4.033  0.1481  0.7630 -0.5639
  258MOL0     C34700   2.908   4.256   3.953  0.0779 -0.0517 -0.3452
  258MOL0     C34701   2.859   4.307   3.836  0.5299 -0.2431 -0.3575
  258MOL0     C34702   2.881   4.445   3.803  0.6090 -0.4016  0.9420
  258MOL0     O34703   2.819   4.516   3.696  1.1440  0.1784  0.8725
  258MOL0     C34704   2.737   4.445   3.596 -0.0329  0.2625 -0.5018
  258MOL0     C34705   2.600   4.516   3.588 -0.4973  0.2188  0.0638
  258MOL0     C34706   2.504   4.441   3.485 -1.2988 -0.8446 -0.1186
  258MOL0     C34707   2.368   4.511   3.471 -0.1152  1.0825  0.0164
  258MOL0     C34708   2.306   4.456   3.352 -0.1370  0.3920  0.5447
  258MOL0     C34709   2.378   4.461   3.214 -0.1913  0.0923 -0.5184
  258MOL0     C34710   2.277   4.435   3.098  0.3728 -1.3011 -0.4981
  258MOL0     C34711   2.362   4.424   2.973 -0.1116 -0.6271  0.6311
  258MOL0     N34712   2.279   4.420   2.853 -0.7580 -0.4410 -0.0086
  258MOL0     C34713   2.230   4.521   2.769  0.8524  0.0694  0.2301
  258MOL0     C34714   2.184   4.455   2.664 -1.0185  0.7436 -0.5183
  258MOL0     C34715   2.118   4.513   2.544  0.1697  0.5009  0.8500
  258MOL0     C34716   2.174   4.654   2.516 -0.0640  0.0686  0.1932
  258MOL0     C34717   2.111   4.710   2.401  0.2259 -0.4433 -0.1214
  258MOL0     C34718   2.154   4.856   2.365  1.0776 -0.0559  0.3039
  258MOL0     O34719   2.078   4.906   2.254 -1.3326 -0.6501 -0.6694
  258MOL0     C34720   2.092   5.032   2.212 -0.4320 -1.3834 -0.5768
  258MOL0     C34721   2.060   5.063   2.075  0.1891  0.5014 -0.4023
  258MOL0     C34722   2.066   5.192   2.025 -0.3240 -0.2594  0.0402
  258MOL0     C34723   2.013   5.203   1.881 -0.5897 -0.1436 -0.3050
  258MOL0     C34724   2.112   5.300   2.106  0.3745 -0.9274 -0.1888
  258MOL0     C34725   2.135   5.433   2.065 -0.5237  0.0203  0.4053
  258MOL0     O34726   2.265   5.479   2.072 -1.1987  0.1974  0.4895
  258MOL0     C34727   2.295   5.613   2.050 -0.8122  0.0821 -0.8425
  258MOL0     C34728   2.260   5.687   1.934 -0.3207 -0.3679  0.4354
  258MOL0     C34729   2.288   5.823   1.926 -0.4096  0.9998 -0.2455
  258MOL0     C34730   2.352   5.890   2.028 -0.2376  0.8948 -0.4501
  258MOL0     O34731   2.382   6.023   1.999 -0.4454  0.4083 -0.0478
  258MOL0     C34732   2.418   6.111   2.095 -0.1524 -0.4805 -0.4295
  258MOL0     C34733   2.415   6.254   2.036 -0.4675 -0.3111  0.3769
  258MOL0     C34734   2.481   6.360   2.113  0.4401  1.1159 -0.5387
  258MOL0     C34735   2.556   6.454   2.029 -0.2841 -0.5905 -0.1606
  258MOL0     C34736   2.653   6.554   2.106 -0.8600  0.9329  1.0925
  258MOL0     C34737   2.628   6.697   2.101  0.5904 -0.2141  0.3156
  258MOL0     C34738   2.699   6.781   2.209 -0.0358 -0.0025 -0.0454
  258MOL0     C34739   2.609   6.888   2.272  0.2764 -0.2545  0.4473
  258MOL0    Cl34740   2.719   6.972   2.386 -0.1729  0.2667 -0.1955
  258MOL0     C34741   2.391   5.816   2.140  1.0083 -0.3372  0.0446
  258MOL0     C34742   2.362   5.678   2.157 -0.2322  1.0839  0.2321
  258MOL0     O34743   2.042   5.499   2.024 -0.0485  0.6002 -0.2777
  258MOL0     C34744   2.153   5.270   2.236  0.7507  0.0072 -1.0225
  258MOL0     C34745   2.148   5.138   2.287 -0.8432  0.0902  0.3160
  258MOL0     N34746   2.186   4.318   2.693 -0.4464 -0.4144  0.3591
  258MOL0     N34747   2.246   4.299   2.803 -0.0924  0.0420 -0.3619
  258MOL0     C34748   2.962   4.523   3.891  0.2780  0.0137 -0.1680
  258MOL0     C34749   3.028   4.462   3.998 -0.2619  0.0081  0.3150
  258MOL0     C34750   3.149   4.119   4.291 -0.6288 -0.5188 -0.4405
  258MOL0     C34751   3.103   4.032   4.391 -0.0361 -0.3543 -0.5269
  258MOL0     C34752   3.185   3.962   4.481 -0.3866 -0.0781 -0.2697
  258MOL0     C34753   3.324   3.995   4.482 -0.9327 -0.8007 -0.9345
  258MOL0     O34754   3.426   3.951   4.563 -0.0945 -0.0719 -0.5939
  258MOL0     C34755   3.425   3.985   4.695  0.4272 -0.9745  0.7904
  258MOL0     C34756   3.409   4.142   4.709 -1.2195 -1.4124 -0.5701
  258MOL0     C34757   3.523   4.231   4.673  0.4755 -0.1640  0.7837
  258MOL0     C34758   3.497   4.370   4.735 -0.1819 -0.1765 -0.5927
  258MOL0     C34759   3.596   4.460   4.677  0.3736  0.6122 -0.3679
  258MOL0     C34760   3.680   4.531   4.636  0.7478 -0.8969 -0.6619
  258MOL0     C34761   3.375   4.085   4.379 -1.5295  0.3814 -0.1619
  258MOL0     C34762   3.288   4.152   4.288  0.4646  0.0924 -0.6057
  258MOL0     H34763   2.870   4.158   3.979 -0.8432  1.0169  2.7194
  258MOL0     H34764   2.799   4.234   3.782 -0.8879 -1.0274  2.1204
  258MOL0     H34765   2.787   4.438   3.499 -1.6855 -1.7374 -1.2816
  258MOL0     H34766   2.732   4.341   3.627  1.5957 -0.3925 -2.2503
  258MOL0     H34767   2.564   4.513   3.690 -2.7283  1.6007 -0.6297
  258MOL0     H34768   2.622   4.622   3.573 -2.4746  0.9272  1.8480
  258MOL0     H34769   2.544   4.443   3.383 -5.1002  6.3558 -2.1630
  258MOL0     H34770   2.476   4.341   3.519  1.0055 -1.9653 -1.2900
  258MOL0     H34771   2.307   4.487   3.559  3.2373 -1.4877  1.9048
  258MOL0     H34772   2.382   4.619   3.473  2.4851  0.8697  3.0516
  258MOL0     H34773   2.291   4.349   3.366  3.8006 -0.2131  1.2088
  258MOL0     H34774   2.210   4.508   3.349 -2.5602 -3.5955  1.4758
  258MOL0     H34775   2.425   4.558   3.194 -1.1239  0.6776  0.0462
  258MOL0     H34776   2.454   4.383   3.209 -1.7421 -1.7615  2.3559
  258MOL0     H34777   2.235   4.335   3.090  0.0066 -1.1231 -0.8549
  258MOL0     H34778   2.196   4.509   3.089 -0.8970 -2.5454  0.3555
  258MOL0     H34779   2.432   4.340   2.973  0.5031 -0.1264  1.1681
  258MOL0     H34780   2.416   4.519   2.979 -1.0445 -0.1343  4.8973
  258MOL0     H34781   2.239   4.628   2.782 -0.0071  0.1048  0.6561
  258MOL0     H34782   2.133   4.455   2.452  0.0126  0.1812  1.0230
  258MOL0     H34783   2.010   4.505   2.560  0.2587 -1.0438  0.8969
  258MOL0     H34784   2.283   4.644   2.511  0.0262 -0.6723  2.4606
  258MOL0     H34785   2.160   4.723   2.598 -0.7176 -0.9537  0.9653
  258MOL0     H34786   2.004   4.706   2.425 -1.0002  1.5919 -4.2506
  258MOL0     H34787   2.115   4.638   2.318 -0.8530 -0.3606 -0.2596
  258MOL0     H34788   2.259   4.867   2.334  0.6621  2.7157 -0.3796
  258MOL0     H34789   2.149   4.924   2.451  0.4057  1.5628 -0.9624
  258MOL0     H34790   2.023   4.980   2.016 -2.0440 -0.3674  2.0065
  258MOL0     H34791   1.996   5.302   1.838 -0.6660  0.8949  1.9907
  258MOL0     H34792   2.079   5.157   1.806 -0.4509 -1.6982  0.7227
  258MOL0     H34793   1.922   5.143   1.874 -0.5315 -0.8651  3.1202
  258MOL0     H34794   2.192   5.652   1.857 -2.4245  4.4411 -0.3228
  258MOL0     H34795   2.247   5.872   1.838 -0.6216  1.0060 -0.1433
  258MOL0     H34796   2.360   6.116   2.188 -0.5789  2.0582 -0.7685
  258MOL0     H34797   2.520   6.086   2.126 -0.6772  0.1681  2.0886
  258MOL0     H34798   2.445   6.247   1.931  1.7011 -3.9375  1.0646
  258MOL0     H34799   2.308   6.279   2.037 -0.5984 -0.8554  0.4350
  258MOL0     H34800   2.534   6.325   2.202  1.0633 -1.1364 -1.7290
  258MOL0     H34801   2.395   6.415   2.154 -1.3207 -0.6881 -1.6262
  258MOL0     H34802   2.627   6.393   1.973  1.9525  0.3036  1.5503
  258MOL0     H34803   2.490   6.500   1.956  0.5569 -1.7876 -1.7248
  258MOL0     H34804   2.755   6.549   2.068  0.3516  3.2209  3.6598
  258MOL0     H34805   2.650   6.526   2.212 -2.9899  1.6461  1.2717
  258MOL0     H34806   2.634   6.740   2.001 -1.4903  1.7949  0.9508
  258MOL0     H34807   2.521   6.711   2.121  0.4411 -0.1543 -0.5050
  258MOL0     H34808   2.783   6.822   2.150 -2.0096  2.4981 -1.3321
  258MOL0     H34809   2.743   6.713   2.282  0.9599 -0.9625 -1.4803
  258MOL0     H34810   2.520   6.851   2.324 -0.3672 -0.6178 -0.8542
  258MOL0     H34811   2.572   6.941   2.184 -1.5488 -0.5388  1.0055
  258MOL0     H34812   2.435   5.874   2.220 -2.6916  1.1041  1.2580
  258MOL0     H34813   2.383   5.627   2.251 -1.5202  0.5842  0.2687
  258MOL0     H34814   2.205   5.341   2.300 -3.4228 -1.6548  5.0981
  258MOL0     H34815   2.189   5.116   2.385 -0.0293 -3.8263 -0.7246
  258MOL0     H34816   2.985   4.628   3.877 -1.6057  0.1883 -2.5716
  258MOL0     H34817   3.093   4.523   4.060  0.2917 -2.4870  2.3479
  258MOL0     H34818   2.997   4.007   4.395  0.0522 -1.5340 -3.2379
  258MOL0     H34819   3.145   3.888   4.550  1.7291  0.4001  1.5701
  258MOL0     H34820   3.339   3.935   4.739 -0.5764 -2.4004 -2.4890
  258MOL0     H34821   3.515   3.949   4.747 -0.0079 -2.0022  0.8530
  258MOL0     H34822   3.375   4.155   4.812 -0.2795  0.7910 -0.4952
  258MOL0     H34823   3.322   4.170   4.649 -1.1176 -0.9921 -0.5238
  258MOL0     H34824   3.534   4.239   4.564 -1.9663 -0.4081  0.4564
  258MOL0     H34825   3.613   4.184   4.713 -0.0109 -1.5707  0.3066
  258MOL0     H34826   3.514   4.365   4.843 -0.4170 -1.0574 -0.5837
  258MOL0     H34827   3.397   4.408   4.715 -1.5735 -3.8994 -1.5361
  258MOL0     H34828   3.761   4.587   4.595 -0.7100  1.2610 -0.7625
  258MOL0     H34829   3.481   4.104   4.387 -1.3381 -0.4089 -0.7654
  258MOL0     H34830   3.337   4.218   4.217 -1.2265  0.8771 -1.1071
  259MOL0     O34831   0.156   3.609   4.369  1.0259 -0.0126  0.5994
  259MOL0     C34832   0.196   3.505   4.413  0.4215 -0.7018 -0.4032
  259MOL0     O34833   0.178   3.381   4.356 -0.2418  0.1575 -0.7691
  259MOL0     C34834   0.125   3.369   4.230 -0.6146  0.5416 -0.0290
  259MOL0     C34835   0.148   3.451   4.116  0.2489  0.2859  0.3114
  259MOL0     C34836   0.078   3.446   3.998  0.5856  0.0699 -0.3414
  259MOL0     C34837  -0.029   3.351   3.990 -0.0839  0.0814 -0.7256
  259MOL0     O34838  -0.096   3.320   3.875 -0.6188 -0.7493  0.2185
  259MOL0     C34839  -0.031   3.355   3.745 -0.1287  0.4454  0.6424
  259MOL0     C34840  -0.112   3.281   3.640  0.2897  0.7022  0.3326
  259MOL0     C34841  -0.043   3.289   3.507  0.3503 -1.0771  0.3326
  259MOL0     C34842  -0.074   3.425   3.442 -0.1484 -0.2319 -0.6240
  259MOL0     C34843  -0.012   3.438   3.307  0.0348 -0.0198  0.1004
  259MOL0     C34844  -0.096   3.411   3.172 -0.6916 -0.4866  0.0654
  259MOL0     C34845  -0.013   3.428   3.045 -0.0727 -0.0106 -0.4340
  259MOL0     C34846  -0.077   3.382   2.915  1.0313 -0.3342 -0.2560
  259MOL0     N34847   0.017   3.347   2.806  0.7584 -0.5063 -0.8787
  259MOL0     C34848   0.116   3.242   2.805  0.7284  0.1150  1.0343
  259MOL0     C34849   0.211   3.291   2.727 -0.5115  0.5298 -0.5151
  259MOL0     C34850   0.343   3.223   2.690 -0.1328 -0.0876  0.1263
  259MOL0     C34851   0.325   3.081   2.643 -0.1246 -0.9333  0.6334
  259MOL0     C34852   0.463   3.020   2.630 -0.5776 -0.5710  0.1322
  259MOL0     C34853   0.443   2.900   2.541 -0.8836  0.2109  0.6477
  259MOL0     O34854   0.362   2.799   2.603 -0.1857 -0.7953 -0.1735
  259MOL0     C34855   0.353   2.675   2.555 -1.0519 -0.2980 -0.1611
  259MOL0     C34856   0.282   2.572   2.625  0.6791 -1.5188  0.4671
  259MOL0     C34857   0.261   2.443   2.571 -0.7565  0.0177 -0.4312
  259MOL0     C34858   0.196   2.346   2.660  0.0929  0.0995 -0.1158
  259MOL0     C34859   0.326   2.413   2.451 -0.8356 -0.1866  0.2400
  259MOL0     C34860   0.316   2.269   2.393  0.4344 -0.4242 -0.1081
  259MOL0     O34861   0.194   2.212   2.407  1.1984  0.0230 -0.3064
  259MOL0     C34862   0.167   2.095   2.352 -0.8528  0.2217 -0.4264
  259MOL0     C34863   0.248   1.979   2.357 -0.6097 -0.4632  0.8540
  259MOL0     C34864   0.207   1.864   2.294 -0.1219  0.4370 -0.2922
  259MOL0     C34865   0.081   1.853   2.242  0.3845 -0.4207  0.0809
  259MOL0     O34866   0.042   1.737   2.175 -0.1066 -0.2154 -0.5080
  259MOL0     C34867  -0.021   1.755   2.046  0.1047 -0.4113 -0.4706
  259MOL0     C34868  -0.010   1.622   1.976  0.7148  0.3037 -0.6958
  259MOL0     C34869   0.132   1.567   1.949  0.4786  0.4515  0.5094
  259MOL0     C34870   0.200   1.669   1.847 -0.0357  0.2668 -0.3051
  259MOL0     C34871   0.335   1.616   1.781  0.2119 -0.2125  1.2875
  259MOL0     C34872   0.442   1.566   1.890 -0.6589 -0.9611  0.2792
  259MOL0     C34873   0.449   1.668   2.016  0.2446  0.0264 -0.0972
  259MOL0     C34874   0.556   1.616   2.113  0.0078 -0.3063  0.3227
  259MOL0    Cl34875   0.562   1.704   2.260  0.2564 -0.1441  0.4379
  259MOL0     C34876  -0.008   1.963   2.255  0.5587  0.3342  0.1630
  259MOL0     C34877   0.039   2.085   2.296 -0.3391  0.6778  0.5322
  259MOL0     O34878   0.398   2.232   2.313 -0.0561 -0.8293 -0.1187
  259MOL0     C34879   0.414   2.503   2.388  0.9867 -0.4296  0.1462
  259MOL0     C34880   0.422   2.638   2.433  0.6686  0.5664 -0.2360
  259MOL0     N34881   0.184   3.417   2.685  0.1770  0.1209 -0.4810
  259MOL0     N34882   0.074   3.447   2.730  0.0663  0.6017  0.4158
  259MOL0     C34883  -0.044   3.262   4.094  0.1761  0.6244  0.1639
  259MOL0     C34884   0.030   3.266   4.205  0.6921  0.3199 -0.3943
  259MOL0     C34885   0.263   3.499   4.541 -0.3593  0.2759 -1.2006
  259MOL0     C34886   0.341   3.605   4.589  0.8154  0.4167 -0.7843
  259MOL0     C34887   0.392   3.590   4.719  0.3604  0.0385  0.1273
  259MOL0     C34888   0.364   3.474   4.799 -0.5596  0.8711  0.4559
  259MOL0     O34889   0.419   3.471   4.925 -0.3954 -1.1220  0.1062
  259MOL0     C34890   0.335   3.434   5.029 -0.1238  0.1590 -0.8699
  259MOL0     C34891   0.412   3.464   5.160 -0.1965 -0.9162 -0.0050
  259MOL0     C34892   0.547   3.386   5.163  0.4356  0.1080 -0.4298
  259MOL0     C34893   0.551   3.309   5.296  0.2693  0.4189  1.2740
  259MOL0     C34894   0.563   3.393   5.417 -0.5112 -0.6270 -0.2124
  259MOL0     C34895   0.570   3.473   5.513  0.3529  0.1105  0.3726
  259MOL0     C34896   0.284   3.369   4.739  0.7447  0.2805  0.2276
  259MOL0     C34897   0.233   3.383   4.611 -0.6758  0.2103 -0.2671
  259MOL0     H34898   0.225   3.525   4.136  0.6730 -0.0900  0.0970
  259MOL0     H34899   0.105   3.513   3.917  0.1977  1.3458  0.5633
  259MOL0     H34900  -0.038   3.461   3.720  2.6493 -0.2311 -4.0202
  259MOL0     H34901   0.072   3.321   3.737 -0.7474 -1.7909  1.3450
  259MOL0     H34902  -0.119   3.178   3.675 -0.8924  1.3708  2.2283
  259MOL0     H34903  -0.214   3.320   3.630 -0.0029 -0.4637 -1.6996
  259MOL0     H34904   0.064   3.283   3.531 -0.1461 -0.7199  2.9582
  259MOL0     H34905  -0.061   3.199   3.447 -0.5707  0.0964 -1.2474
  259MOL0     H34906  -0.181   3.440   3.426 -0.4698  1.2540  2.1976
  259MOL0     H34907  -0.033   3.497   3.514  2.1128 -2.3368  0.3803
  259MOL0     H34908   0.018   3.543   3.300 -1.6039  0.5387  0.9412
  259MOL0     H34909   0.073   3.369   3.308 -0.6731 -0.9757  2.6043
  259MOL0     H34910  -0.127   3.307   3.158  1.6261 -1.0234 -1.7982
  259MOL0     H34911  -0.187   3.470   3.169 -1.2652 -1.2735  1.3883
  259MOL0     H34912   0.015   3.533   3.034 -1.5515  0.5706  1.0176
  259MOL0     H34913   0.079   3.372   3.062 -3.1372 -5.0241  2.0127
  259MOL0     H34914  -0.134   3.465   2.872 -2.1845 -2.6359 -0.7975
  259MOL0     H34915  -0.149   3.300   2.927  1.6388 -1.0713 -1.4392
  259MOL0     H34916   0.115   3.145   2.854  3.8531 -0.6786 -0.2249
  259MOL0     H34917   0.385   3.286   2.611  1.9856 -1.4944  0.0841
  259MOL0     H34918   0.409   3.231   2.777  0.4189  0.0979 -0.3048
  259MOL0     H34919   0.268   3.070   2.550  0.6258 -1.0322  0.1813
  259MOL0     H34920   0.269   3.025   2.719 -0.7357 -3.5548 -1.5769
  259MOL0     H34921   0.496   2.979   2.726 -1.0332 -0.3415  0.3884
  259MOL0     H34922   0.538   3.085   2.583  0.4216 -0.0207  2.3721
  259MOL0     H34923   0.544   2.866   2.517 -0.2438  0.4806  2.7924
  259MOL0     H34924   0.392   2.917   2.446 -2.6148 -0.2688  1.4498
  259MOL0     H34925   0.247   2.600   2.723  1.9876 -1.7345  1.0218
  259MOL0     H34926   0.087   2.352   2.650 -0.1434  0.5224  2.2586
  259MOL0     H34927   0.232   2.244   2.646 -2.4501 -0.4721 -4.2288
  259MOL0     H34928   0.210   2.365   2.767 -1.3214 -2.2592  0.5791
  259MOL0     H34929   0.346   1.985   2.404 -1.8611  1.2695  3.4801
  259MOL0     H34930   0.268   1.774   2.287  1.0213  1.2922 -4.5827
  259MOL0     H34931  -0.120   1.801   2.043  0.8621  1.2498 -1.8999
  259MOL0     H34932   0.052   1.824   2.002  1.2826 -1.9166 -0.9925
  259MOL0     H34933  -0.068   1.547   2.031  0.3347  1.0048 -0.1184
  259MOL0     H34934  -0.050   1.636   1.876  1.3242 -2.3794 -1.3976
  259MOL0     H34935   0.119   1.473   1.893 -0.8928  0.6722  0.4258
  259MOL0     H34936   0.189   1.556   2.042  3.0053  0.9122 -0.8997
  259MOL0     H34937   0.138   1.705   1.765 -1.2305  0.1480  0.5300
  259MOL0     H34938   0.225   1.762   1.898  1.4420  0.6436 -1.6330
  259MOL0     H34939   0.383   1.705   1.737 -1.4511  0.0771 -0.0718
  259MOL0     H34940   0.320   1.547   1.698  1.7504  1.4519 -0.4911
  259MOL0     H34941   0.402   1.468   1.919  0.3783 -1.0549  1.5163
  259MOL0     H34942   0.542   1.552   1.847 -1.5494 -1.4626 -1.7585
  259MOL0     H34943   0.353   1.657   2.067  0.4512 -0.9901  0.0774
  259MOL0     H34944   0.475   1.769   1.982  0.3115 -0.1040 -0.4389
  259MOL0     H34945   0.652   1.624   2.061  0.4731 -2.1725  0.8490
  259MOL0     H34946   0.524   1.514   2.131 -2.8140  0.5818  0.8664
  259MOL0     H34947  -0.111   1.954   2.221 -0.1266 -0.6179  2.3170
  259MOL0     H34948  -0.016   2.178   2.309 -0.8629  0.4021  0.2936
  259MOL0     H34949   0.478   2.480   2.303 -0.1891 -0.6730 -0.7119
  259MOL0     H34950   0.485   2.705   2.376  1.6675  0.4018  0.6374
  259MOL0     H34951  -0.119   3.186   4.076  2.4635 -1.6911 -0.2199
  259MOL0     H34952   0.030   3.178   4.268  3.3888  0.0238 -0.6889
  259MOL0     H34953   0.343   3.705   4.545  2.0703  0.5239 -0.5315
  259MOL0     H34954   0.458   3.665   4.762 -0.7440  0.2567  1.5163
  259MOL0     H34955   0.230   3.465   5.031 -0.6796 -1.3595  3.0442
  259MOL0     H34956   0.330   3.325   5.028  3.8458 -0.3847  3.4618
  259MOL0     H34957   0.348   3.452   5.247  0.9676  0.7730  1.1413
  259MOL0     H34958   0.449   3.567   5.157  4.7197 -2.3876 -0.3306
  259MOL0     H34959   0.621   3.466   5.157  1.2035 -0.6575 -1.4812
  259MOL0     H34960   0.557   3.318   5.078 -2.1098  0.8987 -1.4692
  259MOL0     H34961   0.638   3.242   5.293  0.2648  0.4227 -1.6900
  259MOL0     H34962   0.474   3.231   5.302  1.9675 -1.2703  2.4033
  259MOL0     H34963   0.568   3.545   5.592 -0.9372  0.7803 -0.2456
  259MOL0     H34964   0.266   3.274   4.786  0.1703  0.9149  1.3188
  259MOL0     H34965   0.166   3.304   4.580 -1.9161  1.1323 -0.0220
  260MOL0     O34966   3.470   6.107   8.768 -0.2432 -0.3036 -0.0315
  260MOL0     C34967   3.368   6.043   8.786  0.2833 -0.1841 -0.3384
  260MOL0     O34968   3.349   5.956   8.896  0.9508 -0.7495 -0.7628
  260MOL0     C34969   3.448   5.957   8.997  0.2145 -0.3762 -0.2838
  260MOL0     C34970   3.563   5.875   8.989 -0.0117  0.7758 -0.3756
  260MOL0     C34971   3.645   5.859   9.102  0.5483 -0.3856 -0.4896
  260MOL0     C34972   3.617   5.922   9.223 -0.0013 -0.2947 -0.4289
  260MOL0     O34973   3.698   5.913   9.329 -0.0931 -0.2202 -0.2668
  260MOL0     C34974   3.782   5.805   9.344  0.2864 -0.1513 -0.0325
  260MOL0     C34975   3.864   5.824   9.469  0.8350  0.1656 -0.6120
  260MOL0     C34976   3.949   5.704   9.495 -0.2103 -0.2093 -0.2175
  260MOL0     C34977   4.084   5.750   9.576 -0.6577  0.7421 -0.1259
  260MOL0     C34978   4.061   5.797   9.711 -0.1120  0.2791 -0.3126
  260MOL0     C34979   4.187   5.787   9.801  0.3539 -0.2950 -0.1891
  260MOL0     C34980   4.294   5.896   9.759 -0.8547  0.7434 -0.1716
  260MOL0     C34981   4.427   5.835   9.707 -0.0782 -0.5452 -0.0558
  260MOL0     N34982   4.508   5.931   9.625  0.2405 -0.3660 -0.1008
  260MOL0     C34983   4.575   6.047   9.680 -0.2198  0.0351  0.0958
  260MOL0     C34984   4.608   6.108   9.570 -0.0072 -0.0555  0.1690
  260MOL0     C34985   4.671   6.241   9.587 -0.2411  0.2504  0.3844
  260MOL0     C34986   4.813   6.248   9.641  0.8833 -0.2766 -0.2993
  260MOL0     C34987   4.920   6.176   9.548  0.3184  0.6894  0.3541
  260MOL0     C34988   4.932   6.234   9.405  0.0036 -0.1047 -0.9096
  260MOL0     O34989   5.031   6.155   9.330  0.4695 -0.2033 -0.4091
  260MOL0     C34990   5.004   6.131   9.196  0.2940 -0.1445 -0.6112
  260MOL0     C34991   4.880   6.079   9.149 -0.1400 -0.0038 -1.5415
  260MOL0     C34992   4.842   6.050   9.018  0.4991 -1.1158 -0.6506
  260MOL0     C34993   4.708   5.996   8.978  0.0599 -0.3104  0.6815
  260MOL0     C34994   4.944   6.084   8.926  0.0791  0.9842  0.3351
  260MOL0     C34995   4.927   6.057   8.777 -0.7348 -0.3725  0.8960
  260MOL0     O34996   4.797   6.062   8.720  0.2976 -0.8833  0.7547
  260MOL0     C34997   4.776   6.031   8.585 -0.2892 -0.8201 -0.3803
  260MOL0     C34998   4.784   6.126   8.485 -0.2740  0.4541 -0.1425
  260MOL0     C34999   4.754   6.089   8.358  0.7362 -0.4238 -0.0581
  260MOL0     C35000   4.715   5.955   8.324  0.0490  0.7423  0.0006
  260MOL0     O35001   4.701   5.930   8.190  0.2210 -0.1908  0.0098
  260MOL0     C35002   4.618   5.822   8.154 -0.1090  0.2378 -0.0034
  260MOL0     C35003   4.475   5.856   8.195  0.8380 -0.5128 -0.5396
  260MOL0     C35004   4.414   5.971   8.118  0.2789 -0.5959 -0.4996
  260MOL0     C35005   4.282   6.010   8.198 -0.3844  0.4380  0.2424
  260MOL0     C35006   4.191   6.093   8.107  0.2447 -1.2486  0.4188
  260MOL0     C35007   4.136   6.019   7.976 -0.3318 -0.4903 -0.1518
  260MOL0     C35008   4.113   6.118   7.856  0.3127  0.1847 -1.0255
  260MOL0     C35009   3.972   6.099   7.789 -0.4590  0.3409 -0.7354
  260MOL0    Cl35010   3.836   6.132   7.898 -0.2006  0.2120 -0.0887
  260MOL0     C35011   4.694   5.863   8.428 -0.8288  0.2690  0.1652
  260MOL0     C35012   4.730   5.905   8.557  0.3438  1.2138 -0.2144
  260MOL0     O35013   5.031   6.043   8.711 -0.6058 -0.3770  0.1027
  260MOL0     C35014   5.071   6.134   8.962 -0.9731  0.1101  0.6515
  260MOL0     C35015   5.098   6.154   9.093 -0.3456  0.7013 -1.4330
  260MOL0     N35016   4.551   6.052   9.454 -0.4124 -0.9407  0.0990
  260MOL0     N35017   4.498   5.941   9.489 -0.2295 -0.5404 -0.3313
  260MOL0     C35018   3.506   6.002   9.229 -0.1402  0.0569  0.0630
  260MOL0     C35019   3.417   6.017   9.124  0.5653  0.4528 -0.5416
  260MOL0     C35020   3.264   6.034   8.679  0.7533 -1.1437 -0.5338
  260MOL0     C35021   3.310   6.080   8.546 -0.2114 -0.8055 -1.0251
  260MOL0     C35022   3.218   6.072   8.443  0.1563  0.5550  0.0986
  260MOL0     C35023   3.092   6.007   8.465 -0.0781 -1.1138  1.0396
  260MOL0     O35024   2.997   5.980   8.366 -0.0629  0.1517 -0.0196
  260MOL0     C35025   3.032   6.009   8.228  0.2752 -0.1044  0.8757
  260MOL0     C35026   3.134   5.900   8.177  0.2132 -0.0689 -0.3172
  260MOL0     C35027   3.060   5.774   8.149 -0.0262 -0.0743  0.0689
  260MOL0     C35028   3.081   5.730   7.998  0.0994  0.3245 -0.3469
  260MOL0     C35029   3.090   5.576   7.994  0.0911  0.5151 -0.6285
  260MOL0     C35030   3.108   5.452   7.980 -0.4986 -0.2419  0.8268
  260MOL0     C35031   3.053   5.980   8.595 -0.2229  0.3061 -0.1300
  260MOL0     C35032   3.138   5.989   8.703 -0.2714 -0.1739 -0.1302
  260MOL0     H35033   3.600   5.834   8.895  0.7746  4.5925 -1.9049
  260MOL0     H35034   3.733   5.796   9.095  0.3796 -0.4512 -2.8837
  260MOL0     H35035   3.737   5.705   9.342  1.1512 -0.6364  2.1574
  260MOL0     H35036   3.863   5.795   9.271 -0.1092 -0.4444 -0.4327
  260MOL0     H35037   3.906   5.925   9.476 -2.9551  1.8315  0.8584
  260MOL0     H35038   3.789   5.816   9.549  0.9119 -0.4364 -0.5933
  260MOL0     H35039   3.907   5.616   9.545  2.6365 -0.1726  2.5706
  260MOL0     H35040   3.982   5.665   9.398  0.2113  1.7381 -0.9054
  260MOL0     H35041   4.150   5.663   9.585 -0.7891  0.2586 -3.0600
  260MOL0     H35042   4.148   5.818   9.520 -0.1010  0.9470  0.7278
  260MOL0     H35043   4.022   5.899   9.719 -1.1129 -0.2079  2.0530
  260MOL0     H35044   3.982   5.738   9.759  0.7761 -0.8817 -0.2369
  260MOL0     H35045   4.154   5.802   9.904  0.6954  0.1552 -0.1451
  260MOL0     H35046   4.231   5.687   9.800  1.4535  0.1453 -2.3177
  260MOL0     H35047   4.249   5.957   9.681  3.4068 -0.0476 -3.6544
  260MOL0     H35048   4.312   5.950   9.853  0.4929  0.5545 -0.2974
  260MOL0     H35049   4.409   5.754   9.635  2.9844  0.6724 -2.4440
  260MOL0     H35050   4.484   5.792   9.790  3.3640 -0.3554 -2.1430
  260MOL0     H35051   4.600   6.069   9.783 -2.4430 -0.4403  0.8103
  260MOL0     H35052   4.676   6.299   9.494 -2.1766 -2.8169 -1.7870
  260MOL0     H35053   4.605   6.297   9.654  1.2855  3.4589 -0.5503
  260MOL0     H35054   4.811   6.196   9.738  2.2915  0.1875  0.0071
  260MOL0     H35055   4.847   6.348   9.668  1.1071 -0.4229 -0.0325
  260MOL0     H35056   4.883   6.073   9.545 -1.1238  1.0239  3.3483
  260MOL0     H35057   5.019   6.195   9.591  2.0888  0.6984 -3.3429
  260MOL0     H35058   4.969   6.335   9.425 -0.1262 -0.6962  3.4208
  260MOL0     H35059   4.827   6.225   9.376 -0.5340  1.1529  0.4943
  260MOL0     H35060   4.809   6.060   9.230  2.2522 -2.7127  0.1204
  260MOL0     H35061   4.675   5.928   9.058  1.4195  0.3928  1.9011
  260MOL0     H35062   4.633   6.075   8.964 -0.4334 -0.8305  0.3582
  260MOL0     H35063   4.712   5.928   8.893 -1.4086  0.6140 -0.1749
  260MOL0     H35064   4.815   6.227   8.509  1.1857 -0.2493  1.1106
  260MOL0     H35065   4.756   6.160   8.275  0.5361  0.8444  0.9817
  260MOL0     H35066   4.627   5.804   8.046 -3.3384 -2.5404  0.0537
  260MOL0     H35067   4.655   5.725   8.188 -0.9688 -0.1521 -0.1621
  260MOL0     H35068   4.408   5.772   8.176 -3.0044  2.2904 -0.4922
  260MOL0     H35069   4.469   5.881   8.301  2.6784 -1.3565 -0.1967
  260MOL0     H35070   4.412   5.946   8.011 -0.3701  0.4171 -0.7359
  260MOL0     H35071   4.487   6.052   8.119 -2.1197  1.6845 -1.0023
  260MOL0     H35072   4.226   5.926   8.238  0.5051 -1.2475 -1.8706
  260MOL0     H35073   4.319   6.053   8.292 -0.7243  0.3108  0.4393
  260MOL0     H35074   4.245   6.183   8.079 -1.0870 -0.8056 -0.8236
  260MOL0     H35075   4.096   6.124   8.152 -0.7511 -2.5760 -0.6926
  260MOL0     H35076   4.212   5.949   7.939 -0.9796 -1.4017  0.2142
  260MOL0     H35077   4.042   5.969   8.001 -1.6044  2.3651  1.2755
  260MOL0     H35078   4.186   6.100   7.777 -0.1845  0.1565 -1.4821
  260MOL0     H35079   4.120   6.221   7.893 -0.5575 -0.0641 -0.1105
  260MOL0     H35080   3.957   6.002   7.739 -2.6476 -0.4145  1.2129
  260MOL0     H35081   3.962   6.174   7.710  1.6282  0.1465 -1.2295
  260MOL0     H35082   4.679   5.758   8.408  0.2284  0.6388 -3.2473
  260MOL0     H35083   4.733   5.831   8.637  0.6453 -0.9090 -2.0985
  260MOL0     H35084   5.151   6.167   8.897  0.1877 -0.4410  1.7584
  260MOL0     H35085   5.196   6.188   9.125 -0.2272 -0.6926 -0.1786
  260MOL0     H35086   3.476   6.058   9.317 -0.4292  2.1576 -1.2885
  260MOL0     H35087   3.330   6.080   9.137  1.3606  1.2127  1.5375
  260MOL0     H35088   3.415   6.091   8.522 -0.5821  0.6913 -2.0976
  260MOL0     H35089   3.237   6.107   8.342  0.2969  0.7052  0.1773
  260MOL0     H35090   2.946   6.006   8.160  0.3147  0.8233  0.7760
  260MOL0     H35091   3.083   6.105   8.222  0.8490 -0.2037  3.2745
  260MOL0     H35092   3.205   5.885   8.259  0.9836  1.8588 -0.5981
  260MOL0     H35093   3.189   5.932   8.088  0.7784 -1.7417 -0.6024
  260MOL0     H35094   2.952   5.791   8.148 -0.2228 -1.2451 -1.0739
  260MOL0     H35095   3.088   5.692   8.216  0.2102  0.6284  0.8456
  260MOL0     H35096   3.179   5.754   7.956  0.3411  0.8826  0.4921
  260MOL0     H35097   3.008   5.774   7.930 -1.1861 -0.2897  0.5787
  260MOL0     H35098   3.111   5.346   7.961 -0.6110 -0.7865  3.4722
  260MOL0     H35099   2.955   5.934   8.606 -1.8168  3.0896 -1.5223
  260MOL0     H35100   3.110   5.970   8.806 -2.0203  1.3911 -0.2553
  261MOL0     O35101   6.570   3.645   6.633  0.6193  0.4813 -0.4003
  261MOL0     C35102   6.458   3.596   6.622  1.1369  0.0445 -0.5662
  261MOL0     O35103   6.413   3.516   6.522  1.0665 -0.6119  0.0696
  261MOL0     C35104   6.495   3.429   6.454 -0.5143 -0.1575  0.0094
  261MOL0     C35105   6.447   3.366   6.340  0.7227  0.3314  0.1218
  261MOL0     C35106   6.523   3.278   6.272  0.7156  0.5780 -0.7924
  261MOL0     C35107   6.652   3.239   6.309 -0.1563 -0.3391 -0.2874
  261MOL0     O35108   6.726   3.157   6.234 -0.2167 -0.8628 -0.3850
  261MOL0     C35109   6.671   3.041   6.180 -0.3958 -0.4516  0.2548
  261MOL0     C35110   6.631   2.933   6.287 -0.0923 -0.7285 -0.7428
  261MOL0     C35111   6.580   2.816   6.210  0.1144  0.1931  0.9535
  261MOL0     C35112   6.429   2.811   6.168 -0.5005 -0.1898  0.3349
  261MOL0     C35113   6.412   2.710   6.056  0.1461 -0.3692  0.2060
  261MOL0     C35114   6.287   2.742   5.974  0.5961  0.0358 -0.7433
  261MOL0     C35115   6.215   2.619   5.920 -0.2196  0.0318  0.1183
  261MOL0     C35116   6.136   2.528   6.033 -0.1691 -0.1347  0.7667
  261MOL0     N35117   6.086   2.414   5.961  0.4807 -0.1529  0.0768
  261MOL0     C35118   6.001   2.417   5.849  0.6686  1.2215 -0.6131
  261MOL0     C35119   5.962   2.281   5.842 -0.1384 -0.1631  0.2974
  261MOL0     C35120   5.874   2.223   5.740  0.4159  0.7842  0.7732
  261MOL0     C35121   5.720   2.243   5.756  0.5497  0.4272 -0.2391
  261MOL0     C35122   5.638   2.116   5.772 -0.2660 -0.4485  0.9427
  261MOL0     C35123   5.492   2.150   5.802  0.0129 -0.1241  0.7736
  261MOL0     O35124   5.473   2.216   5.935 -0.6052 -0.1965  0.0426
  261MOL0     C35125   5.348   2.247   5.984  0.1644 -0.5903 -0.6549
  261MOL0     C35126   5.231   2.213   5.922  0.2046  0.7565 -0.5265
  261MOL0     C35127   5.107   2.232   5.983 -0.9393 -0.5413 -0.2075
  261MOL0     C35128   4.978   2.191   5.910  0.0288 -0.8780  0.2722
  261MOL0     C35129   5.102   2.306   6.108  0.2647 -0.1359  0.9898
  261MOL0     C35130   4.986   2.365   6.178 -0.0125 -0.4169  0.3031
  261MOL0     O35131   4.938   2.291   6.284  0.4602 -0.1195 -0.1107
  261MOL0     C35132   4.799   2.312   6.311 -0.4028  0.5724 -0.1552
  261MOL0     C35133   4.705   2.208   6.282  0.4321 -0.7829  0.6649
  261MOL0     C35134   4.573   2.220   6.310  0.9168  0.5302 -0.7931
  261MOL0     C35135   4.533   2.339   6.370  0.4568  0.6697 -0.3940
  261MOL0     O35136   4.409   2.338   6.413 -0.2757 -0.3347 -0.0725
  261MOL0     C35137   4.304   2.362   6.317  0.2006  0.1996  0.6686
  261MOL0     C35138   4.171   2.313   6.369  0.4271 -0.1505 -1.1467
  261MOL0     C35139   4.163   2.162   6.366 -1.0474 -0.1396 -0.1727
  261MOL0     C35140   4.044   2.106   6.435 -0.0022  0.6050  0.4096
  261MOL0     C35141   4.058   1.951   6.440  0.0028  0.0764 -0.0545
  261MOL0     C35142   3.927   1.879   6.457 -1.1349 -1.2507  0.0883
  261MOL0     C35143   3.932   1.762   6.548 -0.2554 -1.0693  0.2805
  261MOL0     C35144   4.028   1.648   6.493  0.3532  0.9710 -0.0566
  261MOL0    Cl35145   4.032   1.516   6.612 -0.0908 -0.1837  0.3807
  261MOL0     C35146   4.618   2.449   6.403 -0.1208 -0.1726 -0.3888
  261MOL0     C35147   4.754   2.436   6.368  0.2193  0.1477 -0.6863
  261MOL0     O35148   4.939   2.471   6.138 -0.6870 -0.1639  0.4643
  261MOL0     C35149   5.227   2.347   6.158  0.4955  0.2899 -0.7053
  261MOL0     C35150   5.342   2.303   6.115  0.2945  0.0908 -0.4073
  261MOL0     N35151   6.028   2.202   5.934 -0.0546  0.3336 -0.9699
  261MOL0     N35152   6.103   2.287   6.002  0.4189  0.6854 -0.0661
  261MOL0     C35153   6.703   3.297   6.431  0.3148 -0.2561 -0.4808
  261MOL0     C35154   6.626   3.387   6.501  0.2594 -0.8668 -0.5626
  261MOL0     C35155   6.364   3.622   6.738  0.1358  1.0136 -0.1293
  261MOL0     C35156   6.225   3.614   6.724  0.9905 -0.3537  0.0252
  261MOL0     C35157   6.141   3.654   6.825  0.9625  1.3865 -0.3593
  261MOL0     C35158   6.185   3.681   6.950 -0.0933  0.1914 -0.0665
  261MOL0     O35159   6.096   3.679   7.050  0.3304 -0.4588 -0.9259
  261MOL0     C35160   6.142   3.723   7.179 -0.4515  0.3534  0.6323
  261MOL0     C35161   6.044   3.695   7.286 -0.9481 -0.3991 -0.1017
  261MOL0     C35162   6.072   3.770   7.410 -0.2966  0.5453 -0.7636
  261MOL0     C35163   6.181   3.698   7.492  0.8472  0.3097 -0.0918
  261MOL0     C35164   6.196   3.778   7.617  0.3426 -0.1373  0.5888
  261MOL0     C35165   6.195   3.848   7.716 -0.2217  0.1668 -0.6881
  261MOL0     C35166   6.323   3.693   6.973 -0.4224 -0.0256 -0.7948
  261MOL0     C35167   6.410   3.664   6.866  0.8611  0.7217  0.6140
  261MOL0     H35168   6.342   3.390   6.323  1.3733  2.9498 -0.6509
  261MOL0     H35169   6.486   3.237   6.178  3.1045  0.8111 -1.8961
  261MOL0     H35170   6.585   3.074   6.121 -1.4037 -0.2934  1.7343
  261MOL0     H35171   6.752   3.003   6.118 -0.3398  0.1216 -0.0299
  261MOL0     H35172   6.723   2.905   6.340  0.3288 -2.0605 -2.1211
  261MOL0     H35173   6.559   2.975   6.358  1.1861  0.2413  0.0192
  261MOL0     H35174   6.635   2.803   6.116 -4.2559 -1.1852 -1.6945
  261MOL0     H35175   6.591   2.735   6.284 -1.2093  0.7821  1.8272
  261MOL0     H35176   6.356   2.776   6.240 -0.1353 -2.0806 -0.1752
  261MOL0     H35177   6.407   2.911   6.130 -0.7458 -0.0589  0.8145
  261MOL0     H35178   6.497   2.700   5.989  0.3702 -0.2531  0.4724
  261MOL0     H35179   6.398   2.613   6.103  2.0513 -1.4882 -1.4017
  261MOL0     H35180   6.214   2.798   6.034  0.4226 -2.5659  1.6983
  261MOL0     H35181   6.331   2.796   5.889  0.2836  3.7771  1.2432
  261MOL0     H35182   6.134   2.646   5.852 -0.1550 -1.4864 -0.5950
  261MOL0     H35183   6.285   2.562   5.857 -1.3925  0.6508 -1.8050
  261MOL0     H35184   6.056   2.589   6.075 -0.9957  0.8425 -2.0209
  261MOL0     H35185   6.199   2.498   6.117  1.6532  1.0040 -0.1183
  261MOL0     H35186   5.955   2.500   5.796 -0.4494  0.3852 -1.0064
  261MOL0     H35187   5.909   2.259   5.643  1.9303  0.1036  1.0367
  261MOL0     H35188   5.886   2.115   5.753 -0.3490  0.9095  2.9859
  261MOL0     H35189   5.677   2.302   5.674  0.3105 -0.6067 -0.8912
  261MOL0     H35190   5.708   2.292   5.852  1.3932 -2.2967  1.3585
  261MOL0     H35191   5.663   2.059   5.862 -0.9205  0.1159  1.4890
  261MOL0     H35192   5.653   2.056   5.682  0.5035  0.3438  0.5284
  261MOL0     H35193   5.436   2.056   5.810 -2.7828  1.2835 -0.9896
  261MOL0     H35194   5.454   2.220   5.728 -3.3285 -0.3454  2.0766
  261MOL0     H35195   5.231   2.166   5.824 -0.8761  1.9736 -1.1450
  261MOL0     H35196   4.986   2.098   5.853  0.3983 -0.4934 -0.3116
  261MOL0     H35197   4.895   2.166   5.977 -0.1745  0.9485  0.7535
  261MOL0     H35198   4.943   2.273   5.846  0.0824 -2.1417 -1.4330
  261MOL0     H35199   4.756   2.128   6.229  2.2673  1.0294 -0.4509
  261MOL0     H35200   4.502   2.138   6.311  0.4264  0.9527 -0.3713
  261MOL0     H35201   4.284   2.467   6.295  2.0927  0.1151 -1.8393
  261MOL0     H35202   4.319   2.302   6.227  2.7759  1.5060  0.1235
  261MOL0     H35203   4.146   2.355   6.467  0.0154  2.3076 -2.2364
  261MOL0     H35204   4.090   2.360   6.312 -1.8465 -2.3136  0.0992
  261MOL0     H35205   4.247   2.120   6.421 -0.6467 -1.8909 -1.9751
  261MOL0     H35206   4.168   2.133   6.260  2.8832  0.3003 -0.2557
  261MOL0     H35207   4.029   2.144   6.537 -2.3605  2.2767 -0.4764
  261MOL0     H35208   3.960   2.123   6.367  0.1527 -2.6088 -0.7586
  261MOL0     H35209   4.131   1.914   6.513  1.6307 -1.5690 -2.3789
  261MOL0     H35210   4.083   1.919   6.338 -4.2612  3.2890 -2.4653
  261MOL0     H35211   3.859   1.953   6.501  1.6940  1.5655  0.1706
  261MOL0     H35212   3.891   1.846   6.359  2.7779 -1.5258 -1.4361
  261MOL0     H35213   3.831   1.719   6.553  0.1444 -2.5949 -2.4738
  261MOL0     H35214   3.960   1.787   6.650 -0.7320  1.8053 -0.2180
  261MOL0     H35215   4.129   1.680   6.468  0.3009  0.6600 -0.6995
  261MOL0     H35216   3.997   1.600   6.399  4.0212 -0.8254 -0.5312
  261MOL0     H35217   4.569   2.537   6.443 -2.4870 -1.8955  0.7840
  261MOL0     H35218   4.822   2.519   6.385  2.2693 -1.9572  2.6091
  261MOL0     H35219   5.227   2.410   6.246 -0.2350  1.1819 -1.3233
  261MOL0     H35220   5.428   2.342   6.169 -0.2795 -0.2009  0.7593
  261MOL0     H35221   6.799   3.278   6.478 -0.2834 -1.4443  0.3214
  261MOL0     H35222   6.654   3.408   6.604 -2.8113  0.1118  0.1517
  261MOL0     H35223   6.174   3.592   6.631 -1.4284 -1.5917  1.5253
  261MOL0     H35224   6.037   3.669   6.797  1.3309  0.7444 -2.2532
  261MOL0     H35225   6.233   3.671   7.211 -0.7396 -0.8677 -0.4432
  261MOL0     H35226   6.166   3.829   7.163  0.5842  0.5260  2.9465
  261MOL0     H35227   6.062   3.590   7.307  0.8054 -0.1016 -0.0209
  261MOL0     H35228   5.939   3.713   7.257 -2.5018 -4.2464  2.4095
  261MOL0     H35229   5.991   3.752   7.481  1.8300 -0.4266  1.5916
  261MOL0     H35230   6.091   3.877   7.396  0.8838  0.2860 -1.3035
  261MOL0     H35231   6.277   3.687   7.442  0.9591  3.3929 -0.8005
  261MOL0     H35232   6.149   3.597   7.517 -1.2103  0.3861 -2.0087
  261MOL0     H35233   6.190   3.916   7.799  1.4742  0.2235 -0.5871
  261MOL0     H35234   6.371   3.724   7.066 -0.5306 -0.5090 -0.5772
  261MOL0     H35235   6.513   3.661   6.900  1.1643 -2.7378 -0.2616
  262MOL0     O35236   9.325   6.037   3.625  0.1257 -0.0135 -0.2222
  262MOL0     C35237   9.250   5.944   3.593  0.1949 -0.3071  0.1643
  262MOL0     O35238   9.156   5.881   3.677 -0.3146  0.3881 -0.3736
  262MOL0     C35239   9.159   5.907   3.811  0.3418  0.2724 -0.2375
  262MOL0     C35240   9.235   5.815   3.880 -0.0044  0.4061  0.3544
  262MOL0     C35241   9.231   5.807   4.009  0.5883  1.2983 -0.2159
  262MOL0     C35242   9.162   5.902   4.083  0.5661 -0.1970 -0.6484
  262MOL0     O35243   9.138   5.902   4.216 -0.3282  0.0089  0.6690
  262MOL0     C35244   9.207   5.808   4.294  0.1702 -0.0225 -0.3240
  262MOL0     C35245   9.358   5.842   4.316 -0.1815  0.8181 -0.4783
  262MOL0     C35246   9.369   5.959   4.414  0.1879 -0.1706 -0.2025
  262MOL0     C35247   9.523   5.974   4.440  0.4846 -0.4323 -0.3126
  262MOL0     C35248   9.555   6.101   4.522  0.6600  0.8781  0.5683
  262MOL0     C35249   9.698   6.094   4.577  0.1728  0.6580 -0.0769
  262MOL0     C35250   9.722   6.191   4.688 -0.3630 -0.3154 -1.4406
  262MOL0     C35251   9.628   6.174   4.812 -0.6097  0.0586 -0.1447
  262MOL0     N35252   9.638   6.281   4.914 -0.8323 -0.5201 -0.3637
  262MOL0     C35253   9.647   6.264   5.054 -0.3380  0.1038 -0.4463
  262MOL0     C35254   9.639   6.389   5.115 -0.0535 -0.6880 -0.2345
  262MOL0     C35255   9.660   6.431   5.252  0.8152  0.9138 -0.0611
  262MOL0     C35256   9.816   6.464   5.281 -0.9074  0.2199  0.2288
  262MOL0     C35257   9.841   6.558   5.398  0.0479  0.2508 -0.2459
  262MOL0     C35258   9.988   6.561   5.441  0.2391  0.0731 -0.2344
  262MOL0     O35259  10.066   6.626   5.332 -0.2877  0.4401 -0.1766
  262MOL0     C35260  10.199   6.642   5.354  0.4546  0.2821 -0.4170
  262MOL0     C35261  10.280   6.639   5.244 -0.7208  1.4622  0.7527
  262MOL0     C35262  10.417   6.667   5.247 -0.5198 -0.0231 -0.7667
  262MOL0     C35263  10.491   6.691   5.123  0.5901 -0.4411  0.2913
  262MOL0     C35264  10.469   6.682   5.382  0.3386  0.8264  0.5055
  262MOL0     C35265  10.619   6.686   5.418 -0.2466 -0.2265 -0.3447
  262MOL0     O35266  10.698   6.719   5.318 -0.5184 -0.2025 -0.2847
  262MOL0     C35267  10.812   6.778   5.365 -0.0689  0.7349 -0.1939
  262MOL0     C35268  10.930   6.724   5.332  0.0920 -0.7442 -0.1891
  262MOL0     C35269  11.049   6.785   5.375  0.5226 -0.4724 -0.8882
  262MOL0     C35270  11.039   6.899   5.462 -0.6561 -0.3930 -0.0459
  262MOL0     O35271  11.151   6.972   5.491  0.3341 -0.7939 -0.5741
  262MOL0     C35272  11.233   6.927   5.599  0.4801  0.1494 -0.9320
  262MOL0     C35273  11.350   7.023   5.611 -1.4362  0.4993 -1.4400
  262MOL0     C35274  11.464   6.955   5.701 -1.1157  1.5225 -0.8637
  262MOL0     C35275  11.613   6.976   5.654 -0.1488 -0.1019  0.0420
  262MOL0     C35276  11.714   6.924   5.767  1.1611  0.3732  0.1673
  262MOL0     C35277  11.856   6.948   5.727  1.0431  0.3501  0.0370
  262MOL0     C35278  11.907   6.862   5.606  0.7592 -0.8103  0.2180
  262MOL0     C35279  12.022   6.923   5.539 -1.4108 -1.0072  0.1477
  262MOL0    Cl35280  12.006   7.097   5.503 -0.4009  0.6333 -0.0443
  262MOL0     C35281  10.917   6.952   5.502 -0.2941 -0.3077  0.3510
  262MOL0     C35282  10.803   6.883   5.457  0.2258 -0.1542  0.4151
  262MOL0     O35283  10.662   6.653   5.533 -0.0313  0.1384 -0.0421
  262MOL0     C35284  10.384   6.674   5.494  0.5849  0.2074  1.3231
  262MOL0     C35285  10.255   6.661   5.478  0.3281  0.0817  0.1570
  262MOL0     N35286   9.634   6.483   5.002 -0.1752  0.4351 -0.2650
  262MOL0     N35287   9.631   6.419   4.888 -0.4002 -0.0829 -0.5201
  262MOL0     C35288   9.106   6.009   4.018  0.0859  0.1044  0.2122
  262MOL0     C35289   9.083   6.004   3.877 -0.4355  0.6671  0.2306
  262MOL0     C35290   9.234   5.912   3.444  0.2122 -0.0104  0.4755
  262MOL0     C35291   9.164   5.802   3.399  0.9491  0.0890  0.0062
  262MOL0     C35292   9.142   5.788   3.259 -0.0669 -0.0881 -0.1018
  262MOL0     C35293   9.187   5.884   3.170  0.3070 -0.3882 -0.3511
  262MOL0     O35294   9.168   5.862   3.034  0.0618  0.1147 -0.0521
  262MOL0     C35295   9.044   5.796   2.975 -0.5211 -0.2981  0.5980
  262MOL0     C35296   9.012   5.872   2.847 -0.0929 -0.8487  0.3070
  262MOL0     C35297   8.897   5.807   2.766  0.0000 -0.8615 -0.4140
  262MOL0     C35298   8.843   5.899   2.662 -0.8082  0.9301  0.4969
  262MOL0     C35299   8.740   5.826   2.578 -0.4074  0.0681  0.0973
  262MOL0     C35300   8.667   5.780   2.494 -0.8039 -0.0322  0.1292
  262MOL0     C35301   9.254   5.995   3.211  0.2469 -0.1603  0.1811
  262MOL0     C35302   9.281   6.008   3.347 -0.2158 -0.7093 -0.6995
  262MOL0     H35303   9.277   5.734   3.821  1.1591  1.5207 -0.3886
  262MOL0     H35304   9.287   5.722   4.045  1.0484  0.0181 -3.5546
  262MOL0     H35305   9.163   5.791   4.393 -3.0802 -2.1062 -1.9732
  262MOL0     H35306   9.210   5.709   4.248  1.7659 -0.4347  0.5673
  262MOL0     H35307   9.409   5.755   4.360  4.0505  3.3810  0.3135
  262MOL0     H35308   9.403   5.861   4.219  1.7769  2.0653  0.6013
  262MOL0     H35309   9.326   6.050   4.372  0.7106  0.1449 -0.0557
  262MOL0     H35310   9.305   5.953   4.503 -1.7165  1.0999 -1.4108
  262MOL0     H35311   9.568   5.884   4.482  1.6521  0.3135  0.0923
  262MOL0     H35312   9.574   5.981   4.343 -1.4354 -0.7735 -1.3965
  262MOL0     H35313   9.528   6.182   4.454 -0.5346 -1.2607 -1.6821
  262MOL0     H35314   9.494   6.082   4.611  2.4907 -2.2637  1.3067
  262MOL0     H35315   9.690   5.993   4.620 -2.6983  0.4778 -0.7997
  262MOL0     H35316   9.771   6.110   4.498 -1.1890  2.7731 -0.9839
  262MOL0     H35317   9.823   6.170   4.722 -0.7125 -2.0709 -1.3763
  262MOL0     H35318   9.735   6.290   4.645  3.2914 -0.4529 -0.9630
  262MOL0     H35319   9.642   6.079   4.863 -0.3931  0.5156  0.6586
  262MOL0     H35320   9.532   6.188   4.761  1.0465  3.3123 -2.7912
  262MOL0     H35321   9.663   6.173   5.111  3.1845  1.3128  0.7434
  262MOL0     H35322   9.610   6.524   5.280 -3.9625 -0.5049 -2.8172
  262MOL0     H35323   9.624   6.364   5.331 -0.4701  4.0213  2.1994
  262MOL0     H35324   9.858   6.518   5.195  0.2683  0.4451  0.9197
  262MOL0     H35325   9.864   6.367   5.298  1.2360  1.2590  0.5318
  262MOL0     H35326   9.766   6.533   5.474  0.6249 -0.5972  0.0510
  262MOL0     H35327   9.820   6.663   5.372  0.5173 -0.5881 -4.8850
  262MOL0     H35328  10.018   6.457   5.455 -3.1677 -0.5680  6.7581
  262MOL0     H35329  10.011   6.604   5.539  1.2860  0.1466 -0.4952
  262MOL0     H35330  10.232   6.628   5.147  0.8969 -0.9449  0.1470
  262MOL0     H35331  10.431   6.688   5.032  0.1035  1.8671  0.4555
  262MOL0     H35332  10.552   6.782   5.127  0.5879 -0.3804 -0.8031
  262MOL0     H35333  10.571   6.618   5.117  1.6291  0.7549 -1.3242
  262MOL0     H35334  10.953   6.650   5.256  1.7571  2.5898 -3.2671
  262MOL0     H35335  11.145   6.753   5.334  0.6106 -0.3857 -0.7526
  262MOL0     H35336  11.166   6.923   5.685  0.6375 -0.7022 -0.8386
  262MOL0     H35337  11.273   6.829   5.574  0.6565 -0.1546  0.4783
  262MOL0     H35338  11.386   7.050   5.511 -0.5533  1.2157 -0.9504
  262MOL0     H35339  11.308   7.114   5.653 -0.5910  1.8930 -3.4745
  262MOL0     H35340  11.455   6.846   5.698  0.2815  1.2759  1.3934
  262MOL0     H35341  11.460   6.989   5.805 -1.6608 -0.8969 -0.0118
  262MOL0     H35342  11.618   6.916   5.563 -0.6191 -1.1404  0.6828
  262MOL0     H35343  11.639   7.077   5.622  0.3448 -0.5423 -0.9696
  262MOL0     H35344  11.692   6.817   5.778 -0.8830  0.8219  1.0723
  262MOL0     H35345  11.685   6.967   5.863  1.1867 -0.9162  0.7812
  262MOL0     H35346  11.877   7.054   5.713  0.3382  0.2380 -2.1803
  262MOL0     H35347  11.922   6.915   5.808  1.1207 -0.3280 -0.2959
  262MOL0     H35348  11.824   6.838   5.539  0.4462  3.3691 -1.2159
  262MOL0     H35349  11.945   6.762   5.629 -0.6160 -2.1338 -2.8158
  262MOL0     H35350  12.029   6.865   5.447 -1.3593  0.9902 -1.1667
  262MOL0     H35351  12.102   6.898   5.609 -0.2836  0.5592 -0.5389
  262MOL0     H35352  10.916   7.037   5.569  0.7071 -0.7886  1.0126
  262MOL0     H35353  10.700   6.912   5.473 -0.3247 -0.0571 -2.7623
  262MOL0     H35354  10.424   6.685   5.594  3.9983  1.6029 -0.0316
  262MOL0     H35355  10.187   6.675   5.561 -0.1281  1.1140 -0.3600
  262MOL0     H35356   9.068   6.094   4.073  0.6529  0.4833  0.0244
  262MOL0     H35357   9.023   6.072   3.818 -0.5919 -0.4830 -0.9843
  262MOL0     H35358   9.116   5.725   3.458  2.8138 -2.4195 -1.5591
  262MOL0     H35359   9.093   5.697   3.228 -0.2285 -0.2665  0.6394
  262MOL0     H35360   9.078   5.694   2.952  0.4709  0.9259 -4.3736
  262MOL0     H35361   8.961   5.785   3.046 -3.3167 -1.9306 -2.6746
  262MOL0     H35362   9.099   5.903   2.788 -0.5370  1.7302  0.8598
  262MOL0     H35363   8.970   5.971   2.870  2.4640  0.8959 -1.8991
  262MOL0     H35364   8.818   5.801   2.842 -1.5480  1.2487 -1.7632
  262MOL0     H35365   8.917   5.707   2.726 -0.5364  0.3527 -4.0393
  262MOL0     H35366   8.922   5.935   2.596  1.7166 -3.2471  0.8286
  262MOL0     H35367   8.798   5.986   2.711 -0.1510  0.4830  1.9486
  262MOL0     H35368   8.605   5.738   2.417 -0.3315 -0.5157  0.0074
  262MOL0     H35369   9.285   6.075   3.143 -3.7562  1.3089 -0.1726
  262MOL0     H35370   9.320   6.099   3.392 -4.7658  1.1039  0.1450
  263MOL0     O35371  11.105   9.265   9.876 -0.0521 -0.8400 -0.1303
  263MOL0     C35372  11.199   9.267   9.802 -0.2840  0.1842  0.5066
  263MOL0     O35373  11.317   9.341   9.821  0.1285 -0.2598  1.4132
  263MOL0     C35374  11.362   9.361   9.951  1.2396 -0.4544 -0.6247
  263MOL0     C35375  11.317   9.472  10.024 -0.1121 -1.1040  0.2045
  263MOL0     C35376  11.362   9.501  10.154 -1.0491 -1.2586 -0.8039
  263MOL0     C35377  11.458   9.416  10.212  0.7067 -0.5335 -0.7985
  263MOL0     O35378  11.514   9.448  10.335 -0.5866 -0.2142  0.2591
  263MOL0     C35379  11.613   9.546  10.329 -0.0851  0.4009 -0.8153
  263MOL0     C35380  11.700   9.568  10.454  0.6444 -0.3132 -0.7357
  263MOL0     C35381  11.632   9.668  10.552 -0.8048 -0.5609 -0.5741
  263MOL0     C35382  11.696   9.812  10.559  0.9446 -0.1372 -0.3901
  263MOL0     C35383  11.753   9.864  10.429 -0.0964 -1.1038  0.2845
  263MOL0     C35384  11.787  10.012  10.422 -0.5095 -1.3873 -0.6213
  263MOL0     C35385  11.841  10.055  10.292 -0.1982 -0.8250  0.0823
  263MOL0     C35386  11.863  10.208  10.278 -0.1754  0.7860  0.1484
  263MOL0     N35387  12.004  10.248  10.319 -0.1675 -0.2667  0.2672
  263MOL0     C35388  12.125  10.229  10.248  0.0955  1.0297  0.2853
  263MOL0     C35389  12.213  10.297  10.331 -0.1929  0.2703 -0.2525
  263MOL0     C35390  12.362  10.317  10.300 -0.5823  0.0656  0.1811
  263MOL0     C35391  12.367  10.434  10.198  0.3730 -0.5498 -0.0362
  263MOL0     C35392  12.462  10.553  10.243 -0.1592  0.1844 -0.9460
  263MOL0     C35393  12.606  10.495  10.234 -0.5188 -0.7062 -0.8341
  263MOL0     O35394  12.697  10.593  10.286 -0.1190  0.5932 -0.9159
  263MOL0     C35395  12.784  10.667  10.203 -0.3390 -0.0897 -0.0438
  263MOL0     C35396  12.751  10.718  10.074  0.2957 -0.1361  0.7422
  263MOL0     C35397  12.829  10.798  10.002 -0.7225 -0.0519 -0.0822
  263MOL0     C35398  12.792  10.807   9.853  0.2345  0.5921  0.1746
  263MOL0     C35399  12.948  10.848  10.061  0.1293 -0.1144 -0.4116
  263MOL0     C35400  13.033  10.938   9.991 -0.2195  0.0292 -0.3337
  263MOL0     O35401  13.163  10.931  10.032  0.5316  0.1930 -0.4728
  263MOL0     C35402  13.254  11.002   9.962 -0.2923 -0.1408  0.2018
  263MOL0     C35403  13.250  11.144   9.948 -1.0066 -0.7053  0.0994
  263MOL0     C35404  13.354  11.216   9.895 -0.4011  0.3416  1.2369
  263MOL0     C35405  13.467  11.141   9.836 -0.8199 -0.3056 -0.1479
  263MOL0     O35406  13.570  11.205   9.769  0.5178  0.2566 -0.0359
  263MOL0     C35407  13.672  11.248   9.850 -0.2820 -0.1395 -0.6176
  263MOL0     C35408  13.807  11.262   9.768  0.0059 -1.0863  0.9633
  263MOL0     C35409  13.810  11.359   9.656  0.5376  0.0219  0.7198
  263MOL0     C35410  13.835  11.508   9.689  0.6507 -0.0161  0.6924
  263MOL0     C35411  13.834  11.586   9.554  0.7859 -0.2962  0.1635
  263MOL0     C35412  13.960  11.581   9.475 -0.0986 -0.7685  0.5613
  263MOL0     C35413  13.950  11.687   9.354 -0.3717 -0.1754 -0.0706
  263MOL0     C35414  14.065  11.668   9.251 -0.6978  0.1923  1.2247
  263MOL0    Cl35415  14.221  11.669   9.352 -0.2016 -0.7761 -0.0291
  263MOL0     C35416  13.466  11.002   9.836  0.5807  0.9832 -0.1378
  263MOL0     C35417  13.361  10.931   9.905  0.1359  0.0289  1.1084
  263MOL0     O35418  12.983  11.026   9.923  0.1664 -0.5752 -0.4874
  263MOL0     C35419  12.984  10.793  10.191 -0.3299 -0.4112  0.3268
  263MOL0     C35420  12.907  10.699  10.256 -0.4048  0.7614  0.7925
  263MOL0     N35421  12.143  10.350  10.443 -0.3145  0.4833 -0.6936
  263MOL0     N35422  12.018  10.325  10.433  0.0000  0.7757  0.7827
  263MOL0     C35423  11.503   9.309  10.143 -0.3882  1.4054  0.3125
  263MOL0     C35424  11.455   9.283  10.012 -0.4278  0.6482  1.0694
  263MOL0     C35425  11.175   9.206   9.673  0.1375 -0.4110  0.5697
  263MOL0     C35426  11.072   9.121   9.643  0.0168 -0.6577  0.3596
  263MOL0     C35427  11.041   9.090   9.508  0.1568 -0.0684  0.2151
  263MOL0     C35428  11.120   9.139   9.406 -0.7449  0.1001 -0.2125
  263MOL0     O35429  11.074   9.104   9.280 -0.3927 -0.2463 -0.0730
  263MOL0     C35430  11.171   9.094   9.169  1.2373  0.6237 -0.7816
  263MOL0     C35431  11.224   9.229   9.108 -0.2317  0.3582 -0.0215
  263MOL0     C35432  11.103   9.309   9.064  0.3714  0.9550  0.0889
  263MOL0     C35433  11.143   9.431   8.984 -0.0025 -0.4446  0.8799
  263MOL0     C35434  11.220   9.399   8.866 -0.3543  0.3384 -1.0756
  263MOL0     C35435  11.276   9.370   8.761 -0.2707 -0.4898 -0.2613
  263MOL0     C35436  11.230   9.212   9.438  0.4514  0.6018  0.5325
  263MOL0     C35437  11.252   9.247   9.571  0.1083 -1.0021  0.9135
  263MOL0     H35438  11.235   9.521   9.972  0.7095  1.1655  0.8871
  263MOL0     H35439  11.341   9.592  10.209 -0.8497 -0.8104 -1.4599
  263MOL0     H35440  11.684   9.513  10.253  1.6317 -0.2834  0.9863
  263MOL0     H35441  11.570   9.644  10.308  1.1724  2.1613  3.4998
  263MOL0     H35442  11.724   9.482  10.517  1.9247  3.2675  4.2386
  263MOL0     H35443  11.799   9.605  10.426  0.5319  1.7481  1.3221
  263MOL0     H35444  11.530   9.678  10.513 -0.8521  0.1728 -0.2790
  263MOL0     H35445  11.619   9.621  10.649 -0.7164 -1.6138 -1.0628
  263MOL0     H35446  11.624   9.893  10.578 -0.3983 -0.3179 -3.9181
  263MOL0     H35447  11.768   9.815  10.641 -0.2475  0.2123  0.6709
  263MOL0     H35448  11.840   9.801  10.409  0.9860  0.4982 -0.2875
  263MOL0     H35449  11.682   9.857  10.345  1.1714  1.7744 -1.1749
  263MOL0     H35450  11.692  10.062  10.442 -0.2780 -0.9812 -0.5216
  263MOL0     H35451  11.861  10.036  10.498  1.6519 -0.0318 -2.9876
  263MOL0     H35452  11.936  10.008  10.263  0.6331  0.8290  0.0158
  263MOL0     H35453  11.778  10.027  10.207  0.7633  0.5747 -1.1571
  263MOL0     H35454  11.792  10.256  10.345 -0.6990  1.2390 -0.7078
  263MOL0     H35455  11.846  10.254  10.180 -0.2520 -0.7391 -0.5756
  263MOL0     H35456  12.139  10.173  10.156  0.3196  0.2766  0.7666
  263MOL0     H35457  12.419  10.328  10.392 -0.4033 -4.5211  0.8596
  263MOL0     H35458  12.407  10.232  10.247  0.9056  1.1328 -0.3331
  263MOL0     H35459  12.275  10.494  10.196  0.0243 -1.0733  0.1284
  263MOL0     H35460  12.393  10.405  10.096 -0.5502  0.9626 -0.7352
  263MOL0     H35461  12.445  10.573  10.349  0.4577 -1.3066 -0.5381
  263MOL0     H35462  12.470  10.639  10.175  1.7092  0.2417 -0.7083
  263MOL0     H35463  12.622  10.479  10.127  1.3425  0.0830 -0.6978
  263MOL0     H35464  12.614  10.407  10.298 -2.1170  0.3444  0.9085
  263MOL0     H35465  12.657  10.686  10.031  0.9873 -2.6908  0.9973
  263MOL0     H35466  12.813  10.906   9.810 -0.7411  2.1274  2.9588
  263MOL0     H35467  12.833  10.718   9.805 -0.4588  0.0023  0.6515
  263MOL0     H35468  12.685  10.794   9.831  0.9779 -2.2834 -2.3910
  263MOL0     H35469  13.164  11.202   9.978  0.3647  1.5078 -0.0557
  263MOL0     H35470  13.364  11.324   9.892  1.4493  0.1877 -0.0161
  263MOL0     H35471  13.634  11.342   9.888  0.3609 -0.1264  0.0257
  263MOL0     H35472  13.686  11.175   9.930 -1.1957 -1.3754 -1.5341
  263MOL0     H35473  13.885  11.293   9.838  0.5840 -1.0273  0.3131
  263MOL0     H35474  13.839  11.165   9.728  3.5830  0.0012  0.7740
  263MOL0     H35475  13.718  11.349   9.597 -1.0159  0.6267  2.8859
  263MOL0     H35476  13.887  11.319   9.590 -1.0176  1.7208 -2.3495
  263MOL0     H35477  13.759  11.522   9.766  2.7076 -4.3074  3.9114
  263MOL0     H35478  13.932  11.514   9.739  1.5075 -2.3905 -0.5704
  263MOL0     H35479  13.808  11.690   9.580  4.1153  0.2599  1.7334
  263MOL0     H35480  13.749  11.553   9.493  1.9559 -1.5707 -0.8389
  263MOL0     H35481  14.035  11.609   9.550  0.3379  0.6099 -0.3510
  263MOL0     H35482  13.984  11.478   9.448  2.5515 -0.9434  3.1070
  263MOL0     H35483  13.947  11.790   9.391  1.5148  0.1411 -0.6906
  263MOL0     H35484  13.856  11.668   9.302 -1.2536 -0.3291  1.4979
  263MOL0     H35485  14.063  11.754   9.183 -0.4531 -1.0495 -0.4027
  263MOL0     H35486  14.067  11.577   9.190  2.3938 -1.9035  4.0782
  263MOL0     H35487  13.549  10.960   9.781  0.0910  1.1247 -0.9999
  263MOL0     H35488  13.380  10.824   9.915  0.6548  0.1287  1.2325
  263MOL0     H35489  13.078  10.824  10.234 -1.4649 -0.2433  2.8253
  263MOL0     H35490  12.932  10.658  10.354  0.1346  0.3762  0.4994
  263MOL0     H35491  11.580   9.237  10.169 -0.1786  0.8888 -1.6120
  263MOL0     H35492  11.499   9.202   9.955  0.6191  3.0621 -1.7893
  263MOL0     H35493  11.023   9.082   9.732 -3.4961 -0.9408 -1.5312
  263MOL0     H35494  10.963   9.019   9.485 -0.5084  0.2023  1.5234
  263MOL0     H35495  11.258   9.030   9.187  1.1417  0.3901 -1.1489
  263MOL0     H35496  11.127   9.037   9.087  1.5697  1.9698 -1.9271
  263MOL0     H35497  11.279   9.195   9.020  2.1078 -0.0178  1.4964
  263MOL0     H35498  11.279   9.300   9.169  1.9976 -0.3627 -1.0903
  263MOL0     H35499  11.039   9.342   9.147  1.0835 -0.9479  1.4902
  263MOL0     H35500  11.044   9.243   9.000 -0.1423  0.8191  0.6951
  263MOL0     H35501  11.215   9.479   9.050 -2.1658 -0.2317  3.2399
  263MOL0     H35502  11.058   9.496   8.964  0.0902 -0.1041  1.5771
  263MOL0     H35503  11.319   9.338   8.669  0.2072 -0.0067 -0.2134
  263MOL0     H35504  11.296   9.258   9.366  0.0552  0.5053  0.0995
  263MOL0     H35505  11.342   9.301   9.598 -1.0489  1.0070  0.9366
  264MOL0     O35506   2.911   3.435  10.262  0.5695 -0.3229 -1.0313
  264MOL0     C35507   2.852   3.490  10.351 -0.2945 -0.6989  1.2511
  264MOL0     O35508   2.881   3.612  10.401  0.0068 -0.0850  0.1250
  264MOL0     C35509   2.989   3.677  10.351  0.3898 -1.0169 -0.5049
  264MOL0     C35510   3.100   3.705  10.427 -0.4324  0.8830 -0.2885
  264MOL0     C35511   3.204   3.771  10.367  0.1722 -0.2201 -0.8994
  264MOL0     C35512   3.205   3.818  10.233  0.6477  0.1433  0.6865
  264MOL0     O35513   3.301   3.886  10.157  0.3777 -0.1858  0.0572
  264MOL0     C35514   3.397   3.968  10.226 -0.1256  0.7347 -1.4368
  264MOL0     C35515   3.453   4.077  10.137 -0.6013 -1.1187 -1.2464
  264MOL0     C35516   3.551   4.170  10.207  1.1028 -0.5533  0.2859
  264MOL0     C35517   3.582   4.307  10.131  0.9337  0.4496 -0.5388
  264MOL0     C35518   3.462   4.411  10.143 -0.5916 -0.8079 -0.5748
  264MOL0     C35519   3.492   4.533  10.051  0.1465  0.1936  0.6192
  264MOL0     C35520   3.386   4.646  10.065 -0.5826  0.5466  0.4297
  264MOL0     C35521   3.413   4.776   9.990  0.9824  0.0794 -0.5404
  264MOL0     N35522   3.340   4.790   9.857  0.0279 -0.6101  0.8090
  264MOL0     C35523   3.382   4.734   9.742  0.2517  0.1147 -0.3911
  264MOL0     C35524   3.301   4.771   9.643  0.1448 -0.8433  0.6502
  264MOL0     C35525   3.302   4.714   9.510 -0.5706  0.0607  0.3031
  264MOL0     C35526   3.326   4.816   9.402  0.1969  0.0666  0.5072
  264MOL0     C35527   3.368   4.744   9.270  0.1734 -0.4679 -0.4253
  264MOL0     C35528   3.325   4.821   9.146 -0.6664  0.0727 -1.1686
  264MOL0     O35529   3.359   4.731   9.041  0.4352 -0.3581 -0.0821
  264MOL0     C35530   3.396   4.791   8.924  0.2033  0.4311  0.7808
  264MOL0     C35531   3.312   4.890   8.859 -0.3307  0.5745  0.2502
  264MOL0     C35532   3.354   4.941   8.736 -0.4185 -0.7472  0.2438
  264MOL0     C35533   3.254   5.038   8.669 -0.5228  0.6178 -0.1922
  264MOL0     C35534   3.478   4.897   8.679 -0.6329  0.1857 -0.3606
  264MOL0     C35535   3.535   4.942   8.550  0.4508 -0.7460  0.1008
  264MOL0     O35536   3.488   5.067   8.496 -0.4257 -0.3838  0.3774
  264MOL0     C35537   3.548   5.117   8.381 -0.2636  0.2286 -0.3422
  264MOL0     C35538   3.498   5.078   8.249 -0.6339 -0.0469 -0.3400
  264MOL0     C35539   3.564   5.123   8.139  0.2114  0.3145  0.9350
  264MOL0     C35540   3.654   5.234   8.147 -1.3257  0.5231  0.1613
  264MOL0     O35541   3.706   5.276   8.029  0.4546 -0.4116  0.0424
  264MOL0     C35542   3.817   5.368   8.023  0.0930  0.3582  0.5530
  264MOL0     C35543   3.835   5.375   7.871 -0.1153 -0.0143  0.2636
  264MOL0     C35544   3.936   5.504   7.840  0.2450 -0.6676  0.9473
  264MOL0     C35545   3.939   5.540   7.684  0.1537  0.1171  0.4795
  264MOL0     C35546   4.008   5.663   7.652  0.7539 -0.2309  0.1788
  264MOL0     C35547   4.158   5.678   7.680  1.4097 -0.0255  1.1533
  264MOL0     C35548   4.192   5.822   7.656  0.3513  0.3416 -0.7306
  264MOL0     C35549   4.334   5.853   7.662 -1.4871 -0.0559  0.2682
  264MOL0    Cl35550   4.437   5.751   7.554  0.3826 -0.0647  0.1744
  264MOL0     C35551   3.685   5.288   8.262 -0.0610  0.3905 -1.0328
  264MOL0     C35552   3.640   5.225   8.385 -1.0669 -0.9492  0.3409
  264MOL0     O35553   3.622   4.866   8.495  0.1965  0.3185 -0.0079
  264MOL0     C35554   3.554   4.797   8.751 -0.8187 -0.8919 -0.3134
  264MOL0     C35555   3.517   4.748   8.869  0.2393 -0.7732  0.5816
  264MOL0     N35556   3.207   4.856   9.703  1.0946 -0.3196 -0.3047
  264MOL0     N35557   3.242   4.879   9.831 -0.7733  1.0800  0.8631
  264MOL0     C35558   3.090   3.783  10.157 -0.1534  0.0033  0.4095
  264MOL0     C35559   2.991   3.712  10.216 -0.2217 -0.7332  0.0822
  264MOL0     C35560   2.746   3.397  10.409 -0.2072  0.2825 -0.4298
  264MOL0     C35561   2.647   3.441  10.482  1.5724  0.0692  0.4299
  264MOL0     C35562   2.536   3.372  10.521 -0.8090  0.0275  1.1775
  264MOL0     C35563   2.548   3.227  10.505 -0.1239 -0.5805  0.1895
  264MOL0     O35564   2.452   3.146  10.542  0.3698 -0.4098  0.3161
  264MOL0     C35565   2.412   3.168  10.680 -0.8723 -0.0179 -0.6247
  264MOL0     C35566   2.331   3.050  10.744  0.2594  0.4692 -0.1476
  264MOL0     C35567   2.182   3.047  10.711  0.3528 -0.3073 -0.4175
  264MOL0     C35568   2.106   2.917  10.765 -0.0685  0.6566  0.3319
  264MOL0     C35569   1.965   2.930  10.719 -0.1749  0.1221  0.8894
  264MOL0     C35570   1.850   2.931  10.676 -0.6712 -0.0978 -0.5444
  264MOL0     C35571   2.668   3.166  10.445 -0.3757  0.2481 -0.5958
  264MOL0     C35572   2.758   3.257  10.386 -0.0015 -0.0757 -0.3446
  264MOL0     H35573   3.097   3.683  10.533  0.5410  1.4071 -0.1443
  264MOL0     H35574   3.293   3.783  10.428 -0.5298 -1.7565  0.5435
  264MOL0     H35575   3.359   4.018  10.315  1.2730 -1.1222  0.2950
  264MOL0     H35576   3.482   3.904  10.251 -1.8655 -1.2055 -0.1622
  264MOL0     H35577   3.507   4.038  10.050  2.7457  4.6815 -2.3546
  264MOL0     H35578   3.364   4.136  10.116  0.0611  0.5733  0.4054
  264MOL0     H35579   3.505   4.212  10.298 -1.0327  1.3194 -1.5454
  264MOL0     H35580   3.640   4.113  10.233  0.2853 -0.9419  2.5693
  264MOL0     H35581   3.671   4.356  10.170 -1.2304  3.2108  1.3653
  264MOL0     H35582   3.592   4.282  10.025  0.5068 -1.4634 -0.1663
  264MOL0     H35583   3.373   4.358  10.107 -1.1343 -1.0864  1.0917
  264MOL0     H35584   3.454   4.454  10.243  0.0302 -2.0960  0.0478
  264MOL0     H35585   3.590   4.579  10.065  1.4629 -2.2262 -0.1240
  264MOL0     H35586   3.496   4.495   9.948  0.3839 -1.4984  1.2283
  264MOL0     H35587   3.285   4.606  10.051 -0.7825  0.7173  1.3049
  264MOL0     H35588   3.387   4.689  10.166 -0.1843 -1.2987  1.2689
  264MOL0     H35589   3.522   4.783   9.978  1.3135  0.6200  2.0792
  264MOL0     H35590   3.391   4.865  10.050 -1.9908  0.6995 -2.3525
  264MOL0     H35591   3.444   4.646   9.748  2.9694  1.9853  2.7266
  264MOL0     H35592   3.371   4.629   9.511  0.3676  0.7889  1.9216
  264MOL0     H35593   3.205   4.665   9.492 -0.3206 -2.1985  4.0278
  264MOL0     H35594   3.404   4.880   9.443 -1.0455  0.9265  1.6000
  264MOL0     H35595   3.237   4.878   9.386  2.0143  2.5094 -0.8740
  264MOL0     H35596   3.322   4.645   9.271  2.6930 -1.7617 -1.6629
  264MOL0     H35597   3.476   4.724   9.263  0.1576 -1.0419  0.7660
  264MOL0     H35598   3.386   4.911   9.133  1.0948 -1.3074 -3.0026
  264MOL0     H35599   3.223   4.860   9.149  0.3595  2.9185  0.1211
  264MOL0     H35600   3.215   4.921   8.898 -1.6506 -0.1404 -2.2223
  264MOL0     H35601   3.240   4.996   8.568  0.4383  0.2691 -0.1901
  264MOL0     H35602   3.156   5.033   8.718 -0.4421  1.0324  0.0129
  264MOL0     H35603   3.297   5.138   8.671  1.0230 -0.0125  2.4575
  264MOL0     H35604   3.421   5.002   8.239  0.3137 -0.9374 -1.1682
  264MOL0     H35605   3.543   5.081   8.041 -2.1963  1.5021  0.8825
  264MOL0     H35606   3.792   5.468   8.060 -3.3749  0.6315 -2.0521
  264MOL0     H35607   3.905   5.327   8.074  1.3942  2.5123  0.2040
  264MOL0     H35608   3.876   5.282   7.830  1.9627  1.1769 -0.4843
  264MOL0     H35609   3.740   5.395   7.821  1.4437  2.7888 -1.8441
  264MOL0     H35610   4.041   5.478   7.858  0.0884 -3.5709 -1.3999
  264MOL0     H35611   3.905   5.593   7.894  1.2425 -0.0455  0.5180
  264MOL0     H35612   3.969   5.455   7.622  1.2675  0.2547  0.8004
  264MOL0     H35613   3.834   5.555   7.657  0.9654  0.8981 -2.7137
  264MOL0     H35614   3.960   5.740   7.714 -0.7187  0.3714 -1.6236
  264MOL0     H35615   3.972   5.691   7.553 -1.7502 -3.2859  0.0495
  264MOL0     H35616   4.175   5.660   7.786  0.9211  0.2196  1.2776
  264MOL0     H35617   4.209   5.618   7.603  2.0316  0.5515  1.1067
  264MOL0     H35618   4.137   5.882   7.729  0.8761  0.9785 -0.8463
  264MOL0     H35619   4.149   5.853   7.560 -1.5717 -1.5317 -0.5304
  264MOL0     H35620   4.373   5.838   7.764 -0.6660 -0.8424 -0.1460
  264MOL0     H35621   4.348   5.957   7.632  0.6322 -0.6496 -0.9810
  264MOL0     H35622   3.754   5.372   8.268 -0.8196  0.9314  2.9987
  264MOL0     H35623   3.684   5.260   8.478  4.3203 -2.5572 -1.2189
  264MOL0     H35624   3.645   4.756   8.709 -1.1732 -1.1253 -0.8780
  264MOL0     H35625   3.572   4.673   8.925 -1.3300 -1.5566  1.1264
  264MOL0     H35626   3.093   3.813  10.053  0.0062  0.8836  0.6586
  264MOL0     H35627   2.900   3.697  10.160 -0.6509 -1.1752  0.8767
  264MOL0     H35628   2.635   3.548  10.495  0.4941  0.0752 -0.4854
  264MOL0     H35629   2.444   3.408  10.566 -2.3709 -3.4220  1.0745
  264MOL0     H35630   2.507   3.180  10.733 -0.1194 -5.3335 -0.2018
  264MOL0     H35631   2.346   3.255  10.690 -2.4242 -1.3547  1.8796
  264MOL0     H35632   2.351   3.050  10.851  2.7581 -1.2395 -0.5162
  264MOL0     H35633   2.372   2.955  10.708 -1.6553 -0.2027 -0.6878
  264MOL0     H35634   2.172   3.057  10.603  0.9083  0.5068 -0.4040
  264MOL0     H35635   2.134   3.134  10.758 -1.4123  0.0566 -2.7419
  264MOL0     H35636   2.117   2.898  10.872  3.6453  0.5936  0.0694
  264MOL0     H35637   2.163   2.842  10.711  2.0978  1.4171  1.4213
  264MOL0     H35638   1.749   2.916  10.644 -1.1677 -1.9196  1.6173
  264MOL0     H35639   2.676   3.061  10.419 -0.4627  0.2501 -0.6308
  264MOL0     H35640   2.839   3.212  10.329  1.8276  1.4258  0.9319
  265MOL0     O35641   4.095   3.370   7.683 -0.4312 -0.8161  0.1266
  265MOL0     C35642   4.029   3.374   7.784 -0.2871 -0.5120  0.9842
  265MOL0     O35643   4.075   3.380   7.913  0.2881  0.8038 -0.2448
  265MOL0     C35644   4.201   3.402   7.954 -0.2624 -0.6963 -0.4311
  265MOL0     C35645   4.316   3.423   7.875 -0.4703 -0.7898  0.4019
  265MOL0     C35646   4.438   3.453   7.936  0.0525 -0.2626 -0.6583
  265MOL0     C35647   4.441   3.471   8.080  0.4468 -0.6279  0.3408
  265MOL0     O35648   4.544   3.509   8.147  0.5472 -0.5944 -0.1867
  265MOL0     C35649   4.664   3.534   8.086 -0.2894 -0.3369  0.3351
  265MOL0     C35650   4.661   3.668   8.007  0.5435  0.6627  0.7327
  265MOL0     C35651   4.661   3.802   8.078  0.1981  0.3823  0.4183
  265MOL0     C35652   4.721   3.918   7.982 -0.9248 -0.6506 -0.2209
  265MOL0     C35653   4.640   3.950   7.860  1.6443  0.0725  0.1684
  265MOL0     C35654   4.722   3.952   7.731 -0.1173  0.5595 -0.3598
  265MOL0     C35655   4.814   4.079   7.728  0.2390  0.2189 -0.5201
  265MOL0     C35656   4.951   4.041   7.674 -0.3766 -0.5943 -0.2155
  265MOL0     N35657   5.040   4.156   7.662 -0.2965  0.1683 -0.7089
  265MOL0     C35658   5.126   4.186   7.763  0.5566  0.7222  0.1237
  265MOL0     C35659   5.201   4.285   7.704  0.6901 -1.1802  0.5128
  265MOL0     C35660   5.307   4.353   7.788 -0.3768 -0.1122 -0.0958
  265MOL0     C35661   5.251   4.486   7.816  0.0850 -0.9845 -0.1528
  265MOL0     C35662   5.329   4.578   7.916 -0.7512  0.1742  0.3842
  265MOL0     C35663   5.311   4.724   7.879 -0.0127  0.7225  0.4420
  265MOL0     O35664   5.307   4.801   8.001  0.0854  0.6415  0.1810
  265MOL0     C35665   5.186   4.849   8.035 -0.3917 -0.3547 -0.1626
  265MOL0     C35666   5.175   4.976   8.087  0.3571 -0.8515  0.7720
  265MOL0     C35667   5.067   5.034   8.144  1.0472  0.4775  0.7115
  265MOL0     C35668   5.071   5.187   8.185  0.8317  0.9861 -0.4019
  265MOL0     C35669   4.949   4.944   8.151 -0.3543  0.0098 -0.2816
  265MOL0     C35670   4.815   4.992   8.206 -0.1494 -0.1132  0.9113
  265MOL0     O35671   4.745   4.892   8.268 -1.0005 -0.6010 -0.1896
  265MOL0     C35672   4.610   4.893   8.273  0.2049  0.3773 -0.1503
  265MOL0     C35673   4.543   4.787   8.221 -0.4577 -0.1425  0.9554
  265MOL0     C35674   4.400   4.788   8.199  0.5303  0.3441 -0.4210
  265MOL0     C35675   4.322   4.898   8.246  0.3648 -0.2986  0.2872
  265MOL0     O35676   4.179   4.905   8.259 -0.7843 -0.6390 -0.0233
  265MOL0     C35677   4.113   4.862   8.139 -0.3931  0.0558  0.0087
  265MOL0     C35678   3.964   4.886   8.162 -0.0668  0.0562 -0.7792
  265MOL0     C35679   3.912   4.781   8.271 -0.4924  0.7789  0.6105
  265MOL0     C35680   3.893   4.644   8.205 -0.1109  0.7341  0.5293
  265MOL0     C35681   3.840   4.545   8.307  0.5263 -0.5312 -1.2011
  265MOL0     C35682   3.713   4.589   8.381 -0.7668  0.3001  0.0663
  265MOL0     C35683   3.649   4.468   8.460  1.1067  1.4963  0.7632
  265MOL0     C35684   3.534   4.497   8.566 -0.0676 -0.8259  0.9971
  265MOL0    Cl35685   3.433   4.338   8.594 -0.1782  0.0368 -0.1416
  265MOL0     C35686   4.387   4.996   8.309  0.2418 -0.1550  0.5642
  265MOL0     C35687   4.531   4.997   8.323 -0.2492 -0.4741 -0.6613
  265MOL0     O35688   4.779   5.111   8.187 -0.8825  0.6011 -0.0600
  265MOL0     C35689   4.953   4.815   8.092  0.2875  0.3189  0.1929
  265MOL0     C35690   5.073   4.768   8.035  0.3286 -1.3230 -0.3610
  265MOL0     N35691   5.162   4.310   7.577  0.4407  0.0033 -0.6490
  265MOL0     N35692   5.070   4.228   7.553  0.1895 -0.3526  0.2865
  265MOL0     C35693   4.326   3.462   8.157 -0.2269  0.8235 -0.1092
  265MOL0     C35694   4.210   3.425   8.092 -0.5229  1.2461 -0.1276
  265MOL0     C35695   3.884   3.346   7.775  0.0395 -0.3396 -0.0298
  265MOL0     C35696   3.814   3.390   7.654  0.3044  0.0007  0.6250
  265MOL0     C35697   3.675   3.369   7.645  0.5138 -0.1598 -1.4985
  265MOL0     C35698   3.598   3.321   7.754  1.1994  0.4108  0.6443
  265MOL0     O35699   3.464   3.320   7.753  0.2608  0.5261  0.2269
  265MOL0     C35700   3.398   3.444   7.725 -1.0291 -0.4580  0.5523
  265MOL0     C35701   3.313   3.484   7.837  0.2016  0.1797  0.2576
  265MOL0     C35702   3.392   3.556   7.947 -0.2158 -0.8518  0.3049
  265MOL0     C35703   3.330   3.594   8.079 -0.1517  0.0753  0.5461
  265MOL0     C35704   3.370   3.725   8.129  0.0802  0.0704 -0.3346
  265MOL0     C35705   3.416   3.836   8.156  0.2551 -0.0910  0.7070
  265MOL0     C35706   3.667   3.289   7.871 -0.3060  0.4839  0.2129
  265MOL0     C35707   3.805   3.293   7.877  1.0517  0.0365 -0.2472
  265MOL0     H35708   4.320   3.439   7.768  3.5778  2.0290  0.7304
  265MOL0     H35709   4.525   3.477   7.875  0.9007  3.9813  1.7786
  265MOL0     H35710   4.739   3.532   8.167  0.9966 -3.0331 -0.7939
  265MOL0     H35711   4.700   3.462   8.012  1.1634  0.2829  0.3951
  265MOL0     H35712   4.753   3.668   7.948 -0.3334 -1.0200 -0.7291
  265MOL0     H35713   4.581   3.664   7.932  0.5225 -1.8678  0.8216
  265MOL0     H35714   4.562   3.831   8.115  1.1045  1.7189  1.8850
  265MOL0     H35715   4.719   3.793   8.170 -3.3039 -0.5491  2.7650
  265MOL0     H35716   4.752   4.002   8.045 -4.0227 -0.3689  1.1403
  265MOL0     H35717   4.817   3.881   7.947 -0.2577 -1.2309  2.0303
  265MOL0     H35718   4.559   3.877   7.851  1.6548  0.0932 -0.1103
  265MOL0     H35719   4.588   4.045   7.876 -4.1173 -2.5188 -0.5734
  265MOL0     H35720   4.774   3.856   7.716 -0.4729  0.1816  0.7480
  265MOL0     H35721   4.650   3.955   7.649  1.0105  1.5675 -1.3535
  265MOL0     H35722   4.770   4.148   7.655 -2.8653 -2.4564 -1.3905
  265MOL0     H35723   4.828   4.126   7.825  1.2366 -1.1368  0.0276
  265MOL0     H35724   4.927   3.990   7.581 -4.1809  1.2130 -0.4163
  265MOL0     H35725   4.995   3.975   7.749  0.6034  0.4078  0.1134
  265MOL0     H35726   5.140   4.151   7.865 -1.4662 -1.0611 -0.1395
  265MOL0     H35727   5.321   4.313   7.889 -1.3909  1.4150  0.6895
  265MOL0     H35728   5.405   4.364   7.739 -0.1871  3.5809  0.7920
  265MOL0     H35729   5.150   4.484   7.856 -0.9571  1.7638 -2.3575
  265MOL0     H35730   5.244   4.525   7.714 -1.2967  0.2261  0.3724
  265MOL0     H35731   5.436   4.554   7.909 -0.9594 -0.7469  0.1782
  265MOL0     H35732   5.292   4.558   8.016 -5.2392  0.5155 -1.0032
  265MOL0     H35733   5.221   4.737   7.818 -0.7601 -0.0332  1.3443
  265MOL0     H35734   5.391   4.748   7.808 -0.9902 -0.3222 -1.0767
  265MOL0     H35735   5.259   5.044   8.092  0.6852 -0.8683 -2.5352
  265MOL0     H35736   5.167   5.233   8.160  0.8296  1.6020  0.6887
  265MOL0     H35737   4.989   5.239   8.134 -2.2449  0.1139  3.2067
  265MOL0     H35738   5.054   5.197   8.292 -0.5739 -1.9896 -0.2490
  265MOL0     H35739   4.605   4.708   8.180  1.8340  1.3666  1.3425
  265MOL0     H35740   4.352   4.695   8.170  2.3875 -0.8102  0.0506
  265MOL0     H35741   4.144   4.919   8.051  1.7981  3.1525  2.5286
  265MOL0     H35742   4.117   4.753   8.133  0.8652  0.1506 -1.3718
  265MOL0     H35743   3.954   4.990   8.194 -4.0511  0.0851 -1.5197
  265MOL0     H35744   3.904   4.874   8.071 -1.6024 -0.7277  0.2722
  265MOL0     H35745   3.817   4.812   8.314 -0.7135 -0.4466  1.0637
  265MOL0     H35746   3.979   4.780   8.358 -0.1804  0.5847  0.3685
  265MOL0     H35747   3.826   4.650   8.119  1.8579 -3.0727 -1.5146
  265MOL0     H35748   3.988   4.609   8.164  0.7988  1.0956  2.2438
  265MOL0     H35749   3.915   4.528   8.385 -0.2799 -1.0379 -0.5265
  265MOL0     H35750   3.818   4.455   8.249  2.2332 -1.7598 -0.0637
  265MOL0     H35751   3.737   4.661   8.460 -1.5608 -0.5011  1.0636
  265MOL0     H35752   3.644   4.624   8.304 -2.3909 -2.9193 -0.1170
  265MOL0     H35753   3.719   4.404   8.513  1.1308  0.3355 -0.6337
  265MOL0     H35754   3.597   4.408   8.385  0.3025  0.7070  1.9174
  265MOL0     H35755   3.482   4.579   8.517  2.0038 -0.8258 -1.3989
  265MOL0     H35756   3.581   4.527   8.661 -0.3061  0.0695  0.8385
  265MOL0     H35757   4.341   5.079   8.363  2.0346  2.2661 -1.3718
  265MOL0     H35758   4.583   5.081   8.368 -1.7458  1.0653 -1.6263
  265MOL0     H35759   4.869   4.746   8.103  1.7324 -1.1179  3.4958
  265MOL0     H35760   5.060   4.672   7.987  1.6647 -1.2828 -0.8376
  265MOL0     H35761   4.327   3.466   8.265 -0.8933  0.1126 -0.0646
  265MOL0     H35762   4.122   3.414   8.155  0.6422  1.6318  1.6270
  265MOL0     H35763   3.868   3.443   7.577 -0.9762 -1.0456 -1.0472
  265MOL0     H35764   3.623   3.397   7.554 -0.0180  2.7625 -0.4274
  265MOL0     H35765   3.476   3.520   7.713  0.2831 -1.9250 -0.6674
  265MOL0     H35766   3.349   3.453   7.628  0.5485  1.3475 -0.1394
  265MOL0     H35767   3.272   3.392   7.880  1.1493 -0.2419  0.2931
  265MOL0     H35768   3.230   3.545   7.800  0.8451  0.8496 -0.1095
  265MOL0     H35769   3.438   3.644   7.901 -1.2957  0.0761  0.9748
  265MOL0     H35770   3.484   3.500   7.968  1.0595  1.6277  1.7604
  265MOL0     H35771   3.341   3.525   8.163 -1.8402 -0.2373  0.5379
  265MOL0     H35772   3.223   3.612   8.069 -0.5236 -1.9437  0.4867
  265MOL0     H35773   3.463   3.930   8.176  1.3345 -0.4920  0.1403
  265MOL0     H35774   3.627   3.270   7.970  1.2037  1.7238  1.0963
  265MOL0     H35775   3.861   3.252   7.960 -1.2610  1.6592  2.3018
  266MOL0     O35776   7.141   3.316   5.761  0.1244 -0.4518 -0.1357
  266MOL0     C35777   7.089   3.262   5.666  0.1789 -0.5065 -0.2540
  266MOL0     O35778   6.954   3.260   5.638  0.1051  1.0029  0.2420
  266MOL0     C35779   6.874   3.320   5.728 -0.9207  0.3611 -0.2061
  266MOL0     C35780   6.864   3.292   5.869 -0.0062  0.7079  0.2010
  266MOL0     C35781   6.791   3.372   5.958 -0.3481 -0.2586  0.0431
  266MOL0     C35782   6.716   3.484   5.911 -1.2898  0.2261  0.2791
  266MOL0     O35783   6.643   3.570   5.986  0.4055  0.2199 -0.7870
  266MOL0     C35784   6.703   3.604   6.114  0.2657  0.4546 -0.9627
  266MOL0     C35785   6.631   3.735   6.158  0.6671 -0.2858  0.3112
  266MOL0     C35786   6.654   3.857   6.060 -0.1416 -0.3523  0.0998
  266MOL0     C35787   6.800   3.909   6.069 -0.2404  0.1859 -0.6515
  266MOL0     C35788   6.796   4.047   5.992 -0.3096 -0.2690 -0.0065
  266MOL0     C35789   6.946   4.104   5.964  0.1149  0.1073  0.2811
  266MOL0     C35790   6.955   4.228   5.868 -0.0815  0.7315  0.1151
  266MOL0     C35791   6.886   4.363   5.905  0.0076 -0.2556  0.3936
  266MOL0     N35792   6.889   4.436   5.775 -0.3386 -0.0859  0.6104
  266MOL0     C35793   6.785   4.465   5.690 -0.2971 -0.2056 -0.2200
  266MOL0     C35794   6.827   4.546   5.590  0.2900  0.1099 -0.0415
  266MOL0     C35795   6.730   4.605   5.494 -0.4593 -0.2255  0.3274
  266MOL0     C35796   6.674   4.727   5.553  0.9620 -0.3926 -0.4195
  266MOL0     C35797   6.579   4.805   5.461  0.3397 -0.4209 -0.2556
  266MOL0     C35798   6.485   4.899   5.538  0.1605  1.0146  0.2708
  266MOL0     O35799   6.562   5.010   5.603  0.1811  0.0251 -0.1356
  266MOL0     C35800   6.548   5.135   5.558 -1.4475  0.6380 -1.1379
  266MOL0     C35801   6.586   5.238   5.642  1.1471  0.8812  0.1995
  266MOL0     C35802   6.587   5.366   5.602  0.0322 -0.8710 -0.4597
  266MOL0     C35803   6.620   5.478   5.706 -0.4479 -0.1406  1.2482
  266MOL0     C35804   6.545   5.397   5.472  0.1409  0.9668  0.3473
  266MOL0     C35805   6.526   5.528   5.418 -0.6954  0.6364  0.0279
  266MOL0     O35806   6.452   5.543   5.310  0.8236  0.2317 -0.1711
  266MOL0     C35807   6.405   5.663   5.261  0.5393  0.3913  0.4191
  266MOL0     C35808   6.288   5.720   5.313  1.0763 -0.0764 -0.0786
  266MOL0     C35809   6.227   5.825   5.244  1.0373 -0.0277  0.1371
  266MOL0     C35810   6.289   5.901   5.140  1.2255 -0.0228  0.0877
  266MOL0     O35811   6.239   6.021   5.096  0.2110 -0.1562 -0.0923
  266MOL0     C35812   6.193   6.122   5.200 -0.2771  0.2258  1.2360
  266MOL0     C35813   6.171   6.255   5.137  1.2877 -0.4286 -0.0227
  266MOL0     C35814   6.291   6.291   5.034  0.4257  0.4178 -0.2139
  266MOL0     C35815   6.289   6.421   4.955  0.1168  1.6708  0.3757
  266MOL0     C35816   6.247   6.535   5.045 -0.0692  0.1048 -0.1007
  266MOL0     C35817   6.278   6.666   4.963 -0.9039  0.2235  0.5982
  266MOL0     C35818   6.251   6.796   5.042 -0.4875  0.1769 -0.2385
  266MOL0     C35819   6.096   6.820   5.055 -0.3796  0.0385 -0.0787
  266MOL0    Cl35820   6.072   6.956   5.152 -0.1831 -0.0739 -0.2509
  266MOL0     C35821   6.404   5.848   5.089 -0.5226 -0.2334  0.1341
  266MOL0     C35822   6.461   5.734   5.143  1.0534 -0.7936 -0.5867
  266MOL0     O35823   6.604   5.610   5.458  0.3099 -0.1194  0.4400
  266MOL0     C35824   6.514   5.293   5.386 -0.2009  1.3206 -0.4960
  266MOL0     C35825   6.511   5.160   5.428  0.5237  0.7023 -0.0606
  266MOL0     N35826   6.965   4.564   5.611  0.5143 -0.2342 -0.5424
  266MOL0     N35827   6.998   4.488   5.705  1.0088 -0.3840 -0.6123
  266MOL0     C35828   6.722   3.504   5.772  0.7082 -0.2611  0.1598
  266MOL0     C35829   6.792   3.422   5.686 -0.4654  0.0880  0.3317
  266MOL0     C35830   7.181   3.155   5.600 -0.5048 -0.1514 -0.0034
  266MOL0     C35831   7.323   3.142   5.632  0.4669 -0.5172  0.5381
  266MOL0     C35832   7.398   3.035   5.590  0.0150 -1.0939  0.8157
  266MOL0     C35833   7.344   2.943   5.508  0.2017 -0.6914  0.1658
  266MOL0     O35834   7.420   2.849   5.468 -0.2037 -0.8754  0.5086
  266MOL0     C35835   7.434   2.839   5.328  0.2531  0.1230  0.9987
  266MOL0     C35836   7.378   2.704   5.276 -0.2205 -0.0990  0.8716
  266MOL0     C35837   7.374   2.703   5.128  0.3014  0.1743  0.7671
  266MOL0     C35838   7.374   2.556   5.074  0.3736 -0.2771  0.5901
  266MOL0     C35839   7.357   2.554   4.928  0.8063 -0.1417 -0.1449
  266MOL0     C35840   7.356   2.554   4.805 -0.5629  0.1624  0.2170
  266MOL0     C35841   7.215   2.953   5.467 -0.1282 -0.5471  0.8468
  266MOL0     C35842   7.123   3.062   5.511 -0.7229  0.8616  0.1288
  266MOL0     H35843   6.925   3.213   5.913  0.6320  0.4002 -1.1752
  266MOL0     H35844   6.778   3.350   6.063 -0.9068  0.0633  0.0426
  266MOL0     H35845   6.683   3.526   6.188  1.6569  1.5281  0.6379
  266MOL0     H35846   6.811   3.626   6.118  1.3832 -3.8249  4.7451
  266MOL0     H35847   6.524   3.715   6.151 -0.1413  1.8871  3.8288
  266MOL0     H35848   6.637   3.766   6.263  0.1752  0.9591 -0.0136
  266MOL0     H35849   6.622   3.836   5.957 -2.2608 -1.4184  0.9227
  266MOL0     H35850   6.592   3.941   6.093  3.1718  2.8239 -1.0815
  266MOL0     H35851   6.826   3.930   6.174  0.8899 -0.5364 -0.7776
  266MOL0     H35852   6.868   3.833   6.030 -1.3718 -1.1845 -0.0475
  266MOL0     H35853   6.751   4.023   5.896 -1.7893  0.6216  0.4474
  266MOL0     H35854   6.737   4.122   6.045  2.5942  1.3607  1.1674
  266MOL0     H35855   6.978   4.123   6.067 -2.0753 -0.8188  1.1855
  266MOL0     H35856   7.014   4.026   5.929 -0.1356 -0.1596  0.3892
  266MOL0     H35857   7.062   4.241   5.845  0.3639  0.1288  1.7084
  266MOL0     H35858   6.920   4.201   5.768 -0.2535 -1.4390  0.7044
  266MOL0     H35859   6.940   4.417   5.983  0.6533 -2.3472  1.4907
  266MOL0     H35860   6.785   4.338   5.940  0.7812 -2.1249  1.4471
  266MOL0     H35861   6.680   4.453   5.711 -0.4450  0.5142 -0.5197
  266MOL0     H35862   6.793   4.639   5.412 -3.9647  0.5434 -2.3011
  266MOL0     H35863   6.648   4.541   5.461 -0.8184  0.2982  0.1907
  266MOL0     H35864   6.756   4.795   5.579  1.5939 -1.2321 -0.1795
  266MOL0     H35865   6.619   4.695   5.642  1.8632 -2.4832 -0.5698
  266MOL0     H35866   6.517   4.746   5.393  2.9728 -1.7049 -1.6848
  266MOL0     H35867   6.630   4.876   5.395  2.7091 -1.9464 -0.1609
  266MOL0     H35868   6.460   4.848   5.631  1.0663  0.0610  0.0140
  266MOL0     H35869   6.395   4.925   5.483  1.0425  0.0862 -1.7185
  266MOL0     H35870   6.623   5.216   5.742 -1.3649  3.9124  1.9879
  266MOL0     H35871   6.683   5.556   5.662  0.4987 -1.3443  0.4004
  266MOL0     H35872   6.525   5.527   5.729  1.2377  4.0030  0.2918
  266MOL0     H35873   6.663   5.434   5.796  0.4718 -1.4881  0.1897
  266MOL0     H35874   6.248   5.659   5.394 -0.0224  2.2362  1.2387
  266MOL0     H35875   6.133   5.863   5.283  1.3150  0.0542  0.7223
  266MOL0     H35876   6.101   6.102   5.254 -2.0994  3.5545 -0.3299
  266MOL0     H35877   6.278   6.129   5.269  0.4512 -0.1073  0.4000
  266MOL0     H35878   6.073   6.250   5.091  2.2250 -1.7834 -2.0026
  266MOL0     H35879   6.173   6.324   5.222  1.1760 -1.5443  0.9082
  266MOL0     H35880   6.318   6.201   4.978  0.9774 -1.3683  2.6934
  266MOL0     H35881   6.377   6.309   5.100  0.6422  1.9859 -0.8739
  266MOL0     H35882   6.388   6.435   4.910 -0.6803 -1.8441 -2.9045
  266MOL0     H35883   6.221   6.427   4.870 -0.8682  0.7190  1.0649
  266MOL0     H35884   6.314   6.545   5.130  2.6962  2.2307 -2.3525
  266MOL0     H35885   6.142   6.518   5.071  0.6268 -1.9917  1.6133
  266MOL0     H35886   6.381   6.673   4.928 -1.7625 -1.1742 -2.6188
  266MOL0     H35887   6.214   6.661   4.874 -0.0724  1.7528 -0.1216
  266MOL0     H35888   6.291   6.879   4.982 -1.4888  0.4852 -0.4954
  266MOL0     H35889   6.294   6.784   5.142 -2.3011 -0.3448  0.5280
  266MOL0     H35890   6.055   6.730   5.102  1.8779 -0.5274  0.9772
  266MOL0     H35891   6.055   6.828   4.954 -1.0546 -1.5938  0.0241
  266MOL0     H35892   6.449   5.910   5.012  1.2335  0.9192  1.9848
  266MOL0     H35893   6.554   5.696   5.101  0.8238 -0.7291 -1.1551
  266MOL0     H35894   6.492   5.318   5.282  2.0860  0.3759 -1.2804
  266MOL0     H35895   6.499   5.073   5.364 -0.6013  2.1075 -1.8778
  266MOL0     H35896   6.673   3.593   5.733  1.7066  0.6603  0.9385
  266MOL0     H35897   6.803   3.447   5.581  2.9553 -0.7872  0.3482
  266MOL0     H35898   7.368   3.219   5.694 -0.1107  0.2582  0.0048
  266MOL0     H35899   7.504   3.026   5.611  0.7833  0.6027 -1.7641
  266MOL0     H35900   7.396   2.927   5.275  1.3356 -0.7404 -1.3593
  266MOL0     H35901   7.542   2.843   5.319  0.2701 -1.5610  0.2001
  266MOL0     H35902   7.276   2.673   5.297 -0.2956 -0.3602  0.1605
  266MOL0     H35903   7.442   2.621   5.307  1.4145 -0.2450 -2.4268
  266MOL0     H35904   7.455   2.760   5.082  0.5120 -1.3896 -0.9299
  266MOL0     H35905   7.290   2.765   5.094  1.2977  2.4998  2.3534
  266MOL0     H35906   7.300   2.501   5.132  1.1972 -1.3237  0.6688
  266MOL0     H35907   7.472   2.510   5.087  0.8500  0.1625 -1.1580
  266MOL0     H35908   7.365   2.554   4.698  0.9526  0.6867  0.3213
  266MOL0     H35909   7.180   2.872   5.404  2.1863  0.1728 -1.5069
  266MOL0     H35910   7.021   3.048   5.476  0.5194 -3.9084 -2.5174
  267MOL0     O35911   3.478  10.643   2.319 -0.2145 -1.0646  0.7593
  267MOL0     C35912   3.475  10.656   2.437  0.2934  0.8158 -0.0181
  267MOL0     O35913   3.401  10.746   2.507  0.0388  1.2570 -0.0199
  267MOL0     C35914   3.300  10.821   2.446 -0.4804 -1.4447 -0.3593
  267MOL0     C35915   3.321  10.897   2.330 -0.1039  1.1121  0.1945
  267MOL0     C35916   3.219  10.972   2.283 -0.7946 -0.1286  0.4377
  267MOL0     C35917   3.094  10.972   2.345  1.2282  0.2242 -0.2748
  267MOL0     O35918   2.996  11.042   2.284  0.6243 -0.5403 -0.4605
  267MOL0     C35919   2.860  11.004   2.302  0.3684 -0.3189  0.6921
  267MOL0     C35920   2.788  11.117   2.219  0.6161 -0.0372 -0.1525
  267MOL0     C35921   2.638  11.130   2.280 -0.9047 -0.1274  0.4195
  267MOL0     C35922   2.563  11.003   2.239 -0.0395 -0.5286 -0.4986
  267MOL0     C35923   2.422  10.994   2.294  0.5525 -0.2382 -0.1140
  267MOL0     C35924   2.336  11.108   2.228  0.5391 -0.0184  0.1328
  267MOL0     C35925   2.198  11.126   2.287 -0.6261  0.0940 -0.2764
  267MOL0     C35926   2.118  11.257   2.241  0.2396  0.3463  0.0869
  267MOL0     N35927   1.976  11.220   2.243  0.3428 -0.9711  0.6424
  267MOL0     C35928   1.892  11.230   2.353 -0.4595 -0.5188 -0.4680
  267MOL0     C35929   1.774  11.168   2.323  0.2591  0.4671  0.2219
  267MOL0     C35930   1.655  11.141   2.407 -0.4843 -0.3218  0.7102
  267MOL0     C35931   1.685  11.042   2.520 -0.0647  0.0594  0.9125
  267MOL0     C35932   1.653  11.082   2.669  0.3167 -0.1439  0.7236
  267MOL0     C35933   1.728  11.216   2.706  0.3716  0.0970  0.4398
  267MOL0     O35934   1.869  11.222   2.700 -0.4622  0.1835  0.7810
  267MOL0     C35935   1.945  11.186   2.805  0.8795 -0.0751  0.5804
  267MOL0     C35936   1.932  11.069   2.885 -0.9409 -0.1033 -0.0897
  267MOL0     C35937   2.019  11.053   2.996 -0.5444  0.7047  1.0544
  267MOL0     C35938   1.999  10.925   3.091 -0.2466 -0.0906  0.3086
  267MOL0     C35939   2.120  11.144   3.030 -0.5456  0.2216 -0.8810
  267MOL0     C35940   2.215  11.146   3.141 -0.2651  0.6034 -0.3613
  267MOL0     O35941   2.332  11.214   3.111 -0.0903 -0.2809 -0.4461
  267MOL0     C35942   2.433  11.224   3.207  0.3846  0.6635  0.4448
  267MOL0     C35943   2.562  11.245   3.154 -0.5866 -1.1058  0.0644
  267MOL0     C35944   2.662  11.297   3.226 -0.2477  0.0351  0.2027
  267MOL0     C35945   2.646  11.333   3.362  0.3425  0.6092  0.3528
  267MOL0     O35946   2.749  11.390   3.438  0.6447  0.1058  0.3034
  267MOL0     C35947   2.873  11.453   3.390  0.5790 -0.4912 -0.7583
  267MOL0     C35948   2.988  11.361   3.374  0.5738 -0.4924  0.5976
  267MOL0     C35949   3.010  11.263   3.480  0.0150  0.3415  0.4412
  267MOL0     C35950   3.079  11.306   3.609 -0.3639 -0.3839 -0.1435
  267MOL0     C35951   3.112  11.193   3.699 -0.3815  0.7540 -0.6512
  267MOL0     C35952   2.984  11.139   3.777  0.3737 -0.0141 -0.1454
  267MOL0     C35953   3.011  11.008   3.852 -0.1986 -0.2757  0.0488
  267MOL0     C35954   2.946  10.893   3.758  0.2668 -0.7388  0.1865
  267MOL0    Cl35955   2.976  10.737   3.843 -0.2359  0.0377 -0.1609
  267MOL0     C35956   2.524  11.298   3.426 -0.3315  0.7930  1.1138
  267MOL0     C35957   2.414  11.252   3.342 -1.3769  0.6210 -0.5676
  267MOL0     O35958   2.182  11.092   3.249  0.2001  0.3450 -0.3264
  267MOL0     C35959   2.129  11.257   2.942 -0.5496 -0.0803 -0.3175
  267MOL0     C35960   2.051  11.272   2.825  0.0195  0.8218  0.8577
  267MOL0     N35961   1.798  11.104   2.192 -0.5881  0.1950  0.3754
  267MOL0     N35962   1.911  11.144   2.145 -0.8094 -0.2981  0.2937
  267MOL0     C35963   3.089  10.930   2.475  0.1176  0.6021  0.0560
  267MOL0     C35964   3.192  10.847   2.529 -0.0432 -0.1192 -0.1859
  267MOL0     C35965   3.577  10.584   2.512  0.1865  0.6331  0.1637
  267MOL0     C35966   3.598  10.610   2.650 -0.2612  0.1309 -0.3079
  267MOL0     C35967   3.704  10.557   2.727  0.4452  0.2984  0.2115
  267MOL0     C35968   3.790  10.466   2.675 -0.0752 -0.1824  0.8074
  267MOL0     O35969   3.892  10.418   2.761  0.9041 -0.0702 -0.7476
  267MOL0     C35970   3.939  10.282   2.727 -0.6649 -0.4648  0.2637
  267MOL0     C35971   4.010  10.226   2.856 -0.6139 -0.2975 -0.4305
  267MOL0     C35972   4.139  10.287   2.900  1.4699  0.7236 -0.1576
  267MOL0     C35973   4.262  10.250   2.810 -0.6546  0.7974  0.1781
  267MOL0     C35974   4.292  10.109   2.826  0.6695 -0.2854  0.4497
  267MOL0     C35975   4.316   9.987   2.825 -0.0483 -0.6923 -0.6921
  267MOL0     C35976   3.770  10.425   2.537 -0.3467  0.0858  1.1546
  267MOL0     C35977   3.672  10.494   2.462  0.2092 -0.3750  0.3335
  267MOL0     H35978   3.410  10.891   2.268 -1.4349 -2.6295 -1.7260
  267MOL0     H35979   3.236  11.025   2.190  2.4281  1.2657  1.6516
  267MOL0     H35980   2.841  10.908   2.253 -0.8871  0.5185 -0.5149
  267MOL0     H35981   2.817  10.996   2.403 -3.3208 -0.2485 -0.7475
  267MOL0     H35982   2.847  11.206   2.243 -1.4550  0.7144  2.7281
  267MOL0     H35983   2.782  11.117   2.110  0.6797  1.2529 -0.1713
  267MOL0     H35984   2.632  11.140   2.389  2.0628  0.2172  0.6165
  267MOL0     H35985   2.593  11.222   2.241  1.4316  1.4849  1.3080
  267MOL0     H35986   2.571  10.989   2.131 -0.5275 -2.2805 -0.3357
  267MOL0     H35987   2.607  10.910   2.278 -0.9600 -0.5996  0.4105
  267MOL0     H35988   2.368  10.899   2.293  1.0950 -0.7127  3.4452
  267MOL0     H35989   2.422  11.023   2.400  1.4233 -2.0875  0.4292
  267MOL0     H35990   2.390  11.202   2.240 -0.5033  0.4891  1.0271
  267MOL0     H35991   2.318  11.078   2.125  4.3867  1.7695 -1.2583
  267MOL0     H35992   2.137  11.041   2.256  0.3862 -0.1502 -1.6806
  267MOL0     H35993   2.217  11.130   2.395  0.3698  2.5158 -0.4854
  267MOL0     H35994   2.146  11.284   2.139 -1.9539  1.7686 -0.1878
  267MOL0     H35995   2.129  11.351   2.296  0.3176  2.5479 -3.3729
  267MOL0     H35996   1.925  11.270   2.448 -0.9201 -0.6338 -0.2604
  267MOL0     H35997   1.606  11.230   2.449 -0.0701 -0.4412  1.4676
  267MOL0     H35998   1.573  11.097   2.350  0.7423 -3.4623  1.1987
  267MOL0     H35999   1.791  11.017   2.512  0.9339  4.0698 -1.7002
  267MOL0     H36000   1.636  10.946   2.499  2.9359 -2.2313  3.5273
  267MOL0     H36001   1.688  11.001   2.734  0.7022 -1.2347 -0.8006
  267MOL0     H36002   1.545  11.094   2.678  0.0327 -0.9871 -1.0702
  267MOL0     H36003   1.705  11.237   2.811 -2.3281 -0.7938  0.1011
  267MOL0     H36004   1.691  11.303   2.651  0.1006  0.0016  0.4738
  267MOL0     H36005   1.853  10.995   2.876 -1.3199 -0.7960  5.3473
  267MOL0     H36006   1.924  10.858   3.046  1.0048  0.0859 -2.2584
  267MOL0     H36007   2.092  10.869   3.105 -0.7234 -0.3925  2.6465
  267MOL0     H36008   1.972  10.964   3.189 -1.2511  1.1664 -0.4371
  267MOL0     H36009   2.585  11.231   3.049 -2.8417  0.1823 -0.6710
  267MOL0     H36010   2.756  11.329   3.181  1.0910 -0.4287  2.5266
  267MOL0     H36011   2.854  11.499   3.292  0.9223  0.0412 -0.5828
  267MOL0     H36012   2.908  11.525   3.464  0.8300 -2.2936  0.9627
  267MOL0     H36013   2.974  11.308   3.279  0.5627 -2.0065  1.4158
  267MOL0     H36014   3.086  11.407   3.353  0.4726 -0.9986 -1.1548
  267MOL0     H36015   3.073  11.184   3.437  2.0763  1.1290  1.8934
  267MOL0     H36016   2.922  11.205   3.511  1.6773 -2.4287  0.3863
  267MOL0     H36017   3.170  11.356   3.573  0.6650 -3.3407 -2.0366
  267MOL0     H36018   3.022  11.386   3.656  1.5813  0.9627  0.0369
  267MOL0     H36019   3.187  11.214   3.776  0.5958 -1.3021 -0.9613
  267MOL0     H36020   3.148  11.115   3.632 -0.0607  0.1701  0.1755
  267MOL0     H36021   2.945  11.209   3.852 -1.2326 -2.6427  1.6305
  267MOL0     H36022   2.909  11.130   3.697  0.6138  1.7412 -0.6144
  267MOL0     H36023   2.968  11.011   3.953  0.8484  1.8099  0.4913
  267MOL0     H36024   3.119  11.005   3.865 -0.0901  1.4967 -0.2009
  267MOL0     H36025   2.997  10.883   3.661  1.8288 -1.2684  1.0140
  267MOL0     H36026   2.841  10.917   3.743  0.3290  0.2182  1.1375
  267MOL0     H36027   2.510  11.309   3.533 -0.7121  0.4376  1.1046
  267MOL0     H36028   2.316  11.266   3.386 -1.9380  0.2157 -1.6588
  267MOL0     H36029   2.190  11.340   2.977  1.2496 -2.4308  2.5311
  267MOL0     H36030   2.065  11.358   2.761  5.3839 -0.6954 -0.4867
  267MOL0     H36031   3.005  10.947   2.542  0.0888 -1.0756  0.4771
  267MOL0     H36032   3.191  10.810   2.631 -0.8990 -0.3892 -0.2837
  267MOL0     H36033   3.525  10.671   2.703  2.3652  1.0301  2.5342
  267MOL0     H36034   3.702  10.575   2.834 -1.0927  0.4393  0.1914
  267MOL0     H36035   3.851  10.218   2.712 -2.0216  1.2431  0.5908
  267MOL0     H36036   3.994  10.288   2.633 -0.5518 -1.8184  0.2185
  267MOL0     H36037   4.015  10.118   2.835 -0.9793  0.1703 -3.3307
  267MOL0     H36038   3.948  10.240   2.945  0.4007  1.2972  0.0611
  267MOL0     H36039   4.161  10.248   3.000 -3.2550 -0.9763  0.4740
  267MOL0     H36040   4.128  10.396   2.906  1.7534  0.8180 -1.2696
  267MOL0     H36041   4.353  10.306   2.830 -2.0129  3.0478  0.3874
  267MOL0     H36042   4.230  10.278   2.709 -0.8312  1.1663  0.3343
  267MOL0     H36043   4.317   9.881   2.808  1.5006 -0.7777 -0.2306
  267MOL0     H36044   3.827  10.353   2.479 -1.2969  1.4062 -1.6269
  267MOL0     H36045   3.653  10.472   2.357  2.2827  2.0566 -0.6499
  268MOL0     O36046   3.311   1.144  10.942  0.5115  0.0767 -0.2421
  268MOL0     C36047   3.196   1.100  10.970 -0.6758  0.9586  0.9722
  268MOL0     O36048   3.163   0.967  10.991  0.1141  0.7165 -1.3457
  268MOL0     C36049   3.244   0.854  10.997 -0.2859  0.0434 -0.3377
  268MOL0     C36050   3.380   0.856  10.951 -0.0916 -0.6692  0.8569
  268MOL0     C36051   3.455   0.739  10.952 -0.4539 -0.3465 -0.3839
  268MOL0     C36052   3.392   0.617  10.982 -0.5212 -0.6366 -0.1223
  268MOL0     O36053   3.464   0.499  10.971 -0.4403  0.1148  0.3222
  268MOL0     C36054   3.420   0.378  11.042  0.3951  0.5958 -0.3123
  268MOL0     C36055   3.510   0.264  10.998  0.2762 -0.2812 -0.2038
  268MOL0     C36056   3.489   0.126  11.079  0.2160 -0.0913  0.4796
  268MOL0     C36057   3.581   0.017  11.025  0.3285 -0.0247  0.9286
  268MOL0     C36058   3.559  -0.120  11.086  0.0074 -0.9328 -0.8786
  268MOL0     C36059   3.543  -0.124  11.233 -0.0454 -0.0720 -0.3188
  268MOL0     C36060   3.581  -0.245  11.305  0.1740  0.5669  0.2011
  268MOL0     C36061   3.514  -0.370  11.247  0.5525  0.1630 -0.0738
  268MOL0     N36062   3.365  -0.374  11.251  1.1487  0.4248 -0.5732
  268MOL0     C36063   3.294  -0.377  11.371  0.5169 -0.0873  0.9408
  268MOL0     C36064   3.168  -0.341  11.326  0.7277  0.4082  0.6511
  268MOL0     C36065   3.045  -0.341  11.422 -1.2317  0.1132  0.0722
  268MOL0     C36066   3.014  -0.481  11.475  0.5263 -0.4187 -0.2351
  268MOL0     C36067   2.875  -0.478  11.534 -0.0586 -0.0427  0.4085
  268MOL0     C36068   2.823  -0.351  11.601  0.4006  0.6894  0.0583
  268MOL0     O36069   2.896  -0.302  11.713  0.7039  0.8377 -0.5267
  268MOL0     C36070   2.907  -0.392  11.814  0.3647  0.6522 -0.3197
  268MOL0     C36071   3.031  -0.447  11.844  0.3606  0.4474 -0.2247
  268MOL0     C36072   3.051  -0.535  11.955 -0.4140  0.0497 -0.8739
  268MOL0     C36073   3.191  -0.587  11.967  0.8751  0.3296 -0.1612
  268MOL0     C36074   2.946  -0.560  12.044 -0.1486 -0.2482 -0.3179
  268MOL0     C36075   2.955  -0.615  12.183 -0.0381  1.5047 -0.2083
  268MOL0     O36076   2.858  -0.580  12.281  0.0626 -0.2320 -0.0899
  268MOL0     C36077   2.880  -0.623  12.405  0.5895 -2.0972 -0.4639
  268MOL0     C36078   2.765  -0.643  12.482  0.1936 -0.9412  0.1150
  268MOL0     C36079   2.776  -0.690  12.613  0.3054 -0.3807 -0.6368
  268MOL0     C36080   2.897  -0.703  12.679  1.0785 -0.1138  1.0158
  268MOL0     O36081   2.897  -0.742  12.813 -0.1839  0.1620  0.6794
  268MOL0     C36082   2.930  -0.888  12.830  0.0855 -0.6219 -0.4488
  268MOL0     C36083   2.846  -0.944  12.944  0.6522 -0.3839 -0.6450
  268MOL0     C36084   2.693  -0.952  12.931 -0.1381 -0.2126  0.0042
  268MOL0     C36085   2.624  -0.985  13.058 -0.1453  0.3272 -1.3004
  268MOL0     C36086   2.667  -1.121  13.132  0.2074 -0.7581  0.9070
  268MOL0     C36087   2.560  -1.159  13.240 -0.2237  0.7007  0.1204
  268MOL0     C36088   2.561  -1.063  13.364 -1.0079  0.3940 -0.1706
  268MOL0     C36089   2.619  -1.129  13.489  0.4620  0.4819  0.2483
  268MOL0    Cl36090   2.782  -1.187  13.451  0.4167 -0.0930 -0.2525
  268MOL0     C36091   3.016  -0.686  12.612 -0.6646 -0.6181  0.7442
  268MOL0     C36092   3.008  -0.651  12.472 -0.1187  0.1721  0.4984
  268MOL0     O36093   3.042  -0.700  12.195  0.3632  0.2688  0.4449
  268MOL0     C36094   2.815  -0.510  12.008 -0.1021 -0.2798 -0.0663
  268MOL0     C36095   2.795  -0.429  11.890  0.2330 -0.6544  0.0323
  268MOL0     N36096   3.170  -0.318  11.190 -0.2007  0.9463  0.3623
  268MOL0     N36097   3.281  -0.356  11.152  0.0177  0.6689  0.3856
  268MOL0     C36098   3.266   0.619  11.028  0.3998  0.3914 -0.1648
  268MOL0     C36099   3.197   0.739  11.043  0.2534 -0.5174  0.0968
  268MOL0     C36100   3.095   1.203  10.990 -0.9016 -0.0544  0.4984
  268MOL0     C36101   2.972   1.158  11.029 -0.2914  0.6844  0.5581
  268MOL0     C36102   2.872   1.256  11.053  0.6669 -0.4795 -0.4554
  268MOL0     C36103   2.886   1.395  11.023 -0.1357 -0.5724  0.5424
  268MOL0     O36104   2.775   1.476  11.044 -0.8767  0.0886  0.3890
  268MOL0     C36105   2.717   1.507  10.919  0.1383 -0.0979  0.3825
  268MOL0     C36106   2.567   1.506  10.932 -0.0598  0.3127 -0.2305
  268MOL0     C36107   2.500   1.627  10.872 -0.6591 -0.4655 -0.2761
  268MOL0     C36108   2.366   1.596  10.817  0.3716 -0.0527  0.7402
  268MOL0     C36109   2.305   1.713  10.757 -0.9120 -0.4690 -0.4146
  268MOL0     C36110   2.262   1.818  10.708  0.1534 -0.0614  0.2392
  268MOL0     C36111   3.012   1.437  10.987  0.2226 -0.5135  0.2394
  268MOL0     C36112   3.115   1.348  10.976  0.9073  0.2315  0.1585
  268MOL0     H36113   3.428   0.950  10.923 -0.2036 -0.7666  0.3181
  268MOL0     H36114   3.556   0.743  10.913 -0.7467  0.8951 -1.0730
  268MOL0     H36115   3.442   0.377  11.149  0.7284  1.0998 -0.3699
  268MOL0     H36116   3.315   0.355  11.018  0.4540 -0.2789  0.2258
  268MOL0     H36117   3.494   0.243  10.892 -1.8276  0.0347  0.0070
  268MOL0     H36118   3.611   0.301  11.018 -0.9671  3.3112  0.1218
  268MOL0     H36119   3.517   0.147  11.182  1.7250 -0.9922  0.2834
  268MOL0     H36120   3.387   0.089  11.093 -0.0552  0.8567  1.0639
  268MOL0     H36121   3.572   0.012  10.916 -2.0124  1.7704  0.9388
  268MOL0     H36122   3.682   0.056  11.041  0.5203  1.9841 -3.5358
  268MOL0     H36123   3.490  -0.188  11.035  1.3490 -2.5945 -0.5897
  268MOL0     H36124   3.655  -0.171  11.071  0.7348 -0.1612  0.9024
  268MOL0     H36125   3.581  -0.037  11.287 -0.8866 -1.2712  2.3800
  268MOL0     H36126   3.438  -0.117  11.262 -0.1357 -3.9074  0.9310
  268MOL0     H36127   3.690  -0.252  11.304  0.0659 -1.5031 -0.3406
  268MOL0     H36128   3.545  -0.240  11.408  0.3287 -1.2595  0.3756
  268MOL0     H36129   3.544  -0.464  11.294  0.8452  0.0242 -0.5277
  268MOL0     H36130   3.534  -0.384  11.140 -3.9010 -0.9379 -0.9749
  268MOL0     H36131   3.325  -0.409  11.470  0.2817 -0.5537  0.8690
  268MOL0     H36132   3.066  -0.265  11.498 -1.2853  1.4880 -1.2462
  268MOL0     H36133   2.963  -0.308  11.358  0.3666 -1.7053 -3.1309
  268MOL0     H36134   3.076  -0.514  11.558 -3.7215 -1.7807  2.7433
  268MOL0     H36135   3.029  -0.547  11.389  1.4366  0.5253 -0.8180
  268MOL0     H36136   2.870  -0.564  11.602  0.3875 -0.0865  0.3905
  268MOL0     H36137   2.812  -0.502  11.448  2.8600 -1.2181 -1.5541
  268MOL0     H36138   2.720  -0.374  11.630  0.3959  0.3188 -0.2496
  268MOL0     H36139   2.826  -0.269  11.529 -0.6094  0.7650  0.0858
  268MOL0     H36140   3.116  -0.413  11.787  1.4656 -0.2437  0.9606
  268MOL0     H36141   3.191  -0.695  11.987  0.4899  0.0323 -1.5938
  268MOL0     H36142   3.241  -0.566  11.872  3.6276  2.0462  1.5517
  268MOL0     H36143   3.241  -0.523  12.040 -3.2547  1.8351  1.6784
  268MOL0     H36144   2.667  -0.648  12.436 -0.6228 -1.7251  1.8314
  268MOL0     H36145   2.690  -0.702  12.678  1.9662  1.1003  2.0325
  268MOL0     H36146   2.924  -0.930  12.729 -3.9782  1.1453 -1.1365
  268MOL0     H36147   3.035  -0.894  12.861 -0.3176 -2.7060  0.6818
  268MOL0     H36148   2.895  -1.029  12.993  0.9903  0.3407  0.2958
  268MOL0     H36149   2.869  -0.869  13.020 -1.4662  1.0358 -1.3170
  268MOL0     H36150   2.677  -1.024  12.851  1.8891  0.9048 -1.4946
  268MOL0     H36151   2.655  -0.859  12.887  1.2545 -0.3271 -1.5351
  268MOL0     H36152   2.644  -0.902  13.127  0.6254 -1.5292  0.8205
  268MOL0     H36153   2.517  -0.989  13.039 -0.3152 -1.9969 -0.1515
  268MOL0     H36154   2.767  -1.101  13.173  1.6321  1.4493 -3.0911
  268MOL0     H36155   2.679  -1.212  13.073 -1.8323  0.4778 -1.5634
  268MOL0     H36156   2.458  -1.162  13.202 -0.8176  1.8183  1.5378
  268MOL0     H36157   2.594  -1.257  13.276  2.0176  1.2893 -0.2025
  268MOL0     H36158   2.454  -1.040  13.374 -1.0711  0.4187 -0.8997
  268MOL0     H36159   2.623  -0.974  13.347 -1.9091  0.7512 -1.8597
  268MOL0     H36160   2.554  -1.209  13.526 -1.3433  2.5033  1.6708
  268MOL0     H36161   2.630  -1.059  13.572  0.5691  0.2038  0.4744
  268MOL0     H36162   3.114  -0.704  12.654  0.9120 -0.4618 -2.4815
  268MOL0     H36163   3.097  -0.644  12.411 -0.9444 -1.0159 -0.9248
  268MOL0     H36164   2.734  -0.538  12.074  0.4904 -2.5523 -0.2112
  268MOL0     H36165   2.701  -0.387  11.856 -0.1792 -0.7905  0.9847
  268MOL0     H36166   3.205   0.533  11.053  1.0938 -0.3663 -1.0011
  268MOL0     H36167   3.099   0.722  11.088  0.3838 -3.8768 -0.5769
  268MOL0     H36168   2.943   1.054  11.032  1.8123 -0.0895 -2.2020
  268MOL0     H36169   2.773   1.232  11.090  0.0660  1.6633 -0.5812
  268MOL0     H36170   2.749   1.601  10.872  1.2138 -1.3826 -1.5887
  268MOL0     H36171   2.736   1.424  10.850  0.0157  1.7826 -2.0391
  268MOL0     H36172   2.532   1.488  11.034  2.2055 -1.4308  0.3140
  268MOL0     H36173   2.524   1.425  10.873  0.2680  0.0959 -0.1729
  268MOL0     H36174   2.565   1.666  10.793 -0.4671 -1.8178 -0.8151
  268MOL0     H36175   2.479   1.707  10.944  0.6521 -0.2330 -0.1179
  268MOL0     H36176   2.292   1.568  10.893 -0.5924 -2.3745 -0.9331
  268MOL0     H36177   2.373   1.516  10.744  0.8688 -0.0921  0.8323
  268MOL0     H36178   2.222   1.914  10.683 -2.7034 -0.3797  2.9665
  268MOL0     H36179   3.025   1.538  10.950 -0.3149  0.0438  1.5019
  268MOL0     H36180   3.212   1.382  10.942  1.3341 -0.8734  0.2093
  269MOL0     O36181   0.989   2.230   9.619 -0.4220 -0.7552 -0.2235
  269MOL0     C36182   0.992   2.212   9.743 -0.7186  0.2714 -0.1493
  269MOL0     O36183   1.096   2.149   9.810 -0.1720  0.0385 -0.0090
  269MOL0     C36184   1.187   2.072   9.745 -0.3077  0.0415  0.4617
  269MOL0     C36185   1.326   2.084   9.779  0.4506 -0.4398 -1.2906
  269MOL0     C36186   1.430   2.010   9.712  0.4944  0.5331 -0.5676
  269MOL0     C36187   1.380   1.927   9.614  0.2581 -0.0951 -0.6261
  269MOL0     O36188   1.461   1.849   9.543 -0.3778  0.5956  0.2797
  269MOL0     C36189   1.541   1.754   9.636  0.3705 -0.1690 -0.1784
  269MOL0     C36190   1.577   1.619   9.554  0.3642 -0.8185 -0.5784
  269MOL0     C36191   1.642   1.521   9.656  0.5200  0.2413 -0.2057
  269MOL0     C36192   1.679   1.380   9.611 -1.2352  0.4624 -0.5134
  269MOL0     C36193   1.551   1.304   9.596 -0.8177 -0.1804 -0.5719
  269MOL0     C36194   1.568   1.188   9.496  0.1336  0.2399  0.1094
  269MOL0     C36195   1.516   1.221   9.362  0.5278  0.6208  0.8327
  269MOL0     C36196   1.367   1.208   9.352 -0.9432  0.8805 -0.7090
  269MOL0     N36197   1.350   1.172   9.212  0.0012  0.5452  0.0563
  269MOL0     C36198   1.362   1.054   9.147  0.0161 -0.5911 -0.6790
  269MOL0     C36199   1.329   1.081   9.013 -0.8432  0.3268 -0.6989
  269MOL0     C36200   1.306   0.977   8.902  0.0850 -0.0110  0.1726
  269MOL0     C36201   1.417   0.986   8.799 -1.1881  0.2206 -0.1663
  269MOL0     C36202   1.362   0.923   8.668  0.5380 -0.4020 -0.4126
  269MOL0     C36203   1.470   0.906   8.558  0.2032 -0.6526 -0.1241
  269MOL0     O36204   1.570   0.812   8.605  0.3069 -0.2023  0.2256
  269MOL0     C36205   1.692   0.811   8.536  0.2071 -0.3880  0.4692
  269MOL0     C36206   1.712   0.867   8.403 -0.7465  0.6057  0.2826
  269MOL0     C36207   1.835   0.848   8.338 -0.0334 -0.1032 -0.1220
  269MOL0     C36208   1.847   0.893   8.194  0.1804  0.4617  0.3710
  269MOL0     C36209   1.951   0.791   8.401 -0.3434 -0.0297  0.2729
  269MOL0     C36210   2.092   0.780   8.357 -0.3426  1.1312 -0.0631
  269MOL0     O36211   2.193   0.783   8.451 -0.7053  0.1478  0.2080
  269MOL0     C36212   2.327   0.747   8.430  0.6733 -0.3828  0.2849
  269MOL0     C36213   2.393   0.749   8.305  0.0332  0.6475 -0.0655
  269MOL0     C36214   2.510   0.678   8.281  0.2156  0.1154  0.0073
  269MOL0     C36215   2.572   0.614   8.387 -0.1425 -0.9617  0.1842
  269MOL0     O36216   2.691   0.543   8.366  0.1915 -0.5915  0.0047
  269MOL0     C36217   2.806   0.626   8.329 -0.1705  0.4863 -0.1526
  269MOL0     C36218   2.929   0.578   8.408 -1.1257  0.6335  0.4890
  269MOL0     C36219   3.063   0.619   8.353  0.4141 -0.5257 -0.1182
  269MOL0     C36220   3.118   0.535   8.243  0.6734 -0.8821 -0.1016
  269MOL0     C36221   3.237   0.604   8.181 -0.3733 -0.1420  0.2394
  269MOL0     C36222   3.311   0.514   8.079  0.1042 -0.7668 -0.2248
  269MOL0     C36223   3.319   0.371   8.117 -0.3045 -0.2955  0.1211
  269MOL0     C36224   3.411   0.332   8.231  0.8318  0.1705  0.2132
  269MOL0    Cl36225   3.575   0.384   8.213 -0.1221  0.3493  0.4864
  269MOL0     C36226   2.522   0.615   8.514 -0.0563  0.5977  0.3651
  269MOL0     C36227   2.387   0.672   8.535  0.0661 -0.5869 -0.7290
  269MOL0     O36228   2.109   0.742   8.243 -0.9310  0.0783 -0.1591
  269MOL0     C36229   1.931   0.760   8.533 -0.3728 -0.6288 -0.0824
  269MOL0     C36230   1.804   0.760   8.599  0.7030  0.1162  0.6482
  269MOL0     N36231   1.329   1.215   8.997 -0.4230  0.1609  0.4774
  269MOL0     N36232   1.320   1.269   9.112 -0.0927  0.2351 -0.0392
  269MOL0     C36233   1.247   1.932   9.570 -0.0010 -0.6937  0.7448
  269MOL0     C36234   1.145   2.013   9.626 -1.0491  0.6804 -1.1949
  269MOL0     C36235   0.883   2.253   9.824 -0.4051 -0.2087  0.0348
  269MOL0     C36236   0.880   2.249   9.968  0.0719 -0.1461  0.9228
  269MOL0     C36237   0.755   2.289  10.028  0.1783  0.0648 -0.4001
  269MOL0     C36238   0.651   2.343   9.955 -0.0781  0.6275  0.2624
  269MOL0     O36239   0.520   2.364  10.003 -0.8438  0.9072 -0.2885
  269MOL0     C36240   0.491   2.299  10.129  0.3418 -0.5086 -1.2486
  269MOL0     C36241   0.347   2.313  10.165  0.0933  0.1170  0.0238
  269MOL0     C36242   0.327   2.447  10.237  0.6782 -0.0580 -0.0025
  269MOL0     C36243   0.170   2.478  10.250 -0.1589 -0.4111 -0.7132
  269MOL0     C36244   0.107   2.390  10.354  0.0563  0.3913 -0.1753
  269MOL0     C36245   0.050   2.320  10.437 -0.0874  0.0586 -1.4989
  269MOL0     C36246   0.660   2.358   9.825  0.8821 -0.2260  0.2207
  269MOL0     C36247   0.774   2.326   9.757  0.1270 -0.0880 -0.0832
  269MOL0     H36248   1.362   2.140   9.865 -2.7050  0.6064 -0.4971
  269MOL0     H36249   1.532   2.006   9.749 -0.3696  3.2167  2.5236
  269MOL0     H36250   1.634   1.800   9.671 -0.0384 -0.7852  1.8875
  269MOL0     H36251   1.475   1.731   9.720 -0.8311  2.8322 -0.1901
  269MOL0     H36252   1.490   1.575   9.503 -1.9827  0.4476  2.0640
  269MOL0     H36253   1.657   1.647   9.485  1.0980 -3.6953 -1.0323
  269MOL0     H36254   1.734   1.569   9.691  1.0905 -1.4035  0.6722
  269MOL0     H36255   1.570   1.499   9.735 -1.5492  0.9140 -1.8136
  269MOL0     H36256   1.744   1.382   9.523 -0.8629 -4.0788 -0.5628
  269MOL0     H36257   1.734   1.336   9.695 -1.7162  2.4340  0.9090
  269MOL0     H36258   1.529   1.256   9.692  1.7548 -2.2899 -0.9357
  269MOL0     H36259   1.478   1.375   9.553 -2.0372  0.9247  2.9653
  269MOL0     H36260   1.674   1.163   9.492 -0.2077 -1.1976 -0.4384
  269MOL0     H36261   1.527   1.092   9.529 -0.0035  0.1559 -0.3114
  269MOL0     H36262   1.546   1.323   9.337  0.2680  0.9745  1.9074
  269MOL0     H36263   1.567   1.163   9.285 -4.2179 -1.7690 -0.9017
  269MOL0     H36264   1.319   1.303   9.379  1.1148  1.2474  2.1715
  269MOL0     H36265   1.335   1.134   9.426  0.1982  1.5260  0.4862
  269MOL0     H36266   1.384   0.959   9.194  0.9324  0.5615  1.3546
  269MOL0     H36267   1.303   0.873   8.937  0.6184 -0.2167 -0.3765
  269MOL0     H36268   1.213   1.013   8.855  1.2685  0.8205 -1.6282
  269MOL0     H36269   1.498   0.926   8.840 -1.7401  0.0083  0.6411
  269MOL0     H36270   1.473   1.079   8.792  2.7745 -1.4740  4.1537
  269MOL0     H36271   1.284   0.993   8.635 -0.0715 -1.0589 -0.3919
  269MOL0     H36272   1.315   0.826   8.687 -0.8316  0.3507  0.2431
  269MOL0     H36273   1.521   0.998   8.529  0.3670 -1.1292 -1.3847
  269MOL0     H36274   1.423   0.860   8.471 -3.0949 -2.7845  2.4876
  269MOL0     H36275   1.628   0.909   8.349  0.3029  0.4764 -1.5054
  269MOL0     H36276   1.757   0.912   8.134  0.1747  3.0731  1.0664
  269MOL0     H36277   1.913   0.980   8.200  2.5889 -1.1923 -0.6581
  269MOL0     H36278   1.903   0.823   8.131  0.2922  0.4858  0.4425
  269MOL0     H36279   2.351   0.802   8.221 -0.2667  0.9554  0.2782
  269MOL0     H36280   2.553   0.669   8.182  1.8309 -3.6508  0.8612
  269MOL0     H36281   2.826   0.619   8.221 -1.9090 -1.2968 -0.4229
  269MOL0     H36282   2.786   0.729   8.359  0.4512  0.7943 -0.7668
  269MOL0     H36283   2.919   0.624   8.507  1.3321 -3.6276  3.0158
  269MOL0     H36284   2.924   0.469   8.419  1.1912  0.5115  0.8743
  269MOL0     H36285   3.139   0.623   8.432  2.0977  1.2369 -1.7005
  269MOL0     H36286   3.052   0.722   8.317  0.0835  0.1149  1.6944
  269MOL0     H36287   3.135   0.435   8.286  0.7465 -1.5010 -1.5161
  269MOL0     H36288   3.048   0.538   8.159  0.7251 -0.3469 -0.1255
  269MOL0     H36289   3.307   0.634   8.259 -0.4061  0.6401 -0.0312
  269MOL0     H36290   3.193   0.696   8.142 -2.3349 -1.0006  0.2929
  269MOL0     H36291   3.261   0.523   7.982 -1.6635 -2.2017  0.4835
  269MOL0     H36292   3.409   0.562   8.075 -0.7045  0.8271 -2.7784
  269MOL0     H36293   3.358   0.319   8.030 -0.0185 -1.4190  0.9077
  269MOL0     H36294   3.218   0.332   8.130 -0.4240  0.1806  0.7163
  269MOL0     H36295   3.409   0.222   8.231 -2.4049 -0.0527  5.2583
  269MOL0     H36296   3.378   0.357   8.332 -1.6675  0.0564 -0.5036
  269MOL0     H36297   2.577   0.565   8.593 -1.2272  0.3764  1.0543
  269MOL0     H36298   2.330   0.681   8.627  0.0127  0.2148 -0.8340
  269MOL0     H36299   2.012   0.730   8.599  0.4914  2.1133  0.2433
  269MOL0     H36300   1.803   0.714   8.697  2.7791 -1.0305  0.1943
  269MOL0     H36301   1.218   1.872   9.484  1.2909  0.3533 -0.4673
  269MOL0     H36302   1.047   2.023   9.580 -0.8036  3.3824 -1.2760
  269MOL0     H36303   0.970   2.220  10.021 -0.2691 -2.7864  0.1796
  269MOL0     H36304   0.740   2.271  10.134  1.9870 -0.6167 -0.2210
  269MOL0     H36305   0.513   2.192  10.122  0.4126 -0.9200  3.0208
  269MOL0     H36306   0.547   2.336  10.215 -1.0468 -1.7501  0.2303
  269MOL0     H36307   0.318   2.237  10.238  1.0468 -1.7695 -1.4449
  269MOL0     H36308   0.274   2.301  10.084 -1.8893  2.4295  1.3394
  269MOL0     H36309   0.374   2.520  10.170  0.6183 -0.6055 -0.6481
  269MOL0     H36310   0.376   2.469  10.332  1.3003 -0.2884 -0.2621
  269MOL0     H36311   0.115   2.460  10.157  1.5566 -1.7039 -1.5440
  269MOL0     H36312   0.155   2.579  10.287 -1.8584 -1.5530  2.0187
  269MOL0     H36313  -0.012   2.256  10.496  1.3093 -0.9541 -1.0622
  269MOL0     H36314   0.573   2.389   9.768  1.4106 -4.2690 -3.2647
  269MOL0     H36315   0.777   2.343   9.650 -0.1228  3.2634  0.3430
  270MOL0     O36316   7.076   0.204   5.063 -0.4175 -0.1607 -0.4872
  270MOL0     C36317   7.035   0.290   4.987  0.5276  0.6241 -0.0901
  270MOL0     O36318   7.011   0.427   5.019  0.0186  0.2440 -0.4788
  270MOL0     C36319   7.035   0.478   5.145  0.1099  0.3457 -0.9583
  270MOL0     C36320   7.016   0.413   5.265  0.2020 -0.5225  0.1061
  270MOL0     C36321   7.060   0.479   5.378  0.8133 -0.2286 -0.4846
  270MOL0     C36322   7.102   0.608   5.381 -0.9826 -0.0221  0.2180
  270MOL0     O36323   7.147   0.659   5.502 -0.5389  0.4857  0.0460
  270MOL0     C36324   7.044   0.707   5.594 -1.4885  1.3260  0.6127
  270MOL0     C36325   7.070   0.855   5.610 -0.1868 -0.3281 -0.1347
  270MOL0     C36326   6.934   0.915   5.653  0.5582 -0.0689 -0.3224
  270MOL0     C36327   6.935   1.053   5.719  0.8146  1.4607  0.4708
  270MOL0     C36328   6.826   1.062   5.824  0.1073  0.2789 -0.5499
  270MOL0     C36329   6.792   1.210   5.841 -0.9272 -0.0394 -0.2313
  270MOL0     C36330   6.664   1.246   5.912  0.3262 -0.2466 -0.6014
  270MOL0     C36331   6.638   1.164   6.040  1.1368 -0.3864  0.5369
  270MOL0     N36332   6.754   1.145   6.117  0.2850  1.0144 -0.3854
  270MOL0     C36333   6.854   1.234   6.155 -0.0953  0.9435  0.3701
  270MOL0     C36334   6.908   1.173   6.268  0.8488  0.3354  0.3956
  270MOL0     C36335   7.023   1.234   6.336 -0.3407  0.3382  0.1992
  270MOL0     C36336   7.149   1.160   6.290  0.3320 -0.8254  0.0935
  270MOL0     C36337   7.277   1.216   6.360  1.0913  0.1278  0.3159
  270MOL0     C36338   7.409   1.147   6.297 -0.4511  0.1295  0.4296
  270MOL0     O36339   7.440   1.228   6.179 -0.1707  0.9523 -0.4128
  270MOL0     C36340   7.519   1.155   6.091 -0.0967  0.4954 -0.8139
  270MOL0     C36341   7.461   1.090   5.986 -1.2684  0.0285 -0.0325
  270MOL0     C36342   7.534   1.024   5.884 -0.2971 -0.0782  0.4114
  270MOL0     C36343   7.456   0.937   5.782 -0.6003  0.0865 -0.6324
  270MOL0     C36344   7.681   1.027   5.895 -0.2751  0.1510 -0.1202
  270MOL0     C36345   7.772   0.976   5.791 -0.2162  0.6113  0.2186
  270MOL0     O36346   7.910   0.976   5.822  0.0019 -0.3303 -0.2225
  270MOL0     C36347   8.001   0.909   5.753  0.3464  0.2574  0.5995
  270MOL0     C36348   7.988   0.774   5.719  0.0172 -0.0739 -0.0498
  270MOL0     C36349   8.084   0.712   5.632 -0.7447  0.3426 -0.2982
  270MOL0     C36350   8.198   0.786   5.577  0.7179  0.3143 -0.5990
  270MOL0     O36351   8.276   0.737   5.474 -0.0495 -0.2438 -0.3057
  270MOL0     C36352   8.319   0.601   5.459  1.4152 -0.0919  0.1174
  270MOL0     C36353   8.375   0.577   5.328  0.5737  0.7124  0.4162
  270MOL0     C36354   8.436   0.429   5.312  0.6816 -1.2167 -0.2603
  270MOL0     C36355   8.342   0.335   5.245 -0.2875  0.1932 -0.4952
  270MOL0     C36356   8.417   0.209   5.210 -0.5596 -0.9491 -0.1753
  270MOL0     C36357   8.474   0.127   5.335 -0.6528 -0.0659  0.1315
  270MOL0     C36358   8.529  -0.009   5.305  0.0909 -0.3348 -0.4300
  270MOL0     C36359   8.651  -0.005   5.212 -0.2141 -0.2326  0.9132
  270MOL0    Cl36360   8.715  -0.174   5.185  0.2017 -0.4680  0.0228
  270MOL0     C36361   8.208   0.923   5.610  0.6778 -0.1722 -0.8192
  270MOL0     C36362   8.111   0.980   5.699 -0.0057 -0.5065 -0.5947
  270MOL0     O36363   7.727   0.931   5.688  0.0935 -0.1841  0.1766
  270MOL0     C36364   7.736   1.084   6.014  0.4670  0.0534 -0.2763
  270MOL0     C36365   7.660   1.146   6.110  0.4253  0.2263  0.4172
  270MOL0     N36366   6.849   1.051   6.289 -0.4304 -0.0561 -1.0784
  270MOL0     N36367   6.759   1.037   6.192  0.2730 -0.1586 -0.3997
  270MOL0     C36368   7.105   0.678   5.262  0.6454  0.4069 -0.4647
  270MOL0     C36369   7.076   0.612   5.143 -0.2818 -0.0690  0.0314
  270MOL0     C36370   6.981   0.234   4.862  0.7483 -0.3092  0.1948
  270MOL0     C36371   6.955   0.310   4.749  0.6598 -0.6871  0.3494
  270MOL0     C36372   6.909   0.255   4.631  0.3197 -0.3311  0.4642
  270MOL0     C36373   6.893   0.111   4.628  0.1435  1.0101 -0.3496
  270MOL0     O36374   6.832   0.034   4.530  0.4532  0.0324 -0.2497
  270MOL0     C36375   6.828   0.092   4.403  0.4096  0.1108  0.4802
  270MOL0     C36376   6.961   0.099   4.345 -0.4189 -0.1855  1.2849
  270MOL0     C36377   6.957   0.121   4.191 -0.2269 -0.6916 -0.1347
  270MOL0     C36378   7.094   0.119   4.110  0.0084 -0.7774  0.1697
  270MOL0     C36379   7.066   0.189   3.975 -0.2772  0.3934 -0.1224
  270MOL0     C36380   7.026   0.221   3.865  0.7147 -0.6470  0.1370
  270MOL0     C36381   6.919   0.031   4.736  0.6198  0.5908 -0.5603
  270MOL0     C36382   6.953   0.091   4.855 -0.3566 -0.0506 -0.2546
  270MOL0     H36383   6.986   0.309   5.273 -0.8797 -0.3815 -1.4901
  270MOL0     H36384   7.069   0.418   5.467  0.5922  0.3890 -0.0310
  270MOL0     H36385   6.942   0.681   5.564 -1.3384  0.7457  0.5812
  270MOL0     H36386   7.057   0.653   5.688 -4.4768 -1.3301 -0.3310
  270MOL0     H36387   7.145   0.866   5.689 -0.1399  0.7876 -0.3121
  270MOL0     H36388   7.105   0.910   5.522  2.5421 -1.2733  0.2530
  270MOL0     H36389   6.877   0.929   5.561  1.2791 -1.7827 -1.0770
  270MOL0     H36390   6.900   0.846   5.731 -1.9452 -0.2854 -1.4899
  270MOL0     H36391   7.033   1.050   5.767  2.4092  3.8072 -2.2344
  270MOL0     H36392   6.947   1.130   5.641 -1.4221  1.0970 -0.3223
  270MOL0     H36393   6.730   1.011   5.808 -0.8100  0.4207  3.5218
  270MOL0     H36394   6.864   1.025   5.919  1.3947  2.7785 -0.0271
  270MOL0     H36395   6.880   1.264   5.876  0.0946  0.4597 -3.2340
  270MOL0     H36396   6.785   1.252   5.740 -2.5319  3.6006  1.2364
  270MOL0     H36397   6.666   1.353   5.938  1.1675 -0.1886 -0.8780
  270MOL0     H36398   6.573   1.241   5.850 -0.0189  0.1925 -0.1389
  270MOL0     H36399   6.604   1.067   6.002  1.8710 -0.7207  0.7245
  270MOL0     H36400   6.552   1.198   6.100 -0.0047  0.1082 -1.2973
  270MOL0     H36401   6.905   1.316   6.106  1.9434 -1.3019 -1.5184
  270MOL0     H36402   7.039   1.342   6.337 -2.7542  0.9099  4.5193
  270MOL0     H36403   7.028   1.212   6.443  0.3432  0.8856  0.2862
  270MOL0     H36404   7.166   1.179   6.183 -1.3921  1.8457  0.1960
  270MOL0     H36405   7.125   1.054   6.300 -0.8842 -0.6401 -0.6481
  270MOL0     H36406   7.274   1.181   6.463 -2.7573  2.5024  1.2015
  270MOL0     H36407   7.285   1.325   6.365  1.7852  0.1370 -0.6527
  270MOL0     H36408   7.388   1.041   6.279  1.3738 -0.3844  1.1303
  270MOL0     H36409   7.491   1.156   6.368 -0.5537 -1.0704  0.7350
  270MOL0     H36410   7.353   1.078   5.989 -1.1487 -1.6885 -1.1608
  270MOL0     H36411   7.350   0.947   5.804 -0.0035  3.5596  1.5526
  270MOL0     H36412   7.474   0.986   5.686 -1.0563  1.9876  0.1890
  270MOL0     H36413   7.488   0.833   5.783  0.6852  0.4346 -1.9575
  270MOL0     H36414   7.897   0.724   5.751 -1.8803  1.9659 -1.8884
  270MOL0     H36415   8.063   0.608   5.609 -2.6327  0.5690  0.2359
  270MOL0     H36416   8.388   0.573   5.540  3.7048 -1.2763 -2.1119
  270MOL0     H36417   8.232   0.535   5.466  0.5640  0.7321 -1.8905
  270MOL0     H36418   8.303   0.578   5.245  0.2672  0.7777  0.6822
  270MOL0     H36419   8.455   0.647   5.302  1.3268 -0.7707 -1.6004
  270MOL0     H36420   8.470   0.394   5.409 -4.7971 -1.7375  1.8379
  270MOL0     H36421   8.518   0.452   5.243  0.7864 -1.4004 -0.1952
  270MOL0     H36422   8.258   0.304   5.308 -1.6930  3.3319 -0.6343
  270MOL0     H36423   8.301   0.389   5.159 -0.5164 -0.4240 -0.7863
  270MOL0     H36424   8.500   0.228   5.141 -0.0322 -0.8165  0.4870
  270MOL0     H36425   8.347   0.136   5.168 -0.7496 -1.9853  1.7901
  270MOL0     H36426   8.553   0.190   5.377 -1.6001  1.4614 -0.2843
  270MOL0     H36427   8.393   0.123   5.407 -0.1742 -1.0619  0.6337
  270MOL0     H36428   8.441  -0.064   5.270 -0.1516 -0.4894  0.4140
  270MOL0     H36429   8.551  -0.069   5.393 -0.5656 -0.1642 -0.1435
  270MOL0     H36430   8.622   0.037   5.115  3.3357 -1.5271 -0.8912
  270MOL0     H36431   8.735   0.056   5.247 -0.8510  0.3978  1.3886
  270MOL0     H36432   8.287   0.984   5.567  0.1260  1.7090  0.6917
  270MOL0     H36433   8.131   1.084   5.722 -0.1187 -1.0230  2.1536
  270MOL0     H36434   7.845   1.083   6.013  0.4926 -1.9197 -1.8339
  270MOL0     H36435   7.709   1.189   6.197 -2.5957 -0.1339  2.4865
  270MOL0     H36436   7.127   0.785   5.260 -2.3145  1.0989 -1.3364
  270MOL0     H36437   7.086   0.669   5.051 -0.9857 -0.7243 -0.4611
  270MOL0     H36438   6.951   0.417   4.764  0.4357  0.1566 -4.2507
  270MOL0     H36439   6.867   0.312   4.549 -0.2205  1.1748  1.7334
  270MOL0     H36440   6.766   0.024   4.344  2.4913 -1.8220  0.3764
  270MOL0     H36441   6.774   0.187   4.402 -0.0000 -0.1141 -0.9395
  270MOL0     H36442   7.005   0.003   4.374 -2.5524 -0.6448  3.2517
  270MOL0     H36443   7.026   0.175   4.390  1.3702  0.9690 -2.8057
  270MOL0     H36444   6.919   0.220   4.167 -0.8205 -1.2802 -1.7471
  270MOL0     H36445   6.887   0.050   4.146  1.3208 -2.0889 -0.4568
  270MOL0     H36446   7.123   0.013   4.105 -2.7740 -1.6574  1.0352
  270MOL0     H36447   7.165   0.181   4.165  0.2388  2.0409 -3.0113
  270MOL0     H36448   7.003   0.247   3.763 -4.2035  1.2393  1.4353
  270MOL0     H36449   6.925  -0.077   4.727 -3.3476 -0.2786  3.3547
  270MOL0     H36450   6.973   0.023   4.937 -2.9433 -2.5231 -1.4920
  271MOL0     O36451   7.936   1.417   0.784 -0.3373  0.1707 -0.4397
  271MOL0     C36452   8.021   1.383   0.705 -0.2866 -0.7700 -0.0956
  271MOL0     O36453   8.044   1.255   0.662  0.7624 -0.6081 -0.1482
  271MOL0     C36454   7.961   1.147   0.693 -0.6463 -0.4778 -0.5457
  271MOL0     C36455   7.832   1.149   0.737  1.7300 -0.2313 -0.1169
  271MOL0     C36456   7.760   1.030   0.744  0.5284  1.2084  0.8247
  271MOL0     C36457   7.820   0.906   0.725  0.4669 -0.2729 -0.1298
  271MOL0     O36458   7.756   0.787   0.728  0.4382  0.6694  0.2474
  271MOL0     C36459   7.619   0.773   0.766 -0.8830 -0.0697 -0.0718
  271MOL0     C36460   7.621   0.637   0.853 -0.1816 -0.3821 -0.6853
  271MOL0     C36461   7.512   0.639   0.960 -0.1215  0.3016 -0.4866
  271MOL0     C36462   7.510   0.503   1.036  0.7670 -0.1432  0.1863
  271MOL0     C36463   7.410   0.499   1.151  0.3457  0.7212  0.4155
  271MOL0     C36464   7.436   0.374   1.237  1.3405 -0.2825 -0.3097
  271MOL0     C36465   7.319   0.342   1.327 -0.3841 -0.3869 -0.3022
  271MOL0     C36466   7.306   0.445   1.441 -0.3226 -0.1746 -0.1295
  271MOL0     N36467   7.213   0.391   1.546 -0.1173  0.3401 -0.1936
  271MOL0     C36468   7.240   0.288   1.632  0.1393 -0.6558 -0.7619
  271MOL0     C36469   7.122   0.266   1.695  1.1982  0.7790 -0.1086
  271MOL0     C36470   7.115   0.175   1.815 -0.1997  0.0782 -0.2004
  271MOL0     C36471   7.234   0.198   1.920  0.6415  0.6352 -0.0040
  271MOL0     C36472   7.239   0.081   2.023 -0.4925 -0.3942 -0.2728
  271MOL0     C36473   7.326   0.099   2.145  0.1089  0.5088  0.1675
  271MOL0     O36474   7.337  -0.030   2.211 -0.2245 -0.4084 -0.1110
  271MOL0     C36475   7.244  -0.090   2.290 -0.5286  0.3326  0.3245
  271MOL0     C36476   7.113  -0.038   2.309  1.0915 -0.0494 -0.0612
  271MOL0     C36477   7.021  -0.107   2.393 -0.8462 -0.2638  0.6016
  271MOL0     C36478   6.879  -0.057   2.393  0.3859 -0.1965  0.2634
  271MOL0     C36479   7.066  -0.214   2.467  0.5784  0.4055 -0.2666
  271MOL0     C36480   6.988  -0.288   2.568 -0.0724 -0.4542 -0.1117
  271MOL0     O36481   7.069  -0.323   2.678 -0.2451  0.3771  0.4845
  271MOL0     C36482   7.011  -0.403   2.770 -0.0148  0.0178  0.1078
  271MOL0     C36483   6.909  -0.358   2.856  0.5688 -0.1485  0.9670
  271MOL0     C36484   6.858  -0.427   2.964  0.1500 -0.2999  0.3049
  271MOL0     C36485   6.913  -0.547   2.995  0.7158  0.4640  1.4047
  271MOL0     O36486   6.861  -0.625   3.102 -0.5544 -0.0105 -0.5516
  271MOL0     C36487   6.785  -0.571   3.209 -0.4841 -0.4970 -0.6805
  271MOL0     C36488   6.753  -0.666   3.329  0.8349 -0.3557 -0.9921
  271MOL0     C36489   6.888  -0.699   3.410  0.2198  0.6898 -0.4065
  271MOL0     C36490   6.866  -0.775   3.541 -0.5712  1.2448  0.4058
  271MOL0     C36491   6.984  -0.754   3.638  0.3809  0.1999 -0.2675
  271MOL0     C36492   6.944  -0.802   3.774  1.1174 -0.5744  0.7550
  271MOL0     C36493   7.036  -0.756   3.880  0.3776 -0.3595  0.2088
  271MOL0     C36494   7.021  -0.854   3.994  1.0757 -0.0489 -0.6555
  271MOL0    Cl36495   7.103  -0.769   4.128  0.1708  0.2905  0.3356
  271MOL0     C36496   7.017  -0.603   2.905  0.4984 -0.0147 -0.7882
  271MOL0     C36497   7.064  -0.531   2.798 -0.4688 -0.1505  0.3309
  271MOL0     O36498   6.870  -0.315   2.561 -0.0466 -0.5668  0.5866
  271MOL0     C36499   7.193  -0.271   2.454  0.7133 -0.3012  0.4255
  271MOL0     C36500   7.286  -0.214   2.355  1.1839 -1.2573 -1.1658
  271MOL0     N36501   7.021   0.326   1.617  0.0986  0.1845 -0.9908
  271MOL0     N36502   7.083   0.387   1.531 -0.0088 -0.5530  0.0801
  271MOL0     C36503   7.953   0.903   0.692 -0.5831  0.4737 -0.1850
  271MOL0     C36504   8.028   1.022   0.686  0.3821  1.0541  1.4947
  271MOL0     C36505   8.111   1.486   0.664 -0.8558 -0.0810 -0.8401
  271MOL0     C36506   8.236   1.456   0.621 -0.0083  0.6800  0.0143
  271MOL0     C36507   8.314   1.559   0.580 -0.6668 -0.1433 -0.1753
  271MOL0     C36508   8.277   1.694   0.574 -0.1670  0.1470 -0.5596
  271MOL0     O36509   8.366   1.793   0.542  0.3796 -0.2352 -0.0805
  271MOL0     C36510   8.314   1.925   0.533 -0.1616 -0.4508  0.8835
  271MOL0     C36511   8.433   2.022   0.499 -0.5773  1.0921  1.1215
  271MOL0     C36512   8.395   2.167   0.500 -0.4083 -0.2210 -0.0688
  271MOL0     C36513   8.484   2.255   0.580 -0.5777 -0.2911 -0.3914
  271MOL0     C36514   8.425   2.385   0.620 -0.2995 -0.1613 -0.3564
  271MOL0     C36515   8.372   2.491   0.634 -0.4361 -0.2020  0.6036
  271MOL0     C36516   8.148   1.723   0.612  0.3041  0.1045  0.2236
  271MOL0     C36517   8.064   1.614   0.662  0.1676 -0.9507 -0.7031
  271MOL0     H36518   7.779   1.243   0.752  0.5162 -0.7955 -0.7891
  271MOL0     H36519   7.653   1.035   0.758  0.5313  0.5132  1.1305
  271MOL0     H36520   7.584   0.856   0.827  1.9697  2.9549 -2.2366
  271MOL0     H36521   7.549   0.763   0.682  0.1147 -0.6757 -0.8519
  271MOL0     H36522   7.614   0.546   0.793  0.7438  0.6142 -2.3874
  271MOL0     H36523   7.719   0.636   0.900 -0.1772 -4.1851 -0.4816
  271MOL0     H36524   7.553   0.720   1.020 -0.0037  1.2831 -1.8586
  271MOL0     H36525   7.418   0.664   0.910 -1.5217 -3.5187 -0.1169
  271MOL0     H36526   7.484   0.423   0.966  0.7897  0.9842 -1.1543
  271MOL0     H36527   7.611   0.480   1.071  1.4706  2.4618  0.0585
  271MOL0     H36528   7.426   0.587   1.213  0.3224 -0.3344  1.9711
  271MOL0     H36529   7.305   0.498   1.118 -0.4829 -3.7184  2.4142
  271MOL0     H36530   7.462   0.289   1.173  1.7739 -0.5666  0.2400
  271MOL0     H36531   7.532   0.388   1.287  2.3315 -2.4407 -1.4526
  271MOL0     H36532   7.223   0.334   1.276  0.7874  0.4508 -2.8124
  271MOL0     H36533   7.334   0.242   1.369  0.9658  0.1409  0.5268
  271MOL0     H36534   7.271   0.543   1.409 -2.4620 -0.8122  0.0572
  271MOL0     H36535   7.403   0.465   1.486  0.2311 -4.9723  1.4541
  271MOL0     H36536   7.339   0.253   1.662 -1.1936 -3.0961  1.1925
  271MOL0     H36537   7.021   0.186   1.869 -2.5977  1.0767 -4.1815
  271MOL0     H36538   7.111   0.070   1.783  0.9709 -0.2076  0.5040
  271MOL0     H36539   7.215   0.295   1.968  1.5368  1.1862 -0.7376
  271MOL0     H36540   7.334   0.201   1.877  2.5717  1.2642  4.1005
  271MOL0     H36541   7.282  -0.000   1.964 -0.8815  0.7809 -2.2801
  271MOL0     H36542   7.137   0.059   2.057  0.3269  1.1677  3.7826
  271MOL0     H36543   7.275   0.166   2.214 -0.0393 -0.6401  1.2035
  271MOL0     H36544   7.420   0.148   2.117 -0.8833  3.0070  0.9360
  271MOL0     H36545   7.075   0.051   2.260 -0.9682 -0.3955  0.8035
  271MOL0     H36546   6.833  -0.067   2.491  0.0607 -1.3366  0.0112
  271MOL0     H36547   6.879   0.050   2.368  1.4985  0.0394  1.1616
  271MOL0     H36548   6.808  -0.107   2.327 -1.6295  2.2232  0.4447
  271MOL0     H36549   6.863  -0.262   2.834 -0.5303 -1.1232 -1.3349
  271MOL0     H36550   6.771  -0.390   3.016 -1.3873  1.0493 -2.9305
  271MOL0     H36551   6.839  -0.483   3.245 -1.1372  0.4175 -1.8701
  271MOL0     H36552   6.686  -0.547   3.170 -2.6345 -3.9041  2.1560
  271MOL0     H36553   6.663  -0.636   3.383 -1.7708 -4.3753 -2.5678
  271MOL0     H36554   6.729  -0.764   3.287 -1.6060  0.3160 -1.2893
  271MOL0     H36555   6.937  -0.605   3.438 -2.8827  1.7813  1.9118
  271MOL0     H36556   6.952  -0.759   3.345  0.5427 -0.1036  0.6182
  271MOL0     H36557   6.784  -0.725   3.594 -0.9228  2.0303 -0.8335
  271MOL0     H36558   6.842  -0.880   3.526  0.8942  1.0636 -0.8729
  271MOL0     H36559   6.987  -0.645   3.650  0.6707 -0.0647  2.9708
  271MOL0     H36560   7.071  -0.804   3.594  2.2779  1.8508  1.4150
  271MOL0     H36561   6.848  -0.755   3.796  1.7064  1.2979 -0.5114
  271MOL0     H36562   6.928  -0.910   3.774 -1.2112 -0.2909 -1.3783
  271MOL0     H36563   7.000  -0.660   3.920 -3.4453 -1.8502  0.7936
  271MOL0     H36564   7.139  -0.742   3.847  0.7301  3.0074  2.2253
  271MOL0     H36565   7.058  -0.955   3.979 -0.6603 -0.5325 -1.9835
  271MOL0     H36566   6.915  -0.854   4.020  1.1556  0.7480 -0.2941
  271MOL0     H36567   7.046  -0.706   2.924  0.3215  0.2584  1.1799
  271MOL0     H36568   7.133  -0.567   2.723 -2.2332  0.6689 -1.7899
  271MOL0     H36569   7.228  -0.355   2.513 -0.1347 -1.5319 -0.7556
  271MOL0     H36570   7.388  -0.251   2.351  1.7423  0.2479 -1.5692
  271MOL0     H36571   8.000   0.808   0.667  2.1094  1.8347 -0.6727
  271MOL0     H36572   8.129   1.022   0.647 -1.6188  1.3636 -4.6956
  271MOL0     H36573   8.273   1.355   0.606 -1.7573  0.3338 -2.8577
  271MOL0     H36574   8.416   1.532   0.555 -0.0674 -2.4873  3.9533
  271MOL0     H36575   8.234   1.917   0.460  0.3947  0.2113  0.1925
  271MOL0     H36576   8.282   1.959   0.632  1.5145  2.4785  0.5175
  271MOL0     H36577   8.477   2.014   0.399  0.1451 -2.3695  1.5899
  271MOL0     H36578   8.509   1.995   0.573  1.3613 -0.6613 -1.3161
  271MOL0     H36579   8.297   2.175   0.549 -0.7573  0.0221 -0.7904
  271MOL0     H36580   8.400   2.206   0.398  0.8777  0.8877  0.3888
  271MOL0     H36581   8.573   2.282   0.522 -1.8764  2.7536 -1.1451
  271MOL0     H36582   8.520   2.209   0.672  0.8804 -1.3790 -1.4663
  271MOL0     H36583   8.336   2.589   0.659 -0.6507 -0.2803  0.6013
  271MOL0     H36584   8.107   1.822   0.630  2.2473  1.3752 -1.8726
  271MOL0     H36585   7.965   1.635   0.701  0.1986 -2.4282  0.2501
  272MOL0     O36586  10.160   4.316   1.258 -0.4403 -0.0598 -0.0919
  272MOL0     C36587  10.060   4.374   1.226 -0.0792 -0.0335 -0.0177
  272MOL0     O36588  10.036   4.452   1.117  0.4864 -0.0238  0.5023
  272MOL0     C36589  10.118   4.468   1.013 -0.2676 -1.2302 -0.1096
  272MOL0     C36590  10.253   4.493   1.026 -0.4990  0.3802 -0.7779
  272MOL0     C36591  10.336   4.516   0.920 -0.0071  0.0895  0.9848
  272MOL0     C36592  10.284   4.502   0.786 -0.0097 -1.5378  0.0794
  272MOL0     O36593  10.374   4.503   0.682  0.7284  0.7929  0.0291
  272MOL0     C36594  10.371   4.386   0.591 -0.3074 -0.1601  0.4944
  272MOL0     C36595  10.516   4.347   0.548  0.2609 -0.0055 -0.1203
  272MOL0     C36596  10.629   4.338   0.653 -0.2434 -0.3612 -0.5731
  272MOL0     C36597  10.588   4.250   0.781  0.6179  0.3613 -0.5229
  272MOL0     C36598  10.689   4.265   0.894  0.5263  0.1260  0.0091
  272MOL0     C36599  10.654   4.190   1.028  0.2768  0.0586 -0.3750
  272MOL0     C36600  10.527   4.241   1.098  0.8441  0.8031 -0.2279
  272MOL0     C36601  10.522   4.242   1.248 -0.0387 -0.4091 -0.1909
  272MOL0     N36602  10.552   4.114   1.309  0.0710  0.1847  0.0422
  272MOL0     C36603  10.668   4.072   1.365 -0.0800  0.5149 -0.2564
  272MOL0     C36604  10.641   3.955   1.429  0.3362 -0.2285  0.1934
  272MOL0     C36605  10.738   3.873   1.508 -0.6976  1.2617 -0.0503
  272MOL0     C36606  10.799   3.761   1.429 -0.0737 -0.5919 -0.2689
  272MOL0     C36607  10.947   3.728   1.459  0.4830  0.6553 -1.3316
  272MOL0     C36608  10.975   3.673   1.606  0.8959  0.7196  0.3820
  272MOL0     O36609  11.101   3.711   1.654 -0.0579  0.1188  0.6408
  272MOL0     C36610  11.205   3.625   1.647 -1.0702 -0.0463  0.6153
  272MOL0     C36611  11.310   3.634   1.747  0.4996  0.6937 -0.0517
  272MOL0     C36612  11.428   3.555   1.739 -0.5313 -0.8608 -0.0684
  272MOL0     C36613  11.535   3.588   1.843 -0.3550 -0.9731 -0.8983
  272MOL0     C36614  11.442   3.457   1.632 -0.3497  0.1216  0.9451
  272MOL0     C36615  11.558   3.367   1.612 -0.2088  0.4069  0.7393
  272MOL0     O36616  11.569   3.266   1.706  0.4748  0.1223 -0.0046
  272MOL0     C36617  11.696   3.204   1.716 -0.3839  0.1448  0.3972
  272MOL0     C36618  11.708   3.066   1.694 -0.3982  0.2028 -0.4095
  272MOL0     C36619  11.833   2.993   1.706 -0.6673 -0.7110 -0.0286
  272MOL0     C36620  11.949   3.066   1.708 -0.3407 -0.6360  0.6890
  272MOL0     O36621  12.064   2.994   1.697 -1.0647 -1.0165  0.1954
  272MOL0     C36622  12.184   3.059   1.660 -0.2579  0.5654 -0.0434
  272MOL0     C36623  12.305   2.967   1.617  0.0680  0.4530  0.3048
  272MOL0     C36624  12.374   2.897   1.742  0.0617 -0.3290 -0.7227
  272MOL0     C36625  12.320   2.752   1.744 -0.2036 -0.4693 -0.1328
  272MOL0     C36626  12.399   2.659   1.851  0.0424  0.9917 -0.5121
  272MOL0     C36627  12.355   2.515   1.848  0.6408  0.9236 -0.3137
  272MOL0     C36628  12.379   2.432   1.720  0.5972  0.8041  0.8922
  272MOL0     C36629  12.332   2.290   1.733  0.0744 -0.7807  0.6511
  272MOL0    Cl36630  12.377   2.204   1.586 -0.3330  0.3049 -0.1906
  272MOL0     C36631  11.945   3.201   1.725  0.1866  0.3993  0.0764
  272MOL0     C36632  11.824   3.269   1.735  0.6275 -0.0986 -0.6736
  272MOL0     O36633  11.637   3.388   1.527 -0.0377  0.4688 -0.3492
  272MOL0     C36634  11.337   3.452   1.531 -0.3772 -0.9276 -0.2825
  272MOL0     C36635  11.219   3.529   1.538 -0.0662  0.2134  0.1588
  272MOL0     N36636  10.507   3.922   1.398 -0.0386 -0.0268 -0.7015
  272MOL0     N36637  10.459   4.015   1.321 -0.0046  1.0983 -0.7768
  272MOL0     C36638  10.138   4.485   0.771 -0.3793  0.1623 -0.4010
  272MOL0     C36639  10.061   4.480   0.893 -1.0257 -0.3773 -0.1447
  272MOL0     C36640   9.955   4.375   1.329 -0.5842 -0.5417  1.0567
  272MOL0     C36641   9.942   4.268   1.420  0.4521 -0.2786  0.7995
  272MOL0     C36642   9.820   4.258   1.497 -0.2665  0.5706  0.3711
  272MOL0     C36643   9.720   4.358   1.488 -0.2193  0.2076 -0.3864
  272MOL0     O36644   9.622   4.337   1.571 -0.1720 -0.1057 -0.3308
  272MOL0     C36645   9.515   4.430   1.564  0.4129  0.4409  0.2917
  272MOL0     C36646   9.422   4.402   1.684  0.1875  0.2145  1.0107
  272MOL0     C36647   9.323   4.516   1.725 -0.4708  0.1198  0.7283
  272MOL0     C36648   9.387   4.619   1.818  0.9533 -0.6439 -0.2626
  272MOL0     C36649   9.283   4.717   1.842  0.3192  1.0901 -0.4638
  272MOL0     C36650   9.185   4.784   1.874  0.3946  0.6826 -1.1005
  272MOL0     C36651   9.745   4.469   1.406 -1.6147 -0.6714  0.3709
  272MOL0     C36652   9.856   4.469   1.324 -0.1446  0.0326  0.8866
  272MOL0     H36653  10.294   4.495   1.126 -0.3608  0.8586 -0.8414
  272MOL0     H36654  10.440   4.547   0.927  0.0208 -0.0519  1.1856
  272MOL0     H36655  10.325   4.294   0.628  1.1105 -1.3716 -0.6128
  272MOL0     H36656  10.310   4.399   0.502 -1.5030 -0.7082  1.2135
  272MOL0     H36657  10.507   4.249   0.502 -0.4421 -0.3767  0.7794
  272MOL0     H36658  10.554   4.421   0.476 -0.6960 -0.4512 -1.1007
  272MOL0     H36659  10.710   4.287   0.601  0.4768  1.6555 -1.5217
  272MOL0     H36660  10.658   4.437   0.691  0.3963  0.1683 -2.3644
  272MOL0     H36661  10.488   4.282   0.813  0.3032  0.7986 -1.8848
  272MOL0     H36662  10.568   4.150   0.742  0.4547  0.8553 -1.7712
  272MOL0     H36663  10.790   4.238   0.861  1.2929  3.4869 -0.7217
  272MOL0     H36664  10.700   4.369   0.924 -0.6373 -0.0672  1.1966
  272MOL0     H36665  10.646   4.082   1.009  2.2049 -0.2196  0.1972
  272MOL0     H36666  10.735   4.206   1.098 -2.5646  2.5403  2.6646
  272MOL0     H36667  10.511   4.342   1.059  0.3608  0.5684 -0.6396
  272MOL0     H36668  10.445   4.186   1.051  1.7606  2.3767 -4.1036
  272MOL0     H36669  10.421   4.263   1.283  1.7851  1.7942  4.5380
  272MOL0     H36670  10.595   4.316   1.282 -2.8066  1.0366  3.1329
  272MOL0     H36671  10.765   4.115   1.339  0.1191 -0.0843 -0.5278
  272MOL0     H36672  10.816   3.945   1.536  3.4661 -2.8394  0.1077
  272MOL0     H36673  10.696   3.825   1.597  1.1418 -2.6927 -1.1302
  272MOL0     H36674  10.808   3.772   1.321  1.5098  0.0616 -0.1043
  272MOL0     H36675  10.731   3.678   1.450 -0.6886 -0.0593 -0.1388
  272MOL0     H36676  11.009   3.818   1.460  1.1643  0.4231  3.9317
  272MOL0     H36677  10.977   3.660   1.379 -0.9901 -0.9655 -0.5880
  272MOL0     H36678  10.966   3.564   1.613 -0.4426  0.5818 -2.3653
  272MOL0     H36679  10.909   3.706   1.686 -0.2388 -4.8519  2.2320
  272MOL0     H36680  11.285   3.714   1.815 -2.3381  1.0469 -1.3625
  272MOL0     H36681  11.611   3.509   1.834  0.1766 -0.4652 -0.9530
  272MOL0     H36682  11.579   3.685   1.817 -2.2893 -0.0585 -0.9421
  272MOL0     H36683  11.495   3.588   1.945 -0.5110  0.4195 -0.9419
  272MOL0     H36684  11.621   3.023   1.646 -1.1766  0.2854  0.8591
  272MOL0     H36685  11.837   2.887   1.684  0.0820 -0.0805 -3.4718
  272MOL0     H36686  12.154   3.133   1.585 -1.4967  0.5222  0.3734
  272MOL0     H36687  12.207   3.107   1.756  0.0452 -1.1957  0.8020
  272MOL0     H36688  12.269   2.893   1.545 -0.2336 -1.8445  2.6488
  272MOL0     H36689  12.380   3.036   1.577 -2.2573  2.5519 -0.7024
  272MOL0     H36690  12.354   2.956   1.832 -1.1191  0.6326 -1.5783
  272MOL0     H36691  12.480   2.894   1.716 -0.4412  0.5026 -3.0523
  272MOL0     H36692  12.216   2.750   1.777  0.4118 -0.3104  1.9757
  272MOL0     H36693  12.321   2.699   1.649 -3.8909  0.4277 -0.8138
  272MOL0     H36694  12.387   2.701   1.952  2.9646 -1.3137  0.9419
  272MOL0     H36695  12.507   2.658   1.833 -0.0526  0.8499 -1.0690
  272MOL0     H36696  12.416   2.468   1.925  3.0342  0.3252 -2.4606
  272MOL0     H36697  12.247   2.502   1.858  0.4168  1.7988 -1.4123
  272MOL0     H36698  12.488   2.430   1.711  0.4920 -0.6324 -0.3194
  272MOL0     H36699  12.334   2.472   1.629 -2.7774  0.8407  2.4238
  272MOL0     H36700  12.224   2.300   1.749  0.3532  2.0369  1.2778
  272MOL0     H36701  12.381   2.247   1.820  1.0046 -0.5294  0.2577
  272MOL0     H36702  12.035   3.260   1.734 -0.4861  1.3224  0.9926
  272MOL0     H36703  11.829   3.376   1.748 -2.4786  0.2901 -1.9110
  272MOL0     H36704  11.355   3.381   1.450 -1.9099 -2.0961  0.3629
  272MOL0     H36705  11.157   3.505   1.453  0.2538 -1.8674  0.4527
  272MOL0     H36706  10.091   4.466   0.675  0.8520  4.0177 -1.9323
  272MOL0     H36707   9.956   4.453   0.896 -0.6747 -1.7864  1.9590
  272MOL0     H36708  10.023   4.197   1.429  1.2616  0.8802  3.5981
  272MOL0     H36709   9.812   4.173   1.564  0.1279  0.8641  0.7905
  272MOL0     H36710   9.549   4.533   1.576 -2.5137  1.3721  1.2469
  272MOL0     H36711   9.458   4.434   1.471 -2.0185  2.3388  1.7428
  272MOL0     H36712   9.487   4.372   1.767  2.2669 -0.7674 -0.8464
  272MOL0     H36713   9.367   4.310   1.662 -0.0079  0.6148 -0.2622
  272MOL0     H36714   9.227   4.477   1.761 -1.4855 -0.1580 -2.0716
  272MOL0     H36715   9.296   4.576   1.638  1.4797 -2.1550 -1.5894
  272MOL0     H36716   9.481   4.657   1.778  1.5975 -2.5447 -0.6556
  272MOL0     H36717   9.416   4.578   1.915 -2.7257  0.5472  1.5182
  272MOL0     H36718   9.104   4.852   1.893  0.8997  0.8944  0.3667
  272MOL0     H36719   9.672   4.549   1.399 -2.2607 -1.1744  1.1686
  272MOL0     H36720   9.854   4.538   1.240 -2.5395 -0.4690  0.4549
  273MOL0     O36721   5.927   8.649   2.949  0.4604  0.2070  1.3662
  273MOL0     C36722   5.994   8.754   2.934  0.4406  0.6569 -0.5288
  273MOL0     O36723   6.125   8.769   2.959 -0.1435  0.6225  0.0579
  273MOL0     C36724   6.193   8.670   3.029 -0.5754 -0.3497 -0.1019
  273MOL0     C36725   6.150   8.619   3.151  0.3921  0.1219  0.9845
  273MOL0     C36726   6.212   8.525   3.230 -0.1751 -0.2701 -0.9070
  273MOL0     C36727   6.334   8.471   3.171  0.3942  0.0219 -0.2288
  273MOL0     O36728   6.413   8.382   3.241 -0.0657  0.4235 -0.2389
  273MOL0     C36729   6.348   8.304   3.340 -0.2847  0.4397 -0.3647
  273MOL0     C36730   6.433   8.186   3.388 -0.8824 -0.3943  0.0348
  273MOL0     C36731   6.471   8.199   3.532  0.0882 -0.5031 -0.7317
  273MOL0     C36732   6.522   8.068   3.582  0.0924  0.1287  0.2500
  273MOL0     C36733   6.635   7.999   3.488  0.9302  0.2494 -0.0614
  273MOL0     C36734   6.718   7.910   3.584 -0.2175  1.1467  0.6797
  273MOL0     C36735   6.796   7.808   3.512  0.1465  0.7130 -1.1615
  273MOL0     C36736   6.852   7.698   3.615 -0.4916  0.4004  0.2334
  273MOL0     N36737   6.934   7.588   3.545  0.1145 -0.5415 -0.2093
  273MOL0     C36738   6.868   7.481   3.492  0.4718 -0.2210 -0.1250
  273MOL0     C36739   6.969   7.420   3.427  0.0988 -0.5165 -0.7538
  273MOL0     C36740   6.953   7.283   3.358  0.7329 -0.5752  0.0228
  273MOL0     C36741   7.003   7.171   3.442 -0.1192  0.4236 -0.8472
  273MOL0     C36742   6.893   7.121   3.535 -0.2914 -0.2978  0.2254
  273MOL0     C36743   6.948   7.004   3.604  0.3716  0.0511 -0.4878
  273MOL0     O36744   6.889   7.000   3.732 -0.7075 -0.2199 -0.8169
  273MOL0     C36745   6.764   6.949   3.747  0.0274  0.3776  0.7041
  273MOL0     C36746   6.710   6.940   3.879  0.0294 -0.2860 -0.7102
  273MOL0     C36747   6.582   6.906   3.905  0.9009  0.7008 -1.0452
  273MOL0     C36748   6.532   6.920   4.041 -0.3354 -0.7892  0.6997
  273MOL0     C36749   6.494   6.868   3.805  0.0823  0.5214 -0.0163
  273MOL0     C36750   6.350   6.807   3.827  0.5770 -0.8367  0.1468
  273MOL0     O36751   6.272   6.790   3.723 -0.5139 -0.6480  0.3635
  273MOL0     C36752   6.138   6.756   3.729 -0.9226 -0.9738 -0.3440
  273MOL0     C36753   6.045   6.846   3.658 -0.3481  0.2062 -0.5801
  273MOL0     C36754   5.911   6.828   3.673  0.6261  0.1826  0.3218
  273MOL0     C36755   5.858   6.728   3.759  1.2548 -0.5160 -0.0590
  273MOL0     O36756   5.714   6.731   3.786 -0.6072 -0.2514  0.5500
  273MOL0     C36757   5.657   6.616   3.838 -0.5728 -0.0442  0.2154
  273MOL0     C36758   5.612   6.644   3.985  0.5304  0.7570 -0.2101
  273MOL0     C36759   5.499   6.536   4.032  0.0025 -0.0287  0.1462
  273MOL0     C36760   5.375   6.510   3.943  0.1368 -0.6690 -0.6634
  273MOL0     C36761   5.261   6.445   4.029 -1.0621 -0.6112 -0.9704
  273MOL0     C36762   5.135   6.429   3.949  0.2259  0.2061  0.9254
  273MOL0     C36763   5.023   6.360   4.031 -0.7408  0.1485  0.9755
  273MOL0     C36764   4.905   6.314   3.942  0.5942  0.2638  0.0094
  273MOL0    Cl36765   4.818   6.463   3.873  0.0475 -0.0662  0.1753
  273MOL0     C36766   5.945   6.636   3.820  0.5424 -0.3263  0.9404
  273MOL0     C36767   6.090   6.648   3.804 -0.7268  0.3924  0.6026
  273MOL0     O36768   6.312   6.796   3.940 -0.5531 -0.1799 -1.0544
  273MOL0     C36769   6.548   6.877   3.670  0.0171  0.4453 -0.6876
  273MOL0     C36770   6.675   6.915   3.634  1.4577  0.4524  0.0455
  273MOL0     N36771   7.082   7.502   3.430  0.0760 -0.1543 -0.6584
  273MOL0     N36772   7.058   7.606   3.505 -0.9508 -0.6101  0.1459
  273MOL0     C36773   6.383   8.517   3.045 -0.3863  0.8066  0.2576
  273MOL0     C36774   6.312   8.610   2.969  0.7133 -0.2244 -0.1925
  273MOL0     C36775   5.919   8.864   2.858  0.2981 -0.2376  0.0932
  273MOL0     C36776   5.798   8.835   2.798 -0.7865  0.3869 -0.4039
  273MOL0     C36777   5.726   8.936   2.732 -0.0592 -0.0580 -0.5077
  273MOL0     C36778   5.772   9.070   2.739  0.6584  0.6375  0.0177
  273MOL0     O36779   5.698   9.170   2.696  0.0084 -0.3262  0.2695
  273MOL0     C36780   5.618   9.149   2.579 -0.5699 -0.6908 -0.9936
  273MOL0     C36781   5.545   9.275   2.541  0.1011  0.0943 -0.5848
  273MOL0     C36782   5.463   9.343   2.657  0.0336  1.1283  0.0105
  273MOL0     C36783   5.365   9.242   2.724 -0.4970  0.2920 -0.5908
  273MOL0     C36784   5.254   9.207   2.633 -0.6800 -0.3073  0.7805
  273MOL0     C36785   5.182   9.169   2.543  0.1918 -1.3245 -0.7115
  273MOL0     C36786   5.894   9.096   2.797 -0.7810 -0.0799 -1.5200
  273MOL0     C36787   5.970   8.989   2.852  0.8306  0.3965  0.3069
  273MOL0     H36788   6.059   8.661   3.192  1.8866  2.9073  1.7506
  273MOL0     H36789   6.173   8.498   3.328 -0.3969 -1.4815 -1.3114
  273MOL0     H36790   6.318   8.365   3.426 -1.3212 -0.2111 -0.2430
  273MOL0     H36791   6.252   8.270   3.300 -0.5316  0.3860  0.2617
  273MOL0     H36792   6.381   8.094   3.360 -0.5021 -1.5069  2.7371
  273MOL0     H36793   6.520   8.176   3.322  0.7292  0.3530  1.9533
  273MOL0     H36794   6.549   8.274   3.548 -0.0505 -0.0692 -2.0371
  273MOL0     H36795   6.379   8.219   3.588 -0.9871 -1.5611 -2.0687
  273MOL0     H36796   6.558   8.072   3.685 -0.8613 -1.1526  0.6582
  273MOL0     H36797   6.437   8.000   3.587 -0.2754  0.6750  2.3456
  273MOL0     H36798   6.595   7.950   3.398  2.1373 -1.1183  0.1032
  273MOL0     H36799   6.695   8.080   3.446 -2.2663  1.3857 -2.9670
  273MOL0     H36800   6.786   7.977   3.637 -2.3685  4.4536 -0.4117
  273MOL0     H36801   6.653   7.853   3.650 -0.4503 -1.2995 -1.4792
  273MOL0     H36802   6.730   7.757   3.442 -0.4529  3.9826 -3.1789
  273MOL0     H36803   6.875   7.856   3.455  3.3035 -0.4338  1.8521
  273MOL0     H36804   6.769   7.660   3.675 -2.8151  3.0435 -1.0815
  273MOL0     H36805   6.920   7.743   3.689  0.9245  0.1515 -0.8707
  273MOL0     H36806   6.763   7.460   3.506 -0.2171  2.6343 -0.4108
  273MOL0     H36807   6.846   7.265   3.340  1.2779 -1.7984 -2.5280
  273MOL0     H36808   7.009   7.282   3.264 -0.2388 -0.4343 -0.5777
  273MOL0     H36809   7.083   7.205   3.509  1.6092 -1.7651 -1.6605
  273MOL0     H36810   7.050   7.091   3.384  1.6048  0.1305  0.8215
  273MOL0     H36811   6.798   7.095   3.487 -1.1745  2.0225  0.5900
  273MOL0     H36812   6.869   7.189   3.618 -0.2078 -3.7834  3.4214
  273MOL0     H36813   7.055   7.015   3.622  0.5262  1.8462 -2.1915
  273MOL0     H36814   6.931   6.910   3.551 -0.0748  0.7087 -1.5408
  273MOL0     H36815   6.780   6.976   3.953 -1.1087  0.5306  0.0065
  273MOL0     H36816   6.457   6.999   4.031  0.6748 -0.0783 -2.4780
  273MOL0     H36817   6.485   6.824   4.067 -0.9822 -0.7415 -0.2447
  273MOL0     H36818   6.604   6.936   4.122  0.3071  0.3553 -0.0709
  273MOL0     H36819   6.087   6.935   3.613  1.5924 -0.4952 -0.2593
  273MOL0     H36820   5.847   6.892   3.613  1.1554 -1.4490 -2.1272
  273MOL0     H36821   5.572   6.595   3.773  1.8241 -2.3845 -2.4198
  273MOL0     H36822   5.722   6.528   3.835  0.0366  0.3792  0.6576
  273MOL0     H36823   5.709   6.633   4.034  1.3856  2.7260 -1.3423
  273MOL0     H36824   5.578   6.747   3.999  2.5088  1.0525  3.5099
  273MOL0     H36825   5.451   6.580   4.120  3.6498  0.9661  1.8014
  273MOL0     H36826   5.547   6.447   4.072  1.4107  1.0976  1.0658
  273MOL0     H36827   5.343   6.605   3.901  2.5380  0.8679  0.7293
  273MOL0     H36828   5.409   6.439   3.867  0.7684  0.4315 -1.4365
  273MOL0     H36829   5.233   6.515   4.108 -0.0915 -1.0621 -0.2079
  273MOL0     H36830   5.295   6.349   4.068 -2.0984 -0.9958 -0.9924
  273MOL0     H36831   5.106   6.531   3.923 -3.4892 -0.5416  1.5819
  273MOL0     H36832   5.168   6.365   3.866  2.3008  1.2690  0.8694
  273MOL0     H36833   4.987   6.423   4.113 -1.7228  0.0058  0.6745
  273MOL0     H36834   5.068   6.271   4.076  2.0184  2.2140  2.5965
  273MOL0     H36835   4.836   6.252   4.000  0.5240 -1.5237 -1.8740
  273MOL0     H36836   4.935   6.242   3.865  0.5773  1.7808 -1.4878
  273MOL0     H36837   5.940   6.564   3.901  2.6953  0.0366  1.4590
  273MOL0     H36838   6.161   6.586   3.858 -0.8562 -0.1792  0.1272
  273MOL0     H36839   6.475   6.850   3.594 -3.5458  0.1021  2.5743
  273MOL0     H36840   6.716   6.895   3.535 -0.6257 -1.3386 -0.5180
  273MOL0     H36841   6.454   8.456   2.989 -2.4317 -0.2421 -1.3012
  273MOL0     H36842   6.330   8.633   2.864  3.2967  0.3491  0.3223
  273MOL0     H36843   5.754   8.738   2.818  1.6723 -0.7286 -0.0159
  273MOL0     H36844   5.629   8.915   2.687 -0.5923  1.3913 -0.0974
  273MOL0     H36845   5.686   9.122   2.498  1.8406  3.4940 -0.6552
  273MOL0     H36846   5.535   9.079   2.594 -1.0162  0.4208  2.8806
  273MOL0     H36847   5.466   9.254   2.468  1.1322 -2.7041 -1.0144
  273MOL0     H36848   5.602   9.355   2.491 -1.4574 -0.1295 -2.8909
  273MOL0     H36849   5.405   9.423   2.611  1.4651  1.6810 -0.8920
  273MOL0     H36850   5.534   9.380   2.732 -1.7951  0.7104  2.0640
  273MOL0     H36851   5.330   9.284   2.819  1.1836 -0.2216  0.3142
  273MOL0     H36852   5.430   9.162   2.760 -0.0610  1.4229  1.2965
  273MOL0     H36853   5.129   9.139   2.455 -1.8256  2.5167 -1.0238
  273MOL0     H36854   5.935   9.196   2.797 -1.4266  0.1951 -1.9415
  273MOL0     H36855   6.071   9.023   2.874  1.0066  1.8840 -2.2929
  274MOL0     O36856   1.292  10.399   5.962 -0.1754 -0.1883  0.3827
  274MOL0     C36857   1.306  10.336   5.855 -0.6472  0.0805 -0.6804
  274MOL0     O36858   1.361  10.209   5.839 -0.9638  0.2289  0.5419
  274MOL0     C36859   1.361  10.128   5.946 -0.3279 -0.0054 -0.1632
  274MOL0     C36860   1.254  10.088   6.016  0.2488 -0.5928  0.6884
  274MOL0     C36861   1.263  10.015   6.137  0.6168 -0.3367 -0.3314
  274MOL0     C36862   1.380   9.977   6.193 -0.3089 -0.0475 -1.2511
  274MOL0     O36863   1.401   9.910   6.310  0.2320 -0.8506 -0.3558
  274MOL0     C36864   1.298   9.811   6.349 -0.0025 -0.0751 -0.4981
  274MOL0     C36865   1.362   9.723   6.452 -0.6745 -0.1228  0.0263
  274MOL0     C36866   1.273   9.609   6.495  0.3290  0.5947  0.1971
  274MOL0     C36867   1.148   9.658   6.567  0.3312  0.5506 -0.4311
  274MOL0     C36868   1.062   9.538   6.597  0.3044  0.1580  0.5261
  274MOL0     C36869   0.935   9.565   6.680  0.2563  0.0242  0.3350
  274MOL0     C36870   0.859   9.447   6.717 -0.2117  0.5413  0.1338
  274MOL0     C36871   0.724   9.495   6.776 -0.1803 -0.1850 -0.4389
  274MOL0     N36872   0.749   9.581   6.890 -0.0063 -0.0291  0.8849
  274MOL0     C36873   0.826   9.578   7.003 -0.3460  0.0643  0.0355
  274MOL0     C36874   0.803   9.680   7.076  0.1664  0.6128 -0.0657
  274MOL0     C36875   0.885   9.692   7.201  0.1367  0.2051  0.1889
  274MOL0     C36876   0.991   9.803   7.183  0.6951  0.8430  0.3263
  274MOL0     C36877   0.913   9.946   7.188 -0.4054  0.1728 -0.6493
  274MOL0     C36878   1.002  10.045   7.116 -0.6922  0.9126  0.2006
  274MOL0     O36879   1.127  10.070   7.183  0.7418  0.0089  0.1763
  274MOL0     C36880   1.216  10.160   7.122  0.4935 -0.0994 -0.4930
  274MOL0     C36881   1.351  10.139   7.161  0.3428  0.2401  0.3674
  274MOL0     C36882   1.456  10.219   7.106  0.0583 -0.0375  0.0183
  274MOL0     C36883   1.595  10.181   7.151 -0.4272  0.2208  0.1670
  274MOL0     C36884   1.417  10.313   6.998 -0.7168 -0.9658 -0.5377
  274MOL0     C36885   1.510  10.394   6.913  0.2468  1.6519 -0.9190
  274MOL0     O36886   1.452  10.463   6.818  0.0866 -0.0687 -1.0942
  274MOL0     C36887   1.503  10.585   6.777  0.6004  0.0875  0.4380
  274MOL0     C36888   1.588  10.670   6.854  1.2973 -0.2762  0.2931
  274MOL0     C36889   1.594  10.801   6.813  0.7855  0.7589  0.2682
  274MOL0     C36890   1.524  10.852   6.704 -0.0789 -0.8210 -0.2733
  274MOL0     O36891   1.532  10.987   6.682 -0.4915 -0.2938  0.5383
  274MOL0     C36892   1.407  11.059   6.691  0.0087  0.4465 -0.1914
  274MOL0     C36893   1.342  11.033   6.826 -0.2542  0.2757 -1.2196
  274MOL0     C36894   1.434  11.096   6.931 -0.1238 -0.4465  0.1285
  274MOL0     C36895   1.396  11.045   7.068  0.3676 -1.5753 -0.3271
  274MOL0     C36896   1.439  11.135   7.178 -0.1479 -0.6842 -1.2300
  274MOL0     C36897   1.438  11.051   7.304  0.0554  0.0346  0.0999
  274MOL0     C36898   1.442  11.151   7.419  0.0530  0.2837 -0.9849
  274MOL0     C36899   1.398  11.087   7.556  0.4973  0.9527 -0.1854
  274MOL0    Cl36900   1.224  11.087   7.582 -0.0748  0.4274 -0.2589
  274MOL0     C36901   1.457  10.766   6.620  0.5209 -0.2423  0.3227
  274MOL0     C36902   1.444  10.628   6.655  0.7272 -0.2354  0.7138
  274MOL0     O36903   1.626  10.396   6.942 -0.2305 -0.2648 -1.1989
  274MOL0     C36904   1.275  10.322   6.961 -0.9225  0.2470 -0.2289
  274MOL0     C36905   1.183  10.252   7.032  0.4801  0.1791  0.5218
  274MOL0     N36906   0.713   9.756   6.998  0.1918 -0.4364  0.1821
  274MOL0     N36907   0.669   9.688   6.900  0.6192 -1.3003 -0.3181
  274MOL0     C36908   1.499  10.010   6.119  0.0224  0.1959 -0.4432
  274MOL0     C36909   1.482  10.074   5.994 -0.9305  0.1624 -0.3220
  274MOL0     C36910   1.297  10.415   5.729 -0.9754  0.0189  0.3559
  274MOL0     C36911   1.275  10.557   5.720 -1.0952 -0.2222 -0.5265
  274MOL0     C36912   1.276  10.618   5.597 -0.4119 -1.0718  0.6881
  274MOL0     C36913   1.283  10.556   5.473  0.9171 -0.5142  0.0501
  274MOL0     O36914   1.263  10.626   5.356 -0.9370 -0.1311  0.2984
  274MOL0     C36915   1.295  10.559   5.231  0.2966  0.2460  0.3277
  274MOL0     C36916   1.166  10.480   5.183  0.1186 -0.8496  0.1530
  274MOL0     C36917   1.173  10.412   5.039 -0.8320  0.6462 -0.2346
  274MOL0     C36918   1.038  10.353   4.984  0.2512 -0.6089  0.3756
  274MOL0     C36919   0.921  10.435   4.994  0.0043  0.6448 -0.2272
  274MOL0     C36920   0.826  10.501   5.011 -0.9029 -0.1974 -0.6545
  274MOL0     C36921   1.299  10.419   5.488 -0.5973  0.1016  0.4130
  274MOL0     C36922   1.319  10.351   5.610  0.0263  0.2091 -0.2306
  274MOL0     H36923   1.157  10.110   5.972 -0.1040 -4.6901 -1.0941
  274MOL0     H36924   1.173   9.986   6.190 -0.1577  1.0925 -0.8070
  274MOL0     H36925   1.203   9.855   6.380  0.2992 -0.5273  1.1529
  274MOL0     H36926   1.274   9.737   6.271  1.5394 -0.4295 -0.6775
  274MOL0     H36927   1.463   9.688   6.430 -0.5294 -1.7328  2.7935
  274MOL0     H36928   1.379   9.796   6.532 -0.0763 -0.6509  0.3909
  274MOL0     H36929   1.238   9.560   6.403 -2.0232  1.4421  0.5711
  274MOL0     H36930   1.332   9.537   6.552 -0.8152 -0.3525  0.2135
  274MOL0     H36931   1.167   9.705   6.663 -1.5937 -3.4231  2.1785
  274MOL0     H36932   1.086   9.729   6.511 -2.9046 -0.5647  1.4680
  274MOL0     H36933   1.028   9.481   6.510  0.4694  2.1354 -0.8870
  274MOL0     H36934   1.114   9.462   6.656 -0.3807 -1.9964 -1.4962
  274MOL0     H36935   0.953   9.646   6.752  1.0412  1.0181 -0.9245
  274MOL0     H36936   0.861   9.614   6.616 -0.2488  0.4482  1.2243
  274MOL0     H36937   0.837   9.379   6.634 -3.2986  0.7339  0.6618
  274MOL0     H36938   0.920   9.408   6.799  1.1097 -0.1653 -1.1274
  274MOL0     H36939   0.659   9.415   6.815  1.0413 -0.5688  0.8970
  274MOL0     H36940   0.664   9.553   6.705  1.2761  0.4861 -1.1580
  274MOL0     H36941   0.905   9.508   7.028  0.2215  0.7316  0.1434
  274MOL0     H36942   0.825   9.712   7.290  1.1326  0.7329  0.7715
  274MOL0     H36943   0.928   9.594   7.222 -2.0974 -0.7934  0.3764
  274MOL0     H36944   1.050   9.800   7.091  0.7745 -2.1802  0.3721
  274MOL0     H36945   1.071   9.800   7.258  1.8525 -1.1060 -0.9292
  274MOL0     H36946   0.910   9.981   7.292  0.0924  0.8243 -0.8503
  274MOL0     H36947   0.813   9.953   7.145 -0.6016 -1.1301 -0.4438
  274MOL0     H36948   0.944  10.137   7.098  2.1118  2.5893 -0.8133
  274MOL0     H36949   1.025  10.007   7.016  2.4306  1.9046  0.4557
  274MOL0     H36950   1.375  10.070   7.241 -0.2093 -4.1290 -2.8762
  274MOL0     H36951   1.647  10.266   7.197  0.8639 -1.5791  2.2346
  274MOL0     H36952   1.590  10.104   7.228  3.5646  1.1030  1.5577
  274MOL0     H36953   1.652  10.145   7.064 -0.3652 -1.7008  0.9562
  274MOL0     H36954   1.625  10.641   6.952  1.0063 -1.5417  0.0488
  274MOL0     H36955   1.649  10.876   6.869  0.3281  0.3610  1.2711
  274MOL0     H36956   1.444  11.162   6.683  3.4684 -0.7833 -2.2353
  274MOL0     H36957   1.339  11.045   6.607  0.3913 -0.2529 -0.3933
  274MOL0     H36958   1.244  11.080   6.831 -0.5490 -0.4423  0.6043
  274MOL0     H36959   1.339  10.925   6.847 -0.4508  0.4259 -0.4540
  274MOL0     H36960   1.433  11.205   6.917 -1.0726 -0.7092 -2.3113
  274MOL0     H36961   1.536  11.061   6.914  0.6175  2.6949 -3.0059
  274MOL0     H36962   1.287  11.035   7.067 -0.4265  3.8263 -0.6471
  274MOL0     H36963   1.449  10.951   7.084  2.3022 -0.6238 -0.8901
  274MOL0     H36964   1.367  11.216   7.193 -0.7641 -1.4631  0.2791
  274MOL0     H36965   1.542  11.171   7.175  0.7697 -2.1996  3.5489
  274MOL0     H36966   1.341  10.999   7.311 -0.0429  0.2084  0.0451
  274MOL0     H36967   1.516  10.974   7.309  0.3502  0.2507 -0.9432
  274MOL0     H36968   1.377  11.235   7.393  0.6001  0.7313 -0.9282
  274MOL0     H36969   1.540  11.195   7.441 -2.0783  4.5462  1.0347
  274MOL0     H36970   1.443  11.140   7.641  0.1899 -0.5557  0.9673
  274MOL0     H36971   1.430  10.983   7.572  0.8984  1.5409  4.0881
  274MOL0     H36972   1.415  10.796   6.525  1.5167  1.5962  0.4130
  274MOL0     H36973   1.383  10.560   6.596  0.0615  1.5133 -0.6938
  274MOL0     H36974   1.242  10.381   6.875 -0.6004  1.3228  0.3607
  274MOL0     H36975   1.080  10.270   7.002  0.9212  3.1702  0.5321
  274MOL0     H36976   1.600   9.985   6.150 -0.5800 -1.0085  0.6296
  274MOL0     H36977   1.570  10.100   5.937  0.3133  1.0793  1.9197
  274MOL0     H36978   1.268  10.609   5.815  0.5175  0.1101 -0.5485
  274MOL0     H36979   1.262  10.725   5.601 -0.7712 -1.1328  1.2509
  274MOL0     H36980   1.312  10.626   5.146 -1.8911  2.1134  1.2447
  274MOL0     H36981   1.375  10.485   5.231 -0.9732 -1.1804  0.1859
  274MOL0     H36982   1.080  10.548   5.185  0.0772 -0.8789 -0.5463
  274MOL0     H36983   1.133  10.409   5.260 -0.2965 -0.7064  0.1108
  274MOL0     H36984   1.247  10.333   5.052 -0.4672  1.4365  3.3981
  274MOL0     H36985   1.219  10.476   4.962  1.1585 -1.2079 -0.6912
  274MOL0     H36986   1.024  10.262   5.043 -0.7576 -0.8310 -0.1911
  274MOL0     H36987   1.040  10.329   4.877 -0.6659  4.7771 -1.1461
  274MOL0     H36988   0.737  10.558   5.029 -1.1473 -0.6322 -0.4448
  274MOL0     H36989   1.310  10.354   5.402 -3.2912 -0.6459  0.5458
  274MOL0     H36990   1.336  10.245   5.603  0.9796  0.3830 -0.7600
  275MOL0     O36991   8.002  11.494  11.373  0.1036 -0.5194 -0.1394
  275MOL0     C36992   8.022  11.559  11.267 -0.2867 -0.1895 -0.0515
  275MOL0     O36993   8.104  11.517  11.162  0.2187 -0.0549  0.0723
  275MOL0     C36994   8.209  11.436  11.198 -0.6960  0.2567 -0.1231
  275MOL0     C36995   8.213  11.308  11.149 -0.3382 -0.8929  0.3013
  275MOL0     C36996   8.323  11.224  11.185 -1.8631 -0.4731 -0.0838
  275MOL0     C36997   8.420  11.263  11.290 -0.5787 -0.3048 -0.7037
  275MOL0     O36998   8.514  11.189  11.352 -1.0932 -0.6978  0.5073
  275MOL0     C36999   8.555  11.060  11.302  0.1443 -1.5578  0.1915
  275MOL0     C37000   8.704  11.045  11.319 -0.9690  0.2797 -0.0853
  275MOL0     C37001   8.800  11.146  11.257 -0.1481 -0.6890 -0.8836
  275MOL0     C37002   8.763  11.177  11.113  0.5112 -0.3650 -0.6326
  275MOL0     C37003   8.883  11.245  11.028  0.1295 -0.2307  0.2197
  275MOL0     C37004   8.841  11.276  10.884  1.0986  0.8091  0.5865
  275MOL0     C37005   8.968  11.317  10.804 -0.7524  0.3498  0.1549
  275MOL0     C37006   8.915  11.343  10.661  0.0512  0.9619  0.0077
  275MOL0     N37007   8.869  11.228  10.585  0.2689  0.4046 -0.6152
  275MOL0     C37008   8.940  11.157  10.493 -0.6544  0.5716  0.4980
  275MOL0     C37009   8.846  11.119  10.401  0.1313 -0.4169 -0.0277
  275MOL0     C37010   8.874  11.052  10.263  0.5645  0.7551  0.2341
  275MOL0     C37011   9.008  11.095  10.205 -0.3998 -0.3711 -0.4814
  275MOL0     C37012   8.999  11.054  10.060 -0.6162 -0.0018  1.0438
  275MOL0     C37013   9.139  11.055  10.000  0.0954 -0.5487 -0.5669
  275MOL0     O37014   9.206  10.952  10.067 -0.5456  0.8741  0.8195
  275MOL0     C37015   9.327  10.892  10.028 -0.2101  0.1983 -0.4721
  275MOL0     C37016   9.417  10.946   9.941  0.2576 -0.3166 -0.5164
  275MOL0     C37017   9.536  10.878   9.911 -0.3189 -0.2056  0.0025
  275MOL0     C37018   9.621  10.935   9.802  1.5644  0.0926  1.4911
  275MOL0     C37019   9.575  10.763   9.986 -0.3309 -0.6003  0.4974
  275MOL0     C37020   9.695  10.691   9.954 -0.3692  0.7424 -0.4201
  275MOL0     O37021   9.793  10.742   9.869 -0.3901 -0.1345  0.3267
  275MOL0     C37022   9.910  10.676   9.845 -0.2896  0.7012 -0.4020
  275MOL0     C37023   9.981  10.581   9.929 -0.3159  0.0471  0.3678
  275MOL0     C37024  10.097  10.504   9.885  0.3354  0.0945 -0.7602
  275MOL0     C37025  10.143  10.529   9.761 -0.7643  0.6641  0.0302
  275MOL0     O37026  10.251  10.474   9.705  0.7812  0.8360 -0.6744
  275MOL0     C37027  10.345  10.398   9.787 -0.5848 -0.1538 -0.1311
  275MOL0     C37028  10.456  10.485   9.846  0.1259  1.4337  0.0993
  275MOL0     C37029  10.547  10.571   9.763 -0.1894 -0.1440  0.5588
  275MOL0     C37030  10.614  10.498   9.647 -0.0604 -0.5315  1.1644
  275MOL0     C37031  10.692  10.601   9.560  0.4620  0.6623  0.1351
  275MOL0     C37032  10.781  10.530   9.454  0.0590  0.1323 -0.0162
  275MOL0     C37033  10.852  10.638   9.377 -0.5801 -1.1645 -0.7350
  275MOL0     C37034  10.950  10.589   9.274 -0.5083 -0.2166 -0.2735
  275MOL0    Cl37035  11.102  10.568   9.368  0.6977  0.0071  0.2040
  275MOL0     C37036  10.085  10.642   9.693 -0.6140  0.4525 -1.1410
  275MOL0     C37037   9.968  10.709   9.727 -0.3115 -0.1172  0.3384
  275MOL0     O37038   9.700  10.579  10.000 -0.1852  0.7154  0.0800
  275MOL0     C37039   9.479  10.720  10.080  0.0075 -0.2569 -0.6243
  275MOL0     C37040   9.352  10.774  10.098 -0.2070  0.4822  0.2805
  275MOL0     N37041   8.720  11.153  10.438  0.9149 -0.1997 -1.2248
  275MOL0     N37042   8.736  11.206  10.562  0.4944 -0.5540 -0.0403
  275MOL0     C37043   8.406  11.397  11.340 -0.9040  0.1598 -0.2807
  275MOL0     C37044   8.310  11.482  11.296 -0.2307  0.3376 -0.1175
  275MOL0     C37045   7.935  11.668  11.231 -0.5440  0.6938  1.0794
  275MOL0     C37046   7.916  11.716  11.100  1.1262  1.1682 -0.7715
  275MOL0     C37047   7.828  11.832  11.085  0.1434  0.2919 -0.2030
  275MOL0     C37048   7.780  11.903  11.191  0.2839  0.5280 -0.0629
  275MOL0     O37049   7.692  11.998  11.170 -0.9938 -0.4147  0.5041
  275MOL0     C37050   7.704  12.083  11.058  0.2312 -0.0489  0.7005
  275MOL0     C37051   7.840  12.139  11.039  0.2065  0.9023  0.8768
  275MOL0     C37052   7.844  12.260  10.948 -0.0051 -0.6326 -0.5765
  275MOL0     C37053   7.980  12.318  10.935  0.3031  0.8214 -0.1681
  275MOL0     C37054   8.031  12.368  11.059 -0.0806 -0.3212  0.0137
  275MOL0     C37055   8.077  12.395  11.167  0.6969 -0.2205 -0.0318
  275MOL0     C37056   7.808  11.853  11.317  0.2900 -0.0976 -0.9067
  275MOL0     C37057   7.891  11.745  11.339  0.7208 -0.4858 -0.9158
  275MOL0     H37058   8.136  11.280  11.078 -1.3866  1.0296  0.6372
  275MOL0     H37059   8.339  11.132  11.131 -2.9351  1.1185 -3.3803
  275MOL0     H37060   8.504  10.984  11.362  2.0580 -2.2881  0.9727
  275MOL0     H37061   8.535  11.042  11.197  3.4283  2.3190 -1.3991
  275MOL0     H37062   8.733  11.036  11.424  0.3359  2.7152 -0.1694
  275MOL0     H37063   8.735  10.948  11.279 -1.4731 -1.4187  3.3149
  275MOL0     H37064   8.799  11.244  11.305 -1.4653 -0.9564 -0.3216
  275MOL0     H37065   8.904  11.115  11.271 -0.6906 -1.6382  1.6811
  275MOL0     H37066   8.740  11.081  11.066  1.3249 -1.3372  0.8892
  275MOL0     H37067   8.672  11.238  11.103  0.9354  0.2732 -0.6385
  275MOL0     H37068   8.902  11.342  11.075 -1.3194  0.0420  0.2880
  275MOL0     H37069   8.969  11.178  11.040 -0.0599 -0.3413  1.0252
  275MOL0     H37070   8.780  11.196  10.841 -1.5721  3.1414 -0.2318
  275MOL0     H37071   8.778  11.365  10.884 -0.5075 -0.1832 -2.5343
  275MOL0     H37072   9.024  11.403  10.842  2.1496 -1.5765  0.5447
  275MOL0     H37073   9.033  11.229  10.811  0.3275  1.1862  0.7341
  275MOL0     H37074   8.979  11.394  10.589  1.0593  0.9437  0.8680
  275MOL0     H37075   8.831  11.413  10.664 -0.8468 -0.1123  1.1557
  275MOL0     H37076   9.046  11.142  10.473 -0.4008  0.6859  1.6716
  275MOL0     H37077   8.879  10.947  10.292 -2.0107 -0.2056 -2.3707
  275MOL0     H37078   8.794  11.052  10.189 -0.1780  1.0304  1.0105
  275MOL0     H37079   9.092  11.043  10.251  0.7063  1.4069 -0.3915
  275MOL0     H37080   9.029  11.202  10.207  0.9645 -0.6073  1.9843
  275MOL0     H37081   8.940  11.130  10.006  0.5252  0.7407  0.8133
  275MOL0     H37082   8.945  10.959  10.050 -3.9761  1.9923 -2.5381
  275MOL0     H37083   9.182  11.155  10.008 -4.2528  1.8233 -3.1000
  275MOL0     H37084   9.130  11.025   9.895 -1.7965 -1.6429 -0.1423
  275MOL0     H37085   9.386  11.040   9.897  0.8244  1.5295  2.7477
  275MOL0     H37086   9.654  10.867   9.723  0.2250  0.1969  0.8074
  275MOL0     H37087   9.560  11.011   9.751 -1.0214 -1.9103  1.4173
  275MOL0     H37088   9.713  10.980   9.840  2.9920 -1.7202  0.3064
  275MOL0     H37089   9.945  10.576  10.031 -0.7303  0.9970  0.2738
  275MOL0     H37090  10.131  10.426   9.953 -0.5203  1.1375  0.9531
  275MOL0     H37091  10.294  10.341   9.865  1.0532  1.3414  2.1490
  275MOL0     H37092  10.394  10.324   9.723  0.9699  0.8097 -0.1011
  275MOL0     H37093  10.401  10.553   9.912 -2.0148 -2.6942  2.9910
  275MOL0     H37094  10.512  10.409   9.901 -0.5769 -0.8679 -2.1651
  275MOL0     H37095  10.631  10.604   9.826  2.1123 -2.7045 -0.9798
  275MOL0     H37096  10.483  10.652   9.728 -1.1114  0.3980  3.2813
  275MOL0     H37097  10.684  10.428   9.694 -0.4199 -0.1565  2.2883
  275MOL0     H37098  10.544  10.441   9.585  0.3409 -1.6999  1.7496
  275MOL0     H37099  10.750  10.663   9.628  0.4346  1.0233 -0.1701
  275MOL0     H37100  10.629  10.660   9.493  2.7152 -0.5257 -3.2649
  275MOL0     H37101  10.858  10.468   9.500 -0.9390 -2.6104 -1.7713
  275MOL0     H37102  10.724  10.466   9.385  0.0318 -1.7064  1.6257
  275MOL0     H37103  10.897  10.712   9.443 -2.2305  0.9326 -1.8491
  275MOL0     H37104  10.766  10.686   9.329 -0.3809  0.3320  0.3345
  275MOL0     H37105  10.959  10.659   9.191 -1.5808 -2.3006 -2.2746
  275MOL0     H37106  10.916  10.499   9.222 -3.6328  0.7725 -0.1771
  275MOL0     H37107  10.129  10.659   9.595  0.8454  2.8343 -0.1767
  275MOL0     H37108   9.920  10.780   9.661 -1.6143 -1.0047  0.2973
  275MOL0     H37109   9.500  10.638  10.148 -2.6374  0.7013  1.5282
  275MOL0     H37110   9.286  10.724  10.168 -0.9918  0.8164 -0.2181
  275MOL0     H37111   8.474  11.424  11.421  2.6078 -3.2951 -1.7215
  275MOL0     H37112   8.298  11.581  11.339  3.1273  0.2810  1.2034
  275MOL0     H37113   7.969  11.661  11.022 -0.6903 -1.3576 -0.3568
  275MOL0     H37114   7.812  11.875  10.987 -1.3373  1.7276  0.6187
  275MOL0     H37115   7.656  12.038  10.971 -1.4826  0.0214  1.5602
  275MOL0     H37116   7.629  12.163  11.066 -1.3411 -1.3591 -0.2456
  275MOL0     H37117   7.912  12.063  11.007  0.9762  1.2377  1.7386
  275MOL0     H37118   7.869  12.174  11.139  0.2426  1.3270  0.7214
  275MOL0     H37119   7.772  12.335  10.980 -0.1405 -0.0568 -2.1636
  275MOL0     H37120   7.805  12.227  10.852  1.7726 -1.1270 -1.1679
  275MOL0     H37121   7.970  12.402  10.865 -1.0846  2.4293  1.8474
  275MOL0     H37122   8.052  12.245  10.897  1.7890  1.9838  0.3362
  275MOL0     H37123   8.121  12.424  11.260  2.3168  0.7059 -1.0490
  275MOL0     H37124   7.763  11.904  11.401 -0.5492  0.3080 -1.5801
  275MOL0     H37125   7.906  11.708  11.440 -2.1860  1.7655  0.4827
  276MOL0     O37126   1.153   8.495   4.733  0.8725  0.4586  0.2228
  276MOL0     C37127   1.201   8.394   4.773 -0.1146  0.8286  0.5278
  276MOL0     O37128   1.325   8.379   4.837  0.5881 -0.0125 -0.0630
  276MOL0     C37129   1.395   8.490   4.857  0.1175  0.2901  0.0461
  276MOL0     C37130   1.392   8.563   4.976 -0.2624  0.3810 -0.0590
  276MOL0     C37131   1.454   8.682   4.982  0.1408 -0.7103  0.1361
  276MOL0     C37132   1.523   8.734   4.873 -0.1629  0.3247 -0.1778
  276MOL0     O37133   1.600   8.847   4.897  0.6845  0.2223  0.2260
  276MOL0     C37134   1.589   8.953   4.800  0.8392 -0.3342  0.6296
  276MOL0     C37135   1.729   8.995   4.754  0.0483 -0.0880 -0.0403
  276MOL0     C37136   1.801   8.865   4.689 -0.4072  0.4575 -0.6219
  276MOL0     C37137   1.920   8.914   4.600  0.2822  0.0678 -0.2230
  276MOL0     C37138   2.022   8.790   4.567  0.6703 -0.0428 -0.2473
  276MOL0     C37139   1.958   8.697   4.457 -0.2880  0.2454  0.0278
  276MOL0     C37140   2.033   8.564   4.446 -0.0239  0.3117 -0.4903
  276MOL0     C37141   2.174   8.592   4.392 -0.6864  0.3789  0.5379
  276MOL0     N37142   2.167   8.630   4.249  0.0638  0.5009 -0.8039
  276MOL0     C37143   2.214   8.742   4.197 -0.8557 -0.7475 -0.7214
  276MOL0     C37144   2.193   8.737   4.063 -0.2077 -0.2769 -0.2472
  276MOL0     C37145   2.228   8.847   3.964  0.1020  0.4132  0.2942
  276MOL0     C37146   2.338   8.813   3.877 -0.8738  0.9037  0.7280
  276MOL0     C37147   2.361   8.925   3.778  0.5919  0.1176 -0.4702
  276MOL0     C37148   2.248   8.923   3.672  0.3988  0.1938  0.9190
  276MOL0     O37149   2.225   9.055   3.626 -0.2132  0.1992 -0.4031
  276MOL0     C37150   2.226   9.091   3.496 -0.4750  0.2444 -0.6845
  276MOL0     C37151   2.319   9.185   3.451 -0.3548  0.6912  0.5373
  276MOL0     C37152   2.319   9.215   3.313  0.4537  0.7977 -0.0553
  276MOL0     C37153   2.434   9.306   3.277  0.0739 -0.7124 -0.3098
  276MOL0     C37154   2.235   9.156   3.223  0.3787  0.1962  0.0164
  276MOL0     C37155   2.242   9.186   3.081 -1.1020  0.3066  0.6378
  276MOL0     O37156   2.302   9.304   3.037 -0.0620 -0.4898 -0.3894
  276MOL0     C37157   2.332   9.315   2.904 -0.3321  0.2441 -0.8875
  276MOL0     C37158   2.306   9.440   2.847  0.1008 -0.2050 -0.0508
  276MOL0     C37159   2.328   9.453   2.707  0.4896 -0.3418 -0.2058
  276MOL0     C37160   2.376   9.351   2.621 -0.3432 -0.1325 -0.8499
  276MOL0     O37161   2.407   9.401   2.503 -0.4375 -0.1768  0.6877
  276MOL0     C37162   2.473   9.329   2.405 -0.7281 -0.0284  0.2469
  276MOL0     C37163   2.451   9.391   2.261  0.1777 -0.2754  0.6119
  276MOL0     C37164   2.530   9.294   2.164 -0.5621 -0.2760  0.1544
  276MOL0     C37165   2.577   9.347   2.024  0.9892  0.0970 -0.3971
  276MOL0     C37166   2.600   9.229   1.919 -0.0212 -0.5241 -0.7412
  276MOL0     C37167   2.734   9.170   1.924  0.3216 -0.4118 -0.1198
  276MOL0     C37168   2.791   9.123   1.792  0.0588 -0.4010  0.5023
  276MOL0     C37169   2.901   9.013   1.795  0.6437  1.0863 -0.5565
  276MOL0    Cl37170   3.029   9.048   1.898  0.1832  0.0265  0.2062
  276MOL0     C37171   2.406   9.229   2.686  0.3909 -0.0222 -0.7352
  276MOL0     C37172   2.384   9.213   2.822 -0.1574 -0.2222 -0.2165
  276MOL0     O37173   2.181   9.114   3.003 -0.2815 -0.8549  0.4422
  276MOL0     C37174   2.136   9.072   3.270 -0.2057  0.2203 -0.5773
  276MOL0     C37175   2.130   9.033   3.406  0.1515  0.5172 -0.5659
  276MOL0     N37176   2.129   8.614   4.040 -0.4821 -0.2729  0.6433
  276MOL0     N37177   2.095   8.555   4.152 -0.6007  0.0346 -0.3947
  276MOL0     C37178   1.536   8.659   4.756  0.2087 -0.7041  0.5678
  276MOL0     C37179   1.461   8.542   4.747 -0.9883  0.2802  0.1817
  276MOL0     C37180   1.113   8.277   4.778 -0.8302  1.0725  0.3446
  276MOL0     C37181   1.148   8.164   4.853  0.6623 -0.8171  0.0770
  276MOL0     C37182   1.058   8.060   4.870  0.1176  0.7420  0.0724
  276MOL0     C37183   0.933   8.060   4.807 -0.6757  0.2933  0.5098
  276MOL0     O37184   0.845   7.956   4.814 -1.2970 -0.3709  0.1732
  276MOL0     C37185   0.883   7.831   4.742 -0.2622 -0.1361 -0.1093
  276MOL0     C37186   0.822   7.824   4.602  0.0632 -0.9423  0.6825
  276MOL0     C37187   0.885   7.911   4.494  0.2510  0.3006  0.0420
  276MOL0     C37188   1.034   7.910   4.485 -0.3325 -0.5254  0.3825
  276MOL0     C37189   1.075   7.969   4.351  0.2253  0.5383 -0.0167
  276MOL0     C37190   1.100   8.012   4.239  0.5722  0.0207  0.6658
  276MOL0     C37191   0.905   8.174   4.725  0.3431  1.0461 -0.6823
  276MOL0     C37192   0.994   8.275   4.712  0.3986  0.2394 -0.0295
  276MOL0     H37193   1.335   8.513   5.054 -0.1153  0.6898  0.2474
  276MOL0     H37194   1.455   8.734   5.078 -1.6676  1.1900 -0.8148
  276MOL0     H37195   1.518   8.939   4.718  0.3578 -0.9297  1.1376
  276MOL0     H37196   1.547   9.046   4.838 -0.1852 -0.1949 -0.7723
  276MOL0     H37197   1.727   9.075   4.679 -1.4727 -1.0571 -1.0978
  276MOL0     H37198   1.784   9.044   4.835 -0.7386 -1.7403  1.5586
  276MOL0     H37199   1.835   8.800   4.770 -4.5022 -0.7543  0.3101
  276MOL0     H37200   1.732   8.807   4.628  0.4008 -0.5678 -0.5850
  276MOL0     H37201   1.887   8.969   4.512  0.8253 -2.9533 -2.4731
  276MOL0     H37202   1.978   8.982   4.664  1.0421 -2.4302  1.9622
  276MOL0     H37203   2.118   8.829   4.532 -0.8711  2.8816 -1.5450
  276MOL0     H37204   2.037   8.736   4.661  2.5446 -1.2476 -1.1762
  276MOL0     H37205   1.855   8.671   4.480  0.0172 -1.7522 -0.5925
  276MOL0     H37206   1.949   8.753   4.363 -1.5552  1.5893  0.9222
  276MOL0     H37207   2.045   8.527   4.548 -0.3336  1.3730 -0.0506
  276MOL0     H37208   1.977   8.499   4.378 -2.1848  2.8241 -1.2675
  276MOL0     H37209   2.242   8.507   4.395  0.0351  0.8233 -1.7489
  276MOL0     H37210   2.242   8.657   4.448  0.9040 -0.2112 -0.6586
  276MOL0     H37211   2.267   8.816   4.255 -1.5592 -0.4781 -0.4173
  276MOL0     H37212   2.134   8.875   3.915 -0.8182  0.6716  2.1328
  276MOL0     H37213   2.263   8.932   4.024  3.9437 -1.0886  0.4687
  276MOL0     H37214   2.320   8.724   3.816  0.2319  2.7813 -2.5464
  276MOL0     H37215   2.436   8.807   3.925 -1.5230  1.7681  2.2287
  276MOL0     H37216   2.457   8.910   3.727  0.7044 -0.8672  0.0189
  276MOL0     H37217   2.367   9.017   3.838 -0.9549  1.2212 -1.9200
  276MOL0     H37218   2.165   8.863   3.711 -0.3859 -0.1659 -1.1826
  276MOL0     H37219   2.280   8.856   3.592 -0.7329 -3.7385  3.4740
  276MOL0     H37220   2.378   9.231   3.529  0.8180 -1.3174  0.9007
  276MOL0     H37221   2.392   9.404   3.251 -1.7196 -1.5338 -0.6546
  276MOL0     H37222   2.507   9.327   3.356  1.0689 -0.5596 -1.2484
  276MOL0     H37223   2.494   9.267   3.195  0.0654 -0.4983 -0.4191
  276MOL0     H37224   2.267   9.525   2.902 -0.2154  1.6196 -2.9126
  276MOL0     H37225   2.309   9.545   2.651  2.7440  0.2518 -0.0863
  276MOL0     H37226   2.578   9.341   2.432 -0.8732  0.6788  0.4979
  276MOL0     H37227   2.441   9.224   2.405  2.6345 -1.1685  1.4740
  276MOL0     H37228   2.343   9.403   2.243  0.7218  1.8367 -1.7337
  276MOL0     H37229   2.494   9.490   2.247 -0.9872  0.1960  0.2206
  276MOL0     H37230   2.477   9.198   2.156  1.8737 -1.6104 -1.4822
  276MOL0     H37231   2.616   9.249   2.216  1.4482  1.1006 -1.7859
  276MOL0     H37232   2.488   9.395   1.983  1.7031  2.4208  0.6175
  276MOL0     H37233   2.662   9.416   2.020 -0.0447  1.4554  0.5865
  276MOL0     H37234   2.588   9.265   1.817 -2.6921 -0.2983 -0.3953
  276MOL0     H37235   2.524   9.152   1.933 -0.0436 -0.1444  1.5260
  276MOL0     H37236   2.801   9.249   1.958 -0.9857  0.1098  1.3145
  276MOL0     H37237   2.740   9.094   2.002  1.7470  1.6576  1.8888
  276MOL0     H37238   2.830   9.209   1.736  0.2113  0.3978  1.8026
  276MOL0     H37239   2.716   9.075   1.729  2.3039 -1.6975 -1.3337
  276MOL0     H37240   2.936   8.983   1.696 -2.3738  0.0923 -1.4071
  276MOL0     H37241   2.855   8.921   1.830 -1.1709  1.5626 -1.5926
  276MOL0     H37242   2.464   9.149   2.640  3.2085  1.3205  0.2243
  276MOL0     H37243   2.415   9.115   2.858  1.1615  0.4002  0.4314
  276MOL0     H37244   2.060   9.031   3.204 -1.1867  1.0622  0.0127
  276MOL0     H37245   2.072   8.954   3.451 -0.1851  0.5551 -0.9221
  276MOL0     H37246   1.594   8.675   4.665  0.4206 -0.1146  0.8057
  276MOL0     H37247   1.465   8.482   4.656  1.1327  3.9476 -2.4091
  276MOL0     H37248   1.245   8.162   4.903  1.0592 -1.1789 -0.6875
  276MOL0     H37249   1.083   7.965   4.916 -0.7843 -0.8138 -2.4302
  276MOL0     H37250   0.991   7.813   4.745  0.0214  1.4018  3.0819
  276MOL0     H37251   0.838   7.755   4.807  0.1775 -0.5738 -0.3104
  276MOL0     H37252   0.714   7.840   4.604  0.0196 -0.9882  3.7612
  276MOL0     H37253   0.835   7.721   4.568 -3.2663 -1.4728  0.7093
  276MOL0     H37254   0.848   8.014   4.501  0.1002  0.2021  0.8109
  276MOL0     H37255   0.838   7.880   4.400  1.0751  0.7675 -0.5351
  276MOL0     H37256   1.075   7.809   4.499  0.8448  0.2109  2.5808
  276MOL0     H37257   1.072   7.970   4.567 -0.4712 -1.8004  1.4271
  276MOL0     H37258   1.102   8.042   4.136 -0.5597  1.8492  1.1318
  276MOL0     H37259   0.802   8.172   4.689 -0.6579  0.0181  1.9776
  276MOL0     H37260   0.956   8.351   4.643 -2.0318  0.0294  0.9627
  277MOL0     O37261   5.755   4.149   0.149 -0.2091 -0.9417  0.2671
  277MOL0     C37262   5.819   4.090   0.064  0.1558 -1.3716  0.6758
  277MOL0     O37263   5.949   4.116   0.039 -0.2555  1.0342  0.4224
  277MOL0     C37264   6.023   4.223   0.084 -0.0268  0.3730  0.0425
  277MOL0     C37265   5.968   4.348   0.100  0.8147 -0.8783  0.3756
  277MOL0     C37266   6.057   4.457   0.132  0.1926  0.3389 -0.1627
  277MOL0     C37267   6.196   4.433   0.148 -0.1926 -0.5406  0.3680
  277MOL0     O37268   6.278   4.544   0.161  0.6459  0.0596 -0.1750
  277MOL0     C37269   6.410   4.531   0.105  0.5166 -0.9997 -0.8332
  277MOL0     C37270   6.478   4.670   0.116 -1.4309 -0.0810  0.3853
  277MOL0     C37271   6.412   4.773   0.022  0.1798 -0.2314  0.2694
  277MOL0     C37272   6.467   4.911   0.064 -1.0594 -0.0236 -0.5665
  277MOL0     C37273   6.429   5.020  -0.032 -0.2500 -0.9130 -0.7864
  277MOL0     C37274   6.489   5.149   0.037  0.4878 -0.2682  0.8146
  277MOL0     C37275   6.460   5.272  -0.054 -0.4242 -0.4483 -0.7680
  277MOL0     C37276   6.563   5.287  -0.169  0.2155  0.8991 -0.0845
  277MOL0     N37277   6.498   5.328  -0.297 -0.1898  0.0464 -0.4381
  277MOL0     C37278   6.532   5.285  -0.423  0.6527 -0.3980  0.4067
  277MOL0     C37279   6.428   5.310  -0.500  0.6399 -1.0342 -0.2483
  277MOL0     C37280   6.408   5.282  -0.643 -0.9792  0.2867  0.0409
  277MOL0     C37281   6.336   5.149  -0.654 -0.3387 -1.1478 -0.1238
  277MOL0     C37282   6.423   5.032  -0.606 -0.0934  0.1600 -0.1245
  277MOL0     C37283   6.348   4.897  -0.602 -0.6904 -0.0385 -0.7055
  277MOL0     O37284   6.333   4.841  -0.734  0.5778  0.6811  0.7703
  277MOL0     C37285   6.431   4.748  -0.767  1.4008  0.4772 -0.4073
  277MOL0     C37286   6.481   4.754  -0.902 -0.0620  0.1025 -0.0329
  277MOL0     C37287   6.573   4.659  -0.959  0.4558 -1.5402 -0.0340
  277MOL0     C37288   6.623   4.690  -1.092 -0.3874  0.5239 -0.1404
  277MOL0     C37289   6.594   4.540  -0.875 -1.0595 -1.1034  0.3840
  277MOL0     C37290   6.675   4.423  -0.921  0.6758  0.4255  0.0131
  277MOL0     O37291   6.711   4.322  -0.828  0.8143 -0.2952 -0.1913
  277MOL0     C37292   6.791   4.220  -0.867  0.1298  0.1787 -0.6512
  277MOL0     C37293   6.906   4.243  -0.937  0.2232  0.9407  0.9882
  277MOL0     C37294   7.004   4.146  -0.952 -1.2685  0.6202  0.3684
  277MOL0     C37295   6.991   4.019  -0.893  0.6311 -0.9213  0.5123
  277MOL0     O37296   7.083   3.915  -0.908  0.4025  0.4659  0.1506
  277MOL0     C37297   7.211   3.950  -0.930 -0.6377 -0.3481 -0.0655
  277MOL0     C37298   7.302   3.843  -0.890  0.0474 -1.3294 -0.0560
  277MOL0     C37299   7.293   3.825  -0.740 -0.5968  0.4411  0.2660
  277MOL0     C37300   7.363   3.692  -0.697 -0.3512  0.0282 -1.1240
  277MOL0     C37301   7.289   3.560  -0.723  0.0918  0.0268 -0.9170
  277MOL0     C37302   7.135   3.566  -0.682 -0.2110 -0.2180  0.5299
  277MOL0     C37303   7.046   3.444  -0.723 -0.9534  0.2938  0.1014
  277MOL0     C37304   7.095   3.310  -0.675 -0.4366 -0.5338 -0.0214
  277MOL0    Cl37305   6.997   3.186  -0.756  0.0166  0.1561 -0.2334
  277MOL0     C37306   6.866   3.992  -0.839  0.2798  0.4645  0.0847
  277MOL0     C37307   6.774   4.095  -0.814  0.8549  0.0489  0.0290
  277MOL0     O37308   6.707   4.415  -1.043  0.1857  0.5702  0.0323
  277MOL0     C37309   6.535   4.533  -0.745  1.1007 -0.8533 -0.7319
  277MOL0     C37310   6.457   4.634  -0.695  0.3499 -0.4204 -0.0329
  277MOL0     N37311   6.330   5.386  -0.425  0.1132 -0.2986  0.0467
  277MOL0     N37312   6.376   5.396  -0.303 -0.2122  1.2303 -0.0215
  277MOL0     C37313   6.245   4.298   0.128 -1.0603 -0.5299  0.5730
  277MOL0     C37314   6.158   4.199   0.100 -1.1738  0.1092 -0.2277
  277MOL0     C37315   5.741   3.997  -0.023 -0.8525 -0.2223 -0.2073
  277MOL0     C37316   5.607   4.022  -0.051  0.8194  0.1556  0.2496
  277MOL0     C37317   5.548   3.941  -0.151  0.1209 -0.2436  0.5525
  277MOL0     C37318   5.616   3.826  -0.207  0.6382  0.5305  1.2094
  277MOL0     O37319   5.561   3.758  -0.311  0.2480  0.6206 -0.0501
  277MOL0     C37320   5.412   3.758  -0.340 -0.0627 -0.4603 -0.0694
  277MOL0     C37321   5.387   3.673  -0.464  0.6431  0.4652  0.2989
  277MOL0     C37322   5.400   3.740  -0.604 -1.2572 -0.9274 -0.1183
  277MOL0     C37323   5.542   3.703  -0.652 -0.8703 -0.4288  0.7961
  277MOL0     C37324   5.544   3.752  -0.796 -0.9075  0.4947 -0.4067
  277MOL0     C37325   5.549   3.794  -0.909 -0.3574 -0.4126 -1.5957
  277MOL0     C37326   5.749   3.806  -0.162 -0.4523 -0.8077 -0.0990
  277MOL0     C37327   5.810   3.903  -0.088 -1.0510  0.9792  0.3701
  277MOL0     H37328   5.865   4.362   0.070  0.1067 -1.9737  2.1544
  277MOL0     H37329   6.024   4.560   0.133  1.0103  0.6153  1.2177
  277MOL0     H37330   6.460   4.457   0.168  2.9788 -0.3033 -1.8294
  277MOL0     H37331   6.419   4.503  -0.000  0.6454 -1.1184 -0.7903
  277MOL0     H37332   6.477   4.704   0.220 -2.5934 -1.8219  1.0007
  277MOL0     H37333   6.582   4.660   0.084 -0.5337  3.2364  1.8937
  277MOL0     H37334   6.448   4.759  -0.080  0.2185  2.0551 -0.0733
  277MOL0     H37335   6.303   4.767   0.016  0.0622  0.8556  0.9472
  277MOL0     H37336   6.420   4.943   0.158 -1.4308  2.6233 -1.5621
  277MOL0     H37337   6.574   4.902   0.082 -1.2968  0.1941  1.1538
  277MOL0     H37338   6.452   4.990  -0.134  4.1238 -4.0394  0.8252
  277MOL0     H37339   6.321   5.038  -0.022 -0.3880 -2.3960  1.1672
  277MOL0     H37340   6.451   5.150   0.139  0.8760  0.4735  0.9612
  277MOL0     H37341   6.598   5.151   0.036  0.5788  0.6518 -3.0264
  277MOL0     H37342   6.361   5.263  -0.100 -1.5707  3.1840  0.6005
  277MOL0     H37343   6.471   5.366   0.002  0.5284  0.7439 -2.8490
  277MOL0     H37344   6.608   5.188  -0.184 -0.4207  0.0099  3.1449
  277MOL0     H37345   6.633   5.361  -0.130 -0.5634  0.0033  3.2822
  277MOL0     H37346   6.620   5.227  -0.450  2.3783  1.9595  0.7215
  277MOL0     H37347   6.336   5.353  -0.686  0.7039  1.2365 -1.3305
  277MOL0     H37348   6.503   5.289  -0.696 -1.6108 -0.0407 -1.1580
  277MOL0     H37349   6.325   5.126  -0.761  4.7440  1.2817 -1.4956
  277MOL0     H37350   6.241   5.154  -0.600 -1.7730 -4.4379 -2.0344
  277MOL0     H37351   6.462   5.057  -0.507  0.7879 -0.2400 -0.3577
  277MOL0     H37352   6.509   5.017  -0.673  0.1384  0.9041 -0.0009
  277MOL0     H37353   6.258   4.917  -0.544  0.5105  1.9462  0.5867
  277MOL0     H37354   6.404   4.833  -0.533 -4.7674 -1.1596  1.8812
  277MOL0     H37355   6.459   4.842  -0.962 -4.1799 -0.3735  0.4606
  277MOL0     H37356   6.618   4.798  -1.108  0.5343  0.8314  1.3803
  277MOL0     H37357   6.727   4.660  -1.110  0.1625  2.9024 -1.2643
  277MOL0     H37358   6.554   4.639  -1.159 -0.0966 -0.4210  0.2631
  277MOL0     H37359   6.933   4.340  -0.977  3.5238 -1.0683 -2.3846
  277MOL0     H37360   7.092   4.177  -1.008 -0.1874 -0.8192  1.1873
  277MOL0     H37361   7.225   3.994  -1.030 -1.6633  1.1531  0.4185
  277MOL0     H37362   7.242   4.037  -0.871 -0.4333 -0.3052 -0.2334
  277MOL0     H37363   7.281   3.752  -0.947  2.4956 -2.3408  0.4987
  277MOL0     H37364   7.401   3.879  -0.919 -0.5155  0.9748  0.6371
  277MOL0     H37365   7.189   3.821  -0.706 -0.4143 -6.2689  1.3775
  277MOL0     H37366   7.344   3.912  -0.697  2.1049 -0.6818 -0.4811
  277MOL0     H37367   7.466   3.688  -0.734 -0.7371 -2.2219 -2.1211
  277MOL0     H37368   7.379   3.685  -0.589  4.6937 -0.4373 -1.6865
  277MOL0     H37369   7.341   3.480  -0.671 -0.7338  0.0361 -0.0556
  277MOL0     H37370   7.283   3.538  -0.830 -1.2870 -1.5213 -0.5669
  277MOL0     H37371   7.116   3.589  -0.577 -0.1103  0.2987  0.4411
  277MOL0     H37372   7.088   3.647  -0.739 -1.0425 -0.4698  0.8510
  277MOL0     H37373   7.036   3.447  -0.832 -0.2674 -0.3716  0.0147
  277MOL0     H37374   6.942   3.462  -0.692 -0.5766  0.3719  1.3555
  277MOL0     H37375   7.089   3.303  -0.566 -3.8167 -0.1041 -0.0562
  277MOL0     H37376   7.203   3.300  -0.689  0.6173  2.6012  4.1458
  277MOL0     H37377   6.836   3.891  -0.814 -0.5180  0.7905  0.4765
  277MOL0     H37378   6.680   4.075  -0.763  0.4784 -1.3421 -1.1465
  277MOL0     H37379   6.544   4.448  -0.678 -0.7593  0.5741  1.5171
  277MOL0     H37380   6.422   4.627  -0.592  2.5440 -0.1443  0.7911
  277MOL0     H37381   6.349   4.268   0.134 -0.7400  0.3677 -0.3077
  277MOL0     H37382   6.206   4.107   0.069  1.7496  1.1765  0.8013
  277MOL0     H37383   5.547   4.098  -0.001 -1.1696 -1.3919  0.3257
  277MOL0     H37384   5.450   3.964  -0.191  0.0197  1.4812  1.6806
  277MOL0     H37385   5.343   3.729  -0.260 -0.1221  2.3004  1.0052
  277MOL0     H37386   5.367   3.856  -0.357 -1.6354 -1.1351  0.0224
  277MOL0     H37387   5.281   3.650  -0.455  0.5467  1.1232  0.9526
  277MOL0     H37388   5.434   3.576  -0.450  2.0021  1.3400  2.3464
  277MOL0     H37389   5.385   3.848  -0.595 -0.2644 -0.8440  0.7267
  277MOL0     H37390   5.321   3.694  -0.664 -1.9039 -1.4145  1.0595
  277MOL0     H37391   5.558   3.596  -0.666 -0.2255  0.1113 -4.4361
  277MOL0     H37392   5.615   3.756  -0.589 -0.9986  3.7755 -2.1552
  277MOL0     H37393   5.577   3.830  -1.006 -2.2089  1.0107 -1.6462
  277MOL0     H37394   5.813   3.727  -0.200  1.7466  0.9438 -0.1895
  277MOL0     H37395   5.915   3.880  -0.075 -1.7024 -1.9922  1.1418
  278MOL0     O37396   2.767  11.475   4.788  0.3924  0.4738  0.3066
  278MOL0     C37397   2.883  11.444   4.778  0.3676  0.6265 -0.5092
  278MOL0     O37398   2.936  11.318   4.787 -0.6291  0.4633 -0.0031
  278MOL0     C37399   2.855  11.210   4.795 -0.0162  0.8038 -0.7039
  278MOL0     C37400   2.726  11.205   4.854 -0.2336  0.3582 -0.5393
  278MOL0     C37401   2.666  11.078   4.877 -0.6703 -0.2004 -0.5597
  278MOL0     C37402   2.721  10.965   4.819 -0.3642  0.2578 -0.5628
  278MOL0     O37403   2.669  10.843   4.835  0.3384  0.8949  0.6487
  278MOL0     C37404   2.527  10.820   4.790 -0.4611 -0.7521 -0.0263
  278MOL0     C37405   2.510  10.789   4.647  0.0379 -0.3000  0.8004
  278MOL0     C37406   2.363  10.779   4.616 -0.3318 -0.3605 -0.1499
  278MOL0     C37407   2.305  10.918   4.582  0.2913 -0.2802 -0.6097
  278MOL0     C37408   2.176  10.903   4.500 -0.1695 -0.2270 -0.2906
  278MOL0     C37409   2.219  10.929   4.351  0.1122  0.2061 -0.6201
  278MOL0     C37410   2.106  10.888   4.249  0.7915 -0.5123 -0.4857
  278MOL0     C37411   1.973  10.953   4.270 -0.4466 -0.4171 -0.1489
  278MOL0     N37412   1.884  10.951   4.151  0.5663 -0.0155  0.1479
  278MOL0     C37413   1.794  10.849   4.136  0.3156 -1.6840  1.0022
  278MOL0     C37414   1.755  10.856   4.008  0.2971  0.2910 -0.1734
  278MOL0     C37415   1.640  10.772   3.952  0.4393  0.5571  0.5776
  278MOL0     C37416   1.696  10.636   3.906  0.2465 -0.0995  0.4806
  278MOL0     C37417   1.586  10.568   3.825 -0.3384 -0.0274  0.0658
  278MOL0     C37418   1.624  10.431   3.769 -0.2758  0.4686 -0.3519
  278MOL0     O37419   1.628  10.328   3.873  0.9711 -0.5123  0.0717
  278MOL0     C37420   1.749  10.281   3.924 -0.8671  0.2468  0.4023
  278MOL0     C37421   1.831  10.222   3.830 -0.4346  0.0053 -0.1908
  278MOL0     C37422   1.960  10.173   3.868 -0.5458 -0.0431  0.5822
  278MOL0     C37423   2.048  10.111   3.763  0.4741 -1.0363  0.9172
  278MOL0     C37424   1.993  10.182   4.012 -0.1597 -0.3807  0.4740
  278MOL0     C37425   2.105  10.111   4.071 -0.1371  0.2624  0.7258
  278MOL0     O37426   2.102  10.080   4.206  0.2071  0.2440  0.3481
  278MOL0     C37427   2.214  10.048   4.277  1.2481  0.2349  1.0341
  278MOL0     C37428   2.320   9.978   4.231  0.4616  0.0944 -0.2927
  278MOL0     C37429   2.432   9.950   4.308 -0.2541  1.1981 -0.3078
  278MOL0     C37430   2.430   9.984   4.444 -0.8637  1.3335  1.1330
  278MOL0     O37431   2.534   9.968   4.529  0.2513 -0.0167 -0.4498
  278MOL0     C37432   2.616   9.852   4.506  0.2967 -0.1753 -0.8654
  278MOL0     C37433   2.744   9.872   4.586 -0.1657 -0.3413 -0.7842
  278MOL0     C37434   2.837   9.985   4.518 -0.0193  0.2712  0.9626
  278MOL0     C37435   2.920   9.922   4.412 -0.0678  0.5563  0.6158
  278MOL0     C37436   2.992  10.037   4.338 -0.1124 -0.1756  0.8091
  278MOL0     C37437   3.047   9.998   4.197  0.3539 -0.2114  0.6263
  278MOL0     C37438   3.169   9.906   4.207  1.4334 -0.8576 -0.7203
  278MOL0     C37439   3.290   9.999   4.217 -0.5068  0.0389  0.7733
  278MOL0    Cl37440   3.441   9.903   4.236 -0.2172  0.1342 -0.3516
  278MOL0     C37441   2.319  10.044   4.499  0.1926  0.2985 -0.3407
  278MOL0     C37442   2.214  10.076   4.415  0.8497  0.0718  0.7030
  278MOL0     O37443   2.208  10.107   3.995  0.0836 -0.4918 -0.2484
  278MOL0     C37444   1.901  10.247   4.102  0.1477 -0.2573 -0.6934
  278MOL0     C37445   1.785  10.301   4.053  0.1648  0.4445 -1.2246
  278MOL0     N37446   1.826  10.956   3.954 -0.0448  0.2785 -1.0486
  278MOL0     N37447   1.899  11.017   4.033 -0.4578 -0.6879  0.1637
  278MOL0     C37448   2.839  10.969   4.751 -1.0872 -0.5612 -0.1680
  278MOL0     C37449   2.906  11.093   4.737  0.7622  0.3299 -0.7358
  278MOL0     C37450   2.974  11.561   4.756  0.1219 -0.5677  0.1166
  278MOL0     C37451   2.929  11.696   4.774  0.7599 -0.6187 -0.2831
  278MOL0     C37452   3.011  11.804   4.774  0.0481  0.4058  0.1853
  278MOL0     C37453   3.143  11.786   4.733 -0.5077 -0.5382  0.1444
  278MOL0     O37454   3.211  11.901   4.725  0.1579 -0.4435  0.4740
  278MOL0     C37455   3.336  11.898   4.777  0.1892  1.3112  0.0712
  278MOL0     C37456   3.333  11.911   4.930  0.2342  0.9463  0.6297
  278MOL0     C37457   3.463  11.853   4.997 -0.5177 -0.3173 -0.1915
  278MOL0     C37458   3.567  11.966   5.021 -0.5777 -0.0123  0.4006
  278MOL0     C37459   3.638  11.996   4.893 -0.0446 -0.9229 -0.6749
  278MOL0     C37460   3.704  12.028   4.798 -0.1927  0.3856 -1.2933
  278MOL0     C37461   3.205  11.653   4.727  0.0608  0.6830 -0.3354
  278MOL0     C37462   3.113  11.545   4.736  0.6000  0.5463 -0.4097
  278MOL0     H37463   2.670  11.293   4.884  0.0314  0.3414  0.0153
  278MOL0     H37464   2.573  11.085   4.933 -0.2175 -0.1764  0.2129
  278MOL0     H37465   2.488  10.729   4.838 -0.4976  0.0035  1.4359
  278MOL0     H37466   2.470  10.908   4.821  0.1871 -0.4953  0.4826
  278MOL0     H37467   2.561  10.866   4.589 -0.6036 -0.2289  0.3284
  278MOL0     H37468   2.561  10.695   4.621  2.7200  1.3253 -0.2602
  278MOL0     H37469   2.356  10.712   4.530  0.4995  2.4161 -2.5081
  278MOL0     H37470   2.300  10.741   4.697 -0.7493  2.1722  0.7911
  278MOL0     H37471   2.285  10.978   4.671  1.9974  0.3176 -0.6019
  278MOL0     H37472   2.370  10.986   4.526 -1.0454  2.1192  0.5925
  278MOL0     H37473   2.123  10.807   4.503 -0.5704 -0.0122  2.9241
  278MOL0     H37474   2.095  10.961   4.546 -0.3253 -0.1715 -0.6341
  278MOL0     H37475   2.247  11.035   4.354 -3.0648  1.1864  2.8997
  278MOL0     H37476   2.302  10.863   4.324  2.3699  2.9735 -0.9281
  278MOL0     H37477   2.148  10.899   4.149 -0.0009 -0.4611 -0.8195
  278MOL0     H37478   2.081  10.783   4.266  0.0255 -0.1814  0.5103
  278MOL0     H37479   1.991  11.060   4.284  3.1944 -0.7181 -1.4382
  278MOL0     H37480   1.916  10.914   4.354  0.4052  2.4101  1.9059
  278MOL0     H37481   1.763  10.780   4.214  2.3491 -1.3144  2.2264
  278MOL0     H37482   1.555  10.742   4.015  0.7652 -3.6953 -0.6710
  278MOL0     H37483   1.601  10.831   3.870 -0.7634 -1.8562 -0.7050
  278MOL0     H37484   1.734  10.581   3.992  0.4155  0.3405  0.6895
  278MOL0     H37485   1.776  10.650   3.833  0.2592  0.9263  0.6775
  278MOL0     H37486   1.553  10.633   3.743  0.1598  0.5679  0.3260
  278MOL0     H37487   1.492  10.561   3.881 -1.1988  0.7949 -1.2049
  278MOL0     H37488   1.718  10.431   3.713  1.3242 -0.2219  2.1737
  278MOL0     H37489   1.540  10.410   3.702  0.5183  0.4445 -1.3663
  278MOL0     H37490   1.806  10.206   3.725 -2.1097  1.1451  0.0074
  278MOL0     H37491   2.005  10.119   3.663 -0.0018 -1.0582  1.1179
  278MOL0     H37492   2.148  10.152   3.779  0.1135 -0.6241  2.2116
  278MOL0     H37493   2.047  10.003   3.785 -0.8085 -0.4426  4.4895
  278MOL0     H37494   2.321   9.929   4.134  0.5645  1.2434 -0.8944
  278MOL0     H37495   2.516   9.896   4.264 -0.1680  2.6488 -2.0218
  278MOL0     H37496   2.561   9.762   4.533  0.3718  0.4294  1.5214
  278MOL0     H37497   2.644   9.844   4.401 -2.5142  0.7275 -1.7820
  278MOL0     H37498   2.721   9.913   4.685  0.2927  2.9574 -1.8957
  278MOL0     H37499   2.800   9.779   4.597 -0.6374 -0.4958  0.5595
  278MOL0     H37500   2.902  10.045   4.582 -0.4781 -1.5769  3.3181
  278MOL0     H37501   2.766  10.053   4.471 -0.1389 -1.7149 -2.0142
  278MOL0     H37502   2.983   9.854   4.470  3.9228  1.8043 -1.8394
  278MOL0     H37503   2.858   9.865   4.341  1.5758  0.1859 -0.5924
  278MOL0     H37504   3.081  10.076   4.388  2.1917 -1.3529 -2.0269
  278MOL0     H37505   2.919  10.117   4.325 -1.1053 -1.2469 -0.4152
  278MOL0     H37506   2.966   9.944   4.148  0.4805 -0.9131  1.1830
  278MOL0     H37507   3.080  10.092   4.152  2.3767 -0.4264  1.5534
  278MOL0     H37508   3.177   9.840   4.119  2.8272 -0.3764 -0.9892
  278MOL0     H37509   3.147   9.832   4.284  3.6396 -2.2727 -1.3420
  278MOL0     H37510   3.276  10.061   4.306  0.6148 -2.3559  2.7576
  278MOL0     H37511   3.288  10.055   4.123 -0.6135  1.4092  1.5612
  278MOL0     H37512   2.302  10.063   4.605 -0.9278 -0.5940 -0.3465
  278MOL0     H37513   2.128  10.127   4.457  2.1124  0.9567  2.3581
  278MOL0     H37514   1.926  10.249   4.208 -0.6361  2.0357 -0.5077
  278MOL0     H37515   1.714  10.350   4.119 -1.4483 -2.7325 -0.3775
  278MOL0     H37516   2.885  10.885   4.701 -1.0866 -0.5062 -0.2586
  278MOL0     H37517   3.006  11.084   4.695  1.6457 -0.0723  1.3620
  278MOL0     H37518   2.823  11.711   4.789  1.4548  2.4522  2.5631
  278MOL0     H37519   2.964  11.900   4.789 -1.5390 -0.4965  1.3140
  278MOL0     H37520   3.401  11.813   4.757  0.4554  1.3597  0.6975
  278MOL0     H37521   3.382  11.987   4.733  2.5697  0.5770  0.9344
  278MOL0     H37522   3.246  11.867   4.978 -0.8864 -1.4474 -3.1796
  278MOL0     H37523   3.325  12.018   4.952 -1.3014  0.9279  0.2270
  278MOL0     H37524   3.511  11.768   4.949  0.9392 -0.3013  1.1898
  278MOL0     H37525   3.434  11.827   5.099  2.7192 -0.0691  0.8998
  278MOL0     H37526   3.630  11.931   5.104 -0.9698 -0.2673  0.5980
  278MOL0     H37527   3.525  12.059   5.060  0.9733  0.1939  1.6781
  278MOL0     H37528   3.756  12.047   4.707 -0.6212  0.6429 -1.4892
  278MOL0     H37529   3.303  11.625   4.692 -0.4316 -2.1273  0.3479
  278MOL0     H37530   3.154  11.445   4.731  1.3229  0.6139  2.4654
  279MOL0     O37531   3.181   4.892   5.971  0.2832 -0.1329 -0.1155
  279MOL0     C37532   3.278   4.822   5.995  0.0390 -0.1444  0.5730
  279MOL0     O37533   3.369   4.786   5.904 -0.4984  0.2569  0.0419
  279MOL0     C37534   3.362   4.833   5.775  0.5305 -0.2322  0.0221
  279MOL0     C37535   3.397   4.756   5.660  0.1404 -0.0475  0.0859
  279MOL0     C37536   3.386   4.802   5.528  0.1026 -0.1313  0.6616
  279MOL0     C37537   3.339   4.922   5.503  0.6200 -0.6387  0.1108
  279MOL0     O37538   3.349   4.971   5.380  0.4650  0.0378  0.3041
  279MOL0     C37539   3.218   5.002   5.327 -0.1566  0.2628 -0.0424
  279MOL0     C37540   3.231   4.993   5.177  0.2160 -0.4859  0.9560
  279MOL0     C37541   3.327   5.089   5.124 -0.0305  0.7930 -0.3248
  279MOL0     C37542   3.325   5.070   4.974  0.3940 -0.0992 -0.9066
  279MOL0     C37543   3.416   5.173   4.909 -0.5843 -0.3190  0.6079
  279MOL0     C37544   3.396   5.199   4.756 -0.2379  0.3034 -0.3059
  279MOL0     C37545   3.477   5.317   4.709  0.5054 -0.1728  0.7292
  279MOL0     C37546   3.630   5.303   4.721 -0.1008 -0.4020 -0.2413
  279MOL0     N37547   3.708   5.435   4.727  0.3622  0.6868 -0.1481
  279MOL0     C37548   3.731   5.510   4.847  0.0541  0.3422 -0.7412
  279MOL0     C37549   3.810   5.606   4.796  0.4753  0.0256 -0.0503
  279MOL0     C37550   3.890   5.700   4.879  0.3401 -0.2306 -0.0269
  279MOL0     C37551   4.029   5.744   4.823 -0.3593  0.1008 -0.4643
  279MOL0     C37552   4.008   5.875   4.748  0.8185 -1.0314  1.1915
  279MOL0     C37553   4.136   5.918   4.673  0.8828  0.3378 -0.3836
  279MOL0     O37554   4.241   5.914   4.769 -0.4285  0.4591 -0.5779
  279MOL0     C37555   4.357   5.969   4.720 -0.1267 -0.0298 -0.0749
  279MOL0     C37556   4.459   5.983   4.816  0.0141 -0.2553  1.3014
  279MOL0     C37557   4.592   6.021   4.783  0.3137  1.6285 -0.7718
  279MOL0     C37558   4.685   6.048   4.902 -0.4775  0.5489 -0.0581
  279MOL0     C37559   4.632   6.042   4.649  0.6383  0.1898  0.3101
  279MOL0     C37560   4.770   6.076   4.615 -0.6524 -0.1163 -0.1731
  279MOL0     O37561   4.807   6.172   4.528  0.1172 -0.6038 -0.2469
  279MOL0     C37562   4.715   6.240   4.462  0.1707 -0.2499  0.3756
  279MOL0     C37563   4.624   6.333   4.520  0.3347 -0.2189 -0.5182
  279MOL0     C37564   4.543   6.413   4.437  0.1344  0.5497  0.7319
  279MOL0     C37565   4.549   6.413   4.298  1.0152 -0.9669 -0.0712
  279MOL0     O37566   4.479   6.507   4.234  0.6662 -0.3951 -0.5262
  279MOL0     C37567   4.523   6.569   4.123 -0.1968  0.1184  0.6921
  279MOL0     C37568   4.574   6.712   4.159 -0.2339  1.0054 -0.3689
  279MOL0     C37569   4.592   6.796   4.027  0.1676 -0.8489 -0.0779
  279MOL0     C37570   4.452   6.849   3.969 -0.5669 -0.3346 -0.0877
  279MOL0     C37571   4.498   6.922   3.850 -0.7281  0.0480 -0.2646
  279MOL0     C37572   4.386   6.998   3.784  0.3318 -0.3654  0.0941
  279MOL0     C37573   4.447   7.064   3.664  0.9871  0.8955 -0.5886
  279MOL0     C37574   4.384   7.201   3.622  0.7336  0.3959 -0.2474
  279MOL0    Cl37575   4.411   7.232   3.450 -0.0937  0.0461 -0.2841
  279MOL0     C37576   4.659   6.344   4.245 -0.7400 -0.0174  0.8129
  279MOL0     C37577   4.738   6.254   4.323 -0.3859 -0.1374  0.1931
  279MOL0     O37578   4.859   6.005   4.663  0.8555  0.7162  0.9183
  279MOL0     C37579   4.534   6.024   4.553 -0.0220 -0.6698 -0.6534
  279MOL0     C37580   4.399   5.986   4.585 -0.1701 -0.5037 -0.0135
  279MOL0     N37581   3.814   5.608   4.663 -0.0358 -0.2741  0.4739
  279MOL0     N37582   3.757   5.500   4.614  0.0807  0.3974  0.4390
  279MOL0     C37583   3.317   5.013   5.612 -0.1114 -0.0356  0.7094
  279MOL0     C37584   3.319   4.966   5.742  0.3993 -0.7703 -1.0721
  279MOL0     C37585   3.296   4.760   6.134  0.0068 -0.1801  0.0633
  279MOL0     C37586   3.414   4.704   6.177  0.1919  0.3218  0.1507
  279MOL0     C37587   3.426   4.637   6.301  0.1544  0.2569 -0.3595
  279MOL0     C37588   3.317   4.635   6.392  0.5803 -0.2026 -0.3722
  279MOL0     O37589   3.343   4.560   6.510  0.2589  0.4554  0.8690
  279MOL0     C37590   3.246   4.541   6.614  0.5720 -0.5146 -0.6830
  279MOL0     C37591   3.236   4.658   6.706  0.6238  0.7165 -0.8767
  279MOL0     C37592   3.153   4.634   6.832  0.9394 -0.2182  0.5383
  279MOL0     C37593   3.119   4.768   6.905  0.5443  0.3060  0.4739
  279MOL0     C37594   3.069   4.727   7.038  0.2756 -0.1806 -0.2255
  279MOL0     C37595   3.025   4.721   7.151 -0.9925 -0.2409  0.1546
  279MOL0     C37596   3.199   4.703   6.358  0.2156 -1.1687  0.5221
  279MOL0     C37597   3.193   4.759   6.233  0.4591  0.0411  0.0173
  279MOL0     H37598   3.441   4.657   5.662 -0.3007 -0.2404  0.7781
  279MOL0     H37599   3.411   4.733   5.449 -0.2340 -1.2587  1.5055
  279MOL0     H37600   3.150   4.922   5.357  2.4830 -1.7828  0.9063
  279MOL0     H37601   3.181   5.095   5.370  0.3234 -1.1201  3.7678
  279MOL0     H37602   3.247   4.891   5.143 -0.7731 -0.7705  1.3054
  279MOL0     H37603   3.130   5.018   5.144  1.0902  1.8313 -0.2214
  279MOL0     H37604   3.305   5.191   5.157 -0.3515  0.2913  1.0708
  279MOL0     H37605   3.432   5.075   5.153 -0.5550 -0.4317  1.0614
  279MOL0     H37606   3.355   4.967   4.950  1.1064  0.6544 -3.5566
  279MOL0     H37607   3.230   5.100   4.929  0.7597  1.8895 -0.4344
  279MOL0     H37608   3.406   5.273   4.953  1.6904  0.5614 -0.6969
  279MOL0     H37609   3.520   5.142   4.920 -0.1869  0.8532  0.2759
  279MOL0     H37610   3.419   5.110   4.696 -0.4858  0.7006 -1.0013
  279MOL0     H37611   3.291   5.221   4.733 -0.6892  1.1442  2.2735
  279MOL0     H37612   3.458   5.341   4.605  3.6138 -0.1486  0.0520
  279MOL0     H37613   3.456   5.407   4.769  1.7542  1.1410 -0.7138
  279MOL0     H37614   3.665   5.250   4.633 -0.2975  1.1637 -1.2975
  279MOL0     H37615   3.660   5.252   4.814 -0.5627  0.5973  0.4812
  279MOL0     H37616   3.716   5.482   4.951 -0.4760  0.6738 -0.7233
  279MOL0     H37617   3.826   5.787   4.896 -0.3233 -0.6775 -0.2116
  279MOL0     H37618   3.900   5.649   4.975 -2.2735 -0.0318  0.4254
  279MOL0     H37619   4.064   5.665   4.756  0.6272 -1.6528  1.9712
  279MOL0     H37620   4.102   5.766   4.901 -2.0226  1.1386  0.8590
  279MOL0     H37621   3.972   5.950   4.819  1.5816 -0.2866  0.8192
  279MOL0     H37622   3.939   5.859   4.665  1.5708 -0.4407  0.4274
  279MOL0     H37623   4.124   6.016   4.628  1.5902  0.4149 -0.4139
  279MOL0     H37624   4.162   5.849   4.592  0.8025  0.6106 -0.6409
  279MOL0     H37625   4.427   5.972   4.919  1.2098 -3.3339  1.4482
  279MOL0     H37626   4.681   5.971   4.979 -2.0130  1.6176  0.9897
  279MOL0     H37627   4.788   6.074   4.877 -0.9576  2.2606 -0.4187
  279MOL0     H37628   4.669   6.147   4.946  0.1971  0.9465 -0.6900
  279MOL0     H37629   4.627   6.351   4.627 -2.0919 -1.0389 -0.2486
  279MOL0     H37630   4.473   6.485   4.476  1.1500  1.8858  0.1540
  279MOL0     H37631   4.613   6.529   4.076 -1.4115  1.0749 -2.7627
  279MOL0     H37632   4.433   6.585   4.062  0.5615 -0.7385 -0.6940
  279MOL0     H37633   4.511   6.760   4.234  1.0292  0.5416  1.0339
  279MOL0     H37634   4.672   6.703   4.207  1.4506  0.7087 -3.5377
  279MOL0     H37635   4.650   6.751   3.946 -2.1459 -1.2262 -1.6197
  279MOL0     H37636   4.662   6.870   4.067 -0.5222 -1.2057  1.9374
  279MOL0     H37637   4.380   6.767   3.961 -1.1320 -0.0648  1.6903
  279MOL0     H37638   4.412   6.919   4.044  3.8995  0.8764  1.4679
  279MOL0     H37639   4.529   6.854   3.770 -0.2836  1.0720 -0.9871
  279MOL0     H37640   4.581   6.988   3.879 -2.0176  0.4981  2.8213
  279MOL0     H37641   4.302   6.930   3.767  1.5055 -2.0641  0.8464
  279MOL0     H37642   4.350   7.074   3.854  0.6783 -1.9542  2.0946
  279MOL0     H37643   4.438   6.991   3.584 -0.3947  0.0277  0.3120
  279MOL0     H37644   4.551   7.085   3.691  1.1854 -1.3060  0.6135
  279MOL0     H37645   4.421   7.280   3.688  0.5830 -0.7566  1.2898
  279MOL0     H37646   4.276   7.190   3.639  1.3238 -0.5924  4.1856
  279MOL0     H37647   4.676   6.343   4.138 -0.4017  0.3065  0.8622
  279MOL0     H37648   4.832   6.222   4.279 -1.6524  0.3784 -3.1190
  279MOL0     H37649   4.555   6.027   4.447 -0.7402 -4.2579 -1.0434
  279MOL0     H37650   4.336   5.962   4.500 -1.9169  3.5451 -0.1438
  279MOL0     H37651   3.283   5.113   5.589  1.9849  0.3137 -1.2097
  279MOL0     H37652   3.296   5.043   5.814 -0.1281 -3.2109  1.5722
  279MOL0     H37653   3.506   4.715   6.119  1.0875  0.7672  1.6073
  279MOL0     H37654   3.527   4.608   6.330  0.7461  1.1185 -1.4947
  279MOL0     H37655   3.152   4.523   6.563 -0.4288 -1.7934  1.4787
  279MOL0     H37656   3.262   4.457   6.683 -1.7452 -1.5419 -1.3088
  279MOL0     H37657   3.186   4.736   6.648 -2.2081 -0.3165  0.0213
  279MOL0     H37658   3.330   4.684   6.756 -0.1802 -1.5175  2.0338
  279MOL0     H37659   3.210   4.562   6.891 -0.4773 -1.3367  0.6130
  279MOL0     H37660   3.064   4.580   6.797  1.4045 -0.7289  0.1240
  279MOL0     H37661   3.038   4.813   6.847 -0.1852 -1.0870  0.3935
  279MOL0     H37662   3.200   4.843   6.909  1.7967 -1.0328  1.3069
  279MOL0     H37663   2.992   4.703   7.251 -0.0438  0.5001  0.6193
  279MOL0     H37664   3.117   4.707   6.430  0.0943 -2.1784  0.4580
  279MOL0     H37665   3.097   4.800   6.203  0.5173  0.6378  0.6128
  280MOL0     O37666  10.061   5.945   5.982  0.0346  0.1793 -0.4823
  280MOL0     C37667  10.061   5.852   5.900  0.1357 -0.0458  0.0819
  280MOL0     O37668  10.164   5.771   5.865  0.1211 -0.5661 -0.2946
  280MOL0     C37669  10.282   5.794   5.932  0.2858 -0.2866 -0.3580
  280MOL0     C37670  10.299   5.812   6.065  0.4583  0.6189  0.6868
  280MOL0     C37671  10.427   5.833   6.133  0.7942 -0.3289 -0.1428
  280MOL0     C37672  10.532   5.859   6.045 -0.4361  0.7691 -1.0874
  280MOL0     O37673  10.650   5.884   6.116 -0.1157  0.3895  0.4584
  280MOL0     C37674  10.764   5.799   6.068 -0.4699  0.1222 -0.3682
  280MOL0     C37675  10.843   5.771   6.200 -0.6365 -0.0995  0.5204
  280MOL0     C37676  10.953   5.879   6.230  1.1827  0.4512 -0.4546
  280MOL0     C37677  11.058   5.834   6.328  1.0950 -0.1603 -0.1517
  280MOL0     C37678  11.151   5.956   6.382  0.1934 -0.5749  0.8446
  280MOL0     C37679  11.253   5.888   6.473 -0.5956  0.2289  0.3828
  280MOL0     C37680  11.200   5.837   6.607 -1.0165  0.7741 -0.2632
  280MOL0     C37681  11.309   5.802   6.706  0.8700  0.0827 -0.2673
  280MOL0     N37682  11.426   5.731   6.646  1.4329 -0.6626  0.1182
  280MOL0     C37683  11.544   5.784   6.612  0.8227  0.2814  0.1368
  280MOL0     C37684  11.620   5.693   6.550  0.1963  0.6902  0.3925
  280MOL0     C37685  11.749   5.722   6.487  0.1485 -0.2961  0.3153
  280MOL0     C37686  11.863   5.693   6.585 -0.4882  0.5142 -0.0080
  280MOL0     C37687  11.870   5.798   6.707 -0.0822  0.5475 -0.5678
  280MOL0     C37688  11.985   5.784   6.804  0.4081  0.7100 -0.9978
  280MOL0     O37689  12.111   5.822   6.740 -0.3556  0.1739 -0.3436
  280MOL0     C37690  12.237   5.788   6.794  0.6310 -0.3015  0.2629
  280MOL0     C37691  12.254   5.718   6.911  0.6034 -1.1523  0.5150
  280MOL0     C37692  12.382   5.699   6.958 -0.5813 -0.4178  1.3672
  280MOL0     C37693  12.392   5.650   7.090  0.0217 -0.3249 -1.0242
  280MOL0     C37694  12.495   5.719   6.879  0.2400  0.4364  0.0024
  280MOL0     C37695  12.639   5.689   6.922 -1.5262  0.5632 -0.9304
  280MOL0     O37696  12.732   5.708   6.828 -0.1481 -0.0012  0.0853
  280MOL0     C37697  12.858   5.734   6.876  0.0859 -0.0128 -0.0633
  280MOL0     C37698  12.916   5.868   6.856 -0.6123 -1.3450 -1.0344
  280MOL0     C37699  13.049   5.892   6.904  0.2099  0.4860  0.8035
  280MOL0     C37700  13.124   5.783   6.959 -1.2692  0.1474 -0.7953
  280MOL0     O37701  13.260   5.795   6.975 -0.5714 -0.7047  0.5058
  280MOL0     C37702  13.317   5.731   7.096 -1.2560 -0.4617 -0.0719
  280MOL0     C37703  13.456   5.780   7.127  0.6317 -0.2553  0.2826
  280MOL0     C37704  13.526   5.693   7.233  0.3617  0.1879 -0.1479
  280MOL0     C37705  13.673   5.727   7.249  0.7063 -0.5245 -0.3871
  280MOL0     C37706  13.755   5.614   7.332 -0.1489  0.9842  1.1300
  280MOL0     C37707  13.704   5.594   7.479 -0.3287  0.0633  0.2249
  280MOL0     C37708  13.775   5.478   7.555 -0.1896 -0.4692 -0.0166
  280MOL0     C37709  13.757   5.480   7.707 -0.3972 -0.1206 -0.3193
  280MOL0    Cl37710  13.607   5.431   7.770 -0.5654  0.1125  0.1565
  280MOL0     C37711  13.058   5.658   6.984 -0.5102  0.5353 -0.4917
  280MOL0     C37712  12.928   5.634   6.939 -0.0691  0.9023  0.4972
  280MOL0     O37713  12.667   5.668   7.038 -0.7201 -0.6632  0.2153
  280MOL0     C37714  12.472   5.766   6.747 -0.6492  0.0592 -0.4421
  280MOL0     C37715  12.338   5.804   6.712 -0.1035  0.2824  0.1946
  280MOL0     N37716  11.552   5.578   6.551 -0.2425  0.2605  0.0463
  280MOL0     N37717  11.430   5.599   6.600 -0.1813 -0.2187  0.0588
  280MOL0     C37718  10.524   5.835   5.914  0.2619 -0.3070 -0.6057
  280MOL0     C37719  10.393   5.812   5.858  0.3211 -0.8382  0.2287
  280MOL0     C37720   9.935   5.825   5.827 -0.3419 -0.3214  0.1961
  280MOL0     C37721   9.846   5.928   5.803 -0.3399  0.4226 -0.0218
  280MOL0     C37722   9.721   5.893   5.750 -0.4487 -1.1752  0.3458
  280MOL0     C37723   9.684   5.763   5.703  0.2023  0.0981  0.5855
  280MOL0     O37724   9.569   5.719   5.641 -0.6349  0.9261 -0.2874
  280MOL0     C37725   9.446   5.776   5.677 -0.5586 -0.1604  0.6210
  280MOL0     C37726   9.402   5.897   5.602  0.1306 -0.3222 -0.1021
  280MOL0     C37727   9.443   5.898   5.455  0.0320 -0.1412  0.6030
  280MOL0     C37728   9.381   6.018   5.369 -0.1829 -0.4967 -0.3543
  280MOL0     C37729   9.398   5.998   5.220  1.3470 -0.5077  0.6361
  280MOL0     C37730   9.398   5.973   5.099  0.9199 -0.7834  0.2748
  280MOL0     C37731   9.772   5.667   5.728 -0.1638 -0.6291 -0.2933
  280MOL0     C37732   9.897   5.697   5.786 -0.5432 -0.1458  0.1236
  280MOL0     H37733  10.203   5.814   6.114  0.7395  0.8636  1.2397
  280MOL0     H37734  10.424   5.844   6.241  1.1162  0.4309 -0.2028
  280MOL0     H37735  10.733   5.704   6.024  1.4924 -0.8718  0.3006
  280MOL0     H37736  10.827   5.854   5.998  5.0725 -2.4960  1.9456
  280MOL0     H37737  10.782   5.766   6.291  1.1852  0.5785  1.8421
  280MOL0     H37738  10.890   5.675   6.177  2.9397  1.2727  1.4303
  280MOL0     H37739  11.008   5.893   6.137 -0.0482 -3.5407 -2.0021
  280MOL0     H37740  10.908   5.972   6.267 -3.1568 -1.7847  0.5407
  280MOL0     H37741  11.007   5.796   6.417  1.7274  1.7515  1.1075
  280MOL0     H37742  11.115   5.751   6.284 -0.8155 -0.5868 -1.9555
  280MOL0     H37743  11.214   5.999   6.303 -0.4687 -2.0368 -0.5374
  280MOL0     H37744  11.092   6.038   6.423  2.2591  1.1149  0.6375
  280MOL0     H37745  11.297   5.808   6.412  1.4798  2.9732 -2.0024
  280MOL0     H37746  11.336   5.956   6.491  0.6882 -1.2980  0.4628
  280MOL0     H37747  11.133   5.916   6.643 -0.6793  0.9518 -0.0271
  280MOL0     H37748  11.135   5.750   6.589 -2.7648  2.4691 -2.8480
  280MOL0     H37749  11.260   5.734   6.776 -0.4348 -2.7959 -3.6756
  280MOL0     H37750  11.349   5.886   6.764 -0.8009  0.2445  0.7449
  280MOL0     H37751  11.581   5.885   6.626 -0.5838  1.0028 -1.0758
  280MOL0     H37752  11.744   5.658   6.399 -1.1707 -0.9411  0.8336
  280MOL0     H37753  11.748   5.827   6.458  0.4919 -1.0253 -2.6899
  280MOL0     H37754  11.956   5.692   6.527  0.1837 -0.1677  1.0374
  280MOL0     H37755  11.862   5.588   6.617 -0.5102  0.1476 -1.1725
  280MOL0     H37756  11.773   5.783   6.755 -0.5960 -1.5941 -2.0904
  280MOL0     H37757  11.876   5.899   6.666 -0.5138  1.2251  0.9860
  280MOL0     H37758  11.978   5.678   6.831 -3.9391  1.0108 -0.1523
  280MOL0     H37759  11.969   5.852   6.887  1.2882 -1.9200  1.4875
  280MOL0     H37760  12.169   5.699   6.976 -0.6741  1.1399 -0.3918
  280MOL0     H37761  12.449   5.712   7.160  0.7949 -1.6969 -0.4015
  280MOL0     H37762  12.298   5.639   7.144  0.0632 -2.7286 -1.3245
  280MOL0     H37763  12.438   5.551   7.082 -0.6612 -1.3173  3.8653
  280MOL0     H37764  12.859   5.957   6.832  0.2459 -0.1881  0.9118
  280MOL0     H37765  13.086   5.993   6.885 -1.2066  0.8169 -0.4466
  280MOL0     H37766  13.256   5.739   7.187  0.4000  2.6606  0.9020
  280MOL0     H37767  13.324   5.625   7.069  2.0648  0.1497 -2.1178
  280MOL0     H37768  13.515   5.776   7.035 -0.7746  0.7560 -0.7048
  280MOL0     H37769  13.455   5.886   7.156 -0.8205 -0.7060  2.1661
  280MOL0     H37770  13.514   5.587   7.208 -3.0404  0.6480 -0.9110
  280MOL0     H37771  13.463   5.705   7.321  0.8933 -1.8224  0.5763
  280MOL0     H37772  13.698   5.753   7.146 -0.6153  1.8343 -0.1948
  280MOL0     H37773  13.688   5.817   7.311 -0.1157  0.6920 -1.8965
  280MOL0     H37774  13.860   5.644   7.325 -0.7662  3.2380  0.7385
  280MOL0     H37775  13.751   5.520   7.276 -0.5966  2.9281 -2.4443
  280MOL0     H37776  13.714   5.690   7.531  0.7765  1.7324 -2.8179
  280MOL0     H37777  13.599   5.570   7.463  0.0540 -0.8409 -1.0982
  280MOL0     H37778  13.882   5.486   7.533 -1.0050  1.8828 -4.1824
  280MOL0     H37779  13.741   5.380   7.520  0.7686 -1.6292  2.1560
  280MOL0     H37780  13.778   5.577   7.755  0.9551 -1.9622  3.2074
  280MOL0     H37781  13.828   5.407   7.747 -0.6058 -0.2101 -0.1153
  280MOL0     H37782  13.113   5.571   7.018  0.6034  1.4854  0.2153
  280MOL0     H37783  12.880   5.540   6.961  3.6306 -0.6187  3.0075
  280MOL0     H37784  12.558   5.784   6.684  0.0110 -1.5166 -0.0275
  280MOL0     H37785  12.310   5.832   6.611 -3.2655  0.5423  1.0620
  280MOL0     H37786  10.612   5.849   5.852 -1.0353 -0.8961 -2.6695
  280MOL0     H37787  10.388   5.809   5.749 -1.0232 -0.7020  0.2753
  280MOL0     H37788   9.863   6.027   5.845  1.5907 -0.2423  0.9227
  280MOL0     H37789   9.652   5.977   5.743  2.0605  0.9417 -0.7907
  280MOL0     H37790   9.369   5.702   5.653  1.2179 -1.8197 -0.2917
  280MOL0     H37791   9.450   5.798   5.784  1.0109  1.7046  0.2385
  280MOL0     H37792   9.435   5.988   5.653 -1.9294  2.1505 -2.8234
  280MOL0     H37793   9.293   5.903   5.616  0.2129  3.7684  0.0147
  280MOL0     H37794   9.414   5.801   5.415 -0.4549  0.6468 -1.0169
  280MOL0     H37795   9.552   5.908   5.448  0.3335 -2.5142  1.0753
  280MOL0     H37796   9.438   6.106   5.400 -0.3798 -0.3312 -0.4570
  280MOL0     H37797   9.275   6.034   5.392  0.3662  1.7701  0.8451
  280MOL0     H37798   9.409   5.935   5.000  1.6188  1.1812 -0.4485
  280MOL0     H37799   9.736   5.566   5.710 -2.2760  0.3710 -2.1171
  280MOL0     H37800   9.956   5.606   5.794 -1.1125 -0.7566 -2.0277
  281MOL0     O37801   3.558   4.438   9.029 -0.3328  0.1838  0.3233
  281MOL0     C37802   3.633   4.440   9.128  0.1266  0.2935 -0.4726
  281MOL0     O37803   3.762   4.476   9.127 -0.6713 -0.1953 -0.1716
  281MOL0     C37804   3.826   4.483   9.000 -0.6324  0.6183 -0.3199
  281MOL0     C37805   3.869   4.610   8.953 -0.8012  0.8638 -0.3649
  281MOL0     C37806   3.922   4.619   8.826 -0.6530 -0.0921  0.5577
  281MOL0     C37807   3.938   4.502   8.752 -0.0652 -0.0082 -0.3499
  281MOL0     O37808   4.002   4.503   8.634 -0.8705 -1.1758 -0.7202
  281MOL0     C37809   4.115   4.604   8.623  0.9459  0.5977 -0.3404
  281MOL0     C37810   4.188   4.588   8.500 -0.1220  0.4604  0.4838
  281MOL0     C37811   4.264   4.452   8.480  0.7836 -0.1405  0.5244
  281MOL0     C37812   4.380   4.433   8.582  0.0080 -0.4474  0.4229
  281MOL0     C37813   4.505   4.366   8.527 -0.3751 -0.1927 -0.2992
  281MOL0     C37814   4.545   4.424   8.390 -0.0681 -0.1471 -0.4678
  281MOL0     C37815   4.687   4.427   8.363 -0.6040 -0.5073  0.4547
  281MOL0     C37816   4.748   4.291   8.343 -0.1971  0.5710 -0.2868
  281MOL0     N37817   4.879   4.301   8.265 -0.9149 -0.6572  0.1893
  281MOL0     C37818   5.001   4.339   8.320 -0.4989  0.7034  0.3216
  281MOL0     C37819   5.093   4.295   8.222 -0.1585 -0.1780 -0.3579
  281MOL0     C37820   5.242   4.312   8.240 -0.2516 -0.3936  0.7073
  281MOL0     C37821   5.310   4.210   8.329 -0.7263 -0.3843  0.4944
  281MOL0     C37822   5.299   4.231   8.479  0.4966  0.3633 -0.1149
  281MOL0     C37823   5.357   4.362   8.521 -1.0799 -0.1941 -0.8409
  281MOL0     O37824   5.339   4.392   8.666 -0.0155 -0.6069  0.3056
  281MOL0     C37825   5.406   4.501   8.720 -0.4259  0.1427 -0.9463
  281MOL0     C37826   5.433   4.513   8.857 -0.4015 -0.3145 -0.3511
  281MOL0     C37827   5.516   4.622   8.912 -0.0847  0.9959  0.2763
  281MOL0     C37828   5.561   4.602   9.055  0.4837  0.3733  0.6470
  281MOL0     C37829   5.547   4.732   8.829  0.5087  0.0741 -0.1372
  281MOL0     C37830   5.621   4.858   8.873 -0.5438 -0.2303 -0.2269
  281MOL0     O37831   5.614   4.961   8.783  0.1104 -0.1876  0.1210
  281MOL0     C37832   5.705   5.059   8.796 -0.5947  0.2049  0.0550
  281MOL0     C37833   5.833   5.047   8.749 -0.4825  0.0675 -0.2565
  281MOL0     C37834   5.922   5.152   8.757  0.4808 -0.8565 -0.1922
  281MOL0     C37835   5.881   5.272   8.810  0.2032 -0.3296 -0.6333
  281MOL0     O37836   5.969   5.368   8.784 -0.9969 -0.0150 -0.2832
  281MOL0     C37837   5.989   5.460   8.886  0.3889  0.6436 -0.5200
  281MOL0     C37838   5.893   5.583   8.879 -0.6332  0.7127 -0.5663
  281MOL0     C37839   5.903   5.649   9.012  0.6763 -0.3739  0.1697
  281MOL0     C37840   5.872   5.796   8.985 -0.1067 -0.1639 -0.1270
  281MOL0     C37841   5.847   5.861   9.117 -0.1630  0.1699 -0.3193
  281MOL0     C37842   5.972   5.863   9.212  0.1687 -0.4651  0.5765
  281MOL0     C37843   5.942   5.936   9.342 -0.1921  0.4091 -0.2065
  281MOL0     C37844   5.843   5.865   9.433  0.5247  0.0473  0.3727
  281MOL0    Cl37845   5.907   5.713   9.501  0.1618  0.3579 -0.4282
  281MOL0     C37846   5.752   5.276   8.873  0.4132 -0.4674  0.3451
  281MOL0     C37847   5.665   5.171   8.859  0.5276  0.5744 -0.2701
  281MOL0     O37848   5.688   4.865   8.975  0.7253 -0.2645  0.0557
  281MOL0     C37849   5.502   4.725   8.698  0.1435 -0.4885 -1.5217
  281MOL0     C37850   5.440   4.611   8.642  0.0345  0.6688 -1.0782
  281MOL0     N37851   5.029   4.226   8.125  0.0002 -0.8790  0.2325
  281MOL0     N37852   4.901   4.233   8.145  0.1789  0.1835 -0.5885
  281MOL0     C37853   3.899   4.382   8.809  0.3037 -0.6699  0.5547
  281MOL0     C37854   3.844   4.367   8.932 -0.7799 -0.4527  0.1667
  281MOL0     C37855   3.561   4.380   9.247 -0.4497 -0.1584  0.0303
  281MOL0     C37856   3.423   4.390   9.258  1.1484  0.0808  0.3077
  281MOL0     C37857   3.363   4.326   9.366  0.6015 -0.9639 -0.4145
  281MOL0     C37858   3.439   4.283   9.480  1.0075  0.8235  0.0193
  281MOL0     O37859   3.385   4.252   9.603  0.4073 -0.1758 -0.3004
  281MOL0     C37860   3.241   4.229   9.619 -1.0862 -1.2573 -0.4888
  281MOL0     C37861   3.185   4.369   9.667 -0.3835  0.0930 -0.5649
  281MOL0     C37862   3.209   4.375   9.820  0.3726  0.9785 -0.1845
  281MOL0     C37863   3.089   4.317   9.905  0.0439 -0.4999  0.9672
  281MOL0     C37864   3.053   4.175   9.903  0.3277  0.8795  0.7098
  281MOL0     C37865   3.031   4.056   9.908  0.6392 -1.4296 -0.0910
  281MOL0     C37866   3.576   4.268   9.462  0.1550 -0.2749 -0.1869
  281MOL0     C37867   3.634   4.312   9.349  0.1278 -0.1627  0.0763
  281MOL0     H37868   3.855   4.690   9.025 -2.8086  0.2913 -0.0482
  281MOL0     H37869   3.937   4.715   8.778  2.4795  2.0972  5.2231
  281MOL0     H37870   4.077   4.706   8.630 -0.3539  0.0634  1.0602
  281MOL0     H37871   4.183   4.587   8.707 -1.8126  3.0947  2.6910
  281MOL0     H37872   4.125   4.598   8.411  0.8188 -0.4557 -0.3145
  281MOL0     H37873   4.266   4.664   8.488  0.5944 -0.4123 -0.6093
  281MOL0     H37874   4.198   4.367   8.501  2.0436 -1.3344 -0.1623
  281MOL0     H37875   4.293   4.438   8.375 -1.1864  1.1583 -0.2315
  281MOL0     H37876   4.417   4.532   8.612 -0.5420  0.4110 -1.5387
  281MOL0     H37877   4.339   4.372   8.663  0.2964 -3.1377 -1.3238
  281MOL0     H37878   4.590   4.368   8.596  0.3411  0.1143 -1.1617
  281MOL0     H37879   4.473   4.262   8.514 -1.2815  0.0074  0.3008
  281MOL0     H37880   4.499   4.370   8.307 -0.5816 -0.0826 -0.2280
  281MOL0     H37881   4.509   4.527   8.392 -2.7950 -1.0290  0.5073
  281MOL0     H37882   4.703   4.474   8.265 -1.8414 -3.2814 -1.2292
  281MOL0     H37883   4.730   4.487   8.443 -1.7804 -1.4352  1.8374
  281MOL0     H37884   4.680   4.222   8.293 -0.5718  1.4085 -0.9768
  281MOL0     H37885   4.763   4.251   8.443 -0.4798 -0.8353 -0.7842
  281MOL0     H37886   5.020   4.381   8.419  0.1260  1.0913  0.0419
  281MOL0     H37887   5.283   4.291   8.141 -0.0383 -1.1046  0.9358
  281MOL0     H37888   5.260   4.415   8.270 -2.0992 -0.1181  0.9655
  281MOL0     H37889   5.416   4.202   8.304 -0.5761  1.2019  0.5249
  281MOL0     H37890   5.277   4.108   8.309 -2.8780 -0.5851  4.0944
  281MOL0     H37891   5.341   4.142   8.527 -2.4181 -1.1911 -0.1875
  281MOL0     H37892   5.191   4.236   8.501  0.5569  1.1663  0.0123
  281MOL0     H37893   5.308   4.440   8.461 -0.3478  1.9518  1.1748
  281MOL0     H37894   5.464   4.372   8.502 -0.4204 -3.3096  0.5622
  281MOL0     H37895   5.413   4.427   8.920 -1.1887 -1.2634 -1.8293
  281MOL0     H37896   5.561   4.494   9.071  1.6859 -0.1325 -2.2657
  281MOL0     H37897   5.666   4.632   9.064  0.9347 -1.5448  2.5515
  281MOL0     H37898   5.494   4.650   9.128 -2.4883 -2.2793 -0.1396
  281MOL0     H37899   5.865   4.953   8.705 -1.6142  0.0384 -1.0652
  281MOL0     H37900   6.022   5.143   8.716  1.0582  2.7831  0.1508
  281MOL0     H37901   5.981   5.413   8.984 -4.8264  2.8219  0.4009
  281MOL0     H37902   6.090   5.501   8.877 -0.5196  3.3509  0.6107
  281MOL0     H37903   5.928   5.645   8.795  0.3901 -1.1397 -1.5705
  281MOL0     H37904   5.791   5.551   8.856 -1.5420  2.5190  0.7057
  281MOL0     H37905   6.007   5.635   9.043  0.2977 -0.3052  1.5104
  281MOL0     H37906   5.830   5.598   9.076 -0.2313  0.8151  0.1268
  281MOL0     H37907   5.956   5.838   8.929  1.1769 -1.1696  0.9653
  281MOL0     H37908   5.780   5.806   8.927 -1.4418  0.2446  1.9754
  281MOL0     H37909   5.765   5.809   9.168 -1.0349  1.7819  0.0081
  281MOL0     H37910   5.818   5.963   9.089 -3.4752 -0.8524 -1.0417
  281MOL0     H37911   5.999   5.762   9.242  1.8697 -1.0868 -2.6121
  281MOL0     H37912   6.067   5.900   9.171  0.8555  2.2994  4.1449
  281MOL0     H37913   5.899   6.036   9.328  1.0403  0.7922 -1.5498
  281MOL0     H37914   6.035   5.953   9.397  0.4537 -2.0350 -0.4465
  281MOL0     H37915   5.754   5.836   9.375  2.6971 -0.9800 -2.6925
  281MOL0     H37916   5.826   5.934   9.515 -2.3639 -0.9501  0.7525
  281MOL0     H37917   5.711   5.371   8.908  0.9565 -0.2837  0.5014
  281MOL0     H37918   5.562   5.164   8.892  1.1334 -1.3838  1.3758
  281MOL0     H37919   5.511   4.810   8.631  3.6320  1.6051  1.2256
  281MOL0     H37920   5.414   4.612   8.537  0.5277 -2.1714 -1.3164
  281MOL0     H37921   3.884   4.292   8.751 -4.0120 -0.5004  1.0706
  281MOL0     H37922   3.797   4.281   8.978 -1.1263  0.4433  1.5757
  281MOL0     H37923   3.368   4.423   9.171 -0.3890 -0.6784  0.9481
  281MOL0     H37924   3.255   4.324   9.355  0.7195 -1.5943 -1.6192
  281MOL0     H37925   3.184   4.184   9.537 -2.7420 -3.9099  1.9191
  281MOL0     H37926   3.229   4.160   9.703 -0.6159  1.6513  2.1393
  281MOL0     H37927   3.077   4.380   9.650 -1.3101 -2.7392  2.3434
  281MOL0     H37928   3.232   4.449   9.610  0.8477 -0.6158 -0.5824
  281MOL0     H37929   3.216   4.481   9.848 -0.4684  1.0104 -0.0957
  281MOL0     H37930   3.307   4.332   9.843 -0.6235 -1.2870  0.0695
  281MOL0     H37931   2.997   4.375   9.888 -0.5017 -1.5979  0.0756
  281MOL0     H37932   3.117   4.350  10.005 -0.1272  2.6322  0.0963
  281MOL0     H37933   3.007   3.953   9.923 -2.7336 -1.0472 -1.7862
  281MOL0     H37934   3.629   4.238   9.552 -3.0221  2.7464  3.0306
  281MOL0     H37935   3.740   4.297   9.334 -0.4754 -2.3967 -3.2562
  282MOL0     O37936   5.778   4.695   3.200 -0.5054  1.2420 -0.2190
  282MOL0     C37937   5.752   4.810   3.192 -0.4922  0.5965 -0.2157
  282MOL0     O37938   5.787   4.903   3.275 -0.1297  0.0178 -0.4363
  282MOL0     C37939   5.896   4.887   3.353  0.0624 -0.2157 -0.6307
  282MOL0     C37940   6.005   4.971   3.337 -1.0733  0.4481  0.5688
  282MOL0     C37941   6.125   4.962   3.418  0.3225  0.0307 -0.0958
  282MOL0     C37942   6.122   4.867   3.525 -0.0531 -1.2316 -1.0900
  282MOL0     O37943   6.225   4.854   3.612  0.4811 -0.2897 -0.1934
  282MOL0     C37944   6.352   4.835   3.564  0.4359  0.1753  0.1587
  282MOL0     C37945   6.437   4.919   3.656 -0.7699 -0.2224 -0.6871
  282MOL0     C37946   6.465   5.059   3.588  0.1612  0.6167 -0.7517
  282MOL0     C37947   6.516   5.158   3.694  0.4130 -0.3410  0.2098
  282MOL0     C37948   6.544   5.294   3.626  0.1207  0.2044 -0.0823
  282MOL0     C37949   6.626   5.384   3.719 -0.8681 -0.9613 -0.4423
  282MOL0     C37950   6.692   5.508   3.634 -0.0843  0.1091 -0.5175
  282MOL0     C37951   6.791   5.576   3.729 -0.3383 -0.3451  0.4229
  282MOL0     N37952   6.858   5.690   3.669  0.4245 -0.8470 -0.5729
  282MOL0     C37953   6.980   5.693   3.618 -0.4125 -0.3993  0.9131
  282MOL0     C37954   6.979   5.812   3.554 -0.4494  0.0340  1.1072
  282MOL0     C37955   7.093   5.859   3.468  1.0439  0.0398  0.3772
  282MOL0     C37956   7.210   5.923   3.544  0.0624 -0.6275  0.1895
  282MOL0     C37957   7.316   5.962   3.433  0.3244 -0.5000  0.0992
  282MOL0     C37958   7.440   5.994   3.514  1.1079  0.5424  0.8063
  282MOL0     O37959   7.546   5.998   3.413  0.3283 -0.1644  0.4102
  282MOL0     C37960   7.656   5.918   3.439  1.1607  0.7843 -0.1533
  282MOL0     C37961   7.658   5.793   3.507 -0.9019  0.1910 -0.0258
  282MOL0     C37962   7.783   5.727   3.535  0.9224 -0.9893 -0.2932
  282MOL0     C37963   7.771   5.597   3.596 -0.0828 -0.1600  0.0917
  282MOL0     C37964   7.911   5.778   3.486  0.4010 -0.2749  0.3199
  282MOL0     C37965   8.045   5.715   3.490  0.6521  0.2444 -0.4182
  282MOL0     O37966   8.064   5.601   3.569  0.5347 -0.1526 -0.5018
  282MOL0     C37967   8.173   5.522   3.568 -0.4897  0.7392  0.2528
  282MOL0     C37968   8.164   5.397   3.520  0.7076  0.1401  0.3965
  282MOL0     C37969   8.277   5.312   3.514  0.1296  0.4457 -0.1372
  282MOL0     C37970   8.400   5.360   3.559 -0.4528  1.2698 -0.0278
  282MOL0     O37971   8.522   5.290   3.569  0.1095  0.5713  0.8506
  282MOL0     C37972   8.531   5.160   3.503  0.2962  0.0792 -0.1649
  282MOL0     C37973   8.675   5.116   3.502 -0.5658  0.4779  0.6203
  282MOL0     C37974   8.733   5.094   3.642 -0.5495 -0.5482 -1.0928
  282MOL0     C37975   8.796   5.226   3.702  0.4305 -0.1152 -0.1097
  282MOL0     C37976   8.859   5.208   3.838 -0.3395  0.1000 -0.4350
  282MOL0     C37977   8.981   5.125   3.856  0.4555  1.0827  0.8130
  282MOL0     C37978   9.052   5.119   3.995 -0.9473  0.0334 -0.1013
  282MOL0     C37979   9.085   5.261   4.036 -0.8158 -0.0561 -0.2897
  282MOL0    Cl37980   9.202   5.338   3.926  0.2025  0.0951 -0.0574
  282MOL0     C37981   8.407   5.492   3.602  0.1950 -0.1489 -0.1482
  282MOL0     C37982   8.293   5.565   3.614  0.1523  0.3472  0.2483
  282MOL0     O37983   8.125   5.761   3.420 -0.1340  0.2595  0.1131
  282MOL0     C37984   7.894   5.898   3.410 -0.4945 -0.3002  0.1327
  282MOL0     C37985   7.775   5.964   3.397  0.5066  0.3254 -0.4630
  282MOL0     N37986   6.858   5.879   3.565  0.0753 -0.6043  0.2997
  282MOL0     N37987   6.788   5.807   3.646 -0.1443  0.3303  0.3466
  282MOL0     C37988   6.023   4.775   3.529  1.1265 -0.0155 -0.0668
  282MOL0     C37989   5.909   4.782   3.449  0.2672 -0.1473  0.3581
  282MOL0     C37990   5.674   4.838   3.074  0.2899  0.3309  0.0889
  282MOL0     C37991   5.637   4.735   2.988 -0.0845  0.0022 -0.2208
  282MOL0     C37992   5.573   4.758   2.870  0.6434  0.3383  0.1703
  282MOL0     C37993   5.542   4.893   2.826 -0.2293  0.2459  0.5200
  282MOL0     O37994   5.474   4.922   2.708 -0.2740 -0.4162 -0.1513
  282MOL0     C37995   5.519   5.028   2.626 -0.3001 -0.4044 -0.1591
  282MOL0     C37996   5.407   5.111   2.576 -0.7050  0.3342 -0.5762
  282MOL0     C37997   5.424   5.157   2.430  0.5617 -0.0240  0.6742
  282MOL0     C37998   5.303   5.237   2.376  0.7004  0.0807 -0.2984
  282MOL0     C37999   5.317   5.283   2.233 -0.8896  0.4061 -0.1460
  282MOL0     C38000   5.347   5.322   2.119  0.9082  0.1087  0.4751
  282MOL0     C38001   5.569   4.996   2.925 -0.4101 -0.0653 -0.1762
  282MOL0     C38002   5.643   4.972   3.041  1.0831  0.0151  0.1459
  282MOL0     H38003   5.992   5.042   3.256  1.3593  1.1079  0.7057
  282MOL0     H38004   6.210   5.027   3.399  1.1424  0.5349  4.1908
  282MOL0     H38005   6.372   4.729   3.581  2.5290 -0.0339 -2.8789
  282MOL0     H38006   6.367   4.868   3.460 -2.3230  2.0269  0.2333
  282MOL0     H38007   6.407   4.932   3.761 -0.0825  0.2186 -0.5412
  282MOL0     H38008   6.540   4.882   3.669 -0.8201  0.1796  1.2843
  282MOL0     H38009   6.534   5.065   3.503 -0.9580  1.6258 -1.6308
  282MOL0     H38010   6.370   5.098   3.550  0.4686  1.9725 -0.1969
  282MOL0     H38011   6.441   5.178   3.771  2.4518 -0.2079  2.2971
  282MOL0     H38012   6.607   5.132   3.750  1.6128 -0.3484 -1.6649
  282MOL0     H38013   6.598   5.272   3.534  0.4685  2.4981 -0.4997
  282MOL0     H38014   6.451   5.338   3.588 -1.9996 -2.5602  1.4786
  282MOL0     H38015   6.577   5.428   3.806  1.5251 -1.7323  1.4265
  282MOL0     H38016   6.707   5.325   3.764 -1.2981  0.6585  2.7154
  282MOL0     H38017   6.743   5.468   3.546 -0.0327  0.9497 -0.8809
  282MOL0     H38018   6.613   5.575   3.600  1.1106 -0.0259 -4.0889
  282MOL0     H38019   6.876   5.508   3.742 -0.9535 -1.1596  0.3396
  282MOL0     H38020   6.738   5.613   3.818 -1.2269 -0.3096 -0.1120
  282MOL0     H38021   7.057   5.618   3.635  1.7576  1.6094  0.3945
  282MOL0     H38022   7.129   5.767   3.420  1.5322  1.6322 -2.5752
  282MOL0     H38023   7.046   5.924   3.393  2.4878  0.2663 -0.3705
  282MOL0     H38024   7.248   5.850   3.617  2.1930  0.6360  0.4165
  282MOL0     H38025   7.177   6.006   3.606 -4.1789 -1.0444 -1.2037
  282MOL0     H38026   7.295   6.052   3.374  2.9286 -0.6241 -1.1565
  282MOL0     H38027   7.337   5.878   3.366  0.2162 -1.1339  0.8487
  282MOL0     H38028   7.456   5.930   3.601 -0.3877 -1.7406 -0.5171
  282MOL0     H38029   7.426   6.096   3.551  0.5622  1.2613 -1.2507
  282MOL0     H38030   7.559   5.754   3.529 -0.4413 -0.4113  1.0783
  282MOL0     H38031   7.828   5.596   3.689 -0.9431 -1.4552  0.6468
  282MOL0     H38032   7.668   5.564   3.615  1.0414 -2.6675  2.5837
  282MOL0     H38033   7.819   5.520   3.535 -2.4240 -1.0632 -0.7306
  282MOL0     H38034   8.067   5.358   3.491  1.3625 -1.3548  0.1075
  282MOL0     H38035   8.267   5.206   3.493 -3.7366  0.0197  2.7655
  282MOL0     H38036   8.474   5.092   3.568 -2.2126  1.2841 -0.9759
  282MOL0     H38037   8.486   5.159   3.404  2.1228 -0.5689 -1.0166
  282MOL0     H38038   8.678   5.017   3.455  0.2199  0.1315  1.3795
  282MOL0     H38039   8.738   5.181   3.440  1.9120 -4.0861 -2.2107
  282MOL0     H38040   8.812   5.018   3.641  0.1956  0.2048 -0.8208
  282MOL0     H38041   8.658   5.052   3.709 -0.7881  1.6162  0.1056
  282MOL0     H38042   8.872   5.258   3.630 -1.4877 -0.5197 -2.4518
  282MOL0     H38043   8.716   5.301   3.704  1.8390  1.5308 -1.4826
  282MOL0     H38044   8.777   5.176   3.902  1.4543 -1.5975  1.1623
  282MOL0     H38045   8.887   5.308   3.873 -2.5277  0.9158 -0.8533
  282MOL0     H38046   8.958   5.020   3.838 -0.3234  1.5964 -1.5285
  282MOL0     H38047   9.057   5.140   3.779 -0.8126  0.0587 -0.7088
  282MOL0     H38048   9.150   5.069   3.999  0.4266  2.6521  2.7772
  282MOL0     H38049   8.984   5.079   4.071  0.2351  1.5491  1.8293
  282MOL0     H38050   9.125   5.265   4.138 -0.1589  3.2150 -0.5672
  282MOL0     H38051   8.992   5.319   4.045 -1.1426 -0.6863  0.5046
  282MOL0     H38052   8.492   5.529   3.659  0.3698 -3.4286  1.9615
  282MOL0     H38053   8.295   5.668   3.649 -3.4411  0.9288 -0.8390
  282MOL0     H38054   7.974   5.949   3.358  1.4071 -1.3083  1.9143
  282MOL0     H38055   7.764   6.062   3.351 -1.6887  0.2674 -0.2012
  282MOL0     H38056   6.020   4.698   3.605  1.3121  0.3511  0.3118
  282MOL0     H38057   5.830   4.709   3.465  2.1871 -2.2311  0.9607
  282MOL0     H38058   5.667   4.632   3.005 -1.1843 -0.1382  1.0176
  282MOL0     H38059   5.553   4.673   2.806 -5.6483  2.0265 -0.7789
  282MOL0     H38060   5.584   5.100   2.676 -2.1554  1.3621 -0.1802
  282MOL0     H38061   5.568   4.976   2.543  2.2952 -0.2492  1.1645
  282MOL0     H38062   5.411   5.194   2.648 -1.9708  0.4344 -0.6029
  282MOL0     H38063   5.309   5.064   2.573 -0.8652  0.6027  0.3286
  282MOL0     H38064   5.445   5.073   2.363 -0.5016 -0.3662  0.7534
  282MOL0     H38065   5.513   5.221   2.425 -0.0241  0.7825  0.3293
  282MOL0     H38066   5.286   5.325   2.439  1.6796  0.8965 -1.1287
  282MOL0     H38067   5.219   5.167   2.383  0.6370  0.1921  0.0849
  282MOL0     H38068   5.377   5.346   2.019  2.3864  1.9331  1.3080
  282MOL0     H38069   5.539   5.098   2.903 -1.0285 -0.1559  0.2143
  282MOL0     H38070   5.657   5.044   3.122 -0.4038 -1.5367  1.8806
  283MOL0     O38071   3.087   3.204   5.825 -0.1900  0.7711 -0.4145
  283MOL0     C38072   3.145   3.127   5.746  1.0074 -0.2545 -1.3541
  283MOL0     O38073   3.109   3.096   5.615 -0.8171 -0.2773  0.2277
  283MOL0     C38074   3.000   3.134   5.544  0.8283 -0.1433  0.5594
  283MOL0     C38075   2.972   3.082   5.415 -0.0313  0.5558  0.1001
  283MOL0     C38076   2.852   3.095   5.341 -0.5357  0.3461  0.2611
  283MOL0     C38077   2.760   3.180   5.402  1.0343  1.0998 -0.6382
  283MOL0     O38078   2.638   3.177   5.346 -0.8171  0.6749  0.5206
  283MOL0     C38079   2.535   3.265   5.381 -0.3017  0.4395  0.3722
  283MOL0     C38080   2.420   3.231   5.283 -1.2946  0.1578  0.9260
  283MOL0     C38081   2.293   3.294   5.328  0.9156  0.2165 -0.6273
  283MOL0     C38082   2.288   3.446   5.335  0.4908 -0.6099  0.1492
  283MOL0     C38083   2.153   3.495   5.376  1.1497 -0.2574  0.2614
  283MOL0     C38084   2.063   3.498   5.252 -0.0835 -0.5765  1.2359
  283MOL0     C38085   1.927   3.572   5.274 -1.0416 -0.1451 -0.2432
  283MOL0     C38086   1.844   3.571   5.141  0.2869  0.1198  0.9156
  283MOL0     N38087   1.816   3.430   5.095  0.6620 -0.0072 -0.2979
  283MOL0     C38088   1.719   3.357   5.140 -0.5832 -0.3615  0.3695
  283MOL0     C38089   1.726   3.236   5.080  0.0084 -0.3004  0.0349
  283MOL0     C38090   1.618   3.137   5.057 -0.1293 -0.6182  0.9710
  283MOL0     C38091   1.538   3.101   5.184 -0.7097 -0.7438 -0.4191
  283MOL0     C38092   1.412   3.023   5.155  1.3916 -0.6014 -0.7227
  283MOL0     C38093   1.311   3.081   5.044  0.5770  0.0655 -0.1125
  283MOL0     O38094   1.313   3.233   5.021 -0.3575  0.4043  0.2653
  283MOL0     C38095   1.271   3.314   5.135 -1.5298  0.2744  1.4515
  283MOL0     C38096   1.158   3.275   5.216  0.1474 -0.4104 -0.2165
  283MOL0     C38097   1.115   3.366   5.320  0.7949  0.9293  0.7650
  283MOL0     C38098   0.985   3.344   5.383 -0.2160  1.1674 -1.0671
  283MOL0     C38099   1.188   3.483   5.356  0.6496 -0.0230 -0.3106
  283MOL0     C38100   1.169   3.568   5.465  0.2999 -0.1843 -0.5602
  283MOL0     O38101   1.275   3.621   5.515  0.5328  0.5228  0.3532
  283MOL0     C38102   1.253   3.742   5.573  0.3845  1.2705  0.3966
  283MOL0     C38103   1.306   3.762   5.699  1.4887  0.2399 -0.0373
  283MOL0     C38104   1.275   3.886   5.759  0.2584  0.2084 -0.1860
  283MOL0     C38105   1.203   3.987   5.692 -0.0512  0.7652  0.2855
  283MOL0     O38106   1.215   4.111   5.737  0.1163 -0.0745 -0.8703
  283MOL0     C38107   1.090   4.187   5.758 -0.1552 -0.1884  0.0625
  283MOL0     C38108   1.113   4.327   5.798  0.1369  1.0744 -0.0254
  283MOL0     C38109   1.172   4.313   5.938  0.0367  0.5922 -0.2103
  283MOL0     C38110   1.174   4.452   5.998 -0.0089 -0.5175 -0.1263
  283MOL0     C38111   1.254   4.477   6.128  0.5218  0.8278  0.2849
  283MOL0     C38112   1.247   4.616   6.183  0.5144  0.2724 -1.1958
  283MOL0     C38113   1.169   4.630   6.312  0.3947 -0.0116  0.3152
  283MOL0     C38114   1.029   4.697   6.280 -0.0997  0.9506  0.3106
  283MOL0    Cl38115   1.036   4.868   6.219  0.1154  0.4560 -0.7653
  283MOL0     C38116   1.179   3.971   5.559  0.5186 -0.4196 -0.3007
  283MOL0     C38117   1.189   3.846   5.506  0.1463  0.6915  0.6075
  283MOL0     O38118   1.056   3.580   5.509  0.6542  0.2181  0.5793
  283MOL0     C38119   1.298   3.512   5.271 -0.6832  0.4691  0.3343
  283MOL0     C38120   1.344   3.432   5.163  0.7932 -0.6533 -0.1951
  283MOL0     N38121   1.831   3.244   4.995 -0.5988  0.3454 -0.3217
  283MOL0     N38122   1.889   3.361   5.006 -0.8692 -0.0503 -0.2729
  283MOL0     C38123   2.780   3.247   5.527  0.0764 -0.6495 -0.3032
  283MOL0     C38124   2.895   3.214   5.606 -0.1026 -0.0993 -1.0171
  283MOL0     C38125   3.257   3.062   5.796 -0.3472 -0.1208 -0.4920
  283MOL0     C38126   3.334   2.975   5.720 -0.1562 -0.5981 -0.8714
  283MOL0     C38127   3.460   2.923   5.761 -0.0534 -0.5337 -1.0721
  283MOL0     C38128   3.506   2.951   5.897 -0.0550  0.4951 -0.1603
  283MOL0     O38129   3.629   2.918   5.944 -0.1062  0.0310  0.3598
  283MOL0     C38130   3.742   2.899   5.854  0.5980 -0.3373 -0.4221
  283MOL0     C38131   3.869   2.947   5.916 -0.6399  0.7365 -0.0044
  283MOL0     C38132   3.888   3.098   5.936 -0.9831 -0.1145 -0.2178
  283MOL0     C38133   4.022   3.131   6.011 -1.5156 -0.8119 -0.0549
  283MOL0     C38134   4.139   3.089   5.924 -0.0275  0.6926  0.9573
  283MOL0     C38135   4.236   3.053   5.861 -0.3946 -0.6210 -0.6408
  283MOL0     C38136   3.432   3.029   5.980  1.1838 -0.0866 -0.5185
  283MOL0     C38137   3.322   3.094   5.924 -0.5254  0.5710 -0.4876
  283MOL0     H38138   3.058   3.024   5.386  3.4181  3.9525  2.5567
  283MOL0     H38139   2.844   3.030   5.254  1.4165 -0.3544  0.5470
  283MOL0     H38140   2.506   3.246   5.485 -2.6488 -0.3020 -0.3739
  283MOL0     H38141   2.571   3.368   5.370  1.9715 -0.4345 -1.3599
  283MOL0     H38142   2.437   3.256   5.177  0.9964 -4.6109 -0.1024
  283MOL0     H38143   2.413   3.122   5.277  1.3494 -0.0021 -1.9391
  283MOL0     H38144   2.212   3.256   5.264  1.3020 -1.5578 -0.1304
  283MOL0     H38145   2.267   3.257   5.428 -3.4362 -0.7472 -1.8676
  283MOL0     H38146   2.362   3.491   5.402 -1.7720  2.0701  1.0701
  283MOL0     H38147   2.302   3.482   5.232 -0.5435 -2.5991 -0.7408
  283MOL0     H38148   2.122   3.436   5.463  0.7763  0.3062  0.5183
  283MOL0     H38149   2.173   3.595   5.417  2.8253 -0.2391 -0.5043
  283MOL0     H38150   2.116   3.555   5.175  0.8305 -2.2599  0.5533
  283MOL0     H38151   2.047   3.399   5.209 -0.7083 -0.3558  0.9495
  283MOL0     H38152   1.878   3.505   5.344 -2.3403  1.3991  0.3911
  283MOL0     H38153   1.923   3.676   5.310 -0.3424  0.0216 -0.6263
  283MOL0     H38154   1.894   3.611   5.053 -0.4953 -1.0459 -0.1057
  283MOL0     H38155   1.744   3.614   5.153 -0.4709 -1.4070  0.4371
  283MOL0     H38156   1.641   3.390   5.209  0.5598 -0.3680  1.7196
  283MOL0     H38157   1.549   3.175   4.980  0.2950  2.7752  2.1039
  283MOL0     H38158   1.662   3.045   5.018  2.5053  1.2508 -0.8025
  283MOL0     H38159   1.507   3.193   5.235  0.4610 -0.1064 -0.8262
  283MOL0     H38160   1.605   3.045   5.249  2.1558  0.6473 -1.9973
  283MOL0     H38161   1.348   3.023   5.244 -0.6300 -1.5096 -2.1059
  283MOL0     H38162   1.429   2.919   5.127 -0.4713 -0.9337 -0.7863
  283MOL0     H38163   1.214   3.044   5.076  1.7085 -0.4131  3.1146
  283MOL0     H38164   1.340   3.035   4.949  0.8392 -2.6444  1.1908
  283MOL0     H38165   1.096   3.195   5.176  0.1799 -0.4829 -0.1208
  283MOL0     H38166   0.951   3.242   5.367 -0.9059  1.0211  0.9709
  283MOL0     H38167   0.984   3.351   5.493 -1.6219 -0.4028 -0.9411
  283MOL0     H38168   0.908   3.416   5.354 -0.5244  1.0135 -0.6322
  283MOL0     H38169   1.364   3.683   5.745 -1.3461 -1.9984 -0.0014
  283MOL0     H38170   1.323   3.917   5.851  0.1029 -1.6506  0.5636
  283MOL0     H38171   1.033   4.190   5.665 -0.1419  0.9917  0.0819
  283MOL0     H38172   1.048   4.124   5.837  1.1727  2.4992  3.1749
  283MOL0     H38173   1.165   4.390   5.726 -2.5676 -0.5209 -3.7507
  283MOL0     H38174   1.012   4.367   5.812 -1.6624 -2.6853 -0.8524
  283MOL0     H38175   1.277   4.289   5.916 -1.4148 -5.2408 -2.5484
  283MOL0     H38176   1.125   4.243   6.008  0.0773  3.7028  3.2186
  283MOL0     H38177   1.212   4.517   5.918  0.7237 -1.3404 -0.4561
  283MOL0     H38178   1.071   4.485   6.014  0.9219  2.3135  0.6637
  283MOL0     H38179   1.358   4.455   6.104  0.3647 -3.2361  2.5653
  283MOL0     H38180   1.237   4.396   6.200  0.6254 -0.8321 -1.4962
  283MOL0     H38181   1.347   4.653   6.206  0.5385 -1.0240  1.0426
  283MOL0     H38182   1.205   4.676   6.102 -1.5416  0.6745  0.0865
  283MOL0     H38183   1.223   4.688   6.388 -0.5879 -0.4501  1.3774
  283MOL0     H38184   1.151   4.534   6.362 -0.8742 -1.0006 -1.9127
  283MOL0     H38185   0.962   4.695   6.367 -0.9155 -1.0254 -0.3129
  283MOL0     H38186   0.979   4.632   6.208 -0.9176  1.5587  0.3165
  283MOL0     H38187   1.155   4.060   5.503  2.1168  1.5495  1.9445
  283MOL0     H38188   1.166   3.845   5.400 -3.3677 -2.1298  1.1984
  283MOL0     H38189   1.354   3.602   5.293  2.5149 -0.0369 -4.3313
  283MOL0     H38190   1.433   3.467   5.112  1.3912 -0.2250  1.1215
  283MOL0     H38191   2.699   3.306   5.570  0.7810 -2.3798  3.8756
  283MOL0     H38192   2.894   3.264   5.702 -0.1221  1.2650 -1.7046
  283MOL0     H38193   3.294   2.942   5.624 -2.2325  2.4220 -1.1722
  283MOL0     H38194   3.521   2.856   5.702  0.5914  0.5868 -1.6958
  283MOL0     H38195   3.752   2.793   5.828  1.1642 -0.2049 -0.7613
  283MOL0     H38196   3.722   2.954   5.762  1.1180 -1.4830 -1.2381
  283MOL0     H38197   3.944   2.907   5.847 -0.5447  0.2879  0.3498
  283MOL0     H38198   3.898   2.890   6.006 -1.4195  1.2792  0.5991
  283MOL0     H38199   3.798   3.141   5.981  1.0380  2.6326  1.5639
  283MOL0     H38200   3.906   3.151   5.842 -2.0047  1.6601  0.5442
  283MOL0     H38201   4.020   3.089   6.112 -2.7307  1.1621  0.8114
  283MOL0     H38202   4.027   3.239   6.026  3.9758 -0.9029  0.7764
  283MOL0     H38203   4.318   3.035   5.794  0.0846  0.4493 -0.3556
  283MOL0     H38204   3.469   3.051   6.080 -1.3172  0.9790  0.2647
  283MOL0     H38205   3.263   3.162   5.984  0.3441  1.4030 -0.5685
  284MOL0     O38206   3.686   6.967   1.405 -0.1046 -0.6931 -0.4564
  284MOL0     C38207   3.793   7.000   1.354 -1.1289 -0.3661 -0.2927
  284MOL0     O38208   3.807   7.044   1.220 -0.3818  0.0358  0.1299
  284MOL0     C38209   3.742   6.986   1.114 -0.4040 -0.2107  0.1422
  284MOL0     C38210   3.624   6.915   1.124 -0.2823  0.0027  0.6506
  284MOL0     C38211   3.565   6.870   1.008  0.1463  0.4122 -0.3166
  284MOL0     C38212   3.625   6.888   0.879 -0.2477 -1.1855  0.3039
  284MOL0     O38213   3.567   6.830   0.769  0.2988 -0.1999  0.1501
  284MOL0     C38214   3.635   6.813   0.648 -0.2397  0.0866  0.0325
  284MOL0     C38215   3.568   6.704   0.573 -0.4750  0.4454 -0.6627
  284MOL0     C38216   3.653   6.572   0.568  1.1357  0.7541 -0.7996
  284MOL0     C38217   3.577   6.450   0.532 -0.1605  0.0147  0.0173
  284MOL0     C38218   3.540   6.446   0.385 -1.7009 -0.3471 -0.4742
  284MOL0     C38219   3.593   6.320   0.313 -0.0789  0.7953  0.0678
  284MOL0     C38220   3.546   6.334   0.170 -0.1393 -0.0065  0.1888
  284MOL0     C38221   3.579   6.209   0.094  0.0666 -0.4677 -0.1270
  284MOL0     N38222   3.521   6.207  -0.043  0.2352 -0.0107 -0.5776
  284MOL0     C38223   3.393   6.165  -0.054 -1.3055 -0.2306 -0.0166
  284MOL0     C38224   3.362   6.219  -0.174  0.0447  0.0843 -0.2224
  284MOL0     C38225   3.242   6.224  -0.260 -0.6403  0.9836 -0.4166
  284MOL0     C38226   3.152   6.326  -0.215 -0.1001  0.0763  0.0245
  284MOL0     C38227   3.210   6.464  -0.193  0.1509 -0.2602  0.3180
  284MOL0     C38228   3.095   6.572  -0.176  0.4772 -0.0572 -0.9354
  284MOL0     O38229   3.018   6.522  -0.067 -0.0024  0.1449 -0.4318
  284MOL0     C38230   2.885   6.508  -0.076  0.1895 -0.1359 -0.2332
  284MOL0     C38231   2.807   6.618  -0.101  0.9091  0.3339 -0.2801
  284MOL0     C38232   2.662   6.616  -0.114  0.2168 -0.9325 -0.1358
  284MOL0     C38233   2.590   6.738  -0.162 -0.0721 -0.2061  0.2711
  284MOL0     C38234   2.588   6.497  -0.088  0.2660 -0.0359  1.1665
  284MOL0     C38235   2.444   6.477  -0.105 -0.0704  0.4813  0.2176
  284MOL0     O38236   2.360   6.590  -0.083 -0.4909 -0.0544 -0.4654
  284MOL0     C38237   2.228   6.544  -0.066  0.7099 -0.4652 -0.0150
  284MOL0     C38238   2.156   6.532  -0.192 -0.0323  0.3845  0.3907
  284MOL0     C38239   2.017   6.495  -0.184 -0.8974  0.0653  0.1219
  284MOL0     C38240   1.948   6.486  -0.065 -0.0880 -0.0366  0.0411
  284MOL0     O38241   1.825   6.432  -0.078 -0.3980  0.6013  0.1010
  284MOL0     C38242   1.798   6.317   0.009 -0.3954 -0.4736  0.6284
  284MOL0     C38243   1.654   6.324   0.059  0.7275 -0.2965  0.6999
  284MOL0     C38244   1.606   6.181   0.097 -0.4048 -0.5482 -0.3253
  284MOL0     C38245   1.669   6.142   0.228  0.2052  0.1817 -0.5955
  284MOL0     C38246   1.645   5.990   0.251  0.4541  0.1623 -0.4839
  284MOL0     C38247   1.693   5.934   0.385  0.7134  0.0914 -0.0878
  284MOL0     C38248   1.674   5.780   0.362 -0.4261 -0.1829  0.3982
  284MOL0     C38249   1.648   5.694   0.484  0.3003  0.0872  0.4970
  284MOL0    Cl38250   1.590   5.529   0.434  0.5199  0.2727 -0.2993
  284MOL0     C38251   2.010   6.505   0.057 -0.2140 -0.3182 -0.9544
  284MOL0     C38252   2.150   6.534   0.056 -0.5867  0.2451 -0.3805
  284MOL0     O38253   2.405   6.362  -0.146  1.0405 -0.0297  0.0353
  284MOL0     C38254   2.670   6.383  -0.065  0.6580 -0.4506  1.0176
  284MOL0     C38255   2.813   6.391  -0.060  0.3684  0.0456  0.3534
  284MOL0     N38256   3.465   6.283  -0.228  0.3638  0.7544 -0.1118
  284MOL0     N38257   3.561   6.276  -0.148 -0.0717  0.1383  0.1307
  284MOL0     C38258   3.738   6.972   0.873 -0.8520  0.3096 -0.1777
  284MOL0     C38259   3.798   7.010   0.991 -0.1199  0.3688 -0.9076
  284MOL0     C38260   3.907   7.027   1.445  0.9658  0.6157  0.8904
  284MOL0     C38261   4.038   7.072   1.395  0.4820 -0.1482 -1.3850
  284MOL0     C38262   4.152   7.073   1.479  0.2778 -0.1215  0.2857
  284MOL0     C38263   4.140   7.043   1.614 -0.5017  0.0369 -0.5088
  284MOL0     O38264   4.251   7.023   1.695 -0.6899  0.6524 -0.0239
  284MOL0     C38265   4.248   7.117   1.806  0.0714 -1.0091 -0.4295
  284MOL0     C38266   4.228   7.070   1.957  0.0213 -0.2816 -0.3052
  284MOL0     C38267   4.340   6.982   2.009 -0.4878  0.5199 -0.0206
  284MOL0     C38268   4.319   6.917   2.148  0.0150  0.2142 -0.0746
  284MOL0     C38269   4.223   6.803   2.144 -0.0339 -0.4329 -0.8594
  284MOL0     C38270   4.153   6.707   2.140  0.1155  1.0146  0.0048
  284MOL0     C38271   4.012   6.999   1.668  0.0103  0.3480 -0.4084
  284MOL0     C38272   3.910   6.985   1.574  0.7573 -0.1556 -0.2929
  284MOL0     H38273   3.570   6.899   1.217 -0.3902 -1.1794  0.4095
  284MOL0     H38274   3.478   6.805   1.015 -0.2824  1.1412  2.3636
  284MOL0     H38275   3.616   6.908   0.597 -4.8878 -0.5816  0.0733
  284MOL0     H38276   3.743   6.797   0.645  0.0626  1.0802 -5.3761
  284MOL0     H38277   3.462   6.702   0.596 -0.5367  1.3261 -0.8630
  284MOL0     H38278   3.572   6.740   0.470  2.7704 -1.0346 -1.2055
  284MOL0     H38279   3.730   6.585   0.491 -0.1868 -2.8540 -2.9664
  284MOL0     H38280   3.698   6.545   0.664 -0.5757 -0.7328 -0.3645
  284MOL0     H38281   3.629   6.360   0.568 -1.7128 -1.4485 -1.2243
  284MOL0     H38282   3.487   6.452   0.594  1.1810  0.8552  2.0548
  284MOL0     H38283   3.433   6.458   0.371 -1.9644 -2.0891 -0.1509
  284MOL0     H38284   3.584   6.530   0.331  2.0463 -2.7316 -1.5607
  284MOL0     H38285   3.702   6.303   0.312  0.1277  1.8649 -2.2701
  284MOL0     H38286   3.541   6.230   0.346  1.7660 -0.0899  0.7360
  284MOL0     H38287   3.437   6.343   0.169 -0.4529 -2.8164 -1.8856
  284MOL0     H38288   3.586   6.425   0.123 -0.5589 -0.0311 -0.2199
  284MOL0     H38289   3.557   6.133   0.169  0.7260  1.3318  2.0337
  284MOL0     H38290   3.687   6.206   0.073  0.6983  4.6234  1.0639
  284MOL0     H38291   3.331   6.099   0.005 -0.8652  0.1380  0.8635
  284MOL0     H38292   3.276   6.247  -0.361  1.1266  0.5335  0.0322
  284MOL0     H38293   3.193   6.127  -0.261  1.2709 -0.0251 -1.2478
  284MOL0     H38294   3.102   6.295  -0.123  1.7192 -1.6595  0.5044
  284MOL0     H38295   3.080   6.345  -0.295  1.2800  1.5071 -0.9488
  284MOL0     H38296   3.274   6.483  -0.280 -0.9170 -2.7191 -1.1140
  284MOL0     H38297   3.267   6.453  -0.100 -0.1148 -1.4409  0.3598
  284MOL0     H38298   3.031   6.568  -0.264 -1.3051  1.4838  0.2267
  284MOL0     H38299   3.116   6.676  -0.153  0.1889  0.3722 -2.5321
  284MOL0     H38300   2.852   6.716  -0.114 -3.3149  2.3189 -1.9063
  284MOL0     H38301   2.661   6.813  -0.199 -1.7218  1.2424 -0.0602
  284MOL0     H38302   2.521   6.717  -0.243  1.7847 -4.5492 -0.4850
  284MOL0     H38303   2.529   6.786  -0.085  1.3675  3.6016 -0.7080
  284MOL0     H38304   2.207   6.552  -0.286  2.8661  1.0347  1.9727
  284MOL0     H38305   1.964   6.492  -0.279  0.7884  2.0544 -0.9801
  284MOL0     H38306   1.823   6.232  -0.055  2.9886  0.4048  0.5813
  284MOL0     H38307   1.854   6.294   0.101 -2.5092 -0.8233  1.8907
  284MOL0     H38308   1.639   6.388   0.147  0.0672  1.5011 -0.6469
  284MOL0     H38309   1.581   6.356  -0.016  0.0885 -3.5756 -0.2195
  284MOL0     H38310   1.627   6.112   0.015 -0.3104  1.2208 -1.8671
  284MOL0     H38311   1.498   6.183   0.114 -0.2852 -1.1338  0.6099
  284MOL0     H38312   1.776   6.157   0.213  0.4285 -1.8722 -1.4300
  284MOL0     H38313   1.639   6.190   0.322 -0.0746  1.8867 -1.5222
  284MOL0     H38314   1.700   5.935   0.173 -1.3642 -0.0401 -1.6702
  284MOL0     H38315   1.538   5.980   0.232 -0.2507  1.7852  2.1541
  284MOL0     H38316   1.796   5.957   0.411  0.3090 -1.3549  3.2311
  284MOL0     H38317   1.619   5.972   0.456  1.2043  0.6593  0.1251
  284MOL0     H38318   1.774   5.747   0.330 -0.7362  1.2046 -2.2948
  284MOL0     H38319   1.589   5.761   0.295 -1.5135  2.8272  0.7900
  284MOL0     H38320   1.566   5.740   0.541 -0.0061  0.1144  0.0430
  284MOL0     H38321   1.727   5.677   0.557 -0.1327 -0.9072  0.7497
  284MOL0     H38322   1.970   6.499   0.157  0.8987  1.4475 -0.3675
  284MOL0     H38323   2.221   6.539   0.139  2.0479  2.2266 -2.5567
  284MOL0     H38324   2.616   6.289  -0.065 -0.2329 -0.1306 -2.9938
  284MOL0     H38325   2.868   6.300  -0.039 -1.9557 -1.0527  2.2740
  284MOL0     H38326   3.784   6.993   0.777 -3.1144  2.8834 -0.8233
  284MOL0     H38327   3.900   7.047   0.986  0.7532 -1.2826  2.4349
  284MOL0     H38328   4.035   7.116   1.296 -2.5100 -0.2048 -1.4002
  284MOL0     H38329   4.251   7.101   1.444  1.0870  1.5995  3.6157
  284MOL0     H38330   4.340   7.176   1.796 -1.6279  1.7356 -0.8168
  284MOL0     H38331   4.170   7.191   1.789  3.0551  2.4371 -0.2004
  284MOL0     H38332   4.135   7.013   1.964  1.1643 -2.1776  0.1314
  284MOL0     H38333   4.223   7.160   2.019 -4.4054 -0.1794 -0.5274
  284MOL0     H38334   4.424   7.049   2.029  0.1806 -1.2148  3.9394
  284MOL0     H38335   4.363   6.909   1.930 -1.8762  0.7527 -0.6514
  284MOL0     H38336   4.276   6.988   2.218  1.2506  0.4516  0.4671
  284MOL0     H38337   4.421   6.889   2.177 -0.4806 -2.9190 -0.9198
  284MOL0     H38338   4.087   6.624   2.122  1.9707 -0.7222  0.7579
  284MOL0     H38339   4.005   6.977   1.774 -5.4662  1.4261 -0.2761
  284MOL0     H38340   3.828   6.924   1.612  1.9039  0.0711  2.8192
  285MOL0     O38341  11.017   3.841   8.895  0.3637 -0.5758  0.1847
  285MOL0     C38342  10.917   3.863   8.971  0.2679 -0.0828 -0.1650
  285MOL0     O38343  10.794   3.910   8.926 -0.8335  0.2592  0.4066
  285MOL0     C38344  10.777   3.972   8.808  0.1923  0.4706 -0.8327
  285MOL0     C38345  10.863   4.006   8.708 -0.4613  0.5499 -0.2428
  285MOL0     C38346  10.813   4.077   8.597 -0.4352  0.3031  0.0465
  285MOL0     C38347  10.678   4.103   8.589 -0.6897 -0.6056  0.2345
  285MOL0     O38348  10.651   4.174   8.472 -0.0170 -0.5798  0.0085
  285MOL0     C38349  10.517   4.224   8.449  0.2784  0.2319 -0.0648
  285MOL0     C38350  10.449   4.155   8.327  0.7555  0.1860  0.1755
  285MOL0     C38351  10.315   4.230   8.285 -0.9741  0.0306  0.3569
  285MOL0     C38352  10.264   4.184   8.153  0.6688 -0.5684 -0.9512
  285MOL0     C38353  10.199   4.304   8.082  0.4532  0.0027  0.0058
  285MOL0     C38354  10.097   4.259   7.968 -0.3718  0.0917  0.4807
  285MOL0     C38355  10.046   4.370   7.873  0.5525 -0.2070  0.1905
  285MOL0     C38356   9.991   4.492   7.941  0.2078 -0.2637  0.2789
  285MOL0     N38357   9.948   4.600   7.846  0.1830  0.4013 -0.7122
  285MOL0     C38358   9.819   4.631   7.824  0.5410  0.2724 -0.5050
  285MOL0     C38359   9.832   4.734   7.738 -0.1192 -0.0662 -0.7327
  285MOL0     C38360   9.713   4.806   7.668  0.2275 -0.8752 -0.3288
  285MOL0     C38361   9.728   4.818   7.518 -0.2272  0.7654  0.6861
  285MOL0     C38362   9.770   4.964   7.485 -0.4402  0.2338  0.2685
  285MOL0     C38363   9.742   4.997   7.336  0.5618 -0.1112 -0.7403
  285MOL0     O38364   9.769   5.133   7.323  0.0063  0.1466  0.3852
  285MOL0     C38365   9.799   5.178   7.201 -0.1196 -0.5102  0.9323
  285MOL0     C38366   9.851   5.310   7.195  0.0429  0.4998  0.6191
  285MOL0     C38367   9.880   5.371   7.074 -0.0381 -0.4696 -0.6494
  285MOL0     C38368   9.955   5.503   7.083  0.2652  0.4905 -0.6343
  285MOL0     C38369   9.824   5.313   6.958  0.2247 -1.1031  0.0992
  285MOL0     C38370   9.831   5.388   6.827 -0.4386  0.5126 -0.4293
  285MOL0     O38371   9.936   5.465   6.813 -0.2335  0.9862  0.2547
  285MOL0     C38372   9.976   5.511   6.691  0.3517 -0.8335 -0.1566
  285MOL0     C38373  10.033   5.636   6.685  0.3846  0.7251 -0.6506
  285MOL0     C38374  10.062   5.700   6.567  0.4813  0.1978  0.2549
  285MOL0     C38375  10.047   5.631   6.452 -0.0383 -0.1277  0.1927
  285MOL0     O38376  10.057   5.694   6.329  0.3352  0.7243  0.1526
  285MOL0     C38377   9.993   5.814   6.295  0.3896 -0.0470 -0.2327
  285MOL0     C38378   9.850   5.776   6.246 -0.0115  0.5018  0.3053
  285MOL0     C38379   9.845   5.664   6.134  0.3752 -0.1560  0.6334
  285MOL0     C38380   9.710   5.639   6.079  0.5617 -0.5366  0.5106
  285MOL0     C38381   9.714   5.491   6.009 -0.9543  0.9381 -0.7349
  285MOL0     C38382   9.733   5.364   6.092  0.1605  0.6081 -0.7711
  285MOL0     C38383   9.677   5.392   6.237  0.2292  0.3090 -0.5789
  285MOL0     C38384   9.694   5.255   6.309 -0.1560 -0.0887  0.9960
  285MOL0    Cl38385   9.585   5.140   6.237 -0.3972 -0.6680  0.1038
  285MOL0     C38386   9.994   5.499   6.446  0.5617 -0.7059  0.0391
  285MOL0     C38387   9.963   5.447   6.568 -0.1656 -0.3920 -0.1381
  285MOL0     O38388   9.740   5.381   6.748  0.6697  0.0277 -0.4297
  285MOL0     C38389   9.769   5.185   6.949 -0.2141 -0.5529  0.0774
  285MOL0     C38390   9.747   5.125   7.076  0.3609 -0.3004  0.9611
  285MOL0     N38391   9.962   4.763   7.709 -0.0903 -0.2574  0.7863
  285MOL0     N38392  10.030   4.681   7.779  0.5802  0.1110  0.6217
  285MOL0     C38393  10.594   4.058   8.690 -0.0447 -1.0038  0.1597
  285MOL0     C38394  10.638   3.998   8.797 -1.2896  0.6642 -0.4665
  285MOL0     C38395  10.914   3.806   9.106 -0.2680  0.5200  0.0343
  285MOL0     C38396  10.819   3.848   9.197 -0.9042  0.4958 -0.4764
  285MOL0     C38397  10.811   3.788   9.331  0.7597  0.9448 -0.0081
  285MOL0     C38398  10.888   3.683   9.367 -0.6725 -0.0793  0.2718
  285MOL0     O38399  10.876   3.613   9.485 -0.0666  0.7232 -0.7408
  285MOL0     C38400  10.983   3.626   9.575 -1.0807  1.2649  0.4614
  285MOL0     C38401  11.060   3.483   9.579 -0.2846 -1.0946 -0.1779
  285MOL0     C38402  10.967   3.374   9.609 -0.3006 -0.1453  0.4540
  285MOL0     C38403  11.021   3.236   9.627 -0.5273 -0.1421 -0.0877
  285MOL0     C38404  10.908   3.140   9.637  0.0300 -0.1184 -0.2734
  285MOL0     C38405  10.812   3.063   9.651 -0.5734  0.3990  0.5734
  285MOL0     C38406  10.982   3.642   9.272  0.0022  1.4581  0.6439
  285MOL0     C38407  10.988   3.696   9.144 -0.9353 -0.4117  0.0481
  285MOL0     H38408  10.969   3.986   8.714 -0.6275 -0.5049 -0.7607
  285MOL0     H38409  10.886   4.093   8.518 -0.7838 -0.5848 -0.4705
  285MOL0     H38410  10.453   4.212   8.536  2.4247  0.4391  1.6252
  285MOL0     H38411  10.535   4.332   8.441  0.0442  0.2582 -0.2218
  285MOL0     H38412  10.513   4.156   8.238 -0.4181  1.2516 -0.7021
  285MOL0     H38413  10.440   4.047   8.338  2.1562 -0.2915 -2.5536
  285MOL0     H38414  10.240   4.225   8.365 -0.3719  0.4483  0.9647
  285MOL0     H38415  10.333   4.335   8.263  0.9297 -0.7136 -2.1496
  285MOL0     H38416  10.348   4.146   8.094  0.9291  0.1223 -1.0280
  285MOL0     H38417  10.195   4.099   8.149 -1.7483  1.2828 -4.5007
  285MOL0     H38418  10.138   4.368   8.146  0.3240 -1.1346  1.0672
  285MOL0     H38419  10.281   4.365   8.043  1.2284  1.2044  3.1936
  285MOL0     H38420  10.147   4.184   7.906  0.8440  1.2421  0.0152
  285MOL0     H38421  10.018   4.210   8.026 -0.4563 -0.5416 -0.1542
  285MOL0     H38422  10.126   4.404   7.807  0.8365 -1.7488 -0.3130
  285MOL0     H38423   9.965   4.331   7.810 -0.8966  1.2551  1.0953
  285MOL0     H38424  10.071   4.543   7.996 -0.5949  1.6687 -0.2689
  285MOL0     H38425   9.906   4.466   8.006 -0.3506 -3.9281 -1.6823
  285MOL0     H38426   9.734   4.578   7.866  2.6511 -1.2623  2.1627
  285MOL0     H38427   9.622   4.749   7.689  0.8061 -1.1767  1.5115
  285MOL0     H38428   9.690   4.902   7.715  2.8321  1.6550 -3.6929
  285MOL0     H38429   9.633   4.799   7.468 -0.4900  3.8274 -0.1401
  285MOL0     H38430   9.800   4.740   7.490 -2.0745 -1.5898  2.0901
  285MOL0     H38431   9.877   4.974   7.503  0.4054 -1.3528 -3.0553
  285MOL0     H38432   9.730   5.044   7.548  1.6520  0.9523  0.7700
  285MOL0     H38433   9.639   4.991   7.300 -0.1622  2.0886  0.8137
  285MOL0     H38434   9.814   4.938   7.278  2.2807 -0.2974  1.4675
  285MOL0     H38435   9.895   5.355   7.283  1.3810 -1.8366  1.2617
  285MOL0     H38436   9.911   5.582   7.022 -3.0566 -0.1563  0.6701
  285MOL0     H38437   9.956   5.540   7.186  1.2282 -0.9412 -0.1016
  285MOL0     H38438  10.055   5.486   7.044  0.8311  0.5796  0.7234
  285MOL0     H38439  10.060   5.691   6.774  1.1402  0.4655 -0.7166
  285MOL0     H38440  10.081   5.807   6.562  1.7809 -0.0572 -1.1980
  285MOL0     H38441   9.981   5.882   6.379 -1.0885 -3.9182  3.0352
  285MOL0     H38442  10.034   5.866   6.208  0.0256 -0.7101 -0.8213
  285MOL0     H38443   9.789   5.755   6.335 -1.6811  3.5109  0.0179
  285MOL0     H38444   9.813   5.874   6.215  2.5687  2.1991  2.2065
  285MOL0     H38445   9.884   5.576   6.187  1.6387  0.6978  1.1690
  285MOL0     H38446   9.909   5.681   6.047  0.0259 -2.7540 -0.2181
  285MOL0     H38447   9.631   5.630   6.155 -1.2500  1.9695 -0.9246
  285MOL0     H38448   9.678   5.707   6.000 -1.4932 -0.1934  1.5756
  285MOL0     H38449   9.799   5.497   5.941  0.4380 -0.6983  0.7371
  285MOL0     H38450   9.627   5.483   5.944 -1.1716  0.9309 -0.4480
  285MOL0     H38451   9.683   5.280   6.044 -0.1473  1.7494 -2.5392
  285MOL0     H38452   9.833   5.319   6.088 -0.6229 -1.4884  1.3850
  285MOL0     H38453   9.576   5.432   6.228  1.8705  5.1230 -0.2863
  285MOL0     H38454   9.746   5.461   6.286  0.5167  0.6140 -1.3846
  285MOL0     H38455   9.672   5.262   6.416 -1.9887 -3.9727  1.0270
  285MOL0     H38456   9.797   5.224   6.292 -0.7077 -1.1502 -0.6756
  285MOL0     H38457   9.973   5.457   6.348 -0.8054 -1.4312  0.6118
  285MOL0     H38458   9.930   5.345   6.582  0.3027 -0.6581 -0.8916
  285MOL0     H38459   9.726   5.154   6.854  3.6036  1.1385 -2.4391
  285MOL0     H38460   9.694   5.030   7.076  1.7737 -1.2580 -2.5841
  285MOL0     H38461  10.486   4.073   8.689 -0.0109 -0.6722  0.6937
  285MOL0     H38462  10.565   3.954   8.865 -0.0388 -0.7486  0.0339
  285MOL0     H38463  10.734   3.913   9.177 -1.2979 -0.2560 -1.3242
  285MOL0     H38464  10.727   3.817   9.393  1.1373  2.3047 -0.0836
  285MOL0     H38465  11.056   3.702   9.548  3.1735 -1.7889  2.2396
  285MOL0     H38466  10.953   3.673   9.669 -0.5920  1.4662  0.5179
  285MOL0     H38467  11.144   3.488   9.649  1.2842 -0.8524 -1.9849
  285MOL0     H38468  11.093   3.451   9.479 -0.1246 -1.6676  0.0580
  285MOL0     H38469  10.894   3.367   9.527 -0.1540  0.2018  0.2935
  285MOL0     H38470  10.903   3.413   9.689 -3.1680  0.2015 -1.8291
  285MOL0     H38471  11.078   3.218   9.719  1.1612 -1.8262 -1.3852
  285MOL0     H38472  11.084   3.206   9.542 -1.8440 -3.3970 -0.0775
  285MOL0     H38473  10.741   2.982   9.656 -1.9669  1.3863 -1.4847
  285MOL0     H38474  11.057   3.564   9.280  0.6691  1.8711 -1.1142
  285MOL0     H38475  11.056   3.653   9.071 -1.5831  0.3255 -1.0198
  286MOL0     O38476   3.308   1.181   2.516 -0.2922  0.3296 -0.2437
  286MOL0     C38477   3.218   1.192   2.605 -1.1552  0.3134  1.6149
  286MOL0     O38478   3.164   1.313   2.638 -0.3005  0.0656  1.0108
  286MOL0     C38479   3.214   1.423   2.577  0.1739  0.6118 -0.5424
  286MOL0     C38480   3.265   1.524   2.656  1.2690 -1.3557 -1.1186
  286MOL0     C38481   3.295   1.653   2.609 -0.6956  0.5249 -1.0865
  286MOL0     C38482   3.287   1.678   2.476 -0.2191  0.1527  0.2225
  286MOL0     O38483   3.324   1.805   2.443 -0.0107  0.4284  0.2973
  286MOL0     C38484   3.318   1.832   2.305 -0.1540 -0.5038 -0.7054
  286MOL0     C38485   3.358   1.977   2.287 -0.2079 -0.2364  0.0418
  286MOL0     C38486   3.302   2.035   2.161  0.5941 -0.7387  0.2773
  286MOL0     C38487   3.151   2.081   2.166  0.3933 -1.2573  0.1974
  286MOL0     C38488   3.079   2.123   2.035 -1.3428 -0.3302 -0.3773
  286MOL0     C38489   3.150   2.231   1.949  0.7340  0.8489 -0.2996
  286MOL0     C38490   3.078   2.236   1.807 -0.3042 -0.0491 -0.5317
  286MOL0     C38491   3.099   2.113   1.718 -0.1159  0.1346  0.0246
  286MOL0     N38492   3.056   2.133   1.581 -0.2335 -0.7721  0.2176
  286MOL0     C38493   2.927   2.174   1.541  0.4245 -0.3959 -0.1303
  286MOL0     C38494   2.933   2.170   1.407 -0.2456  1.0903 -0.0346
  286MOL0     C38495   2.816   2.190   1.310  0.3322  0.2964  1.1236
  286MOL0     C38496   2.749   2.055   1.261 -0.2856  0.1304 -0.0347
  286MOL0     C38497   2.615   2.088   1.204 -1.0741 -0.1781  0.2928
  286MOL0     C38498   2.520   2.104   1.325  0.0757  0.0183 -0.0361
  286MOL0     O38499   2.409   2.178   1.271  0.1666 -0.8093  0.7855
  286MOL0     C38500   2.318   2.105   1.200 -0.6000 -0.7713  0.0650
  286MOL0     C38501   2.247   1.997   1.252  0.0812 -0.0822  0.6659
  286MOL0     C38502   2.154   1.929   1.171 -1.4909 -0.1557 -0.0601
  286MOL0     C38503   2.071   1.824   1.245  0.6046  0.5300 -0.5709
  286MOL0     C38504   2.136   1.969   1.038 -0.2177 -0.3429  0.0812
  286MOL0     C38505   2.048   1.902   0.943 -0.4755 -0.3488  0.4387
  286MOL0     O38506   2.015   1.774   0.978  0.7104  0.1226  1.2396
  286MOL0     C38507   1.915   1.693   0.909 -0.0092 -0.9059 -0.3065
  286MOL0     C38508   1.898   1.566   0.955  1.0395 -0.1125  0.1141
  286MOL0     C38509   1.804   1.477   0.901 -1.0086  0.0476 -0.1871
  286MOL0     C38510   1.715   1.525   0.800 -0.3824 -0.4284  0.1910
  286MOL0     O38511   1.610   1.456   0.750 -0.1305  1.0662  0.5254
  286MOL0     C38512   1.554   1.338   0.824  0.3442  0.3536  0.5555
  286MOL0     C38513   1.433   1.260   0.763  0.3395 -0.4335  0.0554
  286MOL0     C38514   1.300   1.333   0.782  0.5766  1.1806  0.6860
  286MOL0     C38515   1.175   1.270   0.709  0.8914 -0.2531  0.3903
  286MOL0     C38516   1.042   1.356   0.713  0.5907  0.7117 -0.3060
  286MOL0     C38517   1.040   1.482   0.626  0.4481  0.1589  0.5107
  286MOL0     C38518   0.896   1.545   0.647 -1.4373  0.4030  0.3428
  286MOL0     C38519   0.795   1.483   0.558  0.4425 -0.3599 -0.3334
  286MOL0    Cl38520   0.650   1.454   0.673 -0.2036 -0.1296  0.5404
  286MOL0     C38521   1.732   1.655   0.755  0.1071 -0.4281 -0.6649
  286MOL0     C38522   1.827   1.731   0.813  0.4388 -0.8904  0.2862
  286MOL0     O38523   2.008   1.961   0.843 -0.2644  0.9213 -0.6693
  286MOL0     C38524   2.212   2.075   0.987  0.4016  0.4506 -0.6037
  286MOL0     C38525   2.304   2.135   1.062  0.6071 -0.8643  0.2803
  286MOL0     N38526   3.060   2.128   1.371 -0.5266  0.4101  1.2296
  286MOL0     N38527   3.133   2.111   1.468 -0.0939 -0.1963 -0.0250
  286MOL0     C38528   3.247   1.577   2.387 -0.2234  1.3390 -0.6395
  286MOL0     C38529   3.201   1.448   2.438 -0.4261  0.0431 -0.6657
  286MOL0     C38530   3.157   1.062   2.650  0.3592 -0.5361  0.5833
  286MOL0     C38531   3.032   1.067   2.710  0.7127 -0.1648 -0.7181
  286MOL0     C38532   2.975   0.949   2.769  0.7590  0.2081  0.4542
  286MOL0     C38533   3.029   0.826   2.735  0.2173 -0.2945 -0.9846
  286MOL0     O38534   2.982   0.707   2.786  0.1209 -0.5410 -1.0735
  286MOL0     C38535   2.892   0.716   2.897  0.4874  1.4122 -0.6508
  286MOL0     C38536   2.858   0.577   2.936  0.8858 -0.5664 -0.1898
  286MOL0     C38537   2.762   0.502   2.842  0.0314  0.8830  0.6681
  286MOL0     C38538   2.816   0.482   2.700 -0.6251 -0.1625  0.5039
  286MOL0     C38539   2.727   0.395   2.631  0.3768 -0.4717  0.3074
  286MOL0     C38540   2.645   0.313   2.586  0.1025 -0.6473  0.5890
  286MOL0     C38541   3.143   0.825   2.651  0.0213 -0.4789 -1.2483
  286MOL0     C38542   3.206   0.941   2.617 -0.1401  0.2860  0.2205
  286MOL0     H38543   3.269   1.517   2.764  0.7156 -0.3175 -1.0135
  286MOL0     H38544   3.330   1.733   2.673  0.7070  0.1849 -1.4038
  286MOL0     H38545   3.388   1.777   2.242 -0.6182  0.1638 -1.8263
  286MOL0     H38546   3.215   1.819   2.270 -0.7512 -3.0029  1.6959
  286MOL0     H38547   3.316   2.041   2.365 -1.5794  2.3305 -2.6059
  286MOL0     H38548   3.467   1.967   2.291 -0.3112 -1.8513 -0.3952
  286MOL0     H38549   3.372   2.115   2.138  1.0862 -0.3246  2.8732
  286MOL0     H38550   3.319   1.965   2.079  0.8322  1.2730 -1.4564
  286MOL0     H38551   3.100   1.998   2.217  1.9006 -1.0257  2.1837
  286MOL0     H38552   3.140   2.169   2.230  0.9238 -0.9850 -0.0880
  286MOL0     H38553   3.067   2.033   1.974  0.7329  0.3354 -1.9052
  286MOL0     H38554   2.986   2.170   2.067 -1.1835  0.0549 -0.4676
  286MOL0     H38555   3.143   2.329   1.996 -0.8346 -0.0258  1.3988
  286MOL0     H38556   3.254   2.198   1.938  0.2216 -0.4383 -1.6718
  286MOL0     H38557   2.973   2.264   1.820 -0.2292  0.2650 -0.5856
  286MOL0     H38558   3.118   2.317   1.746  0.5893 -1.7222 -2.2770
  286MOL0     H38559   3.040   2.027   1.751 -0.1780  0.1798  0.0317
  286MOL0     H38560   3.204   2.082   1.712 -0.3027 -0.3142 -1.0907
  286MOL0     H38561   2.840   2.193   1.603 -0.5976 -3.0477 -0.6081
  286MOL0     H38562   2.743   2.254   1.361  0.8472  1.6511  0.1856
  286MOL0     H38563   2.850   2.244   1.222 -4.7887  1.7008 -0.3034
  286MOL0     H38564   2.739   2.005   1.358  0.4982  0.9343  0.4776
  286MOL0     H38565   2.817   1.997   1.199  4.8181  1.0580  3.9614
  286MOL0     H38566   2.596   2.003   1.137  2.1230 -0.5577 -0.3380
  286MOL0     H38567   2.618   2.177   1.141  3.3493  0.7399  1.4029
  286MOL0     H38568   2.568   2.164   1.403  4.2074  3.4301 -4.5668
  286MOL0     H38569   2.500   2.006   1.368  3.1725 -1.6051 -1.9839
  286MOL0     H38570   2.254   1.987   1.359 -1.7890 -0.6664  0.7675
  286MOL0     H38571   2.108   1.727   1.212  2.2253  0.6387  0.7720
  286MOL0     H38572   2.098   1.805   1.349  0.8430  3.0302 -0.1058
  286MOL0     H38573   1.962   1.837   1.240  0.8321  2.3729 -1.6206
  286MOL0     H38574   1.978   1.527   1.018  1.6003  0.2093 -0.3877
  286MOL0     H38575   1.793   1.373   0.932  1.2565  0.1797  1.2713
  286MOL0     H38576   1.633   1.265   0.841 -1.1205 -1.3879  0.2528
  286MOL0     H38577   1.522   1.370   0.924  1.5621 -0.7813  1.3471
  286MOL0     H38578   1.459   1.245   0.658  3.9221 -2.2073  1.0561
  286MOL0     H38579   1.440   1.167   0.821 -1.0288 -1.7333 -1.7450
  286MOL0     H38580   1.323   1.429   0.736  1.6913  0.2497 -0.7805
  286MOL0     H38581   1.291   1.361   0.887  0.7273 -0.2233  1.1054
  286MOL0     H38582   1.195   1.260   0.602 -1.2422  0.4685 -0.1252
  286MOL0     H38583   1.149   1.172   0.748 -0.8689  0.4257  0.9845
  286MOL0     H38584   1.024   1.388   0.816  1.2300 -1.7061  0.6292
  286MOL0     H38585   0.967   1.286   0.675 -1.4726  3.2185 -1.1541
  286MOL0     H38586   1.118   1.556   0.652  1.5337  0.1077 -2.2866
  286MOL0     H38587   1.056   1.457   0.521  0.7545 -3.7799  1.3327
  286MOL0     H38588   0.903   1.653   0.627  0.9394  0.8916  3.1362
  286MOL0     H38589   0.865   1.542   0.752 -3.7295 -1.1346 -0.2937
  286MOL0     H38590   0.817   1.383   0.519  1.2640 -0.0945 -0.5809
  286MOL0     H38591   0.781   1.551   0.474 -3.2863  1.7947  1.7902
  286MOL0     H38592   1.675   1.704   0.676  3.1954 -0.6544 -3.2426
  286MOL0     H38593   1.824   1.833   0.776  2.1982 -1.6165 -2.0744
  286MOL0     H38594   2.204   2.099   0.881  3.6322  2.6710 -0.5005
  286MOL0     H38595   2.370   2.208   1.016 -1.2077  1.6129  1.4034
  286MOL0     H38596   3.251   1.597   2.280 -0.0966 -4.8314 -2.1574
  286MOL0     H38597   3.166   1.366   2.376 -5.7547  1.3797  0.0833
  286MOL0     H38598   2.978   1.157   2.735 -1.1570 -1.2296 -0.7970
  286MOL0     H38599   2.878   0.961   2.816  0.6932 -4.3968  1.9585
  286MOL0     H38600   2.930   0.765   2.987 -2.0796  0.3917  1.1210
  286MOL0     H38601   2.799   0.771   2.880  0.7959  1.7574 -1.2476
  286MOL0     H38602   2.828   0.573   3.041  0.2530 -1.7678 -0.4061
  286MOL0     H38603   2.947   0.512   2.939  0.5248 -1.0474  1.8165
  286MOL0     H38604   2.658   0.537   2.843 -0.3090 -0.0632  2.1889
  286MOL0     H38605   2.763   0.405   2.893 -0.1315  0.4309 -0.1768
  286MOL0     H38606   2.915   0.437   2.698 -0.5408 -0.0831 -2.8832
  286MOL0     H38607   2.821   0.579   2.650 -0.0727 -0.9364 -1.0270
  286MOL0     H38608   2.582   0.236   2.548 -1.0618  0.1218  0.9152
  286MOL0     H38609   3.184   0.732   2.613  3.3028  0.1620  0.3454
  286MOL0     H38610   3.293   0.927   2.554 -2.8010 -1.8313 -3.3472
  287MOL0     O38611  10.065   1.455   9.760 -0.2852  0.5193  0.4658
  287MOL0     C38612  10.140   1.484   9.664 -0.2550  0.3425  0.1367
  287MOL0     O38613  10.112   1.590   9.572 -0.3890 -0.4651 -0.3796
  287MOL0     C38614   9.986   1.633   9.538  0.0038 -1.4528  0.5578
  287MOL0     C38615   9.972   1.692   9.409  0.2610  0.2196  0.3792
  287MOL0     C38616   9.847   1.738   9.368  0.9505 -0.4709  0.1903
  287MOL0     C38617   9.736   1.738   9.446  0.3593  0.3653 -1.0128
  287MOL0     O38618   9.617   1.787   9.392 -0.0428  0.7173 -0.7035
  287MOL0     C38619   9.522   1.816   9.492  0.3274 -1.0905  0.6079
  287MOL0     C38620   9.418   1.911   9.415 -0.3890  0.0577  0.1682
  287MOL0     C38621   9.350   1.840   9.298  0.9586  0.0516 -0.2014
  287MOL0     C38622   9.219   1.911   9.262 -0.4212 -0.5458 -0.0690
  287MOL0     C38623   9.159   1.839   9.141  0.8021  0.2683  0.0712
  287MOL0     C38624   9.061   1.928   9.069  0.6148 -0.5236  0.3349
  287MOL0     C38625   8.998   1.855   8.955 -1.2151 -0.3025 -0.3108
  287MOL0     C38626   8.897   1.940   8.869 -0.3780 -0.8432 -0.1677
  287MOL0     N38627   8.772   1.952   8.935  0.7221  0.0855 -0.8245
  287MOL0     C38628   8.674   1.861   8.972 -0.6702 -0.0014  0.8384
  287MOL0     C38629   8.597   1.925   9.070  0.7157  0.9625  0.0431
  287MOL0     C38630   8.469   1.874   9.138 -0.3921  0.0558  1.0830
  287MOL0     C38631   8.359   1.862   9.033 -0.2861  0.5448  1.0749
  287MOL0     C38632   8.321   1.995   8.959 -0.7927 -0.7965 -0.1261
  287MOL0     C38633   8.265   1.968   8.824  0.7886  0.2472  0.7444
  287MOL0     O38634   8.350   1.893   8.741 -0.4362 -1.2770  0.5003
  287MOL0     C38635   8.453   1.940   8.669  1.4069  0.1356 -0.5561
  287MOL0     C38636   8.513   2.065   8.681 -0.2963  0.0940 -0.0592
  287MOL0     C38637   8.634   2.101   8.615 -0.5211  0.6245  0.7217
  287MOL0     C38638   8.705   2.225   8.669 -0.3651  0.5608  0.2008
  287MOL0     C38639   8.688   2.004   8.529  0.1334 -1.2627 -0.1127
  287MOL0     C38640   8.818   2.024   8.461  0.2012  0.1192  1.2034
  287MOL0     O38641   8.853   2.149   8.433 -0.9723  0.5349 -0.5025
  287MOL0     C38642   8.982   2.159   8.398  0.1356  0.0962 -0.3049
  287MOL0     C38643   9.009   2.202   8.270  0.0334  0.1008  0.2795
  287MOL0     C38644   9.136   2.234   8.225 -0.8351  0.4690  0.7528
  287MOL0     C38645   9.240   2.204   8.318 -0.1908  0.5858 -0.4802
  287MOL0     O38646   9.371   2.215   8.286  0.3210  0.4318 -0.4427
  287MOL0     C38647   9.416   2.193   8.152 -0.9624 -0.0924 -0.1753
  287MOL0     C38648   9.569   2.194   8.127 -0.0263  0.5680 -0.3794
  287MOL0     C38649   9.645   2.100   8.220  0.8860  0.6915 -0.0782
  287MOL0     C38650   9.791   2.085   8.189  0.5814 -0.3245 -0.2951
  287MOL0     C38651   9.846   1.969   8.274 -0.7744 -0.0309  0.5550
  287MOL0     C38652   9.808   1.823   8.218 -0.1161 -0.3846 -0.8788
  287MOL0     C38653   9.802   1.713   8.331 -0.6583 -0.0148 -0.0718
  287MOL0     C38654   9.691   1.742   8.430 -0.8935  0.3694  0.3598
  287MOL0    Cl38655   9.712   1.631   8.570  0.3220  0.2067 -0.1327
  287MOL0     C38656   9.218   2.165   8.452  0.4417 -0.8091 -0.1014
  287MOL0     C38657   9.086   2.143   8.488 -0.3963  0.1216 -0.7017
  287MOL0     O38658   8.893   1.919   8.451  0.4473 -0.4966 -0.4097
  287MOL0     C38659   8.628   1.881   8.508 -0.0867  0.1093 -0.1489
  287MOL0     C38660   8.511   1.849   8.579  0.0121  0.2114 -0.2043
  287MOL0     N38661   8.654   2.040   9.102 -0.0541  0.3354  0.6057
  287MOL0     N38662   8.757   2.061   9.026 -0.0500  0.3826  0.7790
  287MOL0     C38663   9.752   1.670   9.570 -0.5232  1.0276  1.0754
  287MOL0     C38664   9.875   1.627   9.624  0.0333  0.3128 -0.9023
  287MOL0     C38665  10.263   1.389   9.643 -0.2645 -0.4866 -0.1062
  287MOL0     C38666  10.338   1.338   9.755 -0.1305 -0.5001  0.5994
  287MOL0     C38667  10.447   1.255   9.735 -0.7074 -0.8479  0.2278
  287MOL0     C38668  10.492   1.227   9.610  0.0315 -0.3111  0.1852
  287MOL0     O38669  10.595   1.152   9.605  0.1203  1.6322 -0.2601
  287MOL0     C38670  10.727   1.211   9.606  0.4449  0.1915 -0.4613
  287MOL0     C38671  10.798   1.172   9.475 -0.0286 -0.4498 -0.5908
  287MOL0     C38672  10.933   1.250   9.473  0.2364 -0.3060  0.2286
  287MOL0     C38673  11.019   1.215   9.357 -1.3557  0.1434  0.1052
  287MOL0     C38674  11.147   1.282   9.389 -0.0520  0.1886 -0.2501
  287MOL0     C38675  11.257   1.334   9.415  0.4328 -0.3761  0.0563
  287MOL0     C38676  10.439   1.290   9.497  0.4464  0.3446  0.7231
  287MOL0     C38677  10.327   1.380   9.515 -0.0056  0.0853  0.1783
  287MOL0     H38678  10.056   1.686   9.341 -1.4463 -1.0076 -1.7621
  287MOL0     H38679   9.847   1.781   9.268  2.4442  0.3403  0.5002
  287MOL0     H38680   9.471   1.724   9.525 -0.9616 -0.6036  0.0504
  287MOL0     H38681   9.579   1.866   9.570 -0.1803  0.0983  0.2308
  287MOL0     H38682   9.342   1.946   9.486 -1.1669  1.0989 -1.1234
  287MOL0     H38683   9.471   2.002   9.388 -1.3448  1.0980  1.6087
  287MOL0     H38684   9.412   1.836   9.209  0.3904  0.8790 -0.6378
  287MOL0     H38685   9.326   1.742   9.341  2.5011  0.5292  1.9182
  287MOL0     H38686   9.149   1.907   9.346 -2.2041 -1.6599 -1.5434
  287MOL0     H38687   9.232   2.018   9.241 -1.9020 -0.5431 -1.1391
  287MOL0     H38688   9.241   1.808   9.074  1.3925  2.3273 -0.2181
  287MOL0     H38689   9.110   1.748   9.177  5.2110 -2.8543 -0.9044
  287MOL0     H38690   8.990   1.962   9.145  1.1878  0.0649  0.6238
  287MOL0     H38691   9.120   2.009   9.025 -2.0469  1.6093  0.4581
  287MOL0     H38692   9.072   1.837   8.877 -1.2880  1.9178 -0.9719
  287MOL0     H38693   8.953   1.758   8.978  2.5115 -1.9591  0.7133
  287MOL0     H38694   8.884   1.904   8.767 -0.4795 -0.2783 -0.3609
  287MOL0     H38695   8.940   2.039   8.852 -0.6033 -0.9312 -1.3370
  287MOL0     H38696   8.653   1.767   8.923 -1.8520  0.2830  0.7567
  287MOL0     H38697   8.498   1.782   9.189 -0.9541  0.4517  2.1659
  287MOL0     H38698   8.431   1.947   9.211  1.7347  1.7504  0.6036
  287MOL0     H38699   8.273   1.801   9.062 -0.3781 -0.9231 -1.9213
  287MOL0     H38700   8.403   1.795   8.959  2.4679  0.8724  2.3029
  287MOL0     H38701   8.411   2.058   8.950  0.7346 -2.5160  2.1196
  287MOL0     H38702   8.255   2.049   9.028 -4.2571 -3.1773 -1.2941
  287MOL0     H38703   8.261   2.068   8.781 -0.4458 -0.4137 -0.8003
  287MOL0     H38704   8.167   1.922   8.840  0.6220  0.4629  0.3642
  287MOL0     H38705   8.470   2.139   8.748  0.0062 -0.6006  0.9152
  287MOL0     H38706   8.696   2.243   8.777 -0.4717  3.1894 -0.1864
  287MOL0     H38707   8.813   2.209   8.660 -0.4042 -2.5366  3.1635
  287MOL0     H38708   8.670   2.317   8.622 -1.3758  1.2674  2.2115
  287MOL0     H38709   8.920   2.223   8.211 -0.6165  0.9108  1.4865
  287MOL0     H38710   9.153   2.253   8.120  2.5703 -2.0237  0.6833
  287MOL0     H38711   9.375   2.099   8.115 -2.3458  0.9765 -1.4569
  287MOL0     H38712   9.371   2.276   8.097  0.2404  2.0085  1.8100
  287MOL0     H38713   9.601   2.172   8.025  1.0604 -0.0479  0.0764
  287MOL0     H38714   9.604   2.293   8.156  3.5921 -0.8056  0.5296
  287MOL0     H38715   9.592   2.004   8.227 -0.2909  1.3620  0.6744
  287MOL0     H38716   9.646   2.138   8.323  4.3896  1.0281 -0.1289
  287MOL0     H38717   9.808   2.068   8.082  3.7785  2.6972 -0.4614
  287MOL0     H38718   9.833   2.182   8.217 -1.6605  0.1291  1.8349
  287MOL0     H38719   9.833   1.988   8.381  0.5428 -1.7237  1.0641
  287MOL0     H38720   9.955   1.971   8.262 -0.8731 -1.9045 -1.3277
  287MOL0     H38721   9.708   1.827   8.174 -0.0295  0.0609 -1.0450
  287MOL0     H38722   9.872   1.807   8.131  0.7481  2.0441 -0.7730
  287MOL0     H38723   9.899   1.706   8.381  0.5360 -0.6306 -2.3336
  287MOL0     H38724   9.785   1.614   8.289  1.2490  0.3148 -1.8310
  287MOL0     H38725   9.593   1.724   8.386 -0.7528 -0.4392  0.3739
  287MOL0     H38726   9.687   1.847   8.462  2.0787  0.5930  0.2687
  287MOL0     H38727   9.302   2.156   8.520  0.0473 -0.1663  0.4811
  287MOL0     H38728   9.068   2.114   8.591 -0.7409 -3.6303 -1.6907
  287MOL0     H38729   8.669   1.805   8.443 -1.7931  0.9873 -2.3921
  287MOL0     H38730   8.471   1.748   8.573  0.2386  0.0657  0.6275
  287MOL0     H38731   9.682   1.665   9.653  2.5448  2.2450  3.9948
  287MOL0     H38732   9.875   1.600   9.729 -1.4773  2.9648 -0.1322
  287MOL0     H38733  10.311   1.364   9.858 -0.7222 -1.8229  0.8058
  287MOL0     H38734  10.498   1.197   9.812  1.3221 -0.5312 -0.8194
  287MOL0     H38735  10.727   1.320   9.599  0.9387  0.0854 -2.8577
  287MOL0     H38736  10.792   1.169   9.683 -0.5392 -0.1383  0.2067
  287MOL0     H38737  10.735   1.198   9.389 -4.5308 -2.2179  1.8338
  287MOL0     H38738  10.804   1.063   9.474 -0.2679 -0.4766 -2.2742
  287MOL0     H38739  10.979   1.219   9.567 -3.3033 -0.8297  1.9759
  287MOL0     H38740  10.921   1.358   9.469  0.1019 -0.2827  1.0243
  287MOL0     H38741  10.978   1.252   9.263  0.1867 -0.4580 -0.8437
  287MOL0     H38742  11.026   1.106   9.353 -2.6248 -0.0662  2.1494
  287MOL0     H38743  11.353   1.376   9.438  0.4471 -0.3133 -0.1121
  287MOL0     H38744  10.487   1.278   9.400  0.4034 -3.2971  1.0210
  287MOL0     H38745  10.282   1.418   9.424 -2.4653 -1.6774  0.5576
  288MOL0     O38746   0.599   3.144   9.937  0.0234  0.2642  0.4605
  288MOL0     C38747   0.533   3.246   9.911 -0.6611 -0.0358 -0.5102
  288MOL0     O38748   0.392   3.245   9.881  0.1423  0.3863  0.0799
  288MOL0     C38749   0.344   3.119   9.869 -0.9401 -0.6222  0.2719
  288MOL0     C38750   0.370   3.036   9.757 -0.2314  1.0514 -0.0151
  288MOL0     C38751   0.321   2.905   9.760 -0.6352 -0.2785  0.8353
  288MOL0     C38752   0.245   2.850   9.855  0.4592 -0.1523 -0.0324
  288MOL0     O38753   0.185   2.728   9.849 -0.3768  0.4929 -0.2275
  288MOL0     C38754   0.294   2.634   9.820  0.3184  0.1468 -0.3052
  288MOL0     C38755   0.239   2.495   9.832 -0.8422 -0.2258  0.2689
  288MOL0     C38756   0.114   2.475   9.751  0.1836  0.0369  1.1525
  288MOL0     C38757   0.031   2.355   9.803 -0.0316 -0.5136 -0.1159
  288MOL0     C38758   0.026   2.239   9.697 -1.3455  0.2955  0.2382
  288MOL0     C38759  -0.081   2.270   9.595  0.0620  0.1388  0.8053
  288MOL0     C38760  -0.143   2.152   9.525  0.1771 -0.3522  0.0513
  288MOL0     C38761  -0.050   2.053   9.450  0.6373  0.2813  0.6403
  288MOL0     N38762  -0.015   2.106   9.311 -0.9187  0.5384  0.3190
  288MOL0     C38763  -0.105   2.150   9.216  0.6572  1.1334  0.2738
  288MOL0     C38764  -0.040   2.227   9.131 -0.3778  0.8870 -0.6252
  288MOL0     C38765  -0.082   2.319   9.017  0.4802 -0.2874 -0.3762
  288MOL0     C38766  -0.218   2.387   9.045  0.2296  0.8931 -1.1286
  288MOL0     C38767  -0.230   2.493   9.151 -0.2410 -0.8104  0.0795
  288MOL0     C38768  -0.355   2.590   9.132  0.7115  1.1279 -0.0638
  288MOL0     O38769  -0.464   2.491   9.141  0.3240  0.4452 -0.8504
  288MOL0     C38770  -0.490   2.424   9.258  1.6426  0.5059  0.5463
  288MOL0     C38771  -0.491   2.479   9.386 -1.5763 -0.1174  0.1132
  288MOL0     C38772  -0.512   2.404   9.511 -0.5345 -0.3051 -0.1534
  288MOL0     C38773  -0.498   2.482   9.641  0.0741 -0.0580 -0.4847
  288MOL0     C38774  -0.518   2.261   9.501  0.1388 -0.0413 -0.1372
  288MOL0     C38775  -0.529   2.163   9.616  0.0393  0.1919  0.1392
  288MOL0     O38776  -0.559   2.210   9.742 -0.0645  0.8098  0.8693
  288MOL0     C38777  -0.559   2.131   9.853  0.5602 -0.2228 -0.7594
  288MOL0     C38778  -0.530   2.210   9.963 -0.0260 -0.8822 -0.0930
  288MOL0     C38779  -0.518   2.151  10.090  0.4161  0.8762  0.5038
  288MOL0     C38780  -0.532   2.008  10.095  0.4540 -0.5181 -0.1003
  288MOL0     O38781  -0.518   1.944  10.219 -0.2118 -0.1834  0.3011
  288MOL0     C38782  -0.447   1.988  10.337  0.3736 -0.5145  0.1762
  288MOL0     C38783  -0.381   1.880  10.412 -1.4941  0.8745  0.2047
  288MOL0     C38784  -0.298   1.916  10.533  0.6651  0.0306  0.4978
  288MOL0     C38785  -0.224   1.799  10.605 -0.6691  0.1272  0.9352
  288MOL0     C38786  -0.147   1.852  10.726 -0.7888  0.2091 -0.6858
  288MOL0     C38787  -0.003   1.888  10.694 -0.5579 -0.2961 -0.5482
  288MOL0     C38788   0.079   1.919  10.826 -0.1520 -0.9118 -0.2879
  288MOL0     C38789   0.056   2.052  10.868  0.5224 -0.3116 -0.8814
  288MOL0    Cl38790   0.154   2.087  11.015 -0.0827  0.0110  0.1653
  288MOL0     C38791  -0.551   1.925   9.978  0.1942 -0.0627 -0.3898
  288MOL0     C38792  -0.575   1.992   9.860 -0.3168 -0.1644  0.1717
  288MOL0     O38793  -0.487   2.051   9.586 -0.5792  1.1818 -0.0707
  288MOL0     C38794  -0.515   2.208   9.368 -0.3298  0.1819 -0.4454
  288MOL0     C38795  -0.518   2.288   9.254 -0.4863  0.0948  0.3500
  288MOL0     N38796   0.089   2.230   9.170  0.1649  0.1578 -0.7389
  288MOL0     N38797   0.104   2.161   9.282 -0.0856 -0.9334 -0.6141
  288MOL0     C38798   0.227   2.934   9.963  0.4083  0.3737 -0.0986
  288MOL0     C38799   0.269   3.070   9.973 -0.8771  0.2489  0.3486
  288MOL0     C38800   0.606   3.373   9.919  0.0757 -0.0259 -0.3930
  288MOL0     C38801   0.733   3.375   9.978  1.3725  0.2806  0.6570
  288MOL0     C38802   0.810   3.493   9.982  0.1179 -0.4523  0.2291
  288MOL0     C38803   0.759   3.609   9.923  0.2673 -0.6864 -0.7301
  288MOL0     O38804   0.839   3.724   9.920  0.0905 -0.7441 -0.3510
  288MOL0     C38805   0.790   3.858   9.893  0.1129 -0.0430  0.5461
  288MOL0     C38806   0.859   3.953   9.987 -0.1352 -0.7255  0.9495
  288MOL0     C38807   0.854   3.934  10.141  0.6300 -0.4118 -0.2067
  288MOL0     C38808   0.912   4.064  10.208  0.2908 -0.3668  0.5186
  288MOL0     C38809   1.061   4.092  10.181 -0.1699 -0.8841  0.7164
  288MOL0     C38810   1.177   4.110  10.162  0.1230 -0.2721 -1.1472
  288MOL0     C38811   0.633   3.607   9.862 -0.9318 -0.0529 -0.4437
  288MOL0     C38812   0.550   3.494   9.863 -0.3591 -0.5580  0.5436
  288MOL0     H38813   0.417   3.079   9.669 -0.0767  1.4580  0.2560
  288MOL0     H38814   0.347   2.843   9.675  3.1766 -2.9188  3.5952
  288MOL0     H38815   0.335   2.643   9.719 -0.7878  0.2796 -0.7513
  288MOL0     H38816   0.374   2.645   9.893 -0.1430 -1.4968  0.4921
  288MOL0     H38817   0.310   2.421   9.794 -0.8198  0.2701 -0.6956
  288MOL0     H38818   0.227   2.469   9.938 -1.5261  2.5618  0.9590
  288MOL0     H38819   0.051   2.564   9.752  1.6383  1.1578 -0.4660
  288MOL0     H38820   0.136   2.459   9.645 -3.0130 -2.3487  0.6917
  288MOL0     H38821   0.073   2.324   9.899  3.6784  0.0454 -1.4005
  288MOL0     H38822  -0.069   2.382   9.840  0.4588 -0.6353  1.3828
  288MOL0     H38823   0.121   2.216   9.648 -2.8908 -4.8448 -0.9632
  288MOL0     H38824  -0.012   2.153   9.754 -2.1373  0.8367  0.5460
  288MOL0     H38825  -0.163   2.326   9.640 -0.8913 -1.1747  0.7722
  288MOL0     H38826  -0.032   2.336   9.523  1.3545  0.8032  2.2213
  288MOL0     H38827  -0.184   2.088   9.603 -1.6933 -2.2164 -2.3236
  288MOL0     H38828  -0.234   2.174   9.469 -1.1224 -2.0785  1.3760
  288MOL0     H38829  -0.099   1.956   9.440  2.7433 -0.7295 -0.5240
  288MOL0     H38830   0.034   2.033   9.517  1.9965 -0.5278 -1.2243
  288MOL0     H38831  -0.208   2.117   9.231  1.2989 -2.1867 -1.6157
  288MOL0     H38832   0.000   2.390   9.003 -1.5799  2.0270 -1.3765
  288MOL0     H38833  -0.095   2.260   8.925  0.3232  0.5020 -0.8640
  288MOL0     H38834  -0.292   2.311   9.072  0.1725  2.1175  2.7486
  288MOL0     H38835  -0.258   2.417   8.947 -2.4124  2.1018  0.2211
  288MOL0     H38836  -0.135   2.547   9.160  1.0127 -3.2355  3.3092
  288MOL0     H38837  -0.229   2.444   9.248  0.3924 -1.9352 -0.4736
  288MOL0     H38838  -0.364   2.649   9.041 -1.4817 -0.8606 -1.2471
  288MOL0     H38839  -0.334   2.654   9.219 -0.9767  1.1707  0.3575
  288MOL0     H38840  -0.468   2.585   9.390  0.1414 -0.2403 -3.0346
  288MOL0     H38841  -0.466   2.583   9.613  3.9399 -1.4005 -1.5938
  288MOL0     H38842  -0.595   2.499   9.686 -0.2570  2.9687 -2.1179
  288MOL0     H38843  -0.415   2.437   9.697  0.2035  1.9419  1.0278
  288MOL0     H38844  -0.505   2.315   9.960  0.6067 -1.0398 -2.5411
  288MOL0     H38845  -0.489   2.211  10.175 -0.2240  0.0543  1.3217
  288MOL0     H38846  -0.381   2.066  10.298 -2.3902  2.0312  0.2706
  288MOL0     H38847  -0.516   2.044  10.401 -0.9328 -0.2279 -1.4266
  288MOL0     H38848  -0.451   1.797  10.426 -2.1055  0.8060 -2.5294
  288MOL0     H38849  -0.313   1.830  10.343  1.8482  0.2793  3.6434
  288MOL0     H38850  -0.361   1.956  10.613 -0.0533  0.9181 -0.4886
  288MOL0     H38851  -0.223   1.992  10.507  0.4985 -0.6726 -2.3871
  288MOL0     H38852  -0.299   1.724  10.629  0.0876 -0.8913  0.1867
  288MOL0     H38853  -0.155   1.752  10.534 -2.0488 -1.7468  0.7803
  288MOL0     H38854  -0.144   1.759  10.783  1.8894  0.4319 -0.3591
  288MOL0     H38855  -0.210   1.915  10.789 -1.9741 -3.6123  2.3196
  288MOL0     H38856   0.051   1.807  10.644  2.3235 -0.8264  2.9945
  288MOL0     H38857   0.004   1.975  10.628  1.9055  0.8635  1.0648
  288MOL0     H38858   0.181   1.911  10.787  0.2858 -2.0928  1.0095
  288MOL0     H38859   0.053   1.856  10.911  2.4038  1.1696  2.2146
  288MOL0     H38860  -0.048   2.060  10.902  0.7549  2.1455 -0.5631
  288MOL0     H38861   0.079   2.126  10.790  3.4563 -2.1592 -1.9284
  288MOL0     H38862  -0.583   1.822   9.986 -4.3162  1.3157  2.7987
  288MOL0     H38863  -0.607   1.945   9.768  2.2138  1.5108 -1.6831
  288MOL0     H38864  -0.515   2.101   9.347 -0.1872 -0.1315  1.0601
  288MOL0     H38865  -0.520   2.242   9.155 -0.4215  2.1953 -0.6787
  288MOL0     H38866   0.161   2.906  10.045 -0.2683  1.7581 -0.1421
  288MOL0     H38867   0.235   3.121  10.063 -0.9215  0.0913  0.4205
  288MOL0     H38868   0.769   3.283  10.021 -5.1344 -2.9397  0.4326
  288MOL0     H38869   0.914   3.498  10.011  0.1505 -1.7545  0.4106
  288MOL0     H38870   0.817   3.887   9.791  2.7751  1.8586  1.6817
  288MOL0     H38871   0.682   3.860   9.911 -0.2441 -0.4260 -1.3403
  288MOL0     H38872   0.824   4.056   9.975 -0.9468 -0.5133  4.2620
  288MOL0     H38873   0.965   3.961   9.959  0.2506 -0.8955  2.2912
  288MOL0     H38874   0.912   3.848  10.175  0.8623 -0.6636 -1.2016
  288MOL0     H38875   0.748   3.920  10.164  0.5397  1.1997  0.4509
  288MOL0     H38876   0.890   4.053  10.315 -1.9709 -0.9220  0.0520
  288MOL0     H38877   0.848   4.148  10.180 -0.3481 -1.2344 -0.6928
  288MOL0     H38878   1.279   4.142  10.152 -0.2978  3.0061  2.4313
  288MOL0     H38879   0.600   3.693   9.804 -0.5444 -1.6042 -3.1275
  288MOL0     H38880   0.454   3.498   9.814 -0.9098 -0.3939  1.6109
  289MOL0     O38881   4.677   3.780  10.150  0.4528 -0.7082  0.2044
  289MOL0     C38882   4.688   3.713  10.049 -0.0921  0.8883 -0.6163
  289MOL0     O38883   4.776   3.721   9.946  0.7221 -0.2486  0.8582
  289MOL0     C38884   4.869   3.822   9.939 -1.1388  0.7045 -0.3624
  289MOL0     C38885   4.927   3.879  10.051  0.3039 -0.3565  0.5940
  289MOL0     C38886   5.034   3.969  10.041  0.2214  0.2420 -0.9285
  289MOL0     C38887   5.088   3.996   9.908  0.0252  0.4717 -0.7825
  289MOL0     O38888   5.187   4.089   9.890  0.6989 -0.3637  0.2843
  289MOL0     C38889   5.270   4.138   9.995  1.2559 -0.3239 -0.4008
  289MOL0     C38890   5.410   4.064  10.005 -0.3359 -0.1248  0.2701
  289MOL0     C38891   5.473   4.081   9.871  0.1819 -0.4784 -0.4189
  289MOL0     C38892   5.616   4.027   9.854  0.0248  0.4242 -0.8905
  289MOL0     C38893   5.639   4.003   9.705  0.1112 -0.0068 -0.5244
  289MOL0     C38894   5.775   3.949   9.670  0.2772 -0.2625  0.7499
  289MOL0     C38895   5.889   4.041   9.695 -0.5462  0.6304  0.8829
  289MOL0     C38896   6.028   3.966   9.680  0.4489  1.0488 -1.0399
  289MOL0     N38897   6.137   4.052   9.730  0.1986 -0.3515 -1.0163
  289MOL0     C38898   6.177   4.168   9.674 -0.8263 -0.3974 -0.9043
  289MOL0     C38899   6.279   4.207   9.765  0.4410  0.1479 -0.5683
  289MOL0     C38900   6.337   4.338   9.770 -0.8136 -0.0836  0.4992
  289MOL0     C38901   6.453   4.337   9.667 -0.6590 -0.7350  0.7032
  289MOL0     C38902   6.513   4.475   9.657  0.4356 -0.0851  0.6328
  289MOL0     C38903   6.534   4.514   9.509 -0.5028  0.5061 -0.9294
  289MOL0     O38904   6.637   4.434   9.451  0.5736 -0.4319  0.3861
  289MOL0     C38905   6.629   4.401   9.319 -0.7635 -0.2087 -0.4322
  289MOL0     C38906   6.565   4.488   9.225 -0.3629  0.4396 -0.3730
  289MOL0     C38907   6.564   4.471   9.083  0.3201 -0.1739 -1.5943
  289MOL0     C38908   6.500   4.578   8.999  0.3050 -0.7188  0.1176
  289MOL0     C38909   6.646   4.363   9.033 -0.2460  0.5756 -0.2434
  289MOL0     C38910   6.658   4.320   8.890  0.0757 -0.5816 -0.7236
  289MOL0     O38911   6.757   4.228   8.851 -0.6716  0.3997 -0.8022
  289MOL0     C38912   6.729   4.166   8.731  0.6504 -0.5771 -0.6487
  289MOL0     C38913   6.602   4.135   8.680  0.3971  0.1069  0.1127
  289MOL0     C38914   6.596   4.056   8.561 -0.2787 -0.5518  0.5217
  289MOL0     C38915   6.709   4.022   8.494  1.7154  0.4458 -0.0885
  289MOL0     O38916   6.687   3.972   8.372 -0.4689  0.0275  0.3549
  289MOL0     C38917   6.790   3.894   8.299  0.4885 -0.1328  0.5555
  289MOL0     C38918   6.752   3.850   8.165 -0.2846  0.3890  0.6020
  289MOL0     C38919   6.844   3.733   8.102 -0.3324 -0.7471 -0.5256
  289MOL0     C38920   6.969   3.791   8.040  0.7081 -0.1000 -0.5456
  289MOL0     C38921   7.031   3.689   7.949  0.0036  0.6820  0.5249
  289MOL0     C38922   7.156   3.751   7.878  0.5224  0.3256  1.0677
  289MOL0     C38923   7.225   3.654   7.784 -0.3152 -0.5330 -0.5206
  289MOL0     C38924   7.353   3.712   7.722 -0.1299 -0.1836  0.7262
  289MOL0    Cl38925   7.487   3.701   7.835 -0.6446 -0.1865  0.3913
  289MOL0     C38926   6.830   4.042   8.552  0.3112  0.2779 -0.8393
  289MOL0     C38927   6.837   4.106   8.673 -0.5779 -0.0192 -1.3034
  289MOL0     O38928   6.594   4.395   8.810  0.1031  0.1743  0.7671
  289MOL0     C38929   6.700   4.267   9.127 -0.4881 -0.4315  1.0300
  289MOL0     C38930   6.690   4.290   9.265  0.5922 -0.8972 -0.4570
  289MOL0     N38931   6.300   4.110   9.861 -0.4250  0.7381 -0.5401
  289MOL0     N38932   6.208   4.030   9.848 -0.2521  0.5784  0.5622
  289MOL0     C38933   5.034   3.935   9.797 -0.2569 -0.8558 -0.5466
  289MOL0     C38934   4.915   3.860   9.811 -0.1742 -0.1212  1.0500
  289MOL0     C38935   4.579   3.616  10.030 -0.3984 -0.6618  0.4886
  289MOL0     C38936   4.473   3.609  10.119 -0.1568 -0.6301  0.0134
  289MOL0     C38937   4.370   3.518  10.101 -0.7973  0.2942 -0.0119
  289MOL0     C38938   4.371   3.426   9.991 -0.4033  0.2411 -0.0802
  289MOL0     O38939   4.280   3.321   9.976  0.1239 -0.9190 -0.2474
  289MOL0     C38940   4.188   3.301  10.078 -0.2304  0.3726 -0.5534
  289MOL0     C38941   4.125   3.164  10.049 -0.5945 -0.0956  0.5926
  289MOL0     C38942   4.012   3.117  10.137 -1.4717  0.0206  0.2642
  289MOL0     C38943   4.046   3.113  10.289 -1.0772 -0.6735 -0.3511
  289MOL0     C38944   3.919   3.068  10.353 -0.4657 -0.1001  0.2567
  289MOL0     C38945   3.813   3.023  10.399 -0.6743 -0.3733 -0.6120
  289MOL0     C38946   4.469   3.444   9.893  0.1773 -0.2692 -0.4877
  289MOL0     C38947   4.576   3.535   9.917  0.0861  0.4750 -0.0570
  289MOL0     H38948   4.885   3.852  10.148 -3.5832 -1.1244 -1.0776
  289MOL0     H38949   5.058   4.009  10.139 -1.5706  0.4246 -0.5371
  289MOL0     H38950   5.281   4.245   9.980  1.0006 -0.6275 -3.4352
  289MOL0     H38951   5.212   4.135  10.088  0.4461 -0.7030 -0.9021
  289MOL0     H38952   5.470   4.099  10.090  0.9879  1.4337 -1.2304
  289MOL0     H38953   5.395   3.957  10.023  2.4410 -0.6996 -0.4723
  289MOL0     H38954   5.413   4.027   9.798  0.0525 -0.5340 -0.2730
  289MOL0     H38955   5.491   4.186   9.847 -0.3261 -0.0553  0.9320
  289MOL0     H38956   5.687   4.101   9.893  1.0002 -1.3994  1.0145
  289MOL0     H38957   5.640   3.941   9.917  1.1761 -1.7101 -4.0311
  289MOL0     H38958   5.563   3.940   9.656 -0.2560  0.3799 -0.4559
  289MOL0     H38959   5.632   4.105   9.669  0.3506  0.3013  0.2714
  289MOL0     H38960   5.799   3.854   9.718  3.5797  0.3653  0.6273
  289MOL0     H38961   5.780   3.926   9.563  1.3587 -1.0108  0.9428
  289MOL0     H38962   5.875   4.119   9.619  0.0416 -1.0009 -0.9971
  289MOL0     H38963   5.890   4.091   9.792  0.2427  1.1857  0.6072
  289MOL0     H38964   6.051   3.942   9.576  0.3101  0.0379 -0.8416
  289MOL0     H38965   6.023   3.873   9.737 -1.5117  1.9076  0.2856
  289MOL0     H38966   6.128   4.225   9.596 -1.0509  0.6132 -0.0508
  289MOL0     H38967   6.256   4.409   9.748  0.3673  1.7389  1.7461
  289MOL0     H38968   6.378   4.350   9.870  1.3673 -4.6486  0.4076
  289MOL0     H38969   6.426   4.314   9.563  1.8901 -1.3724  0.1289
  289MOL0     H38970   6.533   4.265   9.688 -0.4411 -0.5774  0.4220
  289MOL0     H38971   6.602   4.474   9.721  0.2992  0.2004  0.8324
  289MOL0     H38972   6.454   4.552   9.707  0.2185 -1.3534  2.4452
  289MOL0     H38973   6.575   4.615   9.515  2.4614 -0.5567 -1.4832
  289MOL0     H38974   6.433   4.505   9.468 -0.0829  1.4529 -2.2547
  289MOL0     H38975   6.515   4.574   9.267  0.5217  0.2871  1.0555
  289MOL0     H38976   6.413   4.531   8.953 -0.0067 -0.9578  0.9216
  289MOL0     H38977   6.453   4.660   9.056 -0.2570 -1.1515  0.2900
  289MOL0     H38978   6.567   4.621   8.925 -0.8724  1.6329  0.3237
  289MOL0     H38979   6.506   4.172   8.714 -1.8149 -2.2857 -2.8540
  289MOL0     H38980   6.495   4.034   8.528 -0.3485 -1.6973  1.4580
  289MOL0     H38981   6.883   3.945   8.271  2.0408 -4.2393 -2.9422
  289MOL0     H38982   6.803   3.806   8.363  0.3628  0.0101  0.7748
  289MOL0     H38983   6.645   3.828   8.163 -0.4513  0.9768 -2.3846
  289MOL0     H38984   6.762   3.945   8.111 -3.7175  1.6586  1.9170
  289MOL0     H38985   6.796   3.689   8.013  1.6438 -0.6598 -1.6836
  289MOL0     H38986   6.858   3.653   8.175 -3.7007 -0.5807  0.4674
  289MOL0     H38987   6.938   3.876   7.979  1.6595 -1.7936 -3.6231
  289MOL0     H38988   7.040   3.818   8.118 -0.6729 -5.8259  3.3396
  289MOL0     H38989   6.957   3.655   7.877 -2.8663  0.6698  3.2447
  289MOL0     H38990   7.058   3.598   8.005 -0.1206  0.7001  0.6146
  289MOL0     H38991   7.117   3.830   7.812 -1.6045  0.3655  2.2856
  289MOL0     H38992   7.226   3.808   7.941  2.6133  0.8292 -1.5209
  289MOL0     H38993   7.149   3.634   7.707  0.2946  0.9065 -1.5518
  289MOL0     H38994   7.263   3.560   7.825  0.6533 -0.5175 -1.3182
  289MOL0     H38995   7.357   3.818   7.693  0.8517 -0.6307 -0.8919
  289MOL0     H38996   7.378   3.655   7.632  1.0683  3.5766 -1.5546
  289MOL0     H38997   6.921   4.009   8.504  0.1315 -0.7096 -0.5203
  289MOL0     H38998   6.930   4.122   8.727 -1.4543 -0.4975  0.4183
  289MOL0     H38999   6.754   4.178   9.096  0.2334  0.8019 -1.5719
  289MOL0     H39000   6.734   4.214   9.329  0.5760 -1.1002 -0.6826
  289MOL0     H39001   5.075   3.958   9.699  0.1259  0.4548 -0.0969
  289MOL0     H39002   4.861   3.836   9.720  1.3675  1.0709 -0.2463
  289MOL0     H39003   4.463   3.669  10.209 -1.1414  0.2881 -0.6932
  289MOL0     H39004   4.293   3.532  10.176  0.3912 -1.3142  1.5940
  289MOL0     H39005   4.240   3.303  10.174  0.2447 -0.3097 -0.7932
  289MOL0     H39006   4.117   3.383  10.093 -1.1778 -0.8245  2.3996
  289MOL0     H39007   4.203   3.088  10.058 -0.6839 -0.1841  0.6262
  289MOL0     H39008   4.101   3.157   9.942 -0.6925  1.1959  0.5149
  289MOL0     H39009   3.974   3.020  10.103 -0.0023  0.3166 -2.5882
  289MOL0     H39010   3.934   3.191  10.117 -0.2584  1.3760  0.3717
  289MOL0     H39011   4.086   3.207  10.328 -1.1743  0.5936 -3.0682
  289MOL0     H39012   4.122   3.036  10.306  1.2124  1.1230 -1.7053
  289MOL0     H39013   3.721   2.989  10.443 -2.6780  2.2615 -2.4243
  289MOL0     H39014   4.479   3.377   9.808  0.5212 -1.5374  0.5290
  289MOL0     H39015   4.650   3.524   9.839  0.7356 -0.2618  0.6523
  290MOL0     O39016   3.362   9.461   0.590 -0.9039 -0.0523  0.6430
  290MOL0     C39017   3.480   9.478   0.571  0.5763 -0.0090 -0.5036
  290MOL0     O39018   3.538   9.439   0.459 -0.5984  0.4777 -0.2406
  290MOL0     C39019   3.473   9.416   0.335  0.2823 -0.2391  0.3298
  290MOL0     C39020   3.550   9.406   0.221  1.0411  0.5782 -0.5350
  290MOL0     C39021   3.500   9.399   0.088  0.7655  0.2927  0.2501
  290MOL0     C39022   3.369   9.414   0.065  0.3481  0.3292 -0.7925
  290MOL0     O39023   3.319   9.405  -0.071 -0.9075  0.4788 -0.1481
  290MOL0     C39024   3.196   9.460  -0.105 -0.0936  0.6676 -0.3879
  290MOL0     C39025   3.127   9.384  -0.221 -0.4716 -0.5080 -0.1569
  290MOL0     C39026   3.198   9.417  -0.348 -0.8214 -0.6722  0.3709
  290MOL0     C39027   3.149   9.323  -0.460  0.3623  0.1561  0.1453
  290MOL0     C39028   3.212   9.349  -0.597 -1.0939  0.2903  1.1225
  290MOL0     C39029   3.163   9.248  -0.702 -0.1873 -0.0162 -0.3402
  290MOL0     C39030   3.247   9.271  -0.837  0.0057 -0.0559 -0.2791
  290MOL0     C39031   3.161   9.221  -0.957  0.6624  0.0796  0.1899
  290MOL0     N39032   3.231   9.194  -1.078 -0.2163  0.1831  0.1476
  290MOL0     C39033   3.352   9.247  -1.110  0.3682  0.7571  0.2867
  290MOL0     C39034   3.368   9.238  -1.250  0.5664 -0.7591  0.3919
  290MOL0     C39035   3.500   9.258  -1.320 -0.3897  0.4673  0.1649
  290MOL0     C39036   3.509   9.415  -1.342  0.2448 -0.5166  0.2915
  290MOL0     C39037   3.615   9.438  -1.449 -1.0480 -0.3478  0.5020
  290MOL0     C39038   3.630   9.590  -1.466  0.6408  0.0065 -0.4063
  290MOL0     O39039   3.703   9.629  -1.581 -0.0681 -0.1442 -0.1086
  290MOL0     C39040   3.835   9.669  -1.550  0.3695  0.4348  0.0109
  290MOL0     C39041   3.926   9.628  -1.456 -0.4034 -0.0590  0.4445
  290MOL0     C39042   4.053   9.688  -1.444  0.0549  0.0409  0.0129
  290MOL0     C39043   4.132   9.660  -1.318  0.2130 -0.1284  0.1435
  290MOL0     C39044   4.084   9.793  -1.534 -0.5782 -0.0946 -0.6805
  290MOL0     C39045   4.210   9.879  -1.520  0.0628  0.4679  0.6610
  290MOL0     O39046   4.211  10.004  -1.579 -0.9850  0.1091 -0.6368
  290MOL0     C39047   4.327  10.077  -1.576  0.6957 -0.1596 -0.0122
  290MOL0     C39048   4.400  10.098  -1.690 -0.4045  0.5372  0.4241
  290MOL0     C39049   4.509  10.181  -1.692  0.1292  0.0749 -0.5721
  290MOL0     C39050   4.552  10.244  -1.575 -0.6435  0.2812 -0.1494
  290MOL0     O39051   4.664  10.316  -1.578 -0.5379 -0.1965  0.1759
  290MOL0     C39052   4.741  10.344  -1.460  0.2445 -0.0147 -0.1824
  290MOL0     C39053   4.872  10.390  -1.522  0.7460 -0.7407 -0.3259
  290MOL0     C39054   4.948  10.455  -1.409 -0.1306  0.0353 -1.0534
  290MOL0     C39055   4.984  10.368  -1.283 -0.1161 -0.9890  0.4171
  290MOL0     C39056   5.077  10.439  -1.178 -0.5604 -0.7647  0.2498
  290MOL0     C39057   5.220  10.447  -1.228 -0.6832  0.9196 -1.2879
  290MOL0     C39058   5.299  10.311  -1.187  0.7819 -0.2762 -0.2237
  290MOL0     C39059   5.438  10.299  -1.251 -0.5370  0.8317  0.2087
  290MOL0    Cl39060   5.543  10.428  -1.192 -0.1993 -0.0775 -0.3754
  290MOL0     C39061   4.478  10.224  -1.455  0.4740 -0.0850  0.7070
  290MOL0     C39062   4.361  10.149  -1.463 -0.5678  0.7311  0.1813
  290MOL0     O39063   4.307   9.831  -1.456  0.0436 -0.5763  0.0872
  290MOL0     C39064   3.991   9.833  -1.629  0.3766 -0.0639  0.9915
  290MOL0     C39065   3.864   9.780  -1.633  0.8328  0.6257 -0.2196
  290MOL0     N39066   3.253   9.194  -1.303 -0.0187  0.1936 -0.0681
  290MOL0     N39067   3.172   9.177  -1.200 -0.1439  0.5079 -0.3297
  290MOL0     C39068   3.285   9.425   0.185  0.4125 -0.1601  0.9196
  290MOL0     C39069   3.335   9.416   0.314 -1.0192  0.3369  0.2953
  290MOL0     C39070   3.555   9.534   0.684 -0.2195  0.4481 -0.1420
  290MOL0     C39071   3.508   9.532   0.817  0.9718 -0.4376  0.3340
  290MOL0     C39072   3.574   9.593   0.920 -0.3604 -0.1657 -0.3071
  290MOL0     C39073   3.694   9.658   0.910 -0.7763 -0.0222  1.5546
  290MOL0     O39074   3.746   9.711   1.023 -0.8416 -0.6393  0.2294
  290MOL0     C39075   3.873   9.778   1.012  0.0672 -0.0918  0.3681
  290MOL0     C39076   3.945   9.784   1.143 -0.4037 -0.1503  0.0506
  290MOL0     C39077   3.978   9.643   1.210  0.0233 -0.7071 -0.2179
  290MOL0     C39078   4.083   9.666   1.322  0.4188  0.3865  0.3398
  290MOL0     C39079   4.222   9.663   1.279 -0.0758 -0.0512  0.4248
  290MOL0     C39080   4.322   9.678   1.211 -0.8899  0.3525 -0.5024
  290MOL0     C39081   3.749   9.658   0.779  0.1452  0.7484 -0.2040
  290MOL0     C39082   3.681   9.590   0.676  0.1157  0.8278  0.2166
  290MOL0     H39083   3.656   9.418   0.239  1.0234  0.4180 -0.3296
  290MOL0     H39084   3.562   9.380   0.001  1.8483  1.2546  0.7914
  290MOL0     H39085   3.129   9.451  -0.019 -1.0632  0.6961 -1.1162
  290MOL0     H39086   3.210   9.565  -0.131 -4.0420  1.1602 -1.0776
  290MOL0     H39087   3.127   9.278  -0.193 -2.7762 -0.5609 -0.1295
  290MOL0     H39088   3.020   9.408  -0.215 -0.4541 -0.7754  2.1383
  290MOL0     H39089   3.183   9.523  -0.370  0.3536 -1.0110 -2.4631
  290MOL0     H39090   3.306   9.417  -0.330 -0.2359  1.8973 -2.3029
  290MOL0     H39091   3.169   9.217  -0.442  1.8963  0.8733  3.3648
  290MOL0     H39092   3.040   9.330  -0.459  0.1376 -1.9497 -1.7011
  290MOL0     H39093   3.201   9.454  -0.627  2.2371  0.0091 -1.6813
  290MOL0     H39094   3.321   9.348  -0.586 -1.0816  3.3482  2.3884
  290MOL0     H39095   3.183   9.150  -0.658  0.4370 -0.5634 -1.7610
  290MOL0     H39096   3.054   9.250  -0.702 -0.2167 -1.1872 -0.6862
  290MOL0     H39097   3.267   9.376  -0.862 -2.3502  0.0061 -2.3391
  290MOL0     H39098   3.340   9.216  -0.822 -1.0676 -1.2962  2.5875
  290MOL0     H39099   3.086   9.298  -0.981  0.3226 -0.2336  0.2448
  290MOL0     H39100   3.109   9.131  -0.923  1.0961  0.6980  2.6418
  290MOL0     H39101   3.435   9.275  -1.046  1.1907 -1.1495  0.1285
  290MOL0     H39102   3.584   9.241  -1.251  0.2270  2.4175 -0.0542
  290MOL0     H39103   3.499   9.197  -1.411 -3.0100  0.3489  0.2173
  290MOL0     H39104   3.546   9.456  -1.248 -1.2708  1.4146  0.1318
  290MOL0     H39105   3.410   9.459  -1.358  0.4761 -0.5142 -1.3123
  290MOL0     H39106   3.589   9.387  -1.542  1.6051 -1.7065  0.4044
  290MOL0     H39107   3.706   9.387  -1.415 -1.2953 -1.1942 -0.0820
  290MOL0     H39108   3.670   9.628  -1.372 -1.1384 -3.2157  1.8460
  290MOL0     H39109   3.529   9.632  -1.475  0.6364  0.0467 -0.1765
  290MOL0     H39110   3.905   9.550  -1.383  0.3534 -2.5991 -1.9096
  290MOL0     H39111   4.215   9.602  -1.361  0.7329  2.7560 -3.2691
  290MOL0     H39112   4.164   9.753  -1.269 -0.1782 -0.4462  1.0156
  290MOL0     H39113   4.076   9.601  -1.246  1.1305  0.3170  1.2491
  290MOL0     H39114   4.377  10.039  -1.779 -0.0210 -0.4455  0.9554
  290MOL0     H39115   4.563  10.199  -1.784 -1.0703 -1.6195 -1.6631
  290MOL0     H39116   4.691  10.415  -1.394  1.1890  0.2332  0.2864
  290MOL0     H39117   4.758  10.247  -1.412 -0.2333  0.0631  0.1475
  290MOL0     H39118   4.932  10.308  -1.562 -1.0335 -3.2110  1.7757
  290MOL0     H39119   4.847  10.460  -1.602  2.2560 -2.8603 -2.8222
  290MOL0     H39120   4.884  10.529  -1.360 -1.9179 -0.1578 -3.0047
  290MOL0     H39121   5.043  10.500  -1.440 -1.4018  1.6438 -2.8396
  290MOL0     H39122   4.886  10.347  -1.238 -1.3180 -2.6880 -2.6793
  290MOL0     H39123   5.026  10.273  -1.318  1.2154  0.1938 -1.3353
  290MOL0     H39124   5.078  10.362  -1.101  0.3436 -0.4031  0.6180
  290MOL0     H39125   5.050  10.538  -1.141  0.1258 -1.1637  1.8745
  290MOL0     H39126   5.218  10.462  -1.337  1.5665 -0.6076 -1.6132
  290MOL0     H39127   5.272  10.535  -1.189 -0.7578  0.4106 -0.0039
  290MOL0     H39128   5.243  10.228  -1.230  0.4828  0.1639 -0.7070
  290MOL0     H39129   5.296  10.294  -1.079  1.6557 -2.7032 -0.5185
  290MOL0     H39130   5.416  10.314  -1.356 -3.2545 -1.0084  0.4132
  290MOL0     H39131   5.487  10.201  -1.251 -1.8592  0.0267 -3.6183
  290MOL0     H39132   4.521  10.259  -1.362  3.6958 -1.0152 -0.3005
  290MOL0     H39133   4.293  10.130  -1.380 -3.3416 -0.3964 -2.1931
  290MOL0     H39134   4.005   9.909  -1.706 -3.1948  0.3170  0.5302
  290MOL0     H39135   3.797   9.808  -1.714  0.5301  4.5142  1.1262
  290MOL0     H39136   3.176   9.420   0.183  0.4464 -0.8936  0.1556
  290MOL0     H39137   3.258   9.394   0.388 -2.4115  1.3685 -0.8081
  290MOL0     H39138   3.413   9.480   0.826 -0.6448  1.7826 -2.3354
  290MOL0     H39139   3.532   9.599   1.020 -0.9924 -1.9647 -0.4379
  290MOL0     H39140   3.941   9.717   0.952  0.2656  0.3932  0.0954
  290MOL0     H39141   3.852   9.876   0.969  0.4713 -0.9034 -1.7917
  290MOL0     H39142   3.894   9.840   1.222  0.7336 -2.5466  2.6806
  290MOL0     H39143   4.041   9.833   1.121 -0.1374  0.5279  2.4510
  290MOL0     H39144   4.009   9.563   1.143 -0.2457 -1.2199  0.2609
  290MOL0     H39145   3.887   9.611   1.262 -0.6840  1.1395 -0.2355
  290MOL0     H39146   4.076   9.584   1.394 -1.0985 -0.7111 -0.9874
  290MOL0     H39147   4.047   9.750   1.382 -0.9339 -0.5636  0.9023
  290MOL0     H39148   4.420   9.689   1.168  1.3328  0.0855  3.8734
  290MOL0     H39149   3.841   9.715   0.769  0.6031  0.8802  3.2560
  290MOL0     H39150   3.730   9.583   0.579 -0.2350 -1.0123  0.1451
  291MOL0     O39151   8.736   3.558   2.423  0.2949 -0.3442 -0.0434
  291MOL0     C39152   8.669   3.626   2.498 -0.6809 -0.1957  0.0221
  291MOL0     O39153   8.533   3.625   2.487  0.1833 -0.9967 -0.0346
  291MOL0     C39154   8.480   3.535   2.396  0.5891  0.0055  0.7318
  291MOL0     C39155   8.425   3.411   2.440 -0.9256 -0.6336  0.6976
  291MOL0     C39156   8.364   3.316   2.359  0.4789 -0.4685 -0.2010
  291MOL0     C39157   8.344   3.360   2.223 -0.6403  0.1072  0.9629
  291MOL0     O39158   8.285   3.284   2.135  0.3576  0.7200  0.3016
  291MOL0     C39159   8.230   3.160   2.182 -1.1424 -0.5816  0.8490
  291MOL0     C39160   8.143   3.095   2.070 -0.2460 -0.5035  0.5834
  291MOL0     C39161   8.004   3.168   2.027  0.2930  0.9382 -0.3028
  291MOL0     C39162   7.903   3.146   2.137 -0.8387  0.4063  0.2958
  291MOL0     C39163   7.766   3.191   2.090  0.2997 -0.5196 -0.2543
  291MOL0     C39164   7.659   3.187   2.206  0.9033  0.3575 -0.1882
  291MOL0     C39165   7.527   3.239   2.144 -0.3258 -0.6171 -0.0206
  291MOL0     C39166   7.413   3.247   2.249 -0.5173  0.2988 -0.0764
  291MOL0     N39167   7.292   3.323   2.209  0.0812 -0.5857  0.4205
  291MOL0     C39168   7.265   3.390   2.090  0.4041  0.3930 -0.2860
  291MOL0     C39169   7.129   3.417   2.100 -0.1194 -0.5511 -0.0043
  291MOL0     C39170   7.031   3.479   2.006  0.4500 -0.1077  0.0322
  291MOL0     C39171   6.980   3.373   1.901 -0.3908 -1.1269 -0.4238
  291MOL0     C39172   6.918   3.463   1.796 -0.2381  0.3708  0.4046
  291MOL0     C39173   6.835   3.394   1.695 -0.4315  0.4033  0.2535
  291MOL0     O39174   6.771   3.482   1.600 -0.4324  0.1184  0.3015
  291MOL0     C39175   6.690   3.436   1.497 -0.0221  0.9498 -0.8413
  291MOL0     C39176   6.653   3.296   1.501 -0.7243  0.9380  0.0336
  291MOL0     C39177   6.574   3.238   1.398  0.8697 -0.0421 -0.4742
  291MOL0     C39178   6.534   3.095   1.405 -0.2529  0.2780 -0.7561
  291MOL0     C39179   6.532   3.319   1.289  0.1855 -0.1708 -0.1894
  291MOL0     C39180   6.452   3.270   1.183 -1.0960 -0.5727  0.9651
  291MOL0     O39181   6.330   3.213   1.211 -0.1221  0.4967 -0.5840
  291MOL0     C39182   6.285   3.151   1.099 -0.3057  0.8457  0.4105
  291MOL0     C39183   6.200   3.225   1.012  0.0312  0.3418  1.1954
  291MOL0     C39184   6.127   3.151   0.918  0.1702  0.2593  0.2101
  291MOL0     C39185   6.137   3.005   0.909 -0.3861 -0.3401 -0.4587
  291MOL0     O39186   6.063   2.921   0.821  0.7891 -0.5925  0.1853
  291MOL0     C39187   5.982   2.981   0.716 -0.2165  0.0798 -0.4905
  291MOL0     C39188   5.955   2.867   0.615 -0.4675  0.0398 -0.2476
  291MOL0     C39189   5.817   2.803   0.638 -0.2013  0.0128  0.2469
  291MOL0     C39190   5.817   2.693   0.525  0.8914 -0.4534  0.6384
  291MOL0     C39191   5.733   2.570   0.564 -0.0632 -0.3515  0.4053
  291MOL0     C39192   5.582   2.587   0.588 -0.1279  0.4549  0.9941
  291MOL0     C39193   5.483   2.605   0.473 -0.4132  0.8442  0.4174
  291MOL0     C39194   5.353   2.520   0.468  0.6620 -0.6531 -0.2279
  291MOL0    Cl39195   5.213   2.606   0.540  0.1615 -0.1054 -0.1230
  291MOL0     C39196   6.233   2.949   0.991  0.6963  0.4560  0.2072
  291MOL0     C39197   6.299   3.015   1.085  0.6856  0.7488 -0.7463
  291MOL0     O39198   6.496   3.305   1.076  0.2050 -0.1254  0.6159
  291MOL0     C39199   6.570   3.456   1.285 -0.0629  0.1128  0.7648
  291MOL0     C39200   6.648   3.511   1.391  0.4223 -0.3175  0.7875
  291MOL0     N39201   7.078   3.371   2.215 -0.1400 -0.7196 -0.0037
  291MOL0     N39202   7.176   3.314   2.279 -0.6953  0.0019  0.5437
  291MOL0     C39203   8.384   3.492   2.185 -0.0869  0.6338 -0.0662
  291MOL0     C39204   8.459   3.571   2.268 -0.8280  0.2404  0.6677
  291MOL0     C39205   8.711   3.731   2.593 -0.7506 -0.5829  0.1053
  291MOL0     C39206   8.620   3.810   2.659 -0.5753  0.1037  1.1347
  291MOL0     C39207   8.657   3.893   2.760 -0.5273 -1.1686  0.5847
  291MOL0     C39208   8.795   3.909   2.794 -0.0502 -0.6284  0.6324
  291MOL0     O39209   8.841   4.001   2.888 -0.3194  0.7243 -0.0889
  291MOL0     C39210   8.764   4.033   3.004  0.1568 -0.3385  0.0647
  291MOL0     C39211   8.823   3.950   3.119  0.1725  0.4792 -1.0027
  291MOL0     C39212   8.757   3.981   3.258 -0.1071  0.9622 -0.6977
  291MOL0     C39213   8.758   4.133   3.284 -0.0729 -0.1243 -0.1942
  291MOL0     C39214   8.736   4.168   3.432 -0.3977  0.0695 -0.2588
  291MOL0     C39215   8.697   4.194   3.543  0.1840 -0.3628 -0.0255
  291MOL0     C39216   8.894   3.826   2.740  0.1111  0.9058  0.7998
  291MOL0     C39217   8.850   3.736   2.636  0.4000 -0.9009 -0.7828
  291MOL0     H39218   8.429   3.388   2.546  0.9982  3.3802  1.6742
  291MOL0     H39219   8.331   3.222   2.403 -2.4898 -0.8277 -2.8022
  291MOL0     H39220   8.307   3.088   2.209  0.0498  1.2761  2.7423
  291MOL0     H39221   8.167   3.186   2.268  1.4807  3.5948  1.8080
  291MOL0     H39222   8.211   3.084   1.985 -1.7125  1.8300 -0.9831
  291MOL0     H39223   8.118   2.992   2.097 -0.1268 -0.1988  1.9297
  291MOL0     H39224   8.016   3.276   2.013 -2.0620  2.1452  4.7504
  291MOL0     H39225   7.972   3.126   1.931  4.1195 -0.1594 -1.2695
  291MOL0     H39226   7.900   3.037   2.147 -0.2310  0.4219  0.7638
  291MOL0     H39227   7.927   3.200   2.229  1.2652  0.7433 -0.3909
  291MOL0     H39228   7.782   3.293   2.054  1.5504  0.7092  3.3925
  291MOL0     H39229   7.735   3.136   2.000  0.0255 -2.8101  1.1647
  291MOL0     H39230   7.646   3.082   2.236  0.3758  0.4062 -0.2505
  291MOL0     H39231   7.689   3.252   2.289 -3.3638 -1.0422  2.8300
  291MOL0     H39232   7.555   3.344   2.134  3.5398 -1.0375  3.6071
  291MOL0     H39233   7.514   3.184   2.050 -1.2200  0.6526 -0.6733
  291MOL0     H39234   7.448   3.272   2.349 -0.8605 -1.4054  0.5123
  291MOL0     H39235   7.376   3.147   2.275  0.0963  0.1500  0.2477
  291MOL0     H39236   7.339   3.404   2.011  0.1981 -1.1182 -0.7761
  291MOL0     H39237   6.947   3.532   2.051 -0.5246  0.6287 -2.4824
  291MOL0     H39238   7.091   3.557   1.959  1.3960 -1.4134 -0.9979
  291MOL0     H39239   6.922   3.294   1.950  1.7384 -2.8345 -0.5063
  291MOL0     H39240   7.067   3.316   1.869  1.4673  0.5638  1.3325
  291MOL0     H39241   6.998   3.514   1.742 -0.5970  2.6996  1.9186
  291MOL0     H39242   6.864   3.541   1.851  0.7994  2.3980 -1.3323
  291MOL0     H39243   6.753   3.347   1.750 -0.9277  2.3277  1.2475
  291MOL0     H39244   6.898   3.319   1.647  0.3927  0.8890  0.5573
  291MOL0     H39245   6.692   3.231   1.579 -0.0259  0.6054 -0.5912
  291MOL0     H39246   6.456   3.082   1.480  2.3202 -1.1121  1.9013
  291MOL0     H39247   6.492   3.047   1.317 -2.3102 -2.1503  1.3879
  291MOL0     H39248   6.609   3.018   1.429 -2.2331 -1.1270  1.4076
  291MOL0     H39249   6.185   3.332   1.017 -3.6212  0.0503 -0.3556
  291MOL0     H39250   6.052   3.189   0.850 -1.4253 -1.0721  1.1564
  291MOL0     H39251   5.889   3.014   0.762  0.6890  1.7675  0.2227
  291MOL0     H39252   6.017   3.072   0.666 -1.4286  0.2001 -1.1431
  291MOL0     H39253   5.967   2.902   0.512  2.4379  1.0158  0.3332
  291MOL0     H39254   6.043   2.803   0.627  1.7537  3.1614  1.7065
  291MOL0     H39255   5.732   2.873   0.629  0.0944  0.7830  2.6014
  291MOL0     H39256   5.809   2.753   0.735  1.1091 -1.0395 -0.1734
  291MOL0     H39257   5.776   2.730   0.431 -0.0843  0.5986  1.4531
  291MOL0     H39258   5.921   2.665   0.503  0.4160 -2.8979  1.2296
  291MOL0     H39259   5.775   2.527   0.655 -0.1263 -0.5314  0.3501
  291MOL0     H39260   5.743   2.503   0.478  1.6653  2.6112 -1.9136
  291MOL0     H39261   5.558   2.492   0.636  0.5997 -0.6848 -0.7798
  291MOL0     H39262   5.566   2.652   0.674 -2.5362 -0.6213  1.4424
  291MOL0     H39263   5.542   2.580   0.384 -0.2691 -0.4415  0.8503
  291MOL0     H39264   5.461   2.712   0.470 -2.4940  0.8396  5.5721
  291MOL0     H39265   5.372   2.426   0.521  1.7355  2.4890  5.8590
  291MOL0     H39266   5.340   2.502   0.361 -0.4750  0.0736 -0.2254
  291MOL0     H39267   6.248   2.843   0.970 -0.3187  0.7924 -2.6602
  291MOL0     H39268   6.353   2.956   1.158 -0.4448 -0.9451 -1.2166
  291MOL0     H39269   6.562   3.516   1.195  0.9966  0.2714  0.7568
  291MOL0     H39270   6.685   3.612   1.382  2.7418 -1.0644  1.1591
  291MOL0     H39271   8.358   3.515   2.082  1.1403  2.9531  0.0605
  291MOL0     H39272   8.498   3.665   2.232  0.7849 -1.4664 -2.4825
  291MOL0     H39273   8.514   3.805   2.637 -0.0208 -0.4943 -1.9518
  291MOL0     H39274   8.579   3.951   2.810 -2.5144 -2.6855 -0.5973
  291MOL0     H39275   8.783   4.136   3.036  0.8532  0.1671 -1.8369
  291MOL0     H39276   8.655   4.027   2.996  0.3337 -2.4847 -1.4973
  291MOL0     H39277   8.931   3.965   3.129  0.2181 -0.0260 -0.7211
  291MOL0     H39278   8.795   3.846   3.098 -0.5353  0.8087 -1.7738
  291MOL0     H39279   8.821   3.929   3.330 -1.4265  0.0578 -0.1287
  291MOL0     H39280   8.652   3.950   3.257 -0.1522  1.0853 -0.3021
  291MOL0     H39281   8.674   4.171   3.224  1.3239  3.1590 -0.2423
  291MOL0     H39282   8.854   4.167   3.245 -0.3077 -0.1738 -0.8333
  291MOL0     H39283   8.656   4.225   3.638  3.9162 -0.7885  1.9153
  291MOL0     H39284   8.998   3.850   2.759  1.0223  1.0001 -3.4361
  291MOL0     H39285   8.924   3.673   2.588 -0.5906 -1.4754 -1.6101
  292MOL0     O39286  10.861   2.407   1.152  1.4353 -0.3037  0.7632
  292MOL0     C39287  10.879   2.462   1.047  0.2862 -0.0617  0.3046
  292MOL0     O39288  10.776   2.538   0.984  0.1701  0.2997  0.1196
  292MOL0     C39289  10.646   2.532   1.040 -0.5482  0.5942  0.4851
  292MOL0     C39290  10.591   2.662   1.050  0.4776  0.0726 -1.1488
  292MOL0     C39291  10.459   2.663   1.112 -0.2152  0.0230  0.3334
  292MOL0     C39292  10.382   2.546   1.128  0.1222  0.6049 -0.4644
  292MOL0     O39293  10.262   2.544   1.191 -0.2631  0.3891 -0.3387
  292MOL0     C39294  10.237   2.628   1.308  0.0879 -0.2202  0.3809
  292MOL0     C39295  10.183   2.537   1.418 -0.0166  0.3850 -0.4068
  292MOL0     C39296  10.072   2.601   1.504 -0.4012 -0.3696 -0.5245
  292MOL0     C39297  10.122   2.731   1.565 -0.3427 -1.2839 -1.1997
  292MOL0     C39298  10.106   2.714   1.717 -0.1882  0.6382 -0.0845
  292MOL0     C39299  10.165   2.839   1.782  0.3206 -0.0335 -0.6209
  292MOL0     C39300  10.203   2.803   1.927 -0.0287 -0.6112  0.6306
  292MOL0     C39301  10.278   2.925   1.987 -0.3106  0.8998 -0.4253
  292MOL0     N39302  10.422   2.914   1.995  0.2171 -0.1640  0.0752
  292MOL0     C39303  10.491   2.938   2.109  0.9852 -0.2188  0.1721
  292MOL0     C39304  10.618   2.945   2.059 -1.2345  0.8972 -0.1114
  292MOL0     C39305  10.734   2.997   2.134 -1.5200 -0.1764 -0.5437
  292MOL0     C39306  10.824   2.877   2.191 -0.1292 -1.2975  0.1250
  292MOL0     C39307  10.957   2.926   2.247  0.5204 -0.1828 -0.6456
  292MOL0     C39308  11.035   2.827   2.328 -0.0492  0.1451 -0.1564
  292MOL0     O39309  10.942   2.765   2.418  0.2479 -1.1856  0.7794
  292MOL0     C39310  10.939   2.631   2.424 -0.1281  0.3745  0.1949
  292MOL0     C39311  11.050   2.543   2.410 -0.3293  0.9433  0.4828
  292MOL0     C39312  11.027   2.401   2.436 -0.2086  0.0077 -0.7645
  292MOL0     C39313  11.151   2.308   2.434  0.0993 -0.2180  0.5877
  292MOL0     C39314  10.898   2.348   2.446  0.3778 -0.1638  0.8452
  292MOL0     C39315  10.865   2.207   2.461 -0.3695 -0.3571  0.3839
  292MOL0     O39316  10.739   2.172   2.423  1.0742  0.3680 -0.0997
  292MOL0     C39317  10.697   2.046   2.384 -0.7933  0.1789 -0.9923
  292MOL0     C39318  10.554   2.028   2.388 -0.4984  0.0353 -0.7381
  292MOL0     C39319  10.490   1.915   2.333  0.6763  0.0951 -0.3877
  292MOL0     C39320  10.572   1.815   2.277  0.2622  0.0677  0.6241
  292MOL0     O39321  10.508   1.706   2.225 -1.0985 -0.0869  0.0163
  292MOL0     C39322  10.576   1.614   2.146 -0.8139 -0.7453 -0.0836
  292MOL0     C39323  10.490   1.513   2.085  0.1004  0.8071 -1.1723
  292MOL0     C39324  10.451   1.408   2.188 -0.0103  0.0342  1.0949
  292MOL0     C39325  10.344   1.307   2.140 -0.2162 -0.2676  1.2168
  292MOL0     C39326  10.408   1.189   2.071 -1.3307  0.0696 -0.3996
  292MOL0     C39327  10.474   1.089   2.165  0.4506 -0.6849 -0.2732
  292MOL0     C39328  10.492   0.948   2.102  0.0326 -0.4177 -0.5493
  292MOL0     C39329  10.539   0.858   2.215 -0.0456  0.7970  0.5604
  292MOL0    Cl39330  10.392   0.838   2.314 -0.1995 -0.1786 -0.0741
  292MOL0     C39331  10.713   1.830   2.282 -0.6966 -0.6383 -0.0526
  292MOL0     C39332  10.774   1.944   2.336 -0.4885 -0.4135  0.0021
  292MOL0     O39333  10.941   2.132   2.508  0.5704  0.2335 -0.1937
  292MOL0     C39334  10.795   2.446   2.454 -0.6356  1.3723  0.5476
  292MOL0     C39335  10.810   2.581   2.437 -0.7395 -0.4758 -1.0939
  292MOL0     N39336  10.625   2.920   1.922 -0.8250  0.7468  0.1934
  292MOL0     N39337  10.499   2.900   1.882  0.8127  0.5755  0.0931
  292MOL0     C39338  10.434   2.426   1.101 -0.1862  0.3264 -0.4002
  292MOL0     C39339  10.568   2.411   1.066 -0.6545 -1.1114 -0.9003
  292MOL0     C39340  11.009   2.455   0.977  0.2831  1.1414 -0.2114
  292MOL0     C39341  11.024   2.517   0.855 -0.0439 -0.3191 -0.7703
  292MOL0     C39342  11.160   2.521   0.794  0.9819  1.0862  0.0031
  292MOL0     C39343  11.267   2.454   0.849 -0.8952  0.4880  0.1009
  292MOL0     O39344  11.396   2.450   0.811  0.6412 -0.5378 -0.1838
  292MOL0     C39345  11.421   2.443   0.671 -0.3897 -0.5704 -0.3970
  292MOL0     C39346  11.557   2.392   0.615  0.5404 -0.5087  0.0713
  292MOL0     C39347  11.659   2.445   0.699 -0.0690  0.2361 -0.3652
  292MOL0     C39348  11.806   2.396   0.666  0.0836  0.1731 -0.6795
  292MOL0     C39349  11.837   2.378   0.520  0.9315 -0.2498 -0.2386
  292MOL0     C39350  11.875   2.379   0.402 -0.1514 -0.3733 -0.5132
  292MOL0     C39351  11.250   2.387   0.971 -0.4407 -0.5629 -0.0822
  292MOL0     C39352  11.123   2.387   1.033  0.4906  1.0168  0.3153
  292MOL0     H39353  10.639   2.755   1.022 -0.5084  1.4039  1.2239
  292MOL0     H39354  10.412   2.758   1.133  0.2771  0.4325 -0.3853
  292MOL0     H39355  10.325   2.673   1.355 -0.6724  0.1305  1.4992
  292MOL0     H39356  10.169   2.710   1.285  1.2788  1.5603  2.7079
  292MOL0     H39357  10.133   2.459   1.360  2.0986 -1.2412 -0.1746
  292MOL0     H39358  10.264   2.487   1.471 -2.3777 -1.6288  1.5491
  292MOL0     H39359   9.981   2.616   1.446  0.7129  0.6649 -2.0971
  292MOL0     H39360  10.032   2.533   1.580  1.9649 -1.7190 -0.3863
  292MOL0     H39361  10.221   2.764   1.532 -0.5438 -0.4798 -1.0179
  292MOL0     H39362  10.060   2.817   1.539  3.7238  2.4168  0.1096
  292MOL0     H39363  10.002   2.704   1.751  0.4901 -1.8123  1.5119
  292MOL0     H39364  10.168   2.629   1.745 -0.6001 -0.1672 -1.5477
  292MOL0     H39365  10.260   2.857   1.731 -0.3481  1.3302 -1.4319
  292MOL0     H39366  10.097   2.923   1.766 -0.9745 -1.2374 -1.6907
  292MOL0     H39367  10.120   2.771   1.989 -0.7317  1.9150  1.0979
  292MOL0     H39368  10.263   2.712   1.934 -1.6158 -1.7569 -0.2262
  292MOL0     H39369  10.251   2.929   2.093 -0.7097  1.5452 -0.5385
  292MOL0     H39370  10.246   3.019   1.940  0.6195 -0.3150 -3.7993
  292MOL0     H39371  10.458   2.964   2.208 -0.9142 -2.1386  0.1151
  292MOL0     H39372  10.796   3.055   2.066  0.3276 -1.3054  0.1003
  292MOL0     H39373  10.712   3.062   2.219 -0.8585 -0.4592 -0.1477
  292MOL0     H39374  10.870   2.810   2.118  2.9797  0.6625  0.0565
  292MOL0     H39375  10.766   2.824   2.267 -3.3605 -1.7267 -2.4685
  292MOL0     H39376  10.940   3.011   2.313 -1.1742  0.9888 -2.4775
  292MOL0     H39377  11.022   2.965   2.168  1.2889  2.7010  1.2559
  292MOL0     H39378  11.115   2.884   2.375 -0.9057  1.2117  0.0397
  292MOL0     H39379  11.087   2.755   2.264  1.1709 -0.4915  1.4804
  292MOL0     H39380  11.145   2.592   2.395 -0.1919  0.0384 -2.0196
  292MOL0     H39381  11.242   2.357   2.400 -1.0399  2.0321  0.6110
  292MOL0     H39382  11.177   2.267   2.532  0.6347 -2.0764 -0.2777
  292MOL0     H39383  11.135   2.215   2.377 -2.0677 -1.5844  3.1771
  292MOL0     H39384  10.500   2.115   2.424 -0.7942 -0.6383  0.4668
  292MOL0     H39385  10.384   1.891   2.327  0.5479  0.0931  1.3587
  292MOL0     H39386  10.621   1.670   2.063 -0.2173 -1.2304 -0.0963
  292MOL0     H39387  10.651   1.566   2.209  0.2519  2.0417  0.9097
  292MOL0     H39388  10.399   1.561   2.048 -1.5678 -1.0989  0.2140
  292MOL0     H39389  10.536   1.469   1.996  0.7108 -2.2120  0.4937
  292MOL0     H39390  10.415   1.446   2.284 -0.9529 -0.1613  0.8312
  292MOL0     H39391  10.546   1.361   2.216  0.1365 -0.4212 -0.0990
  292MOL0     H39392  10.278   1.267   2.218 -0.8763 -0.6220  0.4888
  292MOL0     H39393  10.280   1.362   2.070  0.0932 -0.2692  0.9315
  292MOL0     H39394  10.479   1.216   1.992 -2.0599  2.4160 -0.3217
  292MOL0     H39395  10.323   1.149   2.015  0.0265  0.3859 -2.8133
  292MOL0     H39396  10.574   1.124   2.193 -0.6314  2.3861  0.1865
  292MOL0     H39397  10.423   1.091   2.262  0.4754 -4.4411 -0.0357
  292MOL0     H39398  10.572   0.948   2.027  1.2531  0.5039  0.6876
  292MOL0     H39399  10.401   0.908   2.058 -2.8026  0.3259  4.0323
  292MOL0     H39400  10.627   0.898   2.265  3.2192 -4.0089 -0.6981
  292MOL0     H39401  10.569   0.758   2.183 -0.6241  0.5089  0.8923
  292MOL0     H39402  10.768   1.748   2.238  1.0411  0.1992  0.4850
  292MOL0     H39403  10.882   1.950   2.339 -0.0474 -4.8077  0.4623
  292MOL0     H39404  10.697   2.415   2.489 -1.2976 -0.1658 -2.3124
  292MOL0     H39405  10.735   2.653   2.469 -1.7787 -0.9777 -2.3273
  292MOL0     H39406  10.371   2.342   1.129  2.0838 -1.2104  0.4350
  292MOL0     H39407  10.605   2.311   1.046 -0.9635 -0.8074 -3.2628
  292MOL0     H39408  10.938   2.567   0.812 -2.3162 -0.7727  2.8286
  292MOL0     H39409  11.165   2.588   0.708 -0.0454  0.2623 -0.7173
  292MOL0     H39410  11.346   2.376   0.630 -0.2420  0.1959 -1.9720
  292MOL0     H39411  11.396   2.540   0.626 -3.7415 -0.8597  0.5908
  292MOL0     H39412  11.557   2.430   0.512 -2.3838  0.1840  0.2425
  292MOL0     H39413  11.565   2.283   0.626 -0.5164 -0.5454  0.5824
  292MOL0     H39414  11.641   2.429   0.806  1.6618 -1.0035 -0.2222
  292MOL0     H39415  11.659   2.554   0.691 -2.8310  0.2842 -0.7003
  292MOL0     H39416  11.823   2.300   0.715 -1.5901  0.3267  0.3152
  292MOL0     H39417  11.875   2.467   0.714 -1.0491  3.1780 -3.1515
  292MOL0     H39418  11.900   2.371   0.298 -2.4045 -1.4061 -1.0431
  292MOL0     H39419  11.332   2.332   1.015  0.7478  4.1177  4.5250
  292MOL0     H39420  11.113   2.327   1.123  0.4915 -0.5393 -0.6730
  293MOL0     O39421   1.469  10.498  10.533  0.1897 -0.6269  0.2690
  293MOL0     C39422   1.364  10.463  10.595 -0.3156  0.3815 -0.4484
  293MOL0     O39423   1.305  10.529  10.696  0.4804  0.3430  0.1229
  293MOL0     C39424   1.238  10.645  10.653 -0.2612  0.2935 -0.0609
  293MOL0     C39425   1.294  10.750  10.583 -0.5034 -0.1325  0.1353
  293MOL0     C39426   1.222  10.856  10.531 -0.1379  0.0708  0.0934
  293MOL0     C39427   1.087  10.845  10.528  0.0860  0.0693  0.0633
  293MOL0     O39428   1.012  10.932  10.461  0.1241 -0.1936  0.8324
  293MOL0     C39429   1.076  11.048  10.396 -1.1832  0.2706  0.0915
  293MOL0     C39430   0.971  11.138  10.339  0.0692 -0.5836  0.6062
  293MOL0     C39431   0.878  11.071  10.235  1.1131 -0.4298  0.2279
  293MOL0     C39432   0.943  10.974  10.132  0.4029  0.2883 -0.8745
  293MOL0     C39433   0.836  10.957  10.026 -0.0264 -0.2578  0.2898
  293MOL0     C39434   0.700  10.899  10.069  0.2694 -0.3348  0.1732
  293MOL0     C39435   0.712  10.755  10.122  0.5765  0.4949  0.6639
  293MOL0     C39436   0.574  10.709  10.143 -0.1037 -1.0389  0.0372
  293MOL0     N39437   0.486  10.800  10.232  0.5482 -0.9518 -0.2869
  293MOL0     C39438   0.522  10.871  10.343  0.0199 -0.6807 -0.5304
  293MOL0     C39439   0.402  10.918  10.389 -1.3264  0.1995  1.3677
  293MOL0     C39440   0.398  10.997  10.516  0.9313 -0.5346 -0.7065
  293MOL0     C39441   0.522  10.994  10.609  0.3631 -0.0954  0.3575
  293MOL0     C39442   0.635  11.084  10.570  0.5521 -0.1543  0.3864
  293MOL0     C39443   0.757  11.054  10.663  0.5062  0.2457 -0.0965
  293MOL0     O39444   0.752  11.118  10.792 -0.0220 -1.1836 -0.3113
  293MOL0     C39445   0.855  11.086  10.871  0.5121 -0.3813  0.2572
  293MOL0     C39446   0.987  11.044  10.839  0.4355  0.0694 -0.2958
  293MOL0     C39447   1.088  11.018  10.938 -0.1584  0.4516 -0.5639
  293MOL0     C39448   1.230  11.005  10.886 -0.1112  0.4525 -0.9674
  293MOL0     C39449   1.048  11.043  11.071 -0.3652 -0.0999  0.3770
  293MOL0     C39450   1.147  11.038  11.180  0.7943  0.6724  0.0137
  293MOL0     O39451   1.105  10.962  11.286  0.3134 -0.6755 -0.4617
  293MOL0     C39452   1.190  10.927  11.388 -0.8559  0.4047 -0.1072
  293MOL0     C39453   1.127  10.914  11.508  0.6825 -0.5325 -0.5597
  293MOL0     C39454   1.191  10.875  11.632 -0.6698  0.2852  0.5731
  293MOL0     C39455   1.333  10.853  11.622 -0.2209 -1.1895  0.0702
  293MOL0     O39456   1.400  10.815  11.732  0.1255  0.1743 -0.9968
  293MOL0     C39457   1.479  10.695  11.712 -0.9148  0.5480 -0.1512
  293MOL0     C39458   1.594  10.693  11.811  0.2477  0.7013 -0.4713
  293MOL0     C39459   1.560  10.639  11.952 -0.2672 -0.2234 -0.2455
  293MOL0     C39460   1.682  10.576  12.021  0.9989  1.0338  0.6256
  293MOL0     C39461   1.681  10.585  12.176 -0.4911 -0.2894 -0.6929
  293MOL0     C39462   1.826  10.573  12.227  0.3464 -0.8272  0.0115
  293MOL0     C39463   1.827  10.579  12.385 -0.1586 -0.1499  0.1905
  293MOL0     C39464   1.777  10.719  12.430 -0.8043 -0.2812 -0.1246
  293MOL0    Cl39465   1.830  10.763  12.590  0.1304  0.0168 -0.3238
  293MOL0     C39466   1.393  10.867  11.493  0.2826 -0.0919 -0.2935
  293MOL0     C39467   1.327  10.900  11.377  0.0197 -0.4559  0.4207
  293MOL0     O39468   1.258  11.093  11.173 -0.2327 -0.0171  0.1266
  293MOL0     C39469   0.912  11.071  11.103 -0.0928 -0.2527 -0.4435
  293MOL0     C39470   0.817  11.095  11.006 -0.2759  0.6237  0.1678
  293MOL0     N39471   0.306  10.898  10.286 -0.2589  0.0710 -0.4547
  293MOL0     N39472   0.356  10.813  10.199 -0.3867  0.2645  0.1320
  293MOL0     C39473   1.024  10.739  10.593 -0.1625  0.5194  0.4775
  293MOL0     C39474   1.099  10.641  10.659  0.0494 -0.4607 -0.4237
  293MOL0     C39475   1.292  10.343  10.542 -0.8516  0.2761 -0.6241
  293MOL0     C39476   1.353  10.273  10.432 -0.0185 -0.1076  0.4173
  293MOL0     C39477   1.291  10.160  10.378 -0.5696 -0.4823  1.1460
  293MOL0     C39478   1.165  10.118  10.426  0.4413 -0.2645 -1.3612
  293MOL0     O39479   1.116  10.001  10.359 -0.4320 -0.6338 -0.1848
  293MOL0     C39480   0.992   9.965  10.407  0.5112 -0.0625  0.7727
  293MOL0     C39481   0.921   9.885  10.295 -0.1274 -0.4427  0.1462
  293MOL0     C39482   0.778   9.839  10.344 -0.2302  0.0675  0.9378
  293MOL0     C39483   0.689   9.796  10.224  1.0227  0.6182  0.1499
  293MOL0     C39484   0.760   9.689  10.144 -0.2697 -0.4299  0.5268
  293MOL0     C39485   0.819   9.593  10.097 -0.0678 -0.2954  0.6115
  293MOL0     C39486   1.106  10.197  10.529 -0.2524 -0.2411 -0.0849
  293MOL0     C39487   1.170  10.302  10.593  0.3369  0.2844  0.1108
  293MOL0     H39488   1.403  10.757  10.580 -0.3422  3.1266  4.3811
  293MOL0     H39489   1.285  10.923  10.474 -0.1107  1.3684  1.5623
  293MOL0     H39490   1.137  11.109  10.463  0.0595 -2.6649  1.7920
  293MOL0     H39491   1.146  11.028  10.314  0.9508  1.3053  1.5522
  293MOL0     H39492   0.909  11.165  10.424 -1.3710  3.3281 -1.4653
  293MOL0     H39493   1.008  11.234  10.303  0.0621 -1.3571 -1.6373
  293MOL0     H39494   0.804  11.008  10.286 -0.0020 -1.8983 -2.9488
  293MOL0     H39495   0.825  11.158  10.194  3.2692  1.7108  1.7556
  293MOL0     H39496   1.038  11.011  10.092  0.5427 -0.1050 -0.9125
  293MOL0     H39497   0.964  10.873  10.169 -0.0623  0.4425 -0.1891
  293MOL0     H39498   0.809  11.055   9.985 -1.2615 -0.3725  0.7805
  293MOL0     H39499   0.870  10.890   9.947 -2.8209  1.2333 -2.4089
  293MOL0     H39500   0.645  10.965  10.137 -1.1518 -1.5772  0.2652
  293MOL0     H39501   0.633  10.899   9.983 -2.1011  0.6669  1.9084
  293MOL0     H39502   0.758  10.692  10.046  0.1459 -1.4342  1.9367
  293MOL0     H39503   0.773  10.753  10.213  1.5480 -2.2652  0.0245
  293MOL0     H39504   0.563  10.618  10.203 -1.8656  1.0418  3.1479
  293MOL0     H39505   0.521  10.701  10.048 -0.8285  0.2770  0.3138
  293MOL0     H39506   0.621  10.882  10.386 -0.4260  3.4673 -0.1391
  293MOL0     H39507   0.380  11.100  10.484  0.6331  0.2311  1.7059
  293MOL0     H39508   0.308  10.956  10.563  0.9628  1.3606  1.1371
  293MOL0     H39509   0.562  10.893  10.594  2.3447  0.5764  0.7926
  293MOL0     H39510   0.501  11.005  10.716  0.0733  1.6394  0.1555
  293MOL0     H39511   0.598  11.185  10.590 -0.2074 -0.4871  0.6998
  293MOL0     H39512   0.660  11.077  10.463  1.0434  2.5540  0.2586
  293MOL0     H39513   0.852  11.074  10.612  0.2401  0.6243 -0.4546
  293MOL0     H39514   0.760  10.946  10.677  0.2356  0.3252  0.5910
  293MOL0     H39515   1.016  11.041  10.734 -1.5977  1.4635 -0.9488
  293MOL0     H39516   1.304  10.984  10.964  1.6550 -1.6340 -3.0193
  293MOL0     H39517   1.211  10.920  10.820 -1.8049 -1.1551  1.4214
  293MOL0     H39518   1.269  11.087  10.826  3.3547 -1.8494 -2.1797
  293MOL0     H39519   1.021  10.934  11.519  0.7198 -1.2261  1.3433
  293MOL0     H39520   1.142  10.862  11.728  1.1702 -1.2249  1.3912
  293MOL0     H39521   1.423  10.601  11.722 -2.6026  1.4058 -1.1007
  293MOL0     H39522   1.504  10.686  11.606 -0.7512  1.7508 -0.2255
  293MOL0     H39523   1.673  10.627  11.772  0.1724 -1.1368  2.1767
  293MOL0     H39524   1.652  10.786  11.816 -1.3350  1.7473 -1.0307
  293MOL0     H39525   1.478  10.566  11.945 -0.5137  0.1033 -0.8083
  293MOL0     H39526   1.501  10.713  12.007 -1.7350 -0.6851 -1.1244
  293MOL0     H39527   1.685  10.472  11.988 -0.7256  1.2180 -0.2470
  293MOL0     H39528   1.777  10.613  11.983  0.5955  1.7378  0.2700
  293MOL0     H39529   1.618  10.517  12.233 -3.6251  3.6422  1.0565
  293MOL0     H39530   1.643  10.685  12.201  0.2500  0.0257 -0.8003
  293MOL0     H39531   1.851  10.469  12.202 -0.2716 -0.2465 -3.5261
  293MOL0     H39532   1.889  10.642  12.171 -1.1333  1.2776  0.8131
  293MOL0     H39533   1.926  10.550  12.421  0.1427  0.5125 -0.0769
  293MOL0     H39534   1.756  10.504  12.422 -2.2022  0.8150 -1.5136
  293MOL0     H39535   1.669  10.727  12.418 -1.2479  1.2436  3.5260
  293MOL0     H39536   1.829  10.798  12.373 -1.5107  0.0415 -0.3297
  293MOL0     H39537   1.500  10.847  11.486  0.5116  1.4892 -2.0243
  293MOL0     H39538   1.378  10.911  11.282  0.1180 -0.5172  0.4661
  293MOL0     H39539   0.894  11.079  11.210  2.1040 -0.6492  0.0087
  293MOL0     H39540   0.712  11.116  11.027 -0.9177 -1.4841 -0.6133
  293MOL0     H39541   0.919  10.715  10.591 -0.0300 -0.1125  0.8068
  293MOL0     H39542   1.045  10.558  10.704  3.5628 -1.7415  1.8314
  293MOL0     H39543   1.451  10.304  10.398  0.1846 -0.7329  0.4318
  293MOL0     H39544   1.329  10.109  10.290  1.1584 -2.4017  2.9232
  293MOL0     H39545   1.016   9.903  10.494 -0.4063  0.1352  1.1837
  293MOL0     H39546   0.926  10.041  10.451 -0.3866 -1.3638  1.7677
  293MOL0     H39547   0.984   9.799  10.268 -0.4417 -0.5136 -0.3748
  293MOL0     H39548   0.921   9.951  10.208  2.5758 -0.2476  0.1960
  293MOL0     H39549   0.730   9.934  10.371 -4.8071 -1.3968 -1.0069
  293MOL0     H39550   0.770   9.770  10.428 -0.7241 -0.9504  0.0659
  293MOL0     H39551   0.657   9.882  10.164 -2.9997  1.0592  2.5451
  293MOL0     H39552   0.600   9.745  10.261  2.0804 -0.5496  1.1555
  293MOL0     H39553   0.863   9.501  10.063  0.6193 -1.2123  3.7315
  293MOL0     H39554   1.005  10.177  10.563 -1.9926  1.0268 -3.9846
  293MOL0     H39555   1.130  10.346  10.684  0.7504 -1.0107  0.9516
  294MOL0     O39556   6.645   1.419   7.910 -1.1429 -0.1399 -0.6404
  294MOL0     C39557   6.531   1.369   7.919 -0.3456  0.8328  0.6371
  294MOL0     O39558   6.459   1.358   8.031 -1.2130 -0.6740  1.2540
  294MOL0     C39559   6.518   1.430   8.140 -0.0084 -0.5272 -0.3156
  294MOL0     C39560   6.431   1.516   8.215 -0.0132  0.2740 -0.1117
  294MOL0     C39561   6.466   1.580   8.335  0.2754 -0.0272  0.2101
  294MOL0     C39562   6.595   1.564   8.382 -0.1760  0.2058 -0.8851
  294MOL0     O39563   6.628   1.618   8.508  0.6771 -0.6707  0.1799
  294MOL0     C39564   6.634   1.763   8.492  0.4403  0.0222  0.4904
  294MOL0     C39565   6.664   1.821   8.634 -0.7888  0.7614  0.3576
  294MOL0     C39566   6.799   1.780   8.682 -1.1707 -0.7556 -0.4649
  294MOL0     C39567   6.921   1.830   8.619 -0.5693 -0.4585 -0.7028
  294MOL0     C39568   7.058   1.793   8.683  0.0981 -0.1515  1.1820
  294MOL0     C39569   7.197   1.847   8.619 -0.6435 -0.3025 -1.1733
  294MOL0     C39570   7.315   1.772   8.673  0.2267 -0.3827  0.6273
  294MOL0     C39571   7.439   1.795   8.579  0.4295 -0.6831  0.1681
  294MOL0     N39572   7.463   1.703   8.467 -0.6449  0.4477 -0.0974
  294MOL0     C39573   7.376   1.677   8.367  0.7572  0.4694  1.1015
  294MOL0     C39574   7.430   1.570   8.309  0.8260 -0.7020  0.0669
  294MOL0     C39575   7.349   1.504   8.199 -1.2326  0.1605  0.3826
  294MOL0     C39576   7.422   1.390   8.121 -0.2956  0.3792 -0.0666
  294MOL0     C39577   7.331   1.288   8.037  0.1099  0.0893  0.5046
  294MOL0     C39578   7.401   1.233   7.916  0.1992 -0.4142  0.0736
  294MOL0     O39579   7.480   1.118   7.967 -0.3905  0.1786  0.4875
  294MOL0     C39580   7.569   1.079   7.882 -0.6325  0.4422 -0.7822
  294MOL0     C39581   7.707   1.075   7.921  0.1924  0.0718  0.4342
  294MOL0     C39582   7.809   1.022   7.834  0.2261 -0.1813  0.2967
  294MOL0     C39583   7.939   0.994   7.904  0.3181  0.8427  0.2338
  294MOL0     C39584   7.782   0.992   7.689  0.0394 -0.3802 -0.0980
  294MOL0     C39585   7.888   0.958   7.592  0.1748 -0.4102  0.2828
  294MOL0     O39586   8.019   0.964   7.627  0.1356 -0.8363  0.4529
  294MOL0     C39587   8.097   0.933   7.517  0.5327  0.8497  0.4230
  294MOL0     C39588   8.163   0.811   7.523  0.1239 -0.7426  0.3904
  294MOL0     C39589   8.238   0.764   7.412  0.7006  0.1369 -0.3477
  294MOL0     C39590   8.260   0.844   7.300 -0.4786 -0.0138 -0.0072
  294MOL0     O39591   8.330   0.805   7.192  0.4770  0.4095 -0.0340
  294MOL0     C39592   8.416   0.690   7.208 -0.2454  0.1446  0.9290
  294MOL0     C39593   8.500   0.664   7.079 -0.3173 -0.5667  0.8103
  294MOL0     C39594   8.521   0.801   7.005  0.3069  0.2592 -0.5634
  294MOL0     C39595   8.642   0.872   7.071  0.3888 -0.7442 -0.2982
  294MOL0     C39596   8.657   1.020   7.027  0.0387 -0.1758  0.3015
  294MOL0     C39597   8.701   1.043   6.884  0.6515  0.5859  0.2563
  294MOL0     C39598   8.723   1.181   6.838 -0.7835  0.4313  0.3800
  294MOL0     C39599   8.866   1.239   6.883 -0.0031  0.4886  0.0275
  294MOL0    Cl39600   8.888   1.401   6.806  0.6158 -0.0879  0.0147
  294MOL0     C39601   8.191   0.965   7.293  0.8164 -0.4509 -0.1568
  294MOL0     C39602   8.112   1.018   7.401 -0.9925  0.3207  0.0782
  294MOL0     O39603   7.848   0.923   7.482  0.1583  0.6598 -0.3752
  294MOL0     C39604   7.642   0.989   7.660  0.0373 -0.3154 -0.0420
  294MOL0     C39605   7.541   1.041   7.745  0.2042  0.2657  0.7902
  294MOL0     N39606   7.549   1.530   8.365 -0.0527 -0.3587  0.1491
  294MOL0     N39607   7.564   1.607   8.464  0.6929  0.3344 -0.3183
  294MOL0     C39608   6.682   1.485   8.314 -0.3974  0.6747 -0.0577
  294MOL0     C39609   6.646   1.423   8.189  0.4175 -1.0084  0.0292
  294MOL0     C39610   6.480   1.297   7.800 -0.3906 -0.0300 -0.5823
  294MOL0     C39611   6.559   1.288   7.678 -0.1886 -0.6810 -0.9041
  294MOL0     C39612   6.506   1.234   7.556  0.7966  0.2612  0.0983
  294MOL0     C39613   6.374   1.182   7.556 -0.3901  0.1593  0.4638
  294MOL0     O39614   6.321   1.127   7.449 -0.6166 -0.6083  0.1616
  294MOL0     C39615   6.262   1.222   7.360  0.6217 -0.5175 -0.1465
  294MOL0     C39616   6.244   1.168   7.227 -0.0628 -0.8042  0.7045
  294MOL0     C39617   6.360   1.189   7.134 -0.1185  0.3728  0.2430
  294MOL0     C39618   6.491   1.116   7.153  0.3869 -1.0867 -0.0064
  294MOL0     C39619   6.594   1.148   7.048  0.8322  0.3451  0.2143
  294MOL0     C39620   6.677   1.166   6.961  0.4473 -0.8675 -0.2834
  294MOL0     C39621   6.303   1.191   7.666 -0.6501  0.8945 -0.6422
  294MOL0     C39622   6.353   1.249   7.786 -0.0701  0.0448  0.0509
  294MOL0     H39623   6.327   1.518   8.183 -0.0370 -0.8352 -0.1302
  294MOL0     H39624   6.388   1.637   8.383 -0.0608 -0.0026 -0.3572
  294MOL0     H39625   6.722   1.783   8.430  1.8279  1.7654  2.8358
  294MOL0     H39626   6.550   1.824   8.459  0.4294 -0.3567 -0.1946
  294MOL0     H39627   6.661   1.931   8.632 -1.3180  0.7436 -0.3390
  294MOL0     H39628   6.590   1.797   8.712  0.7446 -0.2862  1.5419
  294MOL0     H39629   6.804   1.801   8.790 -0.7092 -1.5476 -0.3222
  294MOL0     H39630   6.815   1.673   8.695 -0.0463 -0.3854  1.6720
  294MOL0     H39631   6.920   1.791   8.517 -0.8915  1.4777 -1.4816
  294MOL0     H39632   6.919   1.938   8.602  3.6557 -0.4842 -2.4754
  294MOL0     H39633   7.055   1.815   8.791 -3.1281  1.1935  0.9462
  294MOL0     H39634   7.063   1.685   8.666 -4.8371 -0.4404 -0.0582
  294MOL0     H39635   7.177   1.849   8.512 -0.6039  0.6772 -1.1721
  294MOL0     H39636   7.220   1.949   8.651  2.0092 -0.3845 -2.5437
  294MOL0     H39637   7.347   1.805   8.773  0.0298 -0.8196  0.8370
  294MOL0     H39638   7.312   1.663   8.665  0.2478 -0.2133 -2.8739
  294MOL0     H39639   7.529   1.789   8.641  2.0171 -1.1739 -2.0697
  294MOL0     H39640   7.435   1.901   8.551  1.1785  0.5387  4.0018
  294MOL0     H39641   7.280   1.725   8.350  0.3599 -0.9776 -1.2142
  294MOL0     H39642   7.260   1.454   8.238  0.0215 -2.8458 -0.3413
  294MOL0     H39643   7.307   1.570   8.122 -1.5961 -0.1277  0.3331
  294MOL0     H39644   7.480   1.334   8.194 -1.3636 -0.4679  0.1652
  294MOL0     H39645   7.485   1.444   8.050 -1.4761  0.1511 -1.3326
  294MOL0     H39646   7.245   1.347   8.004 -0.8076 -1.1545  0.6174
  294MOL0     H39647   7.295   1.212   8.107  1.4824  0.4162  1.6115
  294MOL0     H39648   7.465   1.309   7.871 -0.3198  0.1509  0.2810
  294MOL0     H39649   7.326   1.201   7.842  1.2299 -0.1013 -1.1493
  294MOL0     H39650   7.734   1.109   8.021  0.2775 -0.8723  0.7375
  294MOL0     H39651   7.913   0.954   8.002 -3.2059 -3.7552 -2.1475
  294MOL0     H39652   7.979   0.905   7.855 -2.0955  0.9282 -2.1674
  294MOL0     H39653   8.008   1.077   7.919  1.4255  0.0499 -0.3155
  294MOL0     H39654   8.137   0.746   7.606 -1.4828  0.9245  1.2832
  294MOL0     H39655   8.274   0.662   7.417  0.7796  0.1588 -0.4680
  294MOL0     H39656   8.489   0.702   7.289  5.1476  1.0419 -3.4608
  294MOL0     H39657   8.346   0.607   7.221 -1.2501  0.5609 -1.3309
  294MOL0     H39658   8.592   0.621   7.120  1.0506  1.5160  0.0710
  294MOL0     H39659   8.443   0.597   7.014 -3.1160  1.5598  0.8703
  294MOL0     H39660   8.434   0.867   7.008 -1.3053 -1.7425  2.6947
  294MOL0     H39661   8.550   0.780   6.902  1.9650  1.0535 -0.2906
  294MOL0     H39662   8.627   0.864   7.179  0.6279  0.3775 -0.1791
  294MOL0     H39663   8.732   0.819   7.039  1.3979  0.3445  0.6591
  294MOL0     H39664   8.719   1.080   7.094  0.1665  1.8201 -1.5024
  294MOL0     H39665   8.566   1.080   7.037  0.8322  1.8914 -3.1581
  294MOL0     H39666   8.791   0.984   6.862  0.3283 -1.2586  3.3170
  294MOL0     H39667   8.622   1.007   6.818  0.1303  0.4679  0.9362
  294MOL0     H39668   8.642   1.246   6.872 -0.7257 -0.6039  2.7360
  294MOL0     H39669   8.723   1.178   6.729 -1.2968 -1.0788  0.3996
  294MOL0     H39670   8.947   1.167   6.871  2.1896  3.1158 -2.5536
  294MOL0     H39671   8.857   1.256   6.991  1.3815 -2.9979  0.8208
  294MOL0     H39672   8.208   1.014   7.197 -0.5722 -0.1408 -0.2710
  294MOL0     H39673   8.051   1.106   7.386 -2.0829 -0.8996 -3.7823
  294MOL0     H39674   7.601   0.961   7.563  1.1974  1.1540 -1.0061
  294MOL0     H39675   7.443   1.050   7.699  1.0577  0.8209 -1.0647
  294MOL0     H39676   6.782   1.456   8.343  0.7288  2.4112 -1.9974
  294MOL0     H39677   6.711   1.352   8.138  0.7123 -1.8062  1.4782
  294MOL0     H39678   6.666   1.305   7.684 -0.2506 -0.3472 -0.6890
  294MOL0     H39679   6.560   1.251   7.464  0.1371  0.9362 -0.1767
  294MOL0     H39680   6.163   1.239   7.403  2.3449  1.4935  3.4882
  294MOL0     H39681   6.316   1.318   7.355 -0.3673  0.2286  2.1739
  294MOL0     H39682   6.165   1.219   7.171 -0.0210 -1.6474 -0.1353
  294MOL0     H39683   6.226   1.061   7.236  0.0837 -1.0679 -1.5669
  294MOL0     H39684   6.382   1.296   7.122 -0.8595  0.5796  0.7024
  294MOL0     H39685   6.328   1.158   7.034 -0.2495  0.7351  0.1702
  294MOL0     H39686   6.464   1.011   7.150 -1.5555 -0.6011 -2.2784
  294MOL0     H39687   6.540   1.144   7.247 -0.7426  1.4566 -0.0778
  294MOL0     H39688   6.744   1.194   6.882 -0.0364  0.7047 -0.1715
  294MOL0     H39689   6.202   1.152   7.674  0.3932 -2.7971 -3.0011
  294MOL0     H39690   6.283   1.249   7.870  1.7380  2.0487  1.6598
  295MOL0     O39691   4.051  10.933   9.158  0.5086 -0.7100  0.7653
  295MOL0     C39692   4.124  11.035   9.157  0.6171  0.3608  0.3963
  295MOL0     O39693   4.210  11.076   9.259  0.3385 -0.0121  0.6044
  295MOL0     C39694   4.238  10.984   9.360  1.3147  0.3048  0.4795
  295MOL0     C39695   4.236  11.022   9.497 -1.3664  0.8826 -0.2143
  295MOL0     C39696   4.253  10.930   9.606 -0.2772 -0.8742 -0.1330
  295MOL0     C39697   4.285  10.801   9.574 -0.2591  0.3577  0.1330
  295MOL0     O39698   4.309  10.710   9.680 -0.5278  0.8654  0.9602
  295MOL0     C39699   4.211  10.602   9.680 -0.5560  0.9370 -0.4082
  295MOL0     C39700   4.215  10.526   9.817  0.7944 -0.6861 -0.4879
  295MOL0     C39701   4.136  10.395   9.816 -0.6468  0.4531  0.4832
  295MOL0     C39702   4.023  10.391   9.921  0.2373  0.2967 -0.2105
  295MOL0     C39703   3.942  10.268   9.928  0.0247  0.3194 -0.0509
  295MOL0     C39704   3.824  10.273  10.035 -0.2237 -1.0763  0.7305
  295MOL0     C39705   3.850  10.376  10.144  0.5106  0.2470  0.0045
  295MOL0     C39706   3.724  10.414  10.227  0.1693  0.2892  1.2257
  295MOL0     N39707   3.615  10.488  10.151 -0.2655 -0.2725 -0.2387
  295MOL0     C39708   3.503  10.427  10.094 -0.6200 -1.1968  1.2328
  295MOL0     C39709   3.429  10.533  10.067  0.1170 -0.0211  0.7921
  295MOL0     C39710   3.285  10.522  10.011  0.7725 -0.3981  1.0978
  295MOL0     C39711   3.301  10.456   9.875  0.1152  0.0700  0.6833
  295MOL0     C39712   3.168  10.448   9.799  1.0679  0.8883  0.5214
  295MOL0     C39713   3.185  10.387   9.653  0.1870 -0.5418  0.4229
  295MOL0     O39714   3.296  10.450   9.586 -0.5323 -0.4944  0.2530
  295MOL0     C39715   3.333  10.406   9.459 -0.1449 -1.0622  0.0048
  295MOL0     C39716   3.413  10.488   9.382  0.1179  0.3258  0.4148
  295MOL0     C39717   3.451  10.460   9.250 -1.0676 -0.0020 -0.1365
  295MOL0     C39718   3.536  10.564   9.179 -0.8204 -0.2844  0.5975
  295MOL0     C39719   3.408  10.337   9.198 -1.5464 -0.8446 -0.3243
  295MOL0     C39720   3.470  10.286   9.065  0.5116 -0.1009  1.0117
  295MOL0     O39721   3.547  10.366   8.980 -0.4519 -0.3608 -0.0158
  295MOL0     C39722   3.595  10.302   8.878 -0.9258  0.8077  0.4182
  295MOL0     C39723   3.551  10.312   8.745 -1.3232  0.3704  0.1482
  295MOL0     C39724   3.619  10.246   8.636 -0.5173 -1.0154 -0.1636
  295MOL0     C39725   3.740  10.172   8.665  0.3653  0.0237  0.5787
  295MOL0     O39726   3.821  10.118   8.569 -0.5273  0.2083 -0.6483
  295MOL0     C39727   3.772  10.115   8.434 -0.5491 -0.7191 -0.9858
  295MOL0     C39728   3.836  10.007   8.349  0.3786  0.1099 -0.3022
  295MOL0     C39729   3.980   9.969   8.373  0.0805  0.1775  0.1912
  295MOL0     C39730   4.076  10.060   8.290 -0.2046 -0.6950 -0.0819
  295MOL0     C39731   4.225  10.022   8.321 -0.4102  0.0678  0.3276
  295MOL0     C39732   4.332  10.102   8.246 -0.4350  0.1273 -0.0213
  295MOL0     C39733   4.480  10.085   8.284  0.6267 -0.5807 -0.1538
  295MOL0     C39734   4.525  10.156   8.407  0.8305 -0.6216 -0.9293
  295MOL0    Cl39735   4.704  10.132   8.431  0.0221 -0.3538  0.0530
  295MOL0     C39736   3.772  10.149   8.801 -0.3260 -0.0829 -0.1710
  295MOL0     C39737   3.708  10.220   8.901  0.6315  0.4438  0.4583
  295MOL0     O39738   3.429  10.173   9.038 -0.5242  0.3319  0.1240
  295MOL0     C39739   3.322  10.260   9.277  0.6015 -0.4044 -0.9084
  295MOL0     C39740   3.282  10.292   9.397  0.4562 -0.0993 -0.5134
  295MOL0     N39741   3.484  10.658  10.104 -0.7255  0.3165 -0.1547
  295MOL0     N39742   3.594  10.621  10.160 -0.5578  0.0288 -1.7993
  295MOL0     C39743   4.317  10.767   9.440 -0.5421  0.4055 -0.2968
  295MOL0     C39744   4.274  10.852   9.337 -1.1587  0.4175  0.1896
  295MOL0     C39745   4.112  11.123   9.038  0.0717  0.3517 -0.1727
  295MOL0     C39746   4.165  11.255   9.037  0.9964 -0.7824  0.2892
  295MOL0     C39747   4.161  11.326   8.916  0.6765 -0.1984  0.5236
  295MOL0     C39748   4.100  11.273   8.794  0.5962  0.2106 -0.4448
  295MOL0     O39749   4.110  11.353   8.684  0.1643  0.3970 -0.3629
  295MOL0     C39750   4.069  11.305   8.559 -0.8672 -0.3333 -0.5832
  295MOL0     C39751   3.917  11.312   8.540 -0.4425  0.3464  0.4723
  295MOL0     C39752   3.887  11.267   8.406  0.2476  0.6716  1.0792
  295MOL0     C39753   3.923  11.120   8.364  1.1377 -0.0613 -0.0656
  295MOL0     C39754   3.843  11.023   8.443 -0.0839 -0.4359  1.1363
  295MOL0     C39755   3.782  10.956   8.509 -0.1590  0.1597 -0.5914
  295MOL0     C39756   4.051  11.143   8.796 -0.4405  0.2214 -0.6750
  295MOL0     C39757   4.056  11.071   8.919 -0.8832 -1.0696 -0.9815
  295MOL0     H39758   4.219  11.128   9.514  0.2731  1.2413 -0.6727
  295MOL0     H39759   4.245  10.972   9.706  0.8096  1.7970 -1.0689
  295MOL0     H39760   4.110  10.642   9.670 -1.9081 -1.5976  1.8884
  295MOL0     H39761   4.227  10.538   9.593  0.2385 -1.9720  1.7344
  295MOL0     H39762   4.314  10.524   9.863  0.1333 -0.6859  0.9715
  295MOL0     H39763   4.158  10.595   9.880  0.9955  1.0890 -2.1613
  295MOL0     H39764   4.087  10.373   9.721  0.5844  1.6122 -0.4396
  295MOL0     H39765   4.206  10.311   9.824 -2.2121 -1.0575 -0.7573
  295MOL0     H39766   4.077  10.419  10.012 -1.1207  2.2157  0.0624
  295MOL0     H39767   3.960  10.478   9.899  2.3160  1.4975 -1.8189
  295MOL0     H39768   3.892  10.245   9.834 -3.1184 -0.5173  1.6694
  295MOL0     H39769   4.006  10.180   9.940  0.6064  0.3287 -2.5252
  295MOL0     H39770   3.746  10.316   9.972  2.2264  0.1004 -1.7037
  295MOL0     H39771   3.799  10.171  10.067 -1.7113 -1.2079 -0.7142
  295MOL0     H39772   3.917  10.322  10.211 -0.0895 -4.3424 -2.6630
  295MOL0     H39773   3.892  10.474  10.119 -1.8057  0.6639 -2.8472
  295MOL0     H39774   3.743  10.461  10.324  1.8922  3.2402 -0.4020
  295MOL0     H39775   3.679  10.316  10.244 -0.1393 -0.4191 -2.6859
  295MOL0     H39776   3.470  10.324  10.093  1.4229 -1.8997  1.6477
  295MOL0     H39777   3.225  10.454  10.073 -3.0487 -2.1356 -3.8631
  295MOL0     H39778   3.238  10.620  10.007 -0.8948 -1.1769  0.7586
  295MOL0     H39779   3.333  10.352   9.882 -1.2129 -0.4970 -0.8401
  295MOL0     H39780   3.372  10.509   9.811 -0.9262 -1.7800 -2.2353
  295MOL0     H39781   3.141  10.551   9.777  2.2699  0.4161 -4.3933
  295MOL0     H39782   3.095  10.390   9.856  0.6568  1.7560  0.8960
  295MOL0     H39783   3.093  10.407   9.598 -2.1741 -2.2106  3.3946
  295MOL0     H39784   3.194  10.279   9.664  0.8154 -0.3222  2.5515
  295MOL0     H39785   3.463  10.574   9.426 -0.0158 -1.0063  3.3889
  295MOL0     H39786   3.633  10.523   9.148 -0.7844 -1.0711  1.6934
  295MOL0     H39787   3.478  10.586   9.089 -0.5677  0.1384  0.5354
  295MOL0     H39788   3.532  10.657   9.236 -6.2232  0.2656 -0.1860
  295MOL0     H39789   3.458  10.357   8.713  0.6548  3.6351 -1.4730
  295MOL0     H39790   3.580  10.270   8.537  0.3806 -0.0835 -0.3146
  295MOL0     H39791   3.667  10.085   8.433 -0.9050  0.0936  2.1831
  295MOL0     H39792   3.789  10.217   8.398  3.0487  0.3813  2.9521
  295MOL0     H39793   3.772   9.918   8.350  0.9789 -0.3654 -1.6356
  295MOL0     H39794   3.828  10.051   8.249 -0.5084  3.7665  1.2327
  295MOL0     H39795   3.999   9.865   8.345  1.5699 -0.6672  3.7716
  295MOL0     H39796   4.004   9.982   8.479  2.4436 -0.1783 -0.2475
  295MOL0     H39797   4.070  10.042   8.182 -0.1301  3.1913 -0.9068
  295MOL0     H39798   4.054  10.167   8.303 -0.0566 -0.5489 -0.9351
  295MOL0     H39799   4.234   9.921   8.281  0.7212  0.3860 -0.2723
  295MOL0     H39800   4.240  10.023   8.429  2.8229 -0.0804 -0.0182
  295MOL0     H39801   4.314  10.077   8.141  0.7547 -0.9097  0.0020
  295MOL0     H39802   4.315  10.207   8.273  0.9505  0.8211 -1.5909
  295MOL0     H39803   4.539  10.135   8.207 -0.9923  0.8542 -0.5340
  295MOL0     H39804   4.489   9.976   8.291  1.2210 -0.4974  0.4957
  295MOL0     H39805   4.467  10.131   8.496 -1.5472  2.2007 -1.5502
  295MOL0     H39806   4.507  10.260   8.378  1.6120 -0.8227 -2.2370
  295MOL0     H39807   3.854  10.087   8.834  0.2256 -0.4584 -2.1085
  295MOL0     H39808   3.745  10.213   9.003  2.0799  0.9698 -0.0150
  295MOL0     H39809   3.292  10.159   9.251  0.4537  0.1850 -3.3039
  295MOL0     H39810   3.211  10.226   9.448 -1.8899  1.3251 -1.7444
  295MOL0     H39811   4.337  10.663   9.415 -0.9176  0.5747 -1.3514
  295MOL0     H39812   4.279  10.828   9.231 -1.8862 -1.7280  0.5860
  295MOL0     H39813   4.208  11.304   9.123  0.3007  0.3532  0.0086
  295MOL0     H39814   4.197  11.429   8.909 -0.5120  0.1908 -0.2258
  295MOL0     H39815   4.109  11.377   8.487  2.2118 -0.1364  1.1577
  295MOL0     H39816   4.110  11.205   8.542 -1.1701  0.0140 -3.9706
  295MOL0     H39817   3.874  11.412   8.553 -0.1105  0.8199 -1.6403
  295MOL0     H39818   3.863  11.243   8.606 -0.3131 -0.3932 -0.1899
  295MOL0     H39819   3.939  11.334   8.336 -1.9245  0.7349 -0.5616
  295MOL0     H39820   3.780  11.287   8.399 -0.0954 -0.3353  2.8574
  295MOL0     H39821   4.027  11.100   8.390  0.1416 -1.2102  3.7191
  295MOL0     H39822   3.900  11.106   8.258  0.4901  2.4656 -0.3243
  295MOL0     H39823   3.717  10.898   8.571  1.0885 -0.5810  0.0662
  295MOL0     H39824   4.020  11.093   8.705 -1.6365  0.1464 -0.2363
  295MOL0     H39825   4.017  10.970   8.919 -1.7933 -0.8053  2.1356
  296MOL0     O39826   2.169   5.363  10.040 -0.7374 -0.5391 -0.4235
  296MOL0     C39827   2.234   5.260  10.049 -0.2238  0.3070 -0.1373
  296MOL0     O39828   2.287   5.201  10.169 -0.1323  0.8902 -0.0821
  296MOL0     C39829   2.262   5.257  10.297 -0.1670 -0.0123  0.3058
  296MOL0     C39830   2.152   5.332  10.338 -0.4420  0.0092 -0.5545
  296MOL0     C39831   2.137   5.368  10.473 -0.5939  1.2209  0.3984
  296MOL0     C39832   2.241   5.333  10.568  0.3961 -0.4284  0.3708
  296MOL0     O39833   2.222   5.381  10.698 -0.3108  0.5340 -0.1083
  296MOL0     C39834   2.287   5.312  10.804  1.1758  0.0866  0.2057
  296MOL0     C39835   2.295   5.400  10.931  0.6458 -0.0712 -1.1144
  296MOL0     C39836   2.396   5.508  10.916 -0.3563 -0.4100  0.0917
  296MOL0     C39837   2.440   5.582  11.051 -0.5054  0.5145 -0.1347
  296MOL0     C39838   2.553   5.679  11.044 -0.3245 -0.3118  0.1603
  296MOL0     C39839   2.575   5.771  11.167 -0.0532  0.1263  0.1166
  296MOL0     C39840   2.465   5.883  11.166  1.1173 -0.1194  0.2618
  296MOL0     C39841   2.493   5.997  11.260 -0.1952 -0.4061  0.1084
  296MOL0     N39842   2.517   5.934  11.397  0.6992 -0.3678 -0.5382
  296MOL0     C39843   2.434   5.928  11.510  0.6954  0.6335 -1.0799
  296MOL0     C39844   2.510   5.891  11.611  0.3086 -0.0328  0.1230
  296MOL0     C39845   2.478   5.861  11.759 -0.7627 -0.0713  0.1606
  296MOL0     C39846   2.474   5.710  11.806 -0.4150  0.2173 -0.7232
  296MOL0     C39847   2.379   5.703  11.926 -0.3938  0.0933 -0.1837
  296MOL0     C39848   2.425   5.784  12.040 -0.9432  0.8051 -0.1416
  296MOL0     O39849   2.562   5.750  12.071 -0.2292 -0.3246 -0.2006
  296MOL0     C39850   2.612   5.823  12.184 -0.8210  0.2313  1.0389
  296MOL0     C39851   2.554   5.926  12.257 -0.2325 -0.2360 -0.2407
  296MOL0     C39852   2.610   6.003  12.361 -0.4619  0.6126 -0.0502
  296MOL0     C39853   2.536   6.119  12.420 -0.0422 -0.2519 -0.3624
  296MOL0     C39854   2.746   5.970  12.393 -0.2740  0.3525 -0.0670
  296MOL0     C39855   2.834   6.047  12.500  0.3230  0.6155 -0.1411
  296MOL0     O39856   2.958   5.991  12.520 -0.3325  0.0643 -0.2165
  296MOL0     C39857   3.054   6.055  12.598  0.4219 -0.2805 -0.3764
  296MOL0     C39858   3.164   5.982  12.629  0.2565 -0.2734  0.1472
  296MOL0     C39859   3.267   6.028  12.704 -0.2616 -0.1944  0.3595
  296MOL0     C39860   3.277   6.161  12.756 -0.6140 -0.2610 -0.5339
  296MOL0     O39861   3.377   6.236  12.824  0.0391  0.2270 -0.3162
  296MOL0     C39862   3.485   6.142  12.848  0.5901  0.0497  1.0910
  296MOL0     C39863   3.568   6.222  12.952  0.6776  0.0318  0.0924
  296MOL0     C39864   3.520   6.185  13.093 -0.4306  0.0997 -0.3407
  296MOL0     C39865   3.585   6.291  13.196  0.2231  0.1435 -0.8419
  296MOL0     C39866   3.563   6.240  13.333  0.1499  0.0354  0.3755
  296MOL0     C39867   3.598   6.337  13.449  0.6249 -0.8848  0.2863
  296MOL0     C39868   3.741   6.388  13.444 -0.2353 -0.8168  0.1394
  296MOL0     C39869   3.859   6.281  13.454  0.6300  0.4566  0.9655
  296MOL0    Cl39870   4.022   6.363  13.423 -0.1745 -0.3825 -0.1817
  296MOL0     C39871   3.170   6.241  12.718  1.2458 -0.7710  0.2726
  296MOL0     C39872   3.062   6.191  12.636  0.2951 -0.4346 -0.4371
  296MOL0     O39873   2.786   6.150  12.552 -0.6206  0.3416  0.0669
  296MOL0     C39874   2.808   5.858  12.326  0.3949  0.3183 -0.2940
  296MOL0     C39875   2.739   5.788  12.222  0.8573 -0.4260  0.6691
  296MOL0     N39876   2.645   5.886  11.565 -0.2582  0.0572 -0.6164
  296MOL0     N39877   2.640   5.922  11.446 -0.5860  0.2188 -1.1789
  296MOL0     C39878   2.335   5.247  10.530 -0.8987  0.6823  0.7079
  296MOL0     C39879   2.350   5.204  10.394  0.0372 -0.2509  0.4399
  296MOL0     C39880   2.258   5.195   9.919 -0.9994  0.1529 -0.8660
  296MOL0     C39881   2.319   5.062   9.913  0.7736  0.2612  1.0383
  296MOL0     C39882   2.316   4.992   9.786 -0.2603  0.2221 -0.4344
  296MOL0     C39883   2.260   5.046   9.673 -0.1871 -0.0874  0.9587
  296MOL0     O39884   2.286   4.982   9.554 -0.2840  0.7008  0.0044
  296MOL0     C39885   2.238   5.026   9.432  0.5168  0.2611  0.5574
  296MOL0     C39886   2.240   4.893   9.346  0.5341 -0.0771  0.7488
  296MOL0     C39887   2.149   4.884   9.228  0.2647  0.6890  0.8598
  296MOL0     C39888   2.198   4.777   9.130  0.2303 -0.2304  0.2643
  296MOL0     C39889   2.109   4.731   9.021  0.2280  0.0820 -0.4388
  296MOL0     C39890   2.048   4.682   8.933  0.0083  0.2792 -0.0836
  296MOL0     C39891   2.201   5.173   9.691  0.1132  0.0684  0.1260
  296MOL0     C39892   2.200   5.246   9.807  0.5351 -0.4878 -0.2338
  296MOL0     H39893   2.089   5.370  10.258 -0.2309  0.0982 -0.6824
  296MOL0     H39894   2.055   5.429  10.508 -0.0847  0.5815  2.8994
  296MOL0     H39895   2.234   5.221  10.833  1.6304  0.3130  1.8728
  296MOL0     H39896   2.390   5.287  10.776  1.8243  3.0604 -0.3730
  296MOL0     H39897   2.199   5.442  10.963  1.7115  0.9603  0.9640
  296MOL0     H39898   2.326   5.329  11.008 -0.2048  0.0416 -0.6444
  296MOL0     H39899   2.489   5.455  10.892  0.0688 -1.1451  2.8836
  296MOL0     H39900   2.358   5.579  10.842  0.8210 -2.2679 -2.4278
  296MOL0     H39901   2.356   5.644  11.087 -0.2520  0.4264  0.6207
  296MOL0     H39902   2.478   5.507  11.121 -1.6364 -1.6863 -1.7722
  296MOL0     H39903   2.641   5.617  11.024  1.1612  1.8082 -0.1485
  296MOL0     H39904   2.543   5.737  10.952  3.0093  0.2328  0.0083
  296MOL0     H39905   2.564   5.704  11.253  0.4451 -2.2079 -1.5469
  296MOL0     H39906   2.674   5.817  11.164 -0.7988  1.8071  0.4220
  296MOL0     H39907   2.438   5.914  11.065 -1.9959  0.7971  1.2796
  296MOL0     H39908   2.380   5.830  11.208  2.4294 -4.4136 -1.9354
  296MOL0     H39909   2.406   6.063  11.257 -0.2477 -0.5306 -1.5938
  296MOL0     H39910   2.588   6.047  11.241  0.6115 -0.6522  3.0216
  296MOL0     H39911   2.328   5.948  11.507  0.3337  1.6084  5.1182
  296MOL0     H39912   2.551   5.916  11.819 -2.2619  0.9143  1.1486
  296MOL0     H39913   2.393   5.925  11.781  2.2716  4.1349  0.9274
  296MOL0     H39914   2.573   5.670  11.832 -0.2652  0.2249 -1.2554
  296MOL0     H39915   2.430   5.644  11.730 -0.7871 -0.8502  0.3803
  296MOL0     H39916   2.356   5.606  11.970 -2.5111  0.5881 -0.1137
  296MOL0     H39917   2.288   5.744  11.883  1.9560  4.3111 -1.7549
  296MOL0     H39918   2.381   5.746  12.133 -1.3802 -0.3943 -0.8111
  296MOL0     H39919   2.407   5.890  12.023 -1.2478  0.7588 -0.1057
  296MOL0     H39920   2.452   5.957  12.234 -0.5335 -2.2819 -1.9725
  296MOL0     H39921   2.432   6.132  12.389  0.1180  2.2240 -0.0926
  296MOL0     H39922   2.534   6.106  12.529  0.7765 -0.6211 -0.3863
  296MOL0     H39923   2.590   6.212  12.405 -1.0161  1.0714  3.1766
  296MOL0     H39924   3.163   5.882  12.586  1.4557  0.6448 -2.2241
  296MOL0     H39925   3.341   5.964  12.752  1.7424  2.9184  1.7504
  296MOL0     H39926   3.460   6.043  12.887 -0.2179 -0.1890  0.0094
  296MOL0     H39927   3.549   6.132  12.760  1.1340 -2.4292  1.6839
  296MOL0     H39928   3.667   6.178  12.934 -0.7355 -2.3356 -2.5032
  296MOL0     H39929   3.565   6.329  12.929  0.8269  0.1565  0.6218
  296MOL0     H39930   3.559   6.086  13.116  3.6738  2.1020  2.7803
  296MOL0     H39931   3.414   6.209  13.106  0.2647  4.0467 -0.6969
  296MOL0     H39932   3.693   6.294  13.180  0.4789  2.2497  0.8778
  296MOL0     H39933   3.552   6.392  13.170  1.1712  0.2458 -1.7030
  296MOL0     H39934   3.622   6.148  13.342  0.4666  0.2500  0.5188
  296MOL0     H39935   3.459   6.205  13.341 -0.3221  1.7918  2.9879
  296MOL0     H39936   3.517   6.411  13.456 -0.4307 -1.9690 -0.0572
  296MOL0     H39937   3.583   6.282  13.542  0.5682 -1.4661 -0.0626
  296MOL0     H39938   3.747   6.445  13.538 -2.2731  1.4690 -0.9891
  296MOL0     H39939   3.760   6.451  13.357 -0.8537 -0.8945 -0.0554
  296MOL0     H39940   3.851   6.205  13.376  5.1041 -0.0446  0.7436
  296MOL0     H39941   3.844   6.230  13.550 -0.4383 -2.8597 -0.7960
  296MOL0     H39942   3.182   6.347  12.737  0.3157 -0.3743 -1.2076
  296MOL0     H39943   2.991   6.269  12.608  0.6251  0.0978  0.1889
  296MOL0     H39944   2.907   5.828  12.360  1.3368 -0.1299 -3.1937
  296MOL0     H39945   2.794   5.706  12.177  0.3310 -0.4803  0.1098
  296MOL0     H39946   2.409   5.213  10.601  0.9811  1.0988 -0.9587
  296MOL0     H39947   2.434   5.140  10.370  2.4858  2.7896  0.1090
  296MOL0     H39948   2.364   5.014   9.999 -1.1469 -0.2153  1.8222
  296MOL0     H39949   2.370   4.897   9.780  0.9850  0.6046  2.7719
  296MOL0     H39950   2.138   5.066   9.452 -1.2877 -3.0700 -0.9898
  296MOL0     H39951   2.294   5.108   9.386 -1.1721  1.7852  1.1141
  296MOL0     H39952   2.210   4.808   9.408 -2.4911  0.8310  0.6669
  296MOL0     H39953   2.343   4.870   9.314  0.9646 -0.0978  2.0841
  296MOL0     H39954   2.126   4.976   9.173 -1.8745  0.1490  0.7715
  296MOL0     H39955   2.048   4.858   9.260 -0.1835 -0.4502 -1.2964
  296MOL0     H39956   2.218   4.687   9.188 -0.8906 -0.9612 -0.4379
  296MOL0     H39957   2.292   4.797   9.077 -0.2456 -0.3493 -0.6524
  296MOL0     H39958   1.981   4.637   8.864 -1.0793 -1.5670  2.0551
  296MOL0     H39959   2.151   5.225   9.609  0.0341 -0.6128 -0.2655
  296MOL0     H39960   2.170   5.349   9.815  4.3886  0.7345  0.5449
  297MOL0     O39961   9.087   3.632   6.573 -0.1931  0.0023  0.1505
  297MOL0     C39962   9.043   3.735   6.629  0.3944 -0.6258  0.0602
  297MOL0     O39963   9.115   3.809   6.715  0.1460 -0.3955 -0.1661
  297MOL0     C39964   9.190   3.751   6.806 -0.3804  0.1888  1.2754
  297MOL0     C39965   9.150   3.636   6.878 -0.0014  1.2769 -0.1839
  297MOL0     C39966   9.245   3.579   6.963 -0.1688 -0.6342 -0.4040
  297MOL0     C39967   9.370   3.633   6.986  0.2104  0.0901  0.2758
  297MOL0     O39968   9.460   3.563   7.062  0.2997  0.5208  0.1500
  297MOL0     C39969   9.562   3.634   7.135 -0.1344 -0.3373  0.0397
  297MOL0     C39970   9.647   3.560   7.236 -0.4620  0.3913  0.0546
  297MOL0     C39971   9.728   3.453   7.155 -0.0264  0.5740  0.6114
  297MOL0     C39972   9.833   3.391   7.236 -0.4139 -0.5811 -0.9484
  297MOL0     C39973   9.917   3.291   7.153 -0.1013  0.4343 -0.2440
  297MOL0     C39974  10.052   3.267   7.219  0.7726 -0.2500  1.2099
  297MOL0     C39975  10.140   3.182   7.129  0.5429 -0.4670 -0.4141
  297MOL0     C39976  10.086   3.044   7.101  0.0582 -0.1312 -0.4255
  297MOL0     N39977  10.058   2.965   7.220  0.0557  0.2831  0.6596
  297MOL0     C39978   9.941   2.966   7.298 -0.4285 -0.1912  0.5730
  297MOL0     C39979   9.982   2.917   7.408  0.9445  0.8114  0.3653
  297MOL0     C39980   9.909   2.906   7.533  0.4718 -0.4440 -0.1363
  297MOL0     C39981   9.819   2.778   7.546  0.8045 -0.0211 -0.3241
  297MOL0     C39982   9.744   2.759   7.683 -0.0669 -0.6370  0.7856
  297MOL0     C39983   9.839   2.740   7.797  0.1914 -0.9029 -1.0976
  297MOL0     O39984   9.760   2.736   7.917 -0.1425  0.3468  0.3240
  297MOL0     C39985   9.704   2.855   7.962  0.1619 -0.1130 -0.7998
  297MOL0     C39986   9.777   2.961   8.003  0.4101 -0.3231 -0.1843
  297MOL0     C39987   9.712   3.085   8.032 -0.5703  0.0717  0.6243
  297MOL0     C39988   9.805   3.196   8.079 -0.1514 -0.8276 -0.2628
  297MOL0     C39989   9.570   3.093   8.032 -0.2303 -0.4042 -0.3864
  297MOL0     C39990   9.498   3.209   8.079 -0.0062 -0.6630 -0.0157
  297MOL0     O39991   9.377   3.217   8.020 -0.1005 -0.4208 -0.0100
  297MOL0     C39992   9.318   3.338   8.017  0.3422 -0.6687  0.2301
  297MOL0     C39993   9.306   3.417   7.902 -0.6450 -0.5187  1.2712
  297MOL0     C39994   9.251   3.543   7.903  0.0893 -0.0647  0.9447
  297MOL0     C39995   9.196   3.595   8.027 -0.3496  0.0382 -0.0952
  297MOL0     O39996   9.113   3.702   8.026 -0.2168 -0.3049  0.5111
  297MOL0     C39997   9.081   3.759   7.901 -0.0568  0.3382 -1.7090
  297MOL0     C39998   8.991   3.876   7.933 -0.1825 -0.9036 -0.6559
  297MOL0     C39999   8.975   3.959   7.802 -1.0200 -0.4379 -0.3715
  297MOL0     C40000   8.854   4.044   7.798 -0.8762 -0.1111  0.0640
  297MOL0     C40001   8.828   4.115   7.656 -0.2909  0.5221 -0.6795
  297MOL0     C40002   8.745   4.246   7.685 -0.1995  1.2571  0.8942
  297MOL0     C40003   8.727   4.334   7.561 -0.3481 -0.0409  0.0910
  297MOL0     C40004   8.624   4.438   7.581 -0.3542 -0.7744 -0.6523
  297MOL0    Cl40005   8.662   4.580   7.470  0.0119  0.2796 -0.0466
  297MOL0     C40006   9.211   3.519   8.151 -0.6501 -0.1272  0.5199
  297MOL0     C40007   9.278   3.388   8.140  0.4873 -0.0830  0.1902
  297MOL0     O40008   9.540   3.285   8.162 -0.0866  0.7964 -0.8227
  297MOL0     C40009   9.501   2.972   8.018 -0.4943  0.4896 -0.2895
  297MOL0     C40010   9.566   2.856   7.986 -0.8027  0.1872 -0.0660
  297MOL0     N40011  10.103   2.858   7.387 -0.5706  0.1735 -0.0864
  297MOL0     N40012  10.143   2.884   7.277 -0.8066 -0.2854 -0.2732
  297MOL0     C40013   9.405   3.755   6.923 -0.9547  0.5032 -0.2074
  297MOL0     C40014   9.313   3.808   6.831 -0.2897 -0.7404 -0.3198
  297MOL0     C40015   8.905   3.789   6.585  0.1732 -0.2927  0.1058
  297MOL0     C40016   8.853   3.727   6.473  0.0805  0.6989  0.7520
  297MOL0     C40017   8.729   3.773   6.425  0.4922  0.1161 -0.4712
  297MOL0     C40018   8.648   3.876   6.495 -0.4079  1.0161 -1.4018
  297MOL0     O40019   8.523   3.905   6.451 -0.1849 -0.0518  0.6392
  297MOL0     C40020   8.424   3.946   6.545 -1.0153  0.1501  0.5311
  297MOL0     C40021   8.299   3.962   6.472 -0.3202 -0.5234 -0.0703
  297MOL0     C40022   8.264   3.858   6.377 -0.0314 -0.0863  0.4073
  297MOL0     C40023   8.127   3.879   6.294 -0.4289  0.1476 -0.9683
  297MOL0     C40024   8.111   3.762   6.210 -0.0779  0.3286  0.4785
  297MOL0     C40025   8.112   3.680   6.125  0.8345 -0.4836 -0.2459
  297MOL0     C40026   8.716   3.940   6.603 -0.5327  0.2861 -0.6011
  297MOL0     C40027   8.837   3.895   6.651  0.2013 -0.4194 -0.8980
  297MOL0     H40028   9.056   3.586   6.857  0.0669 -1.8114  5.1934
  297MOL0     H40029   9.221   3.495   7.027 -1.7318  0.2233  0.1930
  297MOL0     H40030   9.620   3.673   7.051  0.3879 -0.3592  0.3828
  297MOL0     H40031   9.514   3.720   7.183 -0.4887 -0.1580 -0.6185
  297MOL0     H40032   9.732   3.609   7.284  0.0850 -0.8808  0.4265
  297MOL0     H40033   9.577   3.524   7.312 -0.5597 -0.0136 -0.2260
  297MOL0     H40034   9.657   3.379   7.116 -0.1694 -1.0972  3.7058
  297MOL0     H40035   9.782   3.498   7.071 -0.6955  0.5068  0.1372
  297MOL0     H40036   9.887   3.478   7.275 -0.5307 -0.2643 -1.4819
  297MOL0     H40037   9.798   3.336   7.324 -0.4869 -2.1300 -1.9064
  297MOL0     H40038   9.860   3.205   7.115  2.0070 -0.4709 -1.5382
  297MOL0     H40039   9.938   3.344   7.060 -0.1749 -0.6200 -0.8909
  297MOL0     H40040  10.083   3.372   7.217 -3.0877  1.2191 -4.3495
  297MOL0     H40041  10.046   3.222   7.319 -4.4776 -1.5458  0.6028
  297MOL0     H40042  10.145   3.231   7.031  1.1621 -2.1745 -1.2736
  297MOL0     H40043  10.241   3.175   7.172  0.5977 -2.0783 -0.7310
  297MOL0     H40044  10.158   2.988   7.042  2.9689  2.6027  0.2292
  297MOL0     H40045   9.995   3.053   7.042 -0.0307  3.7776  0.0220
  297MOL0     H40046   9.847   3.012   7.269  1.1577  1.9464 -1.5630
  297MOL0     H40047   9.986   2.897   7.610  0.3909 -1.7929 -0.1982
  297MOL0     H40048   9.852   2.997   7.552  0.0688 -0.8331  0.5347
  297MOL0     H40049   9.871   2.687   7.518 -0.2879 -1.0660  0.8934
  297MOL0     H40050   9.744   2.787   7.466 -1.7952  0.0405  1.9439
  297MOL0     H40051   9.684   2.667   7.684  0.3183 -0.9367 -0.8088
  297MOL0     H40052   9.682   2.847   7.700 -0.8424 -0.5802 -1.8824
  297MOL0     H40053   9.899   2.831   7.798 -3.0556  1.4312  0.1454
  297MOL0     H40054   9.908   2.657   7.783  1.9576  0.1338  0.8819
  297MOL0     H40055   9.884   2.957   7.989  0.5080  1.2385 -0.1157
  297MOL0     H40056   9.784   3.222   8.183 -2.7699 -1.4195 -0.5688
  297MOL0     H40057   9.911   3.174   8.088 -0.0310 -0.2981 -0.3548
  297MOL0     H40058   9.797   3.282   8.012  1.8798 -0.3868  0.0070
  297MOL0     H40059   9.355   3.382   7.812  3.4063  0.9773  2.6670
  297MOL0     H40060   9.230   3.583   7.805  0.3915 -1.9949  0.0342
  297MOL0     H40061   9.175   3.791   7.855  0.1258  0.3441 -1.3355
  297MOL0     H40062   9.030   3.688   7.834  0.9615 -1.8861 -0.2358
  297MOL0     H40063   8.895   3.843   7.974 -0.9118  1.4497 -0.2903
  297MOL0     H40064   9.043   3.940   8.005 -1.0563  0.4688 -1.1930
  297MOL0     H40065   8.969   3.896   7.712 -1.3100 -0.0221 -0.6487
  297MOL0     H40066   9.059   4.029   7.798  0.6272 -2.2455  0.7602
  297MOL0     H40067   8.768   3.984   7.828 -0.1652 -0.7448  0.8681
  297MOL0     H40068   8.848   4.117   7.880  2.2608  0.7303 -0.3488
  297MOL0     H40069   8.767   4.041   7.604  0.2259 -0.4579  0.0804
  297MOL0     H40070   8.919   4.142   7.600 -0.2451 -1.0228 -1.3896
  297MOL0     H40071   8.645   4.211   7.710 -0.2078 -0.3602 -1.0982
  297MOL0     H40072   8.791   4.297   7.770  0.8689  1.7465  0.0688
  297MOL0     H40073   8.703   4.267   7.477 -0.4610 -2.3154  1.8408
  297MOL0     H40074   8.824   4.379   7.539 -1.4901  2.7076  0.3495
  297MOL0     H40075   8.638   4.476   7.683 -0.7905 -2.0281 -0.1066
  297MOL0     H40076   8.518   4.412   7.581 -0.8379  1.0888 -0.9170
  297MOL0     H40077   9.167   3.560   8.242  1.3112 -0.2363  1.5643
  297MOL0     H40078   9.299   3.324   8.225  1.9481 -1.3220 -1.0491
  297MOL0     H40079   9.393   2.981   8.017 -0.6247 -0.5767 -2.3987
  297MOL0     H40080   9.512   2.764   7.964  0.1486 -0.3069 -0.3977
  297MOL0     H40081   9.495   3.812   6.940 -0.3781 -0.8435  1.5540
  297MOL0     H40082   9.325   3.908   6.789 -4.0452  0.7321  1.6332
  297MOL0     H40083   8.906   3.656   6.410 -1.1817  1.5635 -1.3673
  297MOL0     H40084   8.689   3.717   6.341 -3.3875  1.9168 -0.0511
  297MOL0     H40085   8.413   3.879   6.631  0.3962 -0.4083  0.3030
  297MOL0     H40086   8.456   4.044   6.579  0.9591 -0.5716  0.8922
  297MOL0     H40087   8.290   4.064   6.431 -1.5427 -0.9344 -0.8706
  297MOL0     H40088   8.219   3.950   6.546  0.4648  1.5134  1.2145
  297MOL0     H40089   8.267   3.759   6.423  0.0376  0.3461  1.3532
  297MOL0     H40090   8.344   3.860   6.302 -0.6526  1.4034 -0.2663
  297MOL0     H40091   8.127   3.969   6.230  2.0859  0.5393 -0.5158
  297MOL0     H40092   8.053   3.882   6.375  0.0254  3.4190 -0.5436
  297MOL0     H40093   8.103   3.603   6.052  0.4204 -1.6542  0.9944
  297MOL0     H40094   8.673   4.025   6.655 -1.6036 -0.0350 -0.9340
  297MOL0     H40095   8.878   3.958   6.730 -2.2907  3.0372 -2.0974
  298MOL0     O40096   3.834   7.805   2.611  0.1511  0.0790  0.9203
  298MOL0     C40097   3.794   7.840   2.719  0.6666  0.1122 -0.8735
  298MOL0     O40098   3.657   7.856   2.741 -0.7716 -0.8748  0.2562
  298MOL0     C40099   3.569   7.871   2.637 -0.2105  1.2643 -0.1035
  298MOL0     C40100   3.585   7.958   2.525  0.3462  1.2253  0.1439
  298MOL0     C40101   3.480   7.963   2.428 -1.3416 -0.2597 -0.2835
  298MOL0     C40102   3.367   7.871   2.435 -0.1641  0.2339 -0.2875
  298MOL0     O40103   3.269   7.868   2.336  0.0327 -0.6769  0.4101
  298MOL0     C40104   3.139   7.814   2.362 -1.1212 -0.7677 -1.0313
  298MOL0     C40105   3.067   7.896   2.462  0.0053 -0.7222 -0.0014
  298MOL0     C40106   3.036   8.055   2.433 -0.7081 -0.8751 -0.6806
  298MOL0     C40107   3.002   8.119   2.561  0.4341 -0.0801 -0.8202
  298MOL0     C40108   2.979   8.261   2.548 -0.4503 -0.0183  0.3076
  298MOL0     C40109   2.903   8.318   2.666 -0.0290 -0.0602 -0.1980
  298MOL0     C40110   2.866   8.465   2.662 -0.4897 -0.0738  1.6978
  298MOL0     C40111   2.835   8.498   2.811 -0.7497 -0.3338 -0.0090
  298MOL0     N40112   2.955   8.522   2.896  0.4292 -0.5781  0.6586
  298MOL0     C40113   3.078   8.590   2.858 -0.1970 -0.7363 -0.3184
  298MOL0     C40114   3.149   8.591   2.972 -0.3990 -1.0359  0.2981
  298MOL0     C40115   3.292   8.649   2.990 -0.2207 -0.2651 -0.7341
  298MOL0     C40116   3.294   8.733   3.116 -0.7022 -0.0370 -0.4512
  298MOL0     C40117   3.432   8.790   3.133  0.0987 -0.1214 -0.4699
  298MOL0     C40118   3.446   8.898   3.233 -0.6658 -0.4500  0.3488
  298MOL0     O40119   3.363   9.007   3.199  0.1476 -0.4774 -0.9609
  298MOL0     C40120   3.332   9.087   3.303 -0.7950  0.3179  0.3188
  298MOL0     C40121   3.422   9.184   3.347  0.1229 -0.4416 -0.3280
  298MOL0     C40122   3.391   9.263   3.461 -0.3914  0.0708  0.1109
  298MOL0     C40123   3.485   9.370   3.499 -0.6666 -0.2466 -0.3837
  298MOL0     C40124   3.261   9.248   3.525 -1.1630  0.3207 -0.0544
  298MOL0     C40125   3.223   9.326   3.642  0.7978 -0.4875  0.1204
  298MOL0     O40126   3.124   9.278   3.722 -0.1211  0.3429 -0.4025
  298MOL0     C40127   3.078   9.353   3.824 -0.7310  1.0531  0.5690
  298MOL0     C40128   2.941   9.349   3.846 -0.0080 -0.1104  1.7212
  298MOL0     C40129   2.892   9.435   3.943  0.0838  0.2589  0.0680
  298MOL0     C40130   2.974   9.524   4.019  0.0935  0.3122 -0.4050
  298MOL0     O40131   2.934   9.600   4.125  0.4357 -0.5653 -0.1353
  298MOL0     C40132   2.790   9.597   4.158 -0.0263 -0.2095 -0.0424
  298MOL0     C40133   2.694   9.672   4.061  0.8385 -1.1632 -0.5799
  298MOL0     C40134   2.725   9.821   4.051  0.3309  0.1906 -0.3283
  298MOL0     C40135   2.636   9.877   3.941  0.4940  0.6722 -0.4977
  298MOL0     C40136   2.652  10.027   3.937 -0.4539  0.8547  0.4461
  298MOL0     C40137   2.769  10.065   3.837  0.4357 -0.1875  0.1354
  298MOL0     C40138   2.774  10.218   3.818  0.4479  0.5336  0.8462
  298MOL0     C40139   2.873  10.266   3.707 -0.6824 -0.3836  0.9809
  298MOL0    Cl40140   3.046  10.274   3.778 -0.4675 -0.0130 -0.4281
  298MOL0     C40141   3.104   9.520   3.990  0.9439 -0.3545 -0.9453
  298MOL0     C40142   3.158   9.433   3.898  0.2995 -0.1456  0.0959
  298MOL0     O40143   3.260   9.440   3.639 -0.3542  0.2158 -0.0839
  298MOL0     C40144   3.168   9.143   3.475 -0.7597  0.5141 -0.3444
  298MOL0     C40145   3.206   9.064   3.363 -0.2560  0.7907 -0.2245
  298MOL0     N40146   3.077   8.530   3.076 -0.4028 -0.5546 -0.7352
  298MOL0     N40147   2.968   8.484   3.026  0.4288  0.6180 -0.1994
  298MOL0     C40148   3.358   7.781   2.543 -0.8825  0.6728 -0.4921
  298MOL0     C40149   3.456   7.782   2.636  0.2192  0.3756 -0.9169
  298MOL0     C40150   3.886   7.840   2.844 -0.6426 -0.1493 -0.3444
  298MOL0     C40151   4.025   7.840   2.838  0.3400  0.2978 -0.8297
  298MOL0     C40152   4.104   7.855   2.950 -0.0306  0.4302  0.4281
  298MOL0     C40153   4.047   7.872   3.078  0.6200 -0.8011  0.3746
  298MOL0     O40154   4.119   7.899   3.196 -0.2346 -0.0847 -0.0970
  298MOL0     C40155   4.265   7.892   3.196  0.7293 -0.1385  0.4217
  298MOL0     C40156   4.295   7.906   3.347  0.0288 -0.3312  0.7098
  298MOL0     C40157   4.440   7.938   3.372  0.5211  0.4626 -0.7802
  298MOL0     C40158   4.450   7.935   3.533  0.0085 -0.3462 -0.8826
  298MOL0     C40159   4.579   7.900   3.575 -0.0971 -0.7028 -0.0507
  298MOL0     C40160   4.690   7.864   3.608  0.1532 -0.4168  0.4930
  298MOL0     C40161   3.908   7.887   3.086  0.0136  0.5912 -0.3960
  298MOL0     C40162   3.825   7.863   2.974 -0.7314  0.5083 -0.1562
  298MOL0     H40163   3.670   8.024   2.528  0.2395  1.3336  0.7612
  298MOL0     H40164   3.492   8.015   2.333 -4.3675 -0.0085 -0.6171
  298MOL0     H40165   3.089   7.834   2.267 -0.6222 -0.8113 -1.3082
  298MOL0     H40166   3.147   7.707   2.382 -0.7338 -0.3851  1.2735
  298MOL0     H40167   2.967   7.855   2.483  0.8788 -2.3225  1.2862
  298MOL0     H40168   3.127   7.882   2.552  1.2835  2.3591 -0.2793
  298MOL0     H40169   3.127   8.106   2.400 -2.0123  2.6502  0.7117
  298MOL0     H40170   2.950   8.063   2.366  0.4621 -3.8499 -2.7826
  298MOL0     H40171   2.906   8.081   2.595 -0.8095  2.7781 -0.8376
  298MOL0     H40172   3.078   8.091   2.635  0.5842  1.8971 -0.1683
  298MOL0     H40173   3.071   8.319   2.540 -0.5482 -0.1310 -3.8240
  298MOL0     H40174   2.911   8.276   2.463 -0.5668 -1.2319  0.1670
  298MOL0     H40175   2.813   8.258   2.679  0.2665 -0.5416 -0.3199
  298MOL0     H40176   2.970   8.299   2.750 -3.1694 -0.7674  2.3095
  298MOL0     H40177   2.948   8.529   2.630 -1.7296  0.1306 -1.4664
  298MOL0     H40178   2.785   8.474   2.588  1.2240 -2.5955 -0.7132
  298MOL0     H40179   2.778   8.413   2.848 -1.2839 -0.5472 -1.2865
  298MOL0     H40180   2.775   8.590   2.803 -0.4996 -0.3262 -2.8734
  298MOL0     H40181   3.095   8.651   2.771 -0.8000  2.1982  1.4800
  298MOL0     H40182   3.355   8.566   3.021 -0.8403 -1.1823 -1.8498
  298MOL0     H40183   3.339   8.703   2.907  0.7358  0.1851  0.0842
  298MOL0     H40184   3.255   8.679   3.203  0.8815  0.9332  0.9306
  298MOL0     H40185   3.232   8.823   3.110  1.1821  1.3652 -0.1129
  298MOL0     H40186   3.468   8.837   3.041  1.3759 -2.4823 -1.2668
  298MOL0     H40187   3.506   8.713   3.155  0.3700 -0.2424 -1.6987
  298MOL0     H40188   3.553   8.917   3.225 -0.6372  0.1228  1.8159
  298MOL0     H40189   3.423   8.859   3.333 -2.9501 -0.0147  0.0628
  298MOL0     H40190   3.518   9.190   3.296  0.4135  2.3917  0.3719
  298MOL0     H40191   3.566   9.352   3.428 -0.3214  0.9408 -0.3008
  298MOL0     H40192   3.453   9.472   3.476 -1.7440 -0.6596 -0.7690
  298MOL0     H40193   3.515   9.368   3.604  0.3941  0.4702 -0.6577
  298MOL0     H40194   2.872   9.294   3.782  0.3760 -0.1789  1.3648
  298MOL0     H40195   2.784   9.431   3.956  0.2479 -3.4937  1.1746
  298MOL0     H40196   2.762   9.492   4.158  0.6562 -0.3968 -0.3979
  298MOL0     H40197   2.787   9.653   4.252  2.9250  0.8033 -0.4421
  298MOL0     H40198   2.705   9.630   3.960  0.3079 -1.1585 -0.6405
  298MOL0     H40199   2.589   9.658   4.089  0.6341  1.8262  0.4549
  298MOL0     H40200   2.832   9.825   4.028  0.9693 -0.7612  2.1639
  298MOL0     H40201   2.714   9.881   4.142  0.0037 -2.4105  1.4610
  298MOL0     H40202   2.663   9.825   3.849  0.1201 -0.3634 -0.0302
  298MOL0     H40203   2.537   9.842   3.972  1.0450 -0.6397 -0.1470
  298MOL0     H40204   2.681  10.060   4.037  0.7193  0.5530  0.2291
  298MOL0     H40205   2.557  10.075   3.912 -0.6532  1.4484  2.2467
  298MOL0     H40206   2.865  10.035   3.881  1.0822  0.2851 -0.9080
  298MOL0     H40207   2.756  10.019   3.739 -1.4787 -1.7531  1.0639
  298MOL0     H40208   2.776  10.274   3.912  0.9401  2.0059 -0.0245
  298MOL0     H40209   2.669  10.228   3.787  0.4557 -0.2461  0.5254
  298MOL0     H40210   2.835  10.363   3.675 -1.0137 -1.1063 -0.9536
  298MOL0     H40211   2.882  10.194   3.625  0.8293  0.7694  0.0824
  298MOL0     H40212   3.166   9.586   4.048  2.0817 -2.8792  0.8984
  298MOL0     H40213   3.265   9.432   3.887  0.2254 -1.0730 -0.6784
  298MOL0     H40214   3.072   9.127   3.522  0.1354 -0.2342  1.3626
  298MOL0     H40215   3.135   8.997   3.314  0.5410 -1.5865  1.6600
  298MOL0     H40216   3.276   7.713   2.567 -1.1597  1.1030 -0.2041
  298MOL0     H40217   3.444   7.707   2.714 -1.7982 -2.2885 -3.5374
  298MOL0     H40218   4.072   7.818   2.742 -0.5392  1.2770 -1.5089
  298MOL0     H40219   4.212   7.847   2.951  0.1095 -1.9010 -4.7906
  298MOL0     H40220   4.296   7.796   3.154  0.1693  0.2040 -0.8170
  298MOL0     H40221   4.310   7.972   3.136  1.2737 -0.4092  0.4648
  298MOL0     H40222   4.269   7.815   3.400 -2.2694  1.2819  2.5488
  298MOL0     H40223   4.238   7.986   3.396 -2.8546  0.2533 -3.1237
  298MOL0     H40224   4.464   8.038   3.336 -2.2986  2.3450  1.9778
  298MOL0     H40225   4.496   7.853   3.332 -1.2320 -0.6478 -0.9986
  298MOL0     H40226   4.388   7.850   3.564  3.1893 -2.0270  1.4635
  298MOL0     H40227   4.402   8.017   3.587  2.6620 -0.3480  1.7863
  298MOL0     H40228   4.795   7.841   3.601 -0.3615 -3.3470  0.8133
  298MOL0     H40229   3.862   7.892   3.184 -0.3501  1.2943 -0.5878
  298MOL0     H40230   3.717   7.859   2.974 -0.8037  1.0093 -2.7896
  299MOL0     O40231   5.230   2.542   6.596 -1.3167 -0.1090 -0.2591
  299MOL0     C40232   5.216   2.500   6.709 -0.2213  0.1415 -1.0280
  299MOL0     O40233   5.308   2.505   6.806 -0.0185 -0.5116 -0.5494
  299MOL0     C40234   5.436   2.542   6.783  0.9323  0.4396  0.6916
  299MOL0     C40235   5.502   2.628   6.870  0.1844 -0.1612 -0.0143
  299MOL0     C40236   5.640   2.647   6.855  0.3158 -1.0159 -0.4953
  299MOL0     C40237   5.706   2.604   6.744 -0.0358  0.0963  0.4600
  299MOL0     O40238   5.837   2.637   6.735  0.2439  0.0032 -0.1670
  299MOL0     C40239   5.917   2.632   6.617 -0.6470  0.4762  0.0389
  299MOL0     C40240   6.071   2.652   6.661 -0.2395 -0.2327  0.0272
  299MOL0     C40241   6.157   2.525   6.624  0.4207  0.3740 -0.2878
  299MOL0     C40242   6.190   2.517   6.478 -0.7592 -0.0960 -0.1374
  299MOL0     C40243   6.313   2.425   6.457 -0.5768 -0.5211  0.7189
  299MOL0     C40244   6.345   2.390   6.307  0.3800 -0.1187  0.2901
  299MOL0     C40245   6.434   2.271   6.293 -0.1211  0.4779 -0.7391
  299MOL0     C40246   6.475   2.247   6.147 -0.2713 -0.3491  0.3416
  299MOL0     N40247   6.602   2.317   6.136 -0.0623  0.5967  1.1601
  299MOL0     C40248   6.725   2.254   6.131  0.5548  0.5707  0.2201
  299MOL0     C40249   6.820   2.346   6.105 -0.7124 -0.7306  0.1913
  299MOL0     C40250   6.964   2.328   6.090  0.2410  0.9762 -0.1697
  299MOL0     C40251   7.001   2.290   5.944  0.3335 -0.7298  0.2203
  299MOL0     C40252   7.000   2.141   5.915  0.0919  0.2342  0.3336
  299MOL0     C40253   7.142   2.075   5.934 -0.2400  0.2931  0.6088
  299MOL0     O40254   7.185   2.087   6.068 -0.1715  0.5259 -0.4932
  299MOL0     C40255   7.314   2.053   6.093  0.1602  0.1194  0.9401
  299MOL0     C40256   7.408   2.008   5.999 -0.2233  0.6199  0.4413
  299MOL0     C40257   7.541   1.983   6.030 -0.8087  0.7235  0.3796
  299MOL0     C40258   7.625   1.930   5.916 -0.3511 -0.0229 -0.1463
  299MOL0     C40259   7.589   2.012   6.159 -0.0741 -0.1267  0.2948
  299MOL0     C40260   7.732   1.996   6.214 -0.3353 -0.7782  0.2297
  299MOL0     O40261   7.835   1.939   6.127 -0.0381 -1.1889 -0.5793
  299MOL0     C40262   7.936   1.893   6.206 -0.2163 -0.1305 -0.5344
  299MOL0     C40263   7.917   1.766   6.265  0.2722 -0.8966  0.7369
  299MOL0     C40264   8.030   1.710   6.324 -0.4744 -0.6476 -0.0465
  299MOL0     C40265   8.150   1.780   6.343  1.3472 -0.1491 -1.3200
  299MOL0     O40266   8.255   1.733   6.423 -0.4872  0.0090 -0.3031
  299MOL0     C40267   8.250   1.608   6.501  0.5564 -0.2008  0.6892
  299MOL0     C40268   8.387   1.600   6.577 -0.2457  1.1484  0.1369
  299MOL0     C40269   8.404   1.493   6.681 -0.3298 -0.4200  0.5314
  299MOL0     C40270   8.374   1.545   6.827  0.2877 -0.1709 -0.0741
  299MOL0     C40271   8.332   1.430   6.916 -1.2542 -0.9681 -0.6519
  299MOL0     C40272   8.325   1.462   7.067 -0.0150  0.7867 -1.0862
  299MOL0     C40273   8.446   1.524   7.141 -0.6175  0.8894  0.5112
  299MOL0     C40274   8.561   1.420   7.156 -0.2860 -0.7235  0.4456
  299MOL0    Cl40275   8.512   1.274   7.251  0.3144 -0.5587 -0.2376
  299MOL0     C40276   8.164   1.903   6.284  0.9420 -0.9678  0.5111
  299MOL0     C40277   8.058   1.953   6.204 -0.7404 -0.6586  0.0564
  299MOL0     O40278   7.759   2.033   6.326  0.0261 -0.3367 -0.5970
  299MOL0     C40279   7.495   2.066   6.251 -0.1742 -0.3063  0.0790
  299MOL0     C40280   7.362   2.073   6.219 -0.1762  0.9589  0.1651
  299MOL0     N40281   6.750   2.470   6.085  0.1507 -0.1436 -0.2144
  299MOL0     N40282   6.623   2.453   6.108 -1.1656 -0.6005 -0.3419
  299MOL0     C40283   5.633   2.524   6.653 -1.0701 -0.1981  0.9853
  299MOL0     C40284   5.505   2.496   6.669  0.9524 -1.0241  0.1731
  299MOL0     C40285   5.080   2.438   6.748 -0.5313 -0.3382 -1.4488
  299MOL0     C40286   4.988   2.416   6.647  0.1065 -0.3453  0.1459
  299MOL0     C40287   4.874   2.331   6.660  0.1961 -0.3547 -0.2497
  299MOL0     C40288   4.837   2.299   6.793  0.2460  0.5662  0.2664
  299MOL0     O40289   4.724   2.232   6.821  0.2338 -0.9183 -0.0282
  299MOL0     C40290   4.607   2.307   6.764 -0.8211  0.3167  0.7442
  299MOL0     C40291   4.493   2.256   6.845  0.3288 -0.5461  0.3879
  299MOL0     C40292   4.370   2.340   6.791  0.0946 -0.3001  0.1462
  299MOL0     C40293   4.234   2.324   6.873  0.2018 -0.4195  0.1529
  299MOL0     C40294   4.175   2.196   6.846  0.4153  0.2162  0.6681
  299MOL0     C40295   4.103   2.100   6.828 -1.2136 -0.3461 -0.2944
  299MOL0     C40296   4.924   2.332   6.896 -0.1997  0.2373 -0.0955
  299MOL0     C40297   5.053   2.394   6.880  1.0270 -0.4635 -0.7437
  299MOL0     H40298   5.481   2.655   6.973  2.6127 -1.3561  0.8855
  299MOL0     H40299   5.680   2.721   6.923 -0.9685 -1.5244  0.8936
  299MOL0     H40300   5.893   2.541   6.560 -0.4085 -0.1524  0.9215
  299MOL0     H40301   5.884   2.715   6.553 -1.0048  0.8144  0.6540
  299MOL0     H40302   6.108   2.745   6.618  0.8962 -0.5316  0.3106
  299MOL0     H40303   6.059   2.670   6.768  1.0491 -1.6622  0.4492
  299MOL0     H40304   6.244   2.510   6.688  0.3938 -2.6805 -0.8533
  299MOL0     H40305   6.093   2.441   6.652  0.1520  0.3427 -0.9809
  299MOL0     H40306   6.114   2.465   6.418 -1.0546 -1.3750  1.2731
  299MOL0     H40307   6.219   2.614   6.437  3.2957 -1.2131 -0.3239
  299MOL0     H40308   6.402   2.464   6.506 -1.3037 -0.0200  1.6819
  299MOL0     H40309   6.292   2.336   6.517 -2.0027 -1.2591 -0.7838
  299MOL0     H40310   6.249   2.374   6.257  1.3705  4.7974 -4.0457
  299MOL0     H40311   6.381   2.479   6.255  0.0232 -1.3703 -2.2319
  299MOL0     H40312   6.513   2.277   6.368  0.0704 -1.1077 -0.7953
  299MOL0     H40313   6.368   2.189   6.321 -0.1552  1.5066  2.6831
  299MOL0     H40314   6.391   2.286   6.089 -0.5440 -1.3187  0.0629
  299MOL0     H40315   6.499   2.141   6.138  1.3427 -0.1557  1.7198
  299MOL0     H40316   6.741   2.147   6.143 -0.2869  0.1241 -2.1074
  299MOL0     H40317   7.017   2.418   6.123  1.3681 -1.0547  4.1558
  299MOL0     H40318   6.996   2.251   6.160  2.6207  0.4551 -1.7051
  299MOL0     H40319   7.095   2.333   5.909 -0.6787  0.3340 -1.3005
  299MOL0     H40320   6.934   2.329   5.866 -0.7172 -3.4482 -0.3357
  299MOL0     H40321   6.961   2.137   5.813 -1.3303  3.1012  0.6831
  299MOL0     H40322   6.928   2.091   5.982  1.3858  0.0058  1.6138
  299MOL0     H40323   7.207   2.127   5.863 -1.1729  2.6691  1.3825
  299MOL0     H40324   7.147   1.973   5.896  1.1009  1.0845 -1.5263
  299MOL0     H40325   7.367   1.987   5.900  0.5734  0.9610  0.0293
  299MOL0     H40326   7.570   1.938   5.822 -3.0711  1.4489  1.4304
  299MOL0     H40327   7.714   1.992   5.901 -1.3224  1.0547 -1.6927
  299MOL0     H40328   7.663   1.829   5.938 -0.5570 -0.0415  0.1200
  299MOL0     H40329   7.825   1.712   6.249 -0.8184  0.9477  0.5681
  299MOL0     H40330   8.016   1.605   6.348 -0.4643 -0.5305  0.4765
  299MOL0     H40331   8.171   1.604   6.576  0.0005 -1.2086  0.0681
  299MOL0     H40332   8.248   1.521   6.435 -0.3357 -0.5812  1.2143
  299MOL0     H40333   8.472   1.599   6.508 -1.0895  2.7982 -1.0066
  299MOL0     H40334   8.389   1.700   6.620 -0.9812  0.3483  2.1443
  299MOL0     H40335   8.505   1.454   6.667  0.1410  0.9944 -0.2170
  299MOL0     H40336   8.332   1.412   6.665 -0.7349 -0.5586  2.7397
  299MOL0     H40337   8.474   1.584   6.847  0.3284  1.7111 -3.3622
  299MOL0     H40338   8.300   1.625   6.834 -2.0181 -2.2894  1.2840
  299MOL0     H40339   8.401   1.346   6.902 -1.4828 -1.1234 -0.8627
  299MOL0     H40340   8.235   1.383   6.896 -1.3180 -2.2504  2.1877
  299MOL0     H40341   8.240   1.530   7.074  0.1289  1.3402 -3.6191
  299MOL0     H40342   8.307   1.364   7.113  1.0052  1.1917  0.2093
  299MOL0     H40343   8.412   1.565   7.236  1.0117  1.3411  0.9352
  299MOL0     H40344   8.485   1.607   7.082  3.8119 -0.8066  0.6172
  299MOL0     H40345   8.644   1.470   7.206  0.4834  0.1567 -1.5946
  299MOL0     H40346   8.608   1.401   7.059 -1.3780 -0.2202 -0.2102
  299MOL0     H40347   8.255   1.961   6.276  0.5464 -0.1994  1.4035
  299MOL0     H40348   8.073   2.042   6.144 -4.5999 -0.1046 -0.3837
  299MOL0     H40349   7.502   2.096   6.355 -4.4747 -3.0198  1.4500
  299MOL0     H40350   7.293   2.088   6.301 -2.3581 -0.4331 -1.3017
  299MOL0     H40351   5.688   2.492   6.565 -0.3310  1.8576  0.6344
  299MOL0     H40352   5.445   2.437   6.601  0.6353  2.2025 -2.5770
  299MOL0     H40353   5.019   2.450   6.549 -1.0427  1.1373  0.2757
  299MOL0     H40354   4.813   2.315   6.571 -1.2320  0.3199  0.5780
  299MOL0     H40355   4.622   2.415   6.765 -0.2606  0.2305  1.4792
  299MOL0     H40356   4.585   2.281   6.659 -3.0699 -3.3275  1.9064
  299MOL0     H40357   4.503   2.289   6.949 -3.0623 -0.5799  0.8330
  299MOL0     H40358   4.487   2.147   6.836 -0.0602 -0.3396 -2.9898
  299MOL0     H40359   4.365   2.317   6.684  1.3286  2.0819 -0.4836
  299MOL0     H40360   4.389   2.447   6.797  0.2425 -0.3124 -0.0808
  299MOL0     H40361   4.157   2.395   6.841  2.2720  1.3523 -1.1634
  299MOL0     H40362   4.248   2.328   6.981 -2.5316  2.7563  0.5459
  299MOL0     H40363   4.046   2.016   6.794  0.3100 -1.1235 -1.0513
  299MOL0     H40364   4.891   2.305   6.996 -1.4757  0.1537 -0.5205
  299MOL0     H40365   5.116   2.412   6.966 -3.1837 -1.4996  2.9395
  300MOL0     O40366   3.988   4.607  10.955 -0.7141 -0.0076  0.3604
  300MOL0     C40367   4.099   4.655  10.923 -0.2698  0.2680 -0.4546
  300MOL0     O40368   4.169   4.741  10.999 -0.3970 -0.0515  0.2441
  300MOL0     C40369   4.155   4.761  11.132  0.1897 -0.0030 -0.9385
  300MOL0     C40370   4.121   4.666  11.223 -0.3926 -0.1122 -0.1842
  300MOL0     C40371   4.085   4.711  11.355  0.1374  0.4943 -0.6995
  300MOL0     C40372   4.089   4.846  11.390  0.8266 -0.2638 -0.0950
  300MOL0     O40373   4.065   4.881  11.521 -0.6180  0.0865 -0.4145
  300MOL0     C40374   4.183   4.894  11.602  0.2572  0.2475  0.9605
  300MOL0     C40375   4.265   4.773  11.639 -0.2141 -0.3547  0.6954
  300MOL0     C40376   4.189   4.700  11.743  0.0640 -0.3858 -0.0300
  300MOL0     C40377   4.269   4.601  11.826  0.2439  0.5820 -0.1974
  300MOL0     C40378   4.203   4.485  11.884  0.3148 -0.4568 -0.7337
  300MOL0     C40379   4.093   4.513  11.984  0.5651  0.1395 -1.0476
  300MOL0     C40380   4.038   4.371  12.022  0.1797  0.4126  0.4380
  300MOL0     C40381   3.926   4.384  12.128 -0.4325  0.1438  0.6831
  300MOL0     N40382   3.881   4.250  12.166 -0.2891  0.2120  0.2803
  300MOL0     C40383   3.897   4.194  12.289  0.2417 -0.3512  0.4258
  300MOL0     C40384   3.842   4.065  12.284 -1.2454 -0.1214 -1.1281
  300MOL0     C40385   3.844   3.979  12.409  0.1545  0.3245 -0.6845
  300MOL0     C40386   3.783   4.048  12.537 -0.8576  0.2071  0.4498
  300MOL0     C40387   3.636   4.081  12.538 -0.1564 -0.0867 -0.0082
  300MOL0     C40388   3.605   4.199  12.456  0.3881  0.9083  0.5690
  300MOL0     O40389   3.684   4.315  12.481  0.1276  0.4740  0.4264
  300MOL0     C40390   3.673   4.423  12.399 -0.0802  0.2953 -0.0439
  300MOL0     C40391   3.559   4.448  12.310  0.1340 -0.5552 -0.2958
  300MOL0     C40392   3.560   4.561  12.231 -0.0008  0.1846 -0.1492
  300MOL0     C40393   3.437   4.577  12.135  0.3672  0.1516 -0.1100
  300MOL0     C40394   3.671   4.645  12.241 -0.1437 -0.3307 -0.1515
  300MOL0     C40395   3.686   4.764  12.144 -0.3898 -0.6413 -0.0664
  300MOL0     O40396   3.811   4.782  12.096 -0.0420  0.0377  0.8897
  300MOL0     C40397   3.841   4.889  12.011  0.8698 -0.9441  0.0175
  300MOL0     C40398   3.833   4.888  11.868  0.0126 -0.0799 -0.1325
  300MOL0     C40399   3.850   5.013  11.803 -1.0383  0.3692 -0.1731
  300MOL0     C40400   3.857   5.131  11.874  1.0777 -1.6169 -0.0730
  300MOL0     O40401   3.860   5.253  11.804  0.1027  0.8480  0.4694
  300MOL0     C40402   3.867   5.376  11.873  0.3599  0.3479  0.2725
  300MOL0     C40403   3.861   5.491  11.771  0.6453  0.3900 -0.5390
  300MOL0     C40404   3.839   5.621  11.854  0.9188 -0.4148  0.2256
  300MOL0     C40405   3.897   5.742  11.783  0.1146  0.8031 -0.0268
  300MOL0     C40406   3.872   5.861  11.868 -0.6343 -1.0599 -0.1499
  300MOL0     C40407   3.914   5.985  11.792 -0.4651 -0.2589  0.8567
  300MOL0     C40408   3.908   6.102  11.890 -0.2192 -0.3970  0.1604
  300MOL0     C40409   3.974   6.227  11.835 -0.0932 -0.4206  0.5616
  300MOL0    Cl40410   3.939   6.372  11.937 -0.0977 -0.3674  0.4786
  300MOL0     C40411   3.856   5.130  12.016  0.2908  0.5745  0.1487
  300MOL0     C40412   3.855   5.008  12.083  0.3930  0.3344 -0.0049
  300MOL0     O40413   3.596   4.848  12.152 -0.1322  0.4843  0.0450
  300MOL0     C40414   3.784   4.621  12.323  0.9035  0.1851 -0.3793
  300MOL0     C40415   3.779   4.511  12.403  0.2897 -0.6188  0.5040
  300MOL0     N40416   3.793   4.047  12.151 -0.0299  1.4879  0.3557
  300MOL0     N40417   3.806   4.161  12.096  0.0765 -0.4052 -0.4101
  300MOL0     C40418   4.115   4.944  11.300  0.2300 -0.0306  0.5499
  300MOL0     C40419   4.153   4.895  11.173  0.4251  0.0488 -0.1224
  300MOL0     C40420   4.163   4.608  10.800  0.0728 -0.2710  0.1389
  300MOL0     C40421   4.304   4.610  10.790 -0.3665  1.0548 -0.3785
  300MOL0     C40422   4.357   4.577  10.667  0.2521 -0.6249 -0.3652
  300MOL0     C40423   4.283   4.525  10.571 -0.1191  0.1201  0.8519
  300MOL0     O40424   4.361   4.493  10.464  0.2183 -0.6424  0.5651
  300MOL0     C40425   4.331   4.567  10.346  0.1816  0.5642  0.0851
  300MOL0     C40426   4.385   4.711  10.359 -0.7299 -0.1415 -0.2732
  300MOL0     C40427   4.529   4.724  10.409 -0.1739 -0.2204 -0.0710
  300MOL0     C40428   4.568   4.877  10.416 -0.1941 -0.6622 -0.6460
  300MOL0     C40429   4.706   4.902  10.454 -0.2232 -0.0409  0.2958
  300MOL0     C40430   4.821   4.933  10.476 -0.1390 -0.2133 -0.8100
  300MOL0     C40431   4.151   4.502  10.583  0.1950 -0.3042  0.1038
  300MOL0     C40432   4.087   4.556  10.697 -0.2563  0.8051 -0.3768
  300MOL0     H40433   4.118   4.563  11.190  1.8419  0.2449 -1.6957
  300MOL0     H40434   4.068   4.637  11.432  0.7354 -1.0544 -1.9961
  300MOL0     H40435   4.246   4.966  11.548 -1.1262 -0.3725 -1.6170
  300MOL0     H40436   4.152   4.943  11.695  2.2689  1.6591  0.9557
  300MOL0     H40437   4.303   4.701  11.565  0.2188  0.4821  0.0798
  300MOL0     H40438   4.349   4.820  11.691  0.7412 -0.7628 -0.4230
  300MOL0     H40439   4.153   4.775  11.814 -2.7053 -0.0606 -1.6454
  300MOL0     H40440   4.096   4.660  11.701 -3.6935  2.3120  4.7253
  300MOL0     H40441   4.344   4.558  11.759 -2.3870  2.7158 -5.0450
  300MOL0     H40442   4.321   4.651  11.908 -0.2435  1.6848 -0.5337
  300MOL0     H40443   4.169   4.417  11.805  2.7532 -1.2558 -1.1719
  300MOL0     H40444   4.290   4.436  11.929  1.6340 -0.6459 -3.2746
  300MOL0     H40445   4.131   4.567  12.072  0.8925 -0.5161 -0.7789
  300MOL0     H40446   4.009   4.571  11.946  1.5896  2.2800 -0.1986
  300MOL0     H40447   4.007   4.313  11.935  1.2074  4.4189 -2.9233
  300MOL0     H40448   4.117   4.319  12.076 -0.0341 -0.1294  0.2359
  300MOL0     H40449   3.843   4.431  12.074 -0.0418 -2.0625 -2.0878
  300MOL0     H40450   3.974   4.430  12.215  0.9333 -1.0423  0.5794
  300MOL0     H40451   3.936   4.234  12.382 -4.0806  0.5590  2.1049
  300MOL0     H40452   3.810   3.878  12.386  0.8302 -0.5809  1.8316
  300MOL0     H40453   3.945   3.942  12.432 -1.0183 -2.6332  0.2690
  300MOL0     H40454   3.848   4.132  12.563 -0.8119  0.1873  0.4005
  300MOL0     H40455   3.803   3.982  12.621  2.3534  1.9338  1.1966
  300MOL0     H40456   3.594   4.094  12.638 -0.2658 -0.6076  0.0201
  300MOL0     H40457   3.585   3.990  12.504  0.9959 -1.7423  2.3938
  300MOL0     H40458   3.499   4.219  12.472 -0.2262 -0.3428 -1.6229
  300MOL0     H40459   3.608   4.176  12.350 -2.1517  0.7236  0.4808
  300MOL0     H40460   3.469   4.387  12.313 -1.6522  1.8784 -0.8833
  300MOL0     H40461   3.421   4.684  12.118  0.3754  0.2892  0.7087
  300MOL0     H40462   3.468   4.545  12.035  4.6215  0.4905  0.9340
  300MOL0     H40463   3.350   4.520  12.170  2.8883 -3.4864  0.7315
  300MOL0     H40464   3.823   4.789  11.825  4.3356 -1.4780  1.5086
  300MOL0     H40465   3.863   5.010  11.696  0.5677  0.1856  0.0041
  300MOL0     H40466   3.785   5.369  11.944 -1.4817  0.5625 -1.7459
  300MOL0     H40467   3.967   5.370  11.918  1.5535 -1.1851 -2.3517
  300MOL0     H40468   3.951   5.516  11.714  0.8492 -1.0890 -0.8850
  300MOL0     H40469   3.778   5.468  11.705  0.4904 -0.1758 -0.1477
  300MOL0     H40470   3.882   5.601  11.953 -2.6346  0.5747  2.1387
  300MOL0     H40471   3.731   5.634  11.866  0.8790 -1.5552  1.2611
  300MOL0     H40472   4.005   5.737  11.767  0.5928 -0.4648  2.9803
  300MOL0     H40473   3.852   5.756  11.684  5.5642  3.3468 -2.5965
  300MOL0     H40474   3.944   5.860  11.951  2.1402 -0.3442 -2.3901
  300MOL0     H40475   3.767   5.861  11.897 -0.4902 -0.5131  0.4185
  300MOL0     H40476   4.013   5.962  11.754 -0.2299 -3.4848  2.9562
  300MOL0     H40477   3.840   5.999  11.712 -1.5263 -2.4301  1.3597
  300MOL0     H40478   3.955   6.082  11.987  1.5279 -1.2796 -0.8276
  300MOL0     H40479   3.801   6.120  11.908 -0.3990  0.0247 -1.2284
  300MOL0     H40480   3.941   6.237  11.731  0.1855  0.6790  0.5610
  300MOL0     H40481   4.082   6.212  11.834  0.2780  1.7437 -1.2889
  300MOL0     H40482   3.833   5.218  12.075 -1.7580  0.6720 -0.7306
  300MOL0     H40483   3.835   5.004  12.189 -0.1743  0.0087 -0.1227
  300MOL0     H40484   3.866   4.692  12.320  1.6512 -0.5868  1.0642
  300MOL0     H40485   3.872   4.491  12.456 -0.4532 -1.7728  1.4370
  300MOL0     H40486   4.083   5.046  11.318 -3.6771 -1.3862  2.4108
  300MOL0     H40487   4.167   4.972  11.099 -5.1392 -0.9168 -2.6131
  300MOL0     H40488   4.366   4.646  10.871  1.1090  0.8970 -1.3956
  300MOL0     H40489   4.463   4.589  10.647  0.1120 -1.8993 -2.1355
  300MOL0     H40490   4.390   4.526  10.264 -0.4816  0.0424 -0.1421
  300MOL0     H40491   4.226   4.571  10.314  0.0958  1.5117  0.4580
  300MOL0     H40492   4.320   4.770  10.424 -3.6487  0.1156 -3.1840
  300MOL0     H40493   4.375   4.758  10.261  1.4217 -2.7624 -1.8972
  300MOL0     H40494   4.596   4.669  10.342 -0.0425  2.6071 -2.4583
  300MOL0     H40495   4.548   4.697  10.513  1.8729 -1.0832 -0.6121
  300MOL0     H40496   4.505   4.936  10.483  2.1043  2.9859 -1.4247
  300MOL0     H40497   4.546   4.930  10.323  1.5814  0.1090 -0.6715
  300MOL0     H40498   4.923   4.949  10.502 -0.1560 -2.3408  0.8417
  300MOL0     H40499   4.097   4.470  10.495 -0.2148 -0.5937  0.4579
  300MOL0     H40500   3.979   4.563  10.701 -0.5249  0.4009 -3.7471
  301MOL0     O40501   9.293   5.687   8.351  0.1791 -0.8341 -0.8647
  301MOL0     C40502   9.312   5.718   8.470 -0.6930 -0.2044  0.3255
  301MOL0     O40503   9.300   5.850   8.512 -0.3269 -0.0230 -0.2824
  301MOL0     C40504   9.262   5.945   8.416 -0.3812  0.5480  0.0475
  301MOL0     C40505   9.364   6.022   8.357 -0.0419 -0.6112  0.5103
  301MOL0     C40506   9.325   6.121   8.257 -1.2759  0.6803  0.5762
  301MOL0     C40507   9.193   6.128   8.213 -0.8849  0.3344 -0.5275
  301MOL0     O40508   9.157   6.223   8.128  0.1884 -0.0185 -0.6318
  301MOL0     C40509   9.248   6.287   8.031  0.7939  0.2111 -0.4148
  301MOL0     C40510   9.172   6.383   7.937  0.0049 -0.2345  0.9930
  301MOL0     C40511   9.076   6.327   7.830 -0.9329 -0.8942  0.5182
  301MOL0     C40512   8.939   6.258   7.885  0.7883 -0.5465 -0.3741
  301MOL0     C40513   8.833   6.234   7.776 -0.3695 -0.0191  0.6136
  301MOL0     C40514   8.883   6.164   7.647  0.0514  0.7882  0.2085
  301MOL0     C40515   8.934   6.026   7.692  0.2440  0.4465 -0.7131
  301MOL0     C40516   8.901   5.919   7.580 -0.0480  0.5653 -0.1568
  301MOL0     N40517   8.955   5.780   7.613 -0.8273  0.2113 -0.3732
  301MOL0     C40518   9.087   5.740   7.612 -0.1920  0.7511 -0.4708
  301MOL0     C40519   9.096   5.631   7.691  1.0424  0.1832 -0.8758
  301MOL0     C40520   9.225   5.565   7.724  0.1760  0.0168 -0.2534
  301MOL0     C40521   9.254   5.580   7.873 -0.4447  0.3822 -0.9024
  301MOL0     C40522   9.343   5.475   7.931 -0.8039 -0.3428 -0.7425
  301MOL0     C40523   9.360   5.513   8.080  0.1525  0.6302 -0.1809
  301MOL0     O40524   9.453   5.418   8.138 -0.3396  0.1648  0.2963
  301MOL0     C40525   9.407   5.296   8.192  0.8501  0.5650 -1.0065
  301MOL0     C40526   9.495   5.221   8.278  0.0806  0.4151 -0.0977
  301MOL0     C40527   9.469   5.101   8.335  0.1878  0.6425  0.3750
  301MOL0     C40528   9.577   5.038   8.420 -0.2255 -0.2642 -0.2266
  301MOL0     C40529   9.342   5.036   8.318 -1.1120 -0.0268 -0.9140
  301MOL0     C40530   9.301   4.910   8.386 -0.1581 -0.0410 -0.5653
  301MOL0     O40531   9.328   4.901   8.520  0.9591  2.0493 -0.4823
  301MOL0     C40532   9.304   4.778   8.567  0.6454 -0.3331 -0.5751
  301MOL0     C40533   9.404   4.676   8.584  0.4909  0.0873 -0.5002
  301MOL0     C40534   9.382   4.542   8.629  0.6043  0.2567 -0.1983
  301MOL0     C40535   9.252   4.499   8.661  0.1440  0.5300  0.1284
  301MOL0     O40536   9.235   4.363   8.687  0.6529  0.5195  0.3767
  301MOL0     C40537   9.133   4.336   8.785 -0.3515 -0.1195  0.2208
  301MOL0     C40538   9.112   4.187   8.822 -0.5311  0.2913 -0.3901
  301MOL0     C40539   9.238   4.130   8.890 -0.4341  0.8045  0.1820
  301MOL0     C40540   9.211   3.977   8.931 -0.5525 -0.2363  0.2536
  301MOL0     C40541   9.320   3.926   9.023 -0.0203  0.5781  0.8316
  301MOL0     C40542   9.428   3.858   8.945 -0.5352 -0.1889  0.6551
  301MOL0     C40543   9.510   3.748   9.021  0.4226  0.5726 -0.4724
  301MOL0     C40544   9.662   3.784   9.045 -0.5483  0.0372  0.2504
  301MOL0    Cl40545   9.660   3.925   9.157 -0.0020 -0.2771  0.1968
  301MOL0     C40546   9.147   4.601   8.655  0.2106  0.5356 -0.5047
  301MOL0     C40547   9.180   4.735   8.613  0.0411  0.1748 -0.1304
  301MOL0     O40548   9.257   4.822   8.311 -0.7028 -0.3068 -0.7585
  301MOL0     C40549   9.254   5.105   8.233  0.2531  0.4014  0.1891
  301MOL0     C40550   9.287   5.225   8.169 -0.4656  0.4441  0.5711
  301MOL0     N40551   8.964   5.606   7.750 -0.7869 -0.2599  0.3757
  301MOL0     N40552   8.888   5.696   7.703 -0.1526 -0.9971  0.2083
  301MOL0     C40553   9.103   6.042   8.262  0.4234  0.2933 -0.0903
  301MOL0     C40554   9.135   5.950   8.363  0.8897  0.1406  0.5580
  301MOL0     C40555   9.346   5.606   8.563  0.1142  0.2854  1.3236
  301MOL0     C40556   9.343   5.615   8.701  0.6854 -0.2110  0.0255
  301MOL0     C40557   9.387   5.511   8.787  0.5492 -0.4271  0.9372
  301MOL0     C40558   9.431   5.386   8.733  0.4767 -0.5550  0.5009
  301MOL0     O40559   9.472   5.292   8.822 -0.2082  0.1058  0.5257
  301MOL0     C40560   9.470   5.157   8.792 -0.4124  0.8168  0.0679
  301MOL0     C40561   9.573   5.072   8.881  0.8654 -0.0859 -0.8826
  301MOL0     C40562   9.508   4.976   8.983 -0.5708  0.4003 -0.1560
  301MOL0     C40563   9.445   4.856   8.926  0.1179  0.5130 -0.3893
  301MOL0     C40564   9.402   4.759   9.026 -0.4034  0.3808 -0.0024
  301MOL0     C40565   9.356   4.679   9.106  0.2730  0.7098  0.1929
  301MOL0     C40566   9.431   5.368   8.593  0.3291 -0.6160 -0.0487
  301MOL0     C40567   9.399   5.484   8.517  0.5176  0.4124  0.9650
  301MOL0     H40568   9.470   6.019   8.383  0.6264  1.0581 -1.7019
  301MOL0     H40569   9.396   6.191   8.213 -2.7093  1.9799  0.2663
  301MOL0     H40570   9.324   6.352   8.076 -2.6646  2.9386  2.0192
  301MOL0     H40571   9.301   6.209   7.975 -2.6315 -2.5134 -0.2361
  301MOL0     H40572   9.112   6.447   8.002 -0.3220  0.4411  0.0554
  301MOL0     H40573   9.246   6.452   7.895 -1.9724  2.8176  2.1855
  301MOL0     H40574   9.050   6.414   7.770  0.4605 -0.7126  0.1434
  301MOL0     H40575   9.139   6.257   7.774 -1.2489 -1.1797  0.5167
  301MOL0     H40576   8.969   6.160   7.923 -2.5625 -0.3729  3.4759
  301MOL0     H40577   8.888   6.325   7.955 -1.8343 -1.2240 -1.4920
  301MOL0     H40578   8.752   6.181   7.828 -0.8126  2.4895  2.6994
  301MOL0     H40579   8.786   6.323   7.733 -1.7820 -0.1455  1.8258
  301MOL0     H40580   8.804   6.151   7.573 -0.0223 -0.5320  0.4847
  301MOL0     H40581   8.967   6.227   7.616  2.0347 -0.7603  2.0649
  301MOL0     H40582   9.042   6.027   7.712  0.3257  0.0337 -1.1034
  301MOL0     H40583   8.892   5.978   7.781  3.2979 -2.7786 -0.7689
  301MOL0     H40584   8.947   5.940   7.484  1.0543 -4.4794 -1.0085
  301MOL0     H40585   8.793   5.907   7.567  0.2588 -0.8789 -1.6121
  301MOL0     H40586   9.157   5.803   7.558 -0.1792  2.0814  1.0327
  301MOL0     H40587   9.214   5.459   7.701 -3.2041  0.3270 -0.5934
  301MOL0     H40588   9.309   5.613   7.674  1.0019 -1.9925 -0.8734
  301MOL0     H40589   9.156   5.570   7.922 -0.9001  2.9120 -1.1989
  301MOL0     H40590   9.284   5.682   7.895 -1.1366  0.1532  1.3579
  301MOL0     H40591   9.441   5.481   7.883  0.5075 -1.7699  1.5820
  301MOL0     H40592   9.303   5.373   7.930 -0.8452 -0.3750  1.1632
  301MOL0     H40593   9.270   5.493   8.139  1.1265 -2.6006  0.4214
  301MOL0     H40594   9.399   5.614   8.093 -0.3747  0.7807  0.2552
  301MOL0     H40595   9.595   5.260   8.296 -0.3745  0.0682  4.0372
  301MOL0     H40596   9.553   4.934   8.443  0.0184  0.2869  3.0468
  301MOL0     H40597   9.676   5.037   8.374  0.8629  2.1059  1.8340
  301MOL0     H40598   9.595   5.086   8.517 -0.4928 -0.9499  0.1696
  301MOL0     H40599   9.510   4.701   8.574  1.2244 -2.0035  1.1917
  301MOL0     H40600   9.472   4.481   8.636 -1.7428 -3.4136  1.1573
  301MOL0     H40601   9.153   4.384   8.881 -1.3021  3.6993 -1.3047
  301MOL0     H40602   9.037   4.380   8.756 -0.5572  0.1943  1.3108
  301MOL0     H40603   9.023   4.172   8.884 -1.4015  0.8125 -1.4629
  301MOL0     H40604   9.074   4.133   8.734 -1.9661 -0.1052  0.4380
  301MOL0     H40605   9.265   4.192   8.976 -0.3007  3.8638 -1.9249
  301MOL0     H40606   9.332   4.136   8.835  0.3058  3.8132  1.5693
  301MOL0     H40607   9.122   3.980   8.994  0.3007 -1.1741  1.5671
  301MOL0     H40608   9.191   3.916   8.843 -0.7101 -0.0181  0.1375
  301MOL0     H40609   9.275   3.866   9.103  0.0018  0.1784  0.5465
  301MOL0     H40610   9.361   4.017   9.065 -3.7463  2.0513  1.7085
  301MOL0     H40611   9.382   3.792   8.871 -2.4996 -1.2148  2.6470
  301MOL0     H40612   9.500   3.919   8.891  0.0574 -0.1763  1.4370
  301MOL0     H40613   9.513   3.660   8.957 -1.6309  0.0739  0.0496
  301MOL0     H40614   9.463   3.722   9.116  2.7046 -2.0086  0.0824
  301MOL0     H40615   9.722   3.802   8.955  3.1620  2.0975  2.8635
  301MOL0     H40616   9.722   3.700   9.081 -1.1686 -1.4640 -2.0065
  301MOL0     H40617   9.045   4.585   8.689  0.1030  2.2214  0.0557
  301MOL0     H40618   9.097   4.805   8.603  2.1425  2.4669 -3.3455
  301MOL0     H40619   9.156   5.066   8.208  0.5068  0.8484 -1.7079
  301MOL0     H40620   9.215   5.284   8.113  0.3843  0.1581 -0.8487
  301MOL0     H40621   9.002   6.044   8.225  1.5210  0.9487 -3.3526
  301MOL0     H40622   9.063   5.871   8.385  0.6574 -0.6450 -2.5120
  301MOL0     H40623   9.309   5.706   8.748  2.0641 -1.0074  2.7611
  301MOL0     H40624   9.374   5.517   8.894 -2.2201  1.0486  0.6150
  301MOL0     H40625   9.367   5.122   8.809 -0.0610 -0.6695 -0.7196
  301MOL0     H40626   9.473   5.138   8.685  0.0718 -0.8734  0.3458
  301MOL0     H40627   9.634   5.140   8.941  0.4212 -1.3056  1.0687
  301MOL0     H40628   9.637   5.008   8.819 -0.6404 -1.6941 -0.8625
  301MOL0     H40629   9.451   5.030   9.060 -0.6813 -1.2200  0.9305
  301MOL0     H40630   9.593   4.931   9.034  0.3505  2.8057  0.5946
  301MOL0     H40631   9.509   4.799   8.859  1.4205  3.7837 -2.1622
  301MOL0     H40632   9.358   4.885   8.867  0.3746 -0.2325 -1.1514
  301MOL0     H40633   9.341   4.621   9.195 -2.2362  2.3590  0.9509
  301MOL0     H40634   9.467   5.278   8.545 -2.2096 -1.3658 -0.6855
  301MOL0     H40635   9.405   5.489   8.408 -0.3093  3.8864  0.9386
  302MOL0     O40636   9.604   1.597   8.054  0.8407  0.1826 -0.2048
  302MOL0     C40637   9.630   1.660   7.950  0.6748 -1.2372 -0.9329
  302MOL0     O40638   9.549   1.745   7.873 -1.0995  0.0141 -0.2057
  302MOL0     C40639   9.423   1.756   7.903  0.7659 -0.2326 -0.1439
  302MOL0     C40640   9.333   1.776   7.802  0.9300  0.1740  0.0601
  302MOL0     C40641   9.196   1.791   7.830  0.9588 -0.8829  0.5372
  302MOL0     C40642   9.152   1.800   7.956  0.7486 -0.6485  0.0991
  302MOL0     O40643   9.022   1.817   7.972  0.4339 -0.0258 -0.4095
  302MOL0     C40644   8.955   1.749   8.083  1.1204  0.5286  0.8447
  302MOL0     C40645   8.807   1.725   8.032  0.2403  0.2514  0.1043
  302MOL0     C40646   8.742   1.853   8.004  1.7272 -0.7312 -0.2203
  302MOL0     C40647   8.590   1.837   8.007 -0.3039 -0.7209  0.4912
  302MOL0     C40648   8.512   1.968   8.011 -0.0637 -0.6308 -0.1712
  302MOL0     C40649   8.491   2.009   8.160  0.0632  0.2342  0.1268
  302MOL0     C40650   8.475   2.165   8.168 -0.2380  1.2161  0.1405
  302MOL0     C40651   8.453   2.199   8.310  0.5762 -1.3014 -0.0322
  302MOL0     N40652   8.481   2.347   8.337  0.1338  0.3485  0.3799
  302MOL0     C40653   8.611   2.385   8.339 -0.0401 -0.9671  0.2461
  302MOL0     C40654   8.595   2.516   8.354 -1.0832 -0.4304  0.3382
  302MOL0     C40655   8.724   2.603   8.357 -0.0772  0.1785  0.6769
  302MOL0     C40656   8.812   2.605   8.485 -0.1443  0.7648  0.0180
  302MOL0     C40657   8.963   2.622   8.469 -0.1969 -0.1190  0.6004
  302MOL0     C40658   9.047   2.658   8.598  0.6807  0.0490  0.2000
  302MOL0     O40659   9.022   2.546   8.681 -0.9693  0.1271 -0.3875
  302MOL0     C40660   9.116   2.518   8.781 -0.2117 -0.4491  0.5984
  302MOL0     C40661   9.246   2.582   8.793 -0.1634  0.3962 -0.7065
  302MOL0     C40662   9.327   2.556   8.906 -0.5888  0.2131 -0.5900
  302MOL0     C40663   9.448   2.642   8.927  0.2680  0.6781  0.3012
  302MOL0     C40664   9.291   2.446   8.993 -1.1737 -0.5858 -0.5566
  302MOL0     C40665   9.385   2.385   9.092  0.0843 -1.0931  0.5506
  302MOL0     O40666   9.519   2.400   9.074 -0.2161 -0.2634  0.1290
  302MOL0     C40667   9.600   2.353   9.176 -0.4920  0.9831 -0.5202
  302MOL0     C40668   9.673   2.438   9.254  0.6751  0.5683  0.0767
  302MOL0     C40669   9.756   2.381   9.341  0.7348  0.5381  0.2612
  302MOL0     C40670   9.777   2.250   9.362  0.7365  0.1377  0.2480
  302MOL0     O40671   9.875   2.212   9.456 -0.1804 -0.0988  0.4872
  302MOL0     C40672   9.919   2.076   9.452 -0.1155  0.2084 -0.2005
  302MOL0     C40673  10.054   2.052   9.525  0.1854 -0.6630  0.8593
  302MOL0     C40674  10.022   2.001   9.668 -0.6804 -0.7071 -0.4112
  302MOL0     C40675  10.150   2.009   9.748  0.1048  1.1270 -0.7771
  302MOL0     C40676  10.233   1.884   9.712 -0.6781  0.0906 -0.1625
  302MOL0     C40677  10.361   1.859   9.794  0.0792 -0.4526 -1.2412
  302MOL0     C40678  10.438   1.744   9.740  0.3570 -0.3451 -0.0546
  302MOL0     C40679  10.487   1.768   9.600  0.3813  0.1621  0.1473
  302MOL0    Cl40680  10.616   1.644   9.561 -0.3164 -0.3818 -0.3369
  302MOL0     C40681   9.706   2.160   9.280 -1.0202  0.2573 -0.2529
  302MOL0     C40682   9.631   2.211   9.180  0.9955 -0.0348  0.5712
  302MOL0     O40683   9.329   2.323   9.184 -0.3174 -0.7915 -0.4149
  302MOL0     C40684   9.163   2.383   8.980 -1.3640  0.1955  0.3262
  302MOL0     C40685   9.080   2.421   8.873  0.5389  0.2529 -0.2690
  302MOL0     N40686   8.458   2.552   8.347  0.0743  0.1619  0.4098
  302MOL0     N40687   8.389   2.446   8.349  0.3002 -0.0510 -0.6827
  302MOL0     C40688   9.236   1.796   8.068  0.1032  0.5825 -0.5782
  302MOL0     C40689   9.375   1.773   8.039  0.0413 -1.5040  0.4882
  302MOL0     C40690   9.770   1.643   7.902 -1.0412  0.0882 -0.7398
  302MOL0     C40691   9.833   1.727   7.810  0.2247 -0.7342  0.5771
  302MOL0     C40692   9.970   1.718   7.781  0.7951  0.2729  1.7073
  302MOL0     C40693  10.040   1.601   7.813 -0.6475 -1.2296  1.0517
  302MOL0     O40694  10.169   1.590   7.758 -0.4975 -0.3121 -0.6281
  302MOL0     C40695  10.253   1.502   7.830 -0.9169  0.3961  0.2757
  302MOL0     C40696  10.396   1.536   7.790 -0.2269 -0.5747  0.0070
  302MOL0     C40697  10.494   1.431   7.848  0.4716 -1.1081  0.6893
  302MOL0     C40698  10.638   1.491   7.844 -1.5931  0.7349  1.0316
  302MOL0     C40699  10.728   1.413   7.762  0.6149 -0.8969 -0.6635
  302MOL0     C40700  10.796   1.339   7.696 -0.0882  0.3019  0.6541
  302MOL0     C40701   9.972   1.502   7.887 -0.3899 -0.8112 -0.3394
  302MOL0     C40702   9.837   1.523   7.927 -1.4531 -1.1287 -0.2343
  302MOL0     H40703   9.369   1.768   7.700  0.8635  1.9004 -0.1184
  302MOL0     H40704   9.123   1.800   7.750 -0.6958  0.0639  2.1026
  302MOL0     H40705   8.998   1.652   8.112  2.6411  1.4183  1.7244
  302MOL0     H40706   8.968   1.807   8.175  1.8694 -2.4348  2.7366
  302MOL0     H40707   8.817   1.663   7.942  0.3066 -1.5177  1.2693
  302MOL0     H40708   8.754   1.667   8.108 -0.1208 -2.1257 -1.8334
  302MOL0     H40709   8.757   1.928   8.082 -1.4815  0.2666 -0.4049
  302MOL0     H40710   8.771   1.895   7.907 -3.0589  2.5763 -0.6047
  302MOL0     H40711   8.554   1.792   7.914 -0.8856 -1.8057  1.2206
  302MOL0     H40712   8.563   1.774   8.093  2.4098 -0.4807  1.6099
  302MOL0     H40713   8.563   2.050   7.958 -2.2345 -0.1131 -1.5612
  302MOL0     H40714   8.416   1.957   7.961 -0.2156  0.9307 -0.2966
  302MOL0     H40715   8.410   1.959   8.212 -0.2238 -2.2984 -2.4833
  302MOL0     H40716   8.580   1.995   8.222  0.1470  0.3480  0.0335
  302MOL0     H40717   8.562   2.216   8.125  0.1870  0.5933  0.2531
  302MOL0     H40718   8.390   2.199   8.107 -2.6483 -2.2838  1.2673
  302MOL0     H40719   8.501   2.133   8.383 -1.6100 -2.7190  0.2245
  302MOL0     H40720   8.347   2.189   8.334  0.0110  0.3298 -1.6223
  302MOL0     H40721   8.705   2.333   8.328  0.2468 -0.2373 -0.9271
  302MOL0     H40722   8.787   2.574   8.273 -0.3295  2.0524 -0.1945
  302MOL0     H40723   8.695   2.706   8.338 -0.0991  0.4192  1.8855
  302MOL0     H40724   8.787   2.520   8.549 -3.3926  0.9502 -0.8419
  302MOL0     H40725   8.765   2.694   8.528 -3.1110 -0.4488 -0.4595
  302MOL0     H40726   8.983   2.694   8.389 -3.6996 -0.9476 -1.2388
  302MOL0     H40727   9.013   2.533   8.428  0.6056 -0.0559  1.4046
  302MOL0     H40728   8.994   2.741   8.645 -0.9187 -1.4543  1.2133
  302MOL0     H40729   9.153   2.681   8.581  0.2817  3.4711  1.5157
  302MOL0     H40730   9.274   2.667   8.731 -0.7916  1.3257  0.2479
  302MOL0     H40731   9.431   2.739   8.880 -3.0824  1.5039  2.8528
  302MOL0     H40732   9.472   2.655   9.033  3.0089 -2.2359  0.2023
  302MOL0     H40733   9.536   2.592   8.885  1.3700  2.9862 -0.3081
  302MOL0     H40734   9.664   2.544   9.235  0.1329  0.5844  0.4032
  302MOL0     H40735   9.815   2.438   9.413  3.7488  0.4963 -1.9668
  302MOL0     H40736   9.842   2.010   9.493  0.0916  1.4472  2.3626
  302MOL0     H40737   9.940   2.031   9.354 -0.6692  3.1212 -1.7803
  302MOL0     H40738  10.111   1.969   9.481 -3.9568 -2.8794 -0.8715
  302MOL0     H40739  10.117   2.142   9.521 -1.7430  0.7305  0.6449
  302MOL0     H40740   9.972   1.906   9.686  0.0924 -1.2730 -1.1806
  302MOL0     H40741   9.957   2.072   9.720  0.1238  2.3995 -3.2751
  302MOL0     H40742  10.210   2.100   9.741  2.9579 -0.6003 -0.1588
  302MOL0     H40743  10.123   1.993   9.853  0.9539 -0.1034 -0.7287
  302MOL0     H40744  10.270   1.883   9.610  1.7201  0.3846  0.6441
  302MOL0     H40745  10.175   1.793   9.728 -0.8224  0.3805  1.1108
  302MOL0     H40746  10.424   1.948   9.784  1.5509 -1.1072  1.3862
  302MOL0     H40747  10.343   1.844   9.901 -1.9677  1.9241 -1.1394
  302MOL0     H40748  10.375   1.654   9.741  1.3355 -1.0864  2.2909
  302MOL0     H40749  10.530   1.734   9.798  0.3093 -0.4794 -0.0036
  302MOL0     H40750  10.540   1.863   9.605 -1.1860  1.0214  1.6220
  302MOL0     H40751  10.419   1.759   9.514 -1.7670 -1.6355  1.9068
  302MOL0     H40752   9.718   2.053   9.288 -0.5099  0.2604 -0.9504
  302MOL0     H40753   9.581   2.145   9.110 -0.4237 -0.3134  1.7758
  302MOL0     H40754   9.144   2.298   9.045 -0.1295 -0.1987  0.1967
  302MOL0     H40755   8.981   2.383   8.849  2.3436 -2.5727 -4.5038
  302MOL0     H40756   9.212   1.809   8.173  0.0562 -0.1676 -0.4913
  302MOL0     H40757   9.450   1.778   8.117  0.3442 -1.3995  0.1922
  302MOL0     H40758   9.789   1.822   7.781  0.5301 -0.9410 -0.6185
  302MOL0     H40759  10.023   1.778   7.709  3.7548 -0.5351  3.0426
  302MOL0     H40760  10.244   1.516   7.938  0.0483  4.2152  0.0036
  302MOL0     H40761  10.230   1.403   7.792  4.5312 -1.4936  0.9523
  302MOL0     H40762  10.432   1.627   7.839  3.0352 -1.0422 -1.2447
  302MOL0     H40763  10.422   1.545   7.684  0.7579  2.9923  0.4145
  302MOL0     H40764  10.483   1.343   7.784 -0.4960 -0.3461 -0.2100
  302MOL0     H40765  10.458   1.414   7.950 -2.0320  1.4227  0.3435
  302MOL0     H40766  10.689   1.506   7.940  1.6218  1.4411 -0.6232
  302MOL0     H40767  10.638   1.591   7.798  1.2415 -0.0076 -0.8514
  302MOL0     H40768  10.843   1.254   7.652 -3.1167 -1.2079  0.1168
  302MOL0     H40769  10.022   1.407   7.906 -0.8213 -1.5962 -2.8344
  302MOL0     H40770   9.791   1.449   7.991 -0.1326 -1.1359  0.7553
  303MOL0     O40771   6.074   8.150   0.122  0.0563  0.0171  0.2815
  303MOL0     C40772   5.961   8.175   0.069  0.0152  0.3030 -0.2479
  303MOL0     O40773   5.936   8.231  -0.049 -0.5634  0.3038  0.5047
  303MOL0     C40774   6.023   8.294  -0.134 -0.3888 -1.1494 -0.1976
  303MOL0     C40775   5.973   8.316  -0.262  0.4963  0.3276 -0.5459
  303MOL0     C40776   6.035   8.407  -0.350  1.1188  0.3981  0.3661
  303MOL0     C40777   6.156   8.467  -0.314 -0.8923 -0.9841  0.0185
  303MOL0     O40778   6.215   8.546  -0.402 -0.3834  0.3390  0.0793
  303MOL0     C40779   6.362   8.540  -0.413 -0.1610  0.3057  0.2067
  303MOL0     C40780   6.415   8.549  -0.563  0.1912  0.2353 -0.4858
  303MOL0     C40781   6.318   8.504  -0.671  0.0759  0.3276  0.0232
  303MOL0     C40782   6.386   8.512  -0.806 -0.3043  0.0070 -0.2642
  303MOL0     C40783   6.266   8.487  -0.909 -0.6400 -0.7741  0.1113
  303MOL0     C40784   6.219   8.617  -0.973  0.1110  0.2173  0.7251
  303MOL0     C40785   6.161   8.580  -1.111 -0.1240 -0.1489 -0.2878
  303MOL0     C40786   6.090   8.694  -1.189 -0.9768  0.1510  0.1838
  303MOL0     N40787   6.013   8.784  -1.103 -0.2485  0.4396  0.0160
  303MOL0     C40788   6.045   8.919  -1.088 -0.2696  0.0030  1.2540
  303MOL0     C40789   5.960   8.960  -0.996 -0.0336 -0.1108 -0.2081
  303MOL0     C40790   5.989   9.093  -0.932  0.1915  0.0280  0.6242
  303MOL0     C40791   6.133   9.091  -0.880  0.1068 -0.2795  0.1490
  303MOL0     C40792   6.181   8.972  -0.796 -0.1178  0.1725  0.4729
  303MOL0     C40793   6.320   8.984  -0.743 -0.4064 -0.4103  0.3623
  303MOL0     O40794   6.418   8.927  -0.836 -0.2486 -0.1400 -0.2100
  303MOL0     C40795   6.517   9.012  -0.892 -0.4137  0.0942 -0.9245
  303MOL0     C40796   6.650   8.969  -0.895 -0.4954  0.3570 -0.6466
  303MOL0     C40797   6.759   9.052  -0.925  0.1407  0.8852  0.0339
  303MOL0     C40798   6.891   8.998  -0.913  0.5085 -0.1390  0.3144
  303MOL0     C40799   6.733   9.190  -0.961 -0.3813 -0.0783 -1.0376
  303MOL0     C40800   6.838   9.295  -0.978 -1.2409  0.2127  0.4702
  303MOL0     O40801   6.802   9.412  -1.040 -0.1393 -0.0195  0.1011
  303MOL0     C40802   6.904   9.501  -1.083 -0.1526  0.6349 -0.5606
  303MOL0     C40803   6.898   9.543  -1.220 -0.0373  0.1151 -0.2162
  303MOL0     C40804   6.992   9.628  -1.274  0.2199 -0.4871  0.1523
  303MOL0     C40805   7.091   9.679  -1.200 -0.5185  0.3724  0.4535
  303MOL0     O40806   7.182   9.751  -1.275 -0.0447 -0.2156 -0.7635
  303MOL0     C40807   7.291   9.811  -1.210 -0.0207  0.1739  1.0596
  303MOL0     C40808   7.413   9.812  -1.302  0.4666 -0.0624 -0.1208
  303MOL0     C40809   7.545   9.860  -1.239 -0.5086 -0.6784  0.1473
  303MOL0     C40810   7.667   9.857  -1.331  0.2071 -0.3458 -0.4279
  303MOL0     C40811   7.796   9.830  -1.263 -0.3485  1.0601 -0.7995
  303MOL0     C40812   7.804   9.678  -1.227 -0.1137 -0.0031 -0.2240
  303MOL0     C40813   7.961   9.626  -1.220  0.1570  0.2534  0.8622
  303MOL0     C40814   8.000   9.650  -1.072  0.0671  0.2424 -1.0998
  303MOL0    Cl40815   8.175   9.627  -1.063 -0.3515  0.0744 -0.0241
  303MOL0     C40816   7.090   9.647  -1.060  0.2252  0.1003 -0.5137
  303MOL0     C40817   7.006   9.557  -1.002 -0.7312 -0.3787 -0.1022
  303MOL0     O40818   6.954   9.263  -0.946 -0.0692 -0.9127 -0.1037
  303MOL0     C40819   6.598   9.235  -0.948  0.0167  0.2078 -0.1388
  303MOL0     C40820   6.497   9.147  -0.911  0.2107 -0.1247  0.6989
  303MOL0     N40821   5.867   8.856  -0.956  0.2937 -0.2218 -0.0211
  303MOL0     N40822   5.908   8.754  -1.030  0.1961 -0.3731 -0.4305
  303MOL0     C40823   6.210   8.447  -0.182  0.1194  0.7211 -0.3114
  303MOL0     C40824   6.146   8.354  -0.094 -1.4219 -0.1637 -0.6154
  303MOL0     C40825   5.842   8.129   0.144  0.2447  0.9009 -0.0756
  303MOL0     C40826   5.854   8.027   0.249  0.4887 -0.2727  0.4589
  303MOL0     C40827   5.731   7.985   0.308  0.4963 -0.2608 -0.8832
  303MOL0     C40828   5.608   8.054   0.272 -0.9872  0.1286 -0.0658
  303MOL0     O40829   5.483   8.017   0.309  0.1743  0.0181  0.8452
  303MOL0     C40830   5.468   7.934   0.419 -0.3085 -0.7964 -0.4995
  303MOL0     C40831   5.340   7.948   0.493  1.0106  0.7863 -0.3581
  303MOL0     C40832   5.264   8.082   0.480  0.0834  0.4570 -1.1468
  303MOL0     C40833   5.135   8.087   0.573  0.4721 -0.1662  0.4059
  303MOL0     C40834   5.031   7.992   0.535 -0.1957 -0.2737  0.7491
  303MOL0     C40835   4.952   7.909   0.503  0.2942 -0.3612 -0.3289
  303MOL0     C40836   5.609   8.147   0.176 -0.5622  0.1828 -0.5251
  303MOL0     C40837   5.719   8.175   0.104  0.4599 -0.0457 -0.5961
  303MOL0     H40838   5.876   8.276  -0.291  0.7650  0.6278 -1.9369
  303MOL0     H40839   6.004   8.432  -0.451  2.2680 -2.5090 -0.8109
  303MOL0     H40840   6.392   8.618  -0.342  0.3118  0.4219 -0.1126
  303MOL0     H40841   6.397   8.443  -0.376 -3.3232 -0.7372  0.7406
  303MOL0     H40842   6.446   8.652  -0.585  0.1547  0.5919  0.9704
  303MOL0     H40843   6.507   8.492  -0.557 -1.5003 -2.6669 -0.5287
  303MOL0     H40844   6.288   8.399  -0.663 -1.3836  0.8152  1.6472
  303MOL0     H40845   6.229   8.568  -0.676 -0.3360 -0.2051  0.3895
  303MOL0     H40846   6.433   8.610  -0.814 -2.1074  0.7678 -4.7314
  303MOL0     H40847   6.458   8.431  -0.823  0.8511  1.0772 -0.6199
  303MOL0     H40848   6.302   8.409  -0.976  2.9287  0.8578 -0.1153
  303MOL0     H40849   6.181   8.439  -0.861 -1.7269  1.1899  0.2682
  303MOL0     H40850   6.146   8.667  -0.909 -0.8011  0.1678 -0.2560
  303MOL0     H40851   6.307   8.680  -0.990  1.7885 -2.0954  0.2759
  303MOL0     H40852   6.233   8.522  -1.170  1.1651  0.2038  0.8698
  303MOL0     H40853   6.084   8.505  -1.088  0.1258 -0.7051 -1.2249
  303MOL0     H40854   6.022   8.650  -1.262 -2.8620  0.9368  1.4019
  303MOL0     H40855   6.167   8.735  -1.257 -0.2783 -0.2414  0.7247
  303MOL0     H40856   6.127   8.980  -1.126  0.1027 -0.6235  1.0427
  303MOL0     H40857   5.979   9.172  -1.007 -1.3245  1.4413  2.2631
  303MOL0     H40858   5.924   9.106  -0.846 -0.9564  0.9744 -0.3574
  303MOL0     H40859   6.142   9.176  -0.812 -0.7635  0.4120 -0.5756
  303MOL0     H40860   6.204   9.098  -0.964  0.5891  1.0894  0.6514
  303MOL0     H40861   6.185   8.891  -0.870 -1.5941  1.0013 -0.5463
  303MOL0     H40862   6.106   8.953  -0.719 -3.0146 -0.7060 -2.3393
  303MOL0     H40863   6.320   8.928  -0.649  0.0899 -1.4919 -0.2591
  303MOL0     H40864   6.369   9.076  -0.711  0.8409 -1.0040  0.2289
  303MOL0     H40865   6.651   8.862  -0.878  1.6305 -0.5085 -4.7554
  303MOL0     H40866   6.949   9.003  -1.006  1.1037  1.1873  0.7299
  303MOL0     H40867   6.939   9.055  -0.832  0.0370  1.6228 -0.5992
  303MOL0     H40868   6.887   8.898  -0.869  1.9609 -0.9442 -1.2416
  303MOL0     H40869   6.811   9.509  -1.276 -0.0433  2.4606 -1.7756
  303MOL0     H40870   6.981   9.630  -1.382 -0.3978  0.3218  0.2195
  303MOL0     H40871   7.268   9.908  -1.166  0.3936  0.6565  0.2403
  303MOL0     H40872   7.341   9.755  -1.130  4.5443  3.2199  0.7486
  303MOL0     H40873   7.430   9.710  -1.337  1.0478  0.3209 -1.0129
  303MOL0     H40874   7.400   9.887  -1.382 -1.2447  0.7245  0.8285
  303MOL0     H40875   7.562   9.802  -1.148 -0.3667  0.6217  0.9709
  303MOL0     H40876   7.526   9.963  -1.208  0.7318 -0.4075  0.0496
  303MOL0     H40877   7.655   9.799  -1.424  1.8930  0.5875 -1.2764
  303MOL0     H40878   7.673   9.959  -1.371 -4.6505  0.8964  1.3540
  303MOL0     H40879   7.802   9.880  -1.166  3.1297 -0.1907 -0.2093
  303MOL0     H40880   7.881   9.855  -1.327  2.0635  0.0798  1.8064
  303MOL0     H40881   7.756   9.647  -1.134  0.1962 -4.3681 -1.3097
  303MOL0     H40882   7.762   9.611  -1.303  4.3665 -3.2689 -0.2605
  303MOL0     H40883   8.018   9.682  -1.295  2.2935 -0.7060  1.6943
  303MOL0     H40884   7.960   9.521  -1.252 -3.2910  1.0512 -2.4019
  303MOL0     H40885   7.949   9.584  -1.001  1.3524  1.1093  0.7282
  303MOL0     H40886   7.984   9.755  -1.044  0.6701 -0.6547  3.4889
  303MOL0     H40887   7.165   9.690  -0.995 -1.5252  0.5975  1.2691
  303MOL0     H40888   7.013   9.532  -0.897 -1.4625  0.9369  0.2726
  303MOL0     H40889   6.574   9.341  -0.952  2.0396  0.6656 -2.3096
  303MOL0     H40890   6.395   9.180  -0.896 -1.0445 -3.0964 -0.5035
  303MOL0     H40891   6.299   8.493  -0.142 -2.5571  5.1602  1.2441
  303MOL0     H40892   6.188   8.331   0.003  2.4973 -0.8620 -2.2953
  303MOL0     H40893   5.950   7.990   0.281  1.7210  2.1029 -0.2700
  303MOL0     H40894   5.712   7.906   0.380 -0.4192 -0.7205 -1.5985
  303MOL0     H40895   5.481   7.831   0.384 -0.3098 -0.3848 -1.7532
  303MOL0     H40896   5.546   7.965   0.490  0.4445  3.7527 -2.9375
  303MOL0     H40897   5.349   7.911   0.596 -0.4512 -1.0760 -0.8279
  303MOL0     H40898   5.269   7.874   0.454  1.6597  0.6388 -1.2784
  303MOL0     H40899   5.241   8.093   0.374 -3.6534  3.7079 -0.2228
  303MOL0     H40900   5.328   8.168   0.503 -1.2272  1.0830  0.3191
  303MOL0     H40901   5.078   8.179   0.559  1.1207 -0.0183 -1.4633
  303MOL0     H40902   5.167   8.051   0.672 -0.3762  3.2950  2.1092
  303MOL0     H40903   4.875   7.838   0.479 -0.2815 -0.4675  1.7079
  303MOL0     H40904   5.521   8.187   0.126 -0.7235  0.6739  0.1355
  303MOL0     H40905   5.714   8.241   0.017  3.5377  1.9301  0.5497
  304MOL0     O40906   8.150   6.043   0.028  0.1093 -0.4026  0.6255
  304MOL0     C40907   8.236   6.127  -0.009  0.3948 -0.2907  0.0999
  304MOL0     O40908   8.338   6.106  -0.097 -0.8956 -0.0441 -0.3308
  304MOL0     C40909   8.371   5.990  -0.160  0.3493  0.4820  0.3232
  304MOL0     C40910   8.377   5.867  -0.095 -0.4336  0.2237  0.3572
  304MOL0     C40911   8.424   5.749  -0.155 -0.7111  0.8202 -0.0110
  304MOL0     C40912   8.454   5.738  -0.291  1.6303  0.1795 -0.6670
  304MOL0     O40913   8.499   5.633  -0.359  0.4945  0.5926  0.2713
  304MOL0     C40914   8.550   5.523  -0.279  0.2874 -0.6657  0.6515
  304MOL0     C40915   8.594   5.404  -0.366  0.4606  0.1748 -0.2434
  304MOL0     C40916   8.707   5.416  -0.467  0.1351 -0.0911 -0.0494
  304MOL0     C40917   8.841   5.397  -0.392 -0.3503  0.1598  0.3948
  304MOL0     C40918   8.952   5.404  -0.495  0.7239 -0.2701 -0.0738
  304MOL0     C40919   9.078   5.327  -0.443 -0.1585  0.2509  0.1113
  304MOL0     C40920   9.194   5.338  -0.542  0.0373  0.9988  0.2989
  304MOL0     C40921   9.317   5.240  -0.513  0.0400 -1.2276  0.0056
  304MOL0     N40922   9.441   5.291  -0.582  0.0000  0.3621 -0.0748
  304MOL0     C40923   9.551   5.363  -0.535 -0.3506 -0.8514  0.1618
  304MOL0     C40924   9.633   5.376  -0.641 -0.8647 -0.3222 -0.0553
  304MOL0     C40925   9.767   5.449  -0.623  0.2375 -0.0052 -0.2716
  304MOL0     C40926   9.776   5.572  -0.704 -1.0597 -0.5768 -0.4045
  304MOL0     C40927   9.909   5.651  -0.664 -0.8492 -0.2699  0.4636
  304MOL0     C40928   9.907   5.786  -0.734  0.1817 -0.3896 -0.1099
  304MOL0     O40929   9.804   5.879  -0.694 -1.0028  0.2752  0.5770
  304MOL0     C40930   9.819   5.964  -0.583 -0.8172 -0.2916 -0.3122
  304MOL0     C40931   9.922   5.969  -0.487 -0.3172 -0.4413  0.0088
  304MOL0     C40932   9.914   6.053  -0.380 -0.6705 -0.1269 -0.2881
  304MOL0     C40933  10.001   6.015  -0.260 -0.0276  0.5423  0.5226
  304MOL0     C40934   9.817   6.155  -0.372  0.1642 -0.3420  0.9336
  304MOL0     C40935   9.800   6.259  -0.268 -0.3364 -0.9452 -0.3429
  304MOL0     O40936   9.681   6.314  -0.249 -0.0572  0.3469  0.6311
  304MOL0     C40937   9.673   6.437  -0.187  0.4669 -0.0778  0.6629
  304MOL0     C40938   9.748   6.556  -0.216  0.0523  0.7431  0.2613
  304MOL0     C40939   9.712   6.681  -0.162 -0.5849 -0.1358  0.6030
  304MOL0     C40940   9.600   6.690  -0.083  0.8744  0.3802  0.1935
  304MOL0     O40941   9.568   6.809  -0.026  0.5337 -0.3437  0.9803
  304MOL0     C40942   9.529   6.915  -0.120  0.5670 -0.3245 -0.0218
  304MOL0     C40943   9.501   7.044  -0.049  0.1746 -0.2446  0.2708
  304MOL0     C40944   9.624   7.117  -0.003 -0.3350 -0.0678  0.8542
  304MOL0     C40945   9.578   7.237   0.080 -0.4157  0.3523 -0.2902
  304MOL0     C40946   9.675   7.344   0.118  0.0015  0.4707  0.2777
  304MOL0     C40947   9.757   7.290   0.231  0.1638  1.2574  0.0654
  304MOL0     C40948   9.870   7.380   0.262 -0.4774 -0.4325 -0.0399
  304MOL0     C40949   9.982   7.333   0.354  0.5609  0.6159  0.2168
  304MOL0    Cl40950   9.934   7.314   0.518 -0.2889  0.1100  0.1074
  304MOL0     C40951   9.525   6.574  -0.062  0.3773  0.0799 -0.3551
  304MOL0     C40952   9.562   6.448  -0.102 -0.0333 -0.0177  0.2409
  304MOL0     O40953   9.898   6.284  -0.200  0.3717  0.3722  0.1570
  304MOL0     C40954   9.728   6.169  -0.479 -0.7816 -0.6069 -0.4480
  304MOL0     C40955   9.726   6.072  -0.584  0.9539  0.8310  0.1273
  304MOL0     N40956   9.578   5.313  -0.748  0.4519 -0.6259 -0.5813
  304MOL0     N40957   9.456   5.279  -0.715 -0.1696  0.4155 -0.2137
  304MOL0     C40958   8.441   5.865  -0.357 -0.3443 -1.1179  0.0456
  304MOL0     C40959   8.409   5.989  -0.296  0.3819  0.4408  0.1543
  304MOL0     C40960   8.227   6.264   0.031 -0.3118 -0.5518  0.6723
  304MOL0     C40961   8.174   6.303   0.155 -0.0540  0.4963  0.2534
  304MOL0     C40962   8.178   6.434   0.191 -0.0939  0.2504 -0.2200
  304MOL0     C40963   8.222   6.531   0.102  0.2137 -0.0196 -0.8692
  304MOL0     O40964   8.228   6.665   0.143  0.2192  0.0834 -0.6826
  304MOL0     C40965   8.285   6.774   0.069 -0.4974 -0.2282 -0.4389
  304MOL0     C40966   8.178   6.821  -0.043  0.5150  0.4128 -0.7802
  304MOL0     C40967   8.049   6.871   0.031 -0.0915  0.2404  0.7335
  304MOL0     C40968   8.032   7.025   0.040  0.1711 -0.7894 -1.8346
  304MOL0     C40969   8.054   7.098  -0.084  0.6062  0.1571 -0.8010
  304MOL0     C40970   8.032   7.170  -0.184  0.8572 -0.2258 -0.9552
  304MOL0     C40971   8.261   6.496  -0.019  0.2742  0.0384  0.0395
  304MOL0     C40972   8.258   6.365  -0.063 -0.1933  0.1561 -0.9129
  304MOL0     H40973   8.337   5.851   0.004 -1.4449 -3.3130 -0.4854
  304MOL0     H40974   8.428   5.657  -0.097 -1.8181 -0.3428 -1.6649
  304MOL0     H40975   8.630   5.557  -0.212  0.7459 -1.8574  0.7468
  304MOL0     H40976   8.482   5.469  -0.213  0.9574 -2.0136  0.2911
  304MOL0     H40977   8.622   5.334  -0.287  1.2499  2.2305  1.4039
  304MOL0     H40978   8.505   5.375  -0.422  1.4570 -0.2040 -1.6748
  304MOL0     H40979   8.691   5.342  -0.546 -2.0804 -1.1209  1.2875
  304MOL0     H40980   8.690   5.515  -0.512  0.0268  0.2354  0.6936
  304MOL0     H40981   8.860   5.467  -0.309 -0.3938  1.1400 -0.4032
  304MOL0     H40982   8.838   5.293  -0.359  0.4040  0.4018  1.2768
  304MOL0     H40983   8.911   5.356  -0.584  1.3549 -0.7940 -0.0813
  304MOL0     H40984   8.979   5.509  -0.510  1.1103 -0.1974  1.0611
  304MOL0     H40985   9.105   5.374  -0.348  1.0310  0.7231 -0.4379
  304MOL0     H40986   9.057   5.222  -0.423 -4.2649  0.3329 -2.6018
  304MOL0     H40987   9.149   5.313  -0.639  0.3647  0.2875  0.3212
  304MOL0     H40988   9.224   5.443  -0.549  0.9482  0.6514 -1.8257
  304MOL0     H40989   9.310   5.135  -0.544 -1.5788 -1.8745  2.2448
  304MOL0     H40990   9.337   5.258  -0.407 -1.1666  0.9988 -0.0837
  304MOL0     H40991   9.574   5.392  -0.433  0.5195 -3.2223  0.6886
  304MOL0     H40992   9.759   5.482  -0.519 -1.3748  1.6592 -0.8526
  304MOL0     H40993   9.846   5.377  -0.646 -2.6007 -3.9657  1.3661
  304MOL0     H40994   9.696   5.641  -0.678  0.6646  1.0727  0.7602
  304MOL0     H40995   9.792   5.548  -0.810  2.2190  2.5230 -0.7751
  304MOL0     H40996   9.993   5.594  -0.705  1.8092  1.7110  2.7149
  304MOL0     H40997   9.916   5.669  -0.556  1.0860 -0.4080  0.3955
  304MOL0     H40998   9.905   5.779  -0.844  2.8948  2.2814 -0.4742
  304MOL0     H40999  10.009   5.823  -0.720  1.6360 -2.1709 -4.2367
  304MOL0     H41000  10.002   5.897  -0.473  0.1334 -0.4398 -2.2082
  304MOL0     H41001  10.097   6.053  -0.298 -1.2709  1.5314 -1.8798
  304MOL0     H41002   9.977   6.046  -0.158 -0.5099 -0.9605  0.8765
  304MOL0     H41003   9.996   5.906  -0.254 -1.8399  0.6079  0.6768
  304MOL0     H41004   9.829   6.547  -0.287 -1.7112  0.1955 -1.7875
  304MOL0     H41005   9.769   6.772  -0.182 -0.0627 -0.7756 -0.9126
  304MOL0     H41006   9.614   6.929  -0.187 -0.0446  0.9473 -0.5720
  304MOL0     H41007   9.451   6.889  -0.193 -0.1286 -0.2165  0.6680
  304MOL0     H41008   9.446   7.109  -0.117 -0.3297 -0.4252  0.5023
  304MOL0     H41009   9.437   7.017   0.036 -1.2692 -2.6775 -1.4771
  304MOL0     H41010   9.689   7.155  -0.083 -2.5579  1.5075 -0.3046
  304MOL0     H41011   9.689   7.049   0.052  1.8008  0.4072 -0.9200
  304MOL0     H41012   9.507   7.284   0.011  0.5263 -4.1907 -4.9376
  304MOL0     H41013   9.528   7.199   0.170  0.5297 -0.9802 -0.3009
  304MOL0     H41014   9.622   7.430   0.161 -2.0988 -0.1153 -1.0355
  304MOL0     H41015   9.740   7.372   0.035  1.3622  0.5463  1.3287
  304MOL0     H41016   9.701   7.267   0.322 -0.2490 -1.0965 -0.7268
  304MOL0     H41017   9.803   7.197   0.197  0.3732  1.4381 -0.1462
  304MOL0     H41018   9.824   7.469   0.306 -3.1671 -1.7827  0.1032
  304MOL0     H41019   9.921   7.419   0.173  2.7834  1.3590  2.3695
  304MOL0     H41020  10.064   7.406   0.360  0.1651  1.0090  1.0118
  304MOL0     H41021  10.027   7.242   0.313 -2.0574 -0.8675  0.4558
  304MOL0     H41022   9.432   6.590  -0.008 -0.3642  0.6500 -1.7595
  304MOL0     H41023   9.496   6.363  -0.085  2.5835 -2.3853 -0.6997
  304MOL0     H41024   9.670   6.260  -0.496 -0.3137 -0.8501 -4.3235
  304MOL0     H41025   9.657   6.056  -0.666  0.8046 -0.8117  0.5395
  304MOL0     H41026   8.449   5.868  -0.465  1.8520  0.2702  0.1617
  304MOL0     H41027   8.409   6.079  -0.356 -0.4326  0.1803 -0.2546
  304MOL0     H41028   8.140   6.234   0.231 -1.3206 -0.7482 -1.3596
  304MOL0     H41029   8.138   6.472   0.284 -1.1200  1.6296 -1.1680
  304MOL0     H41030   8.305   6.851   0.145 -5.1918  0.2903  0.6180
  304MOL0     H41031   8.381   6.761   0.019 -0.8937  0.3271 -1.3719
  304MOL0     H41032   8.148   6.741  -0.111 -1.5703 -0.4896  1.0659
  304MOL0     H41033   8.220   6.909  -0.091 -0.0391  0.6685 -0.8036
  304MOL0     H41034   8.065   6.824   0.129  0.3001  0.0644  0.5875
  304MOL0     H41035   7.962   6.828  -0.019 -1.3678  1.6472  1.6444
  304MOL0     H41036   8.092   7.081   0.113 -1.7194 -2.2792  1.0233
  304MOL0     H41037   7.927   7.041   0.063  0.6238 -3.1339  3.0835
  304MOL0     H41038   8.006   7.222  -0.274  0.2941 -0.5612 -0.9893
  304MOL0     H41039   8.287   6.572  -0.092  0.7445  0.7507  0.9337
  304MOL0     H41040   8.296   6.337  -0.161 -2.2247 -0.1118 -1.6797
  305MOL0     O41041   8.582  11.420   0.400  0.2361 -0.3640 -0.8739
  305MOL0     C41042   8.566  11.338   0.312  0.1842  0.6489  1.9339
  305MOL0     O41043   8.480  11.355   0.203 -0.0557 -0.1240 -0.0393
  305MOL0     C41044   8.424  11.483   0.186  0.1205 -1.1564  0.0811
  305MOL0     C41045   8.293  11.495   0.158  0.0374 -0.3691 -0.6814
  305MOL0     C41046   8.231  11.619   0.126  0.3229 -0.7350  0.3961
  305MOL0     C41047   8.321  11.733   0.103  1.3199 -0.4893 -0.7816
  305MOL0     O41048   8.272  11.860   0.090 -0.6623 -0.4031  0.2049
  305MOL0     C41049   8.143  11.888   0.034  0.0458  0.5790  0.4608
  305MOL0     C41050   8.114  12.032   0.067  0.3470 -0.2650 -1.0551
  305MOL0     C41051   7.987  12.075   0.002  0.2376  0.2863 -0.4620
  305MOL0     C41052   7.968  12.222  -0.009  0.3915 -0.3119 -0.6796
  305MOL0     C41053   7.940  12.298   0.126  0.3343 -0.3695  1.2174
  305MOL0     C41054   7.808  12.259   0.201 -0.3708 -0.1647  0.7362
  305MOL0     C41055   7.801  12.327   0.342  0.4309 -0.2622 -0.3994
  305MOL0     C41056   7.660  12.312   0.399  1.3127  0.5895  0.8708
  305MOL0     N41057   7.619  12.168   0.402  0.0369 -0.0468  0.0191
  305MOL0     C41058   7.707  12.076   0.454 -0.2746  0.6967 -0.0576
  305MOL0     C41059   7.644  11.958   0.417  0.5197  0.5208 -0.1043
  305MOL0     C41060   7.701  11.825   0.444  0.3744 -0.1130 -0.2122
  305MOL0     C41061   7.847  11.799   0.398 -0.5320 -1.5118 -0.3404
  305MOL0     C41062   7.892  11.676   0.457  0.2523 -0.1241 -0.0960
  305MOL0     C41063   8.022  11.622   0.398 -1.1022  0.6762  0.2902
  305MOL0     O41064   8.053  11.501   0.470 -0.5181 -1.2795  0.2269
  305MOL0     C41065   8.133  11.516   0.581 -0.1614 -0.0754  0.6791
  305MOL0     C41066   8.097  11.459   0.698 -0.3978 -0.4372 -1.0014
  305MOL0     C41067   8.176  11.473   0.819 -0.6437  0.0788  0.3054
  305MOL0     C41068   8.101  11.426   0.943 -0.3141 -0.0562 -0.4809
  305MOL0     C41069   8.306  11.537   0.820  0.0328 -0.2131 -0.1907
  305MOL0     C41070   8.396  11.558   0.938 -0.2142  0.1452 -0.8301
  305MOL0     O41071   8.515  11.622   0.923  0.7135 -0.2233  0.3482
  305MOL0     C41072   8.594  11.627   1.040 -0.2635 -0.3987 -0.5290
  305MOL0     C41073   8.665  11.523   1.089 -0.9217  0.6972  0.4218
  305MOL0     C41074   8.747  11.541   1.206 -0.8763  0.2568  0.5634
  305MOL0     C41075   8.771  11.664   1.257 -0.6485 -0.0827  0.4497
  305MOL0     O41076   8.866  11.679   1.352  0.2083  0.1760 -0.0858
  305MOL0     C41077   8.835  11.760   1.473  0.0359  0.2044 -0.2124
  305MOL0     C41078   8.926  11.728   1.579 -0.1852  0.1591  0.1641
  305MOL0     C41079   8.912  11.807   1.706  1.4221  0.2757  0.5845
  305MOL0     C41080   9.008  11.780   1.818 -0.7292 -0.3788 -0.4914
  305MOL0     C41081   8.989  11.862   1.941 -0.3548 -0.4337  1.3473
  305MOL0     C41082   9.001  12.013   1.902  0.3650 -0.1580  0.4072
  305MOL0     C41083   9.036  12.099   2.024  0.6228  0.4283  0.2601
  305MOL0     C41084   9.056  12.249   1.985 -0.0265 -0.1768 -0.5669
  305MOL0    Cl41085   9.213  12.289   1.909 -0.4877  0.2233  0.2040
  305MOL0     C41086   8.698  11.770   1.206 -0.0531  0.1582  0.3815
  305MOL0     C41087   8.610  11.747   1.103 -0.9135  0.0673  0.9142
  305MOL0     O41088   8.359  11.504   1.043  0.1907  0.4913 -0.1977
  305MOL0     C41089   8.337  11.590   0.700  0.8699  0.4043  0.4819
  305MOL0     C41090   8.257  11.586   0.583 -1.1393 -0.9079 -1.0699
  305MOL0     N41091   7.532  11.990   0.339  0.3422  0.8712  1.1744
  305MOL0     N41092   7.517  12.110   0.327 -0.1774  0.4215  0.0058
  305MOL0     C41093   8.453  11.711   0.105 -0.1010  0.4322 -0.5600
  305MOL0     C41094   8.507  11.589   0.156 -0.6954  0.4662 -0.3300
  305MOL0     C41095   8.637  11.210   0.325  0.9195 -0.7151  0.8219
  305MOL0     C41096   8.634  11.118   0.214  0.3075 -0.1047  0.7488
  305MOL0     C41097   8.704  11.000   0.213  0.0412  0.2007  0.2726
  305MOL0     C41098   8.788  10.976   0.324 -0.3621 -0.0674  0.1716
  305MOL0     O41099   8.883  10.875   0.339  0.3221 -0.3301 -1.0412
  305MOL0     C41100   8.815  10.753   0.375 -0.4393  1.1254 -0.4313
  305MOL0     C41101   8.900  10.651   0.457  0.5430  0.4105  0.0022
  305MOL0     C41102   9.040  10.641   0.397 -0.5184  0.4054 -0.0624
  305MOL0     C41103   9.115  10.511   0.453 -0.7761  0.4524  0.9885
  305MOL0     C41104   9.107  10.503   0.600 -0.5959 -0.4122  0.4278
  305MOL0     C41105   9.092  10.490   0.720 -0.3106  0.7953  0.6166
  305MOL0     C41106   8.779  11.064   0.441  0.0741  0.4813  0.0641
  305MOL0     C41107   8.694  11.169   0.448  0.2079  0.2794  0.8235
  305MOL0     H41108   8.233  11.406   0.172  0.9277 -0.6932  1.4085
  305MOL0     H41109   8.124  11.629   0.109  0.6629  2.0164 -0.5926
  305MOL0     H41110   8.145  11.873  -0.074 -1.7321  0.0113  0.4630
  305MOL0     H41111   8.070  11.822   0.083  1.6103 -1.7481 -0.1944
  305MOL0     H41112   8.121  12.061   0.172  2.8729 -0.2122 -1.1854
  305MOL0     H41113   8.198  12.088   0.027  2.7138 -2.0651  1.0713
  305MOL0     H41114   7.997  12.039  -0.101  3.4732 -1.6307  0.3812
  305MOL0     H41115   7.908  12.014   0.048  2.7559 -1.1165  2.3424
  305MOL0     H41116   8.053  12.263  -0.064  0.2338 -1.1363 -1.5765
  305MOL0     H41117   7.883  12.254  -0.071 -1.7983 -1.1414  1.7175
  305MOL0     H41118   8.029  12.299   0.189  2.0246  1.0298 -1.0417
  305MOL0     H41119   7.937  12.405   0.104  3.2908 -0.2741  0.8748
  305MOL0     H41120   7.717  12.277   0.143  0.8050  1.5703 -0.6434
  305MOL0     H41121   7.815  12.151   0.217  1.6752 -0.2236 -0.2580
  305MOL0     H41122   7.880  12.289   0.408  0.3117 -2.0599 -1.2370
  305MOL0     H41123   7.817  12.435   0.329  0.8485  0.0563  2.2128
  305MOL0     H41124   7.586  12.364   0.338  0.8588 -1.5185 -0.4490
  305MOL0     H41125   7.652  12.359   0.497 -0.8321 -2.7827  2.4692
  305MOL0     H41126   7.796  12.100   0.511 -0.8861  0.2643  1.1062
  305MOL0     H41127   7.678  11.813   0.550 -1.6038  0.2206 -0.5728
  305MOL0     H41128   7.636  11.748   0.403  1.0746 -0.6253 -0.3755
  305MOL0     H41129   7.910  11.876   0.444 -4.0230  0.7833  1.0026
  305MOL0     H41130   7.855  11.813   0.290 -0.4566  0.8862 -0.0766
  305MOL0     H41131   7.809  11.605   0.447 -0.2909  0.6471 -1.3162
  305MOL0     H41132   7.910  11.692   0.564  0.3575  1.9314 -0.3794
  305MOL0     H41133   8.096  11.702   0.410  0.2114 -0.6103  1.1705
  305MOL0     H41134   8.013  11.593   0.293 -0.5781 -1.4866  0.7927
  305MOL0     H41135   8.004  11.403   0.699 -0.5185 -0.3346 -2.8980
  305MOL0     H41136   8.167  11.359   0.999  0.0711 -1.3900 -2.4130
  305MOL0     H41137   8.070  11.515   0.998 -1.8945  0.0104 -1.4209
  305MOL0     H41138   8.011  11.375   0.907  1.1345 -3.7273  0.5782
  305MOL0     H41139   8.657  11.426   1.040 -1.5350  0.3972  1.0990
  305MOL0     H41140   8.800  11.449   1.230  0.3525  0.2414 -1.8108
  305MOL0     H41141   8.850  11.866   1.451 -4.8761  1.2499  0.3301
  305MOL0     H41142   8.730  11.743   1.499  0.4224  0.8765  1.9660
  305MOL0     H41143   8.921  11.621   1.600 -2.3881 -0.2611 -2.0988
  305MOL0     H41144   9.021  11.757   1.532 -1.7466  0.5822 -3.0393
  305MOL0     H41145   8.810  11.791   1.744  0.1993  0.2530 -2.3986
  305MOL0     H41146   8.919  11.914   1.685  1.2269  0.5359  1.7464
  305MOL0     H41147   8.987  11.673   1.827 -0.8707 -0.2682  0.7432
  305MOL0     H41148   9.111  11.797   1.784 -0.4021  2.2856  1.4589
  305MOL0     H41149   9.066  11.835   2.014 -0.5560 -0.5243  1.5269
  305MOL0     H41150   8.885  11.851   1.973 -0.7650  1.1662  0.6502
  305MOL0     H41151   9.080  12.020   1.827  2.0593  0.7002  2.1490
  305MOL0     H41152   8.915  12.058   1.853  1.3685  1.4561  0.0432
  305MOL0     H41153   9.132  12.061   2.061  1.3879  1.6270 -0.4078
  305MOL0     H41154   8.952  12.081   2.091 -1.0461  2.1874 -1.2340
  305MOL0     H41155   9.052  12.291   2.086  2.1027  1.3785 -1.0512
  305MOL0     H41156   8.968  12.288   1.933 -1.4443  3.4098  3.8754
  305MOL0     H41157   8.721  11.871   1.237 -1.0739  0.5342 -0.0533
  305MOL0     H41158   8.559  11.831   1.056 -0.0789 -2.1150 -4.6103
  305MOL0     H41159   8.434  11.637   0.689  1.1249 -0.4869 -1.4364
  305MOL0     H41160   8.292  11.623   0.488  0.9202 -0.8042 -0.3195
  305MOL0     H41161   8.520  11.797   0.105  1.3764 -0.5036 -4.7792
  305MOL0     H41162   8.614  11.591   0.177 -1.3421 -0.8479  4.1627
  305MOL0     H41163   8.574  11.144   0.128  3.6968 -0.4689 -1.9118
  305MOL0     H41164   8.703  10.931   0.129  0.7369  0.8297 -0.2662
  305MOL0     H41165   8.726  10.762   0.438  1.1881 -3.2274  3.0667
  305MOL0     H41166   8.785  10.707   0.280  0.4217 -2.1905  0.7468
  305MOL0     H41167   8.861  10.549   0.455  0.7656  0.3056  0.7050
  305MOL0     H41168   8.913  10.694   0.557  0.5374 -0.0933  0.2195
  305MOL0     H41169   9.090  10.737   0.412 -1.9856  0.7343  3.7352
  305MOL0     H41170   9.036  10.623   0.289  0.9442  2.8460 -0.6062
  305MOL0     H41171   9.217  10.510   0.414 -1.6581  0.1949 -1.4536
  305MOL0     H41172   9.066  10.418   0.422 -3.6053  1.3021  2.5285
  305MOL0     H41173   9.064  10.481   0.823  1.8317 -1.2576  1.1279
  305MOL0     H41174   8.845  11.021   0.515  1.1329 -0.0872 -1.1832
  305MOL0     H41175   8.682  11.233   0.535 -0.3833  0.8786  0.3147
  306MOL0     O41176   2.956   3.187  11.462 -1.2171  0.4455 -0.4641
  306MOL0     C41177   2.850   3.242  11.463 -0.0125 -0.2098  0.5011
  306MOL0     O41178   2.735   3.196  11.504 -0.6261  0.4203  0.0349
  306MOL0     C41179   2.713   3.063  11.479  0.0573 -0.4640 -0.0804
  306MOL0     C41180   2.772   2.982  11.384 -0.0521 -0.2530 -0.0274
  306MOL0     C41181   2.746   2.849  11.367  0.2748  0.4329 -1.0756
  306MOL0     C41182   2.645   2.791  11.446 -0.7159 -0.0922 -0.4058
  306MOL0     O41183   2.613   2.662  11.439  0.4217  0.2021  0.2850
  306MOL0     C41184   2.492   2.619  11.490  0.0532  1.0066 -0.5774
  306MOL0     C41185   2.481   2.465  11.472 -0.0486  0.2161  0.0768
  306MOL0     C41186   2.388   2.406  11.567  0.1643 -0.1331 -0.7586
  306MOL0     C41187   2.413   2.256  11.589  0.6534 -0.1677  0.4412
  306MOL0     C41188   2.522   2.230  11.686 -0.0775 -0.6000  0.9166
  306MOL0     C41189   2.574   2.085  11.695 -0.6978 -0.4249 -0.4837
  306MOL0     C41190   2.497   1.997  11.801  0.3981 -1.2887  0.7010
  306MOL0     C41191   2.517   1.853  11.771  1.1467  0.4610  0.4585
  306MOL0     N41192   2.418   1.791  11.679 -0.3128 -0.0896 -0.5403
  306MOL0     C41193   2.443   1.760  11.555  0.2863  0.0662 -0.9598
  306MOL0     C41194   2.328   1.709  11.512 -0.6065 -0.6935 -0.0552
  306MOL0     C41195   2.300   1.637  11.377 -0.1975 -0.5237  0.6560
  306MOL0     C41196   2.415   1.552  11.318  0.4655 -0.6922 -0.2446
  306MOL0     C41197   2.431   1.416  11.388  0.1313 -0.1238 -0.0037
  306MOL0     C41198   2.551   1.333  11.343 -0.1412 -0.8053 -0.5309
  306MOL0     O41199   2.521   1.211  11.398  0.7566  0.1932  0.2415
  306MOL0     C41200   2.622   1.116  11.404  0.5049  0.2452  0.0891
  306MOL0     C41201   2.756   1.150  11.383 -0.3127  1.0271  1.2127
  306MOL0     C41202   2.864   1.065  11.384 -0.8780  0.6603 -0.2909
  306MOL0     C41203   3.001   1.121  11.342 -0.2009 -0.0599 -0.1340
  306MOL0     C41204   2.841   0.945  11.445 -0.4228  0.0677 -0.5552
  306MOL0     C41205   2.953   0.850  11.463  0.6120  1.5772  0.8525
  306MOL0     O41206   3.072   0.888  11.471 -0.6315  0.7098 -0.0891
  306MOL0     C41207   3.159   0.791  11.500 -0.4644  0.5492  0.0186
  306MOL0     C41208   3.169   0.729  11.631 -0.3472 -0.1704 -0.8461
  306MOL0     C41209   3.264   0.623  11.661  0.1445  0.1275  0.0840
  306MOL0     C41210   3.345   0.576  11.554  0.2639  0.2875 -0.2811
  306MOL0     O41211   3.409   0.456  11.582 -0.3394 -0.4274  0.6375
  306MOL0     C41212   3.543   0.453  11.539  0.0136  0.0301 -0.1021
  306MOL0     C41213   3.630   0.495  11.651  0.1521 -0.2086 -0.2053
  306MOL0     C41214   3.630   0.642  11.682  0.0426 -0.3851  0.4458
  306MOL0     C41215   3.656   0.725  11.544  0.2596  0.2445 -0.6355
  306MOL0     C41216   3.658   0.878  11.564  0.9631 -0.3914 -0.3208
  306MOL0     C41217   3.724   0.952  11.443  0.3749 -0.5205 -0.6367
  306MOL0     C41218   3.657   0.939  11.301 -0.1967 -0.0373  0.3027
  306MOL0     C41219   3.504   0.974  11.298 -0.4070 -0.8834 -0.5669
  306MOL0    Cl41220   3.493   1.158  11.303  0.0683  0.0069  0.4024
  306MOL0     C41221   3.329   0.625  11.428 -0.6411 -0.0800  1.4075
  306MOL0     C41222   3.234   0.723  11.400  0.6826 -0.5015  0.2031
  306MOL0     O41223   2.910   0.733  11.474 -0.0769  1.0079 -0.1689
  306MOL0     C41224   2.703   0.900  11.476 -0.7186 -0.0791 -0.6878
  306MOL0     C41225   2.601   0.993  11.452  0.8022 -0.4509  0.1880
  306MOL0     N41226   2.228   1.725  11.610  0.1714  0.4261  0.9062
  306MOL0     N41227   2.290   1.776  11.706  0.7381 -0.1719 -0.2913
  306MOL0     C41228   2.577   2.881  11.534 -0.6568  1.0778  0.8762
  306MOL0     C41229   2.605   3.014  11.545  0.8323 -0.8485  0.0721
  306MOL0     C41230   2.847   3.381  11.419  0.1791  0.1839 -0.1385
  306MOL0     C41231   2.889   3.410  11.289 -0.3230 -0.1741 -0.0907
  306MOL0     C41232   2.879   3.540  11.238 -1.0772 -0.7663  1.4865
  306MOL0     C41233   2.830   3.644  11.317  0.0723 -0.6668 -0.3571
  306MOL0     O41234   2.830   3.780  11.279  0.7869 -0.4226 -0.5082
  306MOL0     C41235   2.882   3.820  11.148  0.5543  0.8582  0.6540
  306MOL0     C41236   2.860   3.969  11.113 -0.0342 -0.6898  0.2076
  306MOL0     C41237   2.952   4.062  11.198 -1.0876 -1.6257  0.0292
  306MOL0     C41238   2.934   4.218  11.182 -0.3449 -0.2846  0.3472
  306MOL0     C41239   2.938   4.275  11.052 -0.9924  0.1854  0.1442
  306MOL0     C41240   2.954   4.314  10.940  0.4247  0.4702 -0.0359
  306MOL0     C41241   2.788   3.611  11.448  0.1765  0.0369 -0.5630
  306MOL0     C41242   2.788   3.478  11.497 -0.0869  0.4072  0.1820
  306MOL0     H41243   2.854   3.011  11.318 -2.0585 -0.0750 -2.5969
  306MOL0     H41244   2.787   2.780  11.295 -0.3598  1.0862 -2.0932
  306MOL0     H41245   2.495   2.632  11.599  0.7887 -3.4187  0.1135
  306MOL0     H41246   2.408   2.677  11.450 -0.4347 -0.0307 -1.0781
  306MOL0     H41247   2.449   2.457  11.367 -2.6560 -1.2543  0.8936
  306MOL0     H41248   2.578   2.420  11.495 -0.4960 -0.3261  0.9413
  306MOL0     H41249   2.394   2.454  11.665 -2.7464 -0.1000 -0.4921
  306MOL0     H41250   2.293   2.429  11.516 -1.9202 -1.1477  2.3826
  306MOL0     H41251   2.321   2.208  11.626  1.9945 -3.3407  0.0153
  306MOL0     H41252   2.440   2.210  11.493  0.0280 -0.8306  0.5761
  306MOL0     H41253   2.610   2.285  11.652 -0.4417 -2.6198 -4.1977
  306MOL0     H41254   2.484   2.263  11.783 -3.5251  1.4998 -0.9458
  306MOL0     H41255   2.547   2.044  11.597 -0.6350  0.7710 -1.0086
  306MOL0     H41256   2.681   2.082  11.719 -0.6776  1.4701 -0.1965
  306MOL0     H41257   2.549   2.013  11.896 -1.0794 -0.5812  1.4264
  306MOL0     H41258   2.391   2.023  11.808  1.4098  3.4332  1.7208
  306MOL0     H41259   2.507   1.797  11.865  1.7743  0.1715  0.3596
  306MOL0     H41260   2.621   1.845  11.736  1.0811  1.8339 -0.1461
  306MOL0     H41261   2.539   1.747  11.506  1.7773  0.0642  1.7737
  306MOL0     H41262   2.213   1.572  11.382 -1.7052  1.4560  1.7582
  306MOL0     H41263   2.280   1.717  11.305  2.6164  0.6581  1.0681
  306MOL0     H41264   2.502   1.616  11.331 -0.1338  0.3744 -1.2916
  306MOL0     H41265   2.399   1.532  11.212 -1.2444 -2.9286  0.3541
  306MOL0     H41266   2.344   1.351  11.390  2.1666 -3.1508 -1.7792
  306MOL0     H41267   2.447   1.430  11.495  2.5496 -0.9034 -0.2022
  306MOL0     H41268   2.643   1.383  11.375  0.0954 -2.3516  1.3986
  306MOL0     H41269   2.545   1.316  11.235  1.5659 -1.1651 -0.6022
  306MOL0     H41270   2.777   1.243  11.331  3.3391 -0.5720 -0.5271
  306MOL0     H41271   3.060   1.046  11.288  1.4002  0.2706  1.0997
  306MOL0     H41272   3.010   1.217  11.291  2.3297 -1.0645 -1.7597
  306MOL0     H41273   3.051   1.123  11.440 -0.7435 -1.7485  0.2148
  306MOL0     H41274   3.108   0.774  11.708  0.9083 -0.1006  0.1484
  306MOL0     H41275   3.255   0.588  11.763  1.3583 -1.2054 -0.2361
  306MOL0     H41276   3.574   0.350  11.521  0.5074  0.1080  0.2942
  306MOL0     H41277   3.563   0.509  11.447 -2.8632  1.8247  0.2138
  306MOL0     H41278   3.594   0.453  11.745  0.4023  0.4107  0.1697
  306MOL0     H41279   3.734   0.466  11.636  0.7456  2.2849 -1.4384
  306MOL0     H41280   3.723   0.659  11.737 -0.3321 -1.1492  1.3514
  306MOL0     H41281   3.548   0.679  11.743  2.2843  3.0875  1.6809
  306MOL0     H41282   3.745   0.671  11.508 -0.6083 -1.3324 -0.5318
  306MOL0     H41283   3.569   0.713  11.479 -1.6831 -1.7706  2.0884
  306MOL0     H41284   3.718   0.887  11.655 -2.3111 -1.2884  2.1003
  306MOL0     H41285   3.560   0.916  11.592  1.7192  2.2560 -0.9404
  306MOL0     H41286   3.733   1.061  11.453  0.2325 -0.3880 -1.8096
  306MOL0     H41287   3.827   0.915  11.443  0.6752  0.2956 -0.6468
  306MOL0     H41288   3.676   0.841  11.258  0.4918  1.5020 -3.2399
  306MOL0     H41289   3.708   1.012  11.237 -1.9904  2.2710  1.3622
  306MOL0     H41290   3.451   0.926  11.380 -3.3264 -1.6385 -2.7106
  306MOL0     H41291   3.456   0.922  11.215 -2.9686  1.5174 -0.7504
  306MOL0     H41292   3.383   0.579  11.346  1.1530  2.8787  0.7870
  306MOL0     H41293   3.232   0.760  11.298  1.7522 -3.2047 -0.8994
  306MOL0     H41294   2.692   0.807  11.530  0.3660  0.7285  1.0072
  306MOL0     H41295   2.497   0.965  11.465  1.5254 -2.9731  1.3104
  306MOL0     H41296   2.493   2.847  11.593 -0.1223  0.8066  1.4873
  306MOL0     H41297   2.538   3.074  11.606  1.0402 -0.1922 -0.3393
  306MOL0     H41298   2.926   3.326  11.232 -1.3205 -0.8448  0.2176
  306MOL0     H41299   2.909   3.566  11.138 -1.3874  3.2517  2.2902
  306MOL0     H41300   2.986   3.788  11.140  0.0853 -1.2444  2.1535
  306MOL0     H41301   2.839   3.759  11.067 -0.6324 -1.6453  3.0103
  306MOL0     H41302   2.756   3.997  11.135 -0.6548  0.2690 -3.2856
  306MOL0     H41303   2.879   3.980  11.006 -0.3196 -0.5323  0.1703
  306MOL0     H41304   3.050   4.030  11.162 -0.6652  2.2211 -2.8616
  306MOL0     H41305   2.940   4.061  11.306  0.4062  2.5010  0.4068
  306MOL0     H41306   3.006   4.273  11.242  0.0064 -1.4202  0.9976
  306MOL0     H41307   2.837   4.252  11.221  0.0706  1.0039  0.2942
  306MOL0     H41308   2.946   4.366  10.846 -0.5427  0.6324  0.1274
  306MOL0     H41309   2.756   3.690  11.515 -1.5474 -0.7842 -0.3544
  306MOL0     H41310   2.759   3.447  11.597 -3.6227 -0.5678 -1.0095
  307MOL0     O41311   8.317   8.671   6.732 -0.6716 -0.0936 -0.5388
  307MOL0     C41312   8.209   8.700   6.697  0.6162  0.5343 -0.1584
  307MOL0     O41313   8.089   8.687   6.763 -0.0731 -0.0524  0.0345
  307MOL0     C41314   8.085   8.610   6.880  0.2432 -0.3299 -0.6511
  307MOL0     C41315   8.117   8.475   6.873 -0.5150 -0.0871 -0.4929
  307MOL0     C41316   8.109   8.402   6.988  0.3626  0.2562  0.5727
  307MOL0     C41317   8.045   8.440   7.105  0.8027 -0.2574  1.0832
  307MOL0     O41318   8.014   8.359   7.212  0.7114  0.0970 -0.5448
  307MOL0     C41319   8.023   8.220   7.200 -1.2258  1.2317  0.3405
  307MOL0     C41320   7.923   8.161   7.307  0.1255  0.1649 -0.5469
  307MOL0     C41321   7.905   8.010   7.288 -0.1154 -0.1587 -0.5345
  307MOL0     C41322   7.760   7.967   7.285 -0.0129 -0.3879 -0.1095
  307MOL0     C41323   7.736   7.823   7.310 -0.3072  0.1741 -0.9565
  307MOL0     C41324   7.754   7.782   7.457  0.5721  0.2262  0.2852
  307MOL0     C41325   7.643   7.824   7.563 -0.7992 -1.1065  0.6883
  307MOL0     C41326   7.494   7.775   7.553 -0.0590 -0.2907  0.4204
  307MOL0     N41327   7.486   7.627   7.565  0.8353  0.3780  0.4566
  307MOL0     C41328   7.444   7.567   7.684 -0.8374  0.3565 -0.3527
  307MOL0     C41329   7.442   7.430   7.660  0.1817  0.4412  0.1025
  307MOL0     C41330   7.402   7.315   7.753  0.3190  0.6998 -0.2007
  307MOL0     C41331   7.250   7.296   7.731  0.3138  0.3320 -0.3160
  307MOL0     C41332   7.223   7.169   7.798 -0.3841 -0.2107 -0.3496
  307MOL0     C41333   7.086   7.108   7.765 -0.1513  0.5751  0.6213
  307MOL0     O41334   7.069   6.965   7.768  0.8743 -0.1152 -0.0999
  307MOL0     C41335   6.989   6.904   7.860 -0.1994 -0.9410  0.0236
  307MOL0     C41336   6.967   6.956   7.987  0.2940 -0.8785  0.2130
  307MOL0     C41337   6.872   6.892   8.070  0.0017 -0.1680 -0.8735
  307MOL0     C41338   6.856   6.950   8.217  0.3321 -0.2476 -0.2375
  307MOL0     C41339   6.808   6.770   8.032  0.0783  0.4494  0.9825
  307MOL0     C41340   6.723   6.690   8.131  0.9784 -0.2205  0.0871
  307MOL0     O41341   6.616   6.756   8.191 -0.2605  0.8432  0.0218
  307MOL0     C41342   6.550   6.686   8.285 -0.5774 -0.6298  0.0324
  307MOL0     C41343   6.473   6.576   8.250 -0.3048 -0.6057  0.1030
  307MOL0     C41344   6.403   6.510   8.351 -0.2505 -0.3378 -0.9824
  307MOL0     C41345   6.418   6.558   8.489  0.2577 -0.6216 -0.2028
  307MOL0     O41346   6.359   6.495   8.589 -0.0162  0.7558 -0.3433
  307MOL0     C41347   6.445   6.403   8.657 -0.0817  0.7596 -0.4755
  307MOL0     C41348   6.462   6.264   8.594  0.6882  0.0923 -0.4105
  307MOL0     C41349   6.323   6.196   8.574  0.4196 -0.2999  0.5257
  307MOL0     C41350   6.219   6.208   8.689  0.2937 -0.3159  0.0733
  307MOL0     C41351   6.259   6.126   8.809 -0.4778  0.1086 -0.6090
  307MOL0     C41352   6.138   6.087   8.906  0.2631  0.6559  1.0254
  307MOL0     C41353   6.042   6.210   8.941  0.1236 -0.0527 -0.8017
  307MOL0     C41354   6.104   6.300   9.055  0.5229 -1.1381  0.1191
  307MOL0    Cl41355   6.121   6.228   9.217 -0.2492 -0.3589  0.0698
  307MOL0     C41356   6.494   6.672   8.521 -0.1930  0.7537  0.4829
  307MOL0     C41357   6.566   6.731   8.421  0.6872 -0.1168  0.7154
  307MOL0     O41358   6.766   6.573   8.163  0.1647 -0.1731 -0.4904
  307MOL0     C41359   6.835   6.716   7.902  0.3990  0.3543 -0.1765
  307MOL0     C41360   6.921   6.788   7.819 -0.6950  0.9099 -0.2340
  307MOL0     N41361   7.465   7.419   7.528  0.1829  0.3338  0.8968
  307MOL0     N41362   7.483   7.529   7.471 -0.9591 -0.0012 -1.0249
  307MOL0     C41363   8.007   8.578   7.107  0.6449  0.6390  0.3273
  307MOL0     C41364   8.040   8.665   7.003 -0.5539 -0.8435  0.2630
  307MOL0     C41365   8.196   8.745   6.557 -0.5686  0.0828 -0.3256
  307MOL0     C41366   8.087   8.820   6.520  0.4111  0.5567  0.8049
  307MOL0     C41367   8.068   8.849   6.382  0.2379 -0.7992 -0.3832
  307MOL0     C41368   8.164   8.816   6.284 -0.5841 -0.5009  0.3255
  307MOL0     O41369   8.142   8.868   6.159  0.1090 -0.6180  0.5515
  307MOL0     C41370   8.230   8.850   6.051 -0.3859  1.0545 -0.3206
  307MOL0     C41371   8.360   8.941   6.065 -0.6527 -0.0930 -0.7222
  307MOL0     C41372   8.488   8.870   6.010 -0.1651  0.6447 -0.4848
  307MOL0     C41373   8.613   8.947   6.046 -0.5025  0.2818 -0.6797
  307MOL0     C41374   8.637   8.956   6.186  0.7953  0.5231 -0.2718
  307MOL0     C41375   8.645   8.971   6.308  1.1185  0.9965  0.3306
  307MOL0     C41376   8.273   8.734   6.320  0.1578  0.3111 -0.6290
  307MOL0     C41377   8.290   8.701   6.457  0.1205 -0.2099  0.1082
  307MOL0     H41378   8.162   8.439   6.781  0.2941 -0.2755 -0.0289
  307MOL0     H41379   8.132   8.296   6.983 -3.5319 -0.6870  0.0085
  307MOL0     H41380   7.977   8.189   7.106  1.4923 -1.1922 -0.3432
  307MOL0     H41381   8.127   8.189   7.202 -1.8905 -1.4629  4.3393
  307MOL0     H41382   7.967   8.176   7.406  0.6099  0.0224 -0.7334
  307MOL0     H41383   7.831   8.219   7.311 -0.7663 -1.1993 -0.6575
  307MOL0     H41384   7.964   7.975   7.202  0.0941  5.1065 -2.9046
  307MOL0     H41385   7.957   7.959   7.370  1.9011 -0.9172 -2.1810
  307MOL0     H41386   7.695   8.016   7.359 -5.0723 -4.2330 -1.4643
  307MOL0     H41387   7.713   8.003   7.193 -1.7799  1.8883  1.5189
  307MOL0     H41388   7.630   7.802   7.291 -1.1911  2.5293  0.8543
  307MOL0     H41389   7.801   7.765   7.244  0.8374  1.8624 -1.3950
  307MOL0     H41390   7.768   7.674   7.450  3.1349  0.5972 -1.8022
  307MOL0     H41391   7.855   7.810   7.488  3.0506 -2.2376 -4.4772
  307MOL0     H41392   7.666   7.806   7.669 -1.7240  0.4899  1.1924
  307MOL0     H41393   7.627   7.931   7.548  1.1029 -1.1465 -2.2075
  307MOL0     H41394   7.457   7.802   7.454  0.6574  2.5618  0.8615
  307MOL0     H41395   7.426   7.825   7.623 -0.6693 -1.3282  0.6070
  307MOL0     H41396   7.421   7.611   7.780  2.4950 -2.5129  2.0090
  307MOL0     H41397   7.443   7.217   7.730 -1.5288 -1.4618  4.3355
  307MOL0     H41398   7.418   7.326   7.861  1.4092 -0.7876 -0.1819
  307MOL0     H41399   7.234   7.298   7.623 -0.8749 -1.0731 -0.1986
  307MOL0     H41400   7.205   7.380   7.785  4.1617  1.6647  1.1674
  307MOL0     H41401   7.248   7.168   7.904 -0.1935 -2.0889 -0.3811
  307MOL0     H41402   7.291   7.090   7.763  0.6850  0.1162  0.9202
  307MOL0     H41403   7.069   7.124   7.658 -0.2546  0.4680  0.6213
  307MOL0     H41404   7.005   7.161   7.816 -0.6678  0.8751 -0.4785
  307MOL0     H41405   7.019   7.044   8.021 -1.4021  0.3382 -0.1720
  307MOL0     H41406   6.936   6.898   8.270 -0.9031 -0.7038  1.2300
  307MOL0     H41407   6.877   7.057   8.225 -0.1887 -0.1483 -0.1754
  307MOL0     H41408   6.765   6.926   8.272  0.0544  1.8811  0.3352
  307MOL0     H41409   6.465   6.549   8.145  0.7168  3.9145 -1.3608
  307MOL0     H41410   6.330   6.432   8.331 -0.6498 -0.8077  1.8548
  307MOL0     H41411   6.548   6.438   8.657  1.0219 -2.0754 -2.5653
  307MOL0     H41412   6.402   6.392   8.758  0.3601 -2.0680 -0.4977
  307MOL0     H41413   6.503   6.268   8.493 -2.0978  0.6876 -1.6159
  307MOL0     H41414   6.509   6.199   8.668 -2.7921 -0.2268  1.7397
  307MOL0     H41415   6.344   6.090   8.554  3.0915 -0.0057  1.3886
  307MOL0     H41416   6.280   6.243   8.485  2.4428  0.3013 -0.1931
  307MOL0     H41417   6.199   6.312   8.716  0.6463 -0.6554  1.7056
  307MOL0     H41418   6.129   6.169   8.640 -0.0759  1.9828 -1.2637
  307MOL0     H41419   6.337   6.171   8.872 -1.7396  1.5752 -0.0208
  307MOL0     H41420   6.306   6.032   8.779 -0.8354 -0.2943  0.0758
  307MOL0     H41421   6.091   6.008   8.846  2.7920 -1.0451  1.1313
  307MOL0     H41422   6.169   6.031   8.994 -1.0941  0.5425  1.4600
  307MOL0     H41423   5.942   6.183   8.975 -0.4828  3.7498  1.0513
  307MOL0     H41424   6.016   6.271   8.854 -2.9765 -0.0145  0.0169
  307MOL0     H41425   6.039   6.388   9.067 -1.4292 -2.7079  1.8301
  307MOL0     H41426   6.205   6.329   9.024 -0.3989  1.1020 -0.9730
  307MOL0     H41427   6.503   6.698   8.626 -2.9932  4.0165  0.1232
  307MOL0     H41428   6.649   6.796   8.445  0.7529  0.5328 -1.0880
  307MOL0     H41429   6.795   6.617   7.883  0.3486  0.0487  1.3597
  307MOL0     H41430   6.948   6.748   7.722 -2.0642  2.2299 -1.2182
  307MOL0     H41431   7.954   8.611   7.196  3.7687 -0.0444  2.6299
  307MOL0     H41432   8.006   8.768   7.012 -3.8070 -1.7965 -0.0681
  307MOL0     H41433   8.010   8.838   6.594  0.5132  0.5442  0.9127
  307MOL0     H41434   7.977   8.892   6.341  0.2715 -0.8792 -0.5464
  307MOL0     H41435   8.257   8.745   6.060  2.0677  1.8177  3.3651
  307MOL0     H41436   8.187   8.859   5.951 -1.5940 -0.7339 -0.0085
  307MOL0     H41437   8.381   8.960   6.170  2.1549  0.2324 -1.2744
  307MOL0     H41438   8.352   9.041   6.021  3.5379  0.9043  0.3726
  307MOL0     H41439   8.486   8.869   5.900 -0.1242  1.3952 -0.4957
  307MOL0     H41440   8.506   8.766   6.040 -1.1009  0.7413  0.4567
  307MOL0     H41441   8.616   9.049   6.006  1.5913 -0.1412 -1.7130
  307MOL0     H41442   8.699   8.900   5.998 -0.4181  1.7927 -2.1179
  307MOL0     H41443   8.659   9.009   6.407 -0.4251 -0.8674  1.3382
  307MOL0     H41444   8.346   8.721   6.242 -0.9561  1.3458 -1.8971
  307MOL0     H41445   8.383   8.647   6.473 -1.7152 -3.2959  1.2070
  308MOL0     O41446   5.447   2.645   9.019  0.1725  0.4100  0.0608
  308MOL0     C41447   5.489   2.523   9.009  0.7262  0.1423  1.2557
  308MOL0     O41448   5.450   2.435   8.920 -0.1282  0.2115 -0.3876
  308MOL0     C41449   5.397   2.488   8.808 -0.9698 -0.3023 -0.0835
  308MOL0     C41450   5.484   2.496   8.699 -0.3687 -0.5317  0.2732
  308MOL0     C41451   5.447   2.546   8.582 -0.1716  0.3672 -0.8894
  308MOL0     C41452   5.323   2.603   8.560  1.0297  0.2717 -0.3017
  308MOL0     O41453   5.291   2.657   8.440 -0.3166 -0.1946 -1.4857
  308MOL0     C41454   5.149   2.699   8.421 -0.3409 -0.8651  0.0048
  308MOL0     C41455   5.136   2.755   8.282  0.5427  0.6690  1.0425
  308MOL0     C41456   4.992   2.810   8.247 -0.7160  0.1495 -0.2976
  308MOL0     C41457   4.877   2.717   8.227  0.7224  1.5606 -0.0190
  308MOL0     C41458   4.760   2.772   8.143  0.2936  0.1888 -0.1767
  308MOL0     C41459   4.661   2.669   8.103 -0.5991 -0.3617 -0.1788
  308MOL0     C41460   4.567   2.712   7.984 -0.2452  0.5030 -1.1029
  308MOL0     C41461   4.466   2.586   7.956 -0.6094 -0.6378  0.0672
  308MOL0     N41462   4.382   2.598   7.844  1.3319  0.1198 -0.0963
  308MOL0     C41463   4.269   2.673   7.818 -0.2783  0.5270 -0.2559
  308MOL0     C41464   4.245   2.635   7.688 -0.0221  0.6308  0.1219
  308MOL0     C41465   4.136   2.695   7.598  0.1925  0.5767 -0.2500
  308MOL0     C41466   4.134   2.846   7.599  0.4837  0.6823 -0.3972
  308MOL0     C41467   4.270   2.900   7.542 -0.0275 -0.5534  0.1395
  308MOL0     C41468   4.264   3.054   7.556 -0.6516  0.1714  0.1001
  308MOL0     O41469   4.394   3.110   7.524  0.0648 -1.0589 -0.7520
  308MOL0     C41470   4.476   3.120   7.632 -0.5863  0.6101 -0.1870
  308MOL0     C41471   4.588   3.195   7.609  0.2589 -0.9467  0.5899
  308MOL0     C41472   4.696   3.207   7.696 -0.7476  0.1790 -0.5689
  308MOL0     C41473   4.813   3.287   7.659 -0.0714  0.1006  1.0795
  308MOL0     C41474   4.685   3.151   7.825 -0.5270 -0.3517  0.3748
  308MOL0     C41475   4.801   3.153   7.915  0.0746 -1.0903  0.0269
  308MOL0     O41476   4.898   3.070   7.884 -0.2723  0.5976  0.3533
  308MOL0     C41477   5.023   3.099   7.919 -1.1992 -0.2950 -0.2357
  308MOL0     C41478   5.118   3.117   7.813  0.0611  0.3188  0.1168
  308MOL0     C41479   5.248   3.146   7.846  0.4656 -0.4425  0.3266
  308MOL0     C41480   5.287   3.164   7.983 -0.0473  0.6677 -0.4293
  308MOL0     O41481   5.413   3.188   8.030  0.8221 -0.4401 -0.4375
  308MOL0     C41482   5.518   3.228   7.942  0.1918  0.3567 -0.1382
  308MOL0     C41483   5.621   3.319   8.016 -0.4431  0.2257 -0.3527
  308MOL0     C41484   5.558   3.447   8.077 -0.3903 -0.1898 -0.4869
  308MOL0     C41485   5.639   3.533   8.170  0.0953 -0.1340 -1.1381
  308MOL0     C41486   5.573   3.671   8.173  0.0549 -0.1441  0.0591
  308MOL0     C41487   5.644   3.764   8.278 -0.3522  1.2091  0.2385
  308MOL0     C41488   5.575   3.895   8.288  0.2379  0.4198  0.2032
  308MOL0     C41489   5.624   3.979   8.405  0.1909  0.1633 -0.3960
  308MOL0    Cl41490   5.599   3.880   8.552  0.0318  0.4936  0.1654
  308MOL0     C41491   5.202   3.131   8.081  0.0748 -0.4544  0.0955
  308MOL0     C41492   5.067   3.110   8.052  0.1652  0.7562  0.9167
  308MOL0     O41493   4.805   3.237   8.003 -0.3264 -0.0084  0.0748
  308MOL0     C41494   4.576   3.071   7.841 -0.3592  0.2293 -0.2381
  308MOL0     C41495   4.467   3.059   7.756 -0.9782  0.0162 -0.6483
  308MOL0     N41496   4.328   2.550   7.640  0.1702 -0.3106  0.2915
  308MOL0     N41497   4.405   2.508   7.743  1.4553 -0.7090 -0.0611
  308MOL0     C41498   5.227   2.585   8.676 -0.2258  0.0188 -0.1623
  308MOL0     C41499   5.269   2.537   8.797 -0.1707 -0.6640  0.5529
  308MOL0     C41500   5.558   2.459   9.124  0.9450  0.1875 -0.2566
  308MOL0     C41501   5.534   2.521   9.255 -1.1723  0.2854 -0.8389
  308MOL0     C41502   5.580   2.464   9.371 -0.3023 -1.0200 -0.8737
  308MOL0     C41503   5.663   2.348   9.370  0.5711 -0.1490  0.8156
  308MOL0     O41504   5.704   2.277   9.476 -0.2774  0.4550 -0.4911
  308MOL0     C41505   5.676   2.324   9.611 -0.4710  0.4951 -0.5924
  308MOL0     C41506   5.751   2.456   9.631  0.1940 -0.4769 -0.1797
  308MOL0     C41507   5.875   2.417   9.709  0.4484  0.8216 -0.0534
  308MOL0     C41508   5.965   2.326   9.622  0.7579 -0.1461  0.0715
  308MOL0     C41509   6.095   2.326   9.703  0.1042 -0.4160  1.1165
  308MOL0     C41510   6.182   2.325   9.785 -0.2430 -0.4585 -0.3478
  308MOL0     C41511   5.695   2.294   9.242 -0.2962  1.2347  0.4461
  308MOL0     C41512   5.633   2.339   9.122 -0.7100  0.4727  0.8790
  308MOL0     H41513   5.586   2.461   8.699 -0.6703 -1.4222  0.4508
  308MOL0     H41514   5.525   2.568   8.510  1.0557 -0.0276  0.2541
  308MOL0     H41515   5.074   2.619   8.430 -2.7426  1.3964  1.3953
  308MOL0     H41516   5.120   2.775   8.494  0.8868  0.0386 -0.4153
  308MOL0     H41517   5.204   2.840   8.273  0.8978  0.4484  1.6142
  308MOL0     H41518   5.175   2.677   8.216  0.3650  1.3380  0.1239
  308MOL0     H41519   4.971   2.874   8.333  4.3123 -3.5032  4.3214
  308MOL0     H41520   5.016   2.859   8.152 -0.7688 -1.7433 -1.3431
  308MOL0     H41521   4.907   2.624   8.179  2.2834  2.2273 -0.4310
  308MOL0     H41522   4.840   2.700   8.328  2.8827  2.5753  1.0267
  308MOL0     H41523   4.721   2.863   8.189  1.8483  0.4816  0.6370
  308MOL0     H41524   4.797   2.818   8.051 -1.4250  2.1971  0.0748
  308MOL0     H41525   4.716   2.578   8.073  2.3570  1.1860  0.1336
  308MOL0     H41526   4.601   2.647   8.192  1.3464 -0.0347  1.2921
  308MOL0     H41527   4.512   2.801   8.014 -1.1796 -0.5008  0.2889
  308MOL0     H41528   4.624   2.719   7.891  0.6047 -0.4983 -0.6887
  308MOL0     H41529   4.409   2.571   8.048 -1.0806 -1.8737 -0.4138
  308MOL0     H41530   4.531   2.501   7.937 -0.8119 -0.5117 -1.3180
  308MOL0     H41531   4.207   2.736   7.881 -2.2680 -2.9674  1.5708
  308MOL0     H41532   4.158   2.648   7.502 -1.6446  0.8436 -0.8314
  308MOL0     H41533   4.043   2.647   7.630 -0.1992 -0.2242 -2.3987
  308MOL0     H41534   4.128   2.868   7.706  2.6738  2.2172 -0.5283
  308MOL0     H41535   4.048   2.891   7.548 -0.5432  0.7190  1.2846
  308MOL0     H41536   4.298   2.881   7.438  0.4094  1.8992 -0.2542
  308MOL0     H41537   4.359   2.868   7.598 -0.9491 -2.6420  0.5110
  308MOL0     H41538   4.217   3.087   7.650  2.5240  0.6638  1.6712
  308MOL0     H41539   4.194   3.068   7.474  0.4433 -0.7472 -1.0380
  308MOL0     H41540   4.607   3.256   7.521 -0.6345  0.9934  1.6764
  308MOL0     H41541   4.795   3.393   7.676  0.5574  0.2563  0.8063
  308MOL0     H41542   4.903   3.261   7.717  0.3154 -0.4727  0.2440
  308MOL0     H41543   4.839   3.266   7.555 -2.0246  3.6697 -0.2852
  308MOL0     H41544   5.085   3.112   7.710  0.1268 -0.2211  0.1152
  308MOL0     H41545   5.319   3.161   7.765 -0.4219 -1.0603 -0.5859
  308MOL0     H41546   5.562   3.140   7.895  0.5088 -0.9789  2.5181
  308MOL0     H41547   5.475   3.304   7.875 -0.8057 -0.2544 -0.2024
  308MOL0     H41548   5.654   3.258   8.100  1.5558 -0.1065 -1.3218
  308MOL0     H41549   5.708   3.343   7.955 -0.2588 -0.0325 -0.1925
  308MOL0     H41550   5.465   3.425   8.131  1.4143  1.5096  3.7781
  308MOL0     H41551   5.542   3.511   7.990  2.0406 -0.7406 -1.4129
  308MOL0     H41552   5.631   3.493   8.272 -0.4031  4.0026  0.6668
  308MOL0     H41553   5.747   3.538   8.158  0.2108  1.4253  0.1922
  308MOL0     H41554   5.467   3.656   8.196 -0.1199 -0.2472 -0.7687
  308MOL0     H41555   5.569   3.717   8.074  0.0411 -1.7283 -0.7079
  308MOL0     H41556   5.652   3.707   8.371 -0.0979  0.3051 -0.3307
  308MOL0     H41557   5.748   3.785   8.254  0.5947 -1.7230  1.3015
  308MOL0     H41558   5.473   3.865   8.313  1.7016 -3.6776  2.1135
  308MOL0     H41559   5.587   3.954   8.196  7.4884 -0.1345  0.2121
  308MOL0     H41560   5.568   4.073   8.417  2.4257  1.4812  0.1593
  308MOL0     H41561   5.728   4.008   8.386  0.0180 -0.3494 -2.4209
  308MOL0     H41562   5.239   3.126   8.183  1.4857  0.2266 -0.3685
  308MOL0     H41563   5.003   3.085   8.136 -2.1189 -0.8418 -1.1312
  308MOL0     H41564   4.575   3.004   7.926  3.1068 -0.3064 -0.4840
  308MOL0     H41565   4.383   2.990   7.761  0.0887 -1.2589  0.2120
  308MOL0     H41566   5.124   2.619   8.661 -0.6857  0.0478  2.4883
  308MOL0     H41567   5.194   2.521   8.874 -3.1123 -1.0032 -2.1272
  308MOL0     H41568   5.481   2.616   9.263 -0.4752  0.6876 -0.8914
  308MOL0     H41569   5.554   2.509   9.467 -0.9593  0.8217 -1.8761
  308MOL0     H41570   5.569   2.349   9.614 -1.0033 -1.7045  0.8164
  308MOL0     H41571   5.698   2.245   9.682 -0.6333 -1.0236 -2.1589
  308MOL0     H41572   5.703   2.522   9.704  1.2005  3.1944 -2.5159
  308MOL0     H41573   5.790   2.512   9.545 -0.7422 -0.9443 -0.9260
  308MOL0     H41574   5.829   2.384   9.802 -1.6044  2.5323 -0.3864
  308MOL0     H41575   5.935   2.507   9.728 -0.3522  1.7917 -1.8368
  308MOL0     H41576   5.993   2.374   9.528  0.8325 -1.9004 -0.8462
  308MOL0     H41577   5.926   2.224   9.616 -1.2059  0.6625 -1.5581
  308MOL0     H41578   6.245   2.325   9.872 -0.8826 -1.4165  0.1292
  308MOL0     H41579   5.749   2.200   9.245  1.6067  2.2896  1.7355
  308MOL0     H41580   5.649   2.281   9.032 -2.7191 -1.5951  1.7868
  309MOL0     O41581   6.398   0.272   2.139 -0.9162 -0.6525  0.7176
  309MOL0     C41582   6.403   0.185   2.052  0.9474 -0.1318  0.0817
  309MOL0     O41583   6.365   0.203   1.919 -0.7622  0.1887 -0.0657
  309MOL0     C41584   6.325   0.321   1.867  0.1343 -0.5897 -0.3345
  309MOL0     C41585   6.228   0.404   1.928  0.6866  0.3916 -0.6089
  309MOL0     C41586   6.175   0.508   1.848  0.4871  0.2948 -0.1198
  309MOL0     C41587   6.219   0.541   1.721 -0.4486 -0.3185  0.5654
  309MOL0     O41588   6.156   0.661   1.669  0.4280  0.0499  0.5531
  309MOL0     C41589   6.199   0.704   1.548  0.3050  0.1031  0.2543
  309MOL0     C41590   6.166   0.850   1.533 -0.1159  0.0697  0.0225
  309MOL0     C41591   6.201   0.916   1.393  0.1982 -0.2440 -0.0549
  309MOL0     C41592   6.123   1.047   1.378  0.4504  0.8194  0.3908
  309MOL0     C41593   6.165   1.147   1.489 -0.4215 -0.5120 -0.6078
  309MOL0     C41594   6.066   1.258   1.493  0.5464  0.1591  0.5155
  309MOL0     C41595   6.129   1.366   1.582 -0.4470  0.6013  0.0783
  309MOL0     C41596   6.030   1.483   1.615 -0.2333  0.4861  0.2535
  309MOL0     N41597   6.119   1.580   1.677  1.3631 -0.3467  0.8474
  309MOL0     C41598   6.155   1.587   1.807 -0.1461 -0.0648 -0.2221
  309MOL0     C41599   6.233   1.693   1.817  0.3848  0.4503  0.9922
  309MOL0     C41600   6.283   1.744   1.943  1.0722 -0.6812 -0.7291
  309MOL0     C41601   6.432   1.744   1.962  0.0458  0.3093  0.0715
  309MOL0     C41602   6.479   1.601   1.995  0.2960  0.1963  0.4762
  309MOL0     C41603   6.621   1.588   2.064 -0.1769  0.2885  0.7149
  309MOL0     O41604   6.732   1.614   1.972 -0.7490  0.5560 -0.0234
  309MOL0     C41605   6.839   1.520   1.998  0.4179  0.5354  0.0339
  309MOL0     C41606   6.851   1.409   1.909 -0.3175 -0.1191 -0.0674
  309MOL0     C41607   6.932   1.305   1.945 -0.1741 -0.1825 -0.5557
  309MOL0     C41608   6.955   1.184   1.861  0.1071  0.4372 -0.6568
  309MOL0     C41609   7.010   1.312   2.067  0.6455 -0.9916 -0.4373
  309MOL0     C41610   7.107   1.201   2.125  0.5313 -0.8635  0.6982
  309MOL0     O41611   7.066   1.074   2.102 -0.3960 -0.1907  0.0585
  309MOL0     C41612   7.151   0.976   2.148 -0.4675  0.2769 -0.4550
  309MOL0     C41613   7.108   0.885   2.252  0.1645  0.3202 -0.6324
  309MOL0     C41614   7.186   0.765   2.277 -0.2245  0.8886 -0.5394
  309MOL0     C41615   7.306   0.744   2.218  0.6804  1.2084 -0.7448
  309MOL0     O41616   7.377   0.632   2.271 -0.0194  0.0561  0.5571
  309MOL0     C41617   7.518   0.642   2.271  0.0541  0.6281 -0.1968
  309MOL0     C41618   7.588   0.525   2.341  0.4669 -0.1091  0.3697
  309MOL0     C41619   7.584   0.528   2.491  0.2807 -0.5924  0.7659
  309MOL0     C41620   7.687   0.433   2.543  0.7808  0.3140  0.2106
  309MOL0     C41621   7.664   0.286   2.492  0.3218 -1.2665 -0.4595
  309MOL0     C41622   7.732   0.191   2.590  0.0723  0.0201  0.2517
  309MOL0     C41623   7.671   0.051   2.608  0.4527  0.9323  0.2234
  309MOL0     C41624   7.730  -0.044   2.504 -0.0357  0.7680  0.0312
  309MOL0    Cl41625   7.658  -0.011   2.341 -0.0322  0.2948 -0.0177
  309MOL0     C41626   7.347   0.821   2.109  0.6185  1.3921 -0.2371
  309MOL0     C41627   7.274   0.937   2.084  0.1833 -0.5264  0.4501
  309MOL0     O41628   7.205   1.237   2.181 -0.7110  0.1273 -1.3055
  309MOL0     C41629   7.003   1.429   2.150  0.5439  1.0760  0.3174
  309MOL0     C41630   6.919   1.539   2.109 -0.3711  0.5552  1.2601
  309MOL0     N41631   6.236   1.748   1.687  0.1190  0.3173 -0.5001
  309MOL0     N41632   6.183   1.672   1.603  0.5382 -0.0801 -0.9758
  309MOL0     C41633   6.324   0.461   1.659 -0.3752  0.3449  0.5340
  309MOL0     C41634   6.363   0.344   1.735  0.2896 -0.5635  0.4309
  309MOL0     C41635   6.446   0.048   2.074 -0.0654  0.5295  0.1336
  309MOL0     C41636   6.492   0.023   2.203  0.3211 -0.7611 -0.5241
  309MOL0     C41637   6.524  -0.112   2.236 -0.3251 -0.4690  0.1760
  309MOL0     C41638   6.524  -0.215   2.135  0.4472  0.1179 -1.1963
  309MOL0     O41639   6.586  -0.325   2.173  0.1285  0.6126 -0.4455
  309MOL0     C41640   6.593  -0.439   2.085  0.0176 -0.8516  0.0433
  309MOL0     C41641   6.450  -0.499   2.076 -0.2002 -0.3149 -0.2653
  309MOL0     C41642   6.376  -0.515   2.212  0.1757 -1.0556  0.0949
  309MOL0     C41643   6.450  -0.600   2.326 -0.5409 -0.2523  0.2635
  309MOL0     C41644   6.370  -0.626   2.443 -0.0099 -0.6126 -0.5602
  309MOL0     C41645   6.310  -0.635   2.552  0.2819  0.8522  0.9127
  309MOL0     C41646   6.475  -0.187   2.010  0.3517 -0.1294  0.3871
  309MOL0     C41647   6.431  -0.057   1.971 -0.2722 -0.1836  0.1192
  309MOL0     H41648   6.180   0.381   2.022 -1.9555 -2.7626 -2.5063
  309MOL0     H41649   6.110   0.579   1.899  0.3034 -1.3796  2.1197
  309MOL0     H41650   6.308   0.691   1.542  0.2303 -1.2747  1.4036
  309MOL0     H41651   6.154   0.652   1.463  3.8684  1.0069 -2.4824
  309MOL0     H41652   6.062   0.874   1.554 -0.2667  1.0924 -1.6966
  309MOL0     H41653   6.221   0.897   1.616 -0.9151  1.4878 -0.2216
  309MOL0     H41654   6.307   0.940   1.378 -0.2693  2.2473  0.1924
  309MOL0     H41655   6.171   0.846   1.315  0.3099 -0.7297  0.3304
  309MOL0     H41656   6.146   1.088   1.279 -2.9179 -0.7673 -1.2128
  309MOL0     H41657   6.015   1.030   1.374  0.6430 -0.5196 -3.5633
  309MOL0     H41658   6.161   1.093   1.584  0.5646 -1.6782 -1.1864
  309MOL0     H41659   6.268   1.175   1.468 -1.5471  1.6420 -4.1781
  309MOL0     H41660   6.061   1.305   1.394  1.3889  1.8175  1.2119
  309MOL0     H41661   5.969   1.226   1.533 -0.0954  3.4534  1.9865
  309MOL0     H41662   6.178   1.325   1.670  1.1940 -1.9725 -1.9027
  309MOL0     H41663   6.207   1.402   1.514  0.2386 -1.1685 -0.1090
  309MOL0     H41664   5.944   1.456   1.677 -0.3201  1.1784  0.4336
  309MOL0     H41665   5.990   1.527   1.523 -0.6976 -0.7593 -0.1685
  309MOL0     H41666   6.138   1.515   1.887 -0.8430  0.1197 -0.1991
  309MOL0     H41667   6.258   1.851   1.941  1.9286 -0.3026 -5.6707
  309MOL0     H41668   6.225   1.700   2.024  1.1574 -1.0759 -0.8813
  309MOL0     H41669   6.471   1.793   2.052 -0.9562 -5.4335  4.1983
  309MOL0     H41670   6.481   1.786   1.874 -1.3607 -0.5098 -1.1403
  309MOL0     H41671   6.479   1.534   1.909 -1.7649 -2.1115  2.1223
  309MOL0     H41672   6.411   1.558   2.069  0.8671 -2.2418 -0.3177
  309MOL0     H41673   6.614   1.482   2.091 -4.2002  0.8701  2.8669
  309MOL0     H41674   6.622   1.639   2.160 -0.1715  0.6506  0.5257
  309MOL0     H41675   6.787   1.422   1.822  2.1962  2.7142 -1.7080
  309MOL0     H41676   6.898   1.102   1.905 -0.0696  1.7169  1.6679
  309MOL0     H41677   6.921   1.208   1.759  1.1540 -0.5688 -1.2694
  309MOL0     H41678   7.061   1.164   1.843  0.1397 -0.7877  0.7399
  309MOL0     H41679   7.019   0.903   2.311  0.4313  3.4653 -1.0102
  309MOL0     H41680   7.151   0.690   2.347 -1.1022  1.1270 -0.7068
  309MOL0     H41681   7.556   0.642   2.169 -0.2221  2.2114 -0.3159
  309MOL0     H41682   7.541   0.737   2.320 -1.0482  0.3976  0.8120
  309MOL0     H41683   7.550   0.428   2.308 -2.2855  2.0101 -3.3605
  309MOL0     H41684   7.690   0.515   2.303  1.1808  3.4321  1.0313
  309MOL0     H41685   7.481   0.506   2.521  0.5940  0.1689  2.5238
  309MOL0     H41686   7.610   0.627   2.529  1.2737  0.2053 -1.8134
  309MOL0     H41687   7.786   0.467   2.511  0.6150 -1.9269 -3.2042
  309MOL0     H41688   7.682   0.453   2.650  1.8251  0.9990  0.1477
  309MOL0     H41689   7.692   0.259   2.391 -0.9188 -2.4591 -0.5064
  309MOL0     H41690   7.556   0.269   2.491  0.1581 -0.2853 -1.1670
  309MOL0     H41691   7.839   0.184   2.573  0.6202 -0.9147  3.5094
  309MOL0     H41692   7.728   0.226   2.693 -0.8330  1.3311 -0.2024
  309MOL0     H41693   7.562   0.052   2.605  0.3223 -2.9687 -0.4179
  309MOL0     H41694   7.703   0.011   2.705 -2.2004 -3.4018 -0.4344
  309MOL0     H41695   7.707  -0.141   2.548  0.4611  0.3899 -0.5121
  309MOL0     H41696   7.839  -0.030   2.511  0.1107 -0.4442  0.2973
  309MOL0     H41697   7.431   0.786   2.050 -0.6753 -0.0587 -1.3137
  309MOL0     H41698   7.308   1.006   2.007 -0.3628 -0.9665 -0.1952
  309MOL0     H41699   7.062   1.437   2.242 -1.2836 -1.9618  1.9153
  309MOL0     H41700   6.924   1.624   2.177  4.3685 -0.1791  2.2207
  309MOL0     H41701   6.348   0.474   1.553 -2.8341 -0.5853 -0.2034
  309MOL0     H41702   6.427   0.261   1.707 -0.8977 -0.5714 -2.6213
  309MOL0     H41703   6.488   0.095   2.283 -2.2599 -1.4514  0.0406
  309MOL0     H41704   6.559  -0.143   2.333  0.0885  2.0844  0.9223
  309MOL0     H41705   6.631  -0.399   1.991  1.8498  0.7517  1.3706
  309MOL0     H41706   6.665  -0.514   2.118 -1.7567 -1.8311  1.8659
  309MOL0     H41707   6.454  -0.599   2.031  0.8620 -1.8197  2.9434
  309MOL0     H41708   6.376  -0.444   2.017 -0.1848 -0.1224 -0.1045
  309MOL0     H41709   6.286  -0.575   2.196 -0.5260  0.0609 -0.2941
  309MOL0     H41710   6.350  -0.416   2.250 -3.6777 -2.4705  1.6839
  309MOL0     H41711   6.544  -0.554   2.358  1.1706 -2.0880 -1.8032
  309MOL0     H41712   6.480  -0.699   2.289 -2.4425 -0.5446 -0.6189
  309MOL0     H41713   6.241  -0.639   2.634 -2.3594 -1.5645 -1.2502
  309MOL0     H41714   6.476  -0.267   1.937 -2.6978 -0.3475  0.4597
  309MOL0     H41715   6.398  -0.039   1.870 -1.3312 -3.2199 -0.1795
  310MOL0     O41716   9.151   1.773   5.211 -0.0897 -0.1918 -0.2262
  310MOL0     C41717   9.231   1.712   5.145  0.1504 -0.7415  0.9942
  310MOL0     O41718   9.224   1.574   5.116  0.3635  0.5603 -0.5082
  310MOL0     C41719   9.122   1.501   5.181 -0.1363 -1.0294  0.0115
  310MOL0     C41720   9.021   1.445   5.102  0.4628  0.7875  0.1882
  310MOL0     C41721   8.918   1.372   5.157  0.0656  0.3988 -0.3862
  310MOL0     C41722   8.900   1.361   5.292  0.1484  0.4966 -0.0510
  310MOL0     O41723   8.784   1.292   5.333 -0.4362  0.4446  0.0602
  310MOL0     C41724   8.730   1.324   5.457  0.0411  0.0052  0.2356
  310MOL0     C41725   8.779   1.245   5.586  0.2281 -1.3245  0.0508
  310MOL0     C41726   8.761   1.093   5.578  0.2826  1.1590  0.0127
  310MOL0     C41727   8.624   1.029   5.610  0.0319  0.3638 -0.6983
  310MOL0     C41728   8.621   0.881   5.569  0.6621 -0.8872  0.3580
  310MOL0     C41729   8.750   0.802   5.583  0.7819  0.2390  0.9820
  310MOL0     C41730   8.745   0.663   5.509  0.0253  0.3328  0.1002
  310MOL0     C41731   8.843   0.565   5.566 -0.0941  0.5472  0.2103
  310MOL0     N41732   8.795   0.514   5.697  0.0081 -0.2067  0.2270
  310MOL0     C41733   8.710   0.415   5.727 -0.8152  0.0589  0.9135
  310MOL0     C41734   8.732   0.379   5.851 -0.3998  0.2604  0.0960
  310MOL0     C41735   8.650   0.271   5.918  0.3678 -0.3786  0.1716
  310MOL0     C41736   8.638   0.145   5.826 -0.8786 -0.5870 -0.2424
  310MOL0     C41737   8.578   0.024   5.905 -0.0594 -0.9515  0.3719
  310MOL0     C41738   8.578  -0.110   5.825  0.3719 -0.0495 -0.4576
  310MOL0     O41739   8.705  -0.150   5.775 -0.1333  0.0352 -0.0866
  310MOL0     C41740   8.707  -0.255   5.681  0.3676  0.3025 -0.0617
  310MOL0     C41741   8.833  -0.275   5.625  0.5452 -0.8517 -0.3741
  310MOL0     C41742   8.851  -0.367   5.521  1.2066 -0.0963 -0.7096
  310MOL0     C41743   8.987  -0.379   5.460 -0.5315  0.1478 -0.1550
  310MOL0     C41744   8.748  -0.460   5.490  0.0452  0.2524 -0.2723
  310MOL0     C41745   8.762  -0.587   5.402  0.4439 -0.3055 -0.5089
  310MOL0     O41746   8.642  -0.659   5.390  0.2274 -0.2221 -0.1426
  310MOL0     C41747   8.657  -0.793   5.368  0.7573  0.2408 -0.7776
  310MOL0     C41748   8.689  -0.841   5.241 -0.4781 -0.2013  0.4296
  310MOL0     C41749   8.693  -0.979   5.208 -0.2168 -1.1176 -0.6512
  310MOL0     C41750   8.681  -1.069   5.315 -0.3814  1.2565 -1.1835
  310MOL0     O41751   8.738  -1.194   5.301 -0.1049  0.2588 -0.1687
  310MOL0     C41752   8.756  -1.293   5.407  0.0876  0.8619  0.7350
  310MOL0     C41753   8.775  -1.435   5.339 -0.4884 -0.5058 -0.6588
  310MOL0     C41754   8.759  -1.539   5.452  0.3478 -0.3802  0.7725
  310MOL0     C41755   8.763  -1.673   5.377 -0.0510 -0.1054 -0.4170
  310MOL0     C41756   8.738  -1.790   5.471  0.2413 -0.0218  0.2245
  310MOL0     C41757   8.860  -1.814   5.549 -0.7618 -1.0227  0.0515
  310MOL0     C41758   8.872  -1.952   5.617  0.8546 -0.2584  0.2206
  310MOL0     C41759   8.904  -2.070   5.520  0.3617  0.2354 -0.7134
  310MOL0    Cl41760   9.063  -2.147   5.574 -0.3209 -0.2307 -0.2134
  310MOL0     C41761   8.644  -1.024   5.444 -0.1916  0.8126 -0.1108
  310MOL0     C41762   8.620  -0.887   5.467  0.3082  0.2086  0.6945
  310MOL0     O41763   8.875  -0.628   5.371  0.6997 -0.0310  0.7178
  310MOL0     C41764   8.614  -0.435   5.536 -0.5272 -0.8044  0.0323
  310MOL0     C41765   8.597  -0.336   5.637  1.0333  0.1792  0.2739
  310MOL0     N41766   8.832   0.450   5.910 -0.3493  0.0142  0.9468
  310MOL0     N41767   8.867   0.534   5.814  0.1923 -0.2143 -0.7719
  310MOL0     C41768   9.008   1.407   5.378  0.5281  0.3719 -0.1293
  310MOL0     C41769   9.120   1.474   5.323  0.5339 -0.7551  0.2663
  310MOL0     C41770   9.339   1.799   5.093 -0.5428  0.6238  0.1581
  310MOL0     C41771   9.304   1.940   5.077  0.6708  0.1344  0.0015
  310MOL0     C41772   9.395   2.026   5.024 -0.3550  0.4540  1.1110
  310MOL0     C41773   9.512   1.984   4.968 -0.3413  0.7339 -0.0023
  310MOL0     O41774   9.600   2.076   4.915  0.5498  0.0703 -0.0444
  310MOL0     C41775   9.733   2.045   4.893  0.1433 -0.8220 -0.4235
  310MOL0     C41776   9.757   1.985   4.749  0.0280 -0.4165  0.6332
  310MOL0     C41777   9.716   2.077   4.637 -0.0547 -0.5765 -0.2162
  310MOL0     C41778   9.571   2.048   4.590 -0.4580 -0.1036  0.3704
  310MOL0     C41779   9.535   2.133   4.477  0.5498 -0.1624  0.3982
  310MOL0     C41780   9.480   2.226   4.410 -0.2516  0.7621  0.3054
  310MOL0     C41781   9.534   1.838   4.964  0.2253  0.0173  0.6711
  310MOL0     C41782   9.464   1.751   5.043 -0.0979  0.5584 -0.0481
  310MOL0     H41783   9.013   1.451   4.994  0.4180 -2.5014 -0.1062
  310MOL0     H41784   8.848   1.323   5.090  1.5423  2.9136 -4.0986
  310MOL0     H41785   8.737   1.430   5.480 -0.4523  0.3366 -1.0737
  310MOL0     H41786   8.624   1.304   5.470 -0.3597  1.8622  0.0128
  310MOL0     H41787   8.883   1.270   5.607 -0.3425 -2.1716  5.1709
  310MOL0     H41788   8.725   1.294   5.668  0.8744  1.3287 -1.0034
  310MOL0     H41789   8.789   1.059   5.477  2.2773  0.1975  0.8359
  310MOL0     H41790   8.842   1.052   5.639  0.1719  1.1704  0.1671
  310MOL0     H41791   8.599   1.032   5.716 -1.4325 -4.4281 -0.6954
  310MOL0     H41792   8.549   1.084   5.552  1.0191  5.2590  2.0900
  310MOL0     H41793   8.555   0.837   5.644  0.5241 -0.9792  0.1833
  310MOL0     H41794   8.577   0.883   5.469 -1.7217 -0.9606  1.3588
  310MOL0     H41795   8.840   0.852   5.544  1.2058  1.2272  3.1168
  310MOL0     H41796   8.770   0.796   5.690 -0.6305  0.2530  1.2621
  310MOL0     H41797   8.646   0.617   5.508  0.9326 -1.7402 -0.7346
  310MOL0     H41798   8.761   0.684   5.403  0.2742  0.3517  0.1415
  310MOL0     H41799   8.949   0.591   5.574  0.3695 -0.4067 -2.0886
  310MOL0     H41800   8.842   0.477   5.501  1.4469  0.3382  0.4486
  310MOL0     H41801   8.643   0.379   5.650 -1.2716  2.1544  0.2750
  310MOL0     H41802   8.695   0.234   6.011 -2.5014 -2.8377  0.7517
  310MOL0     H41803   8.558   0.320   5.952 -0.3358 -1.0152 -0.7544
  310MOL0     H41804   8.727   0.120   5.767  3.7212  3.7234  3.9632
  310MOL0     H41805   8.570   0.180   5.748  0.9455  2.8306 -0.4828
  310MOL0     H41806   8.478   0.054   5.936 -0.5216  0.0795 -1.9203
  310MOL0     H41807   8.630   0.008   6.000  0.4082 -0.0132  0.2879
  310MOL0     H41808   8.511  -0.093   5.741  0.2473  2.3284  0.0394
  310MOL0     H41809   8.539  -0.189   5.890  1.4017 -1.5574 -1.5854
  310MOL0     H41810   8.910  -0.210   5.664 -0.9433 -1.0776  3.2996
  310MOL0     H41811   9.043  -0.449   5.523  0.9522 -0.1950 -1.7905
  310MOL0     H41812   8.984  -0.398   5.353 -0.9735  0.0475 -0.1277
  310MOL0     H41813   9.028  -0.277   5.462  3.0397 -1.1494  0.0994
  310MOL0     H41814   8.700  -0.767   5.161 -0.9618 -0.3006  0.2685
  310MOL0     H41815   8.720  -1.004   5.106 -0.4755  0.4845 -1.1465
  310MOL0     H41816   8.848  -1.270   5.461 -0.1778  0.4661  1.3655
  310MOL0     H41817   8.675  -1.296   5.480 -0.5701  2.3015  0.0939
  310MOL0     H41818   8.692  -1.448   5.269 -1.0186  2.6204 -0.7742
  310MOL0     H41819   8.870  -1.429   5.286 -1.3279 -0.7858 -2.2759
  310MOL0     H41820   8.664  -1.527   5.506  1.3606  0.7942  2.3727
  310MOL0     H41821   8.851  -1.536   5.511  0.9090 -0.9864 -0.0526
  310MOL0     H41822   8.679  -1.671   5.307 -0.8309  1.3232  0.5110
  310MOL0     H41823   8.849  -1.692   5.312  1.4517 -1.8483  1.8893
  310MOL0     H41824   8.715  -1.879   5.412 -0.3047 -0.0405  0.4590
  310MOL0     H41825   8.660  -1.755   5.539  2.1701  2.2105  1.4414
  310MOL0     H41826   8.947  -1.790   5.488 -1.6184 -0.0801 -0.8416
  310MOL0     H41827   8.860  -1.736   5.625 -3.4830 -0.3402 -0.5461
  310MOL0     H41828   8.781  -1.955   5.678  0.3314  2.2640 -0.3093
  310MOL0     H41829   8.950  -1.939   5.692  0.7355  1.2702  0.1266
  310MOL0     H41830   8.919  -2.043   5.415  1.8144 -1.0852 -0.8920
  310MOL0     H41831   8.831  -2.151   5.534 -0.4732  1.3003  1.5685
  310MOL0     H41832   8.624  -1.098   5.521  2.0369 -1.8920 -1.9277
  310MOL0     H41833   8.588  -0.857   5.566  2.6456 -0.1226  1.6205
  310MOL0     H41834   8.525  -0.483   5.496 -0.0200 -0.7849 -1.1618
  310MOL0     H41835   8.490  -0.321   5.644  0.5973 -1.6936 -1.5094
  310MOL0     H41836   9.007   1.398   5.486 -1.0306  0.2122 -0.1360
  310MOL0     H41837   9.199   1.506   5.390 -0.0218 -1.2717  1.1949
  310MOL0     H41838   9.210   1.978   5.114 -0.3310 -1.6552 -0.6081
  310MOL0     H41839   9.366   2.130   5.032  0.0251  0.5115  1.7674
  310MOL0     H41840   9.797   2.131   4.915 -0.2920 -0.0727 -1.9364
  310MOL0     H41841   9.768   1.964   4.957  1.9197  0.9638  0.9746
  310MOL0     H41842   9.721   1.882   4.738 -1.3421  0.0371  0.7737
  310MOL0     H41843   9.866   1.974   4.739 -0.1804 -2.7744  0.2924
  310MOL0     H41844   9.788   2.072   4.555 -0.6134  2.1878 -0.9839
  310MOL0     H41845   9.714   2.180   4.676 -1.3822 -1.4865  2.4149
  310MOL0     H41846   9.498   2.076   4.667  0.8286  0.6546  1.3430
  310MOL0     H41847   9.562   1.941   4.569 -2.9400  0.4748 -2.2694
  310MOL0     H41848   9.447   2.309   4.351 -0.3614  1.1332  0.8827
  310MOL0     H41849   9.616   1.783   4.920  0.3851  0.1005  0.8642
  310MOL0     H41850   9.500   1.650   5.063  0.5451  0.8696  0.3878
  311MOL0     O41851   8.458   4.094   2.233 -0.5526 -0.2696  0.2169
  311MOL0     C41852   8.540   4.190   2.236 -0.8325 -0.8697  0.5157
  311MOL0     O41853   8.525   4.308   2.168  0.0811 -0.7958  0.9305
  311MOL0     C41854   8.416   4.326   2.088  0.4194  0.5111  0.5185
  311MOL0     C41855   8.418   4.258   1.968  0.0003  0.2282 -0.6742
  311MOL0     C41856   8.326   4.284   1.866  0.2856  0.3221 -0.6676
  311MOL0     C41857   8.224   4.375   1.892 -0.0239  0.7956  1.3948
  311MOL0     O41858   8.137   4.402   1.785 -0.0982  0.7100 -0.3592
  311MOL0     C41859   8.023   4.313   1.794  0.3307  0.2976 -0.9945
  311MOL0     C41860   7.950   4.292   1.659  0.1212 -1.1178 -0.6320
  311MOL0     C41861   7.899   4.417   1.598  0.1347 -0.0728 -0.2484
  311MOL0     C41862   7.847   4.396   1.451 -0.5457 -0.1594 -0.6688
  311MOL0     C41863   7.760   4.513   1.401 -0.3856  0.0883  0.4689
  311MOL0     C41864   7.860   4.618   1.344 -0.1585 -0.6365 -0.9222
  311MOL0     C41865   7.816   4.757   1.297 -0.3587  0.5001  0.7397
  311MOL0     C41866   7.935   4.849   1.255 -0.5786  0.4697  0.2900
  311MOL0     N41867   7.975   4.938   1.365  0.1883  0.1560  0.0686
  311MOL0     C41868   7.977   4.919   1.506 -0.0679 -0.1474  1.0807
  311MOL0     C41869   8.012   5.043   1.552 -0.4718  0.6836 -0.9736
  311MOL0     C41870   8.049   5.084   1.695 -0.6689  0.6086  0.9517
  311MOL0     C41871   8.123   4.969   1.777 -0.5406 -0.0367  0.5799
  311MOL0     C41872   8.152   5.013   1.920  0.6072  0.2907 -0.1866
  311MOL0     C41873   8.180   4.902   2.012 -0.2836 -0.3704  0.2597
  311MOL0     O41874   8.291   4.824   1.982  0.4140 -0.1824  1.0253
  311MOL0     C41875   8.418   4.835   2.034  0.0759  0.0225 -0.3660
  311MOL0     C41876   8.505   4.730   2.008 -0.1947  0.4723  0.2445
  311MOL0     C41877   8.635   4.728   2.056 -0.4080 -0.3122 -0.4625
  311MOL0     C41878   8.721   4.618   2.008  0.2634  0.5111 -0.3159
  311MOL0     C41879   8.676   4.833   2.137  0.0100  0.6668  0.0725
  311MOL0     C41880   8.811   4.838   2.189  0.2548 -0.2075 -0.3844
  311MOL0     O41881   8.848   4.724   2.252  0.5840  0.2038 -0.5485
  311MOL0     C41882   8.971   4.691   2.302 -0.2797  0.9365  0.3510
  311MOL0     C41883   8.983   4.610   2.415  1.0202 -0.0765  0.3828
  311MOL0     C41884   9.113   4.595   2.475 -0.0912  1.3251 -0.2079
  311MOL0     C41885   9.228   4.658   2.417  0.1745  0.7328 -0.4963
  311MOL0     O41886   9.345   4.642   2.467 -0.9307  1.0430  0.2709
  311MOL0     C41887   9.416   4.757   2.503 -0.8874  0.4377 -0.8372
  311MOL0     C41888   9.543   4.718   2.577  0.2627 -1.0182 -0.4725
  311MOL0     C41889   9.650   4.689   2.475 -0.2680 -0.6056 -0.3025
  311MOL0     C41890   9.785   4.716   2.533  0.5217  0.0136  0.1089
  311MOL0     C41891   9.903   4.690   2.430 -0.4636 -0.4184  0.6077
  311MOL0     C41892  10.021   4.786   2.464  0.9243 -0.3160 -0.4122
  311MOL0     C41893  10.154   4.769   2.376 -0.5995 -0.4797  0.2429
  311MOL0     C41894  10.264   4.869   2.421  0.3810  0.0161 -0.2603
  311MOL0    Cl41895  10.249   5.052   2.376 -0.3861  0.1034  0.3228
  311MOL0     C41896   9.216   4.730   2.298 -0.9047  0.6846 -0.3607
  311MOL0     C41897   9.085   4.746   2.241  0.2306  0.5592 -0.5389
  311MOL0     O41898   8.875   4.939   2.185 -0.6623 -0.8178  0.9838
  311MOL0     C41899   8.586   4.936   2.171  0.7129 -0.7345  0.6278
  311MOL0     C41900   8.455   4.941   2.117 -0.0850  0.5342  0.3053
  311MOL0     N41901   8.032   5.128   1.444  0.4266  0.4300 -0.1624
  311MOL0     N41902   8.000   5.060   1.339  0.2655 -1.0922  0.4457
  311MOL0     C41903   8.229   4.447   2.009 -0.2776  0.3614  0.2767
  311MOL0     C41904   8.319   4.423   2.117  0.3837  0.4789 -0.7379
  311MOL0     C41905   8.680   4.180   2.316 -0.1407  0.2925  0.0759
  311MOL0     C41906   8.718   4.071   2.373 -0.2023  1.3047 -1.2954
  311MOL0     C41907   8.839   4.053   2.438  0.1956 -0.6776 -0.5888
  311MOL0     C41908   8.939   4.152   2.433  0.7410 -0.9776  0.6309
  311MOL0     O41909   9.059   4.129   2.497 -0.3298  0.1283  0.3143
  311MOL0     C41910   9.179   4.199   2.460 -1.0068 -0.2368  0.2297
  311MOL0     C41911   9.222   4.150   2.325 -0.4695  0.6938  0.1844
  311MOL0     C41912   9.333   4.229   2.258  0.4393 -1.2060 -0.8725
  311MOL0     C41913   9.351   4.234   2.103 -0.2734  0.7209 -0.7188
  311MOL0     C41914   9.255   4.330   2.061  0.9527  0.6520 -0.7897
  311MOL0     C41915   9.186   4.426   2.037 -0.1517 -0.6451 -0.7284
  311MOL0     C41916   8.902   4.271   2.372 -0.8006 -0.9143 -0.3944
  311MOL0     C41917   8.775   4.290   2.318  0.7690  0.8426 -0.2931
  311MOL0     H41918   8.490   4.181   1.942 -0.7341 -0.8747  0.4749
  311MOL0     H41919   8.330   4.229   1.772 -0.6845  1.6938 -1.5385
  311MOL0     H41920   8.050   4.214   1.829 -1.1528 -1.0216 -3.2995
  311MOL0     H41921   7.957   4.349   1.874  1.0836 -0.9652  0.2330
  311MOL0     H41922   8.023   4.252   1.588 -1.4926  2.4506 -4.7763
  311MOL0     H41923   7.866   4.223   1.673 -0.9280 -0.0350 -1.3455
  311MOL0     H41924   7.821   4.458   1.662 -1.3618 -1.6673 -0.9808
  311MOL0     H41925   7.984   4.485   1.605  1.1646 -1.4353  1.3063
  311MOL0     H41926   7.925   4.376   1.375 -1.6371 -3.9270 -1.0243
  311MOL0     H41927   7.789   4.304   1.460  0.3355 -0.6335  0.4779
  311MOL0     H41928   7.701   4.484   1.314  1.3671 -1.6434 -0.2341
  311MOL0     H41929   7.690   4.542   1.479  0.0907  0.3621  0.7993
  311MOL0     H41930   7.934   4.638   1.422  2.1516 -0.5816 -2.9825
  311MOL0     H41931   7.911   4.563   1.264  2.5902 -0.0998  0.3476
  311MOL0     H41932   7.747   4.753   1.212 -1.0228  1.9364  1.1738
  311MOL0     H41933   7.766   4.796   1.386 -3.3021 -1.3422  0.0051
  311MOL0     H41934   7.901   4.916   1.175 -0.4660  0.2449  0.0511
  311MOL0     H41935   8.016   4.788   1.213 -1.2542  0.2392 -0.7009
  311MOL0     H41936   7.953   4.834   1.569  2.1137 -0.8591  1.0443
  311MOL0     H41937   8.108   5.176   1.700  0.2852  0.0324  0.5311
  311MOL0     H41938   7.958   5.105   1.753 -1.6608 -1.2426  0.1830
  311MOL0     H41939   8.223   4.951   1.738 -0.5944 -0.8435  0.7901
  311MOL0     H41940   8.060   4.879   1.772  0.0783 -0.4595  0.3546
  311MOL0     H41941   8.065   5.065   1.961 -0.5039 -3.8053  3.2989
  311MOL0     H41942   8.237   5.081   1.924  2.2861 -1.7563  0.2832
  311MOL0     H41943   8.091   4.838   2.010  1.0127 -2.3151 -2.2425
  311MOL0     H41944   8.190   4.942   2.113 -1.8562  3.4947 -0.9389
  311MOL0     H41945   8.484   4.642   1.948  0.6196 -0.9051  1.8679
  311MOL0     H41946   8.790   4.656   1.932  2.5710 -0.4039  1.2182
  311MOL0     H41947   8.773   4.569   2.090  1.6366 -1.6763 -2.3612
  311MOL0     H41948   8.658   4.545   1.955  0.1688  2.0940 -2.5546
  311MOL0     H41949   8.890   4.560   2.441  2.1738  0.2124  6.5734
  311MOL0     H41950   9.135   4.528   2.558  0.8031  0.2747 -1.2577
  311MOL0     H41951   9.438   4.834   2.429  4.9070 -1.7908 -1.9523
  311MOL0     H41952   9.358   4.799   2.586  2.7991  4.8430 -0.0486
  311MOL0     H41953   9.561   4.812   2.631 -1.8154  0.9268 -2.9161
  311MOL0     H41954   9.526   4.642   2.654  1.9729  0.4050  1.4058
  311MOL0     H41955   9.628   4.739   2.380 -1.8845 -4.1254 -1.9492
  311MOL0     H41956   9.646   4.582   2.453 -1.9585 -0.6018 -0.1339
  311MOL0     H41957   9.786   4.820   2.567 -1.1901  1.3501 -3.3843
  311MOL0     H41958   9.793   4.656   2.624  0.7841  0.2331  0.2325
  311MOL0     H41959   9.881   4.705   2.324  1.4953 -0.1388  0.2058
  311MOL0     H41960   9.934   4.587   2.446 -2.2885 -0.8998  1.3182
  311MOL0     H41961   9.982   4.886   2.440  1.5507 -0.2957 -1.3781
  311MOL0     H41962  10.035   4.767   2.571 -0.2630  1.5646  0.1213
  311MOL0     H41963  10.145   4.781   2.267 -0.0479 -1.4807  0.0691
  311MOL0     H41964  10.198   4.669   2.383  2.1604  0.6698  0.4871
  311MOL0     H41965  10.361   4.839   2.379  0.3769  2.1538 -1.9953
  311MOL0     H41966  10.274   4.855   2.529  1.9659 -2.4266 -0.6440
  311MOL0     H41967   9.303   4.776   2.254 -1.8449  0.8542 -2.1448
  311MOL0     H41968   9.082   4.806   2.150  0.6449  0.9870 -0.2785
  311MOL0     H41969   8.610   5.017   2.240  2.6853  0.3746 -1.2361
  311MOL0     H41970   8.391   5.027   2.135 -3.4146 -0.8538 -3.4816
  311MOL0     H41971   8.148   4.519   2.018 -0.8715 -0.1748 -0.6661
  311MOL0     H41972   8.313   4.478   2.210 -0.9483 -3.1055  1.5107
  311MOL0     H41973   8.654   3.985   2.356  1.9729 -0.2188 -2.0831
  311MOL0     H41974   8.867   3.955   2.476 -0.7625 -0.4078  0.9313
  311MOL0     H41975   9.167   4.307   2.447 -1.0400 -0.1974  0.5824
  311MOL0     H41976   9.254   4.187   2.538 -4.0567 -1.5757  3.2268
  311MOL0     H41977   9.139   4.153   2.253  0.3870 -3.8950 -1.3583
  311MOL0     H41978   9.246   4.044   2.335  1.4709  1.1416  0.6726
  311MOL0     H41979   9.427   4.186   2.295  2.3528  2.9034 -0.3451
  311MOL0     H41980   9.330   4.330   2.301 -3.5478 -1.4672 -0.1999
  311MOL0     H41981   9.331   4.137   2.057 -2.2035  1.5762 -1.7643
  311MOL0     H41982   9.450   4.263   2.068  0.2147 -2.2235 -2.0628
  311MOL0     H41983   9.128   4.512   2.009  1.8951  0.9078 -0.4121
  311MOL0     H41984   8.974   4.352   2.358 -0.0907 -0.8512  2.7240
  311MOL0     H41985   8.757   4.383   2.265  0.2452 -0.3324 -2.3040
  312MOL0     O41986   3.033   8.956   0.572 -1.0260  0.2182  0.5941
  312MOL0     C41987   3.109   9.039   0.623 -0.1460  0.0782 -0.0706
  312MOL0     O41988   3.229   9.080   0.559  0.4911 -0.3789 -0.6433
  312MOL0     C41989   3.226   9.047   0.422  0.6149 -0.2406  0.0798
  312MOL0     C41990   3.324   8.951   0.381  0.0970  0.0667 -0.3110
  312MOL0     C41991   3.343   8.910   0.243  0.3080 -0.3959  0.1273
  312MOL0     C41992   3.270   8.982   0.138 -0.5262 -0.1331 -0.3254
  312MOL0     O41993   3.299   8.968   0.007  0.5959 -0.0992  0.2042
  312MOL0     C41994   3.360   9.081  -0.056 -0.4314  0.3703  0.4167
  312MOL0     C41995   3.437   9.015  -0.174  0.2484 -0.3143 -0.1187
  312MOL0     C41996   3.480   9.123  -0.268 -0.3727 -0.0661  1.0198
  312MOL0     C41997   3.600   9.082  -0.351  0.6547  0.3403 -0.6222
  312MOL0     C41998   3.623   9.188  -0.465  0.1775 -0.1079 -0.6682
  312MOL0     C41999   3.648   9.338  -0.416  0.0548  0.1232 -0.1673
  312MOL0     C42000   3.716   9.422  -0.510 -0.1383  0.1838  0.2616
  312MOL0     C42001   3.625   9.508  -0.599  0.4004  0.0346 -0.0278
  312MOL0     N42002   3.635   9.486  -0.741  0.4558 -0.5103 -0.1260
  312MOL0     C42003   3.748   9.476  -0.811  0.3661 -0.8581 -0.9724
  312MOL0     C42004   3.716   9.446  -0.939 -0.0809 -0.5216 -0.9191
  312MOL0     C42005   3.811   9.452  -1.050  0.9038 -0.3374  0.7197
  312MOL0     C42006   3.911   9.332  -1.029  0.7220 -0.2486  0.0190
  312MOL0     C42007   3.942   9.288  -1.180 -0.5934  0.8541  0.1558
  312MOL0     C42008   4.059   9.196  -1.184  1.3135 -0.7556  0.1324
  312MOL0     O42009   4.090   9.097  -1.087  0.2912  0.1574  0.1843
  312MOL0     C42010   4.190   9.003  -1.116 -0.2794  0.2198 -0.4451
  312MOL0     C42011   4.291   9.025  -1.216  0.2007 -0.1585  0.1428
  312MOL0     C42012   4.373   8.927  -1.268 -0.3552 -0.0529  0.9578
  312MOL0     C42013   4.453   8.958  -1.386  0.2303 -0.9364  0.8876
  312MOL0     C42014   4.357   8.801  -1.211  0.6986 -1.3861  0.5138
  312MOL0     C42015   4.455   8.696  -1.260  0.1807  0.2456 -0.5894
  312MOL0     O42016   4.410   8.575  -1.298 -0.6749  0.2261  0.6555
  312MOL0     C42017   4.485   8.465  -1.291 -0.4296  0.5396 -0.4981
  312MOL0     C42018   4.601   8.435  -1.379  1.3202  0.9392  0.6989
  312MOL0     C42019   4.653   8.306  -1.373 -0.0308  0.1210 -0.8901
  312MOL0     C42020   4.617   8.212  -1.277  0.6744 -0.4714  0.8123
  312MOL0     O42021   4.683   8.091  -1.289  0.4586 -0.1709  0.1667
  312MOL0     C42022   4.665   7.986  -1.189 -0.3341 -0.7612  0.1091
  312MOL0     C42023   4.720   7.846  -1.243 -0.2277  0.8197 -0.2615
  312MOL0     C42024   4.874   7.829  -1.274 -0.4484 -0.2579  0.8435
  312MOL0     C42025   4.910   7.883  -1.414 -0.5900 -0.1890 -0.3731
  312MOL0     C42026   5.055   7.837  -1.446  1.1087  0.7254  0.7910
  312MOL0     C42027   5.110   7.897  -1.577 -0.2232 -1.3446 -0.5936
  312MOL0     C42028   5.180   7.799  -1.669  0.2938 -0.4876  0.0955
  312MOL0     C42029   5.192   7.849  -1.809  0.5060 -0.1065 -0.3218
  312MOL0    Cl42030   5.232   8.026  -1.818  0.1783  0.0952 -0.2704
  312MOL0     C42031   4.521   8.247  -1.182  0.3282 -0.1224  0.4957
  312MOL0     C42032   4.454   8.371  -1.190 -1.1829  0.6154  0.4101
  312MOL0     O42033   4.571   8.728  -1.242 -0.5240  0.5163 -0.5419
  312MOL0     C42034   4.268   8.784  -1.100  0.0159  1.2993 -0.0104
  312MOL0     C42035   4.181   8.878  -1.051 -0.8225 -1.0633  0.0840
  312MOL0     N42036   3.581   9.426  -0.932 -0.3454  0.8268  0.3173
  312MOL0     N42037   3.535   9.443  -0.810 -0.2102  0.1475  0.1452
  312MOL0     C42038   3.176   9.075   0.185 -0.3700 -0.0629  0.3639
  312MOL0     C42039   3.154   9.104   0.324 -0.0640  0.4054 -0.2983
  312MOL0     C42040   3.083   9.084   0.762  0.2075 -0.4126  0.2789
  312MOL0     C42041   3.145   9.204   0.799 -0.4518  0.1988 -0.3392
  312MOL0     C42042   3.130   9.258   0.930  0.3647 -0.3977 -0.0735
  312MOL0     C42043   3.047   9.199   1.018  0.2432  0.4129 -0.2242
  312MOL0     O42044   3.028   9.279   1.125 -0.1652 -0.4701  0.2626
  312MOL0     C42045   2.930   9.260   1.230  0.2500  0.6573  0.8833
  312MOL0     C42046   2.944   9.367   1.331  0.4856 -0.6403 -0.5815
  312MOL0     C42047   2.825   9.365   1.420 -0.2184 -0.0297  0.0287
  312MOL0     C42048   2.679   9.374   1.360  0.4801 -0.2286  0.6163
  312MOL0     C42049   2.669   9.469   1.252 -0.1699 -0.1031 -0.2598
  312MOL0     C42050   2.680   9.553   1.167 -0.4218 -0.6802 -0.6665
  312MOL0     C42051   2.989   9.075   0.985  0.5389 -0.7331  0.4890
  312MOL0     C42052   3.009   9.019   0.857 -0.4822  0.0113  0.6840
  312MOL0     H42053   3.387   8.905   0.457  1.8965  2.0902 -0.4718
  312MOL0     H42054   3.412   8.830   0.223  1.4636  0.2777  1.2865
  312MOL0     H42055   3.282   9.146  -0.096 -0.6783  0.8839  1.6851
  312MOL0     H42056   3.428   9.142   0.005  1.2205 -0.3662 -0.6157
  312MOL0     H42057   3.517   8.949  -0.140 -0.5484 -1.9325 -1.2121
  312MOL0     H42058   3.372   8.946  -0.229  1.9336 -0.3469 -2.2082
  312MOL0     H42059   3.395   9.124  -0.337  0.6941 -0.9015 -0.3453
  312MOL0     H42060   3.501   9.220  -0.221  2.0512 -0.3425  0.6366
  312MOL0     H42061   3.689   9.087  -0.287  0.3845  0.6738 -0.2601
  312MOL0     H42062   3.595   8.984  -0.398  0.0625  1.0114 -2.0083
  312MOL0     H42063   3.699   9.146  -0.532 -0.8475 -1.9931 -0.7129
  312MOL0     H42064   3.528   9.197  -0.517  0.7647  0.8578 -1.6184
  312MOL0     H42065   3.558   9.395  -0.390 -0.8719 -1.2928 -0.1459
  312MOL0     H42066   3.711   9.341  -0.327  0.8370 -0.3913 -0.6893
  312MOL0     H42067   3.787   9.488  -0.459 -1.0228  1.2682  0.1461
  312MOL0     H42068   3.779   9.351  -0.564  0.2215 -0.2857  1.2740
  312MOL0     H42069   3.656   9.613  -0.593 -1.7415  0.6218  2.4606
  312MOL0     H42070   3.519   9.500  -0.574 -0.1175  1.3799 -1.6165
  312MOL0     H42071   3.841   9.482  -0.754 -0.6081 -0.4930  0.6451
  312MOL0     H42072   3.750   9.463  -1.140  2.4003  0.9086 -0.1800
  312MOL0     H42073   3.875   9.540  -1.051 -0.8194  0.9600 -1.1449
  312MOL0     H42074   3.855   9.248  -0.986 -0.4062 -1.2777 -3.1880
  312MOL0     H42075   3.998   9.361  -0.970  1.6510  3.0991 -2.6449
  312MOL0     H42076   3.954   9.372  -1.250  0.0476  1.1866  0.6581
  312MOL0     H42077   3.862   9.225  -1.221  1.7735 -0.9849 -1.9986
  312MOL0     H42078   4.144   9.264  -1.178  0.4680  0.6626 -2.4923
  312MOL0     H42079   4.063   9.150  -1.283 -0.2850  0.4843 -0.5628
  312MOL0     H42080   4.293   9.125  -1.256  0.6121 -0.7292 -1.3161
  312MOL0     H42081   4.560   8.963  -1.364  0.0760 -1.4501  1.7767
  312MOL0     H42082   4.420   8.880  -1.455 -2.1225 -2.7465  3.8147
  312MOL0     H42083   4.437   9.054  -1.436  0.9103 -0.0193  2.3566
  312MOL0     H42084   4.627   8.491  -1.469  2.2214  0.1218  0.4385
  312MOL0     H42085   4.732   8.284  -1.445  1.2888 -0.2584  0.6309
  312MOL0     H42086   4.718   8.022  -1.101 -2.2255  1.7486  0.3294
  312MOL0     H42087   4.557   7.967  -1.180 -0.8557  1.0799 -1.4450
  312MOL0     H42088   4.689   7.775  -1.166 -2.7612  0.7034 -1.2871
  312MOL0     H42089   4.663   7.834  -1.336 -1.5605  2.0102  0.3494
  312MOL0     H42090   4.908   7.725  -1.272 -0.0694 -0.1557 -0.1445
  312MOL0     H42091   4.931   7.896  -1.209  1.6698 -1.3090  0.1444
  312MOL0     H42092   4.836   7.856  -1.490 -2.7680 -2.6079  2.3732
  312MOL0     H42093   4.906   7.992  -1.410 -2.4703 -0.2049 -1.0872
  312MOL0     H42094   5.062   7.728  -1.455 -2.7458  0.4980 -2.9375
  312MOL0     H42095   5.121   7.861  -1.363  2.2868  2.2733 -0.5130
  312MOL0     H42096   5.027   7.939  -1.633 -1.1845 -1.5500  0.6380
  312MOL0     H42097   5.175   7.981  -1.549 -3.4659  1.7652 -1.7260
  312MOL0     H42098   5.139   7.698  -1.661  1.9345 -1.6644 -4.1300
  312MOL0     H42099   5.286   7.786  -1.646  0.9841 -0.5530 -2.7785
  312MOL0     H42100   5.102   7.831  -1.870 -0.0261  1.2013  0.0390
  312MOL0     H42101   5.279   7.801  -1.855  0.7641  1.5961 -1.7106
  312MOL0     H42102   4.498   8.178  -1.101 -1.2835 -0.5077 -0.2514
  312MOL0     H42103   4.375   8.387  -1.118 -2.3266 -0.8299 -0.4595
  312MOL0     H42104   4.271   8.688  -1.050 -1.7155  0.3186 -1.6649
  312MOL0     H42105   4.102   8.872  -0.976 -1.9924  0.8758 -0.9189
  312MOL0     H42106   3.125   9.137   0.113 -0.3392 -2.0618 -1.4735
  312MOL0     H42107   3.094   9.186   0.363  2.9646  1.9750  1.4297
  312MOL0     H42108   3.210   9.257   0.729  2.1202 -1.3382  0.7544
  312MOL0     H42109   3.184   9.350   0.949 -0.5826  0.9575 -3.2455
  312MOL0     H42110   2.831   9.264   1.184  0.5566  2.8474  0.2524
  312MOL0     H42111   2.942   9.163   1.279  0.2955 -0.1924 -0.7263
  312MOL0     H42112   2.943   9.463   1.279 -0.6169 -0.6319 -0.5612
  312MOL0     H42113   3.038   9.355   1.387 -0.2486 -1.7185  0.4664
  312MOL0     H42114   2.846   9.447   1.489 -1.4537  2.0260 -1.9183
  312MOL0     H42115   2.821   9.275   1.483 -4.5172  0.8152  1.3264
  312MOL0     H42116   2.601   9.387   1.437 -2.0027 -2.9980 -1.1949
  312MOL0     H42117   2.654   9.273   1.326 -1.1230  1.6328 -4.7414
  312MOL0     H42118   2.702   9.614   1.082  2.8514 -0.2379  0.3533
  312MOL0     H42119   2.928   9.032   1.064 -0.4523 -1.9112 -0.8487
  312MOL0     H42120   2.953   8.930   0.831  1.1492 -0.5140 -1.3414
  313MOL0     O42121   5.770   8.017   5.751  0.3194  0.5219  0.2472
  313MOL0     C42122   5.673   8.090   5.780  0.7359  0.0552  0.1373
  313MOL0     O42123   5.632   8.110   5.903  0.2525 -0.4146 -0.0049
  313MOL0     C42124   5.682   8.033   6.008 -0.3513  0.2380  0.6199
  313MOL0     C42125   5.774   8.087   6.096 -0.3589  0.5101  0.4998
  313MOL0     C42126   5.814   8.030   6.214 -0.5666 -0.1807  0.8121
  313MOL0     C42127   5.759   7.904   6.247 -0.4073 -0.2991 -0.0556
  313MOL0     O42128   5.784   7.835   6.363 -0.8282 -0.1988  0.1205
  313MOL0     C42129   5.871   7.888   6.456 -0.7691 -0.3158 -0.2901
  313MOL0     C42130   6.022   7.890   6.432 -1.0025  0.2445  0.0193
  313MOL0     C42131   6.080   7.754   6.413  0.3609 -0.5237 -0.1646
  313MOL0     C42132   6.237   7.766   6.417  0.0173 -0.1558 -0.1700
  313MOL0     C42133   6.305   7.710   6.291  0.5065 -0.1534 -0.2332
  313MOL0     C42134   6.456   7.722   6.317 -0.1487 -0.0635  0.4469
  313MOL0     C42135   6.529   7.672   6.193  0.4066  0.2624 -0.4020
  313MOL0     C42136   6.541   7.788   6.085 -0.2059  0.5549  0.2250
  313MOL0     N42137   6.633   7.903   6.111  0.6851  0.0599 -0.1418
  313MOL0     C42138   6.722   7.919   6.217 -0.6367  0.9037 -0.7803
  313MOL0     C42139   6.770   8.040   6.193 -0.4345 -0.8474  0.0287
  313MOL0     C42140   6.874   8.107   6.273  0.5672 -0.5199 -0.2581
  313MOL0     C42141   6.830   8.231   6.357  0.2040  0.2083 -0.5222
  313MOL0     C42142   6.806   8.355   6.274  0.0947  0.3495  0.3482
  313MOL0     C42143   6.749   8.463   6.370  0.6615  0.6107 -0.4611
  313MOL0     O42144   6.612   8.430   6.418 -0.1049 -0.8843  0.7563
  313MOL0     C42145   6.570   8.472   6.539  1.0958  0.5438  0.2453
  313MOL0     C42146   6.447   8.433   6.591  0.5070  0.0375 -0.2756
  313MOL0     C42147   6.388   8.480   6.705 -0.5805 -0.7898 -0.6090
  313MOL0     C42148   6.241   8.459   6.732  0.0177  0.2480 -0.0470
  313MOL0     C42149   6.463   8.576   6.779  0.6153  1.4911  0.8056
  313MOL0     C42150   6.417   8.642   6.903  0.8692 -0.7106 -0.0569
  313MOL0     O42151   6.512   8.706   6.972 -0.3502 -0.2770 -0.6162
  313MOL0     C42152   6.488   8.753   7.099 -0.4510 -0.3583  0.8909
  313MOL0     C42153   6.420   8.878   7.121 -0.3288  1.1675 -0.0264
  313MOL0     C42154   6.416   8.934   7.252  0.6242  0.3999 -0.1024
  313MOL0     C42155   6.462   8.854   7.356 -0.3465 -0.3068 -0.3141
  313MOL0     O42156   6.449   8.919   7.475 -0.4722 -0.6423 -0.4571
  313MOL0     C42157   6.356   8.858   7.567 -0.5750  0.4942  0.2990
  313MOL0     C42158   6.366   8.920   7.707  0.3204 -0.5168  0.4881
  313MOL0     C42159   6.251   8.864   7.795 -0.4591  1.0487  0.5556
  313MOL0     C42160   6.278   8.875   7.948 -0.0260  0.7684 -0.3236
  313MOL0     C42161   6.157   8.850   8.035 -0.7701  0.3785  0.1897
  313MOL0     C42162   6.061   8.959   8.041  0.8375 -0.1755  0.0072
  313MOL0     C42163   5.984   8.938   8.174  0.4040 -0.4677 -0.2237
  313MOL0     C42164   5.900   8.811   8.171  0.2452  0.2286 -0.0641
  313MOL0    Cl42165   5.837   8.767   8.006  0.0990 -0.5590  0.0830
  313MOL0     C42166   6.524   8.731   7.333  0.4265  0.2914 -0.2404
  313MOL0     C42167   6.544   8.684   7.202  0.1671  0.3368 -0.7697
  313MOL0     O42168   6.295   8.633   6.942 -1.1457 -0.4187 -0.2599
  313MOL0     C42169   6.585   8.617   6.731  0.5141  0.1143 -0.0520
  313MOL0     C42170   6.638   8.567   6.619  0.1115  1.4473  0.0593
  313MOL0     N42171   6.716   8.102   6.076  0.3202  0.1988 -0.7423
  313MOL0     N42172   6.631   8.011   6.028  0.1391 -1.0483  0.5719
  313MOL0     C42173   5.678   7.833   6.156  0.2211 -0.4142  0.7484
  313MOL0     C42174   5.637   7.897   6.035  0.3889 -0.6671  0.2046
  313MOL0     C42175   5.626   8.190   5.674 -0.1552 -0.0378 -0.2320
  313MOL0     C42176   5.619   8.146   5.540 -0.0097  1.3568 -0.2952
  313MOL0     C42177   5.546   8.216   5.445  1.1323  0.3474  0.6573
  313MOL0     C42178   5.488   8.334   5.473 -0.1040  0.5830  0.1542
  313MOL0     O42179   5.408   8.390   5.385  0.5225  0.2181  0.1907
  313MOL0     C42180   5.285   8.450   5.444  0.0838  0.7715  0.2957
  313MOL0     C42181   5.166   8.364   5.394 -0.1474  0.0901  0.4064
  313MOL0     C42182   5.168   8.214   5.453  0.5857  0.5957 -0.1889
  313MOL0     C42183   5.059   8.131   5.382 -0.5018  0.4402 -0.8060
  313MOL0     C42184   4.925   8.184   5.410 -0.0325  0.7259 -0.4838
  313MOL0     C42185   4.820   8.247   5.430  0.6240 -1.4865  0.1067
  313MOL0     C42186   5.508   8.378   5.607  0.3502  0.0671 -0.5951
  313MOL0     C42187   5.581   8.315   5.706 -0.1722 -0.5626  0.1958
  313MOL0     H42188   5.831   8.175   6.068  1.4425 -0.3136  1.4395
  313MOL0     H42189   5.885   8.071   6.284  1.1348 -1.0616 -0.3388
  313MOL0     H42190   5.840   7.991   6.477  1.4988  0.6697 -1.3401
  313MOL0     H42191   5.872   7.825   6.545 -0.5909 -0.2929 -0.2754
  313MOL0     H42192   6.056   7.952   6.349  0.5785  1.8686  1.7840
  313MOL0     H42193   6.068   7.929   6.523  0.4957 -0.9558 -0.1758
  313MOL0     H42194   6.030   7.687   6.483 -2.5639  1.0735 -0.5628
  313MOL0     H42195   6.048   7.716   6.316 -1.3716 -1.7628  0.8219
  313MOL0     H42196   6.255   7.873   6.418  1.0314 -0.3114  1.1845
  313MOL0     H42197   6.282   7.729   6.510  0.2203 -1.4165 -0.7470
  313MOL0     H42198   6.285   7.603   6.279 -3.6817  0.3492  0.8880
  313MOL0     H42199   6.290   7.751   6.191 -0.2247 -4.0491 -1.9116
  313MOL0     H42200   6.479   7.825   6.345 -1.1004  0.8269 -1.8095
  313MOL0     H42201   6.498   7.666   6.401 -1.1174 -0.4707  0.6809
  313MOL0     H42202   6.628   7.632   6.217 -0.2867 -0.1764  1.9898
  313MOL0     H42203   6.475   7.589   6.146  1.0326  1.5196 -3.5738
  313MOL0     H42204   6.440   7.823   6.062 -1.7270 -3.1255  0.4660
  313MOL0     H42205   6.576   7.735   5.995  0.5608  1.5521 -0.0756
  313MOL0     H42206   6.764   7.850   6.288 -0.6917 -0.1207 -1.7100
  313MOL0     H42207   6.918   8.029   6.337 -1.4179 -1.6545 -0.1612
  313MOL0     H42208   6.960   8.124   6.207 -0.4007 -0.9149 -1.6720
  313MOL0     H42209   6.921   8.247   6.415  1.2087  0.6614 -2.1794
  313MOL0     H42210   6.741   8.208   6.417  0.0556  0.4293 -0.6588
  313MOL0     H42211   6.728   8.334   6.201  0.2715 -0.1516  0.2981
  313MOL0     H42212   6.900   8.385   6.228 -0.4494 -0.4043 -1.3278
  313MOL0     H42213   6.750   8.558   6.316 -1.4843  0.9721  0.0575
  313MOL0     H42214   6.829   8.473   6.444 -1.3366  1.4142  1.7077
  313MOL0     H42215   6.382   8.372   6.529 -0.8542 -1.5183  2.5280
  313MOL0     H42216   6.190   8.556   6.728 -2.5785 -0.8292  2.5880
  313MOL0     H42217   6.202   8.388   6.658  1.8222  0.0102 -0.8016
  313MOL0     H42218   6.211   8.415   6.828  3.0986  0.5327  1.1636
  313MOL0     H42219   6.373   8.932   7.039  0.4708  1.5700 -0.2274
  313MOL0     H42220   6.360   9.025   7.274 -0.2304 -0.0942 -0.1899
  313MOL0     H42221   6.255   8.858   7.524 -0.3511 -2.3129 -0.4333
  313MOL0     H42222   6.395   8.758   7.590  2.2574  1.6033  0.6224
  313MOL0     H42223   6.459   8.893   7.759  1.0578 -0.8200 -0.9359
  313MOL0     H42224   6.360   9.029   7.705 -0.3521 -0.5566 -0.2887
  313MOL0     H42225   6.237   8.756   7.781  0.3938  0.7469  1.8597
  313MOL0     H42226   6.150   8.902   7.782 -0.7105 -0.1716 -1.4190
  313MOL0     H42227   6.360   8.804   7.962 -0.1315  1.0048  2.0278
  313MOL0     H42228   6.317   8.971   7.982  4.6005 -0.1856 -2.1541
  313MOL0     H42229   6.198   8.837   8.136 -0.1629 -2.4808 -0.3305
  313MOL0     H42230   6.108   8.757   8.005 -0.5555 -0.1407  1.3782
  313MOL0     H42231   6.105   9.058   8.049  1.2263 -0.1092 -2.1902
  313MOL0     H42232   5.990   8.950   7.958  1.8540  0.2170 -0.9314
  313MOL0     H42233   5.910   9.018   8.185 -0.8577 -1.5828 -0.3604
  313MOL0     H42234   6.050   8.944   8.261 -2.4204  2.2846  1.9806
  313MOL0     H42235   5.813   8.812   8.236 -2.2274  4.9623 -2.9099
  313MOL0     H42236   5.954   8.723   8.209  1.1400  0.6733 -0.2750
  313MOL0     H42237   6.577   8.685   7.416 -3.3994 -2.3404  1.0043
  313MOL0     H42238   6.623   8.611   7.189 -0.2818 -0.0456 -1.4248
  313MOL0     H42239   6.648   8.690   6.781 -2.7175  1.7678  2.0007
  313MOL0     H42240   6.738   8.597   6.590 -0.5275  0.5926 -3.6363
  313MOL0     H42241   5.646   7.731   6.172  1.5364 -0.5653  2.7716
  313MOL0     H42242   5.568   7.847   5.968 -1.4336 -0.2722  1.7059
  313MOL0     H42243   5.665   8.051   5.514 -0.4583  0.4070  2.1828
  313MOL0     H42244   5.529   8.174   5.347  1.4887  0.7669  0.4111
  313MOL0     H42245   5.279   8.443   5.553  0.7939 -2.9837  0.2419
  313MOL0     H42246   5.272   8.554   5.413  0.7197  0.8522  0.2968
  313MOL0     H42247   5.172   8.361   5.285 -2.1759  0.6326  0.2328
  313MOL0     H42248   5.078   8.425   5.416  1.0668  0.8845  3.7138
  313MOL0     H42249   5.150   8.212   5.561  2.1810  0.1871  0.0841
  313MOL0     H42250   5.266   8.167   5.451 -1.3709 -3.9814 -2.7553
  313MOL0     H42251   5.064   8.036   5.437 -2.4989 -1.3096 -3.3910
  313MOL0     H42252   5.074   8.117   5.274 -2.5866 -1.8325 -0.8870
  313MOL0     H42253   4.733   8.307   5.446  2.3373  0.9661  0.8280
  313MOL0     H42254   5.468   8.477   5.628  1.1823 -0.1404  2.4919
  313MOL0     H42255   5.602   8.354   5.805  0.8563  1.1040 -0.6397
  314MOL0     O42256   4.829   9.176   6.283 -0.9056 -0.4774 -0.8323
  314MOL0     C42257   4.781   9.066   6.319  0.6046 -0.1450 -0.0643
  314MOL0     O42258   4.648   9.038   6.340 -0.0709 -0.1215  0.1793
  314MOL0     C42259   4.553   9.118   6.281  0.5759 -0.6521 -0.3346
  314MOL0     C42260   4.578   9.215   6.178 -0.1012  0.3864 -0.5710
  314MOL0     C42261   4.474   9.285   6.120  0.4144 -0.6256 -0.6688
  314MOL0     C42262   4.336   9.266   6.159 -0.6091  0.0419  0.4564
  314MOL0     O42263   4.233   9.332   6.100 -0.2815  0.7556 -0.1094
  314MOL0     C42264   4.110   9.362   6.173  0.1978 -0.5223 -0.2327
  314MOL0     C42265   4.010   9.252   6.134 -0.3675  0.5687  0.0746
  314MOL0     C42266   3.888   9.245   6.224  0.4770  0.1669  0.2102
  314MOL0     C42267   3.786   9.136   6.182  0.3475 -0.6548 -0.2159
  314MOL0     C42268   3.681   9.189   6.081  0.3102  0.6298 -1.0560
  314MOL0     C42269   3.564   9.271   6.155 -0.5382 -0.5974  0.0491
  314MOL0     C42270   3.470   9.348   6.054 -0.2125  0.3868 -0.1168
  314MOL0     C42271   3.403   9.261   5.946  0.8390  0.2735 -0.9148
  314MOL0     N42272   3.281   9.198   5.994  0.1332 -0.8725  0.0153
  314MOL0     C42273   3.263   9.074   6.047 -0.6465 -0.0407 -0.0403
  314MOL0     C42274   3.146   9.077   6.102  0.1095 -0.6026  0.3798
  314MOL0     C42275   3.072   8.967   6.166  0.6323  0.8844 -0.4614
  314MOL0     C42276   3.019   9.008   6.302  0.3754  0.2640  0.3483
  314MOL0     C42277   2.929   8.891   6.346  0.9462 -0.2915 -0.4438
  314MOL0     C42278   2.910   8.891   6.500  0.3920  0.2481  0.2893
  314MOL0     O42279   3.032   8.856   6.563  0.0422  0.5238  0.0031
  314MOL0     C42280   3.045   8.864   6.699  0.9421  0.6282  0.7113
  314MOL0     C42281   2.945   8.825   6.788  0.2568 -0.6165 -0.5392
  314MOL0     C42282   2.968   8.814   6.927  1.0712  0.3435 -0.5723
  314MOL0     C42283   2.859   8.758   7.016 -0.0445 -0.1866 -0.9829
  314MOL0     C42284   3.094   8.855   6.983 -0.3728  0.0899 -0.2508
  314MOL0     C42285   3.124   8.859   7.127 -0.1394  0.6996  0.5937
  314MOL0     O42286   3.033   8.851   7.226 -0.4810  0.2320  0.0085
  314MOL0     C42287   3.073   8.839   7.355  0.1930  0.3877  0.2929
  314MOL0     C42288   3.105   8.721   7.430  0.1151  0.6686  1.9895
  314MOL0     C42289   3.136   8.733   7.564  0.5893  0.0538 -0.3109
  314MOL0     C42290   3.172   8.851   7.627 -0.3443 -0.0750  0.1483
  314MOL0     O42291   3.227   8.851   7.753  0.3970  0.2295 -0.4608
  314MOL0     C42292   3.360   8.829   7.759 -0.0202  0.1544 -0.3195
  314MOL0     C42293   3.406   8.826   7.908 -0.1642 -0.0797 -0.6860
  314MOL0     C42294   3.365   8.705   7.994  1.1063 -0.1152  0.6255
  314MOL0     C42295   3.464   8.672   8.099 -0.2505  0.2276 -0.0832
  314MOL0     C42296   3.440   8.534   8.165 -1.4664 -1.1843 -0.4901
  314MOL0     C42297   3.511   8.545   8.300  1.3685  0.5595 -1.1041
  314MOL0     C42298   3.500   8.413   8.384 -0.5611 -0.7222 -0.1121
  314MOL0     C42299   3.633   8.404   8.477 -0.3590 -0.3909  0.4528
  314MOL0    Cl42300   3.631   8.282   8.612 -0.2740  0.0349 -0.0278
  314MOL0     C42301   3.162   8.967   7.549 -0.4864 -0.8422 -0.4037
  314MOL0     C42302   3.112   8.964   7.421  0.4023  0.4125  0.3975
  314MOL0     O42303   3.245   8.854   7.152 -0.6169  0.9528  0.2004
  314MOL0     C42304   3.190   8.902   6.885  0.5672 -0.3846 -0.2316
  314MOL0     C42305   3.172   8.896   6.753 -0.0309  0.2000  0.0025
  314MOL0     N42306   3.085   9.199   6.079  0.6078  0.3144  0.2513
  314MOL0     N42307   3.173   9.271   6.017  0.4782 -0.5530 -0.4560
  314MOL0     C42308   4.319   9.170   6.257 -0.2628 -0.5611  0.1876
  314MOL0     C42309   4.422   9.100   6.328 -0.4043  0.4226 -0.1915
  314MOL0     C42310   4.876   8.961   6.354  0.2862  0.2279 -0.5648
  314MOL0     C42311   5.014   8.985   6.327  0.2755  0.8186  0.6779
  314MOL0     C42312   5.102   8.880   6.333 -0.7722 -0.5423 -0.2038
  314MOL0     C42313   5.067   8.767   6.390  0.3068  0.5544 -0.1226
  314MOL0     O42314   5.167   8.672   6.411 -0.3401  0.0811 -0.1088
  314MOL0     C42315   5.140   8.541   6.468  1.2770  0.0281 -0.3178
  314MOL0     C42316   5.138   8.531   6.615  0.5151 -0.9036 -0.1160
  314MOL0     C42317   5.103   8.400   6.684 -0.2753  0.1827  0.1843
  314MOL0     C42318   5.228   8.347   6.769 -0.2309  1.0995  0.5640
  314MOL0     C42319   5.332   8.318   6.666 -0.0832 -0.7103  1.1288
  314MOL0     C42320   5.416   8.320   6.582 -0.8289 -0.4765 -0.0418
  314MOL0     C42321   4.940   8.747   6.433 -0.1547  0.8050  0.2211
  314MOL0     C42322   4.838   8.837   6.408  0.8019  0.2369  0.1237
  314MOL0     H42323   4.673   9.236   6.130  2.1459 -4.2221  1.3140
  314MOL0     H42324   4.483   9.358   6.041 -2.5108 -0.1108 -0.6468
  314MOL0     H42325   4.123   9.368   6.282  2.9382 -2.8776 -0.2907
  314MOL0     H42326   4.068   9.456   6.137 -1.5695  0.4150  3.6616
  314MOL0     H42327   3.964   9.267   6.036 -0.7120  1.5974  0.3854
  314MOL0     H42328   4.058   9.154   6.126 -0.3483  0.6593 -1.0972
  314MOL0     H42329   3.922   9.217   6.325  0.7368 -0.7379 -0.1178
  314MOL0     H42330   3.841   9.343   6.223 -0.7575 -0.4043 -1.7276
  314MOL0     H42331   3.847   9.051   6.152  2.4291 -0.3737  2.7625
  314MOL0     H42332   3.733   9.097   6.270 -1.7793 -1.1473 -1.6376
  314MOL0     H42333   3.728   9.255   6.008 -0.6251  2.9324  0.2909
  314MOL0     H42334   3.635   9.098   6.041  4.6460 -3.3968  2.0557
  314MOL0     H42335   3.503   9.196   6.207 -0.3290 -0.7220  0.1175
  314MOL0     H42336   3.592   9.354   6.221 -3.5402  2.3586 -2.0883
  314MOL0     H42337   3.387   9.401   6.101 -0.8240  1.7567 -2.5670
  314MOL0     H42338   3.539   9.423   6.013  0.9766 -0.6060  0.0127
  314MOL0     H42339   3.465   9.184   5.899  0.2388 -0.5644 -0.3629
  314MOL0     H42340   3.377   9.331   5.866 -1.3080  0.3790 -0.2100
  314MOL0     H42341   3.342   9.001   6.032  0.1791  1.4533 -3.9284
  314MOL0     H42342   2.992   8.921   6.107  0.1927  1.6391 -0.4604
  314MOL0     H42343   3.136   8.879   6.178 -0.2000  0.1088 -1.4543
  314MOL0     H42344   2.962   9.102   6.298  0.9046  0.7029  2.1007
  314MOL0     H42345   3.102   9.032   6.369  1.1604  2.4175 -1.2713
  314MOL0     H42346   2.981   8.797   6.323 -1.8048 -1.4757 -2.4316
  314MOL0     H42347   2.833   8.897   6.294  1.7885  1.9753 -1.9017
  314MOL0     H42348   2.830   8.818   6.515  1.0705 -0.7892 -0.8378
  314MOL0     H42349   2.880   8.993   6.525 -2.8343 -0.6510  0.5002
  314MOL0     H42350   2.852   8.781   6.752  0.0567 -0.0642 -0.7093
  314MOL0     H42351   2.769   8.726   6.962 -1.7159  2.2138  0.2370
  314MOL0     H42352   2.896   8.674   7.075  0.8744 -0.4987 -1.9581
  314MOL0     H42353   2.815   8.829   7.086 -0.1916  1.2508 -2.4933
  314MOL0     H42354   3.085   8.627   7.380 -0.4642  0.9371  1.7008
  314MOL0     H42355   3.138   8.645   7.627 -1.8412 -0.4522 -0.8145
  314MOL0     H42356   3.365   8.724   7.730  0.0181 -0.0093  0.2613
  314MOL0     H42357   3.411   8.908   7.704 -0.1604  1.9400  1.9377
  314MOL0     H42358   3.513   8.824   7.889 -0.1552 -0.2421 -0.6212
  314MOL0     H42359   3.387   8.919   7.962  3.1667  0.1734  0.2436
  314MOL0     H42360   3.357   8.618   7.928 -3.1370  1.5870 -1.4735
  314MOL0     H42361   3.268   8.707   8.045 -0.1122  0.7705 -1.5851
  314MOL0     H42362   3.564   8.678   8.056  0.6872  1.9828  2.1533
  314MOL0     H42363   3.446   8.757   8.165  0.2942  0.0936  0.2379
  314MOL0     H42364   3.491   8.463   8.100  1.6562  2.3791 -2.3703
  314MOL0     H42365   3.331   8.527   8.172 -1.6676 -3.3922 -3.7295
  314MOL0     H42366   3.616   8.562   8.275  1.2579  1.3259 -1.0848
  314MOL0     H42367   3.475   8.628   8.361  0.6970  1.2914 -2.4383
  314MOL0     H42368   3.492   8.330   8.313  2.2468  0.8579 -2.5408
  314MOL0     H42369   3.407   8.414   8.441 -1.0019  0.5460 -0.8031
  314MOL0     H42370   3.646   8.503   8.522 -1.0177 -0.4070  0.6796
  314MOL0     H42371   3.724   8.392   8.418 -0.0963 -0.3636  0.8454
  314MOL0     H42372   3.185   9.063   7.594  3.2669 -2.4396  1.5301
  314MOL0     H42373   3.099   9.053   7.359  0.3441 -1.0798 -1.8286
  314MOL0     H42374   3.279   8.959   6.911  0.5051  0.9003 -2.5728
  314MOL0     H42375   3.248   8.926   6.681  0.9204 -1.6239  0.2027
  314MOL0     H42376   4.221   9.138   6.291  0.4521 -1.1900  1.7520
  314MOL0     H42377   4.413   9.019   6.401  2.0137  2.5822  2.7474
  314MOL0     H42378   5.046   9.075   6.275  1.8396  0.2532  0.6188
  314MOL0     H42379   5.205   8.902   6.309 -0.6746 -2.2134 -1.4448
  314MOL0     H42380   5.044   8.499   6.436 -0.0087  1.8744  0.8882
  314MOL0     H42381   5.219   8.475   6.431  1.0329 -0.9074  0.7709
  314MOL0     H42382   5.073   8.604   6.665  1.6029 -1.6596  2.5710
  314MOL0     H42383   5.242   8.559   6.634 -0.1114  3.4452 -1.9612
  314MOL0     H42384   5.081   8.320   6.613  1.3846 -1.1779  1.1318
  314MOL0     H42385   5.018   8.411   6.752 -0.8299 -1.6413 -0.1464
  314MOL0     H42386   5.209   8.256   6.827 -0.5499 -1.3379 -3.0386
  314MOL0     H42387   5.283   8.419   6.830 -2.2964  1.7262  1.8068
  314MOL0     H42388   5.497   8.316   6.512  1.2309  0.4338  2.1415
  314MOL0     H42389   4.924   8.650   6.479  1.5711 -0.5689 -1.8754
  314MOL0     H42390   4.734   8.818   6.429  1.0276 -1.5574 -0.2638
  315MOL0     O42391   2.646   2.080   1.697 -1.2270  0.5065  0.2921
  315MOL0     C42392   2.608   2.053   1.808  0.3377  0.8350  0.0077
  315MOL0     O42393   2.538   1.934   1.839  0.2966 -0.9948  0.2921
  315MOL0     C42394   2.527   1.838   1.742  0.4627  0.2020  0.0002
  315MOL0     C42395   2.555   1.703   1.757 -0.5804 -0.5566 -0.3300
  315MOL0     C42396   2.506   1.610   1.665 -0.8591  0.7611 -1.4207
  315MOL0     C42397   2.437   1.647   1.551  1.0331  0.1213  0.1375
  315MOL0     O42398   2.402   1.543   1.476 -0.0804  0.3254  0.4537
  315MOL0     C42399   2.331   1.589   1.364  0.0763  0.3096  1.3592
  315MOL0     C42400   2.315   1.452   1.290  0.3002 -0.9060  0.2656
  315MOL0     C42401   2.429   1.358   1.298  0.5720 -0.1541 -0.4488
  315MOL0     C42402   2.414   1.265   1.427 -0.7573  0.3616 -0.2044
  315MOL0     C42403   2.561   1.213   1.450 -0.2169 -0.5381 -0.3043
  315MOL0     C42404   2.576   1.095   1.548 -0.7285  0.8072  0.1315
  315MOL0     C42405   2.716   1.025   1.538  0.4853  0.5239  0.0953
  315MOL0     C42406   2.725   0.879   1.591 -0.4676  0.1496  0.4270
  315MOL0     N42407   2.707   0.865   1.735  0.8210 -0.4910  0.4786
  315MOL0     C42408   2.720   0.956   1.832 -0.0084 -0.9937  0.7847
  315MOL0     C42409   2.650   0.904   1.935 -0.0472 -0.2002 -0.0015
  315MOL0     C42410   2.624   0.978   2.057 -0.3163 -0.8878 -1.0291
  315MOL0     C42411   2.707   0.932   2.177  0.0344 -0.0186  0.6160
  315MOL0     C42412   2.693   1.016   2.300 -0.1192 -1.5386 -0.2945
  315MOL0     C42413   2.723   0.942   2.436 -0.0990  0.2024  0.3429
  315MOL0     O42414   2.626   0.836   2.449  0.2747 -0.3764  0.1050
  315MOL0     C42415   2.545   0.840   2.564 -0.1100  0.7886  0.2268
  315MOL0     C42416   2.404   0.875   2.565 -0.5616 -0.4317  0.6458
  315MOL0     C42417   2.329   0.884   2.677 -0.2286  0.3640  0.1787
  315MOL0     C42418   2.188   0.923   2.649 -0.4398 -0.0689 -0.8831
  315MOL0     C42419   2.390   0.832   2.800 -0.6887 -0.5583  0.5121
  315MOL0     C42420   2.324   0.832   2.935  0.2755  0.8992 -0.2962
  315MOL0     O42421   2.232   0.931   2.960 -0.5653  0.1773  0.1935
  315MOL0     C42422   2.178   0.933   3.090  1.0849  0.1179 -0.1557
  315MOL0     C42423   2.047   0.897   3.128  0.1688  0.6773 -0.0304
  315MOL0     C42424   1.993   0.907   3.256  0.3326 -0.2674 -0.0570
  315MOL0     C42425   2.081   0.955   3.355  0.2886 -1.1760 -0.3219
  315MOL0     O42426   2.016   0.956   3.473  0.2730 -0.5212  0.4079
  315MOL0     C42427   2.056   1.062   3.563  0.0277 -0.1793  1.3801
  315MOL0     C42428   1.943   1.093   3.658  0.2177 -0.1734  0.1985
  315MOL0     C42429   1.842   1.197   3.606  0.3001  1.0666 -0.8497
  315MOL0     C42430   1.888   1.344   3.630  0.1384  0.2524  0.2633
  315MOL0     C42431   1.784   1.438   3.596  0.5825  0.6372 -0.5381
  315MOL0     C42432   1.812   1.557   3.673  0.4544  0.0278  0.3959
  315MOL0     C42433   1.700   1.657   3.658  0.3390  0.1492  0.2285
  315MOL0     C42434   1.716   1.770   3.757  0.3805  0.7731  0.4602
  315MOL0    Cl42435   1.575   1.882   3.759 -0.4822 -0.5199 -0.1662
  315MOL0     C42436   2.215   0.985   3.326  0.8967  0.0357 -0.6316
  315MOL0     C42437   2.261   0.976   3.194 -0.1433 -0.3877  0.1079
  315MOL0     O42438   2.356   0.746   3.017  0.3875  0.2155 -0.5627
  315MOL0     C42439   2.523   0.788   2.803 -0.0734 -1.0040  1.0500
  315MOL0     C42440   2.598   0.793   2.684  0.2922 -0.7769 -0.3376
  315MOL0     N42441   2.622   0.772   1.905  0.6351 -0.7096  0.4343
  315MOL0     N42442   2.648   0.748   1.782 -0.8433 -0.2265  0.3594
  315MOL0     C42443   2.401   1.775   1.529 -0.6569  0.4937  0.6198
  315MOL0     C42444   2.453   1.871   1.624 -1.1642  0.2622 -1.4017
  315MOL0     C42445   2.660   2.136   1.919  1.3078  0.1093 -0.1972
  315MOL0     C42446   2.619   2.110   2.049  0.0387 -0.2964 -0.1881
  315MOL0     C42447   2.653   2.198   2.157  0.1605 -0.6128 -0.6180
  315MOL0     C42448   2.721   2.313   2.132  0.7790  0.5496  0.5254
  315MOL0     O42449   2.765   2.405   2.228 -0.2234 -0.1318 -0.0872
  315MOL0     C42450   2.756   2.360   2.359  0.9164 -0.1262  0.7650
  315MOL0     C42451   2.878   2.267   2.375  0.4879  0.3841 -0.7679
  315MOL0     C42452   2.875   2.238   2.526 -0.8886 -0.7560  0.4142
  315MOL0     C42453   3.001   2.172   2.580  0.3522 -0.0851  0.0705
  315MOL0     C42454   2.998   2.022   2.590  0.3195  0.2167  0.7190
  315MOL0     C42455   3.001   1.900   2.598  0.0487  1.0260 -0.5304
  315MOL0     C42456   2.767   2.332   2.002 -1.5586  0.6791  0.1763
  315MOL0     C42457   2.734   2.248   1.894 -0.6881 -0.4240  0.4385
  315MOL0     H42458   2.612   1.684   1.848 -2.0818  2.4820  1.4126
  315MOL0     H42459   2.516   1.503   1.684  2.0037  1.4483  1.8450
  315MOL0     H42460   2.236   1.637   1.388  0.2634  2.4164 -1.5913
  315MOL0     H42461   2.387   1.657   1.299  0.7221 -1.5549 -0.1444
  315MOL0     H42462   2.224   1.402   1.327 -1.1014 -0.2906 -2.1372
  315MOL0     H42463   2.289   1.489   1.190 -0.0941 -0.9239  0.3587
  315MOL0     H42464   2.420   1.288   1.214 -0.6589 -2.4012  1.4517
  315MOL0     H42465   2.525   1.410   1.287 -0.3355  1.8033  0.4303
  315MOL0     H42466   2.382   1.331   1.508  2.2282  1.1622  0.4783
  315MOL0     H42467   2.337   1.188   1.421 -1.9085  1.4369  0.2442
  315MOL0     H42468   2.594   1.175   1.353 -1.7287  1.6128 -1.7800
  315MOL0     H42469   2.623   1.295   1.485 -0.0567 -1.6145  2.0753
  315MOL0     H42470   2.563   1.138   1.648  0.0447 -2.6755  1.8933
  315MOL0     H42471   2.492   1.026   1.532  0.8454 -0.6209 -2.6443
  315MOL0     H42472   2.748   1.016   1.434 -0.4762 -2.1612 -0.0480
  315MOL0     H42473   2.799   1.080   1.583  0.8828 -1.7527  2.3584
  315MOL0     H42474   2.826   0.848   1.562 -0.7509 -0.4655  0.0869
  315MOL0     H42475   2.661   0.806   1.540 -1.0501 -1.3195  3.0813
  315MOL0     H42476   2.773   1.050   1.835  1.4655 -1.7901  0.5615
  315MOL0     H42477   2.644   1.085   2.047  0.4431 -0.8250  0.8961
  315MOL0     H42478   2.519   0.964   2.084  0.2174 -1.2240  1.0609
  315MOL0     H42479   2.811   0.951   2.147 -0.6656  1.2452 -1.1696
  315MOL0     H42480   2.682   0.828   2.197 -2.0361 -0.0824 -1.8246
  315MOL0     H42481   2.594   1.057   2.321  1.4617  1.7457  1.5105
  315MOL0     H42482   2.763   1.099   2.286  0.5351 -2.3524 -2.2906
  315MOL0     H42483   2.741   1.006   2.522  4.2409  2.2329 -1.7707
  315MOL0     H42484   2.826   0.906   2.435  0.2693  1.1205 -1.9345
  315MOL0     H42485   2.354   0.901   2.472 -1.7430 -2.0632  0.7758
  315MOL0     H42486   2.145   0.879   2.559 -0.4098  2.0383 -1.9952
  315MOL0     H42487   2.128   0.897   2.736  1.4029 -0.8527  0.2201
  315MOL0     H42488   2.180   1.032   2.636 -4.0173 -0.1219 -0.1443
  315MOL0     H42489   1.993   0.864   3.040  0.6332  0.1030 -0.1064
  315MOL0     H42490   1.892   0.880   3.285  0.0014  0.9296 -0.0165
  315MOL0     H42491   2.141   1.034   3.625  2.0345  0.4071 -0.9315
  315MOL0     H42492   2.076   1.145   3.494 -0.9534 -2.3451 -1.7502
  315MOL0     H42493   1.880   1.007   3.679 -1.4951  1.1480  0.6845
  315MOL0     H42494   1.987   1.136   3.748 -3.0487  1.8379  0.9843
  315MOL0     H42495   1.744   1.182   3.652  0.5756  0.4691 -0.4450
  315MOL0     H42496   1.825   1.178   3.500 -0.3164 -0.7373 -0.4520
  315MOL0     H42497   1.920   1.352   3.734 -0.2260  0.1056  0.3916
  315MOL0     H42498   1.970   1.367   3.562 -2.3470  2.6994 -2.2087
  315MOL0     H42499   1.695   1.390   3.638  1.4859  0.7374  1.6203
  315MOL0     H42500   1.783   1.452   3.488  0.2258 -1.3338 -0.8288
  315MOL0     H42501   1.815   1.527   3.778 -0.5543 -0.5171  0.2792
  315MOL0     H42502   1.898   1.609   3.630  1.6495 -2.3264 -0.2100
  315MOL0     H42503   1.606   1.606   3.683  0.3218  1.4582  3.2093
  315MOL0     H42504   1.706   1.689   3.553  2.3839 -2.9101 -0.7110
  315MOL0     H42505   1.798   1.830   3.716  0.8356 -0.9302 -1.2583
  315MOL0     H42506   1.738   1.737   3.858 -1.2898  0.4596  0.7467
  315MOL0     H42507   2.274   1.017   3.411 -0.0847  0.1423  0.0305
  315MOL0     H42508   2.368   0.983   3.177  0.0767 -1.6549  0.8725
  315MOL0     H42509   2.566   0.744   2.894  0.5970 -0.6442  0.9150
  315MOL0     H42510   2.700   0.759   2.677  0.8569  0.6735  0.3776
  315MOL0     H42511   2.343   1.808   1.444  0.0564  1.7980  0.6149
  315MOL0     H42512   2.431   1.976   1.607  1.2760  0.9658 -0.6370
  315MOL0     H42513   2.565   2.021   2.077 -2.5951  0.4019 -2.6534
  315MOL0     H42514   2.623   2.174   2.259  0.8377  0.9457 -0.0227
  315MOL0     H42515   2.759   2.457   2.410 -0.0586  1.4009 -1.9121
  315MOL0     H42516   2.661   2.316   2.390  0.4489 -1.3654 -2.1212
  315MOL0     H42517   2.970   2.312   2.335 -0.1341  1.6187 -0.8736
  315MOL0     H42518   2.877   2.178   2.311 -0.4569 -0.9871  1.0597
  315MOL0     H42519   2.782   2.184   2.548 -1.1192  0.2097  1.9735
  315MOL0     H42520   2.852   2.330   2.581  4.4268  0.1055  1.7644
  315MOL0     H42521   3.010   2.201   2.685  0.9879 -0.0715  0.0179
  315MOL0     H42522   3.093   2.201   2.529 -0.1639 -0.9328 -1.3912
  315MOL0     H42523   3.008   1.794   2.602 -0.6015  1.0087  0.6026
  315MOL0     H42524   2.823   2.422   1.979  0.1984 -1.1551 -3.6358
  315MOL0     H42525   2.762   2.271   1.792 -1.0209 -0.2179  0.3912
  316MOL0     O42526   6.058   9.401   1.813 -0.0993  0.6079 -0.6889
  316MOL0     C42527   6.041   9.486   1.900 -1.7476 -0.0832 -0.4034
  316MOL0     O42528   5.954   9.589   1.884 -0.4002 -0.5551 -0.3784
  316MOL0     C42529   5.870   9.585   1.776 -0.2289  0.5132 -1.0609
  316MOL0     C42530   5.732   9.585   1.796  0.0920 -0.1905  0.6728
  316MOL0     C42531   5.642   9.576   1.689 -0.6295 -0.5302  0.3557
  316MOL0     C42532   5.692   9.574   1.557 -0.3610 -0.3099 -0.6367
  316MOL0     O42533   5.617   9.560   1.440 -0.2720  0.4749 -0.0251
  316MOL0     C42534   5.511   9.462   1.454 -0.2801 -0.0958 -0.3276
  316MOL0     C42535   5.440   9.418   1.324 -0.9792  0.0927 -0.4384
  316MOL0     C42536   5.353   9.541   1.278  0.2574  0.0892 -0.3947
  316MOL0     C42537   5.354   9.561   1.122 -0.2701  0.8611  0.3550
  316MOL0     C42538   5.293   9.442   1.060  0.6800 -0.0902 -0.6930
  316MOL0     C42539   5.144   9.437   1.052  0.3031  0.0314  0.0569
  316MOL0     C42540   5.101   9.306   0.989 -0.9889  0.6729 -0.6251
  316MOL0     C42541   5.121   9.176   1.068  0.3867  0.5096  0.1322
  316MOL0     N42542   5.064   9.183   1.209  0.5828 -0.2830  0.7705
  316MOL0     C42543   4.932   9.190   1.239  0.3442  0.9259  0.0823
  316MOL0     C42544   4.934   9.193   1.378  0.4463  0.7397  0.3229
  316MOL0     C42545   4.809   9.189   1.462 -0.4474  0.2665 -0.5267
  316MOL0     C42546   4.781   9.070   1.555 -0.1003 -0.1406 -0.4856
  316MOL0     C42547   4.807   8.939   1.482  0.8998 -1.0074 -0.2262
  316MOL0     C42548   4.758   8.823   1.570  0.0348  0.0629  0.8830
  316MOL0     O42549   4.732   8.699   1.499 -0.6320  0.5553 -0.1857
  316MOL0     C42550   4.843   8.626   1.450 -0.1803 -0.2376  0.0785
  316MOL0     C42551   4.819   8.510   1.371  0.4780  0.1517 -0.2750
  316MOL0     C42552   4.929   8.435   1.319  0.7529  0.4791 -0.2618
  316MOL0     C42553   4.901   8.331   1.210  0.6758  1.2046  0.6493
  316MOL0     C42554   5.065   8.478   1.355  1.2700  0.2194  1.0823
  316MOL0     C42555   5.189   8.414   1.303 -0.3002 -0.4073 -0.2587
  316MOL0     O42556   5.300   8.481   1.308 -0.5575  0.0686 -0.6310
  316MOL0     C42557   5.422   8.421   1.293 -0.5882  0.1157 -0.1499
  316MOL0     C42558   5.515   8.406   1.404  1.5001 -0.0730  0.2413
  316MOL0     C42559   5.636   8.325   1.381  0.0928  0.6309  0.3971
  316MOL0     C42560   5.660   8.268   1.253 -0.3882 -0.2257 -0.0250
  316MOL0     O42561   5.759   8.182   1.221  0.3712  0.7249  0.6603
  316MOL0     C42562   5.871   8.189   1.316  0.4436  0.0871  0.4881
  316MOL0     C42563   5.987   8.137   1.237 -0.4062 -0.9716  1.1709
  316MOL0     C42564   6.116   8.135   1.322  0.1471 -0.0444  0.2468
  316MOL0     C42565   6.249   8.136   1.246  0.8221  0.0593 -0.6403
  316MOL0     C42566   6.359   8.138   1.349 -0.1444 -0.4092 -0.5437
  316MOL0     C42567   6.501   8.095   1.291  0.9769  0.5120  0.3280
  316MOL0     C42568   6.560   8.223   1.225  0.7919  0.5119 -0.7594
  316MOL0     C42569   6.701   8.185   1.183 -0.2622  0.1409  0.2668
  316MOL0    Cl42570   6.766   8.326   1.090 -0.1223  0.0898  0.0100
  316MOL0     C42571   5.563   8.291   1.146 -0.8777 -0.4957  0.1211
  316MOL0     C42572   5.453   8.365   1.165  0.6094 -0.5091  0.1265
  316MOL0     O42573   5.178   8.302   1.269  0.0571  0.3983  0.8080
  316MOL0     C42574   5.080   8.583   1.441  0.0517 -0.7704  0.8744
  316MOL0     C42575   4.972   8.660   1.477  0.0611  0.2817  0.1290
  316MOL0     N42576   5.069   9.182   1.423 -0.2159  0.0440  0.1297
  316MOL0     N42577   5.147   9.179   1.316 -0.0543 -0.1450 -0.2593
  316MOL0     C42578   5.826   9.585   1.542 -0.5724  0.5507 -1.0015
  316MOL0     C42579   5.916   9.594   1.649  0.4843  0.9726  0.1195
  316MOL0     C42580   6.130   9.466   2.019  0.2795 -0.6309 -0.5619
  316MOL0     C42581   6.168   9.584   2.091 -0.0412 -0.7668  0.0785
  316MOL0     C42582   6.257   9.578   2.197  0.2718 -0.2779  0.4469
  316MOL0     C42583   6.321   9.456   2.224 -0.8178 -0.0799 -0.1616
  316MOL0     O42584   6.411   9.441   2.332 -0.0322 -0.1395  0.8234
  316MOL0     C42585   6.547   9.409   2.307  0.1184 -0.1314  0.0051
  316MOL0     C42586   6.651   9.447   2.419  0.3984 -0.3746  0.2003
  316MOL0     C42587   6.664   9.599   2.456 -0.2558  0.2813  0.4039
  316MOL0     C42588   6.735   9.622   2.591  0.7299  0.1946  0.1166
  316MOL0     C42589   6.844   9.533   2.611  0.4105 -0.2510 -0.1752
  316MOL0     C42590   6.949   9.475   2.611  0.0436  0.4193  0.0742
  316MOL0     C42591   6.298   9.342   2.143  0.4586 -0.4833  0.3114
  316MOL0     C42592   6.196   9.344   2.040  0.0038 -0.2588 -0.0602
  316MOL0     H42593   5.677   9.583   1.890 -0.3254  3.3785  0.6453
  316MOL0     H42594   5.536   9.567   1.707 -1.0863  1.1992 -1.1727
  316MOL0     H42595   5.549   9.369   1.499  1.9023  0.5046 -0.8140
  316MOL0     H42596   5.442   9.495   1.532 -0.2952 -1.5896  0.3279
  316MOL0     H42597   5.527   9.405   1.260  0.6317 -2.3150  2.0272
  316MOL0     H42598   5.385   9.323   1.331  2.6237 -2.1108  0.4029
  316MOL0     H42599   5.251   9.530   1.317  0.8034  0.6938  1.3069
  316MOL0     H42600   5.383   9.638   1.319 -3.8595  0.9742  1.0134
  316MOL0     H42601   5.305   9.649   1.081 -3.1278 -0.4816  0.6298
  316MOL0     H42602   5.459   9.567   1.092 -0.0094  0.7910  1.2061
  316MOL0     H42603   5.333   9.447   0.959 -2.5623  0.8411 -2.0341
  316MOL0     H42604   5.340   9.351   1.100  0.6162 -0.9650 -2.5361
  316MOL0     H42605   5.092   9.447   1.148 -3.6195 -0.4592 -1.8006
  316MOL0     H42606   5.102   9.519   0.993  0.6529 -0.6070 -1.1211
  316MOL0     H42607   4.993   9.311   0.972 -0.7005 -0.3648 -3.2176
  316MOL0     H42608   5.139   9.300   0.887 -2.8659  0.2612 -1.3506
  316MOL0     H42609   5.226   9.152   1.089  1.8216  1.7931 -4.3837
  316MOL0     H42610   5.079   9.092   1.011  0.0790  0.2689  0.7045
  316MOL0     H42611   4.842   9.206   1.181 -1.3700 -2.1570  1.6115
  316MOL0     H42612   4.817   9.277   1.526 -0.8450 -2.0314  2.9273
  316MOL0     H42613   4.715   9.205   1.409 -0.1709  2.2013 -0.5077
  316MOL0     H42614   4.678   9.090   1.583  1.3129  3.0011  3.5897
  316MOL0     H42615   4.847   9.087   1.641  0.3529 -0.9397 -0.6621
  316MOL0     H42616   4.908   8.925   1.443  0.3933 -1.2775 -1.4985
  316MOL0     H42617   4.745   8.931   1.392 -0.0662 -0.6868  0.3929
  316MOL0     H42618   4.662   8.852   1.614 -0.7747  2.4065 -2.0125
  316MOL0     H42619   4.836   8.816   1.646  1.4486  5.0067  0.2350
  316MOL0     H42620   4.722   8.488   1.327  0.1311 -0.9414  0.9393
  316MOL0     H42621   4.806   8.346   1.158 -0.1486  0.8524  1.9846
  316MOL0     H42622   4.982   8.337   1.138 -1.2120  2.3458 -1.5136
  316MOL0     H42623   4.875   8.228   1.239  0.5883  0.3731 -2.1107
  316MOL0     H42624   5.492   8.440   1.505  3.1585 -0.3100  0.7329
  316MOL0     H42625   5.700   8.295   1.464 -0.5908  0.1968  0.7802
  316MOL0     H42626   5.897   8.290   1.349 -2.2346  3.6121 -6.2371
  316MOL0     H42627   5.872   8.121   1.402 -0.6912 -0.2153  0.2830
  316MOL0     H42628   5.973   8.029   1.228 -0.7376 -0.8524 -0.0292
  316MOL0     H42629   5.998   8.185   1.139 -0.4721 -0.2214  1.5192
  316MOL0     H42630   6.124   8.038   1.373 -0.3078 -0.1488  0.1268
  316MOL0     H42631   6.110   8.200   1.410  0.9233 -1.5258  1.4328
  316MOL0     H42632   6.266   8.040   1.196 -0.9018  0.2500 -1.6453
  316MOL0     H42633   6.254   8.208   1.164 -0.0873 -0.5154 -1.2200
  316MOL0     H42634   6.339   8.065   1.428  1.7889  1.2558  1.6207
  316MOL0     H42635   6.358   8.238   1.392 -1.4789 -0.5814 -0.1384
  316MOL0     H42636   6.569   8.049   1.363  2.7705 -2.3934 -2.9141
  316MOL0     H42637   6.485   8.019   1.214 -3.1929  0.7773  0.6801
  316MOL0     H42638   6.571   8.313   1.287 -0.1570  1.6103 -2.1175
  316MOL0     H42639   6.507   8.257   1.136 -0.3078 -0.7051 -0.6068
  316MOL0     H42640   6.693   8.104   1.110 -2.3360  0.6394 -0.1394
  316MOL0     H42641   6.764   8.151   1.265 -0.2821  1.2738  0.7588
  316MOL0     H42642   5.596   8.262   1.047  3.6379 -0.3842  1.3388
  316MOL0     H42643   5.371   8.386   1.097 -0.6709  1.1700  2.0371
  316MOL0     H42644   5.178   8.622   1.467  0.0971  1.7996 -2.4661
  316MOL0     H42645   4.990   8.754   1.529 -1.2781 -0.3617  1.8427
  316MOL0     H42646   5.855   9.580   1.437  2.9895 -2.7913 -0.1051
  316MOL0     H42647   6.019   9.603   1.615  0.7624 -0.3160  0.5534
  316MOL0     H42648   6.115   9.676   2.072 -2.0191 -1.7224  0.7046
  316MOL0     H42649   6.275   9.674   2.244 -2.8368  1.2216 -1.1359
  316MOL0     H42650   6.567   9.305   2.282  0.3537 -0.1477  0.2677
  316MOL0     H42651   6.574   9.484   2.231 -0.2248  0.6517  0.6404
  316MOL0     H42652   6.744   9.402   2.383 -1.8894 -1.2174 -5.6680
  316MOL0     H42653   6.616   9.391   2.506 -2.5907 -2.3492 -2.0919
  316MOL0     H42654   6.565   9.642   2.469  1.1330  4.5944 -1.5178
  316MOL0     H42655   6.719   9.661   2.384  0.8951  0.3361  1.3027
  316MOL0     H42656   6.667   9.595   2.673 -0.0285 -4.7116 -1.7865
  316MOL0     H42657   6.776   9.723   2.601  1.2688 -0.2548  3.9361
  316MOL0     H42658   7.042   9.422   2.624  1.8381  3.3677  0.1902
  316MOL0     H42659   6.367   9.258   2.148  1.3057  0.0254 -1.7130
  316MOL0     H42660   6.174   9.256   1.982 -0.4691 -1.0531  1.2823
  317MOL0     O42661   9.071   0.631   7.827  0.4490 -0.1741 -0.4185
  317MOL0     C42662   9.062   0.758   7.814  0.2721  0.6698 -0.1629
  317MOL0     O42663   8.956   0.829   7.849  0.7622 -0.2774  0.4384
  317MOL0     C42664   8.837   0.777   7.896  0.5503 -0.6854  0.9746
  317MOL0     C42665   8.720   0.838   7.853 -0.1884  0.2614 -1.0574
  317MOL0     C42666   8.602   0.777   7.893  0.2786  0.5646  0.1666
  317MOL0     C42667   8.602   0.687   8.001 -0.9140  0.3381 -0.5229
  317MOL0     O42668   8.475   0.653   8.049  1.0147 -0.2339 -0.6221
  317MOL0     C42669   8.461   0.641   8.199  0.1778 -0.0800  0.0946
  317MOL0     C42670   8.419   0.773   8.266 -0.2683  0.6386  1.1222
  317MOL0     C42671   8.283   0.825   8.215  0.3946 -0.3571  0.0906
  317MOL0     C42672   8.271   0.982   8.223  0.0700  0.3570  0.3879
  317MOL0     C42673   8.133   1.030   8.216 -0.3109 -0.4966  0.2537
  317MOL0     C42674   8.128   1.185   8.223  0.4225 -0.5173  0.1231
  317MOL0     C42675   7.996   1.251   8.182  0.3274  0.0702  0.1189
  317MOL0     C42676   7.889   1.249   8.298  0.2553 -0.0017 -0.1393
  317MOL0     N42677   7.908   1.359   8.394 -0.4790 -0.3276 -0.2977
  317MOL0     C42678   7.882   1.491   8.382 -0.0556 -0.5820  0.0888
  317MOL0     C42679   7.903   1.532   8.505 -0.3096  0.0688  0.2681
  317MOL0     C42680   7.878   1.674   8.543 -0.7667 -0.3118 -0.5539
  317MOL0     C42681   7.943   1.769   8.449  0.3049 -0.2220 -0.2914
  317MOL0     C42682   7.938   1.907   8.504 -0.1097 -0.0227 -0.0884
  317MOL0     C42683   7.928   2.013   8.394 -0.4830 -0.4933  0.2816
  317MOL0     O42684   7.799   1.982   8.336 -0.4383  0.0167 -0.6397
  317MOL0     C42685   7.692   2.039   8.385  0.5163 -0.4095 -0.0751
  317MOL0     C42686   7.668   2.108   8.506  0.0444  0.0946 -0.0003
  317MOL0     C42687   7.541   2.166   8.528 -0.2840 -1.1157 -0.8132
  317MOL0     C42688   7.530   2.247   8.662 -0.5286 -0.0126  0.8728
  317MOL0     C42689   7.441   2.148   8.439 -0.6087 -0.0213  0.6501
  317MOL0     C42690   7.308   2.215   8.449  0.9961 -0.0633  0.1892
  317MOL0     O42691   7.199   2.152   8.395  0.0705  0.5355  0.7836
  317MOL0     C42692   7.074   2.193   8.408  0.4113  0.1109  0.1249
  317MOL0     C42693   6.989   2.105   8.354 -0.9632  1.3407 -0.3556
  317MOL0     C42694   6.856   2.116   8.346  0.6845 -0.1828  0.2624
  317MOL0     C42695   6.790   2.227   8.399  0.3983  0.1336 -0.7674
  317MOL0     O42696   6.649   2.219   8.396 -0.0118 -0.1497  1.0156
  317MOL0     C42697   6.571   2.324   8.450  0.6055  0.0420 -0.3172
  317MOL0     C42698   6.434   2.265   8.462  0.4630 -0.3060 -0.1483
  317MOL0     C42699   6.433   2.150   8.561 -0.7576 -0.0879  0.1742
  317MOL0     C42700   6.295   2.068   8.551 -0.1838  0.1242 -0.2194
  317MOL0     C42701   6.311   1.940   8.648  1.0775 -0.4167  0.5019
  317MOL0     C42702   6.243   1.971   8.786  0.5893 -0.9392 -0.3000
  317MOL0     C42703   6.290   1.869   8.887  0.3120  0.7108 -0.2679
  317MOL0     C42704   6.234   1.877   9.032  0.4169 -0.7052  0.3289
  317MOL0    Cl42705   6.298   1.737   9.130 -0.4875  0.5486 -0.1426
  317MOL0     C42706   6.873   2.334   8.449 -0.2667  0.4186  0.6269
  317MOL0     C42707   7.022   2.316   8.455  0.2200  0.1438  0.3362
  317MOL0     O42708   7.305   2.329   8.487 -0.3534 -0.0416 -0.0122
  317MOL0     C42709   7.456   2.060   8.325  0.8651  0.9631 -0.8228
  317MOL0     C42710   7.577   2.003   8.308 -1.7284 -0.1674 -0.5681
  317MOL0     N42711   7.943   1.427   8.587 -0.4202  0.2512  0.7664
  317MOL0     N42712   7.943   1.326   8.518  0.0362 -0.3063 -1.1421
  317MOL0     C42713   8.725   0.649   8.061  0.6212  0.4580  0.9393
  317MOL0     C42714   8.845   0.688   8.001 -1.1829 -0.0158  0.5996
  317MOL0     C42715   9.177   0.827   7.751 -0.9856 -0.5862 -0.7274
  317MOL0     C42716   9.160   0.952   7.686 -0.0850  0.1546 -0.0993
  317MOL0     C42717   9.271   1.021   7.626  0.3385 -0.1486 -0.2566
  317MOL0     C42718   9.399   0.969   7.617 -0.0065  0.7627  0.4777
  317MOL0     O42719   9.491   1.037   7.548 -0.2044 -0.1761 -0.4587
  317MOL0     C42720   9.571   0.971   7.451 -1.2274 -0.0431  0.2922
  317MOL0     C42721   9.685   1.044   7.373  0.8033 -0.5077 -0.0044
  317MOL0     C42722   9.607   1.134   7.277 -0.3931  0.2008  0.1647
  317MOL0     C42723   9.684   1.256   7.212  0.4272  0.3116 -0.0871
  317MOL0     C42724   9.800   1.202   7.143 -0.8220 -0.0743  0.9621
  317MOL0     C42725   9.899   1.157   7.093 -0.7248  0.2883  0.2088
  317MOL0     C42726   9.411   0.833   7.663 -0.6223 -0.2642  0.0230
  317MOL0     C42727   9.305   0.769   7.733  0.3266 -0.1574  0.4313
  317MOL0     H42728   8.735   0.919   7.782 -0.5873  0.6440 -0.7102
  317MOL0     H42729   8.505   0.816   7.865 -0.3176  0.6800  2.2200
  317MOL0     H42730   8.384   0.565   8.210  0.7436 -0.7013 -0.1996
  317MOL0     H42731   8.555   0.605   8.242  0.3576  0.1753 -0.0740
  317MOL0     H42732   8.418   0.743   8.371 -0.0863 -1.9230  0.4826
  317MOL0     H42733   8.491   0.853   8.248  0.3082 -0.4762 -2.2657
  317MOL0     H42734   8.260   0.787   8.115 -0.9271 -0.2120  0.3209
  317MOL0     H42735   8.207   0.783   8.282  0.9757  1.6515  2.1438
  317MOL0     H42736   8.310   1.019   8.319 -1.7093 -0.3102  1.4286
  317MOL0     H42737   8.323   1.027   8.138  1.8437 -2.4021 -0.1260
  317MOL0     H42738   8.103   1.006   8.113 -0.1147 -0.8067  0.2652
  317MOL0     H42739   8.071   0.982   8.292 -2.2613  0.8216 -0.4358
  317MOL0     H42740   8.155   1.224   8.321  1.7801  2.0806 -1.1829
  317MOL0     H42741   8.197   1.226   8.149 -0.7392  1.2280 -0.0444
  317MOL0     H42742   8.005   1.357   8.157  0.9180  0.9620  3.5391
  317MOL0     H42743   7.960   1.184   8.103  1.9883 -1.0531  0.2515
  317MOL0     H42744   7.890   1.155   8.354 -1.2808 -1.5087 -2.4436
  317MOL0     H42745   7.789   1.240   8.255 -0.0502  2.4505 -0.0758
  317MOL0     H42746   7.827   1.551   8.310 -0.3897  1.1423  1.6805
  317MOL0     H42747   7.772   1.692   8.565 -1.3529  0.5375 -3.5178
  317MOL0     H42748   7.938   1.687   8.633 -1.8535  1.6443 -0.0467
  317MOL0     H42749   7.889   1.758   8.355 -2.6850 -1.5317  1.4554
  317MOL0     H42750   8.047   1.735   8.440  0.9109  1.8338 -1.9951
  317MOL0     H42751   8.039   1.909   8.547 -0.3882 -1.8667  0.7360
  317MOL0     H42752   7.859   1.908   8.580 -4.7231 -4.1247 -4.1534
  317MOL0     H42753   8.010   2.005   8.322  0.0710  2.4741  0.4738
  317MOL0     H42754   7.924   2.117   8.426 -3.0479 -0.8584  1.4113
  317MOL0     H42755   7.753   2.132   8.569  0.0248  0.8954 -0.2667
  317MOL0     H42756   7.553   2.352   8.641  2.7681 -0.7587  0.1599
  317MOL0     H42757   7.431   2.243   8.707 -1.3451 -0.3564 -0.8746
  317MOL0     H42758   7.585   2.215   8.751  2.0950  2.9464  0.4698
  317MOL0     H42759   7.033   2.021   8.301  1.8863  1.2513  1.9675
  317MOL0     H42760   6.785   2.041   8.313  0.0230 -1.0110  3.3170
  317MOL0     H42761   6.609   2.348   8.550 -1.0369  0.0792  0.3421
  317MOL0     H42762   6.584   2.412   8.386  1.2403  0.7692  0.7689
  317MOL0     H42763   6.362   2.341   8.495 -0.2430 -0.9325 -0.2053
  317MOL0     H42764   6.401   2.222   8.367  1.7711 -1.8788  0.0718
  317MOL0     H42765   6.444   2.201   8.657  0.9394  1.0440 -0.5812
  317MOL0     H42766   6.510   2.074   8.544 -0.8090  0.2084 -1.4700
  317MOL0     H42767   6.203   2.122   8.573 -0.7366 -0.8218 -0.1801
  317MOL0     H42768   6.283   2.038   8.447 -2.0646 -1.8578  0.4893
  317MOL0     H42769   6.416   1.914   8.656  0.9344 -1.1142  0.1663
  317MOL0     H42770   6.258   1.851   8.613 -2.6011  1.6114  0.3710
  317MOL0     H42771   6.276   2.072   8.813  4.0413 -1.4973 -1.9127
  317MOL0     H42772   6.134   1.964   8.772  0.6032  0.5779 -1.3821
  317MOL0     H42773   6.398   1.886   8.890  0.3926  0.2270 -0.2496
  317MOL0     H42774   6.279   1.768   8.845  2.1934  0.5447 -0.4437
  317MOL0     H42775   6.128   1.903   9.039  0.4749  0.0252 -1.0992
  317MOL0     H42776   6.282   1.963   9.081  0.5242 -0.2845 -0.4964
  317MOL0     H42777   6.834   2.417   8.506  0.9412  2.4246 -1.3293
  317MOL0     H42778   7.075   2.392   8.511  0.2340  0.4081 -0.0308
  317MOL0     H42779   7.381   2.042   8.249  2.2884  0.5843 -2.1882
  317MOL0     H42780   7.598   1.935   8.227 -0.9940 -3.0895  1.9078
  317MOL0     H42781   8.727   0.573   8.138 -0.8692 -0.4672  0.1129
  317MOL0     H42782   8.937   0.650   8.045 -0.3006  1.0210 -0.2761
  317MOL0     H42783   9.060   0.993   7.672 -0.2494 -0.2926 -0.2643
  317MOL0     H42784   9.256   1.125   7.599  0.7900  0.5634  2.0298
  317MOL0     H42785   9.629   0.898   7.508 -2.5728  0.2327  2.0929
  317MOL0     H42786   9.504   0.930   7.375 -3.1339  1.3515  1.1364
  317MOL0     H42787   9.743   0.966   7.323  0.8477  0.7786 -2.0543
  317MOL0     H42788   9.746   1.101   7.444  1.0149 -1.2852  0.4465
  317MOL0     H42789   9.517   1.169   7.327 -1.4449 -0.8783 -0.9228
  317MOL0     H42790   9.573   1.076   7.190 -1.5122  0.2328  0.5766
  317MOL0     H42791   9.718   1.322   7.291  3.5986 -2.0304  0.7176
  317MOL0     H42792   9.622   1.302   7.135  0.4800 -1.3259 -1.1704
  317MOL0     H42793   9.982   1.113   7.040 -1.3218  0.1604 -0.6412
  317MOL0     H42794   9.506   0.780   7.667  0.3690  1.3376 -1.1120
  317MOL0     H42795   9.338   0.674   7.774 -0.3497 -0.7911 -0.4532
  318MOL0     O42796   2.886   7.733  10.275  1.0439  0.1784  0.5723
  318MOL0     C42797   2.934   7.703  10.380 -0.4293 -0.2666 -1.0756
  318MOL0     O42798   3.050   7.628  10.396 -0.5896  0.2176 -0.6731
  318MOL0     C42799   3.095   7.539  10.295 -0.2159 -0.4649 -0.0860
  318MOL0     C42800   3.031   7.495  10.171  0.4018 -0.0415 -0.2080
  318MOL0     C42801   3.109   7.406  10.090  0.6207  0.2219  0.4967
  318MOL0     C42802   3.240   7.357  10.115  0.7959 -0.4687 -0.4239
  318MOL0     O42803   3.322   7.290  10.025  0.2043  0.0803  0.0694
  318MOL0     C42804   3.417   7.391   9.982  0.2195 -0.5717 -0.0293
  318MOL0     C42805   3.485   7.339   9.862 -0.3883 -0.1891 -0.3967
  318MOL0     C42806   3.603   7.252   9.902 -0.6168 -0.4794  0.9562
  318MOL0     C42807   3.652   7.187   9.769  1.0486  0.1449  0.5143
  318MOL0     C42808   3.779   7.116   9.797  0.0043 -0.6497  0.5523
  318MOL0     C42809   3.893   7.216   9.828 -1.2066  0.2727 -0.8514
  318MOL0     C42810   4.028   7.140   9.840  0.0337  0.5925 -0.6132
  318MOL0     C42811   4.128   7.247   9.864 -0.4503 -0.0436  0.5061
  318MOL0     N42812   4.154   7.344   9.767  0.5237 -0.0472 -0.4351
  318MOL0     C42813   4.200   7.327   9.642  0.1259 -0.2951 -0.1848
  318MOL0     C42814   4.204   7.447   9.586 -0.1322 -0.3280  0.9141
  318MOL0     C42815   4.255   7.481   9.451 -0.0827  0.4876  0.3268
  318MOL0     C42816   4.383   7.555   9.480  0.4464  0.8437 -0.1486
  318MOL0     C42817   4.465   7.590   9.356 -0.4667 -0.0497  0.4756
  318MOL0     C42818   4.539   7.459   9.309  1.0110 -0.2131  0.5236
  318MOL0     O42819   4.633   7.484   9.216 -0.4941  0.1173  0.2359
  318MOL0     C42820   4.594   7.493   9.085 -0.7573  0.5773  0.3572
  318MOL0     C42821   4.696   7.500   8.988 -0.3022 -0.3847  0.6976
  318MOL0     C42822   4.667   7.508   8.845 -0.4082 -0.4547 -0.0945
  318MOL0     C42823   4.771   7.513   8.727  1.0571 -1.0488  0.6429
  318MOL0     C42824   4.520   7.498   8.808 -0.0599 -0.3225 -0.1860
  318MOL0     C42825   4.469   7.524   8.672  1.0271  0.8318  0.0122
  318MOL0     O42826   4.336   7.488   8.656 -0.2674  0.2603 -0.2373
  318MOL0     C42827   4.279   7.488   8.534  1.0684 -0.6661 -0.5612
  318MOL0     C42828   4.244   7.360   8.485 -0.2938 -0.0664 -0.1254
  318MOL0     C42829   4.160   7.347   8.370  0.7228 -0.0566  0.1908
  318MOL0     C42830   4.111   7.470   8.309 -0.2205 -1.0972  0.0054
  318MOL0     O42831   4.026   7.456   8.197 -0.5502  1.0377 -0.2056
  318MOL0     C42832   3.991   7.565   8.110  0.2002 -1.5013  0.4031
  318MOL0     C42833   3.891   7.524   8.009 -0.1771 -0.1201  0.8142
  318MOL0     C42834   3.837   7.644   7.919 -0.0509 -0.3250 -0.1525
  318MOL0     C42835   3.754   7.593   7.802 -0.9702  1.1789  0.2082
  318MOL0     C42836   3.702   7.701   7.708  0.0550 -0.2759  0.5132
  318MOL0     C42837   3.577   7.665   7.619 -0.1259  0.3604 -0.0746
  318MOL0     C42838   3.474   7.573   7.695  0.3869  0.3827 -0.1210
  318MOL0     C42839   3.342   7.558   7.623 -0.1255  0.2809 -0.1048
  318MOL0    Cl42840   3.352   7.450   7.483  0.2921  0.0685 -0.0094
  318MOL0     C42841   4.146   7.598   8.364  0.4096  0.0130 -1.7522
  318MOL0     C42842   4.228   7.601   8.483  0.5266 -0.4322 -0.2601
  318MOL0     O42843   4.537   7.572   8.580 -0.3584 -0.2690 -0.1251
  318MOL0     C42844   4.428   7.504   8.911 -0.7293 -0.6488  0.3463
  318MOL0     C42845   4.462   7.488   9.047  0.5627 -0.6265 -0.0964
  318MOL0     N42846   4.167   7.543   9.678  0.3174 -0.2480  0.4533
  318MOL0     N42847   4.133   7.481   9.789 -0.2357 -0.3223  0.9174
  318MOL0     C42848   3.284   7.399  10.238 -0.7765 -0.6489  0.3201
  318MOL0     C42849   3.217   7.484  10.325 -0.4533 -0.4212  0.3527
  318MOL0     C42850   2.891   7.783  10.495 -0.3307 -0.8475  1.7858
  318MOL0     C42851   2.948   7.754  10.621 -0.4876  0.0861 -0.1330
  318MOL0     C42852   2.911   7.821  10.735  0.1976  0.2241 -0.0293
  318MOL0     C42853   2.821   7.926  10.729 -0.1923  0.4815 -0.7965
  318MOL0     O42854   2.783   7.994  10.832 -0.9575 -0.4969  0.2107
  318MOL0     C42855   2.866   7.994  10.955 -0.6061  0.2950  0.3415
  318MOL0     C42856   2.821   8.104  11.052  0.4117 -0.8054  0.1212
  318MOL0     C42857   2.672   8.101  11.096  0.1208  0.4296  0.2875
  318MOL0     C42858   2.655   7.982  11.194  0.2994  0.6853  0.2900
  318MOL0     C42859   2.701   8.017  11.328 -0.7921  0.5877 -0.9574
  318MOL0     C42860   2.764   8.035  11.434  0.1142 -0.4934  0.4026
  318MOL0     C42861   2.758   7.959  10.604  0.0957 -0.2660  0.3887
  318MOL0     C42862   2.797   7.885  10.487 -0.0473  0.1223  0.0653
  318MOL0     H42863   2.932   7.524  10.136  1.1357 -0.1790 -2.5282
  318MOL0     H42864   3.067   7.380   9.994 -0.8396  1.9130  0.6189
  318MOL0     H42865   3.371   7.489   9.968 -3.6279 -2.0922  0.8042
  318MOL0     H42866   3.499   7.410  10.051 -0.0147 -1.1250  0.4025
  318MOL0     H42867   3.409   7.280   9.809 -0.5422 -1.0715  0.7545
  318MOL0     H42868   3.523   7.421   9.801  0.8789 -0.1969  0.3362
  318MOL0     H42869   3.687   7.296   9.957  0.3386  1.3921 -1.8157
  318MOL0     H42870   3.564   7.171   9.964  2.1945 -2.5201  0.2581
  318MOL0     H42871   3.581   7.110   9.737 -1.7525  0.8577  4.2746
  318MOL0     H42872   3.660   7.260   9.688 -1.7688  1.9832  1.7407
  318MOL0     H42873   3.770   7.037   9.872  5.5476 -1.8576  0.3315
  318MOL0     H42874   3.807   7.062   9.706 -1.4987  2.5826 -2.0571
  318MOL0     H42875   3.906   7.275   9.736  0.2316  1.0695 -0.1708
  318MOL0     H42876   3.875   7.279   9.915 -0.7088 -1.0020  0.2068
  318MOL0     H42877   4.038   7.077   9.929  1.5412 -1.5913 -2.2478
  318MOL0     H42878   4.050   7.075   9.756 -0.6708 -1.8155  0.9571
  318MOL0     H42879   4.226   7.200   9.880 -0.0760  0.7870  0.6994
  318MOL0     H42880   4.109   7.301   9.957 -1.1270  0.8285 -0.1216
  318MOL0     H42881   4.228   7.236   9.590  1.2337 -0.9821  1.5287
  318MOL0     H42882   4.261   7.387   9.396 -4.6289 -2.9408  4.6634
  318MOL0     H42883   4.184   7.544   9.396  0.3303 -0.5386 -1.4527
  318MOL0     H42884   4.443   7.502   9.554 -0.4652 -1.0719 -0.7049
  318MOL0     H42885   4.357   7.649   9.529  2.9065 -0.1726  3.4950
  318MOL0     H42886   4.541   7.665   9.381 -0.8354  0.6796 -0.5145
  318MOL0     H42887   4.407   7.638   9.276  1.2825 -0.7119 -1.2680
  318MOL0     H42888   4.461   7.387   9.283 -1.7561  2.5643  0.4705
  318MOL0     H42889   4.594   7.417   9.394  1.5145 -0.9158 -0.1409
  318MOL0     H42890   4.793   7.489   9.034 -0.2742 -1.6671  0.3583
  318MOL0     H42891   4.735   7.440   8.655 -0.6289 -1.0357  1.4161
  318MOL0     H42892   4.778   7.608   8.674  0.4621 -1.1998  0.2878
  318MOL0     H42893   4.869   7.472   8.755  0.7818 -1.4791  0.9761
  318MOL0     H42894   4.283   7.272   8.536  1.9612  1.9270  1.7804
  318MOL0     H42895   4.127   7.254   8.324  0.6289  0.8447 -1.6777
  318MOL0     H42896   3.945   7.650   8.161  0.2100  1.9314 -4.5327
  318MOL0     H42897   4.086   7.599   8.066  0.4292 -3.0851 -0.4125
  318MOL0     H42898   3.938   7.449   7.946 -0.7782  1.8442 -2.2062
  318MOL0     H42899   3.810   7.475   8.064 -0.1753 -0.6492  0.3538
  318MOL0     H42900   3.919   7.705   7.881 -1.5446  1.0196 -1.3607
  318MOL0     H42901   3.783   7.721   7.976  1.6036  2.2395 -1.8464
  318MOL0     H42902   3.817   7.518   7.752 -0.5725 -0.4263  2.8820
  318MOL0     H42903   3.676   7.533   7.849  1.1363 -0.2380  2.1205
  318MOL0     H42904   3.780   7.744   7.645  0.3642 -0.8208  0.5212
  318MOL0     H42905   3.656   7.786   7.760  1.0152 -0.2534  1.3677
  318MOL0     H42906   3.531   7.754   7.574  2.9837  0.8881 -2.5448
  318MOL0     H42907   3.609   7.615   7.527 -0.7957 -0.6725  0.2413
  318MOL0     H42908   3.456   7.620   7.791 -1.5175  1.6811 -1.0591
  318MOL0     H42909   3.514   7.472   7.712 -1.4001 -0.6610 -1.6605
  318MOL0     H42910   3.296   7.656   7.602 -0.9705  0.1421  0.9791
  318MOL0     H42911   3.269   7.514   7.691 -0.6406 -0.3165 -1.0236
  318MOL0     H42912   4.112   7.689   8.316  1.2142  0.5634 -1.3139
  318MOL0     H42913   4.252   7.696   8.531  1.4963 -0.2550 -1.0454
  318MOL0     H42914   4.325   7.519   8.879  0.1329  1.5471 -1.7208
  318MOL0     H42915   4.389   7.512   9.123  0.6554  3.9664 -1.1878
  318MOL0     H42916   3.379   7.357  10.269  0.4600 -0.2567 -2.6209
  318MOL0     H42917   3.266   7.512  10.418  2.2235 -1.4291 -0.6582
  318MOL0     H42918   3.017   7.670  10.631  0.4687  0.5301 -2.3986
  318MOL0     H42919   2.950   7.776  10.826 -2.3179 -2.8931 -0.2989
  318MOL0     H42920   2.853   7.901  11.012 -0.0593 -0.8987 -1.3759
  318MOL0     H42921   2.972   8.010  10.932 -0.2760 -0.0096  1.5771
  318MOL0     H42922   2.826   8.202  11.005  0.3133 -1.0599 -0.4303
  318MOL0     H42923   2.885   8.120  11.139 -1.0783  4.0743  0.6259
  318MOL0     H42924   2.599   8.081  11.018 -2.3081  1.1658  2.2553
  318MOL0     H42925   2.647   8.194  11.148 -0.7075  0.4751 -0.1680
  318MOL0     H42926   2.700   7.888  11.163  0.1747 -0.6355  3.7392
  318MOL0     H42927   2.548   7.972  11.214  0.3857 -0.6995  0.1175
  318MOL0     H42928   2.809   8.043  11.531 -0.2690  1.2468  0.4694
  318MOL0     H42929   2.681   8.035  10.593  0.1262 -0.3774 -0.7760
  318MOL0     H42930   2.744   7.897  10.392  1.0075 -0.5937 -0.6396
  319MOL0     O42931   3.549   7.183   7.761  0.5488  0.8110  0.3499
  319MOL0     C42932   3.562   7.062   7.769  0.1290  0.4960  0.2405
  319MOL0     O42933   3.490   6.973   7.696  0.2009 -0.4405  0.4977
  319MOL0     C42934   3.391   7.017   7.614 -0.8474  0.2945 -0.8224
  319MOL0     C42935   3.303   7.117   7.636 -0.3203 -0.9205 -0.1321
  319MOL0     C42936   3.218   7.163   7.533 -0.1398  0.0637  0.0557
  319MOL0     C42937   3.228   7.112   7.408 -0.2966  0.4113  0.8754
  319MOL0     O42938   3.137   7.166   7.318 -0.0312 -0.1916 -0.2790
  319MOL0     C42939   3.140   7.137   7.177  0.3528  1.1868  0.0602
  319MOL0     C42940   3.252   7.218   7.112 -0.2922  0.7422  0.1701
  319MOL0     C42941   3.281   7.217   6.957  0.2001  0.6530 -0.4260
  319MOL0     C42942   3.163   7.257   6.868 -0.6795  0.1261 -1.2062
  319MOL0     C42943   3.107   7.397   6.899 -0.3152  0.0333 -1.1010
  319MOL0     C42944   3.218   7.510   6.872  0.0029 -0.1837  0.2693
  319MOL0     C42945   3.168   7.641   6.942  0.5547 -0.3412 -0.3257
  319MOL0     C42946   3.263   7.760   6.910 -0.1707  0.7589 -0.5692
  319MOL0     N42947   3.193   7.886   6.884 -0.1470 -0.1881  0.0516
  319MOL0     C42948   3.168   7.983   6.978  0.3035 -0.4963 -0.2354
  319MOL0     C42949   3.084   8.071   6.914 -0.8021 -0.0036  0.5782
  319MOL0     C42950   3.030   8.189   6.981  0.3636  0.0319 -0.5556
  319MOL0     C42951   3.125   8.309   6.981 -0.7116 -0.1942  0.2129
  319MOL0     C42952   3.116   8.396   6.855  0.6107 -0.1063 -0.7309
  319MOL0     C42953   2.983   8.434   6.797 -0.2991 -0.2695  0.3502
  319MOL0     O42954   3.002   8.502   6.675  0.4079 -0.2967 -0.1791
  319MOL0     C42955   3.045   8.444   6.557 -0.2010  0.3416  0.0137
  319MOL0     C42956   3.082   8.525   6.451  1.1505 -0.0509 -0.1165
  319MOL0     C42957   3.125   8.478   6.323  0.4400 -0.1162 -1.0143
  319MOL0     C42958   3.174   8.578   6.219  0.1277 -0.6423 -1.0943
  319MOL0     C42959   3.136   8.341   6.306  0.6287  0.0982  0.1509
  319MOL0     C42960   3.179   8.282   6.172 -1.0529  0.0034 -0.3236
  319MOL0     O42961   3.188   8.143   6.179 -0.5011 -0.1809  0.0391
  319MOL0     C42962   3.184   8.081   6.061  0.3001  0.0138  0.1049
  319MOL0     C42963   3.301   8.026   6.015 -0.1041  0.1237  0.0136
  319MOL0     C42964   3.300   7.951   5.893 -0.9401 -1.3610 -1.9992
  319MOL0     C42965   3.185   7.934   5.830 -0.4018  0.5387 -0.1061
  319MOL0     O42966   3.185   7.862   5.719 -0.1292 -0.1541  0.2691
  319MOL0     C42967   3.191   7.723   5.734 -0.2616 -0.0287 -0.2277
  319MOL0     C42968   3.062   7.664   5.795  0.0036 -0.3632 -0.2640
  319MOL0     C42969   3.081   7.520   5.835 -0.2978  0.0271 -0.2361
  319MOL0     C42970   3.066   7.415   5.733  0.0382 -0.1786  0.0322
  319MOL0     C42971   3.108   7.277   5.789  0.0273  0.4067 -0.9333
  319MOL0     C42972   3.017   7.225   5.897 -0.2265  0.7756  0.0291
  319MOL0     C42973   3.074   7.103   5.966  1.1336 -1.3917 -0.2444
  319MOL0     C42974   2.983   7.042   6.073  0.1727 -0.7006 -0.6570
  319MOL0    Cl42975   2.930   7.161   6.198 -0.0693 -0.7381  0.8127
  319MOL0     C42976   3.065   7.981   5.882  0.6712 -0.3055  0.2490
  319MOL0     C42977   3.066   8.066   5.986 -0.5223  0.4174 -1.9558
  319MOL0     O42978   3.204   8.351   6.078  0.0597  0.1343 -0.5690
  319MOL0     C42979   3.106   8.256   6.412  0.6674 -0.2885  0.4834
  319MOL0     C42980   3.062   8.304   6.533 -0.4368 -0.4421 -0.2283
  319MOL0     N42981   3.078   8.040   6.770  0.2875  0.7390 -0.5031
  319MOL0     N42982   3.137   7.925   6.762  0.3683 -0.4655 -0.0521
  319MOL0     C42983   3.320   7.009   7.381 -1.3036 -0.0853 -0.0410
  319MOL0     C42984   3.404   6.964   7.483  0.5346 -0.6668 -0.0597
  319MOL0     C42985   3.664   7.015   7.857 -1.2813  0.6709  0.0059
  319MOL0     C42986   3.756   7.111   7.909 -0.4373  0.1220 -0.3152
  319MOL0     C42987   3.869   7.066   7.987 -0.3907 -0.2409  0.0844
  319MOL0     C42988   3.897   6.934   8.004 -0.3139 -0.4662  0.5319
  319MOL0     O42989   4.010   6.904   8.081  0.5990  0.2449  1.1016
  319MOL0     C42990   4.044   6.761   8.098  0.7500  1.0187 -0.8839
  319MOL0     C42991   4.157   6.763   8.197 -0.2087 -0.2033 -0.0980
  319MOL0     C42992   4.137   6.659   8.314  0.7017  0.1205 -0.3888
  319MOL0     C42993   4.176   6.520   8.275  0.7349  0.5621 -0.3964
  319MOL0     C42994   4.060   6.441   8.212  0.3490 -0.5266  0.1664
  319MOL0     C42995   3.967   6.385   8.155  0.0092  0.1923 -0.3177
  319MOL0     C42996   3.806   6.842   7.946 -0.4179  0.1263 -0.3682
  319MOL0     C42997   3.693   6.876   7.873 -0.0102 -0.2604 -0.2068
  319MOL0     H42998   3.281   7.158   7.734 -4.7757 -2.5529 -0.2446
  319MOL0     H42999   3.148   7.244   7.551  0.4399  0.3301  1.2385
  319MOL0     H43000   3.146   7.029   7.158 -0.9735  1.2052 -0.6600
  319MOL0     H43001   3.044   7.169   7.135  0.1588  0.5016 -0.0330
  319MOL0     H43002   3.217   7.316   7.147  0.2440  0.1392  2.5915
  319MOL0     H43003   3.348   7.190   7.155 -0.4476 -1.1478 -0.6391
  319MOL0     H43004   3.365   7.282   6.929  0.8814  0.0039  0.0581
  319MOL0     H43005   3.314   7.121   6.916  0.8014  1.1598 -1.1785
  319MOL0     H43006   3.194   7.275   6.765 -0.0251 -1.8693 -1.4106
  319MOL0     H43007   3.082   7.184   6.870 -0.0400 -0.5910 -0.8390
  319MOL0     H43008   3.017   7.406   6.836 -0.7548  0.4645 -0.4242
  319MOL0     H43009   3.076   7.423   7.000  2.3942  0.8236 -0.3935
  319MOL0     H43010   3.310   7.478   6.923  0.6257 -2.2640 -1.9518
  319MOL0     H43011   3.229   7.534   6.767  1.4067 -0.2197  0.3946
  319MOL0     H43012   3.067   7.652   6.901 -0.4641 -4.2601  0.6686
  319MOL0     H43013   3.160   7.625   7.050  0.1288 -1.7824 -0.5487
  319MOL0     H43014   3.322   7.728   6.823  1.8111  1.0973  0.5887
  319MOL0     H43015   3.335   7.767   6.992  3.3095 -0.0767 -3.2884
  319MOL0     H43016   3.205   7.990   7.080  0.5068 -0.7175 -0.2935
  319MOL0     H43017   2.930   8.211   6.942  0.2709 -1.8109 -1.4494
  319MOL0     H43018   3.013   8.146   7.080  1.4047 -0.2783 -0.4946
  319MOL0     H43019   3.231   8.283   6.988 -0.9847 -1.0480  1.4695
  319MOL0     H43020   3.112   8.378   7.065  1.5441 -0.3039  0.7141
  319MOL0     H43021   3.178   8.341   6.784  0.3405 -0.3598 -0.7741
  319MOL0     H43022   3.187   8.479   6.858 -0.4757  0.8267 -0.1672
  319MOL0     H43023   2.940   8.504   6.870 -0.1023  1.2886 -0.9564
  319MOL0     H43024   2.920   8.345   6.793  0.2064 -0.5868 -1.4332
  319MOL0     H43025   3.065   8.630   6.472 -1.5874 -1.0841  3.8557
  319MOL0     H43026   3.180   8.680   6.259 -0.9675 -0.1540 -2.1014
  319MOL0     H43027   3.282   8.563   6.212  1.4178  2.6522  4.7253
  319MOL0     H43028   3.119   8.584   6.125 -0.3409  0.9554 -0.7579
  319MOL0     H43029   3.398   8.042   6.061  0.3296 -0.5170 -0.6571
  319MOL0     H43030   3.397   7.917   5.859  0.4407 -1.6486  1.7254
  319MOL0     H43031   3.201   7.690   5.631 -0.3712 -3.3872  0.7172
  319MOL0     H43032   3.280   7.685   5.786  2.4288  1.1395 -3.5908
  319MOL0     H43033   3.015   7.719   5.877  1.5608  2.4298 -1.1354
  319MOL0     H43034   2.981   7.672   5.722 -0.5244  0.0552  0.3613
  319MOL0     H43035   3.002   7.500   5.909  0.8225  0.8799  1.2370
  319MOL0     H43036   3.181   7.512   5.879  0.3693  0.5736 -1.6150
  319MOL0     H43037   2.969   7.428   5.684  0.6485  1.4001 -0.8545
  319MOL0     H43038   3.142   7.433   5.655 -2.1377 -0.1021 -2.1935
  319MOL0     H43039   3.209   7.268   5.830 -0.3169 -4.8965 -0.4349
  319MOL0     H43040   3.097   7.199   5.712 -1.7758  0.4573 -0.7811
  319MOL0     H43041   3.003   7.300   5.975  0.1873  0.4777  0.3916
  319MOL0     H43042   2.923   7.205   5.844  0.5340  0.5958 -1.3031
  319MOL0     H43043   3.170   7.121   6.014  0.1658  0.2520  1.1964
  319MOL0     H43044   3.089   7.019   5.899 -1.5337 -4.8953  3.0431
  319MOL0     H43045   3.023   6.955   6.126  0.5720  0.3595  0.8390
  319MOL0     H43046   2.890   7.020   6.020  0.5661  3.0184 -3.2791
  319MOL0     H43047   2.974   7.962   5.826  0.6500  0.0972  0.1441
  319MOL0     H43048   2.980   8.114   6.030  0.3249 -2.6950  4.3001
  319MOL0     H43049   3.097   8.149   6.400 -2.5272  0.0334 -0.7842
  319MOL0     H43050   3.045   8.234   6.615  3.7816 -0.2647  1.0019
  319MOL0     H43051   3.333   6.973   7.279 -2.6751 -2.0971  0.4430
  319MOL0     H43052   3.490   6.900   7.464 -0.1709 -1.2174 -1.5267
  319MOL0     H43053   3.736   7.215   7.887 -2.3517 -0.1430 -0.0283
  319MOL0     H43054   3.926   7.149   8.026 -2.0801 -0.1795  2.6168
  319MOL0     H43055   3.961   6.703   8.141  0.2793  2.7275  0.6262
  319MOL0     H43056   4.063   6.714   8.001 -1.7958 -1.3518 -0.3721
  319MOL0     H43057   4.157   6.863   8.241 -2.7136 -1.3921  3.0183
  319MOL0     H43058   4.249   6.739   8.142  0.6121  2.1368  0.1407
  319MOL0     H43059   4.032   6.658   8.345  0.2197 -1.3537 -1.9513
  319MOL0     H43060   4.213   6.688   8.387  1.2419 -0.0567 -0.8757
  319MOL0     H43061   4.209   6.471   8.367 -0.4801 -1.8127 -1.1461
  319MOL0     H43062   4.256   6.521   8.200  1.2219 -2.9337 -0.0942
  319MOL0     H43063   3.892   6.329   8.102 -1.6355 -1.3654  3.3238
  319MOL0     H43064   3.808   6.734   7.957 -1.6122  0.0330 -0.8718
  319MOL0     H43065   3.635   6.799   7.823  0.7749 -0.8169 -0.2828
  320MOL0     O43066   0.678   7.136   8.550 -0.8523 -0.4671  0.1613
  320MOL0     C43067   0.749   7.032   8.571  0.4022  0.4253 -0.3040
  320MOL0     O43068   0.744   6.917   8.496 -0.3589  0.3115 -0.5574
  320MOL0     C43069   0.672   6.916   8.381 -0.3122 -1.2828 -0.0533
  320MOL0     C43070   0.730   6.897   8.260  0.2938  0.1895 -0.2123
  320MOL0     C43071   0.649   6.903   8.144  0.1382 -0.6135  0.2629
  320MOL0     C43072   0.508   6.924   8.146  0.6575 -0.5637  1.4889
  320MOL0     O43073   0.445   6.921   8.020  0.2909  0.1921  0.1637
  320MOL0     C43074   0.368   7.036   7.984 -0.1852 -0.1102 -0.4949
  320MOL0     C43075   0.392   7.052   7.832  0.6603  0.5997 -0.0540
  320MOL0     C43076   0.354   7.184   7.776 -0.3711 -0.2383  0.3510
  320MOL0     C43077   0.413   7.197   7.631  0.1184 -0.5003  0.3560
  320MOL0     C43078   0.404   7.343   7.579  0.1456 -0.2652  0.9933
  320MOL0     C43079   0.497   7.366   7.464  0.2375 -0.0283 -0.3092
  320MOL0     C43080   0.633   7.398   7.519  0.0726  0.5523 -0.6927
  320MOL0     C43081   0.742   7.396   7.404  0.0563  0.5235  1.6873
  320MOL0     N43082   0.874   7.438   7.456  0.7502  0.0392 -0.1322
  320MOL0     C43083   0.958   7.531   7.414 -0.3105  0.9580 -0.1311
  320MOL0     C43084   1.050   7.535   7.512  0.6083  0.0857  0.2286
  320MOL0     C43085   1.160   7.631   7.508  0.2301 -0.2390  0.5864
  320MOL0     C43086   1.205   7.680   7.647 -0.1138 -0.1000 -0.5533
  320MOL0     C43087   1.349   7.737   7.652  0.1659  0.8975  0.6598
  320MOL0     C43088   1.389   7.786   7.790 -0.5572 -0.5367  0.2826
  320MOL0     O43089   1.313   7.889   7.845  0.7834  0.3629 -0.6815
  320MOL0     C43090   1.310   8.025   7.803 -0.6408 -0.5506  0.1987
  320MOL0     C43091   1.201   8.107   7.816  0.4509  0.1386  0.4749
  320MOL0     C43092   1.198   8.251   7.787  0.6844 -1.1082 -0.0613
  320MOL0     C43093   1.074   8.337   7.816 -0.3422 -0.4470 -0.3460
  320MOL0     C43094   1.319   8.309   7.740 -0.4842 -0.5528 -0.0352
  320MOL0     C43095   1.357   8.449   7.738  0.8206  0.5425  0.3198
  320MOL0     O43096   1.413   8.497   7.616  0.1504  0.3607 -0.4400
  320MOL0     C43097   1.457   8.634   7.608 -0.8078 -0.3361 -0.1553
  320MOL0     C43098   1.360   8.731   7.614  0.2964  0.2703  1.6277
  320MOL0     C43099   1.395   8.865   7.606 -0.9424 -0.1029  0.4063
  320MOL0     C43100   1.533   8.904   7.594  0.1835  0.3160 -0.3730
  320MOL0     O43101   1.560   9.036   7.612 -0.0467  0.1634 -0.2693
  320MOL0     C43102   1.698   9.096   7.637 -0.4801 -0.1003  0.2508
  320MOL0     C43103   1.699   9.244   7.687  0.0751 -0.1090 -0.7621
  320MOL0     C43104   1.612   9.334   7.593  0.4442 -0.1586  0.3127
  320MOL0     C43105   1.641   9.488   7.607 -0.1979  0.6142 -0.5592
  320MOL0     C43106   1.579   9.578   7.491 -1.1528  0.9441 -0.2913
  320MOL0     C43107   1.643   9.714   7.491 -0.5480 -0.2282 -0.1983
  320MOL0     C43108   1.556   9.821   7.422 -0.1445  0.6657  0.1822
  320MOL0     C43109   1.583   9.811   7.275 -0.9025  0.0304 -0.8671
  320MOL0    Cl43110   1.736   9.873   7.219 -0.0744  0.0164  0.2242
  320MOL0     C43111   1.625   8.801   7.597 -0.2524  0.3785 -0.0083
  320MOL0     C43112   1.591   8.669   7.595 -0.2410 -0.1068 -0.0849
  320MOL0     O43113   1.360   8.516   7.843  0.2593  0.0001  0.4851
  320MOL0     C43114   1.427   8.228   7.718 -0.5516  0.3653 -0.1833
  320MOL0     C43115   1.428   8.090   7.748  1.0036 -0.1551 -0.1018
  320MOL0     N43116   1.029   7.438   7.610  0.0576  0.4366 -0.3424
  320MOL0     N43117   0.925   7.379   7.568  0.1881  0.3582  0.0529
  320MOL0     C43118   0.449   6.937   8.273 -0.4551  0.6953  1.2153
  320MOL0     C43119   0.538   6.940   8.383  0.0827  0.1593  0.5721
  320MOL0     C43120   0.834   7.047   8.686 -0.0636  0.6360  0.1845
  320MOL0     C43121   0.906   6.934   8.734  0.3894  0.1151  0.3560
  320MOL0     C43122   1.001   6.956   8.837  1.0132  0.3032 -0.7470
  320MOL0     C43123   1.019   7.086   8.906 -0.4961  0.9056  0.8731
  320MOL0     O43124   1.105   7.098   9.014  0.8255 -0.0653  0.2273
  320MOL0     C43125   1.109   7.218   9.104  0.6864  0.3046  0.3225
  320MOL0     C43126   1.166   7.335   9.023 -0.1670  0.4621  0.0158
  320MOL0     C43127   1.234   7.436   9.120 -0.5214  0.0937  0.4744
  320MOL0     C43128   1.293   7.556   9.048 -0.0340  0.1283 -0.3192
  320MOL0     C43129   1.188   7.624   8.968 -0.0035  0.6959 -1.2913
  320MOL0     C43130   1.095   7.685   8.919 -0.4052  0.6444 -0.0900
  320MOL0     C43131   0.935   7.189   8.862  0.0135  0.4831 -0.5076
  320MOL0     C43132   0.847   7.173   8.753 -0.3781  0.5558 -0.1022
  320MOL0     H43133   0.837   6.879   8.259  0.5329  1.3709  1.4388
  320MOL0     H43134   0.702   6.883   8.051  1.7545  1.4473  0.6675
  320MOL0     H43135   0.267   7.026   8.026  1.1463 -2.4845  2.5590
  320MOL0     H43136   0.414   7.122   8.035 -1.4462 -0.4505  1.3153
  320MOL0     H43137   0.499   7.037   7.813  0.6740  2.3919 -1.7288
  320MOL0     H43138   0.333   6.969   7.791  0.3070  0.2787  1.0814
  320MOL0     H43139   0.250   7.216   7.768  1.0269  4.5202 -3.2055
  320MOL0     H43140   0.402   7.267   7.830 -3.0657  1.8717 -0.2510
  320MOL0     H43141   0.519   7.170   7.629 -0.3511 -2.7787  2.2078
  320MOL0     H43142   0.347   7.130   7.575 -0.1807  0.5014 -0.5389
  320MOL0     H43143   0.304   7.361   7.539  1.6057  2.6947 -1.8199
  320MOL0     H43144   0.426   7.418   7.655  1.4970 -0.5792  0.9416
  320MOL0     H43145   0.508   7.284   7.392  1.2769  0.6646 -0.9620
  320MOL0     H43146   0.455   7.448   7.405 -1.0903  0.0995  0.7492
  320MOL0     H43147   0.636   7.493   7.574  1.2973  0.4645 -0.5667
  320MOL0     H43148   0.658   7.329   7.600 -1.2132  1.5416  0.6086
  320MOL0     H43149   0.725   7.473   7.328 -2.6120 -0.9486  0.6467
  320MOL0     H43150   0.747   7.300   7.351  1.5602  1.3948  0.1929
  320MOL0     H43151   0.943   7.592   7.325 -0.3411  0.6967 -0.3062
  320MOL0     H43152   1.239   7.571   7.462 -0.9889 -0.3852 -1.4033
  320MOL0     H43153   1.135   7.723   7.455  1.0441 -0.1899  0.2643
  320MOL0     H43154   1.193   7.595   7.714  0.1889 -0.2284 -0.6632
  320MOL0     H43155   1.136   7.758   7.681  4.1929  2.8785  2.3800
  320MOL0     H43156   1.367   7.815   7.578  1.0977  1.1038  1.0981
  320MOL0     H43157   1.407   7.647   7.630 -1.6520 -0.5668  1.4853
  320MOL0     H43158   1.494   7.818   7.791 -1.4280  2.9672  2.8163
  320MOL0     H43159   1.396   7.698   7.854  0.1628 -1.4874 -1.0573
  320MOL0     H43160   1.118   8.065   7.871 -0.1889  1.6700  0.7458
  320MOL0     H43161   1.082   8.394   7.909  1.7954  0.2355 -0.9044
  320MOL0     H43162   1.052   8.408   7.735 -2.0907  0.6125  0.9820
  320MOL0     H43163   0.994   8.262   7.822 -0.0252 -0.7270  0.5527
  320MOL0     H43164   1.258   8.697   7.629  0.0866 -0.6353 -1.1843
  320MOL0     H43165   1.317   8.936   7.632  0.1659  0.8916  1.1563
  320MOL0     H43166   1.749   9.040   7.716  1.0238 -0.0208 -0.6294
  320MOL0     H43167   1.760   9.090   7.547  0.4851  0.7818  0.8342
  320MOL0     H43168   1.649   9.249   7.785  0.6680  0.4288 -0.4802
  320MOL0     H43169   1.799   9.287   7.695  0.6360 -1.4552 -0.1680
  320MOL0     H43170   1.505   9.329   7.616  0.1887  3.1620  0.3290
  320MOL0     H43171   1.621   9.302   7.489 -1.8565 -2.8444  0.8136
  320MOL0     H43172   1.619   9.538   7.701 -2.0605  2.9282 -2.1214
  320MOL0     H43173   1.749   9.472   7.596 -0.6588 -4.4991  0.0681
  320MOL0     H43174   1.469   9.578   7.487 -1.3427  0.2733  2.4488
  320MOL0     H43175   1.616   9.527   7.402 -0.0898  0.7040  0.2677
  320MOL0     H43176   1.643   9.739   7.597 -3.5420 -2.9104  0.5597
  320MOL0     H43177   1.749   9.728   7.466  0.9490 -3.1504  3.5792
  320MOL0     H43178   1.585   9.922   7.455 -1.0581  1.1128 -0.3492
  320MOL0     H43179   1.450   9.807   7.445 -0.3143 -0.8075 -1.3258
  320MOL0     H43180   1.510   9.873   7.222  0.2492  0.5300 -1.9136
  320MOL0     H43181   1.585   9.706   7.243 -3.2412  0.0501 -1.2389
  320MOL0     H43182   1.730   8.821   7.580  0.1896  0.3444  2.2691
  320MOL0     H43183   1.659   8.586   7.575 -1.9553 -1.6759  0.3060
  320MOL0     H43184   1.522   8.264   7.679  0.0860  0.1291  1.1104
  320MOL0     H43185   1.515   8.034   7.716  0.1816 -1.7792  0.4040
  320MOL0     H43186   0.341   6.935   8.279 -0.6141  1.1899 -0.7239
  320MOL0     H43187   0.491   6.950   8.480 -2.4639 -1.0743 -0.4441
  320MOL0     H43188   0.893   6.829   8.712  0.5634 -0.3693  2.3518
  320MOL0     H43189   1.046   6.869   8.883 -3.5422 -1.0071  1.9069
  320MOL0     H43190   1.012   7.239   9.151  1.4492  1.0916  1.6328
  320MOL0     H43191   1.176   7.189   9.185 -0.9733  0.5057  1.8223
  320MOL0     H43192   1.091   7.385   8.962  0.3381  1.4671  0.1917
  320MOL0     H43193   1.242   7.294   8.955 -3.3290 -2.5218 -2.0602
  320MOL0     H43194   1.308   7.376   9.174 -0.0563  1.0672  0.9385
  320MOL0     H43195   1.159   7.479   9.188 -2.8234 -0.5135 -1.5470
  320MOL0     H43196   1.365   7.514   8.977 -1.2605 -2.4066 -0.1765
  320MOL0     H43197   1.331   7.625   9.124  1.1033 -1.1794  0.3608
  320MOL0     H43198   1.014   7.717   8.857 -1.1673 -3.0979 -1.2529
  320MOL0     H43199   0.930   7.279   8.923  1.0457 -1.1081  2.0542
  320MOL0     H43200   0.772   7.247   8.727 -5.1883 -4.1436 -1.4007
  321MOL0     O43201   1.328   1.948   5.543  0.4081  0.0960 -0.0865
  321MOL0     C43202   1.351   2.065   5.577  0.1549 -0.2220 -0.1663
  321MOL0     O43203   1.478   2.120   5.599 -0.0048  0.9494  0.2552
  321MOL0     C43204   1.579   2.032   5.598 -0.2215 -0.3332 -0.2432
  321MOL0     C43205   1.647   1.989   5.714 -0.0091 -0.0596 -0.1048
  321MOL0     C43206   1.746   1.887   5.713  0.0879 -0.1588 -0.2427
  321MOL0     C43207   1.785   1.834   5.588 -0.1604 -0.5008  0.0763
  321MOL0     O43208   1.890   1.747   5.575 -0.5874  0.1771 -0.2581
  321MOL0     C43209   1.953   1.691   5.694 -0.2961 -0.6387  0.7238
  321MOL0     C43210   2.088   1.758   5.720  0.1899  0.1759  0.1352
  321MOL0     C43211   2.163   1.682   5.837 -0.1463  0.4447 -0.8944
  321MOL0     C43212   2.303   1.729   5.877 -0.6337 -0.0360  0.5817
  321MOL0     C43213   2.333   1.690   6.018  0.4366  0.2516  0.1347
  321MOL0     C43214   2.437   1.774   6.087  0.1124 -1.0374  0.1311
  321MOL0     C43215   2.501   1.724   6.218  1.1130  0.4496  0.4687
  321MOL0     C43216   2.596   1.609   6.188 -0.4524  0.5435 -0.5272
  321MOL0     N43217   2.717   1.665   6.130  0.4975 -0.3050 -0.0743
  321MOL0     C43218   2.753   1.662   5.996 -0.0498 -0.4861 -0.3412
  321MOL0     C43219   2.877   1.722   5.994  0.6995 -0.0471 -0.0142
  321MOL0     C43220   2.968   1.757   5.874  0.3126  0.1384  0.3221
  321MOL0     C43221   2.931   1.879   5.791 -0.5452  0.9758  0.3970
  321MOL0     C43222   2.893   2.002   5.868 -0.4246  0.0185 -0.2577
  321MOL0     C43223   3.005   2.058   5.958 -0.1681  0.5516 -0.6531
  321MOL0     O43224   2.984   2.197   5.990  0.6061  0.4632 -0.1178
  321MOL0     C43225   3.087   2.271   6.032 -0.2249  0.2770  0.3851
  321MOL0     C43226   3.222   2.232   6.024  0.9958  0.4666  0.0713
  321MOL0     C43227   3.325   2.305   6.078  0.3739  0.8734  0.7006
  321MOL0     C43228   3.461   2.255   6.063 -0.6486  0.7063 -0.7003
  321MOL0     C43229   3.296   2.417   6.158  0.5595 -0.3408  0.0731
  321MOL0     C43230   3.392   2.503   6.235  0.6570 -0.3309  0.3365
  321MOL0     O43231   3.384   2.632   6.200  0.9975 -0.3978  0.2994
  321MOL0     C43232   3.477   2.713   6.267  0.1334 -0.8605 -0.4181
  321MOL0     C43233   3.621   2.705   6.240  0.7337 -0.1724  0.2471
  321MOL0     C43234   3.703   2.807   6.284 -0.6877 -0.1316  0.0484
  321MOL0     C43235   3.651   2.906   6.379  0.1194  1.1250  0.6121
  321MOL0     O43236   3.724   3.015   6.414 -0.3748 -0.2818  0.2809
  321MOL0     C43237   3.803   3.080   6.313  0.6941 -0.4068 -0.6562
  321MOL0     C43238   3.861   3.208   6.365 -0.8292  0.0103  0.3448
  321MOL0     C43239   3.767   3.316   6.378  0.2686 -1.3306  0.4217
  321MOL0     C43240   3.807   3.434   6.275  0.6542  0.1266  1.0092
  321MOL0     C43241   3.765   3.397   6.127 -0.0070  0.1881  0.2777
  321MOL0     C43242   3.768   3.525   6.031  0.6131  0.3351  0.5318
  321MOL0     C43243   3.743   3.498   5.883  0.9094  0.1773  0.3839
  321MOL0     C43244   3.639   3.392   5.850 -0.8422  0.6477  0.3208
  321MOL0    Cl43245   3.481   3.415   5.932 -0.3266  0.5649  0.2959
  321MOL0     C43246   3.530   2.899   6.431  0.9295 -0.0327  0.6833
  321MOL0     C43247   3.435   2.806   6.368 -2.1273  0.3034  0.7686
  321MOL0     O43248   3.449   2.456   6.332  0.2491  0.1089 -0.2706
  321MOL0     C43249   3.157   2.446   6.173  0.1878 -0.7114 -0.8542
  321MOL0     C43250   3.061   2.370   6.114  0.7116  1.0131  0.7504
  321MOL0     N43251   2.909   1.758   6.117 -0.3511  0.9519  0.0486
  321MOL0     N43252   2.817   1.722   6.203  0.0334  0.2293  0.0198
  321MOL0     C43253   1.725   1.880   5.468 -0.3360 -0.0849  0.0080
  321MOL0     C43254   1.633   1.980   5.479  0.5590  0.3500  0.2292
  321MOL0     C43255   1.235   2.153   5.586  0.0233 -0.2914  0.1719
  321MOL0     C43256   1.112   2.121   5.512 -0.5025 -0.3060  0.1187
  321MOL0     C43257   0.991   2.207   5.514 -0.4643 -0.9686  1.3709
  321MOL0     C43258   1.007   2.331   5.576 -0.5894  0.0819  0.0101
  321MOL0     O43259   0.911   2.423   5.559  0.0305 -0.0740 -0.8503
  321MOL0     C43260   0.946   2.566   5.533  0.0498 -0.5371  0.1367
  321MOL0     C43261   0.905   2.649   5.651 -0.1661 -0.2021  0.2000
  321MOL0     C43262   0.751   2.679   5.655 -0.4557  0.3194  0.3502
  321MOL0     C43263   0.667   2.561   5.722 -0.0048 -0.9136  0.4884
  321MOL0     C43264   0.537   2.617   5.727 -0.4383  0.1998  0.2511
  321MOL0     C43265   0.442   2.670   5.756  0.7019  0.7589 -0.1589
  321MOL0     C43266   1.123   2.365   5.654 -0.4039 -0.2587 -0.7332
  321MOL0     C43267   1.230   2.271   5.671 -0.0973 -1.3539  0.0909
  321MOL0     H43268   1.626   2.043   5.806  1.7956  1.8840 -0.7639
  321MOL0     H43269   1.786   1.857   5.809 -0.8815 -1.4037 -0.1999
  321MOL0     H43270   1.902   1.689   5.790  1.0909  0.1981  1.5184
  321MOL0     H43271   1.958   1.585   5.669 -1.9781 -0.3243 -1.3012
  321MOL0     H43272   2.145   1.747   5.627 -1.4874 -1.2713 -0.7840
  321MOL0     H43273   2.075   1.861   5.753 -0.7699 -0.0767  0.5914
  321MOL0     H43274   2.097   1.670   5.923  0.2399 -4.8762 -0.9866
  321MOL0     H43275   2.172   1.574   5.818 -0.2127  0.2153  0.3048
  321MOL0     H43276   2.376   1.678   5.814 -1.2009 -0.0767 -0.0513
  321MOL0     H43277   2.313   1.836   5.859 -2.9679  0.0445 -0.6127
  321MOL0     H43278   2.241   1.694   6.076 -0.5858 -3.0086 -1.0214
  321MOL0     H43279   2.358   1.583   6.021  1.8347  0.5778  1.0344
  321MOL0     H43280   2.513   1.804   6.013 -1.2377 -3.0054 -2.2016
  321MOL0     H43281   2.378   1.862   6.114 -0.3588 -1.3420  0.1101
  321MOL0     H43282   2.561   1.796   6.275  0.3536 -0.9532  3.2399
  321MOL0     H43283   2.429   1.680   6.287  0.9889  1.6096  1.1127
  321MOL0     H43284   2.554   1.541   6.113 -0.0733 -0.0158 -0.2375
  321MOL0     H43285   2.618   1.559   6.282 -2.7102  0.3395 -0.0595
  321MOL0     H43286   2.704   1.630   5.905  2.6773  2.5823 -3.1945
  321MOL0     H43287   3.064   1.773   5.923  1.3127 -1.8946 -0.8627
  321MOL0     H43288   2.985   1.674   5.805  0.2672 -1.3001  1.9644
  321MOL0     H43289   2.845   1.852   5.730  0.2697  0.7217 -0.6644
  321MOL0     H43290   3.017   1.899   5.726 -0.0152  1.8113  1.3224
  321MOL0     H43291   2.813   1.983   5.940  1.3336 -0.7632  1.5836
  321MOL0     H43292   2.859   2.068   5.787 -3.7089 -0.4789  0.5434
  321MOL0     H43293   3.094   2.055   5.894  0.0652 -1.2120 -0.3098
  321MOL0     H43294   3.019   2.003   6.051 -2.9508  0.6418 -0.0779
  321MOL0     H43295   3.257   2.141   5.977 -2.2418 -1.1105  0.4482
  321MOL0     H43296   3.472   2.166   6.126  2.3746  0.3619 -1.5275
  321MOL0     H43297   3.486   2.239   5.957 -2.3691  2.3042 -1.3950
  321MOL0     H43298   3.542   2.316   6.104 -1.5388  0.2519  1.9462
  321MOL0     H43299   3.652   2.617   6.184 -0.8118 -1.3040  1.0909
  321MOL0     H43300   3.798   2.827   6.236 -1.0467  1.5023 -0.0160
  321MOL0     H43301   3.887   3.017   6.283  1.9989 -0.0011  1.9371
  321MOL0     H43302   3.740   3.112   6.229  1.0258  0.1115 -0.7102
  321MOL0     H43303   3.895   3.192   6.468 -0.0574 -2.2445 -0.2055
  321MOL0     H43304   3.942   3.237   6.297 -0.4099 -1.6205  0.1199
  321MOL0     H43305   3.770   3.348   6.483  0.0601  0.7201 -0.1533
  321MOL0     H43306   3.664   3.286   6.357  1.2443 -4.5078 -0.4208
  321MOL0     H43307   3.766   3.531   6.303 -2.8057 -0.9172  0.0264
  321MOL0     H43308   3.915   3.442   6.296  0.7548  1.0328  0.1945
  321MOL0     H43309   3.666   3.350   6.127  0.7479 -1.4661 -0.7034
  321MOL0     H43310   3.833   3.318   6.095  0.0655 -0.4786  1.9651
  321MOL0     H43311   3.682   3.580   6.069  0.3956  1.5016 -1.4862
  321MOL0     H43312   3.861   3.582   6.037  0.0927  1.0132  3.0349
  321MOL0     H43313   3.840   3.470   5.842  0.5049 -0.5854 -0.0833
  321MOL0     H43314   3.698   3.584   5.834 -0.4579 -0.9926 -0.5212
  321MOL0     H43315   3.677   3.290   5.860  0.1846  0.8888 -0.9045
  321MOL0     H43316   3.622   3.393   5.742 -2.6711 -2.4913  0.4377
  321MOL0     H43317   3.498   2.976   6.501  0.8738 -0.9405  1.6911
  321MOL0     H43318   3.332   2.825   6.397 -1.8208  3.1749  0.2754
  321MOL0     H43319   3.119   2.530   6.232 -2.7266 -1.2753 -1.7393
  321MOL0     H43320   2.957   2.391   6.138 -0.4451 -2.3946 -0.5151
  321MOL0     H43321   1.757   1.855   5.368  0.1957 -1.2674  0.4593
  321MOL0     H43322   1.586   2.009   5.385  0.8372  0.7730  0.2178
  321MOL0     H43323   1.104   2.038   5.443 -2.5501  0.1488 -0.2701
  321MOL0     H43324   0.911   2.170   5.451  0.2618  0.3687 -0.4183
  321MOL0     H43325   1.054   2.579   5.526 -0.2379  1.5973 -1.3049
  321MOL0     H43326   0.902   2.606   5.441  0.6128 -1.2035 -0.4269
  321MOL0     H43327   0.959   2.744   5.640  1.6991 -1.1996  0.2256
  321MOL0     H43328   0.940   2.602   5.743  2.0685  0.5934 -0.1606
  321MOL0     H43329   0.711   2.706   5.557  1.0629 -3.4552 -1.5226
  321MOL0     H43330   0.733   2.768   5.716 -2.4331 -1.9727  3.4105
  321MOL0     H43331   0.689   2.549   5.828 -1.4734  0.5123  1.0048
  321MOL0     H43332   0.678   2.468   5.666 -0.7802  0.4361 -2.0729
  321MOL0     H43333   0.351   2.725   5.771  0.9181  2.4041 -3.7545
  321MOL0     H43334   1.131   2.462   5.701  1.4224 -0.7147 -0.0341
  321MOL0     H43335   1.312   2.291   5.739  0.0558  1.3762 -0.7836
  322MOL0     O43336   7.484   5.970   5.786 -0.0943  0.2451  0.3174
  322MOL0     C43337   7.399   6.040   5.724  0.3506 -0.5040 -0.4519
  322MOL0     O43338   7.360   6.031   5.592  0.2834  0.2997 -0.0108
  322MOL0     C43339   7.389   5.914   5.522  0.9476 -0.7115 -0.1990
  322MOL0     C43340   7.398   5.933   5.384 -0.7717 -0.7520 -0.3872
  322MOL0     C43341   7.416   5.827   5.290 -0.1040 -1.1220 -0.0271
  322MOL0     C43342   7.431   5.697   5.339 -0.4435 -0.4845  0.0158
  322MOL0     O43343   7.444   5.583   5.260  0.6341 -0.4007  0.6290
  322MOL0     C43344   7.336   5.574   5.162  0.0036 -0.4346 -0.5865
  322MOL0     C43345   7.312   5.436   5.121 -0.2551  0.0243 -0.8773
  322MOL0     C43346   7.387   5.391   5.002 -0.7629  0.1030  0.0543
  322MOL0     C43347   7.548   5.409   4.995  0.7884  0.0220  0.4749
  322MOL0     C43348   7.619   5.337   4.871 -0.1616 -0.1461 -0.7421
  322MOL0     C43349   7.761   5.393   4.845 -0.1100  0.4122 -0.3044
  322MOL0     C43350   7.861   5.373   4.960  0.2153 -0.6233  0.6241
  322MOL0     C43351   7.999   5.437   4.953 -1.2019 -0.8242 -0.3022
  322MOL0     N43352   8.056   5.428   4.814 -0.1399 -0.6388  0.9771
  322MOL0     C43353   8.096   5.313   4.749  0.2869 -0.4314 -1.3281
  322MOL0     C43354   8.158   5.355   4.641 -0.9833  0.9981  0.2886
  322MOL0     C43355   8.222   5.257   4.550  0.1420 -1.2063  0.5653
  322MOL0     C43356   8.237   5.297   4.400  0.9904  0.4270 -0.1550
  322MOL0     C43357   8.105   5.280   4.317  0.6970  0.3495  0.5729
  322MOL0     C43358   8.072   5.124   4.291  0.6636 -0.2094  0.3630
  322MOL0     O43359   7.941   5.125   4.247 -0.3601  0.0831  0.3314
  322MOL0     C43360   7.919   5.154   4.112 -0.1766  0.0165 -0.8834
  322MOL0     C43361   7.821   5.239   4.073  0.8636 -0.1082 -0.4509
  322MOL0     C43362   7.772   5.254   3.935 -0.2330  0.5918  0.4663
  322MOL0     C43363   7.679   5.375   3.915  0.0533  0.0377 -0.7467
  322MOL0     C43364   7.827   5.171   3.835 -1.4094  0.1032 -0.5675
  322MOL0     C43365   7.800   5.177   3.689 -0.2452 -0.1789 -0.2090
  322MOL0     O43366   7.682   5.226   3.648 -0.0215 -0.6313  0.2870
  322MOL0     C43367   7.639   5.214   3.520 -0.2737  0.2865  0.0485
  322MOL0     C43368   7.726   5.257   3.414 -0.5705  0.4610 -0.9141
  322MOL0     C43369   7.688   5.242   3.284  0.6039  0.5546  0.7278
  322MOL0     C43370   7.576   5.166   3.249 -0.4208  0.4684  0.0680
  322MOL0     O43371   7.543   5.156   3.113  0.3168 -0.4954  0.2732
  322MOL0     C43372   7.474   5.046   3.064  0.1648  0.6811 -0.7774
  322MOL0     C43373   7.460   5.046   2.901 -0.5783 -0.0485  0.4159
  322MOL0     C43374   7.588   5.023   2.820  0.0354  0.3132 -0.1996
  322MOL0     C43375   7.577   5.062   2.676 -0.5964  0.4610  0.5889
  322MOL0     C43376   7.702   5.061   2.601  0.0368  0.2921 -0.3708
  322MOL0     C43377   7.684   5.083   2.459  0.0284  0.3542  0.6835
  322MOL0     C43378   7.587   5.188   2.426 -1.4073 -0.0698 -0.4997
  322MOL0     C43379   7.603   5.231   2.277  0.4824 -0.5170 -0.8805
  322MOL0    Cl43380   7.758   5.330   2.232  0.2124 -0.4251 -0.3296
  322MOL0     C43381   7.500   5.098   3.350  0.0395 -0.2158 -0.2689
  322MOL0     C43382   7.532   5.142   3.477 -0.0828  0.8141 -2.0844
  322MOL0     O43383   7.893   5.134   3.617  0.4027  0.0338  0.7809
  322MOL0     C43384   7.936   5.078   3.875  0.0488 -1.0755 -0.4224
  322MOL0     C43385   7.974   5.069   4.013 -0.1959  0.0651  1.0018
  322MOL0     N43386   8.159   5.495   4.639 -0.5505  0.9292  0.1244
  322MOL0     N43387   8.095   5.535   4.736 -0.2815  0.5614 -0.0184
  322MOL0     C43388   7.424   5.678   5.480 -0.6490 -1.0528  0.6429
  322MOL0     C43389   7.404   5.781   5.569 -0.2501  0.8863 -0.1254
  322MOL0     C43390   7.342   6.151   5.806  0.3609 -0.2396 -0.0658
  322MOL0     C43391   7.299   6.274   5.747 -0.2042  0.1561  0.1190
  322MOL0     C43392   7.229   6.365   5.829  0.7282  0.0308  0.3718
  322MOL0     C43393   7.235   6.353   5.967  0.2235  0.7300  1.7728
  322MOL0     O43394   7.184   6.449   6.047 -0.8904  0.3901 -0.0777
  322MOL0     C43395   7.157   6.433   6.191 -0.1825 -0.0505  0.4774
  322MOL0     C43396   7.069   6.553   6.235 -0.3460  0.2695  0.6670
  322MOL0     C43397   7.044   6.560   6.388  0.4457 -0.4009 -0.2096
  322MOL0     C43398   6.974   6.684   6.427  0.3142 -0.1968 -0.7533
  322MOL0     C43399   6.956   6.694   6.568 -0.2626  0.1564 -1.4822
  322MOL0     C43400   6.945   6.704   6.688 -0.5815  0.6465 -0.5118
  322MOL0     C43401   7.286   6.246   6.029 -0.2716 -0.7665 -0.8201
  322MOL0     C43402   7.342   6.144   5.951 -0.3117  0.2828  0.5098
  322MOL0     H43403   7.396   6.032   5.339  0.8236 -1.2149 -1.5880
  322MOL0     H43404   7.436   5.843   5.185 -1.0179 -0.0811 -0.0600
  322MOL0     H43405   7.239   5.609   5.200  1.3836  0.7419  2.1807
  322MOL0     H43406   7.359   5.620   5.066  2.9422 -4.5942 -2.1732
  322MOL0     H43407   7.324   5.358   5.197 -2.6213  0.7646  0.3679
  322MOL0     H43408   7.207   5.442   5.090 -0.4323  1.7715 -0.0183
  322MOL0     H43409   7.375   5.283   4.996  2.1734 -0.7048  4.4557
  322MOL0     H43410   7.354   5.456   4.920 -1.1497  0.5971  0.5962
  322MOL0     H43411   7.576   5.514   4.989  1.3402 -0.1827 -0.7477
  322MOL0     H43412   7.584   5.360   5.086  1.2672 -3.9742 -1.6040
  322MOL0     H43413   7.628   5.229   4.885  2.5781  0.2826  1.9022
  322MOL0     H43414   7.561   5.361   4.782  0.3604 -0.0148 -1.0514
  322MOL0     H43415   7.811   5.340   4.764  1.5279  1.1883  0.1604
  322MOL0     H43416   7.748   5.497   4.814  0.4200 -0.4997 -4.0139
  322MOL0     H43417   7.808   5.407   5.050  1.2399 -0.9658  1.3760
  322MOL0     H43418   7.878   5.265   4.970  0.7293 -0.6230 -0.1658
  322MOL0     H43419   8.078   5.402   5.020 -1.4786 -0.4917  0.2053
  322MOL0     H43420   7.993   5.544   4.972  5.0218 -0.1862 -0.0599
  322MOL0     H43421   8.096   5.214   4.793  0.2327  0.8479  1.8646
  322MOL0     H43422   8.325   5.251   4.585 -0.0851 -1.5964  1.1628
  322MOL0     H43423   8.174   5.161   4.572  0.8083 -1.7072 -0.1027
  322MOL0     H43424   8.315   5.232   4.359 -0.4716  0.0167 -2.4713
  322MOL0     H43425   8.277   5.398   4.388 -1.4638  2.2012  4.2922
  322MOL0     H43426   8.105   5.333   4.222 -2.4471 -2.0311 -0.9505
  322MOL0     H43427   8.015   5.327   4.358 -1.0797  0.3374 -2.9414
  322MOL0     H43428   8.067   5.075   4.389 -1.8574 -0.7720  0.0289
  322MOL0     H43429   8.147   5.077   4.226  1.7987  2.6774 -0.5664
  322MOL0     H43430   7.786   5.296   4.158 -1.5043  0.2922 -1.6019
  322MOL0     H43431   7.586   5.334   3.875  0.9509 -1.7228 -1.1184
  322MOL0     H43432   7.658   5.436   4.003  2.3855 -0.8022  0.4768
  322MOL0     H43433   7.721   5.457   3.856 -1.4165  2.4598  1.3582
  322MOL0     H43434   7.819   5.302   3.448 -1.3384  2.2967 -1.1531
  322MOL0     H43435   7.745   5.282   3.200  2.5494 -1.6487  0.8940
  322MOL0     H43436   7.509   4.953   3.109  4.0385  3.1417  1.7698
  322MOL0     H43437   7.373   5.047   3.106  0.4946  0.1021  0.0467
  322MOL0     H43438   7.384   4.972   2.875 -0.7022  1.0458 -2.8958
  322MOL0     H43439   7.410   5.140   2.875  0.5243  0.4467  0.0484
  322MOL0     H43440   7.602   4.915   2.823 -1.5305  0.0426 -1.4898
  322MOL0     H43441   7.671   5.073   2.871 -1.4824 -0.1631  2.9932
  322MOL0     H43442   7.503   4.999   2.626  0.4792 -0.5665  0.2282
  322MOL0     H43443   7.539   5.165   2.673  0.0298  0.6738 -0.9183
  322MOL0     H43444   7.759   4.969   2.614  1.4446  1.1060 -0.5653
  322MOL0     H43445   7.764   5.141   2.641  2.0359 -0.4858 -1.7426
  322MOL0     H43446   7.780   5.114   2.417 -0.8059  0.9758 -0.8483
  322MOL0     H43447   7.662   4.989   2.409  1.7037  0.3832 -0.1770
  322MOL0     H43448   7.596   5.275   2.491 -0.1605 -0.6194  0.0923
  322MOL0     H43449   7.490   5.145   2.451 -1.1628  0.8761  2.4146
  322MOL0     H43450   7.527   5.300   2.239 -0.4256 -2.7396 -3.4001
  322MOL0     H43451   7.593   5.143   2.213 -0.1967 -1.7527  0.8480
  322MOL0     H43452   7.413   5.036   3.331 -1.0493  1.1047  0.2386
  322MOL0     H43453   7.460   5.118   3.555  1.4178  1.1844 -0.5171
  322MOL0     H43454   7.974   5.018   3.793 -1.1978 -1.3367 -0.8186
  322MOL0     H43455   8.052   5.002   4.046  0.0511 -0.7859 -1.1384
  322MOL0     H43456   7.415   5.575   5.512 -3.2873 -1.2334 -0.4176
  322MOL0     H43457   7.400   5.756   5.674  1.1724  0.9740 -0.0262
  322MOL0     H43458   7.295   6.290   5.640 -1.4631 -3.0818 -0.4245
  322MOL0     H43459   7.175   6.450   5.788 -1.2962 -1.2828  0.1569
  322MOL0     H43460   7.094   6.344   6.207 -0.3906  0.1559  0.8127
  322MOL0     H43461   7.248   6.425   6.251 -0.8688 -0.0892  1.5338
  322MOL0     H43462   6.978   6.546   6.176  0.6957  0.3952 -1.0253
  322MOL0     H43463   7.111   6.651   6.214  1.8650 -0.5917  0.6976
  322MOL0     H43464   7.142   6.566   6.436  0.7948  1.2020 -1.0404
  322MOL0     H43465   6.999   6.465   6.415  0.1386 -0.2797 -0.2925
  322MOL0     H43466   6.871   6.683   6.390 -0.7952 -0.2034  2.0985
  322MOL0     H43467   7.025   6.772   6.386 -1.6606  0.9063 -0.9581
  322MOL0     H43468   6.922   6.704   6.792 -2.3614 -1.2434 -0.8500
  322MOL0     H43469   7.294   6.253   6.137 -1.2975  5.6661 -0.7799
  322MOL0     H43470   7.384   6.062   6.008 -1.4230 -0.3769  0.3966
  323MOL0     O43471   7.457   6.482   3.709 -0.6496  0.0481  0.1956
  323MOL0     C43472   7.397   6.414   3.627  0.4352 -0.2423 -0.0912
  323MOL0     O43473   7.427   6.398   3.495  0.7046 -0.0702  0.3420
  323MOL0     C43474   7.550   6.391   3.448 -0.1619  0.3196 -0.1310
  323MOL0     C43475   7.666   6.365   3.520  0.5238 -0.4435  0.0176
  323MOL0     C43476   7.789   6.356   3.457 -0.6612  0.0975  0.7288
  323MOL0     C43477   7.799   6.362   3.318  0.2757  0.2020  0.0062
  323MOL0     O43478   7.910   6.343   3.241 -0.2020  0.4240  0.0066
  323MOL0     C43479   8.040   6.366   3.308  0.0592  0.0235  0.3117
  323MOL0     C43480   8.144   6.301   3.213 -0.4284 -0.5030  0.0441
  323MOL0     C43481   8.119   6.157   3.192  0.0154  0.6874  0.4496
  323MOL0     C43482   8.213   6.114   3.077  0.4598 -0.6566  0.8430
  323MOL0     C43483   8.181   5.974   3.018  0.1051 -1.0675 -0.8791
  323MOL0     C43484   8.155   5.860   3.117 -0.5330  0.6316 -0.3164
  323MOL0     C43485   8.154   5.719   3.049 -0.0937 -0.3029 -0.0284
  323MOL0     C43486   8.019   5.687   2.985  0.1236  0.7761  0.0974
  323MOL0     N43487   7.924   5.648   3.089  0.6200  0.5556  0.8047
  323MOL0     C43488   7.802   5.707   3.121  0.2407 -0.6261  1.3575
  323MOL0     C43489   7.740   5.614   3.194  1.4568  0.2844 -0.2380
  323MOL0     C43490   7.599   5.633   3.229 -0.2279  0.4509 -0.3812
  323MOL0     C43491   7.503   5.570   3.117 -0.4916  0.5688  0.6589
  323MOL0     C43492   7.362   5.617   3.129 -0.0718  0.1792 -0.1348
  323MOL0     C43493   7.279   5.519   3.221  1.0106  0.2794  0.3299
  323MOL0     O43494   7.311   5.532   3.357 -0.9167  0.6679  0.2056
  323MOL0     C43495   7.264   5.450   3.456 -0.0396 -0.5128  0.8240
  323MOL0     C43496   7.272   5.491   3.591 -0.4404  0.1843  0.5197
  323MOL0     C43497   7.244   5.418   3.707  0.7593  0.2000  0.9192
  323MOL0     C43498   7.270   5.483   3.842  0.7234  0.0780  0.3458
  323MOL0     C43499   7.202   5.284   3.687  0.6147  0.3898  0.6237
  323MOL0     C43500   7.148   5.192   3.800  0.2474 -0.1181 -0.2080
  323MOL0     O43501   7.110   5.069   3.755  0.3686 -0.6227  0.6499
  323MOL0     C43502   7.081   4.977   3.855 -1.0705  0.5386  0.9848
  323MOL0     C43503   7.176   4.935   3.941 -0.1057 -0.0744 -1.0445
  323MOL0     C43504   7.141   4.844   4.046 -0.9534  0.7915 -1.1611
  323MOL0     C43505   7.008   4.802   4.059 -0.9304 -0.2216 -0.8114
  323MOL0     O43506   6.954   4.725   4.158  0.5858 -0.1037 -0.5658
  323MOL0     C43507   7.048   4.637   4.231  0.0842  0.2417 -0.4115
  323MOL0     C43508   7.088   4.712   4.359 -0.1853  0.5921 -0.8443
  323MOL0     C43509   7.187   4.625   4.438 -0.4906  0.0206  0.4831
  323MOL0     C43510   7.275   4.715   4.528  0.1790 -0.8602  0.1672
  323MOL0     C43511   7.329   4.633   4.653  0.7679 -0.4512  0.3931
  323MOL0     C43512   7.430   4.533   4.607  0.0464  0.5032  0.6819
  323MOL0     C43513   7.558   4.586   4.545 -0.6495 -1.1563  0.1685
  323MOL0     C43514   7.663   4.495   4.473  0.9473  0.2267  0.0332
  323MOL0    Cl43515   7.593   4.428   4.326 -0.3765 -0.2731  0.4732
  323MOL0     C43516   6.910   4.852   3.979 -1.8375 -0.6356 -0.8643
  323MOL0     C43517   6.950   4.940   3.876  0.0623  0.1943  0.1906
  323MOL0     O43518   7.126   5.239   3.915 -0.5759  0.7698 -0.0715
  323MOL0     C43519   7.184   5.236   3.547 -0.0985 -0.0046  0.0954
  323MOL0     C43520   7.218   5.318   3.436  0.4975 -0.2085  0.1191
  323MOL0     N43521   7.832   5.506   3.219  0.2377 -0.5878 -0.4241
  323MOL0     N43522   7.932   5.530   3.147  0.2364  0.5333 -0.3005
  323MOL0     C43523   7.677   6.383   3.249  0.5094  1.2736 -0.3971
  323MOL0     C43524   7.556   6.407   3.313 -0.3815  0.3194 -0.1884
  323MOL0     C43525   7.260   6.376   3.667  0.7385  0.7159 -0.1519
  323MOL0     C43526   7.153   6.350   3.572  0.0800 -0.1915  0.0619
  323MOL0     C43527   7.018   6.320   3.604 -0.8601 -0.4197  0.0514
  323MOL0     C43528   6.991   6.314   3.737  1.5474  1.0090 -0.8304
  323MOL0     O43529   6.854   6.282   3.744 -0.1119  0.5609  0.0195
  323MOL0     C43530   6.799   6.249   3.870  0.6447  0.1568 -0.0008
  323MOL0     C43531   6.691   6.135   3.846 -0.5280 -0.7346 -0.1723
  323MOL0     C43532   6.564   6.173   3.790  0.9072  0.6823  0.4151
  323MOL0     C43533   6.488   6.051   3.734  0.1417  1.0969 -0.2425
  323MOL0     C43534   6.472   5.942   3.835 -0.7249 -0.9880  0.1949
  323MOL0     C43535   6.475   5.855   3.922  0.4310  0.0791  0.3743
  323MOL0     C43536   7.088   6.334   3.830  0.0084 -0.2481  0.6419
  323MOL0     C43537   7.216   6.370   3.797  1.2638  0.1998 -0.8643
  323MOL0     H43538   7.675   6.370   3.628  3.1798  1.2796 -0.1847
  323MOL0     H43539   7.872   6.331   3.522  0.2899  0.5982 -0.2691
  323MOL0     H43540   8.070   6.469   3.327  3.2842 -0.7288 -0.1083
  323MOL0     H43541   8.034   6.307   3.400  1.6328 -2.1384 -0.8824
  323MOL0     H43542   8.165   6.362   3.124 -1.9728 -1.0309 -0.7209
  323MOL0     H43543   8.235   6.307   3.274 -0.6954 -0.6141  0.4566
  323MOL0     H43544   8.135   6.087   3.275  0.8826 -0.5485 -0.7080
  323MOL0     H43545   8.018   6.144   3.151  0.7483 -2.2830 -0.6638
  323MOL0     H43546   8.203   6.183   2.992 -0.0065 -0.1842  1.2698
  323MOL0     H43547   8.318   6.122   3.106  2.4352 -0.3662 -5.1920
  323MOL0     H43548   8.092   5.983   2.955 -0.1779 -0.7936 -0.4424
  323MOL0     H43549   8.256   5.935   2.948 -1.2139 -4.8929 -0.3854
  323MOL0     H43550   8.234   5.869   3.192 -0.2333  0.6809 -0.6384
  323MOL0     H43551   8.062   5.884   3.170 -0.3844  1.7172 -0.5357
  323MOL0     H43552   8.227   5.706   2.968  0.0605 -2.7328  0.4243
  323MOL0     H43553   8.165   5.641   3.125 -1.6642  1.2814  1.9309
  323MOL0     H43554   8.026   5.609   2.908  1.2163 -0.9915  1.9007
  323MOL0     H43555   7.988   5.778   2.933  1.6702  2.4477  1.9622
  323MOL0     H43556   7.774   5.803   3.079  0.3440 -0.5634  1.4325
  323MOL0     H43557   7.597   5.590   3.330  1.0844  0.2247 -0.4341
  323MOL0     H43558   7.574   5.739   3.237 -0.5679  0.4372 -1.1242
  323MOL0     H43559   7.504   5.461   3.111  0.1716  0.6241 -0.5453
  323MOL0     H43560   7.548   5.605   3.024 -1.6327 -1.7450 -0.8454
  323MOL0     H43561   7.330   5.608   3.025 -1.9925  1.7762  0.2581
  323MOL0     H43562   7.366   5.714   3.178  0.9198 -0.2948  0.7684
  323MOL0     H43563   7.313   5.420   3.189  3.8436  0.6150  1.9871
  323MOL0     H43564   7.171   5.529   3.208  0.6811 -3.2322 -0.6305
  323MOL0     H43565   7.305   5.594   3.599 -0.5337  0.3814 -1.2220
  323MOL0     H43566   7.345   5.562   3.835 -0.0248  0.8182  0.5221
  323MOL0     H43567   7.181   5.507   3.901  0.7489 -0.9317  0.8273
  323MOL0     H43568   7.318   5.403   3.899  0.2522 -1.6705 -1.5777
  323MOL0     H43569   7.273   4.979   3.922  0.4514 -0.5378  0.5754
  323MOL0     H43570   7.229   4.808   4.098 -1.6131  1.8238  0.7930
  323MOL0     H43571   6.997   4.543   4.251  1.6482 -1.3350 -3.1600
  323MOL0     H43572   7.131   4.617   4.163 -0.1861 -0.0204 -0.6646
  323MOL0     H43573   7.132   4.808   4.330  0.7377  0.5610  0.3334
  323MOL0     H43574   7.005   4.721   4.429  1.1794  0.9827  0.8112
  323MOL0     H43575   7.252   4.569   4.371  2.7087  0.7259  2.7882
  323MOL0     H43576   7.130   4.557   4.502  0.6236 -2.3444 -0.9036
  323MOL0     H43577   7.353   4.755   4.462 -0.0289 -0.2983  0.2568
  323MOL0     H43578   7.221   4.802   4.565  1.7380  1.7661 -3.1859
  323MOL0     H43579   7.253   4.580   4.710 -1.1605  0.1321 -1.5117
  323MOL0     H43580   7.370   4.699   4.730 -0.6554  0.0832  0.7246
  323MOL0     H43581   7.455   4.456   4.680  1.0103 -0.2734 -0.4349
  323MOL0     H43582   7.383   4.478   4.525  0.3853  1.7358 -0.3760
  323MOL0     H43583   7.629   4.624   4.619  0.0036 -0.8238 -0.6062
  323MOL0     H43584   7.533   4.660   4.469 -0.9326  0.2392  1.5716
  323MOL0     H43585   7.677   4.417   4.547  0.8951  2.7229  2.8652
  323MOL0     H43586   7.757   4.543   4.443 -0.3728  2.2434 -1.1255
  323MOL0     H43587   6.815   4.804   3.999  0.3740 -4.2684  2.3185
  323MOL0     H43588   6.864   4.967   3.814  1.7804  0.4342 -2.2234
  323MOL0     H43589   7.134   5.141   3.528  0.6338 -0.3200 -0.3230
  323MOL0     H43590   7.215   5.266   3.340 -3.3762 -2.9926  1.4901
  323MOL0     H43591   7.689   6.381   3.141  0.3182 -1.3065 -0.4383
  323MOL0     H43592   7.474   6.437   3.248  0.3215 -1.3297 -1.9749
  323MOL0     H43593   7.195   6.363   3.473  1.1137 -0.7007  0.4131
  323MOL0     H43594   6.951   6.308   3.520 -0.0360 -2.1316 -0.3998
  323MOL0     H43595   6.868   6.204   3.943 -1.6727  1.0771  2.9352
  323MOL0     H43596   6.756   6.342   3.908  0.2419 -0.1282  0.2492
  323MOL0     H43597   6.668   6.080   3.938  2.9921 -0.8271  0.8033
  323MOL0     H43598   6.745   6.054   3.794 -0.9898 -0.6772 -0.7432
  323MOL0     H43599   6.566   6.252   3.714 -1.9113  1.6449  1.1835
  323MOL0     H43600   6.506   6.223   3.868  2.3732  4.7408 -0.8037
  323MOL0     H43601   6.548   6.012   3.651  1.8749 -1.9252  2.2204
  323MOL0     H43602   6.391   6.093   3.706 -0.4744  1.7643  2.5684
  323MOL0     H43603   6.482   5.771   3.988 -0.9140 -0.2204  0.1598
  323MOL0     H43604   7.052   6.330   3.932 -1.8361 -5.1520  0.0455
  323MOL0     H43605   7.277   6.404   3.880 -0.4408  1.3545 -0.0148
  324MOL0     O43606   3.159   8.713   2.498  0.0543  0.5076 -0.5233
  324MOL0     C43607   3.239   8.796   2.453  0.2576 -0.5628  0.4052
  324MOL0     O43608   3.289   8.916   2.506  0.0424 -0.0562  0.7721
  324MOL0     C43609   3.249   8.958   2.629  0.4826 -0.1870  0.7478
  324MOL0     C43610   3.333   8.948   2.742  0.0137 -0.1232 -0.7433
  324MOL0     C43611   3.294   8.996   2.862 -0.6082  1.2859  0.7001
  324MOL0     C43612   3.170   9.066   2.884 -0.2045 -0.1100 -0.7273
  324MOL0     O43613   3.128   9.112   3.005  0.7469 -0.0731 -0.5927
  324MOL0     C43614   2.983   9.117   3.038 -0.4318 -0.7958  0.0224
  324MOL0     C43615   2.930   8.974   3.052 -0.4569 -0.9476  0.5780
  324MOL0     C43616   2.784   8.987   3.098 -0.1823 -0.2112  0.3959
  324MOL0     C43617   2.708   8.857   3.093 -0.1153 -0.1800  0.3561
  324MOL0     C43618   2.559   8.884   3.133  0.6470 -0.3366 -0.5529
  324MOL0     C43619   2.534   8.904   3.287  1.1149  0.2757  0.1968
  324MOL0     C43620   2.573   8.782   3.374  0.1241  0.1105  0.2072
  324MOL0     C43621   2.450   8.686   3.371 -0.6655 -0.8070 -0.0727
  324MOL0     N43622   2.467   8.564   3.438 -0.3037 -0.9672  0.5871
  324MOL0     C43623   2.579   8.491   3.433 -0.4496  0.3040 -0.3111
  324MOL0     C43624   2.551   8.382   3.501  0.3151 -0.0758  0.3821
  324MOL0     C43625   2.652   8.273   3.526  0.3830 -1.3099  0.4490
  324MOL0     C43626   2.708   8.274   3.667  0.0600  0.1285 -0.6216
  324MOL0     C43627   2.760   8.137   3.698 -0.4178  0.5591  0.0261
  324MOL0     C43628   2.822   8.143   3.841  0.8877 -1.1748  0.9281
  324MOL0     O43629   2.869   8.008   3.854 -0.2347  0.2875  0.1759
  324MOL0     C43630   2.858   7.961   3.977  0.3620  0.0540 -0.2972
  324MOL0     C43631   2.726   7.917   4.027 -0.5335  0.3765  0.0166
  324MOL0     C43632   2.707   7.882   4.156 -0.5023  0.6414 -0.1871
  324MOL0     C43633   2.568   7.840   4.184 -0.9042 -0.7638  0.3137
  324MOL0     C43634   2.812   7.889   4.244 -0.5166 -0.3640 -0.3182
  324MOL0     C43635   2.807   7.847   4.388  0.5743  0.4615 -0.6132
  324MOL0     O43636   2.911   7.892   4.468 -0.3557 -0.3307 -0.3661
  324MOL0     C43637   2.904   7.845   4.596  0.1858  0.2201 -0.3799
  324MOL0     C43638   2.950   7.720   4.627 -0.3065  0.5595  0.3195
  324MOL0     C43639   2.966   7.689   4.759  0.1720 -0.1901 -0.2801
  324MOL0     C43640   2.922   7.769   4.871 -0.1754 -0.5472  0.2123
  324MOL0     O43641   2.945   7.729   5.002  0.6911 -0.4875 -0.7822
  324MOL0     C43642   2.843   7.777   5.096 -1.0904 -0.7242  0.2492
  324MOL0     C43643   2.905   7.901   5.172  0.6462  0.0852  1.0011
  324MOL0     C43644   2.812   7.982   5.270 -0.2962 -0.2841  0.3259
  324MOL0     C43645   2.885   8.126   5.305  1.0422 -0.8204 -0.1570
  324MOL0     C43646   3.015   8.103   5.381 -0.1468  0.0907  0.2492
  324MOL0     C43647   3.081   8.242   5.408 -0.1735 -0.1873  0.0499
  324MOL0     C43648   3.213   8.239   5.499 -0.1769  0.2985 -0.7335
  324MOL0     C43649   3.179   8.197   5.646 -0.2996  0.6986 -0.5463
  324MOL0    Cl43650   3.042   8.293   5.710 -0.6298  0.0768 -0.6276
  324MOL0     C43651   2.863   7.894   4.835 -1.0366  0.9717 -0.1908
  324MOL0     C43652   2.867   7.930   4.696 -0.1933 -0.1455  0.4175
  324MOL0     O43653   2.701   7.794   4.424 -0.0933 -0.5553  0.9393
  324MOL0     C43654   2.938   7.935   4.203  0.1114 -0.1166  0.3938
  324MOL0     C43655   2.966   7.974   4.059  0.8016 -0.0139 -0.7872
  324MOL0     N43656   2.432   8.389   3.554  0.5554  0.9631 -0.5403
  324MOL0     N43657   2.381   8.505   3.527  0.2877  0.1670 -0.0868
  324MOL0     C43658   3.098   9.085   2.765 -0.0713  0.2357  0.7876
  324MOL0     C43659   3.134   9.031   2.640  0.0543 -0.3071  0.0587
  324MOL0     C43660   3.302   8.774   2.317 -0.0882  0.2963 -0.5475
  324MOL0     C43661   3.393   8.865   2.251  0.9008 -0.0473 -1.5240
  324MOL0     C43662   3.435   8.831   2.121 -0.7408  0.4754  0.4913
  324MOL0     C43663   3.404   8.709   2.062  0.3758  0.2441 -0.3972
  324MOL0     O43664   3.437   8.667   1.935 -0.2374  0.2923  0.0394
  324MOL0     C43665   3.467   8.765   1.833  0.5948 -1.1551  0.5047
  324MOL0     C43666   3.348   8.847   1.805 -0.0117 -0.2424 -0.2181
  324MOL0     C43667   3.357   8.980   1.722  0.2591 -0.3807  0.1534
  324MOL0     C43668   3.382   8.965   1.577 -0.1065  0.2447 -0.5563
  324MOL0     C43669   3.501   8.890   1.543 -0.0889 -0.2624 -0.0766
  324MOL0     C43670   3.591   8.825   1.504 -0.0750  0.1245  0.5558
  324MOL0     C43671   3.323   8.615   2.132  0.0100 -0.7033  0.2046
  324MOL0     C43672   3.269   8.652   2.252  0.0933  0.3326  0.0843
  324MOL0     H43673   3.434   8.912   2.730  0.7594  1.4844  0.3074
  324MOL0     H43674   3.356   8.985   2.950 -0.1319  0.3059  0.2591
  324MOL0     H43675   2.975   9.171   3.133  0.7869  0.2602 -0.4442
  324MOL0     H43676   2.931   9.173   2.959 -0.6236  1.1311  1.4310
  324MOL0     H43677   2.921   8.926   2.954 -0.5302 -0.9217  0.5719
  324MOL0     H43678   2.986   8.912   3.123 -0.2088  0.6291  1.8130
  324MOL0     H43679   2.799   9.015   3.203  0.8477 -0.8451  0.4339
  324MOL0     H43680   2.733   9.063   3.039  0.2397 -0.4823 -0.3293
  324MOL0     H43681   2.716   8.818   2.991 -1.6590 -1.5766  0.7262
  324MOL0     H43682   2.758   8.787   3.162  0.8001  0.2872  0.1865
  324MOL0     H43683   2.528   8.972   3.076  2.2273  0.7369  0.1889
  324MOL0     H43684   2.488   8.811   3.093 -0.2050  0.0616  0.1972
  324MOL0     H43685   2.591   8.987   3.329 -2.1300  1.8830  1.8002
  324MOL0     H43686   2.427   8.918   3.304  1.2279 -0.2071  1.3809
  324MOL0     H43687   2.667   8.729   3.352  0.4625  0.3270  1.0946
  324MOL0     H43688   2.580   8.814   3.478  0.8251  0.9786 -0.0943
  324MOL0     H43689   2.444   8.667   3.263  0.6889  0.0277 -0.3253
  324MOL0     H43690   2.355   8.731   3.402 -0.6947 -1.1469  0.3272
  324MOL0     H43691   2.675   8.532   3.406 -1.1901  2.5313  0.2513
  324MOL0     H43692   2.605   8.177   3.506 -2.4217 -0.0798  0.7080
  324MOL0     H43693   2.740   8.279   3.461  0.0630 -2.4437 -0.1077
  324MOL0     H43694   2.636   8.306   3.743  1.0369 -0.7078  0.7229
  324MOL0     H43695   2.787   8.350   3.673  0.2014 -0.1236  2.5361
  324MOL0     H43696   2.835   8.105   3.625 -1.1928 -1.2117 -0.0264
  324MOL0     H43697   2.673   8.073   3.685  0.3044 -0.4110 -0.1509
  324MOL0     H43698   2.744   8.168   3.914 -1.6252 -0.9600 -1.6507
  324MOL0     H43699   2.915   8.200   3.842  1.7001 -2.1105 -3.0424
  324MOL0     H43700   2.648   7.911   3.952 -0.3503  1.5508 -0.2907
  324MOL0     H43701   2.522   7.905   4.259 -1.7166 -2.0288  0.9301
  324MOL0     H43702   2.497   7.862   4.103 -0.2200  2.6926  0.4812
  324MOL0     H43703   2.565   7.738   4.222 -0.1676 -0.3906  1.4328
  324MOL0     H43704   2.977   7.663   4.538  2.1982  0.1343  1.2613
  324MOL0     H43705   3.019   7.598   4.784 -1.8084 -0.3711  4.3499
  324MOL0     H43706   2.749   7.795   5.042 -0.3776  1.6125 -0.3169
  324MOL0     H43707   2.824   7.704   5.176 -0.8261  0.1140  1.0900
  324MOL0     H43708   2.993   7.871   5.228  0.5441  0.1904  1.2165
  324MOL0     H43709   2.945   7.967   5.094  1.3670 -2.0074 -0.4801
  324MOL0     H43710   2.795   7.925   5.361 -2.2938 -1.4426 -0.7088
  324MOL0     H43711   2.718   8.016   5.225  0.1992  0.1775 -0.3959
  324MOL0     H43712   2.895   8.193   5.219  2.4602 -0.0750  0.5584
  324MOL0     H43713   2.823   8.184   5.372  0.2490 -0.8503 -0.8489
  324MOL0     H43714   3.086   8.043   5.324  1.1536  1.5958  0.2292
  324MOL0     H43715   2.983   8.051   5.472  0.8978 -0.1317  0.5075
  324MOL0     H43716   3.102   8.289   5.312 -3.0002 -0.1205 -0.6366
  324MOL0     H43717   3.015   8.319   5.451 -0.1373  1.6985 -3.0121
  324MOL0     H43718   3.261   8.337   5.498 -1.4840  0.9744 -2.0423
  324MOL0     H43719   3.289   8.173   5.457 -0.4959 -1.1605  0.8708
  324MOL0     H43720   3.263   8.191   5.715 -0.8544 -0.1561  0.0814
  324MOL0     H43721   3.146   8.093   5.634 -0.4437  0.5616  0.8382
  324MOL0     H43722   2.815   7.950   4.914 -0.4033 -0.8546  1.5737
  324MOL0     H43723   2.828   8.029   4.673  2.3338  0.8951  0.2447
  324MOL0     H43724   3.015   7.940   4.279  1.0596  0.4887 -0.5825
  324MOL0     H43725   3.058   8.027   4.035  0.5555  0.4437 -0.7377
  324MOL0     H43726   3.002   9.134   2.773  0.0563  0.4706  0.8725
  324MOL0     H43727   3.085   9.071   2.552  3.9510  2.6863 -1.0210
  324MOL0     H43728   3.401   8.968   2.283 -0.7110 -0.1330 -0.7495
  324MOL0     H43729   3.495   8.894   2.057 -1.1079 -0.3523 -0.7017
  324MOL0     H43730   3.553   8.826   1.864  1.0531 -2.9248  2.9980
  324MOL0     H43731   3.491   8.727   1.733  3.8450 -0.2934  0.8356
  324MOL0     H43732   3.311   8.883   1.901  1.6496 -2.5953  1.4326
  324MOL0     H43733   3.275   8.779   1.761  2.9029 -1.8702 -3.0075
  324MOL0     H43734   3.429   9.052   1.762 -1.9368  1.4391  1.0775
  324MOL0     H43735   3.264   9.036   1.729  0.9779  0.8881 -0.1151
  324MOL0     H43736   3.362   9.057   1.521 -1.3297  1.0250  1.0566
  324MOL0     H43737   3.302   8.900   1.540  3.3203 -3.2247 -2.6137
  324MOL0     H43738   3.668   8.776   1.448 -0.2270  0.1674  0.3053
  324MOL0     H43739   3.297   8.528   2.072  0.5830  0.2157 -1.4438
  324MOL0     H43740   3.197   8.589   2.303 -0.9734  2.3895  1.2419
  325MOL0     O43741   4.937   2.999   4.470  0.3668  0.0695  0.1320
  325MOL0     C43742   5.014   2.997   4.564 -0.1245  0.1346  0.1434
  325MOL0     O43743   5.027   3.094   4.655  0.1271  0.9000  0.6776
  325MOL0     C43744   4.951   3.204   4.642  0.7439 -1.3940 -0.4206
  325MOL0     C43745   5.002   3.302   4.557 -0.5182  0.8840  0.9443
  325MOL0     C43746   4.931   3.426   4.563 -0.5739  0.0510 -0.0648
  325MOL0     C43747   4.821   3.462   4.633  0.4724  0.3843 -0.3640
  325MOL0     O43748   4.795   3.590   4.618 -0.2347 -0.4097  0.6032
  325MOL0     C43749   4.686   3.639   4.702 -1.0892  0.1318  0.5699
  325MOL0     C43750   4.744   3.668   4.840  0.7723 -0.6271 -0.0034
  325MOL0     C43751   4.829   3.799   4.835  0.0748 -0.1313 -1.0274
  325MOL0     C43752   4.889   3.819   4.972 -0.4628  0.1576 -0.2500
  325MOL0     C43753   4.920   3.962   5.006 -0.0933  1.3049  1.0166
  325MOL0     C43754   5.023   4.024   4.915  0.0936 -1.1993 -0.7620
  325MOL0     C43755   5.074   4.158   4.968 -0.2080 -0.6030  0.8098
  325MOL0     C43756   5.189   4.213   4.880  0.3785  0.0922 -1.5605
  325MOL0     N43757   5.153   4.282   4.762 -0.5458 -0.5570 -0.8417
  325MOL0     C43758   5.069   4.390   4.751 -0.0830 -0.0072  1.1940
  325MOL0     C43759   5.069   4.426   4.620  0.2056  0.0772  0.8845
  325MOL0     C43760   5.001   4.542   4.548  1.0827 -0.4638  0.4024
  325MOL0     C43761   4.860   4.517   4.510  0.4860 -0.3762 -0.1067
  325MOL0     C43762   4.844   4.394   4.425 -0.3949  0.1677 -0.0024
  325MOL0     C43763   4.904   4.397   4.281 -0.5927 -0.7212  0.8531
  325MOL0     O43764   4.839   4.504   4.209 -0.0014 -0.0629  0.2117
  325MOL0     C43765   4.734   4.464   4.129  0.6883  1.1390 -0.1586
  325MOL0     C43766   4.606   4.475   4.174 -0.9931 -0.1751  0.9932
  325MOL0     C43767   4.495   4.448   4.088 -0.2169 -0.6772 -0.0205
  325MOL0     C43768   4.365   4.456   4.160  0.3563 -0.8473  0.3836
  325MOL0     C43769   4.518   4.395   3.958 -0.6041  0.1675  1.1731
  325MOL0     C43770   4.415   4.362   3.856 -0.0090 -0.6609  1.6232
  325MOL0     O43771   4.462   4.297   3.743 -0.7513  0.3128 -0.5743
  325MOL0     C43772   4.391   4.297   3.627 -0.2788 -0.1825 -0.0590
  325MOL0     C43773   4.399   4.407   3.543  0.1848 -0.1210 -0.5604
  325MOL0     C43774   4.342   4.421   3.416  0.8309 -0.3136  0.1468
  325MOL0     C43775   4.257   4.315   3.374  0.9666  0.9110 -0.5895
  325MOL0     O43776   4.202   4.330   3.255  0.3224 -0.0088  0.3076
  325MOL0     C43777   4.154   4.216   3.176 -0.0132 -0.1842  0.3131
  325MOL0     C43778   4.093   4.244   3.031 -0.1129  0.0374  0.3898
  325MOL0     C43779   4.190   4.315   2.935  0.0731 -0.3529  0.2745
  325MOL0     C43780   4.185   4.460   2.966  1.0061 -0.3302 -0.5172
  325MOL0     C43781   4.260   4.542   2.872 -0.2765 -0.6625  0.0686
  325MOL0     C43782   4.416   4.514   2.868  0.5638  0.1271  0.4602
  325MOL0     C43783   4.490   4.624   2.812  0.0081 -0.1753 -0.1320
  325MOL0     C43784   4.638   4.606   2.828 -0.3253  0.4516 -0.0109
  325MOL0    Cl43785   4.687   4.605   3.006  0.1763  0.8710 -0.1355
  325MOL0     C43786   4.254   4.194   3.454 -0.0704 -0.6795 -0.3310
  325MOL0     C43787   4.316   4.191   3.588  0.3678  0.0464 -0.3534
  325MOL0     O43788   4.297   4.394   3.863  0.5389  0.2917 -0.5470
  325MOL0     C43789   4.648   4.358   3.926  0.4369  0.2465  0.4210
  325MOL0     C43790   4.761   4.395   4.008  0.1822  0.2322  0.2926
  325MOL0     N43791   5.149   4.329   4.551  0.8102 -0.0651 -0.8334
  325MOL0     N43792   5.198   4.246   4.633  0.5594  0.2514  0.6459
  325MOL0     C43793   4.773   3.352   4.710  0.1488 -0.3040  0.6467
  325MOL0     C43794   4.832   3.216   4.715 -0.7376 -0.4192 -0.4430
  325MOL0     C43795   5.104   2.882   4.568  0.0960  0.2421 -0.5324
  325MOL0     C43796   5.206   2.874   4.660  0.1256  0.3700  0.1948
  325MOL0     C43797   5.280   2.754   4.674  0.0263 -0.2337 -0.6549
  325MOL0     C43798   5.260   2.643   4.589 -0.2368 -0.6170  0.7936
  325MOL0     O43799   5.324   2.520   4.600  0.6342  0.0089  0.5952
  325MOL0     C43800   5.413   2.478   4.696 -0.0856  0.1947 -1.1527
  325MOL0     C43801   5.544   2.548   4.699  0.8162 -0.2331  0.5502
  325MOL0     C43802   5.645   2.502   4.794 -1.3137  0.7591 -0.5054
  325MOL0     C43803   5.761   2.421   4.729 -0.5477  0.5724 -0.6685
  325MOL0     C43804   5.860   2.390   4.839 -0.5664 -0.8611  0.1767
  325MOL0     C43805   5.938   2.366   4.932 -0.6645  0.6707  0.5507
  325MOL0     C43806   5.166   2.658   4.488 -0.6482 -0.0552 -0.1389
  325MOL0     C43807   5.097   2.770   4.471  0.4879  0.0775  0.6543
  325MOL0     H43808   5.072   3.278   4.478 -4.6038 -3.1805 -2.0239
  325MOL0     H43809   4.970   3.500   4.494  1.4817 -0.3796  0.5383
  325MOL0     H43810   4.639   3.726   4.656 -0.5316  0.3626  0.4241
  325MOL0     H43811   4.610   3.560   4.703  0.3766 -1.4106 -1.4044
  325MOL0     H43812   4.665   3.687   4.914 -0.3457 -5.7994  0.4946
  325MOL0     H43813   4.819   3.593   4.866  1.1080 -0.3514 -0.1652
  325MOL0     H43814   4.910   3.771   4.767  3.4081  2.9777  1.2870
  325MOL0     H43815   4.767   3.884   4.807  0.3856  0.3151 -0.3785
  325MOL0     H43816   4.826   3.792   5.058  1.6174  1.0215  1.6434
  325MOL0     H43817   4.974   3.751   4.982  1.0192  1.6968 -1.7385
  325MOL0     H43818   4.826   4.017   4.988 -1.8135 -0.9792  2.4845
  325MOL0     H43819   4.952   3.968   5.110  0.7830  2.1681  0.7192
  325MOL0     H43820   5.095   3.945   4.892  0.0734 -1.0464 -1.3667
  325MOL0     H43821   4.963   4.050   4.828 -2.9993  3.1017  2.2458
  325MOL0     H43822   4.993   4.229   4.990 -0.4468 -0.1433 -1.2705
  325MOL0     H43823   5.124   4.143   5.064  0.1734  1.9207  1.0729
  325MOL0     H43824   5.259   4.131   4.859  1.5454  0.2700  1.2011
  325MOL0     H43825   5.245   4.281   4.946 -1.1921  1.6990 -1.8179
  325MOL0     H43826   5.004   4.439   4.823 -3.7912 -0.9814 -1.1700
  325MOL0     H43827   5.001   4.630   4.614 -0.9438 -2.1745  2.8557
  325MOL0     H43828   5.057   4.584   4.464 -0.2674  0.6503  0.0123
  325MOL0     H43829   4.820   4.603   4.455  0.2230  0.5789  1.5197
  325MOL0     H43830   4.788   4.505   4.591 -0.1356 -0.8984 -0.7316
  325MOL0     H43831   4.735   4.384   4.420 -0.4481  1.0976 -1.1877
  325MOL0     H43832   4.869   4.307   4.486 -0.9927  1.4259  2.1642
  325MOL0     H43833   4.875   4.303   4.233 -2.3985  0.7044 -1.0852
  325MOL0     H43834   5.013   4.406   4.280 -0.6693  0.5920  1.9172
  325MOL0     H43835   4.590   4.516   4.273 -1.8554 -1.0784  1.2370
  325MOL0     H43836   4.285   4.474   4.087 -0.1878  3.4449  1.7769
  325MOL0     H43837   4.349   4.355   4.198 -3.7327 -0.8976 -0.9169
  325MOL0     H43838   4.347   4.535   4.234  0.9056  1.2804 -1.6173
  325MOL0     H43839   4.452   4.500   3.566  1.8590 -0.4741 -2.6453
  325MOL0     H43840   4.334   4.513   3.359  2.8398 -1.7505 -2.7306
  325MOL0     H43841   4.235   4.145   3.158 -0.4290 -0.9533  1.3810
  325MOL0     H43842   4.073   4.170   3.234 -0.9874  1.2695  0.1698
  325MOL0     H43843   4.071   4.142   2.999  1.2411 -0.3345  0.5673
  325MOL0     H43844   4.002   4.300   3.055  0.5617  2.3000 -1.8890
  325MOL0     H43845   4.166   4.297   2.830 -0.6268  3.2123 -0.3319
  325MOL0     H43846   4.285   4.267   2.957  0.2607 -0.5667 -0.9366
  325MOL0     H43847   4.084   4.500   2.959  0.4095 -1.5612  0.5702
  325MOL0     H43848   4.216   4.465   3.071  0.9598 -3.4430 -0.2536
  325MOL0     H43849   4.250   4.649   2.894 -1.4050 -0.9501  1.1107
  325MOL0     H43850   4.227   4.523   2.770  0.1937 -0.8993 -0.0397
  325MOL0     H43851   4.448   4.501   2.972  1.6613 -0.8154  0.0138
  325MOL0     H43852   4.428   4.425   2.806 -1.1638 -1.8714  2.8114
  325MOL0     H43853   4.465   4.717   2.865 -2.8362 -2.3649  2.8140
  325MOL0     H43854   4.462   4.624   2.706 -1.6182 -2.1526  0.2325
  325MOL0     H43855   4.710   4.677   2.787 -0.1976  0.6272  0.4997
  325MOL0     H43856   4.674   4.511   2.788  0.5931  0.1197  1.4920
  325MOL0     H43857   4.190   4.110   3.427  0.8659 -0.6977 -2.7022
  325MOL0     H43858   4.304   4.104   3.652  0.0813 -0.2192 -0.7626
  325MOL0     H43859   4.663   4.321   3.825 -3.6321  0.4906 -0.4329
  325MOL0     H43860   4.860   4.386   3.964 -0.6026 -0.1249 -1.4361
  325MOL0     H43861   4.681   3.354   4.768 -1.2716  2.4041 -1.4915
  325MOL0     H43862   4.780   3.147   4.780 -1.9725  0.8450 -0.0467
  325MOL0     H43863   5.220   2.960   4.725 -2.1004  3.5562 -3.1170
  325MOL0     H43864   5.354   2.748   4.753  0.8903  0.1846 -1.4167
  325MOL0     H43865   5.368   2.489   4.795  0.1042  1.6925 -1.2110
  325MOL0     H43866   5.434   2.374   4.669  0.1339 -0.8443  2.4547
  325MOL0     H43867   5.530   2.653   4.726  2.9044  0.7129 -1.7324
  325MOL0     H43868   5.571   2.554   4.593  1.8072 -0.0062  0.8100
  325MOL0     H43869   5.600   2.449   4.879 -0.0646 -0.1233 -0.3692
  325MOL0     H43870   5.702   2.590   4.826 -0.0833  1.2115 -3.5758
  325MOL0     H43871   5.813   2.454   4.638  2.6852 -1.0969  0.4291
  325MOL0     H43872   5.731   2.321   4.695 -0.5974 -0.0003  0.9957
  325MOL0     H43873   6.010   2.336   5.006  0.8953  1.1897 -0.7154
  325MOL0     H43874   5.156   2.580   4.413 -0.0013  0.1736 -0.4629
  325MOL0     H43875   5.036   2.773   4.381 -1.1337 -1.8299  1.6261
  326MOL0     O43876   1.363   0.968  10.849 -0.0186  0.1623 -0.0325
  326MOL0     C43877   1.331   1.052  10.932 -0.0102  0.7499 -0.2384
  326MOL0     O43878   1.218   1.034  11.016 -0.6605 -0.1440 -0.0094
  326MOL0     C43879   1.143   0.919  11.001 -0.2117 -0.9353  0.3353
  326MOL0     C43880   1.169   0.802  11.079  0.7212 -0.6579  0.3910
  326MOL0     C43881   1.091   0.680  11.068  0.6605 -0.3011 -0.9172
  326MOL0     C43882   0.997   0.677  10.966  0.1278  0.3340  0.3911
  326MOL0     O43883   0.941   0.556  10.959  0.5894 -0.0896 -0.2105
  326MOL0     C43884   0.806   0.522  10.923  0.0572 -0.4964 -0.3320
  326MOL0     C43885   0.799   0.378  10.887 -0.1823 -0.2679 -1.0506
  326MOL0     C43886   0.831   0.286  11.001 -0.7547  0.5280  0.1486
  326MOL0     C43887   0.923   0.162  10.981  0.6122  0.5671 -0.1350
  326MOL0     C43888   0.860   0.062  10.880  0.5782 -0.6119 -0.2130
  326MOL0     C43889   0.941  -0.058  10.835 -0.7901 -0.4541 -0.0918
  326MOL0     C43890   1.050  -0.020  10.736 -0.1864 -0.4446  0.8994
  326MOL0     C43891   1.149  -0.133  10.728 -0.3992  0.3738 -0.1197
  326MOL0     N43892   1.251  -0.114  10.618  0.2115 -0.3359  0.1434
  326MOL0     C43893   1.330   0.003  10.591 -0.3383 -0.2417  0.2279
  326MOL0     C43894   1.403  -0.032  10.480  0.2493  0.4412 -0.9237
  326MOL0     C43895   1.491   0.058  10.403  0.1530  0.0028  0.0512
  326MOL0     C43896   1.634   0.007  10.400  0.7324 -0.5271 -0.6047
  326MOL0     C43897   1.660  -0.104  10.306  0.3739  0.7275 -0.8983
  326MOL0     C43898   1.807  -0.129  10.281 -0.5054 -0.3638 -0.7669
  326MOL0     O43899   1.871  -0.011  10.215  0.0362  1.0848 -0.5073
  326MOL0     C43900   1.999  -0.010  10.168 -0.0144  0.1368  0.0015
  326MOL0     C43901   2.102  -0.101  10.199  0.4168  0.4996  0.3065
  326MOL0     C43902   2.234  -0.088  10.145 -0.6124  0.4398 -1.1606
  326MOL0     C43903   2.342  -0.182  10.191 -0.2090  0.3487  0.0197
  326MOL0     C43904   2.267   0.026  10.068  0.0339 -0.3361  0.5284
  326MOL0     C43905   2.406   0.073  10.029  0.9162  0.2591  0.0148
  326MOL0     O43906   2.409   0.196   9.982  0.3595 -0.3476  0.0644
  326MOL0     C43907   2.528   0.246   9.943 -0.6230 -1.7558  1.2724
  326MOL0     C43908   2.630   0.272  10.035  0.1146 -0.7954  0.3078
  326MOL0     C43909   2.751   0.329   9.988  0.3676 -0.4176 -1.0801
  326MOL0     C43910   2.765   0.365   9.857 -0.8547  0.2476  0.6914
  326MOL0     O43911   2.884   0.413   9.821  0.4769 -0.7380  0.8597
  326MOL0     C43912   2.926   0.391   9.686 -0.8300  0.2754 -0.5461
  326MOL0     C43913   3.071   0.442   9.667  0.6571  1.1653  0.4496
  326MOL0     C43914   3.085   0.585   9.652 -0.0271 -1.1951 -0.3461
  326MOL0     C43915   3.225   0.630   9.705  0.0807 -0.2599  0.1990
  326MOL0     C43916   3.224   0.780   9.703 -0.4280  0.0516  0.8270
  326MOL0     C43917   3.371   0.827   9.733  0.7819 -0.0110  0.1706
  326MOL0     C43918   3.377   0.971   9.791  0.2449 -0.0438 -0.4759
  326MOL0     C43919   3.316   1.077   9.700 -1.1791 -0.6343 -1.2790
  326MOL0    Cl43920   3.405   1.087   9.551  0.0633  0.4741  0.1473
  326MOL0     C43921   2.656   0.350   9.764  0.2955 -0.1383 -0.5274
  326MOL0     C43922   2.535   0.291   9.809 -0.4191  0.2726  0.8263
  326MOL0     O43923   2.495  -0.004  10.041  0.3974  0.4962  0.8576
  326MOL0     C43924   2.158   0.114  10.030 -0.4159  0.6782  0.3702
  326MOL0     C43925   2.033   0.100  10.090  0.0403  0.2695 -0.5344
  326MOL0     N43926   1.372  -0.165  10.449 -0.0623 -0.7977  0.3319
  326MOL0     N43927   1.291  -0.211  10.536 -0.6541 -0.0458 -0.1084
  326MOL0     C43928   0.979   0.782  10.884  0.3250 -1.1861  0.5858
  326MOL0     C43929   1.055   0.900  10.894 -0.8723 -0.5301  0.1375
  326MOL0     C43930   1.403   1.179  10.942 -0.3090  0.0692  0.6501
  326MOL0     C43931   1.539   1.190  10.912 -0.6283 -0.8634  0.2292
  326MOL0     C43932   1.606   1.315  10.894 -0.1080  0.3570  0.4309
  326MOL0     C43933   1.530   1.436  10.925 -0.1077  0.2554 -0.9591
  326MOL0     O43934   1.585   1.564  10.915  0.1217  0.6451 -0.5047
  326MOL0     C43935   1.726   1.580  10.938 -0.1171 -0.6454  0.5659
  326MOL0     C43936   1.765   1.725  10.893 -0.3275  0.6717 -0.1260
  326MOL0     C43937   1.881   1.784  10.982  0.9641  0.5048  1.1094
  326MOL0     C43938   2.021   1.734  10.963 -0.3279  0.0480 -0.6338
  326MOL0     C43939   2.046   1.610  11.046  1.0143 -0.6258  0.7793
  326MOL0     C43940   2.067   1.512  11.112 -0.4780 -0.0210 -0.2093
  326MOL0     C43941   1.394   1.427  10.965 -0.9341 -0.1138 -0.1354
  326MOL0     C43942   1.336   1.299  10.957  0.5444 -0.8633 -1.0358
  326MOL0     H43943   1.239   0.807  11.162 -0.1626  3.5427  1.0952
  326MOL0     H43944   1.110   0.593  11.130  1.0991  1.0438  0.9252
  326MOL0     H43945   0.750   0.556  11.011 -0.0041 -0.6453 -0.3144
  326MOL0     H43946   0.782   0.580  10.833  2.8606  2.5233  0.6541
  326MOL0     H43947   0.698   0.349  10.855 -0.7785  1.0847 -0.5014
  326MOL0     H43948   0.876   0.355  10.813  1.6298 -3.4629  1.5684
  326MOL0     H43949   0.872   0.330  11.092  1.2828 -3.3924  1.3497
  326MOL0     H43950   0.734   0.250  11.037 -0.9078 -0.0153 -0.7704
  326MOL0     H43951   1.015   0.204  10.940 -0.5608  0.3335 -3.3199
  326MOL0     H43952   0.940   0.109  11.075 -2.2244 -1.9059 -0.8296
  326MOL0     H43953   0.765   0.021  10.916  0.1243 -0.5566 -1.3020
  326MOL0     H43954   0.838   0.112  10.785  1.4665  0.5116  0.1495
  326MOL0     H43955   0.994  -0.110  10.916  0.0378 -1.2029 -1.0783
  326MOL0     H43956   0.882  -0.133  10.782  1.4352 -2.0560 -0.4503
  326MOL0     H43957   0.994  -0.010  10.642  0.3314  1.0242  0.7276
  326MOL0     H43958   1.085   0.080  10.762 -1.9453  0.6870 -0.7679
  326MOL0     H43959   1.103  -0.228  10.700  3.6486 -1.5919 -0.8262
  326MOL0     H43960   1.189  -0.144  10.829 -1.2693 -3.6900 -0.0462
  326MOL0     H43961   1.331   0.103  10.632 -1.5538 -1.2378  2.8801
  326MOL0     H43962   1.456   0.054  10.299 -0.5150 -1.1854  0.3018
  326MOL0     H43963   1.484   0.164  10.428  0.5162  0.7928 -2.8164
  326MOL0     H43964   1.646  -0.024  10.505  0.8523  1.2728 -0.0486
  326MOL0     H43965   1.699   0.092  10.377 -0.2239 -0.2436 -2.3811
  326MOL0     H43966   1.606  -0.083  10.213 -3.9130 -0.5855  1.0329
  326MOL0     H43967   1.627  -0.196  10.356  0.3903  1.7764  1.1841
  326MOL0     H43968   1.823  -0.205  10.204  1.5341  3.6424 -4.7505
  326MOL0     H43969   1.857  -0.140  10.378 -0.1465  1.4385 -0.7199
  326MOL0     H43970   2.083  -0.183  10.267 -1.8323  1.7820  1.2993
  326MOL0     H43971   2.379  -0.245  10.111 -2.5860  0.5175 -1.3196
  326MOL0     H43972   2.424  -0.129  10.240 -0.1263  0.0670  0.1869
  326MOL0     H43973   2.288  -0.251  10.256 -0.0415  0.5821  0.4097
  326MOL0     H43974   2.629   0.241  10.139  0.1449 -1.5344  0.0946
  326MOL0     H43975   2.842   0.346  10.044  0.3346 -0.1967 -1.0938
  326MOL0     H43976   2.930   0.282   9.685  0.1223  0.2289  1.9659
  326MOL0     H43977   2.860   0.432   9.609 -0.9831  1.9562  0.4172
  326MOL0     H43978   3.131   0.401   9.749  0.3883 -3.6591 -1.4231
  326MOL0     H43979   3.110   0.399   9.574  1.4916  1.2076  0.7706
  326MOL0     H43980   3.001   0.631   9.705 -2.8613  1.4382 -6.2069
  326MOL0     H43981   3.068   0.619   9.549  3.6145 -2.1417 -1.3969
  326MOL0     H43982   3.226   0.586   9.805 -0.8410 -0.3781  0.1667
  326MOL0     H43983   3.313   0.591   9.654  1.6825  0.3595  2.3730
  326MOL0     H43984   3.151   0.806   9.780 -2.6868 -1.2865 -0.7420
  326MOL0     H43985   3.192   0.818   9.606  0.3637 -1.0499  0.0991
  326MOL0     H43986   3.419   0.766   9.810 -0.2303 -1.9242 -0.6235
  326MOL0     H43987   3.439   0.817   9.648 -0.1196  2.1825 -0.8923
  326MOL0     H43988   3.485   0.986   9.780 -0.1225  1.1501 -3.3584
  326MOL0     H43989   3.330   0.969   9.889  0.4816  0.6557 -0.3415
  326MOL0     H43990   3.304   1.174   9.749  2.5732 -1.4517  1.8236
  326MOL0     H43991   3.214   1.040   9.688 -0.9550 -1.1656 -1.6300
  326MOL0     H43992   2.648   0.376   9.659 -1.6075 -1.6437 -0.8206
  326MOL0     H43993   2.447   0.281   9.745 -0.0025  2.1690 -0.1005
  326MOL0     H43994   2.180   0.209   9.983 -1.6927 -0.8669 -3.7617
  326MOL0     H43995   1.950   0.170  10.087  1.0353  1.6365  1.7905
  326MOL0     H43996   0.912   0.772  10.798  0.5443  1.3689  0.0561
  326MOL0     H43997   1.038   0.973  10.816 -5.0056 -3.8464 -2.4557
  326MOL0     H43998   1.605   1.112  10.877  0.4396  0.6193 -1.2589
  326MOL0     H43999   1.701   1.316  10.842  0.4131 -0.2601  1.3563
  326MOL0     H44000   1.741   1.571  11.046  0.7581  0.3238  0.5409
  326MOL0     H44001   1.790   1.512  10.883  0.8835  0.1182  0.7605
  326MOL0     H44002   1.675   1.787  10.890 -0.7478  0.0484 -1.3559
  326MOL0     H44003   1.797   1.704  10.790  3.3024 -0.7053  1.1197
  326MOL0     H44004   1.858   1.790  11.089  0.4091  1.7589  0.9320
  326MOL0     H44005   1.881   1.887  10.945 -1.6200  0.5394  1.0315
  326MOL0     H44006   2.095   1.806  10.998 -0.5828 -1.7448  4.5099
  326MOL0     H44007   2.045   1.720  10.857  2.0709 -1.0195 -0.0295
  326MOL0     H44008   2.113   1.440  11.176  2.7800  2.4880  0.5224
  326MOL0     H44009   1.341   1.514  11.001  1.2088  1.6982 -1.1232
  326MOL0     H44010   1.228   1.298  10.967  0.6385 -3.6073  1.2652
  327MOL0     O44011   8.065   5.525   0.449 -0.1989 -0.0087 -0.9405
  327MOL0     C44012   8.160   5.448   0.455  0.3489  0.0009 -0.9839
  327MOL0     O44013   8.155   5.316   0.417  0.2441 -0.6138  0.8611
  327MOL0     C44014   8.034   5.260   0.393  0.6662 -0.5801  0.0564
  327MOL0     C44015   7.923   5.261   0.487 -0.4709 -0.4344  0.2595
  327MOL0     C44016   7.802   5.220   0.432 -0.2933 -1.1139 -0.0077
  327MOL0     C44017   7.785   5.178   0.301  0.4457  0.3298  0.9192
  327MOL0     O44018   7.656   5.152   0.251 -0.2354 -0.5341 -0.4404
  327MOL0     C44019   7.641   5.092   0.123 -0.1113  0.1845  0.2519
  327MOL0     C44020   7.490   5.049   0.096  0.2984 -0.2345 -0.6348
  327MOL0     C44021   7.469   4.945   0.001  0.3401  0.1662 -0.1676
  327MOL0     C44022   7.324   4.928  -0.027  0.7019  0.5120  0.2711
  327MOL0     C44023   7.313   4.804  -0.114  0.5282  1.4813 -0.5050
  327MOL0     C44024   7.359   4.667  -0.044  0.1722  0.2532 -0.2215
  327MOL0     C44025   7.299   4.545  -0.123 -0.3719  0.4340  0.4641
  327MOL0     C44026   7.339   4.413  -0.045 -0.7366  0.7167 -0.3921
  327MOL0     N44027   7.482   4.379  -0.031  0.3064  0.0808  0.6040
  327MOL0     C44028   7.570   4.447   0.062 -0.6582  0.1528 -0.9203
  327MOL0     C44029   7.688   4.380   0.048  0.3041 -0.4233  0.3859
  327MOL0     C44030   7.824   4.417   0.102  0.6741 -0.0564 -1.0166
  327MOL0     C44031   7.867   4.373   0.241 -0.1481 -0.4294  0.3253
  327MOL0     C44032   8.006   4.429   0.261  0.3672 -0.0082 -0.1904
  327MOL0     C44033   8.050   4.384   0.403  0.5528 -0.4020 -0.5190
  327MOL0     O44034   7.969   4.450   0.499 -0.2139 -0.4448 -0.5769
  327MOL0     C44035   8.015   4.551   0.578  0.4476 -0.7039  0.1915
  327MOL0     C44036   7.978   4.681   0.540 -0.4290 -0.0611  0.3308
  327MOL0     C44037   8.009   4.786   0.613  0.2900  0.6035 -0.6259
  327MOL0     C44038   7.946   4.912   0.567 -0.5307 -0.1598  0.3619
  327MOL0     C44039   8.099   4.776   0.728  0.1070  0.9507  0.5814
  327MOL0     C44040   8.139   4.890   0.802  0.7744  0.3606  0.7630
  327MOL0     O44041   8.228   4.985   0.753 -0.1739 -0.0501  0.4745
  327MOL0     C44042   8.243   5.101   0.830 -0.7827 -0.0130 -0.2977
  327MOL0     C44043   8.238   5.224   0.759  0.4470  0.4333  0.4996
  327MOL0     C44044   8.237   5.342   0.832  0.2538 -0.0786 -0.5377
  327MOL0     C44045   8.250   5.357   0.969  0.2026  0.5342 -0.5308
  327MOL0     O44046   8.241   5.481   1.021 -0.3123  0.7799 -0.0532
  327MOL0     C44047   8.123   5.508   1.090 -0.4096 -0.9084  0.0192
  327MOL0     C44048   8.119   5.522   1.245  0.1633 -0.3738  0.0322
  327MOL0     C44049   7.983   5.482   1.312 -0.3492  0.1801  0.5688
  327MOL0     C44050   7.991   5.471   1.466 -1.0828 -0.0644  0.3182
  327MOL0     C44051   7.930   5.597   1.541  0.3253  0.4131  0.0112
  327MOL0     C44052   7.898   5.572   1.683 -0.2644 -0.6007 -0.2232
  327MOL0     C44053   7.836   5.700   1.755 -0.3357  0.2660  0.7955
  327MOL0     C44054   7.803   5.674   1.903 -0.9378 -1.3691  0.0184
  327MOL0    Cl44055   7.943   5.578   1.993 -0.2533 -0.1872  0.3278
  327MOL0     C44056   8.250   5.230   1.037  0.2792  0.3994 -0.7762
  327MOL0     C44057   8.256   5.110   0.968 -0.5484  0.4314 -0.4832
  327MOL0     O44058   8.058   4.911   0.899 -0.7593  0.7788  0.0840
  327MOL0     C44059   8.155   4.651   0.745  0.2228  0.5037 -0.7124
  327MOL0     C44060   8.102   4.535   0.685  0.1554 -0.8193 -0.4073
  327MOL0     N44061   7.666   4.277  -0.037 -0.1766  0.3546  0.8407
  327MOL0     N44062   7.547   4.280  -0.096 -0.7058  0.7563 -0.9763
  327MOL0     C44063   7.891   5.159   0.217  0.3991  1.1744 -0.4980
  327MOL0     C44064   8.012   5.193   0.266  0.1694 -0.9546 -0.5539
  327MOL0     C44065   8.291   5.509   0.490 -0.4784  0.8110  0.3185
  327MOL0     C44066   8.409   5.427   0.486 -0.1147  0.5301 -0.3868
  327MOL0     C44067   8.530   5.479   0.535 -0.0953  0.7478  0.1175
  327MOL0     C44068   8.534   5.611   0.572 -0.2701  0.2315  0.2792
  327MOL0     O44069   8.648   5.680   0.605 -0.2899  0.2485 -0.4538
  327MOL0     C44070   8.770   5.609   0.632  0.2016 -0.0895 -0.6967
  327MOL0     C44071   8.889   5.702   0.663 -0.6389  0.1028 -0.3218
  327MOL0     C44072   8.918   5.748   0.801  0.7039 -0.4327  0.6766
  327MOL0     C44073   8.968   5.893   0.808  0.1212 -0.4027 -0.3350
  327MOL0     C44074   8.863   5.986   0.767  0.2837  0.5559  0.5602
  327MOL0     C44075   8.788   6.071   0.729 -0.2011  0.8136 -0.3589
  327MOL0     C44076   8.425   5.695   0.556 -0.4312 -0.1945  0.3677
  327MOL0     C44077   8.299   5.640   0.526  0.1747 -0.6394 -0.2326
  327MOL0     H44078   7.921   5.288   0.592 -0.4476 -2.6821  0.8703
  327MOL0     H44079   7.721   5.219   0.505 -1.8141 -2.1973 -1.6187
  327MOL0     H44080   7.674   5.149   0.035 -0.2305  0.6720  0.5161
  327MOL0     H44081   7.691   4.995   0.123 -2.2271 -1.1285 -3.8222
  327MOL0     H44082   7.442   5.020   0.190 -0.8786  1.0767 -0.7887
  327MOL0     H44083   7.435   5.135   0.057 -0.1868 -0.7384 -1.0706
  327MOL0     H44084   7.527   4.967  -0.090  1.5712 -2.6089 -0.1398
  327MOL0     H44085   7.509   4.857   0.051 -1.0665 -0.1525  0.4379
  327MOL0     H44086   7.260   4.918   0.061  1.3712  1.4651  0.8821
  327MOL0     H44087   7.287   5.005  -0.096  1.5222 -1.7283 -2.8895
  327MOL0     H44088   7.205   4.784  -0.119  0.3146  2.5684 -0.5526
  327MOL0     H44089   7.350   4.820  -0.215 -0.8151 -1.3046 -1.5413
  327MOL0     H44090   7.467   4.658  -0.037 -0.0161 -1.6700  0.8737
  327MOL0     H44091   7.321   4.663   0.059  2.7102 -0.2397  0.7694
  327MOL0     H44092   7.190   4.552  -0.129 -0.5168 -2.3601 -2.0611
  327MOL0     H44093   7.328   4.540  -0.228 -1.1048 -0.1687  0.2847
  327MOL0     H44094   7.301   4.330  -0.106  1.1756  1.4192 -2.6999
  327MOL0     H44095   7.283   4.406   0.048  1.3837  1.9759  1.0570
  327MOL0     H44096   7.568   4.521   0.141  0.2595 -1.2855  0.5270
  327MOL0     H44097   7.907   4.398   0.032  0.4972 -1.4888 -0.8502
  327MOL0     H44098   7.823   4.526   0.111 -2.6061 -0.1396  1.4434
  327MOL0     H44099   7.858   4.265   0.257  1.4205 -0.3076  2.2968
  327MOL0     H44100   7.787   4.424   0.295  1.2214  2.7507 -0.4212
  327MOL0     H44101   7.992   4.537   0.261 -0.0751 -0.0392  1.5056
  327MOL0     H44102   8.067   4.396   0.176 -1.4646 -3.6578 -0.2849
  327MOL0     H44103   8.155   4.407   0.419  0.1663  2.4024 -1.3624
  327MOL0     H44104   8.036   4.276   0.406  1.1300 -0.4948  3.0272
  327MOL0     H44105   7.917   4.682   0.450 -3.8807  3.9954  2.3663
  327MOL0     H44106   7.923   4.904   0.460  0.7191  3.8778 -0.3697
  327MOL0     H44107   7.850   4.932   0.616 -0.0010 -0.8973  1.7544
  327MOL0     H44108   8.011   4.999   0.578 -3.9008  2.4437  1.3106
  327MOL0     H44109   8.238   5.224   0.651  0.4168 -2.9286  0.3931
  327MOL0     H44110   8.214   5.435   0.781 -0.2341  0.0088 -0.1609
  327MOL0     H44111   8.094   5.605   1.050  2.6592 -0.3320 -0.9994
  327MOL0     H44112   8.045   5.441   1.051 -0.2850 -1.2346  0.3239
  327MOL0     H44113   8.200   5.459   1.283  0.7019 -1.8571 -3.1649
  327MOL0     H44114   8.132   5.629   1.261 -2.2839  0.0813 -0.4820
  327MOL0     H44115   7.975   5.379   1.276  2.3934  0.8328 -2.3676
  327MOL0     H44116   7.899   5.545   1.279  0.1206  1.5942  1.9656
  327MOL0     H44117   7.940   5.381   1.503 -1.5985 -2.9990 -6.1555
  327MOL0     H44118   8.092   5.455   1.503 -1.1003  1.7434  1.2286
  327MOL0     H44119   7.839   5.627   1.489  0.1344 -0.2224 -0.0384
  327MOL0     H44120   7.995   5.684   1.540  0.1273  0.5585 -0.4301
  327MOL0     H44121   7.830   5.491   1.714  1.8251 -1.6520  1.9547
  327MOL0     H44122   7.993   5.563   1.736 -1.5786  1.9926  2.9460
  327MOL0     H44123   7.747   5.739   1.703 -1.1105 -0.5519  1.4689
  327MOL0     H44124   7.921   5.768   1.759  2.4112 -2.8661 -0.0700
  327MOL0     H44125   7.709   5.619   1.892 -1.4889 -0.0331 -2.8948
  327MOL0     H44126   7.792   5.760   1.970  0.5232 -1.6710  0.6865
  327MOL0     H44127   8.253   5.226   1.145 -1.4324  2.2870 -0.6005
  327MOL0     H44128   8.256   5.017   1.025 -2.4954  0.8825  0.3386
  327MOL0     H44129   8.236   4.637   0.816 -1.9188  0.1536  1.8080
  327MOL0     H44130   8.155   4.442   0.705 -0.4727 -1.1511 -0.2358
  327MOL0     H44131   7.883   5.124   0.114  3.0897 -2.9011  0.4529
  327MOL0     H44132   8.100   5.179   0.205 -0.7601  0.7760 -2.3876
  327MOL0     H44133   8.405   5.326   0.447  0.6984  0.1041  0.5957
  327MOL0     H44134   8.626   5.429   0.523 -1.2875 -2.1147  1.5456
  327MOL0     H44135   8.761   5.522   0.698 -0.4407  0.3341 -0.2156
  327MOL0     H44136   8.814   5.564   0.542  1.4098 -0.8095  0.2173
  327MOL0     H44137   8.894   5.780   0.586  2.4988  0.5994  0.2389
  327MOL0     H44138   8.975   5.637   0.644 -1.9899 -1.6805 -0.6371
  327MOL0     H44139   8.989   5.681   0.852  0.1090 -1.6393 -0.0358
  327MOL0     H44140   8.824   5.737   0.855  0.1604 -1.1089 -0.3777
  327MOL0     H44141   9.060   5.891   0.750 -1.4341 -1.5559 -2.9576
  327MOL0     H44142   8.991   5.918   0.912 -2.9823 -0.6802  0.5312
  327MOL0     H44143   8.719   6.146   0.696 -0.6146  0.5261 -0.1495
  327MOL0     H44144   8.444   5.801   0.568  0.4137 -0.3497  0.3937
  327MOL0     H44145   8.214   5.708   0.522 -0.7568 -1.6455  1.4850
  328MOL0     O44146   1.689  10.304   9.544  0.1642 -0.4466 -0.0869
  328MOL0     C44147   1.612  10.211   9.520 -1.2523 -0.1827 -1.5228
  328MOL0     O44148   1.513  10.211   9.431  0.2848  0.3960  0.2455
  328MOL0     C44149   1.459  10.327   9.391  0.5243  1.1565 -0.5336
  328MOL0     C44150   1.371  10.392   9.463  0.2298 -0.2279 -1.3085
  328MOL0     C44151   1.326  10.520   9.417 -0.7739  0.2743 -0.0483
  328MOL0     C44152   1.352  10.569   9.292  0.6491  0.2006  1.3036
  328MOL0     O44153   1.299  10.688   9.247 -0.1093 -0.3147 -0.5204
  328MOL0     C44154   1.249  10.674   9.109  0.5148  0.0111  0.3002
  328MOL0     C44155   1.137  10.776   9.073  0.4221  0.5349  0.0471
  328MOL0     C44156   1.178  10.921   9.031  0.1905  0.4159 -0.2155
  328MOL0     C44157   1.296  10.984   9.102  0.0719  0.4386 -0.6683
  328MOL0     C44158   1.316  11.119   9.028  0.7405  1.6217  0.2176
  328MOL0     C44159   1.417  11.204   9.099 -0.5283  0.4329  0.7916
  328MOL0     C44160   1.566  11.171   9.048 -0.9456 -1.0091 -0.3368
  328MOL0     C44161   1.669  11.282   9.078  0.3346  0.6909 -0.2315
  328MOL0     N44162   1.805  11.248   9.030  0.5234  0.3372  0.0591
  328MOL0     C44163   1.879  11.327   8.942  0.0189 -0.6282  0.2583
  328MOL0     C44164   2.002  11.269   8.935  0.5218 -0.0586  0.7734
  328MOL0     C44165   2.123  11.328   8.860 -0.6837 -0.0264  0.3274
  328MOL0     C44166   2.151  11.226   8.745  0.2540 -1.0537 -0.4426
  328MOL0     C44167   2.084  11.268   8.618  0.0053 -0.2544 -0.0536
  328MOL0     C44168   2.123  11.159   8.518  0.1122 -0.6894 -0.4472
  328MOL0     O44169   2.052  11.163   8.392 -0.3232 -0.5093 -0.3384
  328MOL0     C44170   2.062  11.049   8.310 -0.2050 -0.6257  0.2476
  328MOL0     C44171   2.134  10.933   8.332  0.0635  0.8558  0.1373
  328MOL0     C44172   2.129  10.813   8.242  0.6287 -0.1209 -0.0655
  328MOL0     C44173   2.209  10.692   8.284 -0.1178 -0.1612  1.0458
  328MOL0     C44174   2.052  10.829   8.123 -0.4665  1.0065  0.3474
  328MOL0     C44175   2.021  10.706   8.041 -0.2263 -1.2705 -0.6149
  328MOL0     O44176   2.009  10.730   7.912  0.0719  0.7518  0.5289
  328MOL0     C44177   1.963  10.627   7.832  0.2545  0.0909 -0.1406
  328MOL0     C44178   2.039  10.526   7.770 -0.8058  0.6220  0.5203
  328MOL0     C44179   1.974  10.435   7.679 -0.4406 -0.1860 -0.8680
  328MOL0     C44180   1.841  10.449   7.628  1.0623  0.1972 -0.8818
  328MOL0     O44181   1.792  10.362   7.532  0.8160 -0.2048 -0.8075
  328MOL0     C44182   1.652  10.362   7.513 -0.0128  0.1620  0.5363
  328MOL0     C44183   1.621  10.475   7.417  0.4506 -0.3196  0.1499
  328MOL0     C44184   1.463  10.482   7.386 -0.5416  0.2215 -0.1286
  328MOL0     C44185   1.444  10.594   7.283  0.3231 -0.0326 -0.4594
  328MOL0     C44186   1.304  10.587   7.238 -0.7576 -0.4508 -0.2260
  328MOL0     C44187   1.273  10.706   7.140 -0.7823  0.7062 -0.3658
  328MOL0     C44188   1.137  10.679   7.078 -0.1866 -0.6290  0.3627
  328MOL0     C44189   1.103  10.742   6.945 -0.4308 -0.7462 -0.1065
  328MOL0    Cl44190   1.070  10.923   6.961 -0.1440  0.3291 -0.4257
  328MOL0     C44191   1.774  10.553   7.696  0.9624 -0.0246  0.4361
  328MOL0     C44192   1.828  10.648   7.784 -0.1292  0.5327 -0.6993
  328MOL0     O44193   2.002  10.602   8.104 -0.2511 -0.1779  0.6266
  328MOL0     C44194   1.989  10.954   8.103 -0.2889  0.3436  0.5156
  328MOL0     C44195   1.990  11.054   8.192 -0.2523 -0.0837 -0.2665
  328MOL0     N44196   1.994  11.146   8.999  0.4997  0.1208  0.2666
  328MOL0     N44197   1.881  11.137   9.056  0.0812 -0.5584 -0.7837
  328MOL0     C44198   1.442  10.492   9.213  0.6633 -0.2509 -1.3038
  328MOL0     C44199   1.499  10.372   9.269  0.1738  0.4153  0.0298
  328MOL0     C44200   1.652  10.076   9.577 -0.4524 -0.7404  0.5556
  328MOL0     C44201   1.769  10.055   9.649 -0.6992 -0.0520 -0.1794
  328MOL0     C44202   1.805   9.924   9.694 -0.1707  0.1327  0.3764
  328MOL0     C44203   1.726   9.813   9.661  0.0689  0.2835 -0.9233
  328MOL0     O44204   1.765   9.691   9.691  0.2845  0.4751 -0.2670
  328MOL0     C44205   1.740   9.580   9.608 -0.6697 -0.8637  0.2570
  328MOL0     C44206   1.822   9.588   9.478 -0.3362 -0.8089 -0.1931
  328MOL0     C44207   1.776   9.473   9.387  0.3112  0.2406 -0.2922
  328MOL0     C44208   1.837   9.336   9.430 -1.0525  0.0848 -0.2340
  328MOL0     C44209   1.839   9.248   9.317  0.2371 -1.3875  0.0603
  328MOL0     C44210   1.848   9.179   9.221  0.3357  0.1928  0.0542
  328MOL0     C44211   1.595   9.841   9.605 -0.2758  0.0787  0.1141
  328MOL0     C44212   1.556   9.970   9.570 -1.2236 -1.0224  0.7916
  328MOL0     H44213   1.335  10.341   9.552  1.7719  2.6284  1.1137
  328MOL0     H44214   1.270  10.578   9.491 -0.6244 -0.4313  0.6372
  328MOL0     H44215   1.322  10.681   9.029  2.1282 -1.2809  1.5894
  328MOL0     H44216   1.206  10.573   9.103  1.1928 -0.4510  2.3471
  328MOL0     H44217   1.076  10.735   8.993  1.2567  0.0265 -0.3434
  328MOL0     H44218   1.075  10.774   9.163 -0.7249 -0.5111 -0.7335
  328MOL0     H44219   1.187  10.914   8.923 -2.6325  2.2834 -0.6551
  328MOL0     H44220   1.096  10.992   9.042 -0.2177  0.2208 -1.7622
  328MOL0     H44221   1.270  11.004   9.206  2.4026  0.3080 -0.0079
  328MOL0     H44222   1.385  10.920   9.102 -0.7204 -0.6924  0.1823
  328MOL0     H44223   1.351  11.111   8.925  0.9265  0.5127  0.3510
  328MOL0     H44224   1.225  11.178   9.023  0.3227  0.9134 -1.2279
  328MOL0     H44225   1.390  11.308   9.076  1.4555  0.7603 -0.3182
  328MOL0     H44226   1.414  11.190   9.207 -2.0958  4.0647  1.3805
  328MOL0     H44227   1.600  11.073   9.082  2.1221  0.0747  0.0038
  328MOL0     H44228   1.561  11.167   8.939 -3.5115  3.0476 -0.5689
  328MOL0     H44229   1.671  11.300   9.186 -2.0557  0.3538 -0.0626
  328MOL0     H44230   1.643  11.377   9.031 -0.7085  0.4928 -0.0907
  328MOL0     H44231   1.853  11.426   8.906 -1.5102 -0.9303  0.4370
  328MOL0     H44232   2.098  11.428   8.825 -1.0867 -0.3968 -0.4839
  328MOL0     H44233   2.214  11.320   8.920 -1.6657 -0.3738  1.8480
  328MOL0     H44234   2.126  11.125   8.781  2.8877 -2.2983 -1.7945
  328MOL0     H44235   2.259  11.229   8.729  0.5284 -0.0867  1.3461
  328MOL0     H44236   2.115  11.367   8.583 -2.0747  0.9050  1.1835
  328MOL0     H44237   1.975  11.265   8.624 -0.0126 -1.5201 -0.7681
  328MOL0     H44238   2.096  11.071   8.577  1.2826  2.2207  5.1563
  328MOL0     H44239   2.231  11.150   8.504  0.5095  1.5714  0.6861
  328MOL0     H44240   2.188  10.915   8.424  0.0330 -0.6142 -0.1226
  328MOL0     H44241   2.254  10.652   8.193  0.4262  0.0712  1.2056
  328MOL0     H44242   2.297  10.725   8.341  0.5307 -0.5210  0.2632
  328MOL0     H44243   2.152  10.618   8.340  0.5595 -0.7153  1.0130
  328MOL0     H44244   2.139  10.505   7.805 -1.5080 -5.3725 -0.0851
  328MOL0     H44245   2.028  10.347   7.647 -0.6781 -1.0625  1.0058
  328MOL0     H44246   1.629  10.258   7.484 -2.3581  0.4153  1.3074
  328MOL0     H44247   1.607  10.383   7.610  0.7289  1.2754  0.6509
  328MOL0     H44248   1.655  10.570   7.460  0.6465 -0.3524  0.0656
  328MOL0     H44249   1.672  10.462   7.321 -2.5377  0.5904 -1.6751
  328MOL0     H44250   1.405  10.504   7.476 -0.1730 -0.6400  0.3430
  328MOL0     H44251   1.429  10.387   7.343  3.8407 -0.8584 -1.8685
  328MOL0     H44252   1.458  10.689   7.334 -1.1938  0.1908 -0.3942
  328MOL0     H44253   1.514  10.585   7.200  1.5520 -0.2911  0.5664
  328MOL0     H44254   1.236  10.597   7.323 -1.3594  0.8200 -0.8243
  328MOL0     H44255   1.279  10.495   7.184 -2.9298 -0.7960  1.2404
  328MOL0     H44256   1.270  10.796   7.203  0.3873  1.4168 -1.2854
  328MOL0     H44257   1.357  10.720   7.071 -0.0432 -1.3046  0.0540
  328MOL0     H44258   1.058  10.714   7.144 -0.1603  2.5316 -1.1069
  328MOL0     H44259   1.133  10.570   7.064  0.6868 -0.4086 -2.3407
  328MOL0     H44260   1.010  10.702   6.903 -1.9397  1.6759  0.6916
  328MOL0     H44261   1.181  10.715   6.874 -2.3467 -2.4585 -1.6802
  328MOL0     H44262   1.667  10.566   7.683  1.5577  3.5968 -2.2956
  328MOL0     H44263   1.771  10.728   7.830  0.4481  0.1035  0.8466
  328MOL0     H44264   1.942  10.967   8.006  1.4147  3.6759 -0.0243
  328MOL0     H44265   1.932  11.143   8.169  2.1766  1.4862 -0.8121
  328MOL0     H44266   1.464  10.535   9.116  0.1908  0.7102 -0.9959
  328MOL0     H44267   1.563  10.314   9.203  1.0045  2.4159 -1.0268
  328MOL0     H44268   1.842  10.133   9.666  1.3587 -1.2327 -2.7410
  328MOL0     H44269   1.884   9.909   9.766  0.5437 -1.1182 -0.6228
  328MOL0     H44270   1.764   9.491   9.667 -0.9827 -0.2410  1.3699
  328MOL0     H44271   1.632   9.585   9.592 -0.4038 -0.6610 -1.6126
  328MOL0     H44272   1.929   9.573   9.495 -0.9821 -2.9898  2.6978
  328MOL0     H44273   1.815   9.686   9.430  0.7575 -0.3961  0.4530
  328MOL0     H44274   1.809   9.499   9.286  0.8764 -1.8660 -0.7053
  328MOL0     H44275   1.667   9.470   9.377  0.1461  1.1071  1.0213
  328MOL0     H44276   1.793   9.286   9.517 -0.7891 -0.2314 -0.2770
  328MOL0     H44277   1.942   9.348   9.459 -0.4416 -3.1189 -0.6629
  328MOL0     H44278   1.853   9.104   9.145 -0.6142  2.0919 -1.9879
  328MOL0     H44279   1.519   9.768   9.578 -3.3527  2.1933  2.3373
  328MOL0     H44280   1.459   9.998   9.529 -1.9538 -0.5762  2.7232
  329MOL0     O44281  11.054  10.423   7.189  0.2519 -0.2510  0.6885
  329MOL0     C44282  10.955  10.469   7.247 -0.6649  0.9911  0.3839
  329MOL0     O44283  10.823  10.434   7.215 -0.1304 -0.2901 -1.0424
  329MOL0     C44284  10.808  10.348   7.112 -0.0737 -0.2497  0.5572
  329MOL0     C44285  10.817  10.212   7.131  1.4386 -0.3139 -0.1096
  329MOL0     C44286  10.755  10.126   7.032  0.0203  1.1654 -0.5926
  329MOL0     C44287  10.707  10.178   6.911  0.8484 -0.9486 -0.8871
  329MOL0     O44288  10.654  10.097   6.819  0.1229 -0.2236  0.9088
  329MOL0     C44289  10.706  10.118   6.688  1.0109  1.3319 -0.5789
  329MOL0     C44290  10.710   9.978   6.611 -0.9611  0.8767 -0.5799
  329MOL0     C44291  10.580   9.919   6.579 -0.9840  1.1299  0.9347
  329MOL0     C44292  10.582   9.764   6.551 -0.0252  0.3248 -0.9558
  329MOL0     C44293  10.439   9.706   6.530  1.0017 -0.4262 -0.6344
  329MOL0     C44294  10.357   9.676   6.656  0.8366 -0.4278 -0.9211
  329MOL0     C44295  10.430   9.592   6.766 -0.1255 -0.6085 -0.2256
  329MOL0     C44296  10.329   9.575   6.880 -0.0279  0.2596 -0.4061
  329MOL0     N44297  10.219   9.489   6.854  0.9910  0.2998 -0.6037
  329MOL0     C44298  10.218   9.356   6.816  0.0206 -0.1369 -0.0771
  329MOL0     C44299  10.087   9.323   6.823  0.5974 -0.7210 -0.7167
  329MOL0     C44300  10.033   9.183   6.801 -0.8238  0.2827 -0.4927
  329MOL0     C44301  10.105   9.098   6.690 -1.0120  0.3754 -0.3141
  329MOL0     C44302  10.033   8.969   6.670  0.1232  0.2803 -0.2294
  329MOL0     C44303  10.058   8.879   6.551 -1.4041  0.8799 -0.1698
  329MOL0     O44304  10.151   8.772   6.584  0.3563  0.0339  0.3515
  329MOL0     C44305  10.111   8.647   6.629  1.3337 -0.9531 -0.8666
  329MOL0     C44306  10.185   8.537   6.603  0.4226 -0.0075 -0.5908
  329MOL0     C44307  10.152   8.407   6.647  0.1069 -0.5833 -0.7164
  329MOL0     C44308  10.253   8.297   6.620  0.4810 -0.4353 -0.3453
  329MOL0     C44309  10.033   8.386   6.709  0.5907 -0.7162 -1.0814
  329MOL0     C44310   9.983   8.250   6.737  0.4116 -0.0026  0.5965
  329MOL0     O44311   9.896   8.234   6.835  0.2162 -1.1234  0.1597
  329MOL0     C44312   9.831   8.115   6.877  0.4779  0.3616  0.1475
  329MOL0     C44313   9.813   7.994   6.805 -0.0639  0.5594 -0.0812
  329MOL0     C44314   9.744   7.884   6.864 -0.1599  0.6938 -0.4966
  329MOL0     C44315   9.706   7.884   6.999  0.4914  0.6229  0.4795
  329MOL0     O44316   9.648   7.777   7.063  0.2963  0.7175 -0.1563
  329MOL0     C44317   9.548   7.705   6.980 -0.1174  0.2687 -0.4588
  329MOL0     C44318   9.499   7.580   7.052 -1.2663  0.0149  0.5787
  329MOL0     C44319   9.390   7.513   6.966 -1.2975 -0.9424 -0.8379
  329MOL0     C44320   9.386   7.364   6.996  0.2466  0.7812 -0.1775
  329MOL0     C44321   9.256   7.305   6.946  0.0886 -0.6593  0.1588
  329MOL0     C44322   9.228   7.165   7.002 -0.1871 -0.5093  0.1384
  329MOL0     C44323   9.295   7.043   6.943  0.2848 -0.4859  0.0619
  329MOL0     C44324   9.232   6.910   6.983  0.9251  0.5550 -0.3088
  329MOL0    Cl44325   9.330   6.775   6.913  0.0353 -0.4341 -0.5685
  329MOL0     C44326   9.716   8.007   7.072 -0.7853  0.4326 -0.7196
  329MOL0     C44327   9.783   8.112   7.011 -0.5595 -0.6271  0.4435
  329MOL0     O44328  10.031   8.150   6.674  0.9308  0.1949  0.6787
  329MOL0     C44329   9.959   8.501   6.743 -0.2648 -0.3148 -0.8790
  329MOL0     C44330   9.999   8.631   6.715 -0.5504  0.5361 -0.2344
  329MOL0     N44331  10.013   9.426   6.851 -0.5598  0.1212 -0.2324
  329MOL0     N44332  10.094   9.530   6.853 -0.0080 -0.2511 -0.7652
  329MOL0     C44333  10.688  10.322   6.903 -0.4166  1.0480  0.5062
  329MOL0     C44334  10.735  10.399   7.007 -1.0119 -0.4229 -0.1621
  329MOL0     C44335  10.975  10.573   7.352  0.3478  0.4937  0.0976
  329MOL0     C44336  10.867  10.629   7.422  0.9422  0.1947  0.1824
  329MOL0     C44337  10.894  10.722   7.529  0.9910 -0.5464 -0.3203
  329MOL0     C44338  11.024  10.765   7.558  0.1624 -0.2290 -0.5582
  329MOL0     O44339  11.039  10.871   7.644 -0.1943  0.0692  0.6455
  329MOL0     C44340  10.995  10.989   7.586 -0.5646 -0.0519 -0.4578
  329MOL0     C44341  11.120  11.063   7.537  0.0525 -0.1575 -0.2373
  329MOL0     C44342  11.215  11.112   7.648 -0.1012  0.7265 -0.9922
  329MOL0     C44343  11.167  11.231   7.732  0.5431 -0.2230 -1.2171
  329MOL0     C44344  11.189  11.348   7.652  0.8592  0.3792 -0.8278
  329MOL0     C44345  11.208  11.449   7.591  0.1049 -0.2195 -0.0696
  329MOL0     C44346  11.127  10.706   7.494 -0.2635  0.4111  0.7402
  329MOL0     C44347  11.111  10.609   7.387  0.1408  0.1625  0.0712
  329MOL0     H44348  10.856  10.173   7.224  1.1885 -0.5878 -0.1161
  329MOL0     H44349  10.752  10.018   7.034  3.0632  0.8758 -2.9918
  329MOL0     H44350  10.646  10.193   6.637  0.2373  2.3120  1.6666
  329MOL0     H44351  10.809  10.156   6.686  0.6128  2.5056 -3.7018
  329MOL0     H44352  10.767   9.989   6.518 -0.7384  0.5075 -0.4869
  329MOL0     H44353  10.775   9.911   6.668 -0.9963 -0.4624 -2.0468
  329MOL0     H44354  10.511   9.930   6.663 -1.4997 -0.7034  0.7905
  329MOL0     H44355  10.544   9.972   6.491 -2.0682 -3.7204 -1.9232
  329MOL0     H44356  10.651   9.742   6.469  1.4411  0.5197  0.1822
  329MOL0     H44357  10.632   9.731   6.642 -1.8871  0.9108  0.3294
  329MOL0     H44358  10.390   9.767   6.453  0.5018  0.5855  0.4543
  329MOL0     H44359  10.465   9.608   6.490  2.6323 -1.1701  1.9733
  329MOL0     H44360  10.322   9.771   6.696 -0.3851 -0.0474 -2.7954
  329MOL0     H44361  10.268   9.622   6.623 -0.1639  0.8812 -0.4270
  329MOL0     H44362  10.466   9.494   6.735  1.1891 -0.9278  2.0534
  329MOL0     H44363  10.516   9.653   6.797 -1.4234  1.8755 -1.1687
  329MOL0     H44364  10.301   9.675   6.915 -1.8088 -0.7554  1.3195
  329MOL0     H44365  10.381   9.530   6.965 -0.5790 -0.2542 -0.3323
  329MOL0     H44366  10.298   9.285   6.799 -1.1016 -1.6832  0.8760
  329MOL0     H44367  10.034   9.121   6.891  1.1479  0.0471 -0.6229
  329MOL0     H44368   9.926   9.196   6.782 -0.6481  1.7716 -0.5451
  329MOL0     H44369  10.207   9.075   6.721 -0.4715  1.7812 -0.9989
  329MOL0     H44370  10.112   9.157   6.599  1.0368 -2.3633 -2.0669
  329MOL0     H44371   9.927   8.992   6.658 -0.3657 -0.9248  1.3870
  329MOL0     H44372  10.042   8.924   6.769 -2.3990 -1.9890 -0.9236
  329MOL0     H44373  10.105   8.936   6.470  1.0398 -0.5116  0.1610
  329MOL0     H44374   9.965   8.834   6.515 -0.5116 -1.9360  0.8219
  329MOL0     H44375  10.278   8.548   6.547  0.4844  2.6882 -0.1305
  329MOL0     H44376  10.280   8.244   6.712  4.1265  2.3843  0.4892
  329MOL0     H44377  10.229   8.233   6.536  2.4461  0.8455 -1.9834
  329MOL0     H44378  10.344   8.341   6.577  0.7728 -2.3173 -1.7550
  329MOL0     H44379   9.847   7.986   6.702  0.0869 -0.8800  0.0525
  329MOL0     H44380   9.729   7.799   6.797 -0.5642  0.6135 -0.3069
  329MOL0     H44381   9.470   7.781   6.978 -0.7963 -0.1026  3.5049
  329MOL0     H44382   9.576   7.677   6.878 -2.5254  2.0867 -1.7129
  329MOL0     H44383   9.583   7.513   7.071 -0.9679  0.4592  0.8599
  329MOL0     H44384   9.469   7.590   7.156 -2.6574 -5.4523  1.0236
  329MOL0     H44385   9.424   7.520   6.862  0.6349 -2.6547 -0.3867
  329MOL0     H44386   9.294   7.561   6.989 -1.1797 -1.3665  0.6855
  329MOL0     H44387   9.457   7.313   6.930 -2.2407  1.2767 -3.4503
  329MOL0     H44388   9.409   7.359   7.103 -0.4986  2.3786  0.0789
  329MOL0     H44389   9.252   7.296   6.837 -0.9753  0.0193  0.1269
  329MOL0     H44390   9.175   7.365   6.987  1.2748  0.9176  0.2617
  329MOL0     H44391   9.248   7.151   7.109  0.1402 -2.1333 -0.1051
  329MOL0     H44392   9.120   7.148   6.993 -0.6230  1.7769  0.4639
  329MOL0     H44393   9.404   7.038   6.954  0.4573  3.4999  1.8326
  329MOL0     H44394   9.271   7.046   6.836 -3.4212 -5.5130  0.4149
  329MOL0     H44395   9.127   6.914   6.954  0.0442  1.5390  2.6797
  329MOL0     H44396   9.227   6.885   7.089  4.6531 -3.0197 -0.7170
  329MOL0     H44397   9.688   8.028   7.175 -0.2419  1.3607 -0.7478
  329MOL0     H44398   9.798   8.202   7.070 -0.0311  0.7018 -1.6478
  329MOL0     H44399   9.863   8.481   6.788 -1.6242  2.0453 -2.5258
  329MOL0     H44400   9.932   8.706   6.756 -1.9595 -2.1960  2.9294
  329MOL0     H44401  10.651  10.376   6.817 -0.0422  1.8961  0.8623
  329MOL0     H44402  10.703  10.503   7.004 -1.8927 -0.5547  2.2135
  329MOL0     H44403  10.767  10.599   7.394  1.2756 -0.7738 -0.0385
  329MOL0     H44404  10.809  10.772   7.573  0.3289 -0.7791 -1.3094
  329MOL0     H44405  10.933  10.984   7.496 -1.0834  0.6431 -0.1487
  329MOL0     H44406  10.949  11.053   7.662  0.5239  0.9619 -0.6118
  329MOL0     H44407  11.089  11.145   7.472  1.1522  1.8229  1.6112
  329MOL0     H44408  11.171  10.986   7.478 -0.1334 -1.2502  0.9651
  329MOL0     H44409  11.303  11.148   7.594 -2.4144  4.1033 -2.9427
  329MOL0     H44410  11.229  11.030   7.719 -1.9078  1.0371 -0.2035
  329MOL0     H44411  11.222  11.229   7.826  0.0544  0.3608 -0.9074
  329MOL0     H44412  11.059  11.229   7.747  0.5437  1.2471 -0.8265
  329MOL0     H44413  11.224  11.539   7.535 -0.9679  0.1623  0.2070
  329MOL0     H44414  11.227  10.743   7.513 -0.4680  0.7205  1.2281
  329MOL0     H44415  11.196  10.566   7.336 -0.8570  0.3283 -1.8351
  330MOL0     O44416   4.870   5.665   5.471  0.8358  0.2059 -0.6300
  330MOL0     C44417   4.926   5.634   5.579  0.1450 -0.5276 -0.1065
  330MOL0     O44418   5.016   5.543   5.592 -0.4275  0.6068  0.0300
  330MOL0     C44419   5.068   5.472   5.485  0.8719  0.4474 -0.3227
  330MOL0     C44420   5.073   5.329   5.504  0.3230 -0.2552  0.3915
  330MOL0     C44421   5.098   5.246   5.397  0.0535 -0.0446 -0.4140
  330MOL0     C44422   5.107   5.293   5.271 -0.2631  0.1779 -0.4915
  330MOL0     O44423   5.126   5.197   5.174  0.5994  0.0159 -0.0506
  330MOL0     C44424   5.179   5.245   5.047 -0.0554 -0.0762 -0.7744
  330MOL0     C44425   5.225   5.132   4.961 -0.2146  0.9301 -0.6110
  330MOL0     C44426   5.322   5.160   4.849 -0.0277 -0.0205 -0.2934
  330MOL0     C44427   5.359   5.049   4.756  0.9849  0.2713  0.2799
  330MOL0     C44428   5.423   5.100   4.623 -0.8407  0.4202 -0.6191
  330MOL0     C44429   5.413   4.975   4.522 -0.3422 -0.3058 -0.0337
  330MOL0     C44430   5.488   4.998   4.389  0.9349 -0.0699  0.5234
  330MOL0     C44431   5.491   4.873   4.299  0.1835  0.3061  0.0591
  330MOL0     N44432   5.366   4.855   4.220  0.6676 -1.0614  0.3006
  330MOL0     C44433   5.333   4.915   4.100  0.3358 -1.0761  0.1213
  330MOL0     C44434   5.196   4.907   4.098 -0.5216 -0.4225  0.4125
  330MOL0     C44435   5.121   4.958   3.976  0.0351 -0.1783  0.3980
  330MOL0     C44436   4.966   4.983   3.990 -0.4360 -0.2599 -0.1537
  330MOL0     C44437   4.934   5.096   4.075 -0.3214  0.2395  0.3806
  330MOL0     C44438   4.809   5.052   4.160 -0.7212  0.5070  0.9916
  330MOL0     O44439   4.746   5.166   4.207  0.1467 -0.9700  0.2528
  330MOL0     C44440   4.783   5.200   4.335  0.6870  1.0002 -0.4510
  330MOL0     C44441   4.912   5.177   4.393  0.0909  0.1439 -0.5288
  330MOL0     C44442   4.952   5.232   4.512 -0.6029 -0.1758  0.6478
  330MOL0     C44443   5.095   5.208   4.553 -0.7491  0.6354  0.0245
  330MOL0     C44444   4.861   5.303   4.588  0.7038 -0.3475  0.6095
  330MOL0     C44445   4.900   5.377   4.717 -0.0487 -0.0601 -0.1612
  330MOL0     O44446   4.852   5.504   4.733 -0.6979 -0.3121 -0.1317
  330MOL0     C44447   4.883   5.588   4.841  0.4112  0.3093 -0.2130
  330MOL0     C44448   4.903   5.726   4.803  0.7000  1.1970  0.0577
  330MOL0     C44449   4.938   5.809   4.907 -0.5264 -0.4895 -0.5575
  330MOL0     C44450   4.926   5.776   5.038  0.4811 -1.2136 -0.0405
  330MOL0     O44451   4.950   5.873   5.134 -0.1228 -0.1415 -0.1433
  330MOL0     C44452   5.062   5.960   5.121  0.3595  0.6522  0.1492
  330MOL0     C44453   5.016   6.109   5.115 -0.2811 -0.2444  0.4765
  330MOL0     C44454   4.968   6.136   5.257 -0.5056  0.2128 -0.0045
  330MOL0     C44455   5.083   6.172   5.355 -0.1250  0.1596 -0.1919
  330MOL0     C44456   5.027   6.254   5.469  0.6962  0.2894  0.4315
  330MOL0     C44457   4.922   6.180   5.548  0.4985 -0.1901 -1.2939
  330MOL0     C44458   4.936   6.232   5.690  1.4318 -0.6777 -0.2358
  330MOL0     C44459   4.837   6.177   5.793  0.2267 -0.1312  0.2839
  330MOL0    Cl44460   4.799   6.305   5.915  0.0253 -0.5000 -0.2312
  330MOL0     C44461   4.880   5.650   5.072  0.4268  0.0202 -0.0532
  330MOL0     C44462   4.858   5.554   4.972  0.0932 -0.0970  0.3969
  330MOL0     O44463   4.977   5.322   4.797 -0.0372  0.6841 -0.7422
  330MOL0     C44464   4.730   5.324   4.540 -0.2230 -0.2997 -0.3845
  330MOL0     C44465   4.690   5.276   4.417 -1.1107  0.7146  0.1750
  330MOL0     N44466   5.149   4.840   4.207 -0.2015 -0.3557  0.0178
  330MOL0     N44467   5.250   4.806   4.275  0.0946 -0.3005  0.4332
  330MOL0     C44468   5.096   5.428   5.242  0.2809  0.0387 -0.0095
  330MOL0     C44469   5.088   5.518   5.346  0.5233  0.7459 -0.4633
  330MOL0     C44470   4.870   5.703   5.699  0.2693  0.6211 -0.1195
  330MOL0     C44471   4.918   5.672   5.825  0.1360 -1.7915  0.0686
  330MOL0     C44472   4.860   5.727   5.937  0.8910 -0.0261 -1.1647
  330MOL0     C44473   4.759   5.819   5.920  0.3922  0.0420 -1.0043
  330MOL0     O44474   4.696   5.857   6.036  0.8077  0.2487  0.1005
  330MOL0     C44475   4.629   5.978   6.042  0.5747 -0.0842 -0.0748
  330MOL0     C44476   4.554   5.973   6.163  0.3042  0.1887 -0.3933
  330MOL0     C44477   4.646   5.986   6.288  0.6246  0.3712 -0.2312
  330MOL0     C44478   4.676   6.129   6.316 -0.2745  0.1631 -0.5517
  330MOL0     C44479   4.805   6.142   6.394 -0.1479  0.1436 -0.0852
  330MOL0     C44480   4.911   6.168   6.457  0.4945 -0.4618  0.6585
  330MOL0     C44481   4.700   5.847   5.798  1.1132  0.0885 -0.1248
  330MOL0     C44482   4.761   5.794   5.686 -0.1978 -0.5424 -0.4060
  330MOL0     H44483   5.042   5.293   5.601  0.7123  1.9896  1.4038
  330MOL0     H44484   5.103   5.139   5.411 -2.4977 -0.7081 -3.5264
  330MOL0     H44485   5.115   5.313   4.990 -1.2008 -2.3504 -2.3255
  330MOL0     H44486   5.269   5.303   5.070 -2.3725  3.0431  1.2667
  330MOL0     H44487   5.275   5.063   5.030  1.7480  4.0231  1.3165
  330MOL0     H44488   5.144   5.082   4.907  0.8417 -0.4931 -0.9185
  330MOL0     H44489   5.279   5.242   4.790 -0.6483 -0.2070 -0.0998
  330MOL0     H44490   5.419   5.197   4.885  0.0966 -1.1929  0.6178
  330MOL0     H44491   5.414   4.967   4.805 -2.4043 -0.7833  2.6553
  330MOL0     H44492   5.255   5.025   4.733  0.7629  0.1663  1.3443
  330MOL0     H44493   5.380   5.193   4.585 -0.0942  0.6589 -0.8881
  330MOL0     H44494   5.527   5.127   4.640 -1.4531  3.3230 -0.9728
  330MOL0     H44495   5.448   4.886   4.575 -0.1762 -1.8859 -2.6586
  330MOL0     H44496   5.305   4.961   4.512 -0.7740  0.4165  2.6979
  330MOL0     H44497   5.451   5.078   4.324  0.7801 -1.0923 -0.6662
  330MOL0     H44498   5.588   5.025   4.423 -0.3957 -0.2871  5.5773
  330MOL0     H44499   5.507   4.781   4.356  1.2873  0.9634  0.8388
  330MOL0     H44500   5.573   4.888   4.228  1.2575 -2.1856  0.6391
  330MOL0     H44501   5.390   4.974   4.029  0.0870  1.7866  2.1365
  330MOL0     H44502   5.167   5.048   3.935  1.4705 -1.0878 -0.0687
  330MOL0     H44503   5.137   4.888   3.893  3.2552 -1.5756  1.9909
  330MOL0     H44504   4.920   4.891   4.024 -0.5625 -0.5206 -1.0027
  330MOL0     H44505   4.933   5.011   3.889  2.1383  2.5180 -0.3834
  330MOL0     H44506   4.901   5.183   4.017  1.3240  2.6608  2.7698
  330MOL0     H44507   5.025   5.133   4.123  0.0283  0.8157 -0.6923
  330MOL0     H44508   4.835   4.986   4.243  2.0179  0.7678  0.4263
  330MOL0     H44509   4.734   4.991   4.108 -0.3878 -0.1105  1.2245
  330MOL0     H44510   4.974   5.114   4.331 -2.5380 -2.3062 -0.8708
  330MOL0     H44511   5.129   5.132   4.482 -1.8873  0.2973 -0.1803
  330MOL0     H44512   5.159   5.297   4.551 -0.5585  0.5150  0.6252
  330MOL0     H44513   5.103   5.163   4.652 -1.4171 -1.7268 -0.9172
  330MOL0     H44514   4.917   5.761   4.701 -0.2310  0.8184 -0.2061
  330MOL0     H44515   4.931   5.914   4.883 -5.0799 -0.1665  1.1879
  330MOL0     H44516   5.122   5.937   5.209  2.0270  1.6839 -0.6566
  330MOL0     H44517   5.126   5.934   5.035  1.9292 -1.5118  1.8560
  330MOL0     H44518   5.092   6.178   5.077 -1.0164  0.6936  0.6774
  330MOL0     H44519   4.931   6.117   5.047 -1.4506 -0.3792  1.8768
  330MOL0     H44520   4.908   6.053   5.293  1.5277 -2.0755 -1.5363
  330MOL0     H44521   4.906   6.225   5.244 -0.0211  0.4090 -1.1183
  330MOL0     H44522   5.114   6.077   5.399  0.6434  1.7830  3.0944
  330MOL0     H44523   5.171   6.221   5.311 -0.6724 -0.1073 -1.6361
  330MOL0     H44524   4.978   6.347   5.440  3.3346  1.0885 -1.9327
  330MOL0     H44525   5.118   6.283   5.523  0.8935 -0.7388  0.6709
  330MOL0     H44526   4.826   6.212   5.507 -0.2955 -2.9089 -1.7462
  330MOL0     H44527   4.920   6.070   5.548  1.4893 -0.2289 -2.4523
  330MOL0     H44528   4.931   6.338   5.660  1.0290 -0.9828 -1.2954
  330MOL0     H44529   5.039   6.207   5.718  2.4291  1.6977 -1.3836
  330MOL0     H44530   4.874   6.087   5.842 -0.5015 -2.3350 -2.8921
  330MOL0     H44531   4.745   6.148   5.741 -1.2285 -1.1416  3.2288
  330MOL0     H44532   4.882   5.617   5.175  3.6099  1.7830  0.5824
  330MOL0     H44533   4.818   5.455   4.994 -0.8338  0.1563 -0.1065
  330MOL0     H44534   4.665   5.381   4.606 -0.7477 -0.9422 -0.3318
  330MOL0     H44535   4.595   5.280   4.364 -1.6537 -2.8237  0.6343
  330MOL0     H44536   5.109   5.473   5.145  1.1717 -0.5498 -0.1690
  330MOL0     H44537   5.068   5.617   5.308 -3.6991 -0.1790 -1.2188
  330MOL0     H44538   4.992   5.593   5.832 -0.0496 -1.8517  1.9607
  330MOL0     H44539   4.899   5.690   6.032 -0.3075  0.3955 -0.4784
  330MOL0     H44540   4.698   6.063   6.043  1.6867 -0.9613 -0.5815
  330MOL0     H44541   4.559   5.997   5.960 -0.6175 -0.0647  0.9115
  330MOL0     H44542   4.498   5.879   6.162 -3.1313  2.0940 -0.7883
  330MOL0     H44543   4.477   6.050   6.168 -1.0527 -1.0253 -1.5892
  330MOL0     H44544   4.736   5.926   6.270 -0.4420 -2.3375  2.5932
  330MOL0     H44545   4.595   5.942   6.373  0.4229  1.8995  0.4573
  330MOL0     H44546   4.601   6.180   6.377  0.3279  1.4563 -0.8390
  330MOL0     H44547   4.694   6.194   6.230  1.3845 -0.2828 -0.5771
  330MOL0     H44548   5.006   6.186   6.503  0.8035  1.8717 -0.7552
  330MOL0     H44549   4.611   5.904   5.775  0.7752 -1.0656 -1.9705
  330MOL0     H44550   4.724   5.827   5.590  0.3216 -0.5112 -0.6013
  331MOL0     O44551  10.578   3.536   2.205  0.8640  0.2747 -0.2053
  331MOL0     C44552  10.598   3.558   2.327 -0.0069 -0.2227 -0.1204
  331MOL0     O44553  10.541   3.655   2.405 -0.5288 -0.0100  0.6309
  331MOL0     C44554  10.422   3.699   2.346  0.7861 -0.2128 -0.9770
  331MOL0     C44555  10.412   3.827   2.282  0.8509 -0.4873 -0.6098
  331MOL0     C44556  10.289   3.875   2.229 -1.0072  0.3216  0.0770
  331MOL0     C44557  10.186   3.785   2.209 -0.1817 -0.9888  0.6683
  331MOL0     O44558  10.073   3.822   2.140 -0.1494  0.7214  0.1325
  331MOL0     C44559  10.081   3.931   2.044 -0.2154 -0.0628 -1.2544
  331MOL0     C44560   9.955   3.925   1.955 -0.6240 -0.6180 -0.7684
  331MOL0     C44561   9.945   4.008   1.825 -0.3687  0.6587 -0.2417
  331MOL0     C44562   9.822   3.955   1.746 -1.3934  0.6287  0.1972
  331MOL0     C44563   9.690   4.019   1.799  0.8313 -0.8498  0.3433
  331MOL0     C44564   9.575   3.938   1.739  0.4324  0.5569 -0.7362
  331MOL0     C44565   9.450   3.993   1.807 -0.3376 -0.4462  0.6567
  331MOL0     C44566   9.335   3.924   1.735  0.1313 -0.1619  0.8632
  331MOL0     N44567   9.213   3.937   1.811 -0.6807  1.6458  0.6787
  331MOL0     C44568   9.160   4.058   1.830 -0.0757 -0.2989  0.5072
  331MOL0     C44569   9.045   4.032   1.892 -0.3114  0.5944  0.3392
  331MOL0     C44570   8.938   4.129   1.939 -0.3088 -0.6560  0.5323
  331MOL0     C44571   8.865   4.207   1.821 -1.0790 -0.4139  1.1152
  331MOL0     C44572   8.854   4.124   1.689 -0.5033 -0.4489  0.4548
  331MOL0     C44573   8.719   4.144   1.608  0.4347  0.3255 -0.6099
  331MOL0     O44574   8.736   4.224   1.485 -0.1096  0.0956 -0.4934
  331MOL0     C44575   8.761   4.162   1.364 -0.0419 -0.2235 -0.0156
  331MOL0     C44576   8.743   4.224   1.244  0.3883  0.4964  0.6242
  331MOL0     C44577   8.789   4.181   1.118 -0.5868  0.1465 -0.5162
  331MOL0     C44578   8.753   4.272   0.992 -0.2455  0.1971  0.1233
  331MOL0     C44579   8.853   4.058   1.108 -0.2615 -1.4803  0.6576
  331MOL0     C44580   8.911   4.005   0.975  0.5096 -1.0412 -0.3608
  331MOL0     O44581   8.886   3.877   0.948 -0.0331 -0.2385 -0.3175
  331MOL0     C44582   8.995   3.793   0.921 -0.4817 -0.3734  0.1511
  331MOL0     C44583   8.986   3.699   0.817 -0.7538 -1.0554  0.0067
  331MOL0     C44584   9.102   3.625   0.778  0.1232 -0.2027  0.1526
  331MOL0     C44585   9.222   3.647   0.842 -0.0710  0.1843 -0.0612
  331MOL0     O44586   9.343   3.576   0.808  0.0177  0.5585 -0.6858
  331MOL0     C44587   9.465   3.614   0.863 -0.6480  0.2071  0.5405
  331MOL0     C44588   9.578   3.558   0.773  0.3772 -0.0062 -0.2736
  331MOL0     C44589   9.603   3.417   0.820  0.2100 -0.3741  0.7802
  331MOL0     C44590   9.522   3.315   0.732 -0.4934  0.4211 -0.4166
  331MOL0     C44591   9.557   3.176   0.755  0.4805  0.8249  0.6521
  331MOL0     C44592   9.529   3.123   0.897  0.2108  0.8450 -1.1645
  331MOL0     C44593   9.401   3.029   0.917  1.0510  0.0299  0.8715
  331MOL0     C44594   9.447   2.886   0.881  0.9477  0.7113 -0.5176
  331MOL0    Cl44595   9.300   2.766   0.879 -0.5685 -0.1623  0.3510
  331MOL0     C44596   9.217   3.715   0.965  0.2854  0.5914  0.8659
  331MOL0     C44597   9.111   3.793   1.001  0.0035 -0.6582 -0.1140
  331MOL0     O44598   8.985   4.074   0.894  0.1190  0.8567 -0.2842
  331MOL0     C44599   8.880   3.989   1.230  0.0064  0.7866  0.9984
  331MOL0     C44600   8.832   4.037   1.354  1.1446  0.2401  0.2089
  331MOL0     N44601   9.035   3.891   1.907  0.6545 -0.3199  0.1272
  331MOL0     N44602   9.144   3.830   1.864  0.0068 -0.2769 -0.0420
  331MOL0     C44603  10.195   3.665   2.266  1.0070 -0.8954 -0.3434
  331MOL0     C44604  10.304   3.617   2.336  0.1016  1.0245 -0.2142
  331MOL0     C44605  10.685   3.469   2.408 -0.7129  0.7874 -0.0679
  331MOL0     C44606  10.763   3.372   2.346 -0.2354  0.4283 -0.2150
  331MOL0     C44607  10.834   3.273   2.421 -1.4767  0.1392 -0.4769
  331MOL0     C44608  10.835   3.280   2.557  0.0296 -0.0448 -0.2362
  331MOL0     O44609  10.894   3.176   2.628  0.7554  0.7244  0.3032
  331MOL0     C44610  10.928   3.192   2.760  0.5798 -0.8099 -0.3668
  331MOL0     C44611  11.007   3.064   2.796  0.0421  0.5106  0.3576
  331MOL0     C44612  11.077   3.087   2.935  0.7995 -0.3750  0.2441
  331MOL0     C44613  10.978   3.139   3.040  0.3654  0.0847 -0.0452
  331MOL0     C44614  11.058   3.118   3.173  0.6195  0.1358  1.1172
  331MOL0     C44615  11.111   3.091   3.279 -0.3630 -0.0451 -0.9913
  331MOL0     C44616  10.775   3.387   2.620 -0.4926 -0.0282 -0.2075
  331MOL0     C44617  10.706   3.484   2.552  0.4396 -0.1258 -0.0377
  331MOL0     H44618  10.492   3.901   2.283 -0.7449  1.2963 -0.9321
  331MOL0     H44619  10.294   3.980   2.198  0.7252  0.4103  0.5616
  331MOL0     H44620  10.078   4.025   2.100 -4.0780 -2.3216  3.0010
  331MOL0     H44621  10.171   3.924   1.982  0.4891 -0.8917 -0.1894
  331MOL0     H44622   9.934   3.823   1.919 -1.1771 -0.3231 -1.2981
  331MOL0     H44623   9.870   3.954   2.018 -0.5499 -0.7867 -0.5894
  331MOL0     H44624   9.924   4.112   1.851 -1.1367  0.0488  1.7973
  331MOL0     H44625  10.041   4.000   1.773  0.5230 -3.9132  1.6424
  331MOL0     H44626   9.832   3.987   1.642 -0.5889  0.4212  0.2091
  331MOL0     H44627   9.819   3.846   1.753  0.4202  0.2770 -2.8212
  331MOL0     H44628   9.680   4.016   1.908 -1.9024  1.9528  0.3143
  331MOL0     H44629   9.670   4.121   1.766 -1.3867 -0.7786  1.7215
  331MOL0     H44630   9.577   3.958   1.632  1.1936  1.8660 -0.5080
  331MOL0     H44631   9.585   3.833   1.767  0.9563  0.3946 -1.5129
  331MOL0     H44632   9.450   3.968   1.914  2.6064  1.8226  1.3297
  331MOL0     H44633   9.447   4.100   1.784 -1.0012 -1.0735 -2.7234
  331MOL0     H44634   9.362   3.819   1.720  0.5634  0.0775 -0.1057
  331MOL0     H44635   9.315   3.963   1.635 -3.0545  0.4182  1.6171
  331MOL0     H44636   9.199   4.155   1.799 -2.2510  0.0560 -1.3964
  331MOL0     H44637   8.867   4.065   1.994  0.2184 -0.5649  1.3227
  331MOL0     H44638   8.978   4.192   2.019 -1.7415  1.6588 -0.4707
  331MOL0     H44639   8.924   4.288   1.777  1.4584 -3.7285 -2.2473
  331MOL0     H44640   8.767   4.242   1.854 -0.1725  0.2877  3.2448
  331MOL0     H44641   8.879   4.018   1.699  1.9260  0.0232  0.1033
  331MOL0     H44642   8.936   4.158   1.625 -1.5766 -1.6439 -1.6432
  331MOL0     H44643   8.647   4.196   1.672 -1.8255 -3.0606 -0.1726
  331MOL0     H44644   8.676   4.046   1.586 -2.4670  0.6402  2.7024
  331MOL0     H44645   8.668   4.303   1.240 -2.9677 -2.4708  0.1216
  331MOL0     H44646   8.675   4.230   0.928 -0.3793  1.0583 -0.2932
  331MOL0     H44647   8.714   4.366   1.030 -0.8497 -0.4275  1.0865
  331MOL0     H44648   8.845   4.277   0.933 -0.7772  1.3148 -0.6416
  331MOL0     H44649   8.893   3.689   0.762 -1.5958  1.9494  0.7228
  331MOL0     H44650   9.109   3.548   0.701 -0.8008 -1.4660  1.2794
  331MOL0     H44651   9.467   3.723   0.863 -0.4413  0.2571  2.7110
  331MOL0     H44652   9.482   3.572   0.963 -1.4131 -1.1748  0.1245
  331MOL0     H44653   9.556   3.568   0.666  0.9563  1.2456 -0.2996
  331MOL0     H44654   9.667   3.617   0.799 -0.6588  1.1764  0.6501
  331MOL0     H44655   9.583   3.395   0.925  1.3779 -2.4901  0.6115
  331MOL0     H44656   9.710   3.395   0.815 -0.0610 -1.6281  0.3717
  331MOL0     H44657   9.417   3.331   0.759  0.6418  2.7685  3.3946
  331MOL0     H44658   9.549   3.335   0.628 -0.5350  2.4650 -0.0702
  331MOL0     H44659   9.665   3.161   0.743  0.1025  0.5465 -4.1458
  331MOL0     H44660   9.526   3.111   0.673  3.1050  0.9275 -0.5091
  331MOL0     H44661   9.618   3.074   0.937 -0.3837  1.4816  1.0930
  331MOL0     H44662   9.510   3.205   0.967 -1.4416  1.2279 -2.0020
  331MOL0     H44663   9.318   3.063   0.854  0.2265  1.9101  2.8467
  331MOL0     H44664   9.348   3.031   1.013 -3.4254  1.7597 -1.3213
  331MOL0     H44665   9.520   2.839   0.948 -0.8946 -2.7725 -0.7353
  331MOL0     H44666   9.485   2.872   0.780  0.0926 -3.8796 -0.4028
  331MOL0     H44667   9.305   3.724   1.027  1.0338  2.4180 -0.3485
  331MOL0     H44668   9.118   3.863   1.083  1.2187 -0.9687  0.0665
  331MOL0     H44669   8.924   3.890   1.226 -2.4905 -0.3812  0.7561
  331MOL0     H44670   8.846   3.967   1.436 -0.4311 -3.4604 -2.3694
  331MOL0     H44671  10.102   3.612   2.251 -0.8451  1.9375  0.3293
  331MOL0     H44672  10.290   3.522   2.387 -1.1005  1.2511 -0.0907
  331MOL0     H44673  10.770   3.357   2.239  0.1279 -1.8496  0.0802
  331MOL0     H44674  10.877   3.188   2.369 -0.6102 -1.8784  3.1881
  331MOL0     H44675  10.980   3.287   2.780  1.2079 -1.6820  2.5902
  331MOL0     H44676  10.838   3.198   2.822 -1.4839  3.0923 -3.3092
  331MOL0     H44677  11.078   3.041   2.716  2.0729  2.4529  1.5106
  331MOL0     H44678  10.927   2.990   2.805 -0.6715  1.3069  0.6588
  331MOL0     H44679  11.157   3.158   2.916  1.1804 -1.7688 -4.5826
  331MOL0     H44680  11.118   2.991   2.969 -0.3733 -1.0605 -0.2248
  331MOL0     H44681  10.885   3.081   3.042  0.0595  0.5681 -0.2940
  331MOL0     H44682  10.957   3.246   3.034  0.2271  0.3665  3.4126
  331MOL0     H44683  11.177   3.087   3.363 -1.0253  1.0497 -0.4112
  331MOL0     H44684  10.791   3.390   2.727 -2.5444 -0.9458  0.1743
  331MOL0     H44685  10.665   3.570   2.605 -2.3380 -0.8615 -0.8056
  332MOL0     O44686   3.210   6.196  10.033 -0.2454 -0.7192 -0.4359
  332MOL0     C44687   3.226   6.095   9.968  0.6518 -0.5559 -0.2234
  332MOL0     O44688   3.327   6.004   9.988 -0.0728  0.1623  0.5244
  332MOL0     C44689   3.411   6.017  10.095  0.9961 -0.1233 -0.1758
  332MOL0     C44690   3.488   6.133  10.095  0.1458 -0.1109  0.4487
  332MOL0     C44691   3.587   6.152  10.184 -1.4175 -0.2153 -0.7521
  332MOL0     C44692   3.616   6.050  10.278 -0.1669  0.1385 -0.1077
  332MOL0     O44693   3.719   6.065  10.377  0.8161  0.2015 -1.1305
  332MOL0     C44694   3.766   6.205  10.401 -0.1156  0.9232  0.2944
  332MOL0     C44695   3.832   6.224  10.532  0.1521  0.2505  0.3393
  332MOL0     C44696   3.755   6.175  10.657 -0.2599  0.2223 -0.0164
  332MOL0     C44697   3.626   6.247  10.667 -0.1930  0.9100  0.2432
  332MOL0     C44698   3.565   6.188  10.802 -0.1271  0.1303 -0.1689
  332MOL0     C44699   3.416   6.204  10.816 -0.6359  0.2352 -0.3595
  332MOL0     C44700   3.328   6.107  10.723 -0.4629 -0.3685 -0.4287
  332MOL0     C44701   3.202   6.186  10.664 -0.0593  0.4116 -0.2669
  332MOL0     N44702   3.143   6.094  10.570  0.5742  0.0131  0.2411
  332MOL0     C44703   3.141   6.094  10.430  0.2546 -0.5148 -0.7972
  332MOL0     C44704   3.038   6.005  10.397 -0.4389  0.3664  1.0001
  332MOL0     C44705   2.983   5.973  10.259  0.0539  0.0685 -0.3241
  332MOL0     C44706   2.830   5.951  10.254  0.7725  0.0270 -0.0111
  332MOL0     C44707   2.767   5.868  10.142 -0.6420  0.4460 -0.7302
  332MOL0     C44708   2.624   5.923  10.100 -0.1823  0.1106  0.8725
  332MOL0     O44709   2.577   5.817  10.014  0.3884 -0.2143 -0.3961
  332MOL0     C44710   2.475   5.847   9.933 -0.0510 -0.9567  1.3268
  332MOL0     C44711   2.506   5.863   9.794  0.0234  0.6982  0.0909
  332MOL0     C44712   2.407   5.903   9.707  0.3356 -0.1318  0.8072
  332MOL0     C44713   2.451   5.916   9.563  0.1409 -0.5255  0.3415
  332MOL0     C44714   2.281   5.923   9.760  0.4078  0.0493 -0.3593
  332MOL0     C44715   2.159   5.975   9.685 -0.5980  0.4203  0.2232
  332MOL0     O44716   2.054   6.024   9.767  0.0233 -0.1811 -0.1999
  332MOL0     C44717   1.967   6.106   9.696  0.0301  0.5167  0.8402
  332MOL0     C44718   1.874   6.049   9.621 -0.2554  0.8588  0.4987
  332MOL0     C44719   1.792   6.128   9.534  0.2456  0.2612  0.4739
  332MOL0     C44720   1.813   6.265   9.517  0.5968 -0.7139 -0.2179
  332MOL0     O44721   1.732   6.351   9.450  0.8765  0.1478 -0.0323
  332MOL0     C44722   1.684   6.304   9.318  0.8445 -0.2432 -0.0541
  332MOL0     C44723   1.619   6.429   9.266 -0.0887 -0.2581 -0.1729
  332MOL0     C44724   1.613   6.421   9.116  0.0945 -0.0883  0.9083
  332MOL0     C44725   1.605   6.560   9.051  0.6279  0.3300 -0.7902
  332MOL0     C44726   1.580   6.556   8.896  0.4159 -0.2110  0.1794
  332MOL0     C44727   1.462   6.462   8.851  0.2054 -0.1756 -0.5163
  332MOL0     C44728   1.440   6.479   8.706  0.0614 -0.0134 -0.3943
  332MOL0     C44729   1.330   6.387   8.652  0.8667 -0.1257  0.6738
  332MOL0    Cl44730   1.172   6.423   8.721  0.5464 -0.0980 -0.0351
  332MOL0     C44731   1.907   6.324   9.603  0.1289 -0.2578 -0.3080
  332MOL0     C44732   1.980   6.245   9.700 -0.7196 -0.5623  0.5354
  332MOL0     O44733   2.166   5.994   9.565 -0.1857 -0.6233  0.4251
  332MOL0     C44734   2.251   5.907   9.893  0.6199  0.7681 -0.4941
  332MOL0     C44735   2.348   5.852   9.974  0.9677 -0.1353  1.0328
  332MOL0     N44736   2.997   5.940  10.507  0.0598 -0.0015 -0.0001
  332MOL0     N44737   3.057   5.996  10.610  0.1717  1.1028 -0.0454
  332MOL0     C44738   3.543   5.932  10.282 -0.1098 -0.0821 -0.4102
  332MOL0     C44739   3.436   5.915  10.183  0.5658 -0.2137  0.5324
  332MOL0     C44740   3.138   6.055   9.857  0.3624 -0.4179  0.3557
  332MOL0     C44741   3.040   6.142   9.805  0.1671  0.0784  0.3015
  332MOL0     C44742   2.955   6.106   9.693 -0.9847 -0.1174 -0.1710
  332MOL0     C44743   2.983   5.990   9.626  1.4933  0.1942 -0.1448
  332MOL0     O44744   2.899   5.961   9.517 -0.7652  1.1725  0.5184
  332MOL0     C44745   2.970   5.904   9.407  0.4394  0.5524  0.0581
  332MOL0     C44746   2.906   5.930   9.269  0.0011  0.2774  0.7104
  332MOL0     C44747   3.002   5.904   9.154  0.5726  0.8800  0.6978
  332MOL0     C44748   2.980   5.767   9.077 -0.1430 -0.2325 -0.5102
  332MOL0     C44749   3.078   5.744   8.972 -0.0295 -0.2635 -0.4279
  332MOL0     C44750   3.157   5.714   8.886  0.2906  0.1153  1.7184
  332MOL0     C44751   3.065   5.894   9.680  0.4701 -0.7026  0.7393
  332MOL0     C44752   3.135   5.920   9.791 -0.1935  0.4510 -2.3293
  332MOL0     H44753   3.465   6.201  10.013 -2.0930 -1.9437 -0.5892
  332MOL0     H44754   3.649   6.241  10.184 -1.3874 -0.1692  1.4835
  332MOL0     H44755   3.846   6.212  10.326 -1.1807 -2.5169 -1.4061
  332MOL0     H44756   3.685   6.272  10.372  1.3232  2.4428 -0.3642
  332MOL0     H44757   3.918   6.157  10.535 -1.4245 -1.8752  1.3556
  332MOL0     H44758   3.852   6.331  10.543 -2.3525  0.7789  0.3782
  332MOL0     H44759   3.758   6.067  10.641 -0.5358  0.2895 -0.5511
  332MOL0     H44760   3.816   6.195  10.746  0.6488  2.8429 -1.1149
  332MOL0     H44761   3.631   6.355  10.679 -0.3858  0.7206  2.4338
  332MOL0     H44762   3.560   6.211  10.588 -0.6788 -0.6729  1.3287
  332MOL0     H44763   3.580   6.080  10.803 -2.6279 -0.2626  0.4504
  332MOL0     H44764   3.621   6.232  10.885 -0.1281  1.9550 -1.0719
  332MOL0     H44765   3.381   6.168  10.913 -2.2647 -0.7800 -1.2843
  332MOL0     H44766   3.387   6.307  10.792  0.3218  0.7721  0.6827
  332MOL0     H44767   3.396   6.065  10.647 -0.2809 -1.0668  0.1180
  332MOL0     H44768   3.297   6.024  10.786 -0.7038  1.4943  2.0336
  332MOL0     H44769   3.236   6.269  10.601 -1.2994 -0.2387 -1.8714
  332MOL0     H44770   3.140   6.228  10.743 -0.8251  0.8110 -1.0577
  332MOL0     H44771   3.183   6.166  10.361 -0.0278  0.6895  0.2450
  332MOL0     H44772   3.011   6.064  10.205 -0.7640  0.9895  0.7488
  332MOL0     H44773   3.031   5.883  10.219  1.3003 -0.3071  1.8585
  332MOL0     H44774   2.783   6.049  10.253 -1.0270 -0.8022 -1.1552
  332MOL0     H44775   2.801   5.906  10.349 -0.3925 -1.5366 -1.0475
  332MOL0     H44776   2.762   5.763  10.173  1.6657  1.1668  2.5557
  332MOL0     H44777   2.828   5.872  10.051  1.5169  0.0533  0.6444
  332MOL0     H44778   2.637   6.013  10.039 -0.7647 -0.8575 -0.7612
  332MOL0     H44779   2.560   5.943  10.186 -0.3564  1.2894  0.4817
  332MOL0     H44780   2.606   5.853   9.753 -0.2291 -0.0165 -0.3714
  332MOL0     H44781   2.467   5.812   9.534 -0.9182 -1.0969  1.6774
  332MOL0     H44782   2.374   5.940   9.490 -2.9657 -3.4255  2.3350
  332MOL0     H44783   2.546   5.967   9.546 -0.3157  0.4971  0.7768
  332MOL0     H44784   1.883   5.943   9.600  2.3977  0.5394  2.7692
  332MOL0     H44785   1.717   6.075   9.477 -0.5664  1.5558  0.2819
  332MOL0     H44786   1.769   6.270   9.259  1.7760  1.6425  0.1430
  332MOL0     H44787   1.606   6.228   9.335  0.0082  0.7618  0.7516
  332MOL0     H44788   1.516   6.440   9.304 -0.5523 -1.2878 -1.0769
  332MOL0     H44789   1.690   6.509   9.290  2.4628 -2.5368  0.3681
  332MOL0     H44790   1.541   6.354   9.069  0.6031 -1.3444  1.8514
  332MOL0     H44791   1.709   6.381   9.081 -0.4744 -0.9707  0.3317
  332MOL0     H44792   1.519   6.612   9.094  1.3746  0.2166  0.9496
  332MOL0     H44793   1.703   6.603   9.077  1.0705  0.0722 -1.9943
  332MOL0     H44794   1.676   6.533   8.849  0.6246  0.2247  0.3898
  332MOL0     H44795   1.563   6.658   8.862  1.9849 -0.7409 -2.5621
  332MOL0     H44796   1.492   6.358   8.863  3.3922  0.6000 -0.8337
  332MOL0     H44797   1.376   6.476   8.917 -0.8072 -0.1221 -1.8089
  332MOL0     H44798   1.532   6.457   8.652 -0.6366  1.2699 -2.1861
  332MOL0     H44799   1.412   6.581   8.677 -0.2715  0.5644  1.7353
  332MOL0     H44800   1.351   6.282   8.677 -0.0850  0.1032  2.6824
  332MOL0     H44801   1.315   6.412   8.547  1.1431  1.5071  1.0016
  332MOL0     H44802   1.920   6.432   9.594  1.7194 -0.5336 -2.0867
  332MOL0     H44803   2.048   6.289   9.773 -1.4896  2.0617 -0.2266
  332MOL0     H44804   2.151   5.919   9.933  0.7541 -2.0396  0.8767
  332MOL0     H44805   2.315   5.814  10.070 -2.4626  0.7960  0.3901
  332MOL0     H44806   3.571   5.854  10.352 -1.5544 -0.1572  0.1206
  332MOL0     H44807   3.375   5.826  10.181 -1.2249  0.9633  0.4118
  332MOL0     H44808   3.034   6.240   9.852 -1.6132  1.3932 -2.4284
  332MOL0     H44809   2.883   6.182   9.662  0.4805  1.1456 -0.5860
  332MOL0     H44810   3.064   5.960   9.405 -0.0820  1.7061  3.0147
  332MOL0     H44811   2.981   5.796   9.412  0.1610  0.5525  0.7017
  332MOL0     H44812   2.869   6.033   9.261  1.3704  0.7364 -0.0438
  332MOL0     H44813   2.824   5.858   9.266  1.5768 -1.6160 -2.4595
  332MOL0     H44814   3.108   5.903   9.183  0.8234 -1.0439 -0.1693
  332MOL0     H44815   2.982   5.972   9.071  1.1665 -1.0397 -1.0975
  332MOL0     H44816   2.879   5.764   9.035 -0.0909 -0.9862 -0.6129
  332MOL0     H44817   2.988   5.696   9.160  2.1937  2.2158  1.5407
  332MOL0     H44818   3.227   5.684   8.811  0.8792 -0.8040  2.6185
  332MOL0     H44819   3.085   5.805   9.621  0.1319  0.4638 -1.2196
  332MOL0     H44820   3.199   5.846   9.837 -1.0462  1.5005  0.7730
  333MOL0     O44821   8.612   9.154   9.653 -0.5524 -1.2088 -0.1850
  333MOL0     C44822   8.586   9.211   9.546 -0.2101 -0.7173  0.2067
  333MOL0     O44823   8.671   9.222   9.444 -0.1892  0.5795 -0.1740
  333MOL0     C44824   8.805   9.189   9.455 -1.3587  0.1006 -1.1934
  333MOL0     C44825   8.857   9.108   9.352  0.5582  0.1953  0.0151
  333MOL0     C44826   8.990   9.064   9.356  0.0196 -0.2296  0.1375
  333MOL0     C44827   9.074   9.099   9.460  0.4983 -0.0353  0.8824
  333MOL0     O44828   9.200   9.052   9.487  0.1197 -0.7590  0.3848
  333MOL0     C44829   9.273   9.016   9.370 -0.9418 -0.0644  0.7268
  333MOL0     C44830   9.421   8.995   9.412  0.3108 -0.9923  0.5245
  333MOL0     C44831   9.436   8.907   9.541  0.3443 -0.0441  0.5121
  333MOL0     C44832   9.487   8.996   9.658  0.5767  0.0620  0.5696
  333MOL0     C44833   9.484   8.939   9.798  0.1301 -0.5572 -0.1034
  333MOL0     C44834   9.595   8.827   9.809 -0.6048  0.3819  0.0947
  333MOL0     C44835   9.606   8.747   9.948  0.3221 -1.2458  0.0602
  333MOL0     C44836   9.619   8.842  10.076 -0.7866  0.4759 -0.5525
  333MOL0     N44837   9.661   8.767  10.200  0.3276 -0.0155  0.0992
  333MOL0     C44838   9.609   8.645  10.245 -0.0351 -0.4049 -0.5415
  333MOL0     C44839   9.664   8.637  10.362  0.0349  0.1191  0.6793
  333MOL0     C44840   9.621   8.535  10.461 -0.1516  0.0390  0.3184
  333MOL0     C44841   9.680   8.394  10.414  0.7267  0.0720  0.0244
  333MOL0     C44842   9.831   8.398  10.419 -0.0732  0.3566  0.0039
  333MOL0     C44843   9.896   8.342  10.296 -0.2643  0.2190  0.7221
  333MOL0     O44844   9.867   8.416  10.175  0.3346  0.4807  0.1939
  333MOL0     C44845   9.929   8.379  10.057 -0.4716  0.0407  0.1436
  333MOL0     C44846  10.048   8.294  10.041  0.5581 -0.3710  0.1250
  333MOL0     C44847  10.087   8.253   9.914  0.7715 -0.2753  0.0268
  333MOL0     C44848  10.204   8.171   9.898 -0.5516  0.3888  0.0249
  333MOL0     C44849  10.021   8.308   9.797  0.5877  0.2755 -0.6139
  333MOL0     C44850  10.044   8.274   9.649  0.3842  0.5359  0.3364
  333MOL0     O44851  10.114   8.159   9.621 -0.6241  0.4628 -0.4764
  333MOL0     C44852  10.124   8.107   9.491 -0.5340  0.0431 -0.5274
  333MOL0     C44853  10.144   8.186   9.376  0.6810 -1.3104  0.5544
  333MOL0     C44854  10.161   8.136   9.242  0.2905  0.5073 -0.7252
  333MOL0     C44855  10.148   7.995   9.227  0.0106  0.1971 -0.7781
  333MOL0     O44856  10.141   7.946   9.098  1.1804 -0.1997  0.1987
  333MOL0     C44857  10.041   8.015   9.017 -0.2710  1.1028 -0.5924
  333MOL0     C44858  10.090   8.052   8.883  1.2601 -0.0666  0.0583
  333MOL0     C44859  10.103   7.935   8.793 -0.8563  0.1763  1.3493
  333MOL0     C44860  10.101   7.962   8.635 -0.4193 -0.5829 -0.7433
  333MOL0     C44861  10.209   7.867   8.571  0.3803 -0.5017 -0.0206
  333MOL0     C44862  10.184   7.854   8.424  0.1471 -0.2957  1.0569
  333MOL0     C44863  10.308   7.791   8.344 -0.4685  0.3307  0.1424
  333MOL0     C44864  10.433   7.875   8.338 -0.5393 -0.0642  0.0894
  333MOL0    Cl44865  10.554   7.751   8.291  0.6291  0.3560  0.2823
  333MOL0     C44866  10.118   7.918   9.341  0.6467 -0.0783 -0.5723
  333MOL0     C44867  10.102   7.974   9.472 -0.4694  0.8584 -0.5801
  333MOL0     O44868  10.003   8.360   9.563 -0.3594 -0.1034 -0.5177
  333MOL0     C44869   9.908   8.398   9.819  0.0443 -1.1882  0.6700
  333MOL0     C44870   9.864   8.433   9.942  0.7465 -0.4017 -0.3138
  333MOL0     N44871   9.743   8.741  10.395 -0.0913  0.3411 -0.0623
  333MOL0     N44872   9.744   8.819  10.293  0.5567  0.4100 -0.2505
  333MOL0     C44873   9.030   9.186   9.558  0.1644 -0.2186 -0.8849
  333MOL0     C44874   8.890   9.226   9.555  0.0684  0.5951  0.0686
  333MOL0     C44875   8.442   9.263   9.522  0.2205  0.5911  0.7224
  333MOL0     C44876   8.342   9.245   9.615 -0.3911  1.2539  0.5189
  333MOL0     C44877   8.215   9.292   9.602  1.2240 -0.4929 -0.4800
  333MOL0     C44878   8.172   9.355   9.482 -0.2204 -0.5429  0.4831
  333MOL0     O44879   8.040   9.388   9.459 -0.3484  0.3279  0.3587
  333MOL0     C44880   7.968   9.426   9.574 -0.2443 -0.3412  1.1907
  333MOL0     C44881   7.824   9.463   9.520  0.0653 -0.6862 -0.1521
  333MOL0     C44882   7.835   9.579   9.419  0.2330 -0.2445 -0.0733
  333MOL0     C44883   7.697   9.634   9.368 -0.7874  0.0679 -0.2765
  333MOL0     C44884   7.607   9.526   9.337  0.4801  0.1678 -0.3862
  333MOL0     C44885   7.521   9.443   9.323  0.0877  0.5227  0.4013
  333MOL0     C44886   8.269   9.364   9.385 -0.1836 -0.3263  0.1796
  333MOL0     C44887   8.401   9.321   9.405 -0.8202 -0.4192  0.0262
  333MOL0     H44888   8.806   9.095   9.257 -2.6582  0.7304  1.5229
  333MOL0     H44889   9.015   8.987   9.283 -1.3800 -0.0856 -0.5246
  333MOL0     H44890   9.247   8.916   9.335  1.8252 -0.0701 -1.6182
  333MOL0     H44891   9.270   9.078   9.281  3.1310 -2.0036 -1.0205
  333MOL0     H44892   9.463   8.945   9.324 -0.5217 -1.4735  0.4025
  333MOL0     H44893   9.474   9.091   9.416  0.8307 -1.1855 -0.9660
  333MOL0     H44894   9.340   8.860   9.565  0.6298  0.3915  2.6677
  333MOL0     H44895   9.507   8.830   9.511  1.0607  1.2587 -1.3242
  333MOL0     H44896   9.590   9.030   9.648  0.6092  0.2678  1.4977
  333MOL0     H44897   9.419   9.082   9.652 -0.6083 -0.9648 -2.3251
  333MOL0     H44898   9.512   9.019   9.868 -0.8856  1.8594 -2.2923
  333MOL0     H44899   9.386   8.899   9.824 -0.3713 -0.0876 -1.2032
  333MOL0     H44900   9.584   8.761   9.723  0.6964 -0.2692  0.4030
  333MOL0     H44901   9.688   8.878   9.783 -1.7188  1.4328 -2.0147
  333MOL0     H44902   9.510   8.695   9.956 -2.5384  3.2502 -1.3851
  333MOL0     H44903   9.689   8.679   9.928 -0.5558 -1.9773 -1.2476
  333MOL0     H44904   9.524   8.887  10.104 -1.0983 -0.0866 -0.6851
  333MOL0     H44905   9.689   8.924  10.054  1.0658 -1.5892 -3.0991
  333MOL0     H44906   9.531   8.587  10.196 -0.1387 -0.5966 -0.1533
  333MOL0     H44907   9.661   8.556  10.560 -0.1151 -1.5738  0.6777
  333MOL0     H44908   9.511   8.528  10.459 -0.0904 -1.0785  0.3197
  333MOL0     H44909   9.649   8.358  10.315  3.0827 -2.6838  0.1603
  333MOL0     H44910   9.644   8.317  10.482  0.6741 -0.2973 -0.4172
  333MOL0     H44911   9.851   8.351  10.516 -1.3483  0.0914  0.1549
  333MOL0     H44912   9.864   8.501  10.431 -1.6560  0.8845  0.0454
  333MOL0     H44913   9.883   8.234  10.287  0.4129  0.1024  1.0884
  333MOL0     H44914  10.005   8.349  10.303 -0.1792  0.4397 -0.6380
  333MOL0     H44915  10.106   8.271  10.130 -1.4985  0.9548  1.9219
  333MOL0     H44916  10.278   8.234   9.847 -0.8459 -0.1768 -1.1430
  333MOL0     H44917  10.247   8.149   9.996 -4.1195  2.3155  2.2323
  333MOL0     H44918  10.177   8.077   9.849  1.2473 -2.1102  3.4063
  333MOL0     H44919  10.146   8.294   9.382 -2.0477 -1.1755  0.3746
  333MOL0     H44920  10.182   8.210   9.165  0.5340 -0.7074 -1.8438
  333MOL0     H44921   9.960   7.942   9.012  1.9286 -1.4825 -0.8885
  333MOL0     H44922   9.997   8.106   9.059 -0.5592  1.0654 -0.8090
  333MOL0     H44923  10.032   8.134   8.840 -0.6859 -1.0031  0.7526
  333MOL0     H44924  10.188   8.096   8.905  1.1495 -0.9565  2.7339
  333MOL0     H44925  10.035   7.854   8.821 -2.5675  0.6071 -1.2538
  333MOL0     H44926  10.200   7.893   8.822 -0.8454 -0.8945 -0.1433
  333MOL0     H44927  10.001   7.943   8.596 -0.3446 -0.7524 -0.8581
  333MOL0     H44928  10.129   8.066   8.616 -0.7572 -0.6780 -1.8549
  333MOL0     H44929  10.193   7.771   8.620  0.8974 -1.5021 -1.7336
  333MOL0     H44930  10.308   7.906   8.595  0.7615  0.4916 -2.8539
  333MOL0     H44931  10.093   7.794   8.411  0.3930 -0.6434  0.9081
  333MOL0     H44932  10.160   7.954   8.388 -0.6192  0.1495  2.6798
  333MOL0     H44933  10.290   7.765   8.240  1.7073  0.0735 -0.2090
  333MOL0     H44934  10.332   7.695   8.393 -0.3282 -0.6107 -1.7010
  333MOL0     H44935  10.463   7.921   8.432 -0.9159 -1.9269  1.1673
  333MOL0     H44936  10.417   7.958   8.268  2.5349  0.8360  0.3259
  333MOL0     H44937  10.115   7.810   9.330  3.8526 -0.2821 -0.2863
  333MOL0     H44938  10.077   7.915   9.560 -0.2950  1.4780 -0.1067
  333MOL0     H44939   9.855   8.451   9.740  0.1421 -2.4335 -0.2756
  333MOL0     H44940   9.775   8.494   9.951  0.0961 -1.4873  0.9078
  333MOL0     H44941   9.095   9.227   9.634  0.4517 -1.0754 -0.6607
  333MOL0     H44942   8.845   9.279   9.638 -0.5918 -1.5188  1.1351
  333MOL0     H44943   8.368   9.177   9.696 -0.5600  0.9927  0.3582
  333MOL0     H44944   8.151   9.282   9.689  1.6859  0.1459 -0.0647
  333MOL0     H44945   7.946   9.345   9.644 -2.1984  0.2640  1.3635
  333MOL0     H44946   8.011   9.518   9.616 -1.1132  0.2403  0.8463
  333MOL0     H44947   7.771   9.487   9.613  2.5366  1.2419  0.8909
  333MOL0     H44948   7.781   9.374   9.472  1.3391 -0.4186 -1.8710
  333MOL0     H44949   7.886   9.553   9.326  2.8889  1.9847  0.6037
  333MOL0     H44950   7.889   9.666   9.457 -2.5020  0.9741  1.2612
  333MOL0     H44951   7.729   9.691   9.280 -0.3078  2.5683  1.4012
  333MOL0     H44952   7.662   9.708   9.440  0.1479 -0.9842  1.3125
  333MOL0     H44953   7.438   9.377   9.309  1.2608 -1.2492  1.2902
  333MOL0     H44954   8.244   9.401   9.287 -2.3656 -0.5159  0.6142
  333MOL0     H44955   8.479   9.349   9.335  0.4060  2.6825  2.3626
  334MOL0     O44956   1.064   1.002   5.700  0.0287 -0.7438 -0.0711
  334MOL0     C44957   1.179   1.048   5.686  0.3505 -0.4900  1.0183
  334MOL0     O44958   1.215   1.181   5.706  0.8125 -1.5439 -1.1399
  334MOL0     C44959   1.127   1.280   5.736  0.0891 -0.1926 -0.2236
  334MOL0     C44960   1.192   1.400   5.766 -0.4943  0.0243 -0.9787
  334MOL0     C44961   1.116   1.520   5.798 -0.2637 -0.8452 -0.9103
  334MOL0     C44962   0.976   1.514   5.809 -0.4041  0.1529  0.6014
  334MOL0     O44963   0.890   1.619   5.828  0.3356  0.3253 -0.3065
  334MOL0     C44964   0.946   1.744   5.882  0.4714  0.1008 -0.2759
  334MOL0     C44965   0.839   1.851   5.909 -0.2976 -0.6744  0.3528
  334MOL0     C44966   0.773   1.916   5.791  0.5099 -0.0191  0.5288
  334MOL0     C44967   0.675   2.028   5.839 -0.3354  0.1245 -0.9944
  334MOL0     C44968   0.583   2.080   5.722 -0.0875  0.9365  0.0537
  334MOL0     C44969   0.670   2.153   5.612 -0.4002  0.6254  0.7337
  334MOL0     C44970   0.596   2.163   5.466  0.3406 -0.0026 -0.0428
  334MOL0     C44971   0.465   2.249   5.464 -0.8061  0.1502  1.0329
  334MOL0     N44972   0.436   2.257   5.321 -0.3699  0.5338 -0.1815
  334MOL0     C44973   0.374   2.159   5.245  0.4742 -0.1261  0.6467
  334MOL0     C44974   0.381   2.204   5.122  0.1012 -0.4850 -0.0994
  334MOL0     C44975   0.352   2.132   4.990 -0.4203  0.4509 -0.0076
  334MOL0     C44976   0.200   2.135   4.956 -0.1214  0.6102  0.1188
  334MOL0     C44977   0.140   2.277   4.933  0.9513 -0.6418 -0.0858
  334MOL0     C44978  -0.009   2.279   4.901 -0.2070  0.3249  0.0748
  334MOL0     O44979  -0.022   2.249   4.759 -0.0390  0.2216  0.1121
  334MOL0     C44980  -0.157   2.228   4.716  0.0618  0.0217 -0.1827
  334MOL0     C44981  -0.276   2.222   4.798  0.7849 -0.0957 -0.1777
  334MOL0     C44982  -0.402   2.185   4.752 -0.2849 -1.4695 -0.3281
  334MOL0     C44983  -0.523   2.183   4.844 -0.5767 -0.4459 -0.3878
  334MOL0     C44984  -0.407   2.160   4.605  1.6121  0.3715 -0.1099
  334MOL0     C44985  -0.531   2.114   4.537  0.3050  0.3032 -0.3933
  334MOL0     O44986  -0.516   2.021   4.436  0.0455 -0.9426 -0.0741
  334MOL0     C44987  -0.617   1.990   4.351  0.0150 -0.8498 -0.7070
  334MOL0     C44988  -0.618   2.065   4.231  0.6859  0.5479  0.6239
  334MOL0     C44989  -0.742   2.062   4.162  0.1422 -0.2645  0.2274
  334MOL0     C44990  -0.845   1.977   4.201 -0.4543 -0.1866  0.1544
  334MOL0     O44991  -0.942   1.974   4.106  0.9190 -0.8229  0.0250
  334MOL0     C44992  -0.991   1.850   4.072 -0.2582  0.9626  0.2294
  334MOL0     C44993  -1.117   1.866   3.992  0.2991  0.2304 -0.1059
  334MOL0     C44994  -1.109   1.947   3.866 -0.3008 -1.0954  0.1323
  334MOL0     C44995  -1.240   1.907   3.794  0.7285 -0.6243  0.2206
  334MOL0     C44996  -1.272   1.992   3.669  0.0409 -0.2003 -0.7316
  334MOL0     C44997  -1.314   2.146   3.686  0.5062 -0.7339 -0.2028
  334MOL0     C44998  -1.327   2.243   3.564  0.3761 -0.0647 -0.1538
  334MOL0     C44999  -1.466   2.302   3.540  0.4595  0.0813 -1.5209
  334MOL0    Cl45000  -1.486   2.369   3.377  0.4760  0.0941  0.0727
  334MOL0     C45001  -0.830   1.899   4.313 -0.1461 -0.5596  0.1399
  334MOL0     C45002  -0.712   1.903   4.386 -0.2500 -1.0954 -0.0184
  334MOL0     O45003  -0.637   2.166   4.571  0.3801  0.3196 -0.0940
  334MOL0     C45004  -0.296   2.180   4.532  0.6414 -0.1735  0.2352
  334MOL0     C45005  -0.171   2.203   4.582  0.5329 -1.1528 -1.3884
  334MOL0     N45006   0.444   2.329   5.121  0.8242 -0.7093 -0.9972
  334MOL0     N45007   0.474   2.364   5.239 -1.0150 -0.1014  0.4539
  334MOL0     C45008   0.916   1.397   5.774  0.4885  0.2424  0.7290
  334MOL0     C45009   0.989   1.282   5.735 -0.0815 -0.2850 -0.5178
  334MOL0     C45010   1.292   0.948   5.686  0.6427  0.1860  0.8514
  334MOL0     C45011   1.271   0.816   5.738  0.0684 -0.8618 -0.9380
  334MOL0     C45012   1.380   0.731   5.747  0.6243  0.3251  0.0305
  334MOL0     C45013   1.502   0.768   5.684  0.2040  0.4161 -0.2097
  334MOL0     O45014   1.619   0.683   5.676 -0.3917  0.4560 -0.2664
  334MOL0     C45015   1.624   0.571   5.762  0.4631  0.0990  0.0297
  334MOL0     C45016   1.572   0.447   5.673 -0.0178 -0.7433 -0.1590
  334MOL0     C45017   1.530   0.319   5.754  0.3084 -0.6274 -0.9420
  334MOL0     C45018   1.470   0.198   5.673  0.3873 -0.6003 -0.5282
  334MOL0     C45019   1.356   0.240   5.598 -0.3098 -0.4062  0.6610
  334MOL0     C45020   1.257   0.302   5.550 -0.1033  1.4137 -0.2523
  334MOL0     C45021   1.510   0.896   5.640 -0.8067 -0.1565  0.1062
  334MOL0     C45022   1.412   0.984   5.634  0.3334 -0.0923  0.5764
  334MOL0     H45023   1.296   1.422   5.747  0.0362 -0.6472  0.9401
  334MOL0     H45024   1.163   1.611   5.834 -0.7141 -0.8755 -0.2285
  334MOL0     H45025   0.980   1.715   5.982 -3.3397 -0.8471  0.9191
  334MOL0     H45026   1.025   1.783   5.817 -1.6761  1.4571 -2.2362
  334MOL0     H45027   0.768   1.800   5.976  0.8843 -0.5532  1.7354
  334MOL0     H45028   0.880   1.935   5.965 -0.8292  0.3239 -0.7308
  334MOL0     H45029   0.856   1.952   5.729  3.0330 -0.1126  3.5693
  334MOL0     H45030   0.702   1.851   5.740 -3.6700  2.5129  2.5865
  334MOL0     H45031   0.609   1.993   5.919 -4.5753  2.2796 -3.2152
  334MOL0     H45032   0.730   2.110   5.886 -0.6963 -0.1110 -0.1451
  334MOL0     H45033   0.519   2.004   5.676 -1.9751  0.8864  2.5367
  334MOL0     H45034   0.520   2.156   5.770  0.2137  0.6975  0.8378
  334MOL0     H45035   0.707   2.252   5.641  2.8499 -0.9039  2.3956
  334MOL0     H45036   0.758   2.088   5.607 -0.9256 -0.1656  1.3240
  334MOL0     H45037   0.663   2.221   5.403 -1.5893  1.4560 -0.8437
  334MOL0     H45038   0.575   2.071   5.410  0.2145  2.6894 -5.0359
  334MOL0     H45039   0.484   2.353   5.494 -2.9302  1.5842 -1.9994
  334MOL0     H45040   0.379   2.229   5.529 -1.1981  2.3215  1.2912
  334MOL0     H45041   0.342   2.059   5.271  0.7722 -0.0680  1.2539
  334MOL0     H45042   0.415   2.173   4.910  2.3906 -3.6636 -0.2235
  334MOL0     H45043   0.388   2.030   5.000 -1.1909  0.2766  1.1375
  334MOL0     H45044   0.142   2.084   5.033 -2.1514  1.1566 -0.9721
  334MOL0     H45045   0.192   2.090   4.857 -0.2325  2.9116 -0.9966
  334MOL0     H45046   0.183   2.332   4.848 -1.2937 -2.4720 -2.5568
  334MOL0     H45047   0.161   2.333   5.025  0.8371  0.0829 -0.4997
  334MOL0     H45048  -0.052   2.376   4.925  1.3730  1.2272 -0.5866
  334MOL0     H45049  -0.063   2.208   4.964  0.6949  0.3361  0.8770
  334MOL0     H45050  -0.257   2.259   4.899 -0.5203 -0.3994  0.1954
  334MOL0     H45051  -0.492   2.140   4.940 -0.6993 -0.4358 -0.3444
  334MOL0     H45052  -0.543   2.287   4.871 -2.5916  0.0211 -3.2884
  334MOL0     H45053  -0.603   2.121   4.804 -0.6593 -0.0517 -0.8430
  334MOL0     H45054  -0.530   2.118   4.196  0.0599  0.7264 -0.7630
  334MOL0     H45055  -0.756   2.117   4.070 -2.4838 -2.5549 -0.8815
  334MOL0     H45056  -0.922   1.791   4.012  1.8828  2.6592  0.9012
  334MOL0     H45057  -1.026   1.801   4.164 -0.5021  2.3917  0.9168
  334MOL0     H45058  -1.142   1.767   3.951  0.9284 -1.0246  2.3471
  334MOL0     H45059  -1.199   1.909   4.051 -1.4418  1.5370 -3.2410
  334MOL0     H45060  -1.022   1.921   3.805  0.0029 -0.4682  0.2875
  334MOL0     H45061  -1.103   2.054   3.889  2.5699 -0.1399 -3.9298
  334MOL0     H45062  -1.246   1.801   3.770 -1.4495 -0.4340 -0.2662
  334MOL0     H45063  -1.324   1.928   3.861 -0.2724 -0.6579 -0.9843
  334MOL0     H45064  -1.355   1.939   3.621  0.1985 -1.4938  0.3812
  334MOL0     H45065  -1.188   1.986   3.599  1.7236 -0.9751  1.2466
  334MOL0     H45066  -1.410   2.138   3.737 -0.1331 -1.2860 -1.4415
  334MOL0     H45067  -1.237   2.184   3.753 -2.2766  0.7673  2.3770
  334MOL0     H45068  -1.286   2.190   3.477 -0.9967 -0.7763 -0.3846
  334MOL0     H45069  -1.250   2.318   3.585 -0.1192  0.4699 -0.2367
  334MOL0     H45070  -1.498   2.382   3.607  0.0152 -1.0708 -0.3110
  334MOL0     H45071  -1.536   2.221   3.563 -1.7422  1.9344 -1.3403
  334MOL0     H45072  -0.912   1.832   4.336  1.7836 -2.1033  3.2318
  334MOL0     H45073  -0.705   1.844   4.477  4.1419  0.9904  1.2793
  334MOL0     H45074  -0.293   2.165   4.425 -0.3937  0.7858  0.0585
  334MOL0     H45075  -0.082   2.196   4.519  1.9189 -4.1266  0.6592
  334MOL0     H45076   0.807   1.397   5.771  0.3653 -3.7505 -0.6013
  334MOL0     H45077   0.930   1.197   5.703  0.5324 -1.6495  1.7806
  334MOL0     H45078   1.170   0.793   5.771 -0.7070  2.7770 -0.3166
  334MOL0     H45079   1.359   0.640   5.803 -2.2622  0.6452 -0.3952
  334MOL0     H45080   1.724   0.548   5.800  0.8176 -2.4030 -2.1538
  334MOL0     H45081   1.562   0.582   5.851 -0.9094 -0.6544 -0.8072
  334MOL0     H45082   1.648   0.427   5.598 -0.5506  3.1421 -2.0314
  334MOL0     H45083   1.481   0.487   5.625 -3.4284 -0.3038  5.7018
  334MOL0     H45084   1.451   0.348   5.824  2.0411 -0.6176  1.1172
  334MOL0     H45085   1.612   0.281   5.815 -0.7353 -0.6821  0.4739
  334MOL0     H45086   1.478   0.105   5.730  1.9839 -1.1402 -1.5570
  334MOL0     H45087   1.543   0.178   5.593  1.9083 -0.2886  0.7191
  334MOL0     H45088   1.171   0.358   5.519 -1.5798  0.8185  2.4010
  334MOL0     H45089   1.612   0.918   5.608 -0.8280 -0.7783 -0.4224
  334MOL0     H45090   1.431   1.083   5.595 -2.6060 -0.2036 -1.4824
  335MOL0     O45091   7.522   6.677   0.233  0.2941 -0.0084  0.7230
  335MOL0     C45092   7.437   6.685   0.143  0.2558 -0.1758  0.9398
  335MOL0     O45093   7.430   6.781   0.057 -0.0544 -1.1756  0.9090
  335MOL0     C45094   7.513   6.891   0.057 -0.1677  1.4189  0.1292
  335MOL0     C45095   7.578   6.937  -0.057  0.4294 -0.1882  0.3345
  335MOL0     C45096   7.653   7.053  -0.055 -1.2595  0.0895 -0.3482
  335MOL0     C45097   7.650   7.129   0.057  0.2833 -1.1408 -0.1170
  335MOL0     O45098   7.713   7.251   0.049 -0.2687  0.1351  0.1475
  335MOL0     C45099   7.664   7.362   0.121  0.5943  0.6584  0.3920
  335MOL0     C45100   7.532   7.425   0.070  0.4142 -0.0791 -1.0773
  335MOL0     C45101   7.480   7.534   0.160  1.2276 -0.2564  0.0015
  335MOL0     C45102   7.376   7.623   0.096  1.6765  0.0946 -0.2493
  335MOL0     C45103   7.343   7.743   0.185 -0.3368  0.0271 -0.0682
  335MOL0     C45104   7.254   7.863   0.142 -0.1448 -0.0410  0.6858
  335MOL0     C45105   7.104   7.813   0.122  0.7505  0.5407  0.8940
  335MOL0     C45106   7.022   7.797   0.251  0.0073  0.5421 -0.1912
  335MOL0     N45107   6.900   7.725   0.225  0.0175 -0.7576  0.3543
  335MOL0     C45108   6.781   7.778   0.256  0.2195  0.2950 -1.2166
  335MOL0     C45109   6.683   7.697   0.206 -0.0362  0.2367  0.1735
  335MOL0     C45110   6.536   7.732   0.206  0.1729 -0.2747  1.7350
  335MOL0     C45111   6.504   7.885   0.250  0.9800 -0.8652  0.0898
  335MOL0     C45112   6.374   7.940   0.203 -0.7464 -0.2110 -0.3058
  335MOL0     C45113   6.256   7.831   0.234 -0.1718 -1.3670 -0.1182
  335MOL0     O45114   6.239   7.839   0.378  0.2396  0.3829  0.1022
  335MOL0     C45115   6.168   7.731   0.428  0.5920  0.3500  0.5281
  335MOL0     C45116   6.109   7.634   0.345  0.2833 -0.2509  0.0037
  335MOL0     C45117   6.031   7.527   0.406 -0.6004 -0.2835  0.3374
  335MOL0     C45118   5.967   7.423   0.307 -0.6983 -0.1239 -0.0389
  335MOL0     C45119   6.017   7.515   0.550 -0.0915  1.4433 -0.0505
  335MOL0     C45120   5.950   7.404   0.623 -0.2717 -1.2215  1.7087
  335MOL0     O45121   5.972   7.416   0.760  0.2434 -0.6914  0.0542
  335MOL0     C45122   5.876   7.363   0.840  0.5262  0.3799  0.8047
  335MOL0     C45123   5.850   7.220   0.851 -0.0081 -0.4810  1.1206
  335MOL0     C45124   5.762   7.171   0.939  0.3217  0.3051 -0.2292
  335MOL0     C45125   5.696   7.252   1.034  0.0776  0.2606 -0.0997
  335MOL0     O45126   5.602   7.199   1.119  0.0476 -0.7300 -0.6283
  335MOL0     C45127   5.545   7.072   1.113  0.8465  0.1717  0.6689
  335MOL0     C45128   5.411   7.070   1.183 -0.3112 -0.3095 -0.0570
  335MOL0     C45129   5.403   6.949   1.277 -0.2946 -0.2291  0.0855
  335MOL0     C45130   5.295   6.955   1.381  0.3239  0.0888 -0.1559
  335MOL0     C45131   5.259   6.825   1.447  0.1871  0.4591 -0.8315
  335MOL0     C45132   5.377   6.744   1.508  0.4005 -0.0111 -0.5166
  335MOL0     C45133   5.445   6.801   1.634 -0.9775 -0.1463 -0.0346
  335MOL0     C45134   5.567   6.716   1.663  0.6505 -0.6075 -0.2562
  335MOL0    Cl45135   5.701   6.714   1.531 -0.0055 -0.3421  0.2021
  335MOL0     C45136   5.723   7.392   1.028 -0.2610  0.8489 -0.3632
  335MOL0     C45137   5.807   7.446   0.929 -0.9053  0.6362 -1.2122
  335MOL0     O45138   5.880   7.321   0.570  0.3959  0.0344 -0.2517
  335MOL0     C45139   6.060   7.619   0.619 -0.1978 -1.2192 -1.3548
  335MOL0     C45140   6.136   7.722   0.559  0.0356 -0.1926 -0.3467
  335MOL0     N45141   6.756   7.593   0.142 -0.3496 -0.2520  0.1668
  335MOL0     N45142   6.883   7.608   0.161  0.0764 -0.3633  0.6014
  335MOL0     C45143   7.585   7.087   0.175 -0.9487 -0.0334  0.6278
  335MOL0     C45144   7.518   6.965   0.170  0.1027  0.0426 -0.9193
  335MOL0     C45145   7.342   6.578   0.129  0.0187 -0.3916  0.2556
  335MOL0     C45146   7.388   6.454   0.172  0.0708  0.2232 -1.2561
  335MOL0     C45147   7.299   6.345   0.163 -0.9202 -0.6044 -0.0635
  335MOL0     C45148   7.175   6.354   0.103 -0.1917 -0.0935  0.3978
  335MOL0     O45149   7.084   6.255   0.081  0.1615 -0.3171  0.6890
  335MOL0     C45150   7.099   6.140   0.158 -0.2119  1.1732  0.9136
  335MOL0     C45151   7.030   6.026   0.097  0.9252  0.2437  0.3811
  335MOL0     C45152   7.093   5.971  -0.045 -0.2162 -0.4154  0.4215
  335MOL0     C45153   7.037   5.840  -0.090  1.0772  0.4918  0.3001
  335MOL0     C45154   7.135   5.770  -0.180  0.1945 -1.0289  0.1270
  335MOL0     C45155   7.187   5.703  -0.262 -0.3004  0.4445 -0.1262
  335MOL0     C45156   7.151   6.470   0.033  0.2795 -0.6964  0.0703
  335MOL0     C45157   7.233   6.585   0.044  0.6528 -0.5734 -0.7061
  335MOL0     H45158   7.585   6.882  -0.150 -1.2080  4.0457 -2.6147
  335MOL0     H45159   7.711   7.101  -0.132 -0.1635  1.2948  1.1644
  335MOL0     H45160   7.663   7.348   0.230 -0.3931 -0.0256  0.3150
  335MOL0     H45161   7.736   7.441   0.100 -0.0733  1.5929  1.4940
  335MOL0     H45162   7.563   7.451  -0.032 -0.5974  3.5852 -0.5630
  335MOL0     H45163   7.455   7.347   0.063 -1.5069  1.8309 -2.4361
  335MOL0     H45164   7.446   7.522   0.263  2.7454 -2.0121  0.3512
  335MOL0     H45165   7.560   7.608   0.168  2.5376 -1.6015 -0.2711
  335MOL0     H45166   7.416   7.643  -0.004 -0.1143 -0.9122 -1.2361
  335MOL0     H45167   7.289   7.559   0.078  1.2376  0.4564  0.5801
  335MOL0     H45168   7.319   7.700   0.283  3.0751  1.8669  1.7361
  335MOL0     H45169   7.444   7.781   0.202  0.7960 -1.7651 -2.2857
  335MOL0     H45170   7.266   7.950   0.207  1.6315 -0.1502  0.5550
  335MOL0     H45171   7.290   7.897   0.044  0.8133 -2.2224  0.2205
  335MOL0     H45172   7.059   7.891   0.059 -0.7897  0.7630  2.2166
  335MOL0     H45173   7.119   7.716   0.073 -2.3031  0.2324  0.3913
  335MOL0     H45174   7.006   7.886   0.313  0.6551  0.4278  0.1569
  335MOL0     H45175   7.084   7.731   0.312  2.1520  1.0276 -1.7375
  335MOL0     H45176   6.763   7.863   0.321 -1.5202 -1.3096  0.5440
  335MOL0     H45177   6.499   7.707   0.106 -0.3926 -0.2511  1.9398
  335MOL0     H45178   6.493   7.658   0.273 -1.7494 -0.0643  0.8034
  335MOL0     H45179   6.590   7.939   0.210  1.0281 -2.8438 -2.7857
  335MOL0     H45180   6.500   7.898   0.359 -0.3840  1.2811 -0.1343
  335MOL0     H45181   6.377   7.942   0.094 -0.9752 -0.1978 -0.3127
  335MOL0     H45182   6.350   8.040   0.241  0.3568 -0.1451  0.2528
  335MOL0     H45183   6.283   7.730   0.203  0.5553 -1.1559 -0.1909
  335MOL0     H45184   6.161   7.862   0.191  0.5147  1.9204  0.4490
  335MOL0     H45185   6.117   7.629   0.237  0.7594 -3.0156  0.0688
  335MOL0     H45186   5.859   7.437   0.301 -0.6790 -0.5450 -1.7735
  335MOL0     H45187   6.019   7.442   0.213  1.8999 -0.1618  1.2766
  335MOL0     H45188   5.998   7.320   0.329  0.0756  0.2890  0.9189
  335MOL0     H45189   5.904   7.145   0.794 -2.7510 -1.7149 -0.0590
  335MOL0     H45190   5.760   7.063   0.944  0.8697  0.2739 -0.6032
  335MOL0     H45191   5.529   7.040   1.010  0.1585 -1.8179  1.3283
  335MOL0     H45192   5.614   7.002   1.162 -0.1392 -0.2648  1.4575
  335MOL0     H45193   5.392   7.161   1.241  0.5417 -0.0374 -0.1878
  335MOL0     H45194   5.333   7.076   1.107 -0.7012 -1.2299  0.2513
  335MOL0     H45195   5.498   6.935   1.328 -0.7721  2.4269  1.8917
  335MOL0     H45196   5.380   6.856   1.223  0.1181 -0.3976  0.1961
  335MOL0     H45197   5.333   7.026   1.455  1.7053 -0.8891  0.1105
  335MOL0     H45198   5.205   6.991   1.331 -0.5132 -0.8861  0.5928
  335MOL0     H45199   5.197   6.756   1.389 -1.3649  0.3560  0.8810
  335MOL0     H45200   5.199   6.857   1.533  0.2415  1.6888 -1.2388
  335MOL0     H45201   5.340   6.644   1.531  1.2069 -0.0859  0.5464
  335MOL0     H45202   5.445   6.733   1.424  0.2820  0.7246 -0.7190
  335MOL0     H45203   5.385   6.785   1.724 -1.2981 -2.0456 -0.5440
  335MOL0     H45204   5.469   6.907   1.627 -1.7186  0.1878  1.9562
  335MOL0     H45205   5.535   6.618   1.698 -0.1153  0.5242  2.5939
  335MOL0     H45206   5.620   6.753   1.752 -2.8492  1.5793  1.1691
  335MOL0     H45207   5.665   7.451   1.099 -0.4348 -0.5810  0.7303
  335MOL0     H45208   5.819   7.554   0.931 -2.2755  0.8009  0.2248
  335MOL0     H45209   6.044   7.640   0.724  1.7267  2.3238 -1.6364
  335MOL0     H45210   6.175   7.806   0.616 -2.5278  0.8054  0.0512
  335MOL0     H45211   7.577   7.140   0.269 -0.4224 -1.8822  1.7782
  335MOL0     H45212   7.465   6.931   0.259  1.5962  2.3631  0.9820
  335MOL0     H45213   7.489   6.449   0.212  0.3364 -0.6364 -2.0025
  335MOL0     H45214   7.335   6.251   0.202  0.1915 -0.4429 -0.6662
  335MOL0     H45215   7.205   6.114   0.163 -0.7362 -1.1376  1.6860
  335MOL0     H45216   7.048   6.147   0.255 -2.8019  1.3610 -0.3607
  335MOL0     H45217   6.929   6.056   0.071  0.5389  0.8286  2.3491
  335MOL0     H45218   7.033   5.955   0.181  0.7262  2.4260  2.3213
  335MOL0     H45219   7.202   5.967  -0.031 -0.0227 -2.4994 -1.1897
  335MOL0     H45220   7.079   6.046  -0.123  1.4249  0.2983  0.7803
  335MOL0     H45221   6.953   5.859  -0.157  0.1982 -1.0497  0.9133
  335MOL0     H45222   7.006   5.783  -0.002 -0.3630  1.8331  0.6989
  335MOL0     H45223   7.220   5.642  -0.344 -3.6252 -0.6127 -0.8457
  335MOL0     H45224   7.067   6.466  -0.036  2.0564  0.2634 -2.3128
  335MOL0     H45225   7.207   6.674  -0.012 -0.7890 -1.0718 -0.8670
  336MOL0     O45226   6.816  10.141   0.503 -0.4021 -0.2028 -0.8623
  336MOL0     C45227   6.794  10.259   0.472 -0.1978  0.4522 -0.7041
  336MOL0     O45228   6.848  10.368   0.538  0.6126 -0.8962 -0.5446
  336MOL0     C45229   6.947  10.351   0.641 -0.4028 -0.3069 -0.3193
  336MOL0     C45230   6.901  10.330   0.772  0.5691 -0.5382  0.2583
  336MOL0     C45231   6.989  10.313   0.882  0.6639  0.2243 -0.7755
  336MOL0     C45232   7.129  10.310   0.860  0.4774  0.4210 -0.1184
  336MOL0     O45233   7.193  10.282   0.979 -0.4470 -0.6275 -0.4557
  336MOL0     C45234   7.335  10.303   0.980 -0.5564  0.2448 -1.1024
  336MOL0     C45235   7.420  10.174   0.977  0.0343 -0.2440  0.1326
  336MOL0     C45236   7.366  10.088   1.089 -0.8424 -0.5527 -0.5095
  336MOL0     C45237   7.433   9.952   1.082 -0.4276  0.1588  0.9938
  336MOL0     C45238   7.354   9.838   1.163 -0.3097 -0.1610  0.2058
  336MOL0     C45239   7.335   9.877   1.309 -0.0973 -0.7475 -0.2736
  336MOL0     C45240   7.244   9.772   1.367 -0.2230 -0.1712  0.1575
  336MOL0     C45241   7.241   9.778   1.523 -0.3805 -0.1974  0.5561
  336MOL0     N45242   7.205   9.906   1.579 -0.1126 -0.0393  0.0746
  336MOL0     C45243   7.249   9.952   1.700  0.4840 -0.6776 -0.3620
  336MOL0     C45244   7.178  10.063   1.720 -0.0950  0.2054 -0.4880
  336MOL0     C45245   7.182  10.151   1.839  0.5277  0.3549 -0.0665
  336MOL0     C45246   7.087  10.123   1.956  0.8539  0.1425  0.6426
  336MOL0     C45247   7.064  10.237   2.056 -1.0451  0.6772  0.2281
  336MOL0     C45248   7.192  10.281   2.125  0.2645  0.6664 -0.6105
  336MOL0     O45249   7.255  10.172   2.193  0.5043 -0.1229 -0.3259
  336MOL0     C45250   7.196  10.125   2.307 -0.5711 -1.2418 -0.6980
  336MOL0     C45251   7.130  10.010   2.311 -0.2209  1.0336 -0.1666
  336MOL0     C45252   7.063   9.968   2.425 -0.7850 -0.7555 -0.1973
  336MOL0     C45253   6.995   9.832   2.417  0.5223 -0.2807  0.3128
  336MOL0     C45254   7.073  10.052   2.545  0.1346 -1.1255 -0.1062
  336MOL0     C45255   7.008  10.023   2.673 -0.0889  0.0763 -0.6180
  336MOL0     O45256   6.871   9.995   2.667  0.1638 -0.0091 -0.7003
  336MOL0     C45257   6.807  10.010   2.789 -0.0408  0.7995  0.5826
  336MOL0     C45258   6.788  10.140   2.851 -0.4197  0.2175 -0.3933
  336MOL0     C45259   6.735  10.159   2.979  0.1951 -0.0008  0.4129
  336MOL0     C45260   6.688  10.052   3.046  0.7661 -0.2213 -0.3789
  336MOL0     O45261   6.628  10.061   3.171 -1.1107  0.0348  0.0136
  336MOL0     C45262   6.652  10.168   3.261  0.1652 -0.1692 -0.5248
  336MOL0     C45263   6.550  10.149   3.376 -0.0601  0.8095  1.0356
  336MOL0     C45264   6.481  10.271   3.413  0.7942 -0.3266  0.3098
  336MOL0     C45265   6.396  10.235   3.539 -0.2257  0.2568 -0.5837
  336MOL0     C45266   6.313  10.356   3.578  0.5575 -0.2522 -0.5805
  336MOL0     C45267   6.394  10.460   3.652  0.3375 -0.7464  0.5114
  336MOL0     C45268   6.355  10.612   3.626 -0.3575 -0.2921  0.2645
  336MOL0     C45269   6.476  10.704   3.659  0.0534  0.3547 -0.7903
  336MOL0    Cl45270   6.465  10.873   3.661  0.1572 -0.2869 -0.0809
  336MOL0     C45271   6.705   9.915   2.996  0.0052 -0.6604 -1.3655
  336MOL0     C45272   6.771   9.890   2.870 -0.2522 -0.1253 -1.1681
  336MOL0     O45273   7.072  10.019   2.781 -0.3672 -0.4871 -0.1547
  336MOL0     C45274   7.155  10.167   2.536 -0.5612 -0.0082 -0.2010
  336MOL0     C45275   7.223  10.204   2.423 -0.2313  0.8346  0.7848
  336MOL0     N45276   7.091  10.079   1.615 -0.5670  0.3020  0.2651
  336MOL0     N45277   7.101   9.985   1.524  0.1130 -0.0081 -0.4361
  336MOL0     C45278   7.175  10.327   0.730 -1.4639  0.5120 -0.4201
  336MOL0     C45279   7.088  10.335   0.620  0.5787 -0.5527  0.1724
  336MOL0     C45280   6.697  10.273   0.365  0.1916 -0.8893 -0.2881
  336MOL0     C45281   6.621  10.168   0.297  0.8616 -0.6080  0.0568
  336MOL0     C45282   6.538  10.187   0.181 -0.3104 -0.8349 -0.3436
  336MOL0     C45283   6.525  10.324   0.133 -0.1936  0.6976  0.1287
  336MOL0     O45284   6.451  10.333   0.020 -0.6363  0.4825 -0.2009
  336MOL0     C45285   6.470  10.442  -0.074  0.2402 -0.0748 -0.2464
  336MOL0     C45286   6.367  10.421  -0.185  0.4374 -0.3575 -0.0751
  336MOL0     C45287   6.409  10.311  -0.290  0.0221  0.3141 -0.1298
  336MOL0     C45288   6.316  10.302  -0.409 -0.6738  0.3909  0.0566
  336MOL0     C45289   6.203  10.212  -0.392 -0.9077 -0.0041  0.5534
  336MOL0     C45290   6.100  10.153  -0.366 -0.6144  0.4887 -0.0650
  336MOL0     C45291   6.595  10.425   0.195 -0.3642  0.3212  0.1787
  336MOL0     C45292   6.674  10.396   0.311  0.6931  0.3493  0.7134
  336MOL0     H45293   6.795  10.346   0.792  0.4133  1.4511 -1.6770
  336MOL0     H45294   6.955  10.304   0.985  2.5318 -0.3337 -0.1543
  336MOL0     H45295   7.370  10.392   0.927 -1.8330  2.7828  2.0421
  336MOL0     H45296   7.349  10.338   1.082  0.7237 -0.9526 -0.8371
  336MOL0     H45297   7.400  10.126   0.881  1.2798 -0.9333  0.1989
  336MOL0     H45298   7.529  10.183   0.985  0.2064 -0.8003 -1.2701
  336MOL0     H45299   7.389  10.148   1.177  0.9202  0.4325 -1.5927
  336MOL0     H45300   7.258  10.069   1.086 -0.7092 -1.2605 -2.7300
  336MOL0     H45301   7.444   9.927   0.976 -2.5590  2.1446  0.2223
  336MOL0     H45302   7.534   9.953   1.122 -0.2594  2.3855  0.6756
  336MOL0     H45303   7.259   9.821   1.112 -1.7855  3.6494  1.3582
  336MOL0     H45304   7.418   9.748   1.161  0.0800  0.0973 -2.2099
  336MOL0     H45305   7.437   9.873   1.347 -1.4677 -2.4569  3.6818
  336MOL0     H45306   7.287   9.974   1.328  0.5475 -0.3206 -0.7954
  336MOL0     H45307   7.145   9.792   1.326 -0.3606  2.0595  1.4506
  336MOL0     H45308   7.276   9.671   1.340  1.4391  0.2212  0.5096
  336MOL0     H45309   7.340   9.759   1.566  0.4098 -1.8938 -1.7941
  336MOL0     H45310   7.184   9.693   1.560  0.4129 -0.9560  0.0780
  336MOL0     H45311   7.317   9.896   1.763  0.9083 -0.6108 -0.7570
  336MOL0     H45312   7.286  10.147   1.872  0.6349  1.0948 -0.2985
  336MOL0     H45313   7.166  10.251   1.798  0.2442 -0.6469 -2.6041
  336MOL0     H45314   7.133  10.037   2.004 -2.5423 -0.9158  2.3459
  336MOL0     H45315   6.994  10.077   1.921  1.9399 -2.1724  0.6522
  336MOL0     H45316   6.989  10.207   2.129 -2.5907  1.6541 -0.8805
  336MOL0     H45317   7.027  10.329   2.008  1.8947  0.5744 -2.6629
  336MOL0     H45318   7.166  10.362   2.193  1.2268  0.2277  0.2973
  336MOL0     H45319   7.258  10.318   2.047 -1.4275  1.7263 -1.6152
  336MOL0     H45320   7.129   9.934   2.233  1.6450  1.3883 -0.5769
  336MOL0     H45321   6.901   9.824   2.473  0.1496  2.1409  0.1362
  336MOL0     H45322   6.972   9.808   2.313 -0.4677  0.1167  0.4284
  336MOL0     H45323   7.060   9.758   2.464  0.2165  0.8678  2.6895
  336MOL0     H45324   6.813  10.232   2.799  0.1328  0.8846  1.0058
  336MOL0     H45325   6.733  10.262   3.016  3.8178 -0.1894  1.5926
  336MOL0     H45326   6.753  10.167   3.302  0.5067 -0.8874 -1.3602
  336MOL0     H45327   6.632  10.264   3.214 -2.2666  1.2114  2.8641
  336MOL0     H45328   6.471  10.077   3.353 -0.1804  0.9085  1.1396
  336MOL0     H45329   6.609  10.111   3.460 -0.8722 -3.5404 -0.1330
  336MOL0     H45330   6.417  10.294   3.327  0.6553  0.1376  0.5345
  336MOL0     H45331   6.549  10.356   3.426 -0.7559  1.5347 -2.6220
  336MOL0     H45332   6.325  10.153   3.524 -1.3382  1.2920 -1.1471
  336MOL0     H45333   6.462  10.196   3.617 -0.4350 -2.3794 -1.6144
  336MOL0     H45334   6.228  10.320   3.636 -0.0585 -1.7001 -2.2810
  336MOL0     H45335   6.274  10.399   3.485  0.6335  1.0319 -0.0349
  336MOL0     H45336   6.396  10.435   3.759  0.4648 -1.8402  0.2665
  336MOL0     H45337   6.498  10.463   3.620 -0.2064 -0.0766 -1.2880
  336MOL0     H45338   6.267  10.641   3.684 -0.7111  1.6523 -1.1498
  336MOL0     H45339   6.334  10.625   3.520  2.3822  2.1010 -0.1284
  336MOL0     H45340   6.568  10.666   3.613 -0.2784  1.2506 -2.2789
  336MOL0     H45341   6.492  10.681   3.764 -0.6033 -2.7513 -1.2457
  336MOL0     H45342   6.681   9.837   3.067  1.6449  2.0555  2.5796
  336MOL0     H45343   6.781   9.785   2.844  1.2010 -0.0277 -1.0702
  336MOL0     H45344   7.166  10.228   2.625 -1.2744 -1.1050  0.6588
  336MOL0     H45345   7.291  10.289   2.419 -1.2666  1.7577  2.0455
  336MOL0     H45346   7.278  10.310   0.703 -0.1184  1.0656  3.6715
  336MOL0     H45347   7.117  10.338   0.515  0.7087 -1.0166  0.1943
  336MOL0     H45348   6.635  10.069   0.341 -0.2830  1.1010  4.8928
  336MOL0     H45349   6.513  10.107   0.112 -1.9428  0.7147 -1.6763
  336MOL0     H45350   6.454  10.536  -0.020 -1.2677 -0.5438  0.1758
  336MOL0     H45351   6.569  10.442  -0.120  1.6561 -2.2329  2.5166
  336MOL0     H45352   6.336  10.506  -0.247 -1.3521 -0.6635  0.3353
  336MOL0     H45353   6.274  10.390  -0.136 -0.0963  2.2830  0.7478
  336MOL0     H45354   6.432  10.211  -0.252 -1.3154 -0.3008 -0.8665
  336MOL0     H45355   6.501  10.347  -0.336 -0.0889  0.1016 -0.5233
  336MOL0     H45356   6.365  10.288  -0.506 -0.6222  2.0761 -0.1891
  336MOL0     H45357   6.272  10.402  -0.420 -1.7297 -0.0469  0.1476
  336MOL0     H45358   6.020  10.089  -0.335 -1.6061  1.9793  0.5520
  336MOL0     H45359   6.600  10.526   0.156 -0.0015  0.3863  0.3909
  336MOL0     H45360   6.733  10.481   0.345  1.0673  0.3593  0.0422
  337MOL0     O45361  11.325   6.292   1.432  0.0570  0.4491  0.4321
  337MOL0     C45362  11.427   6.328   1.494  0.4782 -0.0370  0.2892
  337MOL0     O45363  11.546   6.361   1.433 -0.3825 -0.3518 -0.5855
  337MOL0     C45364  11.551   6.392   1.302 -0.1580 -0.2643  0.3007
  337MOL0     C45365  11.450   6.466   1.238 -0.0322 -0.1448  0.1919
  337MOL0     C45366  11.476   6.520   1.118  0.2099  0.4658  0.2331
  337MOL0     C45367  11.594   6.481   1.046  0.3288  0.7165 -0.2070
  337MOL0     O45368  11.622   6.540   0.926  0.2835  0.3235  0.2319
  337MOL0     C45369  11.512   6.569   0.832  0.8856 -0.4127 -0.1445
  337MOL0     C45370  11.556   6.554   0.687 -0.0733  0.2585 -0.6571
  337MOL0     C45371  11.464   6.618   0.580  0.0706 -0.7508 -0.6062
  337MOL0     C45372  11.535   6.624   0.446 -0.8398 -0.4380 -0.6294
  337MOL0     C45373  11.491   6.739   0.358 -0.2076  0.5406 -0.6222
  337MOL0     C45374  11.359   6.726   0.285  0.8894  0.0764  0.6821
  337MOL0     C45375  11.380   6.622   0.164  0.4396 -0.4412  0.4765
  337MOL0     C45376  11.256   6.613   0.076  0.4352  0.1706  0.4193
  337MOL0     N45377  11.234   6.716  -0.025 -0.0363 -1.1670  0.0029
  337MOL0     C45378  11.204   6.846  -0.010  0.3403  0.0391  0.3381
  337MOL0     C45379  11.272   6.911  -0.111 -0.6409 -0.3164 -0.0333
  337MOL0     C45380  11.284   7.061  -0.136 -0.5834  0.1108 -0.0191
  337MOL0     C45381  11.385   7.126  -0.051  0.5324 -0.7268  0.1122
  337MOL0     C45382  11.407   7.280  -0.083 -0.6016 -0.4138 -0.5814
  337MOL0     C45383  11.548   7.329  -0.098 -0.3600  0.2854 -0.6565
  337MOL0     O45384  11.610   7.271  -0.217  0.6584  0.7601  0.3870
  337MOL0     C45385  11.737   7.319  -0.246 -0.2128 -0.3448  0.2674
  337MOL0     C45386  11.832   7.226  -0.283 -0.8240  0.0829  0.6789
  337MOL0     C45387  11.965   7.260  -0.314 -0.3641  0.0829  0.8818
  337MOL0     C45388  12.067   7.154  -0.333 -0.9718  0.0681 -0.3406
  337MOL0     C45389  11.999   7.400  -0.312 -0.5190  0.2790  0.1368
  337MOL0     C45390  12.144   7.450  -0.335 -0.8496  0.4451 -0.5778
  337MOL0     O45391  12.178   7.580  -0.301 -0.2281  0.8805  0.3986
  337MOL0     C45392  12.300   7.644  -0.320  0.3637  0.2183 -0.2277
  337MOL0     C45393  12.404   7.602  -0.401 -0.5921  0.0585 -1.0298
  337MOL0     C45394  12.527   7.676  -0.410 -0.3043 -0.8632 -0.3149
  337MOL0     C45395  12.545   7.796  -0.332  0.9123 -0.1997 -0.0216
  337MOL0     O45396  12.663   7.859  -0.312 -0.8333 -0.2036  0.1132
  337MOL0     C45397  12.776   7.777  -0.321 -0.6381 -0.3664 -0.0881
  337MOL0     C45398  12.907   7.866  -0.293 -0.0952  0.0789  0.4988
  337MOL0     C45399  13.039   7.783  -0.294  0.8886 -1.0135  0.2077
  337MOL0     C45400  13.094   7.801  -0.430 -0.3613 -0.2576  0.9040
  337MOL0     C45401  13.228   7.722  -0.441 -0.1224 -0.2180  0.2848
  337MOL0     C45402  13.231   7.576  -0.469 -0.0850  0.5472 -0.0395
  337MOL0     C45403  13.174   7.538  -0.597 -0.1872 -0.0868 -0.2856
  337MOL0     C45404  13.121   7.390  -0.585 -0.0052  0.1610  0.5610
  337MOL0    Cl45405  13.266   7.281  -0.565  0.0607  0.2942  0.3631
  337MOL0     C45406  12.438   7.829  -0.247  0.2180  0.0350  0.4128
  337MOL0     C45407  12.315   7.754  -0.241 -0.5812 -0.6318  0.5520
  337MOL0     O45408  12.208   7.378  -0.410 -0.0816  0.0848  0.7129
  337MOL0     C45409  11.906   7.495  -0.280  0.7135  0.5345  0.0359
  337MOL0     C45410  11.774   7.456  -0.240 -1.0941  0.1352  0.5643
  337MOL0     N45411  11.338   6.818  -0.185  0.4305 -0.0998 -0.1983
  337MOL0     N45412  11.300   6.704  -0.142 -0.1045 -0.2664  0.2101
  337MOL0     C45413  11.690   6.409   1.118 -0.2833 -0.6112  1.1436
  337MOL0     C45414  11.669   6.352   1.244 -0.2267  0.0078 -0.3032
  337MOL0     C45415  11.425   6.328   1.643  0.3587  0.4121 -0.7031
  337MOL0     C45416  11.527   6.359   1.730  0.2806 -0.2884  0.0197
  337MOL0     C45417  11.528   6.345   1.869  0.1468  0.0262 -0.3319
  337MOL0     C45418  11.413   6.291   1.931  0.0277 -0.0464 -0.8455
  337MOL0     O45419  11.418   6.255   2.066  0.6109 -0.3023 -0.3858
  337MOL0     C45420  11.324   6.152   2.112  0.6964 -0.2950  0.2678
  337MOL0     C45421  11.347   6.128   2.257  0.3800 -0.4717  0.8823
  337MOL0     C45422  11.362   6.264   2.333  0.3468  1.0502 -1.1967
  337MOL0     C45423  11.394   6.239   2.484  0.2344 -0.1436  0.0410
  337MOL0     C45424  11.280   6.197   2.566 -0.0167 -0.4762 -0.8166
  337MOL0     C45425  11.213   6.159   2.657 -1.1327 -0.2474  0.6338
  337MOL0     C45426  11.303   6.274   1.849  0.1703 -0.2932 -0.7336
  337MOL0     C45427  11.305   6.291   1.716 -0.0221 -0.2451  0.2551
  337MOL0     H45428  11.352   6.485   1.280 -1.5899 -2.2683 -2.1649
  337MOL0     H45429  11.402   6.589   1.078 -0.8195  0.6942  2.3837
  337MOL0     H45430  11.430   6.499   0.850 -0.5376  0.6122 -2.2166
  337MOL0     H45431  11.480   6.673   0.846  1.2072 -0.5560  1.9900
  337MOL0     H45432  11.649   6.610   0.677 -0.1024  0.8192  1.6827
  337MOL0     H45433  11.584   6.449   0.670  0.7713  0.7527 -2.4983
  337MOL0     H45434  11.369   6.565   0.566 -1.2757  1.2461  0.4757
  337MOL0     H45435  11.429   6.715   0.615  1.8196 -0.4690  0.4820
  337MOL0     H45436  11.643   6.635   0.462 -1.0028 -0.4666  0.5914
  337MOL0     H45437  11.533   6.529   0.392 -2.5658 -0.3414 -0.7903
  337MOL0     H45438  11.497   6.831   0.417  0.7845 -0.8826  1.6383
  337MOL0     H45439  11.561   6.760   0.276 -0.8640  4.7393 -0.3261
  337MOL0     H45440  11.277   6.702   0.353  0.1073 -0.3975 -0.4108
  337MOL0     H45441  11.342   6.828   0.248  0.0069 -0.1656  0.4113
  337MOL0     H45442  11.466   6.650   0.103  0.5104  0.1635  0.8427
  337MOL0     H45443  11.408   6.529   0.216  1.0050  0.3123  1.5814
  337MOL0     H45444  11.167   6.613   0.140 -1.6128  0.2013 -2.2465
  337MOL0     H45445  11.269   6.517   0.025  0.2731  0.2185  0.2852
  337MOL0     H45446  11.155   6.900   0.071  2.1125  1.2241  0.6796
  337MOL0     H45447  11.320   7.066  -0.240 -2.5877 -0.4149 -0.7874
  337MOL0     H45448  11.184   7.105  -0.128 -1.2958 -0.2461 -4.3284
  337MOL0     H45449  11.479   7.070  -0.063  0.2421 -0.9311 -1.3499
  337MOL0     H45450  11.356   7.128   0.055 -0.7699  2.2853 -0.1989
  337MOL0     H45451  11.362   7.345  -0.008  0.7808  1.3509 -1.2189
  337MOL0     H45452  11.354   7.319  -0.171  0.4184  2.5674  0.0157
  337MOL0     H45453  11.604   7.295  -0.011  0.7391  5.6220  1.0773
  337MOL0     H45454  11.556   7.438  -0.089 -0.6848  0.4213 -1.8489
  337MOL0     H45455  11.796   7.124  -0.288 -0.5012  0.0260 -1.7317
  337MOL0     H45456  12.075   7.120  -0.436 -0.1168  2.2470 -1.0405
  337MOL0     H45457  12.159   7.191  -0.287 -0.2120 -1.2520 -0.7585
  337MOL0     H45458  12.041   7.063  -0.278  1.0927 -1.3246 -1.5437
  337MOL0     H45459  12.399   7.513  -0.463 -0.4705  1.6464 -3.4456
  337MOL0     H45460  12.606   7.646  -0.477 -0.2879 -3.1381  0.6225
  337MOL0     H45461  12.762   7.694  -0.251 -3.0980  1.0365  1.2086
  337MOL0     H45462  12.780   7.757  -0.429  0.6146  0.4772 -0.2236
  337MOL0     H45463  12.905   7.956  -0.355 -0.3298  0.0125  0.4083
  337MOL0     H45464  12.911   7.918  -0.197 -1.4780  2.5543 -0.6820
  337MOL0     H45465  13.001   7.684  -0.267 -0.7948  0.9265  6.8858
  337MOL0     H45466  13.108   7.823  -0.219 -1.5292  0.5103  1.7861
  337MOL0     H45467  13.024   7.772  -0.509 -0.5047 -1.6760  1.5152
  337MOL0     H45468  13.121   7.905  -0.452 -0.0986 -0.2831  1.1010
  337MOL0     H45469  13.275   7.750  -0.346 -1.9499 -3.1750  2.2034
  337MOL0     H45470  13.273   7.768  -0.530 -0.1742 -1.6177 -0.4806
  337MOL0     H45471  13.336   7.546  -0.469 -0.1376  0.3412  0.6730
  337MOL0     H45472  13.184   7.525  -0.384  1.7214  0.6692  1.0925
  337MOL0     H45473  13.236   7.537  -0.687 -3.2413 -2.3619 -2.5721
  337MOL0     H45474  13.088   7.598  -0.627 -2.4330 -3.2401 -0.7011
  337MOL0     H45475  13.075   7.372  -0.682  1.7883 -1.2881 -0.0750
  337MOL0     H45476  13.044   7.364  -0.512 -0.2497  0.3657  0.3764
  337MOL0     H45477  12.458   7.916  -0.186 -2.4187 -0.1731  1.7406
  337MOL0     H45478  12.230   7.787  -0.182 -0.5396 -0.7064  0.6529
  337MOL0     H45479  11.923   7.602  -0.274 -0.9467  0.9540 -1.6460
  337MOL0     H45480  11.706   7.538  -0.220  1.1161  1.8132  1.7551
  337MOL0     H45481  11.786   6.386   1.072 -2.1648 -3.6332 -1.6780
  337MOL0     H45482  11.745   6.298   1.298  0.6381  1.6508  0.1792
  337MOL0     H45483  11.627   6.386   1.697  0.9898 -0.0633  2.1729
  337MOL0     H45484  11.616   6.369   1.928  2.4227 -1.2349 -2.9747
  337MOL0     H45485  11.217   6.169   2.096 -0.6916 -3.0724  4.6483
  337MOL0     H45486  11.347   6.064   2.051  2.2627  0.8597 -0.8906
  337MOL0     H45487  11.435   6.064   2.271  0.7670 -1.6179 -4.4498
  337MOL0     H45488  11.258   6.070   2.281 -0.9237  0.9705 -0.2310
  337MOL0     H45489  11.274   6.329   2.319 -1.6695 -1.3297 -0.3590
  337MOL0     H45490  11.442   6.332   2.303  0.2450  2.4829  1.4654
  337MOL0     H45491  11.422   6.335   2.530  0.7522 -0.9860  1.5681
  337MOL0     H45492  11.461   6.153   2.482 -1.1661 -1.2679 -2.0969
  337MOL0     H45493  11.145   6.121   2.731  0.1580 -1.1651  1.4093
  337MOL0     H45494  11.208   6.244   1.893  0.1838  2.1545  1.1702
  337MOL0     H45495  11.210   6.276   1.665  0.9015 -2.3698 -0.9775
  338MOL0     O45496   8.202   6.415  11.059 -0.5635 -0.3387 -0.3643
  338MOL0     C45497   8.303   6.359  11.011 -0.6405  0.7370 -0.1051
  338MOL0     O45498   8.435   6.385  11.038 -0.0780  0.4376  0.2716
  338MOL0     C45499   8.472   6.500  11.105 -0.4516 -0.2165  1.0022
  338MOL0     C45500   8.565   6.477  11.206 -0.1205  1.0898 -1.0064
  338MOL0     C45501   8.605   6.589  11.277 -0.2653 -0.3680 -0.1224
  338MOL0     C45502   8.571   6.721  11.243 -0.6368  0.0374 -0.4626
  338MOL0     O45503   8.621   6.827  11.322  0.3926  0.8487  0.0583
  338MOL0     C45504   8.645   6.955  11.271 -1.1874  0.0294 -0.8765
  338MOL0     C45505   8.745   7.013  11.368 -0.5997  0.2953 -0.7823
  338MOL0     C45506   8.678   7.074  11.493 -0.8253 -0.1528 -0.1852
  338MOL0     C45507   8.777   7.181  11.552 -1.1392  0.7815  0.0935
  338MOL0     C45508   8.698   7.256  11.659  0.4977 -0.3537  0.6287
  338MOL0     C45509   8.772   7.383  11.716 -0.1657  0.3585 -0.1808
  338MOL0     C45510   8.729   7.424  11.855 -0.7038 -0.2766  0.0657
  338MOL0     C45511   8.814   7.513  11.941 -0.5225 -0.7366 -0.1901
  338MOL0     N45512   8.756   7.522  12.078 -0.1556  0.8680 -0.4971
  338MOL0     C45513   8.751   7.635  12.164 -0.4734  1.0439  0.3386
  338MOL0     C45514   8.750   7.582  12.289 -0.4160 -0.2769 -0.3080
  338MOL0     C45515   8.725   7.672  12.407 -0.4700 -0.5473 -0.5803
  338MOL0     C45516   8.586   7.729  12.393  0.0071  0.3189  0.1218
  338MOL0     C45517   8.565   7.847  12.487 -1.0447  0.8938 -0.4415
  338MOL0     C45518   8.425   7.908  12.494  0.7561  0.8795 -0.0432
  338MOL0     O45519   8.431   8.037  12.549  0.6714 -0.1813  0.4179
  338MOL0     C45520   8.322   8.083  12.625 -0.4329  0.0210  0.2554
  338MOL0     C45521   8.291   7.997  12.733  0.2897 -0.7359 -0.3444
  338MOL0     C45522   8.183   8.037  12.805 -0.1987  0.6490 -0.8043
  338MOL0     C45523   8.148   7.928  12.899  0.2169 -1.1709  0.1970
  338MOL0     C45524   8.118   8.159  12.799 -0.3872 -0.0328 -0.3879
  338MOL0     C45525   8.031   8.225  12.904  0.6309 -0.8039 -0.0863
  338MOL0     O45526   8.006   8.363  12.892 -0.3127  0.4732  0.2075
  338MOL0     C45527   7.906   8.427  12.955  0.2576  0.3128 -0.5013
  338MOL0     C45528   7.802   8.367  13.036 -1.0305 -0.2929 -0.0614
  338MOL0     C45529   7.707   8.453  13.088  0.6787  0.2505  0.3670
  338MOL0     C45530   7.702   8.583  13.056 -0.6473 -0.3026 -0.5587
  338MOL0     O45531   7.603   8.659  13.091 -0.3202 -0.0874 -0.2722
  338MOL0     C45532   7.621   8.749  13.204 -0.0710 -0.2449  0.5202
  338MOL0     C45533   7.614   8.686  13.341  0.2881 -1.3971 -0.4991
  338MOL0     C45534   7.610   8.787  13.459  0.5778  0.2438  0.1994
  338MOL0     C45535   7.744   8.817  13.513  0.5714 -0.3873 -0.4079
  338MOL0     C45536   7.739   8.906  13.636  1.1389  0.2503 -0.4712
  338MOL0     C45537   7.654   9.039  13.620  0.0594  1.1150  0.2931
  338MOL0     C45538   7.633   9.096  13.758 -0.7957  0.0371  0.0284
  338MOL0     C45539   7.566   9.225  13.762 -0.7150  0.3507  0.3898
  338MOL0    Cl45540   7.685   9.343  13.681  0.4805  0.3868  0.3108
  338MOL0     C45541   7.797   8.641  12.964 -0.2160 -0.1154  0.3334
  338MOL0     C45542   7.889   8.557  12.912  0.4246  0.1177 -0.3169
  338MOL0     O45543   7.989   8.155  12.992 -0.1111  0.3256  0.9131
  338MOL0     C45544   8.166   8.239  12.698 -0.1391  0.2496  0.1806
  338MOL0     C45545   8.265   8.199  12.609  0.2816 -0.5491 -0.5782
  338MOL0     N45546   8.778   7.450  12.294 -1.0627 -0.1539  0.2734
  338MOL0     N45547   8.783   7.412  12.163 -0.2695 -0.4970 -0.0061
  338MOL0     C45548   8.483   6.735  11.135  0.3918  0.3797 -0.6046
  338MOL0     C45549   8.432   6.626  11.068 -0.1885  0.0401  0.6932
  338MOL0     C45550   8.287   6.240  10.924 -0.3628 -0.2822  0.0947
  338MOL0     C45551   8.161   6.175  10.898 -0.7117  0.1136 -0.8969
  338MOL0     C45552   8.153   6.062  10.819 -0.3011  0.4492  0.1761
  338MOL0     C45553   8.267   5.999  10.763  0.1377  0.2775 -0.5068
  338MOL0     O45554   8.268   5.887  10.675 -0.6898 -0.2392  0.3058
  338MOL0     C45555   8.169   5.781  10.685 -1.1030  1.2524  0.1358
  338MOL0     C45556   8.176   5.703  10.818 -0.3741 -0.0462  0.5966
  338MOL0     C45557   8.329   5.671  10.853  0.6112  0.0505 -0.1729
  338MOL0     C45558   8.397   5.584  10.749 -0.8149 -0.8454 -0.4446
  338MOL0     C45559   8.392   5.441  10.782 -0.1300 -0.3129 -0.0888
  338MOL0     C45560   8.392   5.320  10.810 -0.2295 -0.9330 -0.1595
  338MOL0     C45561   8.389   6.060  10.783 -0.4953 -0.3216 -0.1399
  338MOL0     C45562   8.405   6.178  10.868  0.1628 -0.1336 -0.1628
  338MOL0     H45563   8.589   6.374  11.232  1.7443  1.4417 -1.2410
  338MOL0     H45564   8.662   6.585  11.369 -3.2495  1.4281  1.9824
  338MOL0     H45565   8.687   6.955  11.170  2.9592 -2.2594  0.5893
  338MOL0     H45566   8.546   6.999  11.282 -0.3189  1.5913  1.7731
  338MOL0     H45567   8.810   6.946  11.424  2.7759  4.8883  1.4776
  338MOL0     H45568   8.809   7.088  11.321 -1.2110  2.4985  1.6747
  338MOL0     H45569   8.581   7.123  11.483 -1.5160 -1.7694 -1.9317
  338MOL0     H45570   8.662   6.990  11.561  0.3249 -0.3500 -0.1291
  338MOL0     H45571   8.868   7.126  11.579 -1.8723 -2.2021 -2.8979
  338MOL0     H45572   8.810   7.254  11.477  1.7653  0.4664  0.9109
  338MOL0     H45573   8.604   7.288  11.613 -0.3487 -0.6023  2.1085
  338MOL0     H45574   8.673   7.195  11.746 -3.3037 -1.7044 -1.1858
  338MOL0     H45575   8.881   7.372  11.719 -0.1773 -0.9098 -2.3252
  338MOL0     H45576   8.749   7.460  11.642 -0.9479  0.9685  0.6766
  338MOL0     H45577   8.631   7.473  11.850 -0.3837  0.2634 -3.1253
  338MOL0     H45578   8.714   7.328  11.906 -2.2230 -1.8066 -2.9062
  338MOL0     H45579   8.820   7.613  11.895 -0.7505  0.0384  1.4150
  338MOL0     H45580   8.915   7.472  11.946 -1.2966 -2.6883  0.1113
  338MOL0     H45581   8.744   7.739  12.134  0.0684  2.0401  3.2788
  338MOL0     H45582   8.746   7.618  12.500  0.6489 -2.0758 -1.6635
  338MOL0     H45583   8.799   7.753  12.409  0.7842 -1.5891 -2.0536
  338MOL0     H45584   8.511   7.652  12.412 -1.8066  1.3454 -2.3364
  338MOL0     H45585   8.563   7.766  12.293 -0.5720 -0.9671 -0.2441
  338MOL0     H45586   8.646   7.917  12.465  1.3239 -1.3944  0.5044
  338MOL0     H45587   8.583   7.802  12.585 -0.7129 -0.5166 -1.1196
  338MOL0     H45588   8.364   7.840  12.555  4.1371 -1.8566  0.5660
  338MOL0     H45589   8.384   7.913  12.393 -0.1170 -1.1061  0.1724
  338MOL0     H45590   8.336   7.898  12.741  0.5386 -0.6365 -0.4872
  338MOL0     H45591   8.165   7.951  13.005  0.0891 -0.8711  0.1528
  338MOL0     H45592   8.041   7.913  12.883 -0.2010  1.5989 -0.1467
  338MOL0     H45593   8.202   7.835  12.878  1.2503  0.0894 -3.4332
  338MOL0     H45594   7.795   8.259  13.047 -0.6610 -0.5156 -1.7989
  338MOL0     H45595   7.624   8.408  13.142  0.1406 -1.6493 -1.8673
  338MOL0     H45596   7.720   8.792  13.186 -0.6844  0.4776 -1.4215
  338MOL0     H45597   7.545   8.827  13.197  1.0939  0.7929 -2.0440
  338MOL0     H45598   7.523   8.626  13.343  0.2675 -1.3979 -1.2681
  338MOL0     H45599   7.699   8.617  13.346  0.1520 -1.4879  1.1526
  338MOL0     H45600   7.553   8.740  13.539 -0.8003  2.0661  0.3557
  338MOL0     H45601   7.556   8.880  13.440  2.6998  1.6497  0.5930
  338MOL0     H45602   7.792   8.719  13.523 -0.9216 -1.4687 -2.8988
  338MOL0     H45603   7.801   8.884  13.449  0.0424  2.4344  1.8552
  338MOL0     H45604   7.843   8.928  13.665  2.1596 -1.0054 -2.8769
  338MOL0     H45605   7.692   8.849  13.716 -0.0903 -1.4120 -2.2938
  338MOL0     H45606   7.723   9.104  13.565  0.0128  2.2657  1.5514
  338MOL0     H45607   7.558   9.041  13.567 -0.7979  0.8281  1.8024
  338MOL0     H45608   7.736   9.116  13.787 -0.7502 -0.9944  0.6682
  338MOL0     H45609   7.591   9.018  13.823  0.6172 -2.0023 -1.3619
  338MOL0     H45610   7.544   9.259  13.864  1.7667 -0.6489  1.3606
  338MOL0     H45611   7.474   9.226  13.704  1.0388 -1.2089 -2.6912
  338MOL0     H45612   7.795   8.746  12.936 -0.4253 -0.7779 -2.3222
  338MOL0     H45613   7.959   8.583  12.833  1.5688  1.0818  0.9668
  338MOL0     H45614   8.135   8.342  12.683  1.8328  0.4934 -3.4103
  338MOL0     H45615   8.309   8.264  12.535  2.2012 -0.2498  0.7441
  338MOL0     H45616   8.459   6.836  11.102 -5.4016  0.3434  2.2213
  338MOL0     H45617   8.359   6.637  10.989 -1.3314  0.7453  1.8124
  338MOL0     H45618   8.072   6.208  10.950  0.8066 -0.8539  2.5893
  338MOL0     H45619   8.054   6.021  10.803  0.3434 -0.4117 -1.8932
  338MOL0     H45620   8.065   5.810  10.671 -1.0979 -0.0843 -4.3090
  338MOL0     H45621   8.188   5.708  10.606 -0.6408  0.9652  0.5064
  338MOL0     H45622   8.103   5.622  10.822  2.5689 -3.0380 -1.1126
  338MOL0     H45623   8.137   5.777  10.888  0.4097  2.0222 -1.0350
  338MOL0     H45624   8.334   5.624  10.951  1.1248 -1.6163 -0.9461
  338MOL0     H45625   8.381   5.767  10.853 -0.9430  0.9553 -1.4025
  338MOL0     H45626   8.504   5.605  10.741 -0.8427  0.2669  1.5331
  338MOL0     H45627   8.361   5.599  10.647  0.7395  0.0109 -0.8990
  338MOL0     H45628   8.376   5.229  10.864 -1.9226  0.1762  1.2787
  338MOL0     H45629   8.473   6.011  10.734 -1.2067 -0.1837 -1.5311
  338MOL0     H45630   8.504   6.222  10.874 -0.6389  1.8919 -0.8677
  339MOL0     O45631   5.579   7.966  11.351 -0.4232  0.1296  0.0126
  339MOL0     C45632   5.652   7.884  11.390 -0.5813  0.3978 -1.0740
  339MOL0     O45633   5.778   7.863  11.354  0.2758 -0.3497 -0.1338
  339MOL0     C45634   5.841   7.933  11.254 -0.4605 -0.2655  0.6509
  339MOL0     C45635   5.775   7.992  11.147  0.5200  0.3651 -0.0180
  339MOL0     C45636   5.836   8.045  11.039  0.0503  0.7247 -0.1314
  339MOL0     C45637   5.975   8.064  11.031  0.1184  0.2284  0.1791
  339MOL0     O45638   6.051   8.093  10.924 -0.2587 -1.5221  0.0622
  339MOL0     C45639   5.999   8.206  10.841 -0.8262  0.6199 -0.9983
  339MOL0     C45640   5.939   8.152  10.713 -0.4222  0.8602  0.8867
  339MOL0     C45641   5.876   8.278  10.645  0.3136  0.8171 -1.1206
  339MOL0     C45642   5.829   8.237  10.508 -0.5788  0.5320 -1.0310
  339MOL0     C45643   5.717   8.323  10.459  0.9663 -0.1749  0.8837
  339MOL0     C45644   5.751   8.474  10.435 -0.4956 -0.0648 -0.1938
  339MOL0     C45645   5.625   8.554  10.394  0.4539  0.6217 -0.0159
  339MOL0     C45646   5.585   8.550  10.249  0.1182  0.4323  0.5299
  339MOL0     N45647   5.670   8.654  10.176  0.1937 -0.4850  0.2547
  339MOL0     C45648   5.663   8.792  10.181  0.3735 -0.0311 -0.8134
  339MOL0     C45649   5.757   8.834  10.096  0.5285 -0.6188 -0.0927
  339MOL0     C45650   5.791   8.983  10.071  0.6964  0.9563 -0.1406
  339MOL0     C45651   5.865   9.002   9.946 -0.5416  0.4623 -0.0475
  339MOL0     C45652   6.020   8.977   9.954 -0.9143  0.1098  0.2213
  339MOL0     C45653   6.092   9.036   9.835 -0.2646 -0.8601  0.9899
  339MOL0     O45654   6.084   9.182   9.814  0.3757  0.3540  0.1199
  339MOL0     C45655   6.085   9.273   9.921  0.1681 -0.2498  0.5687
  339MOL0     C45656   6.184   9.254  10.018 -0.7513 -0.6018  0.8425
  339MOL0     C45657   6.191   9.330  10.132 -0.6100  1.0015  0.4426
  339MOL0     C45658   6.320   9.311  10.218 -0.9032  0.0482  0.2439
  339MOL0     C45659   6.091   9.431  10.159  0.1434  0.9753  0.1882
  339MOL0     C45660   6.095   9.517  10.280 -0.5375  0.0909 -0.0865
  339MOL0     O45661   6.150   9.468  10.398  0.4731 -0.1970  0.6379
  339MOL0     C45662   6.223   9.554  10.479 -0.9020  0.3260 -0.6742
  339MOL0     C45663   6.316   9.651  10.440 -1.0363  0.3090  0.0901
  339MOL0     C45664   6.379   9.724  10.540 -0.2896 -0.0720 -0.7158
  339MOL0     C45665   6.356   9.706  10.677  1.4117 -0.4905 -0.5939
  339MOL0     O45666   6.423   9.783  10.772  0.3743 -0.5450  1.1044
  339MOL0     C45667   6.355   9.897  10.835 -1.0916 -0.6733  0.2248
  339MOL0     C45668   6.411   9.942  10.978  0.3773 -0.8320 -0.7362
  339MOL0     C45669   6.569   9.943  10.971  1.0006 -0.0061  0.1850
  339MOL0     C45670   6.638   9.986  11.097  0.3264  0.0712  0.1041
  339MOL0     C45671   6.794  10.000  11.070 -0.6520  0.2710  0.0416
  339MOL0     C45672   6.858  10.088  11.181  0.1260  1.1306  0.6327
  339MOL0     C45673   7.001  10.106  11.132 -0.1965 -0.2566 -0.5142
  339MOL0     C45674   7.093  10.177  11.233  0.5060  0.5589 -0.3710
  339MOL0    Cl45675   7.254  10.174  11.144 -0.2599 -0.2089  0.2973
  339MOL0     C45676   6.264   9.605  10.719  0.9311  0.4567 -0.7730
  339MOL0     C45677   6.199   9.536  10.616 -0.0342  0.7186 -0.1313
  339MOL0     O45678   6.067   9.632  10.259  0.7627 -0.8488  0.5540
  339MOL0     C45679   5.986   9.453  10.062 -0.6361 -1.1355  0.3738
  339MOL0     C45680   5.983   9.370   9.947  0.9454  0.6555 -0.2874
  339MOL0     N45681   5.833   8.727  10.052  0.6541 -0.1275  0.2592
  339MOL0     N45682   5.775   8.618  10.100 -0.4616  0.1523  0.4719
  339MOL0     C45683   6.042   8.011  11.142  0.7927 -0.9433  0.1226
  339MOL0     C45684   5.972   7.951  11.247 -0.2851  0.2711 -1.0508
  339MOL0     C45685   5.602   7.787  11.488  0.3338  0.6704 -0.1846
  339MOL0     C45686   5.467   7.793  11.526  0.3429 -0.1191  0.4984
  339MOL0     C45687   5.412   7.715  11.627 -0.0672  0.3490 -0.0837
  339MOL0     C45688   5.498   7.634  11.697 -0.1884  0.9143  0.0546
  339MOL0     O45689   5.444   7.575  11.807  0.5767 -0.4036 -0.5699
  339MOL0     C45690   5.502   7.474  11.889  0.5249  0.5839 -0.1586
  339MOL0     C45691   5.562   7.516  12.012 -0.1715  0.1658  0.4064
  339MOL0     C45692   5.456   7.575  12.108 -0.2933 -0.1917 -0.0892
  339MOL0     C45693   5.519   7.571  12.243  1.1183  0.8852  1.1201
  339MOL0     C45694   5.603   7.682  12.263 -0.6316  0.8988  0.0107
  339MOL0     C45695   5.691   7.766  12.267 -0.4241 -0.8918 -0.9282
  339MOL0     C45696   5.628   7.613  11.664 -0.1105 -0.5529  0.4897
  339MOL0     C45697   5.676   7.687  11.550 -0.5799  0.5474 -0.1202
  339MOL0     H45698   5.668   7.982  11.133  0.3232  0.5998  1.1868
  339MOL0     H45699   5.766   8.071  10.961 -1.5444  2.4387  1.7402
  339MOL0     H45700   5.930   8.266  10.900 -2.2957  0.2476 -2.2635
  339MOL0     H45701   6.091   8.260  10.816 -0.6084 -0.6473 -3.1211
  339MOL0     H45702   6.014   8.103  10.650 -0.7230 -0.0280  1.2056
  339MOL0     H45703   5.860   8.082  10.743  0.4859  0.2874  2.0512
  339MOL0     H45704   5.787   8.290  10.707  1.0519 -3.1212  1.0996
  339MOL0     H45705   5.938   8.368  10.646 -0.4782  1.3682 -1.7776
  339MOL0     H45706   5.921   8.241  10.449  1.7388  1.0135  2.3223
  339MOL0     H45707   5.791   8.135  10.507 -2.0915  1.0786 -2.3581
  339MOL0     H45708   5.687   8.291  10.359 -1.8648  5.3606 -0.4152
  339MOL0     H45709   5.620   8.323  10.510  0.3827  3.3928  0.0115
  339MOL0     H45710   5.776   8.510  10.535  0.9724  0.9017 -0.8767
  339MOL0     H45711   5.828   8.501  10.362 -1.4397  0.0813 -1.1637
  339MOL0     H45712   5.542   8.498  10.438  1.2293  0.6441  1.5027
  339MOL0     H45713   5.617   8.653  10.440 -1.1085 -0.0311  1.1732
  339MOL0     H45714   5.480   8.581  10.238  0.0057 -0.1158  0.0442
  339MOL0     H45715   5.600   8.453  10.203 -2.8245  0.3087 -0.3731
  339MOL0     H45716   5.584   8.845  10.234  3.1501  1.2920  2.4381
  339MOL0     H45717   5.696   9.036  10.067 -2.1329 -3.5044  0.5637
  339MOL0     H45718   5.851   9.012  10.158  1.4846 -0.9933  0.0297
  339MOL0     H45719   5.851   9.109   9.928  1.2866  1.3568  3.0730
  339MOL0     H45720   5.820   8.944   9.864 -0.0244  1.7688 -1.3050
  339MOL0     H45721   6.038   8.870   9.957  0.8493  0.2187 -2.5236
  339MOL0     H45722   6.051   9.028  10.046  0.1474  0.2170 -0.1849
  339MOL0     H45723   6.051   8.988   9.745 -1.7915  1.5339  0.3227
  339MOL0     H45724   6.199   9.013   9.835  0.4345  1.5692 -2.2806
  339MOL0     H45725   6.255   9.176   9.990  1.3071  1.8500 -1.2750
  339MOL0     H45726   6.401   9.278  10.152 -1.0453 -0.1166  0.1508
  339MOL0     H45727   6.358   9.405  10.261 -0.5984  1.0418 -2.0879
  339MOL0     H45728   6.311   9.238  10.299 -2.0103 -1.1454 -0.9107
  339MOL0     H45729   6.342   9.660  10.335  1.4074 -1.5793  0.4525
  339MOL0     H45730   6.446   9.804  10.511  1.5742 -1.2649  0.0698
  339MOL0     H45731   6.350   9.989  10.776 -2.4183 -1.4093 -0.8610
  339MOL0     H45732   6.250   9.871  10.846 -1.5003 -0.5085 -2.6662
  339MOL0     H45733   6.378  10.043  11.001  3.7589  1.2552 -4.0454
  339MOL0     H45734   6.381   9.871  11.057 -0.9442  0.4854 -0.0205
  339MOL0     H45735   6.603  10.001  10.884 -0.2942  0.4474 -0.0446
  339MOL0     H45736   6.604   9.842  10.950  2.8281  0.3104  1.4595
  339MOL0     H45737   6.600  10.084  11.126  2.5046  1.7305 -2.2207
  339MOL0     H45738   6.622   9.917  11.180 -1.1862 -2.0199 -1.8142
  339MOL0     H45739   6.812  10.038  10.969  1.8233 -0.7467  0.0206
  339MOL0     H45740   6.830   9.897  11.064  2.2378  1.2322 -0.5525
  339MOL0     H45741   6.805  10.183  11.168 -0.9432  0.2326 -2.5355
  339MOL0     H45742   6.846  10.038  11.277  1.3711 -2.3836 -0.8727
  339MOL0     H45743   7.010  10.171  11.045  1.8730  3.6103  2.3292
  339MOL0     H45744   7.042  10.007  11.109  4.1628  1.0193  0.8530
  339MOL0     H45745   7.098  10.116  11.324  2.6916 -0.2692 -0.9989
  339MOL0     H45746   7.060  10.277  11.266 -1.1669  0.0431 -0.3698
  339MOL0     H45747   6.246   9.561  10.816 -0.3553  0.4996 -0.9664
  339MOL0     H45748   6.143   9.448  10.644  3.0929 -0.6469  2.3985
  339MOL0     H45749   5.923   9.540  10.075  3.1526  2.2495 -1.6958
  339MOL0     H45750   5.913   9.392   9.868 -0.0386  0.4733  0.5176
  339MOL0     H45751   6.150   8.006  11.131  0.7598 -1.1962 -0.0888
  339MOL0     H45752   6.029   7.903  11.326 -2.3241 -0.5729 -0.0271
  339MOL0     H45753   5.393   7.853  11.475  0.7358 -2.7933 -3.7236
  339MOL0     H45754   5.310   7.731  11.659 -0.2309 -0.3439 -0.2354
  339MOL0     H45755   5.428   7.402  11.925  1.9024  0.3905  2.5042
  339MOL0     H45756   5.577   7.422  11.830 -1.7286 -0.7293 -2.0564
  339MOL0     H45757   5.641   7.587  11.989 -1.7024  1.4347 -1.2113
  339MOL0     H45758   5.615   7.429  12.051  0.2079  0.2535  0.0890
  339MOL0     H45759   5.371   7.510  12.131 -1.3958  1.7972  1.9330
  339MOL0     H45760   5.415   7.671  12.074 -0.4064 -0.8154 -1.8057
  339MOL0     H45761   5.568   7.474  12.255  2.1959  1.4794  1.6587
  339MOL0     H45762   5.431   7.583  12.308  0.8033  2.2834  0.4751
  339MOL0     H45763   5.756   7.845  12.233 -0.8944  0.1439  0.4891
  339MOL0     H45764   5.695   7.546  11.717 -1.6384 -1.6389  1.1178
  339MOL0     H45765   5.782   7.675  11.531 -0.7442 -0.5032 -0.4499
  340MOL0     O45766   8.526   4.032   4.293  0.2130  0.7602  0.5806
  340MOL0     C45767   8.615   3.966   4.235  0.6303 -0.6354 -0.5894
  340MOL0     O45768   8.671   4.009   4.121  0.5065 -0.2824  0.6664
  340MOL0     C45769   8.609   4.113   4.053  0.1323 -0.2037 -0.0656
  340MOL0     C45770   8.533   4.098   3.931 -0.4999  0.4862 -0.4368
  340MOL0     C45771   8.495   4.213   3.862 -0.9721 -0.7630 -0.5734
  340MOL0     C45772   8.526   4.340   3.918  0.8658 -0.3079  0.5040
  340MOL0     O45773   8.493   4.442   3.832  1.0183  0.0100  0.5082
  340MOL0     C45774   8.462   4.575   3.888 -0.9556  0.2076  1.6651
  340MOL0     C45775   8.402   4.669   3.776 -1.3876  1.0219 -0.4736
  340MOL0     C45776   8.383   4.813   3.820  0.0341  1.2437  0.6458
  340MOL0     C45777   8.312   4.895   3.702 -0.7007  0.1838 -0.5921
  340MOL0     C45778   8.249   5.021   3.750 -1.1353 -0.4925 -0.6004
  340MOL0     C45779   8.340   5.109   3.840 -0.0541 -0.3302 -0.7731
  340MOL0     C45780   8.270   5.241   3.869 -0.0958 -0.7218 -0.2849
  340MOL0     C45781   8.363   5.337   3.934 -0.0660 -1.5176 -0.6736
  340MOL0     N45782   8.298   5.473   3.946 -0.5688 -0.7262 -0.2260
  340MOL0     C45783   8.171   5.497   3.975  1.1103  0.6246  0.6234
  340MOL0     C45784   8.159   5.633   3.996  0.3747 -0.8322  0.7619
  340MOL0     C45785   8.035   5.707   4.035  0.3690 -0.6213 -0.7288
  340MOL0     C45786   8.024   5.731   4.182 -0.4905 -0.7061  1.1845
  340MOL0     C45787   7.954   5.616   4.247  0.4495  0.0418  0.7423
  340MOL0     C45788   7.803   5.654   4.285  0.7017 -0.4203  0.4241
  340MOL0     O45789   7.762   5.554   4.376 -0.1435 -0.3702  0.2790
  340MOL0     C45790   7.674   5.604   4.472 -0.6774 -0.8712 -0.8386
  340MOL0     C45791   7.536   5.589   4.468  0.4281 -0.8838  0.3768
  340MOL0     C45792   7.454   5.641   4.571  0.4260  0.4709 -0.6931
  340MOL0     C45793   7.317   5.574   4.595  0.5275  0.2210  0.8730
  340MOL0     C45794   7.501   5.730   4.673  0.2112  0.2287 -0.6319
  340MOL0     C45795   7.429   5.782   4.790 -0.8789 -0.1474  0.0637
  340MOL0     O45796   7.473   5.894   4.840 -0.2626 -0.4199 -0.7112
  340MOL0     C45797   7.393   5.973   4.919 -0.2178 -0.1998 -0.1694
  340MOL0     C45798   7.463   6.077   4.989 -0.7246 -0.0212  0.2260
  340MOL0     C45799   7.409   6.158   5.082  0.2106 -0.6784  0.0229
  340MOL0     C45800   7.269   6.150   5.105 -0.9890 -0.2605 -0.0335
  340MOL0     O45801   7.224   6.206   5.216  0.1332 -0.3424  0.0284
  340MOL0     C45802   7.114   6.296   5.194  0.1081 -0.0518  0.3888
  340MOL0     C45803   7.089   6.373   5.321 -0.2016 -0.3210 -0.5271
  340MOL0     C45804   7.045   6.265   5.425  0.2376 -0.0481  0.0120
  340MOL0     C45805   6.977   6.344   5.544 -0.0448  0.0069  0.2019
  340MOL0     C45806   6.972   6.256   5.668  0.2061  1.1860 -0.6845
  340MOL0     C45807   6.896   6.326   5.785  0.3819  0.6176  0.0841
  340MOL0     C45808   6.739   6.326   5.759 -0.4299 -0.2879  0.2723
  340MOL0     C45809   6.669   6.305   5.889  0.0926  0.3361 -0.0533
  340MOL0    Cl45810   6.493   6.323   5.874  0.2091  0.1510 -0.0452
  340MOL0     C45811   7.193   6.066   5.025  0.1296  0.0426 -0.0335
  340MOL0     C45812   7.251   5.981   4.932 -0.6046 -0.2368  1.0265
  340MOL0     O45813   7.333   5.719   4.837  0.3316  0.3746 -0.2396
  340MOL0     C45814   7.643   5.751   4.679 -0.3813  0.2053  0.1817
  340MOL0     C45815   7.723   5.689   4.575  0.7367 -0.2132 -0.1803
  340MOL0     N45816   8.287   5.684   3.988  0.0896 -0.8990 -0.4930
  340MOL0     N45817   8.368   5.590   3.956 -0.1798 -0.2337 -0.4842
  340MOL0     C45818   8.579   4.349   4.050 -0.0817 -0.9009  0.6333
  340MOL0     C45819   8.608   4.234   4.115  0.2295 -0.8835 -0.4716
  340MOL0     C45820   8.650   3.838   4.290  0.2168  1.4703 -0.8588
  340MOL0     C45821   8.644   3.816   4.426  1.1444  0.1225 -0.8491
  340MOL0     C45822   8.698   3.700   4.484 -0.1228  0.6831 -0.0975
  340MOL0     C45823   8.737   3.592   4.406  0.0627 -0.3257  0.3932
  340MOL0     O45824   8.774   3.465   4.452  0.6256  0.6021  0.3062
  340MOL0     C45825   8.667   3.410   4.525 -0.6525  0.5604  0.3825
  340MOL0     C45826   8.685   3.253   4.541 -0.0431 -0.0290 -0.1477
  340MOL0     C45827   8.694   3.184   4.407 -0.2903  0.7834 -0.5832
  340MOL0     C45828   8.822   3.107   4.383 -0.1767  0.4413 -0.6623
  340MOL0     C45829   8.954   3.179   4.407  0.9745 -0.2542  0.2544
  340MOL0     C45830   9.042   3.262   4.435  0.5534  0.3339 -0.9827
  340MOL0     C45831   8.737   3.606   4.270  1.1388 -0.9781 -0.0545
  340MOL0     C45832   8.700   3.730   4.209  0.9629  0.2958  0.0425
  340MOL0     H45833   8.523   4.003   3.880  2.2924  0.9208 -1.9706
  340MOL0     H45834   8.458   4.204   3.761 -1.8361 -1.1857 -0.2261
  340MOL0     H45835   8.389   4.550   3.965 -1.0415 -1.0429  1.1902
  340MOL0     H45836   8.551   4.630   3.920 -1.3836  2.6272 -0.8649
  340MOL0     H45837   8.480   4.672   3.700 -2.6650 -0.3881 -1.9331
  340MOL0     H45838   8.308   4.631   3.736 -3.5520  4.0966  1.2430
  340MOL0     H45839   8.318   4.798   3.907  0.1776  0.4316  0.6217
  340MOL0     H45840   8.476   4.864   3.847  2.4957 -2.5587  0.0419
  340MOL0     H45841   8.379   4.921   3.619 -0.8571 -2.8024 -1.7759
  340MOL0     H45842   8.239   4.821   3.670  0.4384 -0.3327 -2.1316
  340MOL0     H45843   8.205   5.068   3.661 -2.5654  0.2676  0.4674
  340MOL0     H45844   8.163   4.994   3.812 -0.7200  0.1057  0.2528
  340MOL0     H45845   8.364   5.060   3.935 -0.1796 -0.7542 -0.9560
  340MOL0     H45846   8.432   5.121   3.783  0.2055 -4.2751 -1.4930
  340MOL0     H45847   8.236   5.293   3.779  0.3200  0.2283  0.0928
  340MOL0     H45848   8.187   5.225   3.939 -0.1878  0.3980 -0.1188
  340MOL0     H45849   8.452   5.356   3.872  0.9877 -3.7882  0.0564
  340MOL0     H45850   8.394   5.303   4.033  2.6733  2.2104 -0.0112
  340MOL0     H45851   8.092   5.423   3.979 -2.3202  3.7846 -1.3394
  340MOL0     H45852   8.033   5.807   3.990 -1.1139  0.5025  1.6011
  340MOL0     H45853   7.945   5.656   4.000  0.3841 -0.8743 -0.4020
  340MOL0     H45854   7.972   5.827   4.192 -2.0551 -0.3497 -5.7974
  340MOL0     H45855   8.120   5.735   4.235  1.8676  0.2222 -2.7396
  340MOL0     H45856   8.015   5.581   4.331 -0.2640 -1.8550  0.5151
  340MOL0     H45857   7.940   5.531   4.179 -0.6052 -0.2680  1.3291
  340MOL0     H45858   7.737   5.641   4.199 -0.6014 -0.6064  1.4194
  340MOL0     H45859   7.800   5.757   4.320 -3.3443 -1.3108  3.3266
  340MOL0     H45860   7.487   5.551   4.379 -2.5516  0.3105  1.3679
  340MOL0     H45861   7.233   5.642   4.614  0.6340  0.5172  0.2922
  340MOL0     H45862   7.293   5.516   4.506  0.3201 -0.2783  1.2463
  340MOL0     H45863   7.332   5.498   4.672  1.4509 -1.6417 -1.0470
  340MOL0     H45864   7.569   6.088   4.968 -0.0734  1.3630  3.6163
  340MOL0     H45865   7.468   6.232   5.136  0.0727  1.8084 -2.9775
  340MOL0     H45866   7.142   6.368   5.116 -1.2250  1.9826  1.6863
  340MOL0     H45867   7.021   6.250   5.161 -1.3674  0.7754  3.0470
  340MOL0     H45868   7.170   6.430   5.366 -0.5815  0.5276 -0.9068
  340MOL0     H45869   7.002   6.438   5.311 -2.5573 -2.7571  2.2007
  340MOL0     H45870   7.122   6.201   5.468 -0.8886 -1.0915  0.5385
  340MOL0     H45871   6.969   6.203   5.377  1.1105 -0.7987 -0.4308
  340MOL0     H45872   7.039   6.433   5.557  0.1295  0.0008 -0.5461
  340MOL0     H45873   6.872   6.371   5.528 -0.2510 -0.2469  1.0348
  340MOL0     H45874   7.065   6.207   5.700 -1.5727 -3.7705 -2.1365
  340MOL0     H45875   6.924   6.159   5.648  2.0090 -0.9081  3.6320
  340MOL0     H45876   6.917   6.282   5.882  1.7738  0.2240 -0.3717
  340MOL0     H45877   6.934   6.427   5.805 -0.0273  0.2641  3.1561
  340MOL0     H45878   6.711   6.241   5.697 -0.4629 -1.9255  2.4339
  340MOL0     H45879   6.711   6.421   5.712 -3.5671 -1.7425 -1.1166
  340MOL0     H45880   6.702   6.379   5.963 -0.3130  2.0245 -1.4893
  340MOL0     H45881   6.691   6.202   5.920  1.5410  0.8191  0.6180
  340MOL0     H45882   7.091   6.062   5.059  0.4324  1.1338  1.0413
  340MOL0     H45883   7.188   5.901   4.894  2.1791 -3.4405  2.6742
  340MOL0     H45884   7.703   5.802   4.753  0.6456  1.4626 -1.4451
  340MOL0     H45885   7.828   5.714   4.583  0.7803  0.4061 -2.0756
  340MOL0     H45886   8.571   4.445   4.099 -0.3591  0.2547 -1.5872
  340MOL0     H45887   8.642   4.252   4.216  1.9549 -0.8649 -1.0320
  340MOL0     H45888   8.590   3.881   4.493 -0.5014 -1.5797 -0.4233
  340MOL0     H45889   8.708   3.683   4.591  2.0094 -0.9655 -0.5045
  340MOL0     H45890   8.645   3.467   4.616 -0.8365 -0.9018  1.3084
  340MOL0     H45891   8.571   3.413   4.473  0.0373  2.8449 -0.8613
  340MOL0     H45892   8.598   3.227   4.602  1.3133 -1.6001  1.2149
  340MOL0     H45893   8.773   3.231   4.602  0.8631 -0.3756 -1.5355
  340MOL0     H45894   8.685   3.249   4.319  0.6067 -1.7559 -2.6769
  340MOL0     H45895   8.612   3.111   4.405  1.2187 -0.9943  0.0655
  340MOL0     H45896   8.818   3.062   4.283 -2.4486 -0.8784 -0.0436
  340MOL0     H45897   8.830   3.020   4.449  0.1213 -0.2170 -1.5481
  340MOL0     H45898   9.110   3.341   4.460 -0.4398  1.5243 -1.9313
  340MOL0     H45899   8.773   3.528   4.203 -0.3086 -3.0622  1.4710
  340MOL0     H45900   8.693   3.726   4.101 -1.5250 -0.4115  0.1507
  341MOL0     O45901   1.142   6.131   0.250 -0.2722 -0.5558 -0.3341
  341MOL0     C45902   1.168   6.189   0.357  0.5031  0.1456 -1.2989
  341MOL0     O45903   1.159   6.127   0.481 -0.0046  0.0109  0.4746
  341MOL0     C45904   1.134   5.991   0.491  0.0225 -0.1383 -1.1278
  341MOL0     C45905   1.223   5.907   0.439  0.9861  0.3021  1.0214
  341MOL0     C45906   1.206   5.767   0.466  0.2616 -0.0709  0.0161
  341MOL0     C45907   1.110   5.728   0.562 -0.8636 -0.0826 -0.6295
  341MOL0     O45908   1.099   5.593   0.581  0.0776  0.2125 -0.6586
  341MOL0     C45909   0.961   5.551   0.579 -0.1700 -0.2734 -0.7269
  341MOL0     C45910   0.943   5.400   0.580 -0.8446 -0.4092 -0.0761
  341MOL0     C45911   1.040   5.330   0.491  0.1540  0.7686  0.2418
  341MOL0     C45912   0.998   5.182   0.477 -0.3311  0.5898 -1.4055
  341MOL0     C45913   1.126   5.099   0.465  0.0122  0.7903  1.2693
  341MOL0     C45914   1.167   5.019   0.590 -0.6062 -0.1743  0.3232
  341MOL0     C45915   1.294   4.943   0.578  0.3295  0.0569 -0.8386
  341MOL0     C45916   1.274   4.825   0.483 -0.0927 -0.4867  0.3021
  341MOL0     N45917   1.392   4.742   0.497 -0.5259  0.3537  0.6900
  341MOL0     C45918   1.512   4.757   0.434  0.4623  0.0817  0.1112
  341MOL0     C45919   1.595   4.670   0.491 -0.0379  0.4724  0.7219
  341MOL0     C45920   1.741   4.651   0.451  0.2577 -0.2054  0.8050
  341MOL0     C45921   1.836   4.734   0.538 -0.9216  0.1158  0.0072
  341MOL0     C45922   1.957   4.642   0.577 -0.0645  0.4515  0.7691
  341MOL0     C45923   2.069   4.697   0.660  0.2382  0.6996  0.9128
  341MOL0     O45924   2.139   4.794   0.580 -0.0381 -0.1291 -0.7496
  341MOL0     C45925   2.163   4.919   0.623 -0.3992 -0.3092 -1.2473
  341MOL0     C45926   2.078   4.986   0.708 -0.5553  0.7019 -0.2380
  341MOL0     C45927   2.118   5.093   0.789  0.2664  0.2747  0.6884
  341MOL0     C45928   2.039   5.123   0.912 -0.4808  0.6364  0.4293
  341MOL0     C45929   2.237   5.166   0.750 -0.6062 -0.2092  0.7342
  341MOL0     C45930   2.280   5.297   0.809  0.4880 -0.8413 -0.4920
  341MOL0     O45931   2.408   5.328   0.784  0.2360  0.0518 -0.2027
  341MOL0     C45932   2.463   5.420   0.868  0.7109  1.1900 -1.0405
  341MOL0     C45933   2.435   5.557   0.875  0.3573  0.0367  0.0643
  341MOL0     C45934   2.519   5.647   0.954  0.6246  0.3221  0.6480
  341MOL0     C45935   2.608   5.598   1.045 -0.5995 -0.2535  0.4317
  341MOL0     O45936   2.678   5.680   1.129 -0.4988  0.1614 -0.2931
  341MOL0     C45937   2.610   5.778   1.195 -0.8136 -0.4380 -0.5942
  341MOL0     C45938   2.677   5.786   1.337 -0.3280  0.6701 -0.0498
  341MOL0     C45939   2.804   5.881   1.345  0.1501 -0.0715 -0.3866
  341MOL0     C45940   2.875   5.897   1.483  0.4275  0.0715  0.2029
  341MOL0     C45941   2.956   6.033   1.471  0.2038  0.2184 -0.2418
  341MOL0     C45942   3.041   6.061   1.599  0.5875  0.5146 -0.2464
  341MOL0     C45943   3.070   6.211   1.615 -0.1828  0.0614  1.0795
  341MOL0     C45944   3.171   6.235   1.726 -0.5391  0.2715 -0.0967
  341MOL0    Cl45945   3.081   6.231   1.881  0.0699 -0.5428 -0.1844
  341MOL0     C45946   2.614   5.452   1.061  0.1475 -0.0072  0.6652
  341MOL0     C45947   2.554   5.372   0.951 -0.4571  0.3721 -0.5572
  341MOL0     O45948   2.197   5.360   0.882  0.6941  0.2550  0.1712
  341MOL0     C45949   2.309   5.108   0.650 -0.2840  0.2513  0.6104
  341MOL0     C45950   2.283   4.980   0.594 -0.3029  0.6885 -0.0570
  341MOL0     N45951   1.524   4.605   0.591 -0.5398 -0.6735  0.3708
  341MOL0     N45952   1.414   4.656   0.598  0.0389  0.6989  0.5942
  341MOL0     C45953   1.042   5.824   0.636 -1.6485 -0.1631  0.2825
  341MOL0     C45954   1.053   5.951   0.599  0.5258 -0.2278  1.4429
  341MOL0     C45955   1.203   6.333   0.354 -0.3805 -0.2755 -0.7815
  341MOL0     C45956   1.211   6.410   0.235 -0.0147  0.3358 -0.2021
  341MOL0     C45957   1.266   6.534   0.232  0.1355  0.0211 -0.4758
  341MOL0     C45958   1.311   6.599   0.345 -0.6156 -0.9128 -0.9526
  341MOL0     O45959   1.343   6.730   0.334  0.8650  0.5006 -0.2572
  341MOL0     C45960   1.439   6.791   0.415  0.9941 -0.4198 -1.1631
  341MOL0     C45961   1.581   6.745   0.382  0.2670 -0.3147 -0.3565
  341MOL0     C45962   1.611   6.735   0.224 -0.0750 -0.0934  0.1184
  341MOL0     C45963   1.735   6.660   0.182 -1.2418  0.0331 -0.7872
  341MOL0     C45964   1.855   6.737   0.210 -0.0627  0.5744  0.8022
  341MOL0     C45965   1.960   6.800   0.241  0.0296 -0.1097 -0.5739
  341MOL0     C45966   1.309   6.529   0.471 -1.1754 -0.3090 -0.2106
  341MOL0     C45967   1.259   6.397   0.472 -0.1541  0.1812 -0.1601
  341MOL0     H45968   1.284   5.943   0.357  0.5285 -0.1997  0.4568
  341MOL0     H45969   1.260   5.689   0.414 -1.1154 -0.5363 -0.7821
  341MOL0     H45970   0.911   5.585   0.670 -0.7859  0.3657 -1.2924
  341MOL0     H45971   0.905   5.589   0.493  0.6307  3.2011  0.1222
  341MOL0     H45972   0.962   5.376   0.685 -1.7174  2.9213  0.9472
  341MOL0     H45973   0.840   5.366   0.561 -2.1872  0.8684  3.9231
  341MOL0     H45974   1.037   5.370   0.389 -2.4802  4.3680  1.5073
  341MOL0     H45975   1.136   5.330   0.543  0.8230 -1.6287 -0.8957
  341MOL0     H45976   0.949   5.143   0.567  0.8759 -1.7352 -1.6959
  341MOL0     H45977   0.925   5.167   0.397 -0.3379 -2.0727 -0.9921
  341MOL0     H45978   1.102   5.018   0.396 -1.4380  1.5466  0.8346
  341MOL0     H45979   1.217   5.149   0.431  0.3169 -1.9995 -2.8097
  341MOL0     H45980   1.171   5.095   0.669 -2.3941  0.7389 -0.4316
  341MOL0     H45981   1.088   4.944   0.601  1.5951 -2.5851  1.1100
  341MOL0     H45982   1.375   5.011   0.550  0.2080 -0.1412 -1.7021
  341MOL0     H45983   1.318   4.910   0.680 -2.1291  0.8930  0.0925
  341MOL0     H45984   1.263   4.853   0.378 -2.0167 -1.7383  0.1257
  341MOL0     H45985   1.185   4.768   0.511 -0.6673  0.4461  0.4387
  341MOL0     H45986   1.524   4.820   0.346  0.3037  1.5561  1.1078
  341MOL0     H45987   1.764   4.545   0.458 -0.3996 -0.6233 -2.1862
  341MOL0     H45988   1.746   4.690   0.349 -1.5871 -0.4411  0.5846
  341MOL0     H45989   1.782   4.771   0.626 -0.6631  2.4817 -0.7632
  341MOL0     H45990   1.879   4.823   0.490 -1.0268 -0.5812 -1.4335
  341MOL0     H45991   2.002   4.601   0.486 -0.9905 -0.4255  0.6941
  341MOL0     H45992   1.919   4.563   0.641 -0.3809 -1.1826 -1.3152
  341MOL0     H45993   2.142   4.619   0.682  1.9600  2.6339  2.5549
  341MOL0     H45994   2.035   4.740   0.755  0.3348  0.1130  1.2178
  341MOL0     H45995   1.986   4.932   0.730 -0.8313  1.5124  0.7040
  341MOL0     H45996   1.986   5.215   0.886  0.0069  0.2006 -2.5000
  341MOL0     H45997   1.974   5.043   0.948  2.4610 -1.7618  0.9069
  341MOL0     H45998   2.102   5.158   0.994  2.2370 -0.9522 -0.7935
  341MOL0     H45999   2.360   5.595   0.807  1.3426  1.6936 -0.1630
  341MOL0     H46000   2.506   5.754   0.964 -0.3112  0.1509  1.4112
  341MOL0     H46001   2.605   5.879   1.154  0.9584  0.5702  1.4439
  341MOL0     H46002   2.507   5.750   1.221 -1.7607  4.7820  2.7697
  341MOL0     H46003   2.609   5.817   1.417  1.0744 -0.4869  1.6823
  341MOL0     H46004   2.708   5.683   1.360  1.9396  0.7215 -2.5052
  341MOL0     H46005   2.761   5.975   1.309 -3.7309 -0.9246  1.4787
  341MOL0     H46006   2.881   5.855   1.272  0.5508 -0.8721  0.3106
  341MOL0     H46007   2.802   5.891   1.565 -0.6967 -0.5862 -0.8059
  341MOL0     H46008   2.935   5.805   1.489  1.0898  0.4690 -0.2509
  341MOL0     H46009   2.894   6.121   1.447  0.0477  0.2506  0.2667
  341MOL0     H46010   3.028   6.017   1.390 -0.3427  0.0055 -0.6927
  341MOL0     H46011   2.979   6.024   1.680  1.6386 -2.5835 -0.7156
  341MOL0     H46012   3.127   5.994   1.604  1.2370  1.3262 -0.2691
  341MOL0     H46013   2.977   6.263   1.637 -0.5087 -0.3885  0.7810
  341MOL0     H46014   3.107   6.243   1.517  1.2014 -0.2578  1.4777
  341MOL0     H46015   3.219   6.333   1.712 -1.3362  1.1240  2.4939
  341MOL0     H46016   3.255   6.165   1.726  0.2615  1.2092 -0.1772
  341MOL0     H46017   2.680   5.404   1.133 -0.5887  0.0214  1.3700
  341MOL0     H46018   2.590   5.271   0.933 -0.1167 -1.0520  5.6422
  341MOL0     H46019   2.391   5.156   0.598  0.9434 -3.1004 -0.8863
  341MOL0     H46020   2.363   4.931   0.540  0.3146 -2.8750  3.5691
  341MOL0     H46021   0.969   5.797   0.712 -1.8794  1.6901  0.7480
  341MOL0     H46022   0.988   6.022   0.650  1.1699  1.8798 -0.4659
  341MOL0     H46023   1.175   6.363   0.143 -1.6445 -1.1112  1.1090
  341MOL0     H46024   1.290   6.580   0.137  0.9561 -2.1362 -1.3840
  341MOL0     H46025   1.439   6.899   0.397  1.7922 -0.3657 -0.8706
  341MOL0     H46026   1.420   6.772   0.521 -2.6195  1.8788 -1.2123
  341MOL0     H46027   1.594   6.645   0.425 -0.4959  0.1559  1.0283
  341MOL0     H46028   1.661   6.802   0.429  0.4407 -0.8198 -0.0264
  341MOL0     H46029   1.607   6.835   0.180 -2.5469  1.0924  2.6852
  341MOL0     H46030   1.528   6.686   0.172  1.0583  1.4519 -3.4895
  341MOL0     H46031   1.730   6.647   0.073  1.9862  1.8559 -1.2762
  341MOL0     H46032   1.749   6.564   0.231  1.2314  0.7218 -0.0029
  341MOL0     H46033   2.051   6.847   0.272  1.5991 -4.4549  2.3208
  341MOL0     H46034   1.345   6.570   0.565 -0.1153 -3.2867  0.7968
  341MOL0     H46035   1.241   6.347   0.567  0.7866  2.0761  1.0782
  342MOL0     O46036   8.169   7.128   5.617  0.3097 -0.4971 -1.1201
  342MOL0     C46037   8.172   7.211   5.522  0.2537 -0.3109 -0.0994
  342MOL0     O46038   8.252   7.205   5.409  0.6019 -0.3357 -0.9250
  342MOL0     C46039   8.332   7.093   5.397  0.0650  0.7133  0.6662
  342MOL0     C46040   8.292   6.963   5.411 -0.8348  0.2786  0.2906
  342MOL0     C46041   8.391   6.855   5.394  1.0052 -1.0886 -1.4817
  342MOL0     C46042   8.520   6.884   5.347  0.1231 -0.3823 -0.2340
  342MOL0     O46043   8.613   6.780   5.341 -0.5019 -0.1677 -0.0325
  342MOL0     C46044   8.563   6.654   5.296 -0.1473  0.0036 -0.9770
  342MOL0     C46045   8.668   6.572   5.235  0.5797  0.3149 -1.1367
  342MOL0     C46046   8.810   6.573   5.292  1.1306  1.1256 -0.0615
  342MOL0     C46047   8.907   6.484   5.205 -0.0729  0.1774  0.3413
  342MOL0     C46048   9.040   6.474   5.280 -0.5490 -0.3867  0.3690
  342MOL0     C46049   9.152   6.409   5.201 -0.4069  0.8003  0.0477
  342MOL0     C46050   9.175   6.482   5.064  0.2158  1.5257  0.4830
  342MOL0     C46051   9.304   6.429   5.005  0.0517 -1.4261  0.0418
  342MOL0     N46052   9.285   6.335   4.893 -0.1357  0.6163 -0.3872
  342MOL0     C46053   9.215   6.366   4.779 -0.5697 -0.8916 -0.7817
  342MOL0     C46054   9.217   6.251   4.708 -0.2556  0.1517 -0.2102
  342MOL0     C46055   9.137   6.247   4.581 -1.2043 -0.5185 -0.1559
  342MOL0     C46056   8.989   6.209   4.618  0.0957  0.3317 -0.4233
  342MOL0     C46057   8.943   6.115   4.510 -0.4899  0.2729  0.4976
  342MOL0     C46058   8.968   6.165   4.367  0.3458 -0.4097  0.0236
  342MOL0     O46059   8.939   6.304   4.343 -0.1713  0.5621 -0.1361
  342MOL0     C46060   8.811   6.357   4.351  0.0704 -0.4694  0.2751
  342MOL0     C46061   8.810   6.495   4.376 -0.3679  0.4142  1.4149
  342MOL0     C46062   8.696   6.572   4.406 -0.3815 -0.3406  0.1800
  342MOL0     C46063   8.712   6.715   4.416 -0.2484 -0.0767 -0.4598
  342MOL0     C46064   8.577   6.499   4.415  0.0909  0.5990  0.2711
  342MOL0     C46065   8.452   6.568   4.449 -0.2489  0.3545 -0.1517
  342MOL0     O46066   8.359   6.484   4.505 -0.5971  0.2460  0.3685
  342MOL0     C46067   8.230   6.540   4.522 -0.5096 -0.0014 -0.4605
  342MOL0     C46068   8.125   6.496   4.443 -0.2808  0.0487  0.5934
  342MOL0     C46069   7.995   6.548   4.465  0.0239 -0.1495 -0.7529
  342MOL0     C46070   7.965   6.652   4.551 -0.5891 -0.6221 -0.5028
  342MOL0     O46071   7.837   6.708   4.571  0.1802  0.0236 -0.1141
  342MOL0     C46072   7.738   6.603   4.583 -0.1832  0.4015 -0.4757
  342MOL0     C46073   7.589   6.661   4.594 -0.1185 -0.5323  0.0887
  342MOL0     C46074   7.545   6.760   4.487 -0.4907  0.4278 -0.7385
  342MOL0     C46075   7.395   6.796   4.488 -0.4741  0.0451 -0.1930
  342MOL0     C46076   7.354   6.861   4.345 -0.0824 -0.7776  0.4625
  342MOL0     C46077   7.205   6.884   4.338 -0.3464  0.1292  0.7758
  342MOL0     C46078   7.160   6.947   4.200  0.5051 -0.6927  0.1799
  342MOL0     C46079   7.080   6.850   4.111  0.0804 -0.0309  0.4770
  342MOL0    Cl46080   6.940   6.783   4.198 -0.1431  0.2634  0.0853
  342MOL0     C46081   8.072   6.707   4.611 -0.1952 -1.1275 -0.5829
  342MOL0     C46082   8.205   6.655   4.601 -0.4724 -0.5322  0.5568
  342MOL0     O46083   8.437   6.691   4.419  0.0870  0.2341  0.3330
  342MOL0     C46084   8.574   6.358   4.397  0.0046  0.7450 -0.1246
  342MOL0     C46085   8.687   6.284   4.358  0.5099 -0.5555 -0.5041
  342MOL0     N46086   9.269   6.146   4.777  0.7741 -0.4845  0.6394
  342MOL0     N46087   9.317   6.200   4.891 -0.7438 -0.0413 -0.0473
  342MOL0     C46088   8.557   7.014   5.317 -0.0181  0.3435  0.4158
  342MOL0     C46089   8.458   7.113   5.348 -0.2198 -0.4638  0.6825
  342MOL0     C46090   8.060   7.309   5.511  0.0124  0.0399 -0.6441
  342MOL0     C46091   7.969   7.320   5.620 -0.0487 -0.2666 -0.0964
  342MOL0     C46092   7.846   7.398   5.609 -0.0825 -0.2832 -0.2156
  342MOL0     C46093   7.818   7.459   5.488  0.1417 -0.4897  0.2559
  342MOL0     O46094   7.703   7.535   5.471 -0.5677 -0.2186  0.6327
  342MOL0     C46095   7.582   7.499   5.536  0.8316  0.7611 -0.1238
  342MOL0     C46096   7.496   7.616   5.524  0.6455 -0.3427  0.2056
  342MOL0     C46097   7.553   7.734   5.594 -1.6363  0.0662 -0.7996
  342MOL0     C46098   7.503   7.871   5.550  0.7908 -0.3973  0.5147
  342MOL0     C46099   7.589   7.973   5.627 -0.5246 -0.7197  0.0780
  342MOL0     C46100   7.675   8.057   5.679 -0.0951  1.0110  0.4150
  342MOL0     C46101   7.913   7.449   5.387  0.0991 -0.8896 -0.3142
  342MOL0     C46102   8.022   7.371   5.388  0.0740  1.2449 -0.0255
  342MOL0     H46103   8.187   6.945   5.435 -1.4073  2.4514 -0.3792
  342MOL0     H46104   8.366   6.755   5.425 -0.7561 -0.4031 -0.5286
  342MOL0     H46105   8.516   6.597   5.376 -2.6323  2.4518 -0.4956
  342MOL0     H46106   8.491   6.663   5.213 -1.7867  0.6714  0.4591
  342MOL0     H46107   8.637   6.467   5.226  0.2981 -0.2007  3.3721
  342MOL0     H46108   8.674   6.601   5.130 -0.6013  3.3787 -0.4552
  342MOL0     H46109   8.849   6.675   5.291  2.3031  0.6928 -0.2731
  342MOL0     H46110   8.818   6.534   5.394  3.5323  0.0723 -0.5845
  342MOL0     H46111   8.864   6.384   5.191  0.4374 -0.1932  1.2952
  342MOL0     H46112   8.914   6.530   5.106 -0.8215  1.3221  0.8151
  342MOL0     H46113   9.073   6.577   5.296 -0.5491 -0.3387  0.0747
  342MOL0     H46114   9.038   6.427   5.378 -0.6291 -0.3136  0.4024
  342MOL0     H46115   9.241   6.428   5.262 -0.8314  0.6752  0.7152
  342MOL0     H46116   9.136   6.301   5.197 -3.5553  1.1160  1.0859
  342MOL0     H46117   9.092   6.459   4.996 -0.0708 -2.1575  1.8588
  342MOL0     H46118   9.187   6.588   5.087  2.7163  1.5579 -0.6369
  342MOL0     H46119   9.373   6.392   5.082  0.9453 -1.6292 -0.8432
  342MOL0     H46120   9.354   6.516   4.961 -1.6320 -0.1304  0.5804
  342MOL0     H46121   9.181   6.466   4.754 -1.1968 -0.4581  1.5601
  342MOL0     H46122   9.134   6.341   4.525  0.4142 -0.7162 -0.6244
  342MOL0     H46123   9.188   6.164   4.531  0.8622  0.9484 -0.6434
  342MOL0     H46124   8.937   6.304   4.633  1.4768  1.2094 -1.0212
  342MOL0     H46125   8.976   6.164   4.717 -1.3508 -1.3665 -1.3176
  342MOL0     H46126   8.835   6.105   4.526 -0.5918  3.1160  2.4191
  342MOL0     H46127   8.990   6.020   4.535 -1.7133 -0.1335  1.4006
  342MOL0     H46128   8.909   6.107   4.295 -0.9304 -0.2379  0.8822
  342MOL0     H46129   9.076   6.150   4.362  0.2323 -3.2885  2.6707
  342MOL0     H46130   8.907   6.543   4.363  0.9747 -1.4046  3.8494
  342MOL0     H46131   8.659   6.770   4.338 -2.0593 -2.7062 -1.2115
  342MOL0     H46132   8.689   6.746   4.519 -2.0111 -1.3261 -0.4324
  342MOL0     H46133   8.816   6.740   4.397 -0.3120 -0.2394 -1.0239
  342MOL0     H46134   8.145   6.418   4.370  0.1209 -0.2831  1.0483
  342MOL0     H46135   7.913   6.512   4.404 -2.6583  1.8368  1.4328
  342MOL0     H46136   7.740   6.538   4.495  2.6301 -1.1901  0.6370
  342MOL0     H46137   7.764   6.539   4.668 -1.6366 -0.8965 -0.9692
  342MOL0     H46138   7.518   6.579   4.609  1.7592 -3.2021 -3.7885
  342MOL0     H46139   7.587   6.721   4.686 -1.2835 -2.1536  1.1825
  342MOL0     H46140   7.583   6.723   4.391  2.1944  0.7476  0.1179
  342MOL0     H46141   7.609   6.847   4.504  1.2528 -1.0518  0.7854
  342MOL0     H46142   7.335   6.706   4.500 -0.2867 -0.4230 -2.3157
  342MOL0     H46143   7.360   6.853   4.574 -0.3419 -0.1891  0.0174
  342MOL0     H46144   7.387   6.794   4.266  0.9431  1.1117 -0.7949
  342MOL0     H46145   7.412   6.954   4.333 -0.7192 -0.2827  1.1054
  342MOL0     H46146   7.147   6.791   4.340 -1.0171  0.3420 -2.9015
  342MOL0     H46147   7.174   6.957   4.413 -0.3566 -0.1926  1.0904
  342MOL0     H46148   7.240   6.992   4.140  0.1862  0.1011  0.3372
  342MOL0     H46149   7.087   7.027   4.216 -3.2698 -3.7339 -0.4942
  342MOL0     H46150   7.146   6.767   4.083  0.9043 -0.4844  3.4150
  342MOL0     H46151   7.046   6.903   4.021 -3.1549  0.9896  2.1305
  342MOL0     H46152   8.050   6.790   4.677  1.4154 -2.0990  1.2877
  342MOL0     H46153   8.279   6.712   4.656  2.6763 -1.6333 -2.1928
  342MOL0     H46154   8.489   6.297   4.426  1.0019  0.1107  1.6423
  342MOL0     H46155   8.673   6.176   4.360 -1.1460 -0.3731 -1.1008
  342MOL0     H46156   8.646   7.038   5.259  0.2453 -0.1532  0.6144
  342MOL0     H46157   8.479   7.217   5.327  2.7580 -1.0767  0.1265
  342MOL0     H46158   7.973   7.265   5.713  0.4062  1.9643  1.2765
  342MOL0     H46159   7.779   7.419   5.692  0.6445 -1.4887  0.7034
  342MOL0     H46160   7.545   7.417   5.473  2.6276  0.0204 -0.2833
  342MOL0     H46161   7.597   7.463   5.638  1.3079 -3.8296 -1.5954
  342MOL0     H46162   7.398   7.606   5.572  0.8800  0.8709  0.9564
  342MOL0     H46163   7.473   7.643   5.420 -2.9018  0.6805  1.1352
  342MOL0     H46164   7.659   7.742   5.566 -2.2044  2.2743 -2.6804
  342MOL0     H46165   7.548   7.717   5.702 -0.8091  1.9318 -0.4181
  342MOL0     H46166   7.395   7.886   5.565  0.7017  1.1202 -1.2071
  342MOL0     H46167   7.514   7.887   5.443 -0.5671  0.4058  0.4609
  342MOL0     H46168   7.738   8.132   5.722 -0.1075 -1.0010  4.4522
  342MOL0     H46169   7.897   7.508   5.297  1.2923 -1.5531 -0.9815
  342MOL0     H46170   8.071   7.353   5.292 -0.9135  1.7650 -0.6361
  343MOL0     O46171   0.147   4.940   1.938 -0.1991  0.5229  0.6541
  343MOL0     C46172   0.193   4.829   1.950  0.9403  0.2773  0.4275
  343MOL0     O46173   0.312   4.793   1.888 -0.2894  0.7614 -0.6687
  343MOL0     C46174   0.413   4.879   1.871 -0.0551 -0.6645 -0.3140
  343MOL0     C46175   0.436   4.970   1.968 -0.5988 -0.7128  0.9215
  343MOL0     C46176   0.567   5.031   1.974 -0.2846 -0.0644 -0.4332
  343MOL0     C46177   0.657   5.022   1.866 -1.0595  0.3387  0.4789
  343MOL0     O46178   0.777   5.090   1.890 -0.0828  0.5009  0.6683
  343MOL0     C46179   0.841   5.149   1.776 -0.4241 -0.6173  0.2578
  343MOL0     C46180   0.970   5.215   1.807  0.2694 -0.3871  0.9517
  343MOL0     C46181   0.973   5.283   1.942  0.2852  0.7650  0.6894
  343MOL0     C46182   1.100   5.370   1.948  0.5317  0.0617 -0.6445
  343MOL0     C46183   1.100   5.465   2.077 -0.6566  1.5001  0.0778
  343MOL0     C46184   1.045   5.597   2.034 -0.0826 -0.0503 -0.8810
  343MOL0     C46185   1.022   5.681   2.160  0.5748 -0.5636  0.4079
  343MOL0     C46186   1.016   5.826   2.123  0.0797 -0.6429 -0.4385
  343MOL0     N46187   1.040   5.919   2.238 -0.2782  0.5703 -0.1626
  343MOL0     C46188   0.952   6.016   2.263 -0.1074 -0.9138  0.0379
  343MOL0     C46189   1.018   6.090   2.355 -0.2049 -0.3775 -1.0727
  343MOL0     C46190   0.959   6.221   2.412 -0.0910 -0.4368 -0.4266
  343MOL0     C46191   0.982   6.243   2.566 -0.2910  1.2362 -0.4818
  343MOL0     C46192   0.979   6.388   2.617 -0.1196 -0.0794  0.0499
  343MOL0     C46193   0.886   6.487   2.549 -0.1082  0.2019 -0.0997
  343MOL0     O46194   0.748   6.464   2.601 -0.5549  1.0960  0.2587
  343MOL0     C46195   0.656   6.438   2.492  0.2593 -0.6437  0.4919
  343MOL0     C46196   0.621   6.309   2.459  0.2562 -0.3904 -0.2761
  343MOL0     C46197   0.552   6.279   2.338  0.2858  0.3314 -0.3569
  343MOL0     C46198   0.524   6.141   2.308 -0.7977 -0.2597 -0.1386
  343MOL0     C46199   0.516   6.389   2.254  0.1979  0.0757  0.7791
  343MOL0     C46200   0.452   6.352   2.120 -0.7502  0.7132  0.5162
  343MOL0     O46201   0.518   6.420   2.027 -0.5365 -0.0693  0.6876
  343MOL0     C46202   0.495   6.405   1.893 -0.1246 -0.3989  0.1709
  343MOL0     C46203   0.453   6.284   1.836  0.1416  0.3713  0.9263
  343MOL0     C46204   0.428   6.273   1.695  0.6857  0.1777 -0.3486
  343MOL0     C46205   0.459   6.373   1.610  0.1533 -0.6948 -0.4477
  343MOL0     O46206   0.428   6.360   1.472 -0.1707  0.0769 -0.2591
  343MOL0     C46207   0.539   6.333   1.383 -0.2757 -0.0684 -0.9520
  343MOL0     C46208   0.606   6.200   1.415  0.2286  0.0888  0.6006
  343MOL0     C46209   0.732   6.171   1.326  0.7185 -1.0777  0.4151
  343MOL0     C46210   0.841   6.278   1.341 -0.4218 -0.9821 -0.4523
  343MOL0     C46211   0.972   6.260   1.259 -0.8663  0.3831 -0.6067
  343MOL0     C46212   1.050   6.394   1.255 -0.3996  1.1382 -0.9649
  343MOL0     C46213   1.197   6.377   1.250  0.2025  0.9116  0.4178
  343MOL0     C46214   1.273   6.499   1.295 -0.2699  0.9076 -0.7213
  343MOL0    Cl46215   1.230   6.550   1.461  0.3176 -0.2832  0.4262
  343MOL0     C46216   0.494   6.498   1.659 -0.0733  0.1877 -0.3039
  343MOL0     C46217   0.509   6.515   1.804  0.6501  0.5347  0.8431
  343MOL0     O46218   0.342   6.301   2.091 -0.0104 -0.1837 -0.5202
  343MOL0     C46219   0.560   6.517   2.278  1.7462 -0.2033 -0.4891
  343MOL0     C46220   0.626   6.542   2.398  0.1762  0.0358  0.7691
  343MOL0     N46221   1.141   6.038   2.377  0.2360  0.0628  0.2679
  343MOL0     N46222   1.158   5.940   2.301  0.1534  0.3276 -0.5959
  343MOL0     C46223   0.627   4.932   1.762  1.2213  0.2147  0.1584
  343MOL0     C46224   0.512   4.855   1.773  0.1142  0.0436  0.6951
  343MOL0     C46225   0.117   4.717   2.011 -0.0685 -0.0332  0.4407
  343MOL0     C46226  -0.022   4.732   2.027  0.0844  0.2371  0.3383
  343MOL0     C46227  -0.089   4.625   2.100 -0.5873  0.2840 -0.7305
  343MOL0     C46228  -0.028   4.506   2.139 -0.1930 -0.2925  0.4286
  343MOL0     O46229  -0.078   4.391   2.202  0.1082  0.4079 -0.9219
  343MOL0     C46230  -0.214   4.399   2.243  0.6130  0.7911  0.8899
  343MOL0     C46231  -0.250   4.293   2.333 -0.3869  0.5511 -0.2696
  343MOL0     C46232  -0.408   4.293   2.353 -0.6074  1.0274 -0.0763
  343MOL0     C46233  -0.438   4.155   2.408  0.5075 -0.9067  0.4066
  343MOL0     C46234  -0.424   4.126   2.551  0.4860 -0.3832  0.0270
  343MOL0     C46235  -0.414   4.111   2.670  0.6074 -0.2434 -1.5376
  343MOL0     C46236   0.107   4.491   2.111  0.1048  0.2492 -0.2228
  343MOL0     C46237   0.177   4.591   2.043 -0.2514 -0.0143  0.1706
  343MOL0     H46238   0.375   4.978   2.058 -1.1237 -4.0414  0.9782
  343MOL0     H46239   0.595   5.092   2.060 -2.7134  1.7639 -0.8156
  343MOL0     H46240   0.863   5.061   1.716  0.3597 -2.9622  3.6566
  343MOL0     H46241   0.777   5.224   1.730  0.9195  1.0134  0.9469
  343MOL0     H46242   1.049   5.140   1.800  1.5413  0.9818  0.0449
  343MOL0     H46243   0.991   5.297   1.738  1.0891  0.4111  2.1203
  343MOL0     H46244   0.878   5.335   1.959  0.8306  1.5805  1.3050
  343MOL0     H46245   0.982   5.219   2.030  0.6273  0.2350  0.2766
  343MOL0     H46246   1.179   5.294   1.953  1.8094  1.4162  2.1455
  343MOL0     H46247   1.113   5.439   1.864 -1.6587  2.4706  0.8523
  343MOL0     H46248   1.035   5.421   2.154 -1.3768  1.7696 -0.3641
  343MOL0     H46249   1.201   5.468   2.119 -0.5489 -1.1295  0.1755
  343MOL0     H46250   1.110   5.645   1.960  1.5204 -2.9243 -1.4918
  343MOL0     H46251   0.943   5.577   1.999  0.3653 -2.0051 -1.2179
  343MOL0     H46252   0.933   5.657   2.218  0.0252  0.9453  0.2393
  343MOL0     H46253   1.109   5.679   2.227 -0.1533 -1.4694  1.3538
  343MOL0     H46254   0.916   5.858   2.093  0.1958  0.9866  0.7403
  343MOL0     H46255   1.091   5.844   2.045  2.1033 -2.0935  1.0388
  343MOL0     H46256   0.851   6.017   2.222 -0.4900  2.9952  0.7238
  343MOL0     H46257   1.005   6.310   2.367 -0.4853  1.9642  3.4060
  343MOL0     H46258   0.853   6.229   2.387 -0.3326  1.2175  0.9098
  343MOL0     H46259   1.066   6.186   2.607 -0.4957  1.3173  0.0470
  343MOL0     H46260   0.902   6.190   2.618 -0.4861  1.9040 -0.0999
  343MOL0     H46261   1.081   6.421   2.600  0.5071 -2.4233 -1.1236
  343MOL0     H46262   0.955   6.386   2.724 -3.0669  3.7924 -0.3304
  343MOL0     H46263   0.897   6.493   2.440 -1.7595  1.6868 -0.2321
  343MOL0     H46264   0.916   6.586   2.583  2.5667 -0.2582 -0.8671
  343MOL0     H46265   0.651   6.227   2.523  3.2845 -0.8580 -2.0944
  343MOL0     H46266   0.432   6.116   2.254 -1.0306  3.8647 -2.0183
  343MOL0     H46267   0.611   6.105   2.252  0.2138 -1.2764  1.9577
  343MOL0     H46268   0.517   6.086   2.402  0.9993 -0.3162 -0.0023
  343MOL0     H46269   0.426   6.195   1.893  0.6449 -1.4028 -1.4317
  343MOL0     H46270   0.392   6.176   1.661  2.0695 -0.8715  1.0383
  343MOL0     H46271   0.495   6.338   1.283  0.4933 -1.1787 -1.3619
  343MOL0     H46272   0.616   6.410   1.388  1.7936 -2.0166 -1.3003
  343MOL0     H46273   0.644   6.194   1.517  0.0617  1.9907  0.8111
  343MOL0     H46274   0.535   6.123   1.386  0.3371  0.9708 -2.3819
  343MOL0     H46275   0.709   6.169   1.220  2.6338  1.4373 -0.1706
  343MOL0     H46276   0.768   6.070   1.347 -3.2858 -3.1226 -1.5147
  343MOL0     H46277   0.815   6.381   1.315  2.1499 -0.4066 -1.0315
  343MOL0     H46278   0.860   6.286   1.448 -1.7505 -1.6030 -0.1473
  343MOL0     H46279   0.942   6.236   1.156  1.3942  0.2353 -1.2786
  343MOL0     H46280   1.031   6.183   1.309 -2.1248 -0.8660 -0.9553
  343MOL0     H46281   1.005   6.452   1.174 -2.2494  3.0258  1.2493
  343MOL0     H46282   1.033   6.449   1.349  1.9227 -1.9351  1.4919
  343MOL0     H46283   1.225   6.342   1.150  0.6631  0.7660  0.5955
  343MOL0     H46284   1.227   6.296   1.317 -1.8063  1.1402  1.7012
  343MOL0     H46285   1.263   6.579   1.221 -1.3901  0.4547 -1.0735
  343MOL0     H46286   1.382   6.484   1.294 -0.2162  1.2846 -0.5423
  343MOL0     H46287   0.512   6.580   1.592  1.6749 -1.0772 -1.4632
  343MOL0     H46288   0.560   6.601   1.845  0.7031 -1.2442  4.9190
  343MOL0     H46289   0.545   6.595   2.205 -0.6209  1.7908  1.9054
  343MOL0     H46290   0.665   6.643   2.413 -0.7180  0.5630 -0.3166
  343MOL0     H46291   0.687   4.904   1.676 -3.1256 -2.4378 -2.4200
  343MOL0     H46292   0.493   4.781   1.695 -0.1275 -1.5794  2.2318
  343MOL0     H46293  -0.081   4.821   2.008 -0.6976 -0.2579  0.3984
  343MOL0     H46294  -0.195   4.635   2.120 -1.1543 -0.9211 -2.8338
  343MOL0     H46295  -0.239   4.492   2.295 -2.5124  1.4934 -1.5783
  343MOL0     H46296  -0.272   4.405   2.151 -0.7282 -0.6877  1.5991
  343MOL0     H46297  -0.203   4.301   2.431 -1.0011 -2.8579  0.4441
  343MOL0     H46298  -0.211   4.199   2.293 -0.6740  0.8254 -1.2227
  343MOL0     H46299  -0.447   4.300   2.252 -2.3387 -0.4344  0.4414
  343MOL0     H46300  -0.446   4.375   2.415  0.6277  0.1572  1.9670
  343MOL0     H46301  -0.387   4.088   2.337  4.4844  3.4793 -1.4752
  343MOL0     H46302  -0.546   4.156   2.393  0.8471  1.9745 -3.4983
  343MOL0     H46303  -0.412   4.115   2.777 -3.3868 -1.4518 -1.2476
  343MOL0     H46304   0.164   4.406   2.147  2.3550  2.8860  3.1116
  343MOL0     H46305   0.278   4.562   2.013 -1.2943 -0.8208 -3.0027
  344MOL0     O46306   4.045   8.045   4.473  0.9841 -0.8501 -0.5770
  344MOL0     C46307   4.135   8.109   4.516 -0.1009  0.1688  0.5580
  344MOL0     O46308   4.243   8.057   4.583 -0.3544  0.7151 -0.0246
  344MOL0     C46309   4.228   7.927   4.630  0.6120 -0.6627  0.0523
  344MOL0     C46310   4.219   7.901   4.769 -0.9328  0.0383  0.8591
  344MOL0     C46311   4.219   7.775   4.817 -0.4177 -0.1680  0.1807
  344MOL0     C46312   4.214   7.667   4.728 -0.3111  0.7939 -0.2968
  344MOL0     O46313   4.207   7.537   4.786 -0.9349 -0.5506  1.2648
  344MOL0     C46314   4.207   7.418   4.703 -0.2922  0.2836 -0.0502
  344MOL0     C46315   4.245   7.307   4.798 -0.0245  0.8066  0.3788
  344MOL0     C46316   4.134   7.247   4.891  0.3976  0.4670  0.0802
  344MOL0     C46317   4.117   7.302   5.030 -0.2358  0.7218  0.4663
  344MOL0     C46318   4.219   7.243   5.134  0.1860 -0.0265 -0.7572
  344MOL0     C46319   4.199   7.307   5.268  0.9105  0.4037 -0.0648
  344MOL0     C46320   4.300   7.257   5.372  0.5414 -0.1004  1.3946
  344MOL0     C46321   4.278   7.322   5.502  0.1898  0.2508 -0.0930
  344MOL0     N46322   4.383   7.275   5.590 -0.4876 -0.4061  0.8122
  344MOL0     C46323   4.362   7.201   5.701  0.3813  0.8352 -0.2770
  344MOL0     C46324   4.480   7.214   5.773 -0.3218 -0.0545  0.5671
  344MOL0     C46325   4.521   7.153   5.898 -0.8380 -0.1856 -0.4829
  344MOL0     C46326   4.506   7.249   6.015  0.0554 -0.1433 -1.6724
  344MOL0     C46327   4.600   7.373   6.011  0.4207  0.2802 -0.7416
  344MOL0     C46328   4.631   7.432   6.152  0.8011  0.1904  0.0497
  344MOL0     O46329   4.507   7.455   6.212 -0.0796 -0.3466  0.1004
  344MOL0     C46330   4.498   7.556   6.305 -0.0814  1.0275  0.2245
  344MOL0     C46331   4.514   7.690   6.270  0.1758  0.2596 -0.8800
  344MOL0     C46332   4.505   7.794   6.368 -0.0839 -0.5135 -0.8602
  344MOL0     C46333   4.538   7.941   6.318  0.0620  0.1713 -0.2283
  344MOL0     C46334   4.461   7.756   6.503 -1.1620  0.3016  0.2887
  344MOL0     C46335   4.443   7.843   6.616 -0.5828  0.3749 -0.3955
  344MOL0     O46336   4.419   7.776   6.730  0.0300 -0.3875 -0.8392
  344MOL0     C46337   4.417   7.859   6.842 -0.2259  0.6161  1.0071
  344MOL0     C46338   4.291   7.885   6.893 -0.4406  0.1247  0.1982
  344MOL0     C46339   4.288   7.968   7.005 -0.6509  0.7320  0.0975
  344MOL0     C46340   4.394   8.033   7.060  0.3923 -0.5698  0.7014
  344MOL0     O46341   4.382   8.137   7.151 -0.0224 -0.1692  0.3076
  344MOL0     C46342   4.430   8.108   7.285 -0.2836 -0.0475 -0.4000
  344MOL0     C46343   4.318   8.164   7.373 -0.0348  0.8621  1.3869
  344MOL0     C46344   4.197   8.072   7.368  0.2676  1.1394 -0.1584
  344MOL0     C46345   4.103   8.073   7.488  0.0307  0.5776 -0.3296
  344MOL0     C46346   4.178   7.999   7.598  0.3956 -0.6902  0.4205
  344MOL0     C46347   4.115   8.020   7.733 -1.1204  0.3457 -0.6054
  344MOL0     C46348   4.180   7.934   7.846 -0.5705 -0.2392  0.4095
  344MOL0     C46349   4.158   7.996   7.983 -0.8654 -0.7097 -0.5034
  344MOL0    Cl46350   4.266   7.926   8.101  0.3514  0.5208  0.2966
  344MOL0     C46351   4.513   8.009   7.007  0.8617 -0.2169  0.2281
  344MOL0     C46352   4.529   7.913   6.905  0.1224  0.1925 -0.4018
  344MOL0     O46353   4.466   7.965   6.613 -0.2203  0.3147 -0.6422
  344MOL0     C46354   4.448   7.612   6.529 -0.6015  0.0018 -0.7549
  344MOL0     C46355   4.472   7.519   6.433 -0.2317  0.7678 -0.6745
  344MOL0     N46356   4.564   7.281   5.692 -0.0043  0.3163 -0.4930
  344MOL0     N46357   4.510   7.323   5.586  0.5821 -0.1377 -0.4174
  344MOL0     C46358   4.216   7.690   4.593  0.5286 -0.5296 -1.1332
  344MOL0     C46359   4.233   7.818   4.539  0.4937  0.0914 -1.4226
  344MOL0     C46360   4.132   8.245   4.471 -0.0895 -0.1647 -0.2423
  344MOL0     C46361   4.239   8.334   4.509  0.4318 -1.6168 -0.7828
  344MOL0     C46362   4.239   8.468   4.479 -0.5564  0.6519  0.3749
  344MOL0     C46363   4.132   8.524   4.407  0.2894  0.0399 -0.3997
  344MOL0     O46364   4.155   8.645   4.363 -0.3829 -0.2287  0.0819
  344MOL0     C46365   4.042   8.735   4.329  0.0325  0.4054  0.5009
  344MOL0     C46366   4.079   8.883   4.338 -1.2626  0.4559 -0.4214
  344MOL0     C46367   4.189   8.924   4.240 -0.4186 -0.2498  0.2926
  344MOL0     C46368   4.133   8.968   4.105 -0.2003 -0.0076  0.2008
  344MOL0     C46369   4.252   9.001   4.031  0.2113 -0.3677 -0.0207
  344MOL0     C46370   4.345   9.045   3.968  0.1117  0.3242 -0.9012
  344MOL0     C46371   4.029   8.442   4.362 -0.3581  1.0192  0.0123
  344MOL0     C46372   4.031   8.309   4.389 -0.7206  0.0680 -0.8829
  344MOL0     H46373   4.214   7.990   4.831  1.0801  0.7942  0.0210
  344MOL0     H46374   4.224   7.761   4.925 -0.0925 -0.3035  0.1505
  344MOL0     H46375   4.107   7.390   4.668 -0.0985 -2.0902  1.0895
  344MOL0     H46376   4.274   7.420   4.617  1.8449 -0.7283  1.4963
  344MOL0     H46377   4.286   7.221   4.745  2.3395  2.2195 -0.2687
  344MOL0     H46378   4.324   7.351   4.860 -1.3166  2.8656  0.6865
  344MOL0     H46379   4.043   7.278   4.838  1.2701  1.5515 -0.8317
  344MOL0     H46380   4.133   7.137   4.888  0.8316  0.4033 -4.1580
  344MOL0     H46381   4.124   7.412   5.029 -1.3007  0.8007 -1.0376
  344MOL0     H46382   4.018   7.269   5.060 -0.8186  0.2820 -1.7910
  344MOL0     H46383   4.225   7.133   5.132  0.3073 -0.1465  2.0001
  344MOL0     H46384   4.317   7.267   5.093  0.0836  0.6911 -0.5962
  344MOL0     H46385   4.208   7.415   5.251  1.8455  0.3157 -0.1971
  344MOL0     H46386   4.100   7.272   5.298  0.6440  1.7361  0.6882
  344MOL0     H46387   4.293   7.148   5.367 -1.9584  0.0400 -0.6469
  344MOL0     H46388   4.401   7.285   5.342  0.1824 -0.5746 -0.3876
  344MOL0     H46389   4.187   7.292   5.555  0.2003 -1.9442 -1.2021
  344MOL0     H46390   4.274   7.431   5.493 -0.9284  0.6425  3.4692
  344MOL0     H46391   4.277   7.138   5.723 -0.6650  1.8238 -1.3399
  344MOL0     H46392   4.461   7.062   5.910 -1.1332 -0.1824 -1.7548
  344MOL0     H46393   4.623   7.115   5.886 -0.7806 -0.6563  1.2138
  344MOL0     H46394   4.522   7.213   6.117  2.5535  1.8895 -1.2496
  344MOL0     H46395   4.399   7.273   6.014  0.0944  0.1194 -0.3199
  344MOL0     H46396   4.565   7.450   5.941 -2.8272 -2.0434 -1.9321
  344MOL0     H46397   4.695   7.343   5.966  1.7436  0.2557  1.9222
  344MOL0     H46398   4.703   7.514   6.151  0.1797  0.8766  2.7101
  344MOL0     H46399   4.681   7.356   6.213  2.6512  1.5575  0.3285
  344MOL0     H46400   4.539   7.713   6.167  1.1864 -1.0953 -0.9594
  344MOL0     H46401   4.530   8.024   6.389 -1.8087 -0.0481 -0.1154
  344MOL0     H46402   4.639   7.936   6.276  1.1144 -0.6705  2.2126
  344MOL0     H46403   4.471   7.977   6.239 -2.3194 -2.9799  0.1398
  344MOL0     H46404   4.205   7.836   6.849 -0.8219  0.5252  0.4978
  344MOL0     H46405   4.188   7.970   7.046 -1.2706  1.1297 -1.3940
  344MOL0     H46406   4.444   8.002   7.309  3.0093  0.1239 -1.0997
  344MOL0     H46407   4.523   8.160   7.309  1.3759 -1.5523 -3.1112
  344MOL0     H46408   4.367   8.182   7.469  0.4665  0.7186  1.1582
  344MOL0     H46409   4.285   8.258   7.328  0.3557  1.1017  1.5988
  344MOL0     H46410   4.232   7.969   7.357  0.0105  1.0035  0.2538
  344MOL0     H46411   4.129   8.102   7.288 -0.1049  1.6851  0.3530
  344MOL0     H46412   4.080   8.176   7.515 -2.9897 -0.1097  0.1684
  344MOL0     H46413   4.006   8.022   7.479  1.3581 -2.3792  0.7718
  344MOL0     H46414   4.285   8.024   7.600  0.7009 -1.7311  3.9917
  344MOL0     H46415   4.187   7.893   7.570  2.3145  0.0742 -2.3917
  344MOL0     H46416   4.127   8.124   7.765 -1.4328 -0.4095  2.2412
  344MOL0     H46417   4.008   7.999   7.733 -1.2379  0.8883  0.2934
  344MOL0     H46418   4.289   7.938   7.840 -0.5822  4.5138 -0.9551
  344MOL0     H46419   4.142   7.832   7.847 -0.1573 -0.4341 -1.2005
  344MOL0     H46420   4.052   7.976   7.999 -0.4863 -2.3619  0.1321
  344MOL0     H46421   4.168   8.105   7.981  1.1257 -0.7755  1.6669
  344MOL0     H46422   4.604   8.053   7.046  1.0458 -0.2427 -0.1647
  344MOL0     H46423   4.625   7.892   6.858  0.7956 -1.1026  1.4163
  344MOL0     H46424   4.423   7.577   6.629 -2.4726  2.6160 -0.2026
  344MOL0     H46425   4.444   7.417   6.460  2.5296 -0.1487 -1.0057
  344MOL0     H46426   4.215   7.609   4.521  2.9018 -0.9772 -0.7292
  344MOL0     H46427   4.252   7.828   4.433  1.6773 -1.2963 -1.3700
  344MOL0     H46428   4.326   8.310   4.568  1.4954  4.4869  0.7334
  344MOL0     H46429   4.321   8.533   4.508 -0.4002  3.2440 -4.6599
  344MOL0     H46430   4.021   8.722   4.222  0.8665 -2.4455  0.6061
  344MOL0     H46431   3.952   8.715   4.387 -2.2007  1.3007 -2.3913
  344MOL0     H46432   4.123   8.904   4.435 -1.8674 -1.2010  0.2495
  344MOL0     H46433   3.985   8.939   4.337  0.5328  3.8969  2.0924
  344MOL0     H46434   4.251   8.836   4.220  2.1164  1.6671 -0.7192
  344MOL0     H46435   4.249   9.002   4.289 -0.4794 -0.7805  1.2481
  344MOL0     H46436   4.066   9.053   4.120  2.1145  1.9308  0.3593
  344MOL0     H46437   4.089   8.877   4.063  2.7803 -2.8309  2.6128
  344MOL0     H46438   4.432   9.083   3.919  2.3687 -1.3162  1.5659
  344MOL0     H46439   3.946   8.488   4.309 -0.6934 -0.4654 -0.8011
  344MOL0     H46440   3.958   8.242   4.345  0.3301 -0.0969 -2.4966
  345MOL0     O46441   9.863   6.536  10.347 -0.0571  0.5802 -0.0181
  345MOL0     C46442   9.796   6.439  10.296 -0.4333  0.2574 -0.5259
  345MOL0     O46443   9.840   6.308  10.277 -0.3253  0.3936  0.8260
  345MOL0     C46444   9.958   6.271  10.331 -0.1871 -0.3440 -0.0107
  345MOL0     C46445   9.956   6.205  10.451  1.3158  0.5199 -0.0480
  345MOL0     C46446  10.071   6.164  10.509  0.6983  0.8316 -0.2133
  345MOL0     C46447  10.196   6.187  10.448  0.2591  0.2195  0.2699
  345MOL0     O46448  10.299   6.148  10.531  0.2517 -0.0004  0.4198
  345MOL0     C46449  10.431   6.171  10.487 -0.7819  0.8439  0.1382
  345MOL0     C46450  10.544   6.125  10.585  0.1542 -0.0459 -1.1603
  345MOL0     C46451  10.520   6.197  10.721  0.5304 -0.6089 -0.0129
  345MOL0     C46452  10.601   6.325  10.752 -0.0286  0.1303 -0.9753
  345MOL0     C46453  10.591   6.343  10.906 -0.1269 -0.7612 -0.2567
  345MOL0     C46454  10.638   6.488  10.941 -0.9143 -0.0479  0.6291
  345MOL0     C46455  10.643   6.512  11.098  0.1547 -0.5832 -0.3055
  345MOL0     C46456  10.788   6.495  11.161 -0.3690 -0.1842  0.2324
  345MOL0     N46457  10.845   6.358  11.139  0.4363 -0.0517  0.0335
  345MOL0     C46458  10.850   6.267  11.240  0.0084 -0.7054 -0.4792
  345MOL0     C46459  10.917   6.171  11.180  0.7177 -0.6162  0.2749
  345MOL0     C46460  10.964   6.043  11.240  0.1806  0.0739 -0.8288
  345MOL0     C46461  10.927   5.916  11.166 -0.0141 -0.2265 -0.4022
  345MOL0     C46462  10.786   5.896  11.141  0.6961  0.1936  0.9531
  345MOL0     C46463  10.727   5.953  11.008  0.2106  0.8458 -0.7478
  345MOL0     O46464  10.781   5.874  10.894 -0.0172 -0.3469 -0.1415
  345MOL0     C46465  10.730   5.748  10.874  0.3398  0.2290 -0.2835
  345MOL0     C46466  10.771   5.698  10.749 -1.2606 -0.8637  0.5363
  345MOL0     C46467  10.716   5.587  10.689 -0.3600 -0.5647  0.6799
  345MOL0     C46468  10.751   5.556  10.542  1.0329 -0.6269 -0.5633
  345MOL0     C46469  10.625   5.500  10.758 -1.1118 -0.3772 -0.0963
  345MOL0     C46470  10.557   5.376  10.705 -0.8394  0.2143  1.0299
  345MOL0     O46471  10.453   5.334  10.781  0.8021 -0.4300 -0.0012
  345MOL0     C46472  10.398   5.216  10.763  0.7938 -0.0791  0.8929
  345MOL0     C46473  10.295   5.197  10.669 -0.0654 -1.2558 -0.0723
  345MOL0     C46474  10.232   5.077  10.654  0.5923 -0.5823  0.3638
  345MOL0     C46475  10.285   4.960  10.714  0.3212 -0.7621 -0.4642
  345MOL0     O46476  10.216   4.845  10.715  0.2902 -0.1159 -0.1479
  345MOL0     C46477  10.230   4.735  10.816  0.0930 -0.1890 -0.0892
  345MOL0     C46478  10.170   4.771  10.950 -0.1933  0.4551  0.4010
  345MOL0     C46479  10.160   4.649  11.052 -0.3430 -0.2158  0.5729
  345MOL0     C46480  10.294   4.646  11.130  0.6006 -0.8052  1.8095
  345MOL0     C46481  10.302   4.533  11.232  0.5161  0.3786 -0.0982
  345MOL0     C46482  10.436   4.514  11.285  0.6559 -0.2635 -0.3343
  345MOL0     C46483  10.429   4.408  11.393 -0.2915  0.4384 -0.2191
  345MOL0     C46484  10.560   4.318  11.404  0.5002 -0.7015  0.5985
  345MOL0    Cl46485  10.698   4.416  11.418  0.3262 -0.3142 -0.1383
  345MOL0     C46486  10.398   4.973  10.796 -0.9356 -0.5196  0.0983
  345MOL0     C46487  10.447   5.102  10.822 -0.9448 -0.1766  0.2934
  345MOL0     O46488  10.596   5.317  10.605 -0.2068 -0.3791 -0.6576
  345MOL0     C46489  10.600   5.543  10.889 -0.1149  0.6821  0.3093
  345MOL0     C46490  10.640   5.672  10.940  0.3587  0.3024 -0.3064
  345MOL0     N46491  10.959   6.219  11.055  0.2515 -0.4127 -0.0799
  345MOL0     N46492  10.913   6.334  11.020  0.7221 -0.2874 -0.1246
  345MOL0     C46493  10.196   6.264  10.334  0.0981  0.9415  0.4273
  345MOL0     C46494  10.080   6.310  10.277  2.1444 -0.1475  0.9520
  345MOL0     C46495   9.667   6.478  10.233 -0.1094 -0.3652 -0.4588
  345MOL0     C46496   9.635   6.612  10.196 -0.8893  1.0018  0.0866
  345MOL0     C46497   9.514   6.659  10.141 -0.8043 -0.6546  0.0911
  345MOL0     C46498   9.425   6.560  10.104  0.0222  0.2945  0.3717
  345MOL0     O46499   9.318   6.600  10.034 -0.6218 -0.3804 -0.3746
  345MOL0     C46500   9.256   6.505   9.946  0.4694  0.3191 -0.1914
  345MOL0     C46501   9.196   6.581   9.825  0.3436  0.7114 -0.4139
  345MOL0     C46502   9.112   6.699   9.860  0.1512 -0.7424 -0.2371
  345MOL0     C46503   8.984   6.670   9.948 -0.0370 -0.3362  1.2319
  345MOL0     C46504   8.897   6.780   9.941 -0.1876 -0.5434 -0.3289
  345MOL0     C46505   8.809   6.872   9.937 -0.9130 -0.0680  0.9239
  345MOL0     C46506   9.445   6.430  10.143  0.3192  0.9048  0.0378
  345MOL0     C46507   9.567   6.389  10.210  0.4940  0.3459 -0.4193
  345MOL0     H46508   9.858   6.175  10.487  0.8491  1.3193 -0.6117
  345MOL0     H46509  10.071   6.112  10.605  0.9691  1.2371  0.0066
  345MOL0     H46510  10.441   6.111  10.396 -0.9044  0.5684  0.3023
  345MOL0     H46511  10.442   6.276  10.461  1.1322  0.8509  0.8583
  345MOL0     H46512  10.536   6.017  10.600  0.5820  0.0775  0.0160
  345MOL0     H46513  10.648   6.150  10.564  1.1637 -1.6761  1.4083
  345MOL0     H46514  10.413   6.221  10.727  0.2993 -0.7332 -2.4607
  345MOL0     H46515  10.554   6.126  10.797  1.9925  1.1628  1.0972
  345MOL0     H46516  10.701   6.333  10.709  0.6622  3.0975  0.8308
  345MOL0     H46517  10.552   6.416  10.716  0.7591  0.7231 -0.5731
  345MOL0     H46518  10.490   6.325  10.943 -0.8336  0.1826 -1.6394
  345MOL0     H46519  10.663   6.276  10.954  0.3568 -0.2522 -0.2571
  345MOL0     H46520  10.739   6.495  10.899 -1.2142 -0.2709 -0.1510
  345MOL0     H46521  10.578   6.567  10.895 -0.8191 -0.2356  0.1809
  345MOL0     H46522  10.610   6.614  11.118 -0.0638 -1.0855  2.2845
  345MOL0     H46523  10.581   6.441  11.153 -1.3840  0.7463 -0.2624
  345MOL0     H46524  10.782   6.528  11.265 -0.0971  1.3715 -0.2217
  345MOL0     H46525  10.855   6.563  11.109  1.3486 -0.1195  2.4347
  345MOL0     H46526  10.804   6.277  11.338 -0.7536  3.3701 -1.0843
  345MOL0     H46527  11.070   6.063  11.254  0.0658  2.1502 -2.4461
  345MOL0     H46528  10.926   6.038  11.342  1.2265  0.2367 -0.4291
  345MOL0     H46529  10.964   5.836  11.231  1.4744  0.9186  0.2222
  345MOL0     H46530  10.987   5.917  11.075  2.3789  0.7237  1.0852
  345MOL0     H46531  10.720   5.948  11.210  2.0076  0.9481  1.6857
  345MOL0     H46532  10.759   5.793  11.166 -1.3594  0.6198  0.6889
  345MOL0     H46533  10.751   6.059  10.998 -1.2713  1.3411  0.5229
  345MOL0     H46534  10.618   5.941  11.005  0.1315  0.1495  2.1447
  345MOL0     H46535  10.832   5.760  10.684 -5.8987  1.9914 -1.5829
  345MOL0     H46536  10.657   5.568  10.486  0.0854 -2.1803  0.6150
  345MOL0     H46537  10.825   5.630  10.511  2.8262 -1.5588  1.3330
  345MOL0     H46538  10.792   5.455  10.531  0.2443 -1.0488  0.2929
  345MOL0     H46539  10.256   5.286  10.621 -1.9606 -0.0234  3.4368
  345MOL0     H46540  10.133   5.075  10.607  0.7841 -0.4968 -0.0481
  345MOL0     H46541  10.176   4.649  10.773  0.8420 -0.2264 -0.9889
  345MOL0     H46542  10.339   4.726  10.823  0.0872  0.2947  0.7312
  345MOL0     H46543  10.227   4.853  10.994  0.4900 -0.3667  1.0874
  345MOL0     H46544  10.066   4.793  10.923 -0.3641 -0.4946  0.2272
  345MOL0     H46545  10.137   4.559  10.994 -3.7194 -0.6375  2.2994
  345MOL0     H46546  10.087   4.662  11.132  0.1804  0.7174  0.9134
  345MOL0     H46547  10.379   4.638  11.061 -0.6929  0.5953 -0.0340
  345MOL0     H46548  10.297   4.733  11.195 -0.0775  0.6041  0.0245
  345MOL0     H46549  10.255   4.438  11.205  0.1458  0.0690  1.5286
  345MOL0     H46550  10.228   4.556  11.309  1.5555  2.9763  0.2011
  345MOL0     H46551  10.507   4.477  11.211  1.9489 -3.3402  2.1896
  345MOL0     H46552  10.476   4.609  11.322  3.2622 -0.6558 -1.9238
  345MOL0     H46553  10.342   4.345  11.373  0.4164 -0.6551  0.0366
  345MOL0     H46554  10.400   4.458  11.486  1.3550  1.2861 -0.1212
  345MOL0     H46555  10.569   4.249  11.320 -2.5283 -1.5003  0.8343
  345MOL0     H46556  10.545   4.254  11.492 -1.9966  0.3598  1.0082
  345MOL0     H46557  10.448   4.902  10.861 -1.4207  0.8315  2.0404
  345MOL0     H46558  10.530   5.098  10.891 -0.3993  0.2109 -0.3246
  345MOL0     H46559  10.541   5.477  10.952  0.1053 -1.4476 -1.5663
  345MOL0     H46560  10.617   5.696  11.044 -3.8297  2.6114 -1.5215
  345MOL0     H46561  10.294   6.283  10.292 -0.5295  0.3351 -1.3748
  345MOL0     H46562  10.075   6.375  10.190 -1.1659  0.8820  1.7547
  345MOL0     H46563   9.711   6.685  10.218  1.6723 -1.1380 -1.0590
  345MOL0     H46564   9.489   6.762  10.119 -0.6927 -1.1123 -2.5555
  345MOL0     H46565   9.332   6.436   9.908  2.4141 -0.3969  4.3708
  345MOL0     H46566   9.172   6.466  10.004  0.9757 -0.0479  0.2975
  345MOL0     H46567   9.144   6.506   9.763  3.0622 -1.9157  0.2178
  345MOL0     H46568   9.282   6.614   9.766 -1.3927  0.2254 -3.4484
  345MOL0     H46569   9.093   6.741   9.761  4.2430 -1.0282 -1.3559
  345MOL0     H46570   9.182   6.769   9.908  0.0259  0.3235 -1.5613
  345MOL0     H46571   9.002   6.639  10.051  3.0241  0.8445  1.1511
  345MOL0     H46572   8.937   6.584   9.898 -1.6546  1.6044 -0.7740
  345MOL0     H46573   8.717   6.926   9.925 -1.7144 -1.5511  0.0361
  345MOL0     H46574   9.375   6.349  10.125  1.8814 -0.9726  1.9096
  345MOL0     H46575   9.576   6.282  10.229  1.4977  0.8184  2.1006
  346MOL0     O46576   3.020   6.562   7.715 -0.3368  0.3710 -0.6940
  346MOL0     C46577   3.036   6.673   7.661 -0.1991 -0.8576  0.5414
  346MOL0     O46578   3.134   6.759   7.691 -0.9495 -0.6451  0.2926
  346MOL0     C46579   3.229   6.733   7.786  0.2448  0.3528 -0.4192
  346MOL0     C46580   3.225   6.800   7.911  0.2105 -1.0906 -0.1527
  346MOL0     C46581   3.324   6.787   8.007 -0.2879 -0.4028 -0.1039
  346MOL0     C46582   3.421   6.691   7.989 -0.7023 -0.1187  0.8519
  346MOL0     O46583   3.529   6.661   8.065 -0.4755 -0.0980 -0.7782
  346MOL0     C46584   3.541   6.729   8.187 -0.2504  0.5070  0.7556
  346MOL0     C46585   3.670   6.683   8.263  0.1517 -0.1425  0.4980
  346MOL0     C46586   3.655   6.723   8.409  0.6606  0.6606  0.2273
  346MOL0     C46587   3.761   6.662   8.496 -0.5763  0.4362  0.3777
  346MOL0     C46588   3.733   6.686   8.650 -0.1065 -0.5152  0.4422
  346MOL0     C46589   3.841   6.616   8.742  1.3898  0.2158  0.8365
  346MOL0     C46590   3.830   6.467   8.753 -0.3828  0.2940 -0.1851
  346MOL0     C46591   3.712   6.423   8.837 -0.0446  0.0168 -0.1199
  346MOL0     N46592   3.730   6.411   8.983 -0.3214  0.0123 -0.6099
  346MOL0     C46593   3.813   6.315   9.047  1.1783 -0.0769  0.2161
  346MOL0     C46594   3.777   6.330   9.169 -1.1767 -0.4265 -0.3128
  346MOL0     C46595   3.821   6.255   9.296 -0.2092  0.0481  0.7304
  346MOL0     C46596   3.953   6.311   9.363  1.1679 -0.0980 -0.5737
  346MOL0     C46597   3.986   6.223   9.488  0.1732 -1.0584 -0.1149
  346MOL0     C46598   4.100   6.271   9.576 -0.2144  0.1297 -0.0340
  346MOL0     O46599   4.167   6.390   9.552  0.0659  0.5759 -0.8192
  346MOL0     C46600   4.263   6.401   9.458 -0.5349 -0.2499  1.2508
  346MOL0     C46601   4.318   6.534   9.440 -0.2306 -0.4661  0.0031
  346MOL0     C46602   4.419   6.562   9.340  0.4857  0.6554 -0.6267
  346MOL0     C46603   4.467   6.706   9.328 -0.3314  0.0717  0.5874
  346MOL0     C46604   4.475   6.453   9.262 -0.2390  0.0835  0.3262
  346MOL0     C46605   4.582   6.477   9.166  0.3535 -0.1803 -0.3306
  346MOL0     O46606   4.671   6.381   9.150 -0.1341  0.0499 -0.1102
  346MOL0     C46607   4.745   6.391   9.038 -0.4744  0.1430  0.5815
  346MOL0     C46608   4.707   6.368   8.911  0.4101 -0.6593 -0.3215
  346MOL0     C46609   4.792   6.386   8.803  0.3838  1.3343  0.7598
  346MOL0     C46610   4.922   6.425   8.818  0.0985 -0.4234  0.2648
  346MOL0     O46611   4.994   6.427   8.700  0.9768  0.9377 -0.9284
  346MOL0     C46612   5.130   6.453   8.708 -0.3958 -0.4873 -0.4153
  346MOL0     C46613   5.175   6.428   8.564  0.3263  0.0983 -1.1853
  346MOL0     C46614   5.295   6.506   8.520  0.7263 -0.9862 -0.1058
  346MOL0     C46615   5.342   6.465   8.379  0.1724 -0.0167  1.3824
  346MOL0     C46616   5.435   6.559   8.313  0.1295 -0.0888 -0.0195
  346MOL0     C46617   5.462   6.514   8.165 -0.1479  0.9316 -0.2947
  346MOL0     C46618   5.552   6.391   8.137  0.6188 -0.4288 -0.0340
  346MOL0     C46619   5.591   6.401   7.984  0.3706 -0.4941 -0.7630
  346MOL0    Cl46620   5.631   6.244   7.908 -0.0251 -0.5615 -0.3570
  346MOL0     C46621   4.977   6.440   8.944 -0.4104 -0.7215 -1.3374
  346MOL0     C46622   4.884   6.421   9.047  0.8510  0.2669  0.0282
  346MOL0     O46623   4.581   6.581   9.103 -0.4413  0.7921  0.8489
  346MOL0     C46624   4.414   6.320   9.275 -0.2188 -0.0284 -0.2891
  346MOL0     C46625   4.315   6.301   9.370 -0.3886 -0.1509 -0.2555
  346MOL0     N46626   3.691   6.435   9.186  0.1486 -0.0830 -0.8453
  346MOL0     N46627   3.666   6.493   9.071 -0.2767 -0.0059  0.7614
  346MOL0     C46628   3.422   6.616   7.869 -0.4264  0.0223 -0.5734
  346MOL0     C46629   3.320   6.631   7.776 -0.6460 -0.7607  0.6379
  346MOL0     C46630   2.934   6.719   7.570  0.7829 -0.1468  0.0507
  346MOL0     C46631   2.957   6.825   7.487  0.0673  0.5642  0.8289
  346MOL0     C46632   2.859   6.857   7.384  0.3365 -0.7942 -0.8967
  346MOL0     C46633   2.742   6.789   7.377 -1.1872  0.2104  1.1525
  346MOL0     O46634   2.635   6.814   7.294 -0.7086 -0.2750 -0.5581
  346MOL0     C46635   2.625   6.913   7.193  0.1944 -0.7354 -0.2237
  346MOL0     C46636   2.715   6.871   7.076  0.6858 -0.5591 -0.3847
  346MOL0     C46637   2.755   7.004   6.995 -0.6254  0.4627  1.2424
  346MOL0     C46638   2.854   6.958   6.889  0.0795  0.4448 -0.1945
  346MOL0     C46639   2.980   6.907   6.953  0.0188  0.6962 -0.5426
  346MOL0     C46640   3.080   6.860   7.003  0.3845  0.2986  1.0196
  346MOL0     C46641   2.725   6.677   7.453 -0.2196  0.1586 -0.0206
  346MOL0     C46642   2.817   6.647   7.548 -0.6064  0.7945  0.5611
  346MOL0     H46643   3.146   6.868   7.941  0.9851 -0.4400  0.4550
  346MOL0     H46644   3.315   6.851   8.094  1.6009 -0.8652  0.4811
  346MOL0     H46645   3.544   6.837   8.171 -0.6178  0.3041 -0.8283
  346MOL0     H46646   3.456   6.701   8.250 -1.1656 -0.9675 -1.0398
  346MOL0     H46647   3.678   6.574   8.257 -0.3367 -0.2377  1.3902
  346MOL0     H46648   3.756   6.724   8.209  0.0646  0.7885  1.0449
  346MOL0     H46649   3.680   6.830   8.409  2.8168  0.2006  0.2771
  346MOL0     H46650   3.555   6.699   8.447  0.5640  0.2038 -0.3035
  346MOL0     H46651   3.767   6.553   8.484  1.0234  0.6165 -0.6956
  346MOL0     H46652   3.855   6.708   8.465 -1.0255  1.1063  0.0041
  346MOL0     H46653   3.744   6.792   8.677  1.7444 -1.2227  2.8008
  346MOL0     H46654   3.631   6.656   8.675  0.1714 -1.7554  0.1340
  346MOL0     H46655   3.940   6.647   8.706  0.5466  0.8070 -1.1153
  346MOL0     H46656   3.817   6.651   8.843 -2.9685 -0.6957  0.3117
  346MOL0     H46657   3.817   6.416   8.657  0.9434 -6.0672  2.4871
  346MOL0     H46658   3.921   6.427   8.799 -1.4697 -0.8859  1.0285
  346MOL0     H46659   3.677   6.325   8.803 -3.1057 -0.1583  2.9614
  346MOL0     H46660   3.622   6.484   8.821 -0.7922 -1.3798 -1.4641
  346MOL0     H46661   3.875   6.240   8.998 -0.4741  0.0652 -2.2364
  346MOL0     H46662   3.736   6.255   9.365 -0.2005 -1.2284  0.7637
  346MOL0     H46663   3.837   6.152   9.266 -4.5571 -0.8263  0.7385
  346MOL0     H46664   3.914   6.411   9.382 -0.7771 -1.0385  0.6929
  346MOL0     H46665   4.031   6.321   9.287  0.6260  4.3812 -0.7940
  346MOL0     H46666   4.005   6.123   9.446 -1.8938 -1.6123  0.1523
  346MOL0     H46667   3.905   6.208   9.560  0.8419  0.4830  1.0065
  346MOL0     H46668   4.173   6.190   9.582  0.0226  0.3610  0.1995
  346MOL0     H46669   4.053   6.282   9.674 -2.5710 -1.2066 -0.9178
  346MOL0     H46670   4.301   6.611   9.515 -0.6386 -0.3704 -0.1862
  346MOL0     H46671   4.409   6.762   9.402 -2.0277 -1.3989  0.4376
  346MOL0     H46672   4.572   6.717   9.354 -0.2113  0.2527  0.0473
  346MOL0     H46673   4.436   6.764   9.241 -0.9251  1.9864  2.0037
  346MOL0     H46674   4.606   6.337   8.887  0.9646 -2.5403 -0.3783
  346MOL0     H46675   4.764   6.362   8.701 -3.2407  3.5420  1.0666
  346MOL0     H46676   5.151   6.559   8.720  3.1226 -1.2477  1.5183
  346MOL0     H46677   5.187   6.393   8.779 -0.7254 -0.3061  0.0051
  346MOL0     H46678   5.190   6.322   8.547  0.6743  0.1702 -1.3419
  346MOL0     H46679   5.094   6.441   8.492 -2.3301 -1.6169  1.2810
  346MOL0     H46680   5.375   6.502   8.594  0.1557 -2.8284  0.4813
  346MOL0     H46681   5.270   6.612   8.521  2.7075 -0.4793  0.3351
  346MOL0     H46682   5.384   6.364   8.371  1.4414  0.4867  1.4949
  346MOL0     H46683   5.249   6.470   8.322  0.8717 -0.1476  0.1798
  346MOL0     H46684   5.525   6.563   8.375 -0.4293 -0.8073  0.8836
  346MOL0     H46685   5.389   6.658   8.312 -3.0444 -1.4511 -1.9458
  346MOL0     H46686   5.364   6.482   8.128  1.1970 -2.5499 -1.2471
  346MOL0     H46687   5.498   6.600   8.108  0.7003  2.2166  2.0452
  346MOL0     H46688   5.488   6.303   8.147 -1.0670  0.9813  3.2804
  346MOL0     H46689   5.637   6.389   8.206  0.8824 -2.0378 -0.3876
  346MOL0     H46690   5.677   6.468   7.984  1.5568 -1.8566  2.2532
  346MOL0     H46691   5.515   6.453   7.924  0.7131  1.6444  0.5204
  346MOL0     H46692   5.082   6.451   8.968 -1.2703 -0.4103  3.1851
  346MOL0     H46693   4.918   6.424   9.150 -1.1251  1.0582  0.7238
  346MOL0     H46694   4.440   6.230   9.220 -0.5931 -0.7631  0.7076
  346MOL0     H46695   4.288   6.200   9.398  1.9651  0.1861  4.0677
  346MOL0     H46696   3.507   6.552   7.847 -1.3225 -1.1961 -0.5165
  346MOL0     H46697   3.335   6.577   7.684  0.5866 -2.2295  1.6483
  346MOL0     H46698   3.044   6.889   7.484  0.4557  0.0264  0.6517
  346MOL0     H46699   2.881   6.944   7.323 -1.5498  0.3986  0.0494
  346MOL0     H46700   2.522   6.921   7.158  0.1328  0.9730  0.2605
  346MOL0     H46701   2.671   7.001   7.239  1.9532 -1.1884 -1.0301
  346MOL0     H46702   2.657   6.806   7.009  0.8202 -1.0077 -0.0745
  346MOL0     H46703   2.802   6.819   7.116  2.2903 -0.3494 -3.3029
  346MOL0     H46704   2.790   7.083   7.061  2.9663 -1.6886  2.2049
  346MOL0     H46705   2.666   7.031   6.938 -1.1199 -0.0706  1.7461
  346MOL0     H46706   2.883   7.044   6.828 -1.6551  3.0581  2.4186
  346MOL0     H46707   2.813   6.874   6.832 -0.5461  1.2693 -0.9810
  346MOL0     H46708   3.162   6.807   7.048 -0.8861  0.6382  4.0013
  346MOL0     H46709   2.639   6.611   7.451  0.7824 -1.3202 -4.0388
  346MOL0     H46710   2.780   6.556   7.593 -0.7928 -0.1508 -1.4121
  347MOL0     O46711   1.373  10.026   2.031 -0.0684 -0.4734 -0.2301
  347MOL0     C46712   1.381  10.003   1.908 -0.6473 -0.4949 -0.8953
  347MOL0     O46713   1.354   9.871   1.855  0.2322 -0.6902 -0.1493
  347MOL0     C46714   1.345   9.758   1.929 -1.0244 -0.3405 -0.0533
  347MOL0     C46715   1.392   9.744   2.056 -0.5393 -0.1095 -1.4604
  347MOL0     C46716   1.371   9.621   2.125 -0.2422  0.0308  0.9777
  347MOL0     C46717   1.296   9.523   2.072 -0.0015  0.7461  0.2669
  347MOL0     O46718   1.289   9.417   2.156 -0.4841  0.0648  0.0356
  347MOL0     C46719   1.259   9.284   2.094  0.1045  0.6270  0.2598
  347MOL0     C46720   1.294   9.167   2.187 -0.9381  0.0240 -0.3228
  347MOL0     C46721   1.422   9.195   2.260 -0.0576  0.8995 -0.1696
  347MOL0     C46722   1.540   9.201   2.173  0.2360 -0.0820  0.0827
  347MOL0     C46723   1.669   9.146   2.240  0.2231  0.3660 -0.1995
  347MOL0     C46724   1.660   8.991   2.256  0.3315 -0.8829  0.0020
  347MOL0     C46725   1.639   8.939   2.407 -2.0564 -0.3412  0.1011
  347MOL0     C46726   1.622   8.792   2.419 -0.8593  0.3709  0.2770
  347MOL0     N46727   1.501   8.762   2.349  0.5343 -0.4797  0.9131
  347MOL0     C46728   1.491   8.678   2.235 -0.5353  0.2041  0.0595
  347MOL0     C46729   1.364   8.675   2.210  0.6983 -0.1225 -0.0206
  347MOL0     C46730   1.295   8.600   2.101 -0.1326  0.1910 -0.0641
  347MOL0     C46731   1.291   8.682   1.966 -0.8544 -0.2285  0.0834
  347MOL0     C46732   1.181   8.789   1.974 -0.5247 -0.3363 -0.6049
  347MOL0     C46733   1.120   8.849   1.841 -0.7077 -0.6177  0.0957
  347MOL0     O46734   1.222   8.918   1.757 -0.1033  0.2927  0.4534
  347MOL0     C46735   1.281   8.864   1.637  0.2822 -0.4068 -0.2877
  347MOL0     C46736   1.370   8.955   1.568  1.1240  1.0008  0.1676
  347MOL0     C46737   1.434   8.920   1.451  0.5877  0.1013  0.3146
  347MOL0     C46738   1.510   9.019   1.362  0.3562  0.4540 -0.3857
  347MOL0     C46739   1.423   8.782   1.393  0.6716 -0.4632  0.2573
  347MOL0     C46740   1.470   8.721   1.272 -0.5836  0.5054 -0.4935
  347MOL0     O46741   1.398   8.610   1.217 -0.8343  0.0937  0.4277
  347MOL0     C46742   1.442   8.567   1.093  0.9280 -0.2264  0.3524
  347MOL0     C46743   1.549   8.479   1.099 -0.4303 -0.8836 -0.1427
  347MOL0     C46744   1.586   8.405   0.984 -0.1586 -0.7556  0.0763
  347MOL0     C46745   1.518   8.435   0.863 -0.8319 -0.9149  0.3344
  347MOL0     O46746   1.554   8.376   0.743  0.4492  0.2303 -0.1557
  347MOL0     C46747   1.451   8.292   0.680 -0.4707  0.1789 -0.3654
  347MOL0     C46748   1.515   8.204   0.577 -0.0662 -0.3453  0.4970
  347MOL0     C46749   1.600   8.096   0.647  0.0457 -0.3481  0.5687
  347MOL0     C46750   1.704   8.021   0.547  1.4264 -0.2257  0.3281
  347MOL0     C46751   1.777   7.912   0.625 -0.8606 -0.7842  0.0749
  347MOL0     C46752   1.820   7.797   0.525  0.6470  0.2060 -1.2384
  347MOL0     C46753   1.914   7.693   0.585 -0.1517  0.2469  0.1781
  347MOL0     C46754   2.040   7.745   0.626 -0.6148 -0.1575  0.2740
  347MOL0    Cl46755   2.132   7.602   0.670 -0.3810  0.5340  0.0466
  347MOL0     C46756   1.413   8.531   0.856  0.4511  0.6885 -0.3881
  347MOL0     C46757   1.365   8.594   0.978 -0.6143 -0.0043 -0.7423
  347MOL0     O46758   1.574   8.761   1.220 -0.0489 -0.9237 -0.4964
  347MOL0     C46759   1.338   8.699   1.474  0.1839 -0.5280 -1.1236
  347MOL0     C46760   1.261   8.741   1.587 -0.0200  0.6877  0.6169
  347MOL0     N46761   1.297   8.769   2.285 -1.3553  0.1898 -0.2855
  347MOL0     N46762   1.384   8.810   2.380  0.2020 -0.1161  0.4048
  347MOL0     C46763   1.229   9.538   1.957  0.3564 -0.0359  0.7792
  347MOL0     C46764   1.272   9.644   1.872 -0.4587  0.0838 -0.4370
  347MOL0     C46765   1.458  10.105   1.832  0.2840 -0.3356 -0.7267
  347MOL0     C46766   1.473  10.095   1.696  0.1689  0.2802 -0.0227
  347MOL0     C46767   1.539  10.195   1.630  0.0522  0.3479  0.2043
  347MOL0     C46768   1.594  10.310   1.697 -0.2819  0.8683  0.7074
  347MOL0     O46769   1.660  10.391   1.611  0.4330 -0.4828  0.2816
  347MOL0     C46770   1.743  10.488   1.669  0.2074  0.0396  0.7911
  347MOL0     C46771   1.843  10.540   1.561  0.6727 -0.3044  0.6876
  347MOL0     C46772   1.951  10.430   1.528  0.0353  0.1463  0.6900
  347MOL0     C46773   2.037  10.449   1.406  0.5436  0.1181 -0.5748
  347MOL0     C46774   1.955  10.439   1.281  0.7788 -0.1664  0.8240
  347MOL0     C46775   1.876  10.417   1.190  0.4465 -0.1825 -0.3402
  347MOL0     C46776   1.590  10.320   1.835  0.9702  0.2993 -0.3762
  347MOL0     C46777   1.520  10.213   1.900 -0.3390 -0.9802 -0.7867
  347MOL0     H46778   1.462   9.819   2.091 -0.8400 -0.7118  0.5726
  347MOL0     H46779   1.423   9.592   2.215  0.9041 -1.9400 -0.2362
  347MOL0     H46780   1.151   9.297   2.084 -0.2252  1.6897  3.8648
  347MOL0     H46781   1.306   9.265   1.996  0.3197  0.0857  0.4637
  347MOL0     H46782   1.215   9.160   2.262 -0.6748  2.8527  0.3480
  347MOL0     H46783   1.294   9.067   2.143 -2.5389 -2.2938  4.2852
  347MOL0     H46784   1.418   9.294   2.306 -1.8835  1.3150 -1.1005
  347MOL0     H46785   1.446   9.113   2.328  0.2570  0.7409 -0.4678
  347MOL0     H46786   1.517   9.155   2.076 -2.8657 -1.6623  1.4057
  347MOL0     H46787   1.551   9.306   2.144  2.4694 -0.8987 -2.4139
  347MOL0     H46788   1.756   9.161   2.176  0.6804 -3.1055 -0.5572
  347MOL0     H46789   1.685   9.193   2.337 -2.4372 -0.3233  0.6613
  347MOL0     H46790   1.583   8.950   2.190  0.9002 -1.9939  0.0041
  347MOL0     H46791   1.752   8.953   2.209 -0.8005 -1.0798 -2.1517
  347MOL0     H46792   1.738   8.963   2.445 -0.6417 -1.1640 -2.7648
  347MOL0     H46793   1.558   8.994   2.456  0.0558  2.1283  1.1022
  347MOL0     H46794   1.605   8.776   2.526  1.1680 -3.6040  0.1759
  347MOL0     H46795   1.705   8.741   2.369 -3.4145  0.3179 -4.5356
  347MOL0     H46796   1.574   8.636   2.178  0.5609  1.7224  0.4721
  347MOL0     H46797   1.336   8.499   2.095 -1.8892 -0.5464 -0.5763
  347MOL0     H46798   1.192   8.576   2.130  0.3696 -2.9198 -0.4432
  347MOL0     H46799   1.257   8.623   1.881 -0.2356  0.8493 -0.9279
  347MOL0     H46800   1.390   8.726   1.950  1.2229 -2.3242  5.0144
  347MOL0     H46801   1.217   8.873   2.034 -2.4740  0.9762 -1.1749
  347MOL0     H46802   1.101   8.751   2.037 -0.6401  1.2098  0.2116
  347MOL0     H46803   1.053   8.934   1.854 -0.3506  0.5077 -4.1241
  347MOL0     H46804   1.079   8.764   1.787 -0.4769 -0.6054 -0.0995
  347MOL0     H46805   1.386   9.053   1.612 -2.9863  2.5251 -1.2819
  347MOL0     H46806   1.467   9.004   1.262  0.5240 -2.1463 -0.1265
  347MOL0     H46807   1.489   9.121   1.395 -1.9228  0.1650 -0.7424
  347MOL0     H46808   1.617   8.998   1.361  0.2352 -0.9067  2.8801
  347MOL0     H46809   1.610   8.478   1.189  0.1632  0.4328 -0.5023
  347MOL0     H46810   1.677   8.345   0.981  1.9800  2.2155  0.3938
  347MOL0     H46811   1.399   8.231   0.754  0.7536  0.3814  0.6862
  347MOL0     H46812   1.361   8.345   0.647 -1.8048 -0.3821  2.1397
  347MOL0     H46813   1.441   8.161   0.509  1.0632  0.5126 -1.3429
  347MOL0     H46814   1.596   8.261   0.529  3.6171 -3.3883  2.5503
  347MOL0     H46815   1.529   8.025   0.690 -0.5151 -1.2475 -1.7050
  347MOL0     H46816   1.654   8.134   0.735  0.3694 -1.4665  0.8672
  347MOL0     H46817   1.644   7.984   0.464  0.7452  3.0310 -0.7723
  347MOL0     H46818   1.780   8.089   0.508 -0.4810  0.8005 -1.8748
  347MOL0     H46819   1.723   7.867   0.709  0.4680 -1.0921  0.7938
  347MOL0     H46820   1.862   7.956   0.678 -1.9644 -0.5464  1.7273
  347MOL0     H46821   1.724   7.750   0.502  0.0945  0.3392  0.6589
  347MOL0     H46822   1.860   7.840   0.433 -0.4218 -2.5379 -3.1244
  347MOL0     H46823   1.920   7.623   0.502  3.4045  0.0636  0.4349
  347MOL0     H46824   1.863   7.652   0.672 -2.4275  0.8329 -0.8265
  347MOL0     H46825   2.041   7.812   0.713  4.7654 -0.4404  0.8038
  347MOL0     H46826   2.098   7.791   0.546 -0.7300 -1.2419 -0.4566
  347MOL0     H46827   1.363   8.551   0.762 -0.4024  0.2981 -0.0342
  347MOL0     H46828   1.290   8.672   0.982  1.6307  2.2531  0.4582
  347MOL0     H46829   1.321   8.597   1.441  0.3209 -0.7771 -0.4380
  347MOL0     H46830   1.205   8.667   1.643  0.4999  0.7985  1.2999
  347MOL0     H46831   1.157   9.473   1.910 -0.2691  0.5903  0.8543
  347MOL0     H46832   1.214   9.660   1.782  1.2348  0.7647 -1.4488
  347MOL0     H46833   1.430  10.011   1.643 -0.7520 -1.0384  2.6450
  347MOL0     H46834   1.541  10.198   1.522  0.0145  1.6289  0.2202
  347MOL0     H46835   1.695  10.573   1.718  0.1837  1.0732 -0.9335
  347MOL0     H46836   1.793  10.429   1.746 -0.0641 -0.7159  0.3955
  347MOL0     H46837   1.886  10.625   1.615 -0.6439  3.1418 -3.1769
  347MOL0     H46838   1.796  10.570   1.467 -0.8588  0.4685  1.6656
  347MOL0     H46839   1.896  10.337   1.509 -0.0522  0.4520 -0.6445
  347MOL0     H46840   2.014  10.434   1.617 -1.2272 -0.5034  1.6413
  347MOL0     H46841   2.120  10.378   1.395  0.1985 -0.1466 -1.5937
  347MOL0     H46842   2.082  10.549   1.412 -1.1352  1.0658 -2.4434
  347MOL0     H46843   1.815  10.389   1.107  1.3666 -1.3842 -0.6472
  347MOL0     H46844   1.630  10.404   1.891  2.2302 -0.6670  0.2185
  347MOL0     H46845   1.507  10.217   2.008  1.3572 -0.1119 -0.5681
  348MOL0     O46846   0.871  10.984   0.799 -0.1073 -0.0970 -0.2584
  348MOL0     C46847   0.806  11.084   0.765 -0.0482 -0.9333  0.0511
  348MOL0     O46848   0.710  11.089   0.680 -0.9747  0.2553  0.3776
  348MOL0     C46849   0.658  10.976   0.624  0.3863 -0.7108  0.1346
  348MOL0     C46850   0.595  10.999   0.493  0.3041 -0.0557 -0.7245
  348MOL0     C46851   0.516  10.905   0.430 -0.4515  0.5760 -0.6702
  348MOL0     C46852   0.495  10.778   0.488 -0.6093 -0.0476 -0.1003
  348MOL0     O46853   0.403  10.697   0.416 -0.3818 -0.4982 -0.3657
  348MOL0     C46854   0.432  10.553   0.413  1.1244 -0.0058 -0.4249
  348MOL0     C46855   0.573  10.526   0.357 -0.5113 -0.6094  0.2950
  348MOL0     C46856   0.580  10.382   0.305  0.4949 -0.0064 -0.6303
  348MOL0     C46857   0.655  10.370   0.175 -0.7785  0.1865  0.1919
  348MOL0     C46858   0.797  10.420   0.187  1.0744  0.7764  0.8720
  348MOL0     C46859   0.873  10.375   0.063  0.3638  0.5937 -0.3205
  348MOL0     C46860   1.002  10.455   0.070  0.1466  0.8418 -0.2160
  348MOL0     C46861   1.085  10.442  -0.054  0.1052  0.0905  0.4583
  348MOL0     N46862   1.018  10.490  -0.173 -0.2989 -0.6164 -1.2558
  348MOL0     C46863   1.025  10.613  -0.230  0.4135 -0.2684  0.6446
  348MOL0     C46864   0.959  10.611  -0.337  0.5811 -1.0192  0.5744
  348MOL0     C46865   0.948  10.724  -0.441 -0.6291  0.4738 -0.0831
  348MOL0     C46866   0.847  10.686  -0.554  0.0592 -0.3148  0.5403
  348MOL0     C46867   0.696  10.703  -0.529 -0.0917  0.3407 -0.6800
  348MOL0     C46868   0.620  10.655  -0.642  0.6006 -0.3260 -0.1322
  348MOL0     O46869   0.479  10.654  -0.600  0.0043  0.2507  0.3246
  348MOL0     C46870   0.379  10.652  -0.689  0.3285  0.6275  1.0922
  348MOL0     C46871   0.391  10.617  -0.830 -0.5686 -0.0105 -0.2657
  348MOL0     C46872   0.283  10.585  -0.906  0.6902  0.5037  0.1941
  348MOL0     C46873   0.306  10.576  -1.060  0.9942 -0.4203 -0.8903
  348MOL0     C46874   0.153  10.575  -0.840  0.3480  0.8646 -1.1139
  348MOL0     C46875   0.026  10.541  -0.902 -0.9991  0.3581 -0.7564
  348MOL0     O46876  -0.084  10.554  -0.825 -1.1607 -0.6076 -0.2225
  348MOL0     C46877  -0.205  10.497  -0.876 -0.9011  0.0085  0.0575
  348MOL0     C46878  -0.206  10.381  -0.944  0.4699 -0.2313  0.7202
  348MOL0     C46879  -0.322  10.318  -0.969  0.2650  0.1558 -0.8288
  348MOL0     C46880  -0.450  10.368  -0.930  0.3778  0.6671  1.3431
  348MOL0     O46881  -0.575  10.322  -0.961 -0.0515  0.5484  0.0201
  348MOL0     C46882  -0.582  10.198  -1.045 -0.8556  0.1967  0.4308
  348MOL0     C46883  -0.726  10.161  -1.085 -0.3266  0.0228  0.4334
  348MOL0     C46884  -0.761  10.029  -1.151 -0.7932  0.6294 -0.5767
  348MOL0     C46885  -0.717  10.028  -1.303  0.3727 -0.4266  0.3272
  348MOL0     C46886  -0.725   9.884  -1.362 -0.2272  0.3833 -0.4155
  348MOL0     C46887  -0.845   9.801  -1.341 -0.8154  0.0039  0.5230
  348MOL0     C46888  -0.978   9.843  -1.402  0.2713  0.5993  0.3648
  348MOL0     C46889  -1.102   9.771  -1.364  0.5495  0.1048  1.0173
  348MOL0    Cl46890  -1.124   9.797  -1.194  0.1374 -0.2463  0.3925
  348MOL0     C46891  -0.452  10.482  -0.858 -0.7762 -0.7558 -0.7485
  348MOL0     C46892  -0.325  10.551  -0.830  0.2427  0.3042  0.0735
  348MOL0     O46893   0.029  10.523  -1.022  0.0870 -0.4430  1.0782
  348MOL0     C46894   0.138  10.611  -0.709 -1.3351  0.0678  0.0334
  348MOL0     C46895   0.253  10.649  -0.640 -0.6317 -0.4235 -0.1090
  348MOL0     N46896   0.891  10.488  -0.346  0.1291  0.0978  0.4583
  348MOL0     N46897   0.938  10.414  -0.253  0.0387  0.0960  0.8614
  348MOL0     C46898   0.548  10.749   0.615 -0.4390  0.9585 -0.0363
  348MOL0     C46899   0.635  10.843   0.677  0.1589  0.5818  0.0715
  348MOL0     C46900   0.850  11.218   0.810 -0.7324  0.4231  0.4862
  348MOL0     C46901   0.983  11.242   0.859  0.0255  0.3746  0.5041
  348MOL0     C46902   1.024  11.369   0.902 -0.0377 -1.0359  0.1082
  348MOL0     C46903   0.944  11.485   0.875 -0.5855  0.5779 -0.4466
  348MOL0     O46904   0.987  11.604   0.917 -0.0226 -0.3430 -0.1463
  348MOL0     C46905   0.898  11.724   0.911 -0.9241  0.0075  0.5113
  348MOL0     C46906   0.974  11.836   0.982  0.1198  0.0005  1.3961
  348MOL0     C46907   0.876  11.953   0.993 -1.1922  0.8445  0.2114
  348MOL0     C46908   0.957  12.067   1.041 -0.6953 -0.4550 -0.2312
  348MOL0     C46909   0.889  12.192   1.079  0.0868  0.6186  0.6459
  348MOL0     C46910   0.818  12.285   1.095  0.3072 -0.6068  0.9028
  348MOL0     C46911   0.812  11.459   0.826 -0.5705  0.1554  0.6241
  348MOL0     C46912   0.772  11.329   0.791 -0.1739  0.3159  0.5224
  348MOL0     H46913   0.607  11.102   0.460  0.6543  0.6735  1.4687
  348MOL0     H46914   0.470  10.925   0.334  1.9308  0.2977 -1.9500
  348MOL0     H46915   0.409  10.508   0.510  5.7992 -3.6001 -0.6156
  348MOL0     H46916   0.361  10.513   0.340  2.2690  0.7413 -2.0231
  348MOL0     H46917   0.587  10.599   0.277 -0.3782  0.5738  1.3644
  348MOL0     H46918   0.649  10.538   0.434 -1.9617 -2.8796  2.2222
  348MOL0     H46919   0.648  10.325   0.369  2.1546  1.1484 -1.2959
  348MOL0     H46920   0.481  10.335   0.300  1.4123 -2.0710 -0.4978
  348MOL0     H46921   0.666  10.262   0.161  1.8606 -0.0974  3.2433
  348MOL0     H46922   0.594  10.403   0.091  1.7920 -1.1550 -2.3614
  348MOL0     H46923   0.779  10.527   0.183 -2.5798  0.2981 -4.4162
  348MOL0     H46924   0.837  10.375   0.279 -0.4336 -2.2050  0.1960
  348MOL0     H46925   0.896  10.268   0.067 -3.0052 -0.3102 -1.8792
  348MOL0     H46926   0.810  10.399  -0.023  1.4473  1.8409 -0.7962
  348MOL0     H46927   0.979  10.562   0.079 -0.4179  0.7008  0.1001
  348MOL0     H46928   1.071  10.424   0.149  2.6212  2.2754 -1.6974
  348MOL0     H46929   1.095  10.334  -0.065 -2.3128 -0.0046 -2.0218
  348MOL0     H46930   1.170  10.510  -0.060 -0.9410  1.3323 -3.8750
  348MOL0     H46931   1.090  10.694  -0.197  0.6610  0.1797 -0.8852
  348MOL0     H46932   0.913  10.812  -0.386  1.5486 -0.5184  3.1746
  348MOL0     H46933   1.047  10.736  -0.485 -0.6756 -0.6916 -0.5286
  348MOL0     H46934   0.871  10.588  -0.595 -0.6763  0.7123 -2.6854
  348MOL0     H46935   0.873  10.759  -0.632  2.1751 -0.4617  1.0415
  348MOL0     H46936   0.668  10.807  -0.513 -1.6154 -0.2396  0.6696
  348MOL0     H46937   0.668  10.647  -0.439  3.9717 -2.2386 -0.7546
  348MOL0     H46938   0.649  10.556  -0.679 -2.2794 -0.4643 -2.3245
  348MOL0     H46939   0.635  10.736  -0.714 -1.2612  1.1810  1.0706
  348MOL0     H46940   0.485  10.632  -0.882  0.8634  2.3046  2.7171
  348MOL0     H46941   0.413  10.586  -1.079  1.1569 -0.9742 -0.3195
  348MOL0     H46942   0.261  10.485  -1.100 -0.9961  1.1787 -2.4793
  348MOL0     H46943   0.254  10.661  -1.104  0.4199 -1.0009 -1.3566
  348MOL0     H46944  -0.119  10.327  -0.981 -0.7477 -1.1043 -0.9940
  348MOL0     H46945  -0.324  10.218  -1.011  1.0859 -0.6240  0.8774
  348MOL0     H46946  -0.517  10.197  -1.133 -3.5728 -2.5589 -1.7729
  348MOL0     H46947  -0.560  10.115  -0.977 -1.2796 -1.3508 -1.2397
  348MOL0     H46948  -0.782  10.172  -0.992  0.7361  1.0051  0.9812
  348MOL0     H46949  -0.765  10.241  -1.148  1.1619  0.5300  0.1129
  348MOL0     H46950  -0.869  10.011  -1.146 -0.3397 -2.1867  0.3720
  348MOL0     H46951  -0.708   9.953  -1.094 -2.5133 -0.1755  0.0234
  348MOL0     H46952  -0.793  10.090  -1.351  0.1444 -0.1743  1.0040
  348MOL0     H46953  -0.618  10.073  -1.314  0.3500  0.2947  2.5196
  348MOL0     H46954  -0.649   9.831  -1.304 -0.8882  2.9014  2.9950
  348MOL0     H46955  -0.693   9.880  -1.467  2.7664 -0.5214  0.4166
  348MOL0     H46956  -0.822   9.700  -1.376  0.5597  1.0945 -2.0391
  348MOL0     H46957  -0.881   9.791  -1.239 -3.9598  0.3730 -0.4296
  348MOL0     H46958  -0.974   9.834  -1.511 -0.5279 -1.7566  0.4611
  348MOL0     H46959  -0.996   9.950  -1.388 -4.0958  0.1166 -0.3484
  348MOL0     H46960  -1.085   9.667  -1.392  1.5486  0.8314 -1.3164
  348MOL0     H46961  -1.186   9.806  -1.424  1.4954 -0.4645 -0.7039
  348MOL0     H46962  -0.544  10.535  -0.835  1.5107  3.5126 -0.2517
  348MOL0     H46963  -0.313  10.639  -0.767 -1.4807  0.8087 -0.2425
  348MOL0     H46964   0.041  10.633  -0.664 -1.5666 -0.6152 -0.1054
  348MOL0     H46965   0.241  10.677  -0.536 -2.3942 -2.0737  0.2029
  348MOL0     H46966   0.525  10.649   0.649 -1.0615  1.5612  1.3910
  348MOL0     H46967   0.687  10.817   0.768  0.6530  1.6130  0.1016
  348MOL0     H46968   1.041  11.150   0.860 -1.5727 -0.7304 -1.3794
  348MOL0     H46969   1.111  11.389   0.963 -1.5707 -0.0894  2.0951
  348MOL0     H46970   0.891  11.734   0.802  0.8777  0.4684  0.3952
  348MOL0     H46971   0.800  11.701   0.954 -1.9704  0.8294 -1.3156
  348MOL0     H46972   1.068  11.865   0.935 -0.7256  1.8644  0.7478
  348MOL0     H46973   0.995  11.810   1.087 -2.4698  3.4487  2.9751
  348MOL0     H46974   0.783  11.923   1.043 -0.7852 -3.4367 -1.1991
  348MOL0     H46975   0.835  11.974   0.894 -1.7834 -0.3955  0.1723
  348MOL0     H46976   1.022  12.099   0.958 -0.1094  3.5897  1.5335
  348MOL0     H46977   1.018  12.032   1.125  1.1703  3.5330  0.3180
  348MOL0     H46978   0.766  12.373   1.128  1.6167  0.8653 -0.7085
  348MOL0     H46979   0.734  11.533   0.811 -2.6642 -1.5250  2.5490
  348MOL0     H46980   0.673  11.332   0.747 -0.0834  2.9212  0.3110
  349MOL0     O46981   1.289   8.210   5.587 -0.7886  0.1107 -0.1923
  349MOL0     C46982   1.385   8.130   5.573 -0.2052 -0.5106  0.2705
  349MOL0     O46983   1.494   8.134   5.653  0.3035  0.5128  0.1159
  349MOL0     C46984   1.480   8.169   5.786 -0.1904 -0.8148  0.4844
  349MOL0     C46985   1.577   8.255   5.829  0.4933 -0.2054  0.6174
  349MOL0     C46986   1.574   8.302   5.958 -0.0013  0.8495 -0.1503
  349MOL0     C46987   1.486   8.237   6.049 -0.2949 -0.0856  1.1729
  349MOL0     O46988   1.470   8.275   6.178 -0.6319 -0.7732  0.3758
  349MOL0     C46989   1.593   8.275   6.256  1.1965 -0.5149  0.1621
  349MOL0     C46990   1.569   8.349   6.387 -0.4039  0.0594  0.4891
  349MOL0     C46991   1.683   8.314   6.492  1.1072  0.0939 -0.2035
  349MOL0     C46992   1.825   8.341   6.445  0.5114 -0.2419 -0.6334
  349MOL0     C46993   1.921   8.339   6.559  0.0079  0.6170 -0.6950
  349MOL0     C46994   2.069   8.345   6.509  0.1608 -0.0231  0.1934
  349MOL0     C46995   2.151   8.211   6.473  0.0233 -1.2376 -0.0882
  349MOL0     C46996   2.170   8.130   6.597 -0.3137  0.6816  1.4324
  349MOL0     N46997   2.297   8.056   6.580 -0.6935  1.3120  0.5897
  349MOL0     C46998   2.423   8.101   6.604  0.1688  0.0133 -0.3672
  349MOL0     C46999   2.510   8.007   6.566 -0.1948  1.0384 -0.1077
  349MOL0     C47000   2.657   8.012   6.591  0.5853  1.5790 -0.2379
  349MOL0     C47001   2.680   7.962   6.733  0.5405 -0.0851  0.2820
  349MOL0     C47002   2.751   7.836   6.741  0.8947 -0.3590  0.4878
  349MOL0     C47003   2.710   7.713   6.655  0.1350 -1.1258  0.5026
  349MOL0     O47004   2.750   7.588   6.716 -0.2376 -0.2531 -0.4105
  349MOL0     C47005   2.848   7.510   6.652 -0.2812  0.3682 -0.0965
  349MOL0     C47006   2.821   7.380   6.639 -0.3504  0.5451  0.0053
  349MOL0     C47007   2.905   7.291   6.582 -0.9192  0.7188 -0.1696
  349MOL0     C47008   2.867   7.143   6.566 -0.2094 -0.0133 -0.6200
  349MOL0     C47009   3.026   7.339   6.527 -0.8690 -0.1817  0.2269
  349MOL0     C47010   3.138   7.249   6.472 -0.5701  0.0862  0.4172
  349MOL0     O47011   3.215   7.308   6.382  0.8151 -0.1729 -0.8340
  349MOL0     C47012   3.325   7.259   6.304 -0.5874 -0.2080 -0.6156
  349MOL0     C47013   3.390   7.152   6.346  0.5314  0.7273  0.2612
  349MOL0     C47014   3.491   7.092   6.270  0.5734 -0.5678  0.0955
  349MOL0     C47015   3.518   7.141   6.138  0.2384  0.8623 -0.7568
  349MOL0     O47016   3.609   7.096   6.053 -0.8086  0.0966  0.7260
  349MOL0     C47017   3.650   6.957   6.076 -0.2678 -0.3387  0.8264
  349MOL0     C47018   3.531   6.864   6.056 -0.0678 -0.2909  0.3159
  349MOL0     C47019   3.463   6.882   5.910 -0.4672 -0.0999 -0.5790
  349MOL0     C47020   3.367   6.761   5.882  0.1431  0.3087 -0.8722
  349MOL0     C47021   3.274   6.793   5.765 -1.9152  0.8392  0.4821
  349MOL0     C47022   3.160   6.687   5.746 -1.3544 -0.1486 -0.2715
  349MOL0     C47023   3.060   6.676   5.859  0.5810 -0.4446 -0.6698
  349MOL0     C47024   2.963   6.568   5.819 -0.2501 -0.0943 -0.8877
  349MOL0    Cl47025   2.813   6.566   5.912  0.2579 -0.1669 -0.1064
  349MOL0     C47026   3.437   7.248   6.094  0.0695 -0.3209  0.2765
  349MOL0     C47027   3.341   7.304   6.174  0.5773 -0.8451  0.4578
  349MOL0     O47028   3.155   7.135   6.522 -0.7320 -0.2655  0.7613
  349MOL0     C47029   3.052   7.480   6.549 -0.2526  0.6118 -0.0292
  349MOL0     C47030   2.966   7.566   6.602  0.7619 -0.6256  1.2228
  349MOL0     N47031   2.435   7.899   6.532 -0.3834 -0.6072 -0.0769
  349MOL0     N47032   2.312   7.930   6.539  0.5004  0.3901  0.4697
  349MOL0     C47033   1.400   8.140   6.004 -0.4128  0.3714  0.6335
  349MOL0     C47034   1.395   8.109   5.873 -0.2563 -0.7145  0.0625
  349MOL0     C47035   1.384   8.043   5.454  0.2929 -0.1106 -0.1782
  349MOL0     C47036   1.498   7.960   5.432 -0.3435 -0.8549  0.0915
  349MOL0     C47037   1.499   7.881   5.316  0.0408 -0.0390  0.3651
  349MOL0     C47038   1.407   7.884   5.217  0.3489 -0.1073  0.9677
  349MOL0     O47039   1.422   7.808   5.107  0.4682 -0.8417  0.4793
  349MOL0     C47040   1.542   7.832   5.029  0.2162  0.4062 -1.1373
  349MOL0     C47041   1.532   7.801   4.878 -0.1688  0.6864 -0.3294
  349MOL0     C47042   1.402   7.848   4.820 -0.0814 -0.5702  0.6661
  349MOL0     C47043   1.413   7.822   4.669 -0.4627  0.2894  0.4749
  349MOL0     C47044   1.378   7.935   4.579  0.2877 -0.3666  0.1969
  349MOL0     C47045   1.345   8.040   4.518 -0.3768 -0.0721 -0.2761
  349MOL0     C47046   1.285   7.963   5.246  0.1561 -0.4806 -0.2820
  349MOL0     C47047   1.277   8.046   5.362 -0.0797  0.5443 -0.3769
  349MOL0     H47048   1.648   8.303   5.762  0.6893  1.7516  2.1432
  349MOL0     H47049   1.649   8.375   5.986  0.6320  1.1446 -2.4291
  349MOL0     H47050   1.614   8.174   6.294 -0.7930  0.5249  4.8197
  349MOL0     H47051   1.672   8.315   6.192  0.8507 -2.0203 -1.2844
  349MOL0     H47052   1.576   8.455   6.362  1.7975 -0.4700 -1.4383
  349MOL0     H47053   1.472   8.339   6.438 -0.1635 -2.3910  0.5803
  349MOL0     H47054   1.653   8.364   6.584  0.6023 -1.2206  0.3792
  349MOL0     H47055   1.671   8.207   6.515  4.2466 -0.3761 -0.3060
  349MOL0     H47056   1.849   8.272   6.364 -0.1608 -1.1145 -0.1108
  349MOL0     H47057   1.834   8.440   6.399 -2.2268  0.4753  0.1846
  349MOL0     H47058   1.890   8.428   6.615 -1.6365 -0.0586 -0.4650
  349MOL0     H47059   1.895   8.253   6.622  0.1536  2.0035  1.3572
  349MOL0     H47060   2.072   8.417   6.426 -0.0884  1.8049  1.6948
  349MOL0     H47061   2.129   8.400   6.583 -0.2921  2.5283 -1.2088
  349MOL0     H47062   2.096   8.149   6.401  0.7965 -0.9198 -0.9750
  349MOL0     H47063   2.248   8.237   6.428 -0.1069 -1.8186 -0.7323
  349MOL0     H47064   2.085   8.062   6.608  1.1091 -1.6017 -0.6048
  349MOL0     H47065   2.179   8.198   6.682  1.9182  1.0007  0.9916
  349MOL0     H47066   2.445   8.198   6.649 -1.2765  1.4342 -2.5274
  349MOL0     H47067   2.710   7.966   6.507  0.4744 -0.3986  0.7294
  349MOL0     H47068   2.697   8.114   6.592  3.3847  0.5533  0.5161
  349MOL0     H47069   2.585   7.965   6.787  0.4270  0.0422  0.0772
  349MOL0     H47070   2.747   8.025   6.792  2.1665 -2.3043  0.9444
  349MOL0     H47071   2.738   7.810   6.847 -1.0786  0.5448  0.5249
  349MOL0     H47072   2.856   7.856   6.720  0.0941  2.1027 -1.7158
  349MOL0     H47073   2.746   7.735   6.554  2.8509  1.8007  1.9566
  349MOL0     H47074   2.602   7.699   6.665 -0.1536  1.9239  3.1107
  349MOL0     H47075   2.722   7.344   6.666  0.7089 -2.7492 -0.0292
  349MOL0     H47076   2.941   7.081   6.618 -0.5798  2.7005  3.6297
  349MOL0     H47077   2.764   7.124   6.596  0.4089 -1.0178  1.0232
  349MOL0     H47078   2.866   7.107   6.463 -4.3785 -0.5848 -0.5432
  349MOL0     H47079   3.377   7.125   6.450 -1.7010  0.4962 -0.0283
  349MOL0     H47080   3.547   7.012   6.319  0.5245 -1.6580 -1.5513
  349MOL0     H47081   3.716   6.939   5.991 -1.5431  1.6183 -0.6781
  349MOL0     H47082   3.704   6.942   6.170 -1.1326 -0.2210  1.3479
  349MOL0     H47083   3.555   6.758   6.068 -2.0323 -0.9247 -0.8329
  349MOL0     H47084   3.460   6.890   6.135 -1.0452  0.1187 -0.6668
  349MOL0     H47085   3.537   6.910   5.835  2.5106  0.5525  2.3591
  349MOL0     H47086   3.402   6.972   5.914 -0.4631 -0.0928  3.9822
  349MOL0     H47087   3.433   6.676   5.866  0.7955  0.6390 -0.0363
  349MOL0     H47088   3.294   6.752   5.964 -0.0825  1.3560 -0.9507
  349MOL0     H47089   3.348   6.792   5.684  1.3591 -2.0438  3.1574
  349MOL0     H47090   3.230   6.892   5.780 -0.6561  1.1459  2.7099
  349MOL0     H47091   3.116   6.718   5.651  2.2022 -0.8311 -2.3230
  349MOL0     H47092   3.198   6.586   5.731 -0.1623  0.2702 -0.1537
  349MOL0     H47093   3.002   6.766   5.882 -1.0914 -0.5178 -4.0089
  349MOL0     H47094   3.109   6.665   5.956  1.2500  2.0474 -0.6725
  349MOL0     H47095   3.012   6.470   5.820  1.2627  0.6235  0.7725
  349MOL0     H47096   2.941   6.571   5.712 -3.5834 -1.7178 -0.3598
  349MOL0     H47097   3.444   7.283   5.991 -1.2548  0.2362  0.3580
  349MOL0     H47098   3.263   7.376   6.149 -1.9624 -3.9316 -1.1818
  349MOL0     H47099   3.148   7.518   6.515 -1.0726  1.4732 -1.5128
  349MOL0     H47100   2.991   7.671   6.600 -1.4152 -0.0580  0.0861
  349MOL0     H47101   1.329   8.096   6.072 -0.0498 -0.2873  0.6007
  349MOL0     H47102   1.331   8.027   5.843  2.4594 -3.3989  1.1228
  349MOL0     H47103   1.589   7.961   5.490 -1.3782 -1.8955  1.8115
  349MOL0     H47104   1.584   7.814   5.310  1.7826  1.8885  2.0791
  349MOL0     H47105   1.575   7.934   5.050 -1.8107  0.8083  0.4694
  349MOL0     H47106   1.615   7.757   5.063  0.4566 -0.2271 -2.9485
  349MOL0     H47107   1.546   7.692   4.874  3.2106  0.8877  1.8480
  349MOL0     H47108   1.620   7.833   4.821  0.4735  2.3206  1.4758
  349MOL0     H47109   1.392   7.956   4.836  0.4570 -0.5727  1.0563
  349MOL0     H47110   1.313   7.799   4.860 -0.4902  0.4122  0.9859
  349MOL0     H47111   1.345   7.739   4.651  0.5034 -0.1323 -1.4537
  349MOL0     H47112   1.509   7.787   4.630  0.3350  0.9663  1.7518
  349MOL0     H47113   1.317   8.132   4.471 -1.0236 -0.5031 -0.7527
  349MOL0     H47114   1.202   7.961   5.175  0.8001 -1.3011 -1.0316
  349MOL0     H47115   1.190   8.094   5.407  0.8169  1.1653  0.7642
  350MOL0     O47116   2.474   9.465   5.090  0.0100  0.4077 -0.3269
  350MOL0     C47117   2.507   9.346   5.090  0.7002  0.3880  0.5822
  350MOL0     O47118   2.423   9.236   5.054 -0.0732 -0.9284 -0.7605
  350MOL0     C47119   2.304   9.275   4.999  0.3830  0.7573 -0.6213
  350MOL0     C47120   2.281   9.213   4.870  1.0363 -0.0221 -0.3768
  350MOL0     C47121   2.160   9.251   4.801 -0.0284 -0.2291 -1.1221
  350MOL0     C47122   2.079   9.357   4.849  0.4009 -0.0270  0.1479
  350MOL0     O47123   1.952   9.382   4.792  0.1121 -0.2245 -0.1524
  350MOL0     C47124   1.939   9.376   4.648  0.5422 -0.5089  0.0188
  350MOL0     C47125   1.829   9.466   4.593 -0.4764  1.2514  0.8106
  350MOL0     C47126   1.851   9.608   4.626  0.1094 -0.1924  0.8307
  350MOL0     C47127   1.778   9.713   4.531  0.6242  0.4210 -0.2246
  350MOL0     C47128   1.785   9.852   4.578 -0.1309  0.0359  0.2908
  350MOL0     C47129   1.656   9.932   4.540 -1.2320  0.1473 -0.0254
  350MOL0     C47130   1.678  10.085   4.535 -0.1609  0.0946  0.1900
  350MOL0     C47131   1.672  10.124   4.386  0.1124  0.0464 -0.0315
  350MOL0     N47132   1.609  10.265   4.381 -0.6966 -0.1894  0.0632
  350MOL0     C47133   1.489  10.288   4.329  0.6100 -1.2890  0.7806
  350MOL0     C47134   1.497  10.426   4.307  0.1546  1.0743 -0.6442
  350MOL0     C47135   1.392  10.508   4.235  0.0721 -0.0025 -0.2228
  350MOL0     C47136   1.317  10.429   4.127  0.0706 -0.1407 -0.2843
  350MOL0     C47137   1.234  10.521   4.030  0.8814 -0.5402 -0.1124
  350MOL0     C47138   1.117  10.474   3.945 -0.2877  1.0247 -0.1785
  350MOL0     O47139   1.175  10.421   3.830  1.1815  0.0352  0.0615
  350MOL0     C47140   1.088  10.331   3.755  0.3649  0.0468 -0.2251
  350MOL0     C47141   1.157  10.231   3.680 -0.0209 -1.2275 -0.0796
  350MOL0     C47142   1.101  10.129   3.608  0.4843 -0.2851 -0.4290
  350MOL0     C47143   1.198  10.033   3.533  0.5342  0.0758  0.3598
  350MOL0     C47144   0.962  10.121   3.609  0.2616 -0.2146  0.0452
  350MOL0     C47145   0.880  10.030   3.523 -0.9496 -0.0069  0.5404
  350MOL0     O47146   0.942   9.936   3.442 -0.3774  0.1803  0.3558
  350MOL0     C47147   0.879   9.845   3.355  0.2961  0.8126 -0.2015
  350MOL0     C47148   0.958   9.794   3.256  0.4950 -0.9159 -0.7326
  350MOL0     C47149   0.912   9.707   3.154 -0.9598  0.5091 -0.2320
  350MOL0     C47150   0.778   9.671   3.146  0.1469 -0.7050 -0.6455
  350MOL0     O47151   0.721   9.578   3.061 -0.4129 -0.2749 -0.0697
  350MOL0     C47152   0.802   9.489   2.972 -0.4877  0.2588  0.2811
  350MOL0     C47153   0.711   9.402   2.892  0.3643 -0.7547  1.0178
  350MOL0     C47154   0.656   9.467   2.758  0.0780 -0.2178  0.3138
  350MOL0     C47155   0.516   9.439   2.720 -0.0088  0.1578  0.2545
  350MOL0     C47156   0.475   9.484   2.581  0.2472 -0.8651 -1.2093
  350MOL0     C47157   0.331   9.461   2.576  0.4396  0.6606  0.1594
  350MOL0     C47158   0.281   9.476   2.427  0.5670  0.0526  0.3201
  350MOL0     C47159   0.142   9.463   2.399  1.7063 -0.2286  0.1069
  350MOL0    Cl47160   0.100   9.509   2.227  0.0415 -0.1998  0.2311
  350MOL0     C47161   0.691   9.727   3.236 -0.5565 -0.7478  0.2349
  350MOL0     C47162   0.743   9.803   3.342  0.3503  0.4419 -0.4529
  350MOL0     O47163   0.757  10.037   3.542 -0.1181  0.2199 -0.1089
  350MOL0     C47164   0.889  10.216   3.687 -0.4069 -0.1759  0.1232
  350MOL0     C47165   0.944  10.322   3.762 -0.1166 -0.1631  0.1660
  350MOL0     N47166   1.618  10.478   4.366  0.0327 -0.0867 -0.0540
  350MOL0     N47167   1.687  10.377   4.406  0.3894 -0.1025  0.6329
  350MOL0     C47168   2.106   9.393   4.979  0.6425  0.1373  0.2619
  350MOL0     C47169   2.208   9.354   5.056  0.4001 -0.7363  0.1154
  350MOL0     C47170   2.641   9.303   5.128  0.2981  0.2569  0.2907
  350MOL0     C47171   2.754   9.397   5.123  0.3673 -0.1086  0.1628
  350MOL0     C47172   2.882   9.355   5.150 -0.4032 -0.4291 -0.1473
  350MOL0     C47173   2.909   9.225   5.190 -0.7029  0.0635 -0.1467
  350MOL0     O47174   3.040   9.181   5.211  0.8240  0.1862  0.2938
  350MOL0     C47175   3.064   9.040   5.254  0.5343 -0.1856  0.8944
  350MOL0     C47176   3.215   9.023   5.289 -0.1349  0.4080 -0.1726
  350MOL0     C47177   3.266   8.885   5.328  0.6483  0.3420 -0.0252
  350MOL0     C47178   3.203   8.770   5.254  0.5315 -0.2772 -0.7631
  350MOL0     C47179   3.281   8.649   5.265  0.5087 -0.6085  0.3227
  350MOL0     C47180   3.350   8.555   5.258 -0.6676  0.3074  0.5293
  350MOL0     C47181   2.797   9.137   5.201  0.1080  0.2368 -0.3150
  350MOL0     C47182   2.667   9.172   5.174 -0.0034 -0.9245 -0.8458
  350MOL0     H47183   2.344   9.139   4.822  0.9788  1.1208 -2.3400
  350MOL0     H47184   2.133   9.205   4.706  4.2435  0.4836 -2.9336
  350MOL0     H47185   2.032   9.400   4.597 -0.2701  1.8649 -0.4409
  350MOL0     H47186   1.901   9.280   4.611  1.5726 -0.8089 -0.3097
  350MOL0     H47187   1.816   9.453   4.485 -3.5146  0.0871  1.2291
  350MOL0     H47188   1.731   9.439   4.633 -0.4942  3.5711  2.5369
  350MOL0     H47189   1.822   9.613   4.732 -0.5965 -2.1722  0.7672
  350MOL0     H47190   1.956   9.632   4.607 -0.4093 -0.0250 -2.5003
  350MOL0     H47191   1.801   9.694   4.426  0.2448 -1.5665  0.0112
  350MOL0     H47192   1.674   9.679   4.527  0.9591 -0.7505  0.5656
  350MOL0     H47193   1.797   9.875   4.684 -0.7650  0.9269  0.1797
  350MOL0     H47194   1.870   9.894   4.522  1.4938  1.0058  3.2591
  350MOL0     H47195   1.620   9.893   4.444 -0.2331 -0.9051  0.0127
  350MOL0     H47196   1.575   9.911   4.611 -0.6073 -3.3493 -0.2002
  350MOL0     H47197   1.605  10.146   4.589 -1.4429 -0.0777 -1.2547
  350MOL0     H47198   1.772  10.111   4.583 -0.8567  1.5702  0.8566
  350MOL0     H47199   1.607  10.062   4.323  0.3851 -0.5422  0.2593
  350MOL0     H47200   1.775  10.125   4.348 -0.9367  1.0896 -3.1827
  350MOL0     H47201   1.411  10.222   4.292 -1.1952  1.6776 -1.0771
  350MOL0     H47202   1.326  10.549   4.312  0.3379 -2.8035  1.6628
  350MOL0     H47203   1.453  10.590   4.197  1.1041 -0.6065  0.0794
  350MOL0     H47204   1.253  10.353   4.174 -0.6043  1.8473  2.2324
  350MOL0     H47205   1.399  10.380   4.074  0.9247 -1.2704  1.9410
  350MOL0     H47206   1.298  10.578   3.963 -0.6487  1.1363 -0.2190
  350MOL0     H47207   1.189  10.594   4.098  0.3076  3.5759 -4.4426
  350MOL0     H47208   1.051  10.552   3.907 -1.7962 -0.8021 -1.4845
  350MOL0     H47209   1.060  10.399   4.001  0.2165  0.8925  0.1634
  350MOL0     H47210   1.265  10.237   3.683  0.0746 -1.5091 -1.7832
  350MOL0     H47211   1.298  10.030   3.577  1.4873  0.4964 -1.6682
  350MOL0     H47212   1.162   9.930   3.535  1.7948 -0.4038 -0.6162
  350MOL0     H47213   1.222  10.064   3.431 -1.3786 -0.5470 -0.3295
  350MOL0     H47214   1.065   9.813   3.260  0.9549 -3.4657  2.1080
  350MOL0     H47215   0.984   9.690   3.075 -1.0314  0.2854 -0.2491
  350MOL0     H47216   0.859   9.552   2.902  1.0579  0.9037  2.0277
  350MOL0     H47217   0.877   9.430   3.026 -1.3579 -1.2150 -0.0679
  350MOL0     H47218   0.761   9.311   2.859 -0.4488  0.0391 -2.9462
  350MOL0     H47219   0.626   9.387   2.959 -3.0800 -0.4109 -2.8449
  350MOL0     H47220   0.721   9.430   2.679 -0.8029 -1.7168  0.2639
  350MOL0     H47221   0.666   9.576   2.768 -0.9182 -0.2212  1.8226
  350MOL0     H47222   0.506   9.331   2.707 -2.7500  0.4842 -1.0865
  350MOL0     H47223   0.446   9.478   2.794 -1.6541 -0.7808 -0.7429
  350MOL0     H47224   0.520   9.419   2.505  0.3099  0.2689 -2.1834
  350MOL0     H47225   0.484   9.593   2.575  0.4675 -0.8810 -1.1676
  350MOL0     H47226   0.307   9.358   2.601  1.6057  0.2102 -0.5322
  350MOL0     H47227   0.293   9.535   2.647  3.1117  3.6979 -1.3208
  350MOL0     H47228   0.335   9.406   2.363 -1.0393 -0.9287  0.0003
  350MOL0     H47229   0.323   9.566   2.380  1.9344 -1.4000 -1.3931
  350MOL0     H47230   0.076   9.522   2.464  2.9464  0.9599  0.3359
  350MOL0     H47231   0.118   9.358   2.416 -0.3370  0.3113  0.9154
  350MOL0     H47232   0.584   9.709   3.231 -0.6759  0.2729 -2.0363
  350MOL0     H47233   0.679   9.844   3.420  1.8631  2.9924 -0.4365
  350MOL0     H47234   0.781  10.209   3.693 -0.2353 -2.6086  2.5220
  350MOL0     H47235   0.894  10.405   3.810  3.9351  2.7035 -0.0938
  350MOL0     H47236   2.043   9.470   5.021  0.5175 -0.5263  1.3453
  350MOL0     H47237   2.233   9.390   5.155 -0.2934  2.2902 -0.7203
  350MOL0     H47238   2.742   9.503   5.104 -1.5412 -0.2003  0.6234
  350MOL0     H47239   2.974   9.412   5.144  1.1895 -2.8913 -0.5086
  350MOL0     H47240   3.000   9.010   5.338 -0.4123  1.7426  0.9121
  350MOL0     H47241   3.046   8.980   5.164  1.5724  0.4015  0.2860
  350MOL0     H47242   3.231   9.092   5.372 -2.1606  0.5204  0.1783
  350MOL0     H47243   3.277   9.074   5.214 -1.0908 -1.1930 -2.1690
  350MOL0     H47244   3.242   8.876   5.434 -0.8260  1.5832 -0.2120
  350MOL0     H47245   3.374   8.886   5.338  0.8562 -1.1504 -1.6789
  350MOL0     H47246   3.189   8.777   5.146  1.8128  0.2496 -0.9172
  350MOL0     H47247   3.102   8.747   5.289  0.3337 -0.4899 -1.4571
  350MOL0     H47248   3.410   8.466   5.252 -0.9051  0.0989  1.1706
  350MOL0     H47249   2.815   9.033   5.225 -0.7911 -0.2136 -1.5475
  350MOL0     H47250   2.595   9.091   5.185 -0.6198 -0.1361  1.6115
  351MOL0     O47251   1.551  10.365   7.848  0.7095 -0.6422 -0.0058
  351MOL0     C47252   1.478  10.287   7.921  0.3253  0.7169  0.3324
  351MOL0     O47253   1.457  10.301   8.054 -0.3844  0.4184  0.2198
  351MOL0     C47254   1.515  10.411   8.108 -0.2656  1.1568 -0.2066
  351MOL0     C47255   1.439  10.519   8.162 -0.0096  0.4749  0.1850
  351MOL0     C47256   1.502  10.631   8.211  0.0633  0.1846 -1.1787
  351MOL0     C47257   1.639  10.638   8.223  0.1788 -0.5477 -0.6023
  351MOL0     O47258   1.690  10.755   8.273 -0.2224 -0.0718 -0.2065
  351MOL0     C47259   1.798  10.742   8.372  0.3377  0.4965  1.1631
  351MOL0     C47260   1.766  10.835   8.487  0.8323 -0.3429 -0.5078
  351MOL0     C47261   1.860  10.820   8.605 -0.5299  0.5304 -0.0174
  351MOL0     C47262   1.849  10.947   8.702 -1.2101  0.6107  0.2121
  351MOL0     C47263   1.713  10.966   8.767  1.1465 -0.0042  0.3330
  351MOL0     C47264   1.653  10.850   8.854  0.0875 -0.0878 -0.0699
  351MOL0     C47265   1.746  10.829   8.972  0.4877 -0.9379  0.4928
  351MOL0     C47266   1.686  10.732   9.073 -0.6660  0.4459  0.3026
  351MOL0     N47267   1.784  10.701   9.184  0.0682 -0.0806 -0.4305
  351MOL0     C47268   1.765  10.650   9.312  0.0060 -0.6047 -0.7499
  351MOL0     C47269   1.886  10.625   9.361 -0.6974 -0.7748  0.0394
  351MOL0     C47270   1.915  10.584   9.503 -0.0530 -0.7286 -1.0141
  351MOL0     C47271   2.052  10.640   9.550 -0.1594  0.8092 -0.3466
  351MOL0     C47272   2.084  10.590   9.686  0.2952 -1.0101 -0.2499
  351MOL0     C47273   2.229  10.626   9.730  0.5791 -0.9962  0.6329
  351MOL0     O47274   2.268  10.586   9.859  0.6154  0.1187  0.8959
  351MOL0     C47275   2.235  10.676   9.958  0.0671  0.5817 -0.2961
  351MOL0     C47276   2.186  10.628  10.075 -0.2811  0.8410 -0.3506
  351MOL0     C47277   2.133  10.708  10.177  0.2958  0.4017 -0.2604
  351MOL0     C47278   2.059  10.630  10.282 -0.5202 -0.6020 -0.1657
  351MOL0     C47279   2.141  10.855  10.175  0.1990 -0.1917 -0.5857
  351MOL0     C47280   2.075  10.952  10.265 -0.0004  0.3876 -0.1033
  351MOL0     O47281   2.054  10.906  10.393  0.2374  0.6227  0.1416
  351MOL0     C47282   1.968  10.982  10.471  0.3390  0.7640 -0.4040
  351MOL0     C47283   1.836  10.985  10.439  0.3701  0.1072 -0.5626
  351MOL0     C47284   1.750  11.068  10.506  0.4930  0.7313 -0.0106
  351MOL0     C47285   1.789  11.138  10.621 -0.1248  0.2281 -0.3525
  351MOL0     O47286   1.703  11.205  10.700 -0.2402 -0.7513  0.6134
  351MOL0     C47287   1.574  11.147  10.729  0.5289 -0.2062  0.0825
  351MOL0     C47288   1.580  11.016  10.810 -0.3843 -0.5082  0.0451
  351MOL0     C47289   1.592  11.054  10.956 -0.4831  0.2080 -0.3248
  351MOL0     C47290   1.644  10.945  11.051 -1.1155  1.1899 -0.0685
  351MOL0     C47291   1.772  10.878  11.000  0.1420  0.0910  0.2434
  351MOL0     C47292   1.864  10.819  11.113  0.3135 -1.2956 -0.0972
  351MOL0     C47293   1.807  10.687  11.169 -0.3825 -0.9177 -0.1889
  351MOL0     C47294   1.883  10.644  11.293  0.0829 -0.5152 -0.0650
  351MOL0    Cl47295   1.843  10.752  11.429 -0.1417  0.1797  0.4665
  351MOL0     C47296   1.923  11.128  10.657 -0.5038  0.7789 -0.2374
  351MOL0     C47297   2.009  11.046  10.583  0.4004  0.9833  0.4814
  351MOL0     O47298   2.025  11.051  10.215 -0.6007 -0.8233 -0.5035
  351MOL0     C47299   2.213  10.902  10.060 -0.3328  0.2931  0.1606
  351MOL0     C47300   2.260  10.815   9.958  0.6298  0.2774  0.0115
  351MOL0     N47301   1.984  10.659   9.266 -0.0053  0.2310 -0.1493
  351MOL0     N47302   1.918  10.685   9.158  0.0466 -0.3204 -0.7956
  351MOL0     C47303   1.713  10.523   8.187  1.0624  0.8345 -0.9101
  351MOL0     C47304   1.648  10.407   8.130  0.3251 -0.2417  0.6229
  351MOL0     C47305   1.414  10.179   7.851  0.5568 -1.0094 -0.2362
  351MOL0     C47306   1.360  10.075   7.933  0.6402 -1.0241  0.6646
  351MOL0     C47307   1.281   9.967   7.878  0.3122  0.0124  0.6583
  351MOL0     C47308   1.257   9.959   7.739  0.4778 -0.4362 -0.1924
  351MOL0     O47309   1.190   9.848   7.691 -0.2923 -0.1058  0.0485
  351MOL0     C47310   1.122   9.860   7.567  0.5405  0.0057  0.8871
  351MOL0     C47311   0.987   9.929   7.583 -0.1356 -0.0874  0.7355
  351MOL0     C47312   0.892   9.853   7.675  0.0640  0.0305  0.0658
  351MOL0     C47313   0.920   9.873   7.826  0.2589 -1.3393 -0.3397
  351MOL0     C47314   0.806   9.868   7.919  0.6347  0.0608  0.0126
  351MOL0     C47315   0.725   9.870   8.014  0.3688  0.2686 -0.2536
  351MOL0     C47316   1.310  10.067   7.660 -0.2542 -0.0318  0.0234
  351MOL0     C47317   1.392  10.167   7.711  0.8729  0.5208  0.2021
  351MOL0     H47318   1.333  10.503   8.143  1.0634 -3.7514 -4.1353
  351MOL0     H47319   1.435  10.709   8.246 -1.7686 -2.3981  1.6040
  351MOL0     H47320   1.789  10.643   8.416  1.9111 -0.2001  0.0211
  351MOL0     H47321   1.897  10.747   8.325  1.1287  0.2706  2.7444
  351MOL0     H47322   1.776  10.932   8.439 -1.7224 -0.8755 -2.3259
  351MOL0     H47323   1.662  10.827   8.521  0.8396  1.5273  0.0523
  351MOL0     H47324   1.834  10.729   8.660  0.4616 -0.6913 -1.4852
  351MOL0     H47325   1.963  10.819   8.570 -0.1095  1.3573  1.1026
  351MOL0     H47326   1.918  10.925   8.783 -1.5429  1.4268  0.7302
  351MOL0     H47327   1.885  11.038   8.654  4.1770 -2.4444 -2.4983
  351MOL0     H47328   1.704  11.060   8.821 -1.8236 -0.0577  0.1374
  351MOL0     H47329   1.631  10.963   8.693  0.5400 -2.7769  0.9939
  351MOL0     H47330   1.556  10.895   8.877 -1.4396 -2.4481 -1.5317
  351MOL0     H47331   1.645  10.762   8.790 -2.4599  0.0123  0.0370
  351MOL0     H47332   1.841  10.788   8.937  1.4826 -1.7312  3.7890
  351MOL0     H47333   1.753  10.922   9.029 -1.3503 -1.4105  1.5838
  351MOL0     H47334   1.664  10.636   9.026  4.0768 -0.4060 -0.7282
  351MOL0     H47335   1.593  10.774   9.114  0.3732 -0.1362  3.5272
  351MOL0     H47336   1.674  10.644   9.372  1.7473 -0.6562  2.0815
  351MOL0     H47337   1.832  10.610   9.570 -0.4167 -0.4378 -1.5729
  351MOL0     H47338   1.926  10.475   9.509  1.9893 -0.4704  2.5794
  351MOL0     H47339   2.058  10.749   9.545 -1.9288  0.9177 -0.8912
  351MOL0     H47340   2.127  10.587   9.491  0.4632  1.0735  0.1942
  351MOL0     H47341   2.073  10.482   9.703  1.6763 -0.8610  1.9442
  351MOL0     H47342   2.005  10.629   9.751 -1.1614 -1.5540 -1.6263
  351MOL0     H47343   2.252  10.732   9.717 -1.6394 -0.6780 -1.4431
  351MOL0     H47344   2.293  10.575   9.658 -0.8753 -2.3490  0.2450
  351MOL0     H47345   2.172  10.520  10.083  0.6950  0.8356  2.7331
  351MOL0     H47346   2.079  10.523  10.284  2.8070 -0.1048 -0.4790
  351MOL0     H47347   2.069  10.672  10.382  0.4357  2.4498 -1.4125
  351MOL0     H47348   1.952  10.629  10.260 -0.8570  0.6324  1.2650
  351MOL0     H47349   1.795  10.925  10.359 -0.4014  0.6953 -0.6156
  351MOL0     H47350   1.648  11.066  10.470  0.4041 -3.2240  0.0206
  351MOL0     H47351   1.511  11.227  10.771 -2.0661 -0.7427 -2.5015
  351MOL0     H47352   1.514  11.129  10.640 -1.8780  2.6426  0.9573
  351MOL0     H47353   1.497  10.947  10.796 -1.0277  0.3632 -0.5472
  351MOL0     H47354   1.671  10.964  10.777  0.6567  0.5333  1.1826
  351MOL0     H47355   1.495  11.092  10.988 -1.4090 -3.5325  1.9455
  351MOL0     H47356   1.676  11.124  10.956  1.7373 -2.3002 -0.3407
  351MOL0     H47357   1.654  10.981  11.153 -1.9101  0.5713  0.2399
  351MOL0     H47358   1.570  10.866  11.067 -3.2989  2.8681 -1.3348
  351MOL0     H47359   1.833  10.955  10.952 -0.6189 -0.4642 -1.6921
  351MOL0     H47360   1.751  10.802  10.925  1.8099 -0.2774  0.1063
  351MOL0     H47361   1.966  10.798  11.079  1.7683  1.1799  2.2977
  351MOL0     H47362   1.878  10.898  11.188  0.6622 -0.2462 -1.2296
  351MOL0     H47363   1.831  10.611  11.093 -1.6198 -1.4612 -0.0567
  351MOL0     H47364   1.700  10.692  11.190 -0.8524 -3.4298 -1.5458
  351MOL0     H47365   1.991  10.657  11.281 -0.3289  3.0025 -1.0978
  351MOL0     H47366   1.862  10.544  11.331 -1.1615  0.9787  3.6116
  351MOL0     H47367   1.958  11.182  10.744  0.1124 -1.2784  0.8840
  351MOL0     H47368   2.113  11.041  10.615  1.0105  1.6735 -1.2565
  351MOL0     H47369   2.245  11.005  10.052 -0.8075  0.5304  1.1448
  351MOL0     H47370   2.309  10.866   9.875  0.0667 -3.8477 -3.1935
  351MOL0     H47371   1.816  10.506   8.215  1.7347  4.1332 -1.0476
  351MOL0     H47372   1.710  10.326   8.092  0.1382 -0.2313  0.2941
  351MOL0     H47373   1.361  10.081   8.041  1.4709 -1.5246  0.6979
  351MOL0     H47374   1.223   9.899   7.939 -3.4604  1.3721 -1.0807
  351MOL0     H47375   1.180   9.906   7.486 -1.5507 -0.4693 -0.9727
  351MOL0     H47376   1.100   9.762   7.522  1.3186 -1.3230  3.2311
  351MOL0     H47377   0.944   9.946   7.483  0.8192 -4.1205 -0.5292
  351MOL0     H47378   1.004  10.034   7.610 -1.0033  0.6138 -1.1897
  351MOL0     H47379   0.884   9.747   7.648  3.5948  0.2570 -2.6476
  351MOL0     H47380   0.790   9.887   7.656 -0.9570 -1.1262  2.9020
  351MOL0     H47381   0.969   9.970   7.837 -1.0747 -0.8040  1.4327
  351MOL0     H47382   0.987   9.798   7.869  0.0868 -0.9895  0.5767
  351MOL0     H47383   0.660   9.877   8.098 -2.1547  1.5877 -2.1768
  351MOL0     H47384   1.297  10.066   7.552  0.3612 -0.5855 -0.0522
  351MOL0     H47385   1.432  10.241   7.643  2.3345 -0.6712 -0.2847
  352MOL0     O47386   4.664   1.942   4.855  0.3004 -0.2032 -0.1425
  352MOL0     C47387   4.593   1.840   4.835 -0.4171  0.1713  0.1806
  352MOL0     O47388   4.564   1.791   4.706 -0.2137  0.2688 -0.8168
  352MOL0     C47389   4.654   1.832   4.611  0.2306  0.6498 -0.1421
  352MOL0     C47390   4.597   1.912   4.511  0.2885 -0.1677 -0.8464
  352MOL0     C47391   4.678   1.967   4.407  0.9422 -0.2006 -1.4712
  352MOL0     C47392   4.811   1.923   4.393  0.9520 -0.1092 -0.4448
  352MOL0     O47393   4.871   1.954   4.276 -0.2896  0.7888 -0.5515
  352MOL0     C47394   4.987   2.045   4.267 -0.0873 -0.1352 -0.5909
  352MOL0     C47395   5.053   2.025   4.132  0.8194  0.1319 -0.3431
  352MOL0     C47396   5.200   2.042   4.131  0.0352 -0.2115 -0.0729
  352MOL0     C47397   5.260   2.012   3.996 -0.3196 -0.3003  0.2068
  352MOL0     C47398   5.410   2.009   4.004 -0.6567  0.6933  0.0204
  352MOL0     C47399   5.474   1.986   3.864 -0.9240  0.1089  0.1079
  352MOL0     C47400   5.624   2.004   3.878  0.4469  0.0745  0.4447
  352MOL0     C47401   5.678   1.899   3.966  0.1989  0.9342  0.1050
  352MOL0     N47402   5.825   1.876   3.975 -0.0217  0.4414 -0.5649
  352MOL0     C47403   5.899   1.769   3.939 -0.9222 -0.2847  0.9516
  352MOL0     C47404   6.025   1.826   3.929 -0.4135  0.9816 -0.5565
  352MOL0     C47405   6.147   1.755   3.880 -0.7310 -0.5895  0.7967
  352MOL0     C47406   6.281   1.850   3.910  0.3812  0.3628  0.3106
  352MOL0     C47407   6.397   1.758   3.904  0.4958 -0.2124  0.4816
  352MOL0     C47408   6.517   1.840   3.963 -0.4214  0.3825  0.5839
  352MOL0     O47409   6.609   1.857   3.846 -0.0702  0.1816 -0.0356
  352MOL0     C47410   6.741   1.905   3.863 -0.9616  0.6491  0.8120
  352MOL0     C47411   6.795   1.934   3.991 -0.8026 -0.1449 -0.3001
  352MOL0     C47412   6.922   1.987   4.005 -0.2764 -0.4233 -0.2276
  352MOL0     C47413   6.963   2.023   4.156  0.7246  1.2801  0.9780
  352MOL0     C47414   6.999   2.011   3.885  0.6368 -0.8830 -0.4263
  352MOL0     C47415   7.139   2.065   3.894  0.9497 -0.2671  0.5399
  352MOL0     O47416   7.199   2.112   3.781  0.6009 -0.0524 -0.0153
  352MOL0     C47417   7.330   2.151   3.779 -0.0502  0.6047 -0.6678
  352MOL0     C47418   7.365   2.264   3.707 -0.0915  0.0815  0.1937
  352MOL0     C47419   7.495   2.316   3.696 -1.3497 -0.1784 -0.0467
  352MOL0     C47420   7.602   2.244   3.760 -0.6627  0.3963 -0.0308
  352MOL0     O47421   7.730   2.283   3.744 -0.2538  0.2631  0.2088
  352MOL0     C47422   7.812   2.267   3.855  0.1199 -0.5434  0.5518
  352MOL0     C47423   7.944   2.338   3.814 -0.4390  0.8797  0.5900
  352MOL0     C47424   8.055   2.308   3.915 -0.7216 -0.6795  0.2837
  352MOL0     C47425   8.187   2.311   3.845 -0.6343  0.0014  0.0741
  352MOL0     C47426   8.216   2.191   3.749 -0.1379 -0.5407 -0.2266
  352MOL0     C47427   8.356   2.204   3.690 -0.4083 -0.1902 -0.2624
  352MOL0     C47428   8.455   2.119   3.769  0.0753 -0.3121  0.2139
  352MOL0     C47429   8.613   2.150   3.731  0.4886  0.4744  0.5009
  352MOL0    Cl47430   8.665   2.100   3.561  0.4848 -0.3375  0.3094
  352MOL0     C47431   7.567   2.125   3.836 -0.4977  0.6388 -0.9465
  352MOL0     C47432   7.431   2.092   3.851 -0.0955  0.5796  1.9005
  352MOL0     O47433   7.172   2.082   4.010 -0.7140 -0.8156  0.4592
  352MOL0     C47434   6.945   1.979   3.763  0.8995  0.1128  0.6876
  352MOL0     C47435   6.821   1.926   3.749  0.6297 -0.5114  1.0375
  352MOL0     N47436   6.023   1.951   3.983  0.2814  0.2495 -0.1414
  352MOL0     N47437   5.906   1.974   4.009  0.6173 -0.3428 -0.2742
  352MOL0     C47438   4.861   1.830   4.490 -0.6888  0.6398 -0.2780
  352MOL0     C47439   4.786   1.790   4.600 -0.0381 -0.6864  0.6224
  352MOL0     C47440   4.553   1.763   4.954  0.9129  0.2082  0.3643
  352MOL0     C47441   4.510   1.626   4.945 -0.5514  0.0804  0.5773
  352MOL0     C47442   4.467   1.555   5.052 -0.1860  0.8049  0.1426
  352MOL0     C47443   4.475   1.611   5.183  0.5325  0.0247  0.8776
  352MOL0     O47444   4.439   1.547   5.295 -0.4114 -0.0544  0.1366
  352MOL0     C47445   4.297   1.556   5.318 -0.0250  0.8449 -0.9532
  352MOL0     C47446   4.266   1.573   5.471  0.5982  0.7686  0.5085
  352MOL0     C47447   4.367   1.643   5.554  0.6196 -1.0887 -0.3006
  352MOL0     C47448   4.349   1.800   5.547 -0.0115 -0.1113 -0.6749
  352MOL0     C47449   4.481   1.864   5.555 -0.3647  0.2048  0.0492
  352MOL0     C47450   4.580   1.928   5.532  0.0536  0.8136  0.0958
  352MOL0     C47451   4.533   1.738   5.195 -0.5403  0.5864  0.5478
  352MOL0     C47452   4.576   1.813   5.083 -0.2829 -0.9989 -0.5381
  352MOL0     H47453   4.497   1.947   4.533  0.8764  1.3837 -0.4908
  352MOL0     H47454   4.628   2.021   4.328 -0.6501  0.9911  0.2529
  352MOL0     H47455   4.943   2.144   4.280 -3.1505 -1.3130 -1.2047
  352MOL0     H47456   5.065   2.023   4.340  0.1054  2.6623  0.1524
  352MOL0     H47457   5.028   1.923   4.100 -3.3366  1.0195 -0.4623
  352MOL0     H47458   5.026   2.097   4.055  1.1014 -0.0069 -0.5733
  352MOL0     H47459   5.223   2.141   4.172 -0.1523 -0.6569  1.1234
  352MOL0     H47460   5.242   1.959   4.188  2.4290 -1.6890 -3.6468
  352MOL0     H47461   5.250   1.906   3.971  3.0697 -0.3813 -1.3170
  352MOL0     H47462   5.219   2.078   3.919 -3.8426 -1.0577  1.2483
  352MOL0     H47463   5.441   2.104   4.050 -0.0977  0.1949  0.7058
  352MOL0     H47464   5.442   1.933   4.076  1.8985  3.0372  1.5691
  352MOL0     H47465   5.448   1.891   3.817  1.5984 -1.6100  1.9449
  352MOL0     H47466   5.448   2.071   3.800 -2.3481  1.2280  2.0925
  352MOL0     H47467   5.671   1.993   3.780 -0.4250  2.5004 -0.2988
  352MOL0     H47468   5.645   2.105   3.913  0.6834  0.1333  0.1391
  352MOL0     H47469   5.638   1.799   3.949  2.1933  0.1288 -0.0768
  352MOL0     H47470   5.654   1.929   4.069 -0.7210  0.1078  0.1475
  352MOL0     H47471   5.857   1.676   3.904  0.7769 -0.7219 -0.0288
  352MOL0     H47472   6.175   1.657   3.918  0.1379 -1.2790 -1.4524
  352MOL0     H47473   6.146   1.736   3.772  3.9677  1.1995  0.1801
  352MOL0     H47474   6.258   1.904   4.002  0.7106  1.1500 -0.0604
  352MOL0     H47475   6.279   1.933   3.839 -3.2183  1.0049  0.9695
  352MOL0     H47476   6.401   1.724   3.800 -2.8008  0.7681 -0.0892
  352MOL0     H47477   6.398   1.669   3.967  1.3086 -1.0252 -0.6592
  352MOL0     H47478   6.559   1.779   4.044 -0.8605  0.2407  0.7045
  352MOL0     H47479   6.501   1.944   3.993 -0.8813  0.0789  1.4287
  352MOL0     H47480   6.730   1.907   4.073 -1.1626  1.3332 -0.0782
  352MOL0     H47481   6.981   2.131   4.153  3.1199  1.0547 -4.4600
  352MOL0     H47482   6.878   2.010   4.224 -1.6773  1.9011 -1.6986
  352MOL0     H47483   7.049   1.967   4.193  0.1859 -0.0226  0.3364
  352MOL0     H47484   7.290   2.324   3.657  0.7155  1.0045  0.0477
  352MOL0     H47485   7.521   2.410   3.649 -0.0452 -1.3599 -1.8170
  352MOL0     H47486   7.771   2.309   3.947 -1.7210  1.5211 -1.0807
  352MOL0     H47487   7.836   2.161   3.860 -3.6925 -1.6739 -1.0091
  352MOL0     H47488   7.977   2.297   3.719 -1.1330 -0.1506  0.7782
  352MOL0     H47489   7.934   2.446   3.802 -0.1043  0.9986  1.3483
  352MOL0     H47490   8.046   2.216   3.973  1.7556 -2.9713 -2.5913
  352MOL0     H47491   8.051   2.396   3.979 -1.9836 -0.0556 -0.6081
  352MOL0     H47492   8.197   2.406   3.792  2.1420 -0.7612 -0.9376
  352MOL0     H47493   8.273   2.312   3.912  0.6602  1.4431 -1.5429
  352MOL0     H47494   8.156   2.187   3.658 -0.2818  2.1777 -0.3401
  352MOL0     H47495   8.206   2.093   3.797  5.6032 -0.9861  0.8768
  352MOL0     H47496   8.339   2.161   3.591  2.1479 -2.4768  0.1447
  352MOL0     H47497   8.391   2.307   3.688  0.9429 -0.4324  3.3049
  352MOL0     H47498   8.446   2.014   3.739  2.7878 -0.8257  0.9379
  352MOL0     H47499   8.433   2.120   3.876  2.2868 -0.5935  0.7321
  352MOL0     H47500   8.682   2.103   3.802 -1.3781 -3.1260  0.1485
  352MOL0     H47501   8.628   2.258   3.743  0.6049  0.5798 -0.5017
  352MOL0     H47502   7.630   2.074   3.907 -3.8714  0.3090  2.0877
  352MOL0     H47503   7.410   1.994   3.892  0.1008 -0.6204 -0.6872
  352MOL0     H47504   7.005   1.984   3.673 -1.5041 -0.3376 -1.0147
  352MOL0     H47505   6.784   1.894   3.652  3.2332  1.8087 -0.8748
  352MOL0     H47506   4.966   1.803   4.495 -0.8534 -0.5821 -2.4154
  352MOL0     H47507   4.819   1.707   4.662  0.0760 -0.6990  0.5457
  352MOL0     H47508   4.513   1.579   4.847 -1.8231  1.2587 -0.0635
  352MOL0     H47509   4.439   1.451   5.038  0.1098  0.8024 -0.4689
  352MOL0     H47510   4.258   1.644   5.266 -0.1260  2.3607  1.5667
  352MOL0     H47511   4.253   1.460   5.287 -1.4565  0.3920  2.1283
  352MOL0     H47512   4.251   1.473   5.515  1.0767  0.4661 -0.0089
  352MOL0     H47513   4.174   1.631   5.482 -0.0918 -0.3142  0.6612
  352MOL0     H47514   4.461   1.604   5.514  2.4000  3.5354 -1.2076
  352MOL0     H47515   4.370   1.618   5.660 -1.5780 -0.5703 -0.0775
  352MOL0     H47516   4.297   1.832   5.638  3.6377 -1.7806  2.2662
  352MOL0     H47517   4.296   1.829   5.456  0.4555  2.0964 -0.3115
  352MOL0     H47518   4.669   1.986   5.514  0.9131 -0.5036  0.0060
  352MOL0     H47519   4.547   1.783   5.292 -2.3858 -0.8403  1.5404
  352MOL0     H47520   4.626   1.908   5.098 -0.2050 -0.9542 -1.0463
  353MOL0     O47521   7.332   2.298   9.344 -0.2915 -0.3722  0.0981
  353MOL0     C47522   7.355   2.417   9.358 -0.0133 -0.6605  0.0733
  353MOL0     O47523   7.264   2.521   9.360  0.5150 -0.2571  0.0657
  353MOL0     C47524   7.136   2.485   9.371  0.5587 -0.1743 -0.5469
  353MOL0     C47525   7.038   2.528   9.282  0.5888  0.1628 -0.5695
  353MOL0     C47526   6.906   2.499   9.302  0.1281  0.4111 -0.1661
  353MOL0     C47527   6.863   2.456   9.432  0.1162  0.9468 -0.5759
  353MOL0     O47528   6.730   2.443   9.458 -0.1625 -0.2974 -0.2114
  353MOL0     C47529   6.688   2.348   9.554  0.7549  0.2659 -0.9376
  353MOL0     C47530   6.533   2.349   9.549  0.4843  0.2520  0.1860
  353MOL0     C47531   6.480   2.492   9.567 -0.8567 -0.1231 -0.8254
  353MOL0     C47532   6.382   2.539   9.460  0.3808 -0.3936  0.8521
  353MOL0     C47533   6.319   2.671   9.504  0.2485  0.2992  0.7601
  353MOL0     C47534   6.194   2.724   9.416  0.1898  0.4851  0.1080
  353MOL0     C47535   6.257   2.795   9.301 -0.0712 -0.1429 -0.1405
  353MOL0     C47536   6.162   2.828   9.188  0.2617  0.2371  0.3875
  353MOL0     N47537   6.229   2.865   9.064  0.7657  0.1379 -0.2427
  353MOL0     C47538   6.281   2.984   9.020  0.3981  0.0881  0.4249
  353MOL0     C47539   6.310   2.952   8.891 -0.9607  0.5760 -0.2981
  353MOL0     C47540   6.363   3.060   8.803 -0.0282  0.2287  0.1439
  353MOL0     C47541   6.518   3.052   8.823 -0.1571  0.5637  0.2722
  353MOL0     C47542   6.567   3.091   8.969 -0.2708  0.1264  0.0361
  353MOL0     C47543   6.720   3.107   8.976 -0.1877 -0.0074  0.5963
  353MOL0     O47544   6.786   2.976   8.984 -0.4785  1.2150 -1.6271
  353MOL0     C47545   6.923   2.981   9.011  0.0654  0.6156 -0.5622
  353MOL0     C47546   6.982   3.093   9.075  0.3883  1.1893 -0.7740
  353MOL0     C47547   7.121   3.102   9.070 -0.1590  0.7470  0.3094
  353MOL0     C47548   7.179   3.239   9.107  0.2469 -1.1896  0.2331
  353MOL0     C47549   7.201   2.981   9.040 -0.4986  0.0096  0.6654
  353MOL0     C47550   7.351   2.970   9.049  1.3530 -0.3850  1.7206
  353MOL0     O47551   7.418   3.079   9.090  0.0689 -0.4233  0.2008
  353MOL0     C47552   7.551   3.075   9.132 -0.3598  0.2886  0.2349
  353MOL0     C47553   7.598   2.997   9.235 -0.6313 -0.3447 -0.8041
  353MOL0     C47554   7.730   3.008   9.287 -0.4348  0.2765  0.3725
  353MOL0     C47555   7.823   3.101   9.232  0.5931  0.0089 -0.3534
  353MOL0     O47556   7.939   3.119   9.300  0.3855 -0.6238  0.3635
  353MOL0     C47557   8.038   3.204   9.236  0.0096  0.7299  0.8053
  353MOL0     C47558   8.171   3.174   9.309  0.4305 -0.3950  0.4684
  353MOL0     C47559   8.301   3.234   9.259  0.0047  0.2046 -1.2248
  353MOL0     C47560   8.361   3.162   9.140  0.8641  0.6662  0.0313
  353MOL0     C47561   8.489   3.212   9.080  0.8466  0.8180  0.9935
  353MOL0     C47562   8.465   3.344   9.010  0.7386  0.2066  0.1677
  353MOL0     C47563   8.594   3.395   8.945 -1.4799  0.8514 -0.5915
  353MOL0     C47564   8.558   3.530   8.886 -0.4713  0.0201 -0.5120
  353MOL0    Cl47565   8.468   3.504   8.742  0.2231  0.4559  0.3099
  353MOL0     C47566   7.778   3.175   9.117  0.4802 -0.0065 -0.1416
  353MOL0     C47567   7.647   3.162   9.072  0.0772 -0.1869  0.2487
  353MOL0     O47568   7.398   2.857   9.034  0.4185 -0.3107  1.0621
  353MOL0     C47569   7.127   2.865   8.998  0.1928 -0.1491 -0.6047
  353MOL0     C47570   6.993   2.866   8.981  0.0632 -0.8363 -0.1586
  353MOL0     N47571   6.284   2.818   8.858  0.2903  0.1300 -0.2668
  353MOL0     N47572   6.227   2.772   8.965 -0.3268  0.6386  0.3795
  353MOL0     C47573   6.956   2.414   9.518 -0.8814 -0.0732  0.8326
  353MOL0     C47574   7.092   2.427   9.489 -0.3093 -0.0861  1.1299
  353MOL0     C47575   7.498   2.456   9.370  0.1673  0.7807 -0.5386
  353MOL0     C47576   7.595   2.354   9.378  0.1366  0.2784 -0.3908
  353MOL0     C47577   7.725   2.395   9.388 -0.3578 -0.8845 -0.6355
  353MOL0     C47578   7.762   2.526   9.402 -1.2142  0.1467 -0.1118
  353MOL0     O47579   7.891   2.577   9.415 -0.0767  0.5893 -0.1311
  353MOL0     C47580   8.003   2.487   9.416  0.0534  0.3949  0.2371
  353MOL0     C47581   8.129   2.561   9.387 -0.2007 -0.4276 -0.2906
  353MOL0     C47582   8.133   2.635   9.244  0.1076 -0.1312  0.4799
  353MOL0     C47583   8.186   2.778   9.238 -0.4547  0.0110 -0.0360
  353MOL0     C47584   8.149   2.831   9.108  0.2387 -0.5591  0.4618
  353MOL0     C47585   8.138   2.867   8.986  0.3077  0.0778 -0.8852
  353MOL0     C47586   7.669   2.625   9.409 -0.8749 -0.9677  0.5262
  353MOL0     C47587   7.530   2.589   9.387 -1.0131 -0.1633 -0.6079
  353MOL0     H47588   7.074   2.572   9.190 -0.4292  1.7903 -0.2287
  353MOL0     H47589   6.840   2.517   9.218  0.6178  1.5240 -0.3370
  353MOL0     H47590   6.734   2.251   9.534  2.8046  0.8525  0.5650
  353MOL0     H47591   6.723   2.383   9.652  1.3822  0.0102 -1.0613
  353MOL0     H47592   6.490   2.316   9.453 -2.6885  2.7500  0.5716
  353MOL0     H47593   6.488   2.281   9.622 -2.4001  1.5779 -0.2050
  353MOL0     H47594   6.428   2.491   9.663 -0.3796  1.3397 -0.5197
  353MOL0     H47595   6.556   2.571   9.575 -3.5219  2.7395 -1.4066
  353MOL0     H47596   6.427   2.558   9.363 -1.7325 -0.9487 -0.2880
  353MOL0     H47597   6.313   2.456   9.444 -1.8788  1.6131 -0.5371
  353MOL0     H47598   6.287   2.664   9.609 -1.7194  0.3112  0.2111
  353MOL0     H47599   6.400   2.744   9.496  1.8961 -1.5687 -0.6023
  353MOL0     H47600   6.128   2.642   9.388  1.0770 -0.6793  1.2645
  353MOL0     H47601   6.131   2.790   9.478  1.5020  1.5864  0.3362
  353MOL0     H47602   6.298   2.883   9.349  3.9336 -1.4382 -0.8380
  353MOL0     H47603   6.340   2.738   9.258  0.5595  0.4283  0.3145
  353MOL0     H47604   6.086   2.902   9.216 -0.5146  0.5204 -2.2023
  353MOL0     H47605   6.111   2.734   9.164 -2.2029  1.8548 -1.1763
  353MOL0     H47606   6.280   3.073   9.081 -0.7239 -1.4883  2.8659
  353MOL0     H47607   6.337   3.050   8.698  2.9200 -1.0231 -0.5551
  353MOL0     H47608   6.317   3.155   8.835  0.1375  0.3209  0.1083
  353MOL0     H47609   6.572   3.124   8.761  2.9572  2.3332  4.6011
  353MOL0     H47610   6.548   2.950   8.798  0.1181  0.3523  1.4157
  353MOL0     H47611   6.541   3.015   9.043  1.9011  0.4550  1.2066
  353MOL0     H47612   6.514   3.180   9.003 -1.1948 -0.0365 -0.9199
  353MOL0     H47613   6.733   3.167   9.067 -0.4864 -0.9993  1.3113
  353MOL0     H47614   6.755   3.156   8.885  0.4023 -2.1600 -0.3960
  353MOL0     H47615   6.915   3.171   9.110 -1.9552 -1.4665  1.0254
  353MOL0     H47616   7.238   3.254   9.198  0.9322  0.3897 -0.4513
  353MOL0     H47617   7.241   3.274   9.025  0.4245 -1.4146  0.2682
  353MOL0     H47618   7.086   3.296   9.115 -0.4539 -2.4930  2.1081
  353MOL0     H47619   7.520   2.937   9.280 -0.5708 -0.6257 -1.0680
  353MOL0     H47620   7.776   2.949   9.365  4.1810  0.7750 -1.6380
  353MOL0     H47621   8.051   3.173   9.132 -2.7443  0.8704  0.3322
  353MOL0     H47622   8.003   3.308   9.234 -1.2462  0.3291  0.8564
  353MOL0     H47623   8.155   3.197   9.415 -2.3230 -1.6742  0.4277
  353MOL0     H47624   8.181   3.065   9.305 -2.3034 -0.6711 -1.4835
  353MOL0     H47625   8.361   3.222   9.349  0.3251  1.7875 -1.1983
  353MOL0     H47626   8.291   3.341   9.239  0.9655  0.1431 -2.1413
  353MOL0     H47627   8.382   3.058   9.167 -1.2510 -0.2593 -1.5638
  353MOL0     H47628   8.281   3.152   9.066 -0.1286 -0.0233  1.1403
  353MOL0     H47629   8.524   3.135   9.011  0.8234  0.6094  1.2118
  353MOL0     H47630   8.556   3.232   9.165  0.5898 -0.0193  1.4031
  353MOL0     H47631   8.383   3.338   8.937 -2.1279 -0.3748  3.2137
  353MOL0     H47632   8.440   3.411   9.092 -0.4874  0.7713 -0.6467
  353MOL0     H47633   8.628   3.325   8.869  1.9112 -0.4983  1.9029
  353MOL0     H47634   8.671   3.423   9.018  0.4898  1.6216 -2.8552
  353MOL0     H47635   8.650   3.589   8.883  1.0681 -2.0979  1.3879
  353MOL0     H47636   8.483   3.582   8.947 -3.4952 -1.2529 -2.8878
  353MOL0     H47637   7.844   3.239   9.058 -0.6325 -0.0037 -1.4322
  353MOL0     H47638   7.618   3.233   8.995 -1.2320  2.2926  2.8121
  353MOL0     H47639   7.179   2.771   8.984 -2.9330 -2.4534  1.7258
  353MOL0     H47640   6.942   2.779   8.942 -2.7189  0.1136  1.1610
  353MOL0     H47641   6.935   2.367   9.613  1.8687 -0.9227  1.1096
  353MOL0     H47642   7.165   2.393   9.562  0.2276  1.7692  1.5075
  353MOL0     H47643   7.575   2.249   9.358 -1.0915  0.7496 -1.7981
  353MOL0     H47644   7.807   2.324   9.392  1.5875  1.2605 -0.6775
  353MOL0     H47645   8.004   2.438   9.514  0.6542 -0.5256 -0.2189
  353MOL0     H47646   7.990   2.405   9.346 -1.7474  0.9436 -0.1243
  353MOL0     H47647   8.217   2.496   9.383 -0.4535 -0.7035 -2.5221
  353MOL0     H47648   8.143   2.641   9.460  1.8678 -1.2676  0.3143
  353MOL0     H47649   8.031   2.628   9.204 -0.6267  2.0685  1.7761
  353MOL0     H47650   8.197   2.574   9.180  1.5956  1.0891  0.7500
  353MOL0     H47651   8.296   2.780   9.246 -0.2743 -2.7328 -0.6905
  353MOL0     H47652   8.150   2.837   9.322  1.6880  0.4442  0.6534
  353MOL0     H47653   8.111   2.876   8.883 -2.5454 -1.3207 -0.3675
  353MOL0     H47654   7.700   2.728   9.425 -2.4130 -0.7587  2.5742
  353MOL0     H47655   7.460   2.671   9.399 -0.2404  0.9483 -2.9807
  354MOL0     O47656   4.416  11.370   9.732  0.4022  0.0615 -0.3056
  354MOL0     C47657   4.298  11.331   9.740  0.3398  0.4982 -0.3018
  354MOL0     O47658   4.200  11.356   9.649 -0.2281 -0.8651  0.4837
  354MOL0     C47659   4.217  11.450   9.541  0.4403 -0.1253  0.1891
  354MOL0     C47660   4.324  11.451   9.450  0.9169 -1.0261 -0.3944
  354MOL0     C47661   4.341  11.552   9.350 -0.2730 -0.8655 -0.8157
  354MOL0     C47662   4.249  11.655   9.338 -1.2704  0.2335 -0.0060
  354MOL0     O47663   4.246  11.741   9.230  0.3152  0.1559  0.7628
  354MOL0     C47664   4.356  11.803   9.182  0.1063  0.7485 -0.0927
  354MOL0     C47665   4.386  11.735   9.047 -0.2922 -0.5322 -0.5349
  354MOL0     C47666   4.524  11.765   8.989  0.3401 -0.7100 -0.0014
  354MOL0     C47667   4.628  11.672   9.032  0.0657 -0.2344  0.1869
  354MOL0     C47668   4.768  11.688   8.958 -0.0595  0.0274 -0.0828
  354MOL0     C47669   4.853  11.555   8.973 -0.8900 -0.0631 -0.0873
  354MOL0     C47670   5.007  11.567   8.942 -0.0637 -0.2184  0.5612
  354MOL0     C47671   5.077  11.440   8.886  0.5753  0.3619 -0.4589
  354MOL0     N47672   5.220  11.462   8.874 -0.7459  0.0480 -0.1273
  354MOL0     C47673   5.288  11.565   8.815  1.2545 -0.2119 -0.4966
  354MOL0     C47674   5.409  11.558   8.854 -0.3005  0.1423 -0.2273
  354MOL0     C47675   5.512  11.660   8.828 -0.4651  0.0104  0.0876
  354MOL0     C47676   5.491  11.785   8.923  0.6794 -0.3420  0.6001
  354MOL0     C47677   5.382  11.875   8.853  0.6705  0.1007  0.4388
  354MOL0     C47678   5.382  12.022   8.914 -0.1542  0.0626 -0.0458
  354MOL0     O47679   5.305  12.114   8.830 -0.8294 -0.3490 -0.1620
  354MOL0     C47680   5.176  12.152   8.860 -0.2802  0.1049  0.2778
  354MOL0     C47681   5.127  12.275   8.800  0.0165  0.3363 -1.1914
  354MOL0     C47682   4.990  12.317   8.831 -0.4070 -0.7920  1.2160
  354MOL0     C47683   4.949  12.448   8.763  0.1425 -0.0189  0.2912
  354MOL0     C47684   4.905  12.242   8.916 -0.1416 -0.3886 -0.3818
  354MOL0     C47685   4.758  12.269   8.936 -0.4493 -1.2050  0.4615
  354MOL0     O47686   4.686  12.191   9.024 -0.7936 -0.1930  0.4631
  354MOL0     C47687   4.549  12.183   9.001 -0.3396  0.2896  0.3464
  354MOL0     C47688   4.457  12.189   9.114 -0.0670  0.4259  0.2879
  354MOL0     C47689   4.323  12.175   9.089  0.0531 -0.7547  0.6348
  354MOL0     C47690   4.270  12.154   8.954  0.0954 -0.2591  0.6549
  354MOL0     O47691   4.139  12.123   8.911  0.2828 -0.1729 -0.7456
  354MOL0     C47692   4.038  12.079   9.010 -0.1720 -0.4101  0.8083
  354MOL0     C47693   4.020  11.935   9.000 -0.1280  0.3570 -0.5842
  354MOL0     C47694   3.891  11.904   9.070 -0.2182  0.3304  0.5363
  354MOL0     C47695   3.874  11.755   9.111 -0.4006  0.6510 -0.2411
  354MOL0     C47696   3.846  11.665   8.993 -0.2767 -0.2576  0.5828
  354MOL0     C47697   3.804  11.523   9.030  0.1188 -0.1976  0.3333
  354MOL0     C47698   3.731  11.454   8.915  0.5723  0.1657 -0.0610
  354MOL0     C47699   3.677  11.322   8.965 -0.2017  1.1627 -0.3975
  354MOL0    Cl47700   3.622  11.220   8.838 -0.0776  0.0760 -0.4599
  354MOL0     C47701   4.367  12.138   8.851  1.1424 -0.2157  1.1632
  354MOL0     C47702   4.498  12.154   8.871 -1.0277 -0.5474 -0.2437
  354MOL0     O47703   4.709  12.365   8.878 -0.7885 -0.2204  0.1288
  354MOL0     C47704   4.959  12.119   8.963  0.3896  0.1378 -1.3798
  354MOL0     C47705   5.091  12.071   8.938  0.3433 -0.0773  0.0912
  354MOL0     N47706   5.426  11.450   8.930  0.3588 -0.1612 -0.4666
  354MOL0     N47707   5.313  11.395   8.945 -0.9865 -0.2837  0.4968
  354MOL0     C47708   4.141  11.659   9.432  0.3229  0.1805 -0.1475
  354MOL0     C47709   4.129  11.549   9.520  0.2587 -0.2451  0.4165
  354MOL0     C47710   4.259  11.246   9.856 -0.8965 -0.0738  0.2029
  354MOL0     C47711   4.354  11.216   9.958 -1.0119  0.0251 -0.0261
  354MOL0     C47712   4.317  11.128  10.062  0.3194 -0.7966  0.0389
  354MOL0     C47713   4.184  11.071  10.065 -0.2852  0.9721  0.2558
  354MOL0     O47714   4.134  10.978  10.157  0.5618 -0.3463  0.9848
  354MOL0     C47715   4.202  10.969  10.290  0.1560 -0.0928 -0.1696
  354MOL0     C47716   4.142  10.850  10.389  0.0705 -0.2613  0.3867
  354MOL0     C47717   4.003  10.901  10.443 -0.0646 -0.3707 -0.5385
  354MOL0     C47718   3.937  10.819  10.563 -0.3408 -0.6420  0.4124
  354MOL0     C47719   4.021  10.813  10.681  0.5256  0.1553  0.7531
  354MOL0     C47720   4.092  10.822  10.776  0.3498  0.4945 -0.3131
  354MOL0     C47721   4.104  11.090   9.962  0.1048 -0.2420  0.4677
  354MOL0     C47722   4.133  11.182   9.857  0.6260  0.7025 -0.3915
  354MOL0     H47723   4.404  11.380   9.467  1.2369 -0.3463  1.1054
  354MOL0     H47724   4.420  11.555   9.276 -0.1592 -0.6946 -0.6871
  354MOL0     H47725   4.336  11.910   9.169 -1.3065  1.0580  3.4570
  354MOL0     H47726   4.444  11.800   9.246  0.6611  0.3565 -0.8473
  354MOL0     H47727   4.375  11.627   9.059 -0.7197 -0.5163 -0.7857
  354MOL0     H47728   4.311  11.764   8.973 -4.8647 -1.4273  3.2817
  354MOL0     H47729   4.518  11.763   8.879 -1.0939 -0.4161  0.0453
  354MOL0     H47730   4.555  11.867   9.014 -0.2410 -1.2250  3.3049
  354MOL0     H47731   4.652  11.696   9.136  3.9420  2.0295 -1.0430
  354MOL0     H47732   4.596  11.569   9.015 -1.5288  0.6091 -2.6402
  354MOL0     H47733   4.765  11.694   8.849  3.1993 -0.6776 -0.3336
  354MOL0     H47734   4.819  11.778   8.994  0.0428  0.2148 -0.6836
  354MOL0     H47735   4.838  11.512   9.072  1.4706  4.0912  2.3694
  354MOL0     H47736   4.799  11.484   8.909 -2.1452 -0.0815  0.9461
  354MOL0     H47737   5.000  11.630   8.853 -3.5866  0.6088  1.2672
  354MOL0     H47738   5.077  11.613   9.011  1.4652 -5.2117  2.8411
  354MOL0     H47739   5.036  11.417   8.787  0.9868  0.0365 -0.5562
  354MOL0     H47740   5.066  11.359   8.959  2.4821  0.9576  0.5574
  354MOL0     H47741   5.251  11.645   8.752 -0.1225 -3.3725 -4.1145
  354MOL0     H47742   5.616  11.626   8.821 -0.0828  0.7524  1.6899
  354MOL0     H47743   5.492  11.698   8.728  0.0170 -0.3723 -0.1611
  354MOL0     H47744   5.587  11.837   8.927  0.0176  0.9123  0.7085
  354MOL0     H47745   5.460  11.759   9.025  1.0229  0.4636  0.9146
  354MOL0     H47746   5.282  11.832   8.857  1.7148 -2.8844 -1.7293
  354MOL0     H47747   5.412  11.900   8.751  2.3372  0.2990  0.9355
  354MOL0     H47748   5.481  12.063   8.938 -0.9097  1.8308  0.2037
  354MOL0     H47749   5.321  12.016   9.005  1.6493  1.1759  1.3027
  354MOL0     H47750   5.201  12.328   8.741 -0.3336 -0.8367 -2.7357
  354MOL0     H47751   4.888  12.511   8.828 -1.3468  1.9191 -2.7842
  354MOL0     H47752   5.036  12.510   8.739  0.4385  0.4306  2.3749
  354MOL0     H47753   4.898  12.425   8.669  2.3337 -2.4821 -0.4320
  354MOL0     H47754   4.501  12.211   9.211 -2.3375  0.4634  1.3538
  354MOL0     H47755   4.252  12.179   9.171 -2.5383 -1.5852 -1.4428
  354MOL0     H47756   4.068  12.110   9.110  0.7328  2.4274 -0.2267
  354MOL0     H47757   3.952  12.141   8.982 -1.8150 -2.6624  0.6357
  354MOL0     H47758   4.007  11.914   8.894  0.7891  2.5486 -1.1893
  354MOL0     H47759   4.105  11.883   9.045  0.2086  1.9064  0.6476
  354MOL0     H47760   3.806  11.944   9.013  2.7201 -0.0158 -4.6424
  354MOL0     H47761   3.886  11.960   9.164 -0.3893 -0.4676  1.0137
  354MOL0     H47762   3.972  11.731   9.151  1.0216 -1.5366 -4.4244
  354MOL0     H47763   3.794  11.733   9.182 -0.5378 -1.7613 -1.0406
  354MOL0     H47764   3.925  11.659   8.917  0.3929 -2.6185  1.3575
  354MOL0     H47765   3.765  11.719   8.943 -1.3594 -0.5966  1.9196
  354MOL0     H47766   3.888  11.461   9.066  0.8859 -0.3980 -1.6634
  354MOL0     H47767   3.731  11.532   9.111 -0.2096  3.9252 -0.2117
  354MOL0     H47768   3.801  11.432   8.833 -1.5597  0.6335 -2.1292
  354MOL0     H47769   3.647  11.508   8.871 -1.6142 -0.4521  3.0737
  354MOL0     H47770   3.606  11.333   9.047 -0.8747  0.0056 -0.7936
  354MOL0     H47771   3.767  11.268   8.998 -0.7158 -0.0747 -0.9749
  354MOL0     H47772   4.330  12.121   8.750  1.6031  0.4118  0.8863
  354MOL0     H47773   4.569  12.133   8.793  2.4425  0.1861  2.4628
  354MOL0     H47774   4.889  12.067   9.028 -1.2597  1.9315 -1.6140
  354MOL0     H47775   5.102  11.976   8.989 -1.2746 -0.1873  0.3073
  354MOL0     H47776   4.069  11.740   9.423  0.0334  0.2798  2.3539
  354MOL0     H47777   4.039  11.560   9.581 -1.3151 -0.1097 -1.8002
  354MOL0     H47778   4.451  11.264   9.963  0.0296 -1.8517 -1.1776
  354MOL0     H47779   4.389  11.104  10.139 -0.3279 -3.1059  0.0068
  354MOL0     H47780   4.308  10.946  10.280  0.4854  0.3937  1.6617
  354MOL0     H47781   4.203  11.070  10.333  1.7098  1.1934 -2.9359
  354MOL0     H47782   4.203  10.821  10.475 -1.8907 -0.7655  1.7070
  354MOL0     H47783   4.128  10.762  10.326  1.1596 -0.2470  0.1125
  354MOL0     H47784   3.937  10.912  10.357 -0.2864  1.2576 -0.1830
  354MOL0     H47785   4.024  11.002  10.479  0.6884 -0.1806 -1.4598
  354MOL0     H47786   3.921  10.715  10.533  1.1733 -0.6676 -0.4249
  354MOL0     H47787   3.840  10.859  10.592 -0.3448  1.4625 -2.0966
  354MOL0     H47788   4.164  10.809  10.855  0.0660 -1.9639 -0.3602
  354MOL0     H47789   4.007  11.042   9.965 -2.2212  3.9747  2.0103
  354MOL0     H47790   4.060  11.202   9.779  0.3278  2.3804  0.2667
  355MOL0     O47791   7.236   5.885   6.796  0.6613 -0.0456  0.0328
  355MOL0     C47792   7.229   5.889   6.921  0.2609  0.1688  0.3919
  355MOL0     O47793   7.306   5.950   7.009 -0.1198 -0.1164  0.5280
  355MOL0     C47794   7.427   5.998   6.966  0.3745  0.4290 -0.0440
  355MOL0     C47795   7.449   6.129   6.915  0.0436  0.3095 -0.3027
  355MOL0     C47796   7.566   6.178   6.865  1.1271 -0.9350 -0.6296
  355MOL0     C47797   7.677   6.093   6.880 -0.2773  0.0943 -0.0459
  355MOL0     O47798   7.808   6.122   6.850  0.4089 -0.0209  0.9497
  355MOL0     C47799   7.829   6.228   6.754 -0.2914 -0.6089 -0.4154
  355MOL0     C47800   7.961   6.232   6.672 -0.2632  0.1118  0.6371
  355MOL0     C47801   7.937   6.294   6.532  0.5660 -0.8848 -0.1846
  355MOL0     C47802   7.926   6.452   6.539 -0.1441  0.5969 -0.6268
  355MOL0     C47803   7.901   6.525   6.403  0.2919 -0.0934 -0.7692
  355MOL0     C47804   8.031   6.605   6.354 -0.2885  0.2567 -0.0911
  355MOL0     C47805   8.155   6.512   6.332  0.0119 -0.1240 -0.5460
  355MOL0     C47806   8.134   6.409   6.218  0.0829 -0.1100  0.5139
  355MOL0     N47807   8.249   6.311   6.193  0.0015 -0.4591 -0.7540
  355MOL0     C47808   8.380   6.344   6.167 -0.0571 -0.8906  0.1711
  355MOL0     C47809   8.434   6.230   6.113  0.2996 -0.1134 -0.4688
  355MOL0     C47810   8.557   6.196   6.042 -0.7945 -0.5307 -0.5077
  355MOL0     C47811   8.681   6.286   6.079  0.6051 -0.3159  0.0501
  355MOL0     C47812   8.668   6.430   6.022 -0.2030 -0.4853  0.2783
  355MOL0     C47813   8.793   6.471   5.958 -0.1049  0.2048 -0.5426
  355MOL0     O47814   8.818   6.386   5.847  0.2966  0.4653 -0.8948
  355MOL0     C47815   8.940   6.397   5.785  0.3451 -0.9244 -0.2904
  355MOL0     C47816   8.973   6.295   5.700  0.5093 -0.1557 -0.3706
  355MOL0     C47817   9.092   6.281   5.640  0.5573  0.4292 -0.3614
  355MOL0     C47818   9.105   6.159   5.562  0.1333  0.2053  0.7368
  355MOL0     C47819   9.196   6.376   5.670  0.1683 -0.1689  0.0572
  355MOL0     C47820   9.330   6.369   5.623 -0.9958 -0.0344 -0.4315
  355MOL0     O47821   9.425   6.422   5.708 -0.6667 -0.2892  0.4251
  355MOL0     C47822   9.561   6.406   5.699  0.2007  0.3597  0.0544
  355MOL0     C47823   9.640   6.502   5.764  0.5466  0.4502 -0.3708
  355MOL0     C47824   9.776   6.480   5.774  0.3116 -0.5872  0.9182
  355MOL0     C47825   9.842   6.365   5.726  0.2424  0.1536  0.0446
  355MOL0     O47826   9.968   6.316   5.741 -0.9841 -0.1669 -0.3715
  355MOL0     C47827  10.055   6.405   5.815 -0.2099  0.1191 -1.1747
  355MOL0     C47828  10.193   6.341   5.828 -0.1957  0.2338 -0.4688
  355MOL0     C47829  10.299   6.434   5.880 -0.8047  0.1502 -1.0082
  355MOL0     C47830  10.433   6.353   5.920  0.0392  0.0721  0.1323
  355MOL0     C47831  10.542   6.444   5.970  1.1879 -0.1368  0.1889
  355MOL0     C47832  10.661   6.371   6.033 -0.0043  0.5232 -0.1324
  355MOL0     C47833  10.744   6.303   5.921  0.3644  0.2255 -0.5132
  355MOL0     C47834  10.893   6.289   5.965 -0.4680 -0.2400  0.1867
  355MOL0    Cl47835  10.911   6.150   6.089  0.5130  0.3886 -0.3503
  355MOL0     C47836   9.763   6.265   5.669  0.1781 -0.1480 -0.0892
  355MOL0     C47837   9.629   6.296   5.647  1.0066 -0.4429  0.5125
  355MOL0     O47838   9.353   6.316   5.514  0.1504 -0.2495  0.0061
  355MOL0     C47839   9.161   6.478   5.758  1.2680 -1.1364  0.0804
  355MOL0     C47840   9.032   6.502   5.805  1.0415 -0.2517  0.3211
  355MOL0     N47841   8.347   6.129   6.121  0.5170 -1.0945  0.0597
  355MOL0     N47842   8.234   6.179   6.158 -0.1314 -0.4629  0.4266
  355MOL0     C47843   7.662   5.962   6.933 -0.8983  0.2686  0.0237
  355MOL0     C47844   7.538   5.914   6.981  0.6592 -0.1399 -0.3582
  355MOL0     C47845   7.116   5.809   6.973 -0.3282 -0.5315  0.0302
  355MOL0     C47846   7.053   5.712   6.895  0.0059 -0.1359  0.4855
  355MOL0     C47847   6.949   5.647   6.954  0.4988  0.4416 -0.2512
  355MOL0     C47848   6.906   5.662   7.089 -0.4006 -0.6500  0.3205
  355MOL0     O47849   6.795   5.589   7.125 -0.8604 -0.9120 -0.0767
  355MOL0     C47850   6.769   5.579   7.264  1.2734  0.6712 -0.1786
  355MOL0     C47851   6.670   5.454   7.278 -0.9087  0.0995  0.4919
  355MOL0     C47852   6.523   5.476   7.214 -0.3454  0.1438  0.6888
  355MOL0     C47853   6.441   5.552   7.323 -0.6077 -0.0233  0.0033
  355MOL0     C47854   6.390   5.445   7.413  0.2977 -0.3283  0.3337
  355MOL0     C47855   6.327   5.370   7.476 -0.6001 -0.3143 -0.1521
  355MOL0     C47856   6.989   5.738   7.169  0.3040  0.6022 -0.7119
  355MOL0     C47857   7.094   5.817   7.112  0.1383  0.3364 -0.1929
  355MOL0     H47858   7.367   6.199   6.906 -0.4927 -0.2090  0.4201
  355MOL0     H47859   7.570   6.280   6.829 -3.1226 -0.6281 -0.6952
  355MOL0     H47860   7.747   6.234   6.682 -2.8074  0.0368  2.3196
  355MOL0     H47861   7.821   6.321   6.811 -0.8518  0.4350 -2.1116
  355MOL0     H47862   8.043   6.275   6.730  0.2003  1.6471 -1.0564
  355MOL0     H47863   7.980   6.126   6.655  1.7120  0.6766 -1.0241
  355MOL0     H47864   8.007   6.264   6.453  0.5519 -1.2011 -0.0782
  355MOL0     H47865   7.840   6.257   6.497  1.5370 -1.9787 -1.8808
  355MOL0     H47866   7.835   6.454   6.599  0.2631 -2.4438  0.2616
  355MOL0     H47867   7.991   6.506   6.608  1.0794 -0.6098 -0.7933
  355MOL0     H47868   7.864   6.445   6.337  1.6617 -1.1795 -0.2631
  355MOL0     H47869   7.824   6.601   6.418  2.3059  1.6224  1.7596
  355MOL0     H47870   7.998   6.654   6.262  0.0024 -0.1854 -0.4373
  355MOL0     H47871   8.051   6.681   6.430 -5.4269 -0.2150  2.1723
  355MOL0     H47872   8.228   6.586   6.297  0.2779  0.3745  0.9989
  355MOL0     H47873   8.173   6.464   6.429  0.4546 -1.1244 -1.1042
  355MOL0     H47874   8.128   6.466   6.125  0.6274  2.5950  2.0084
  355MOL0     H47875   8.040   6.355   6.229  0.7957 -1.8250 -1.3277
  355MOL0     H47876   8.433   6.439   6.159 -1.9569  0.4624  2.2654
  355MOL0     H47877   8.583   6.095   6.075 -1.9376 -0.8662 -0.5889
  355MOL0     H47878   8.545   6.179   5.935 -1.3248 -1.2390 -0.3457
  355MOL0     H47879   8.771   6.238   6.040  2.4294  1.8113  1.4444
  355MOL0     H47880   8.688   6.306   6.186 -2.4989 -0.8870  0.4439
  355MOL0     H47881   8.647   6.501   6.104  2.5249 -3.4419  3.8623
  355MOL0     H47882   8.591   6.432   5.945 -0.2013 -2.1013  0.2066
  355MOL0     H47883   8.876   6.494   6.026 -3.3740  2.0698  3.2495
  355MOL0     H47884   8.779   6.565   5.904 -2.1350  0.6666  0.6933
  355MOL0     H47885   8.901   6.216   5.686  2.2591 -1.5276 -2.1620
  355MOL0     H47886   9.024   6.086   5.572  0.0548  0.3726  1.3456
  355MOL0     H47887   9.117   6.168   5.454  1.3767  1.5553  0.9543
  355MOL0     H47888   9.199   6.113   5.594  0.7725  0.7166 -0.3559
  355MOL0     H47889   9.596   6.592   5.806 -0.5076  0.3659 -1.2701
  355MOL0     H47890   9.839   6.555   5.821  0.6625  0.2431 -0.7901
  355MOL0     H47891  10.065   6.497   5.755 -2.0134  0.7902 -0.5231
  355MOL0     H47892  10.006   6.430   5.909  1.2391  4.3982 -1.3111
  355MOL0     H47893  10.167   6.254   5.889 -2.8455  2.5391  2.0050
  355MOL0     H47894  10.213   6.319   5.723 -2.5428 -1.9359 -0.5624
  355MOL0     H47895  10.256   6.493   5.962 -4.3222 -1.6249 -1.3776
  355MOL0     H47896  10.336   6.502   5.803  0.2385  1.0736  0.2850
  355MOL0     H47897  10.398   6.290   6.002 -2.9198 -2.1228 -2.5555
  355MOL0     H47898  10.479   6.294   5.840  0.3235 -0.1590  0.4669
  355MOL0     H47899  10.495   6.516   6.038 -0.6381  0.1190 -1.2597
  355MOL0     H47900  10.571   6.498   5.879 -0.2306 -3.0468 -2.1600
  355MOL0     H47901  10.731   6.429   6.095  0.6030  1.1730 -1.4025
  355MOL0     H47902  10.628   6.292   6.101  1.9118  0.2169  0.5022
  355MOL0     H47903  10.724   6.365   5.833  0.2119  0.7803 -0.0946
  355MOL0     H47904  10.696   6.207   5.902 -2.5189  1.2770  0.8588
  355MOL0     H47905  10.932   6.381   6.008  1.0303 -1.1567  0.8601
  355MOL0     H47906  10.943   6.258   5.873 -0.8597  0.2221 -0.1887
  355MOL0     H47907   9.811   6.177   5.628  1.8709  0.1966  1.0620
  355MOL0     H47908   9.582   6.214   5.593 -0.4052  2.1547 -2.4840
  355MOL0     H47909   9.236   6.544   5.799 -2.8139  2.3363  2.8030
  355MOL0     H47910   9.010   6.592   5.863 -0.6207  0.1736 -0.9034
  355MOL0     H47911   7.746   5.897   6.955 -0.2217  0.1383 -2.6190
  355MOL0     H47912   7.524   5.816   7.025 -3.4239  0.6358  0.4808
  355MOL0     H47913   7.068   5.682   6.792 -0.5815  1.2475 -0.0348
  355MOL0     H47914   6.891   5.578   6.893  1.3500 -0.0408 -0.5266
  355MOL0     H47915   6.849   5.554   7.335 -0.4727  0.0189  1.6616
  355MOL0     H47916   6.715   5.670   7.292 -0.8232  0.2245 -2.4361
  355MOL0     H47917   6.667   5.412   7.379  3.0830  1.1759  1.2204
  355MOL0     H47918   6.709   5.379   7.209 -2.9547  1.3605 -2.2575
  355MOL0     H47919   6.483   5.376   7.195 -4.3036  1.7380 -0.3220
  355MOL0     H47920   6.533   5.528   7.118  2.5572 -2.3574 -0.5283
  355MOL0     H47921   6.356   5.612   7.291 -0.7353 -0.1458  0.1094
  355MOL0     H47922   6.505   5.621   7.380  0.0057 -1.3174  0.9613
  355MOL0     H47923   6.282   5.288   7.529  1.2061 -1.0936  0.2665
  355MOL0     H47924   6.964   5.750   7.274  2.0178 -1.6618  0.0262
  355MOL0     H47925   7.165   5.860   7.182  1.8568 -3.7203  0.8656
  356MOL0     O47926   1.681   9.980   6.613  0.4339 -0.0278  0.6387
  356MOL0     C47927   1.660   9.864   6.614  0.5064  0.5505 -0.1578
  356MOL0     O47928   1.722   9.775   6.534 -0.6825  1.0235 -0.0434
  356MOL0     C47929   1.812   9.801   6.432  1.7061 -0.0529  0.1590
  356MOL0     C47930   1.795   9.901   6.337 -0.2259 -0.7019  0.2848
  356MOL0     C47931   1.884   9.913   6.229  0.5154 -0.1268 -0.5541
  356MOL0     C47932   1.988   9.820   6.209  0.8894 -0.8725 -0.9636
  356MOL0     O47933   2.085   9.818   6.110  0.4318  0.5237 -0.3199
  356MOL0     C47934   2.095   9.915   6.015 -0.0428  0.1925  0.5608
  356MOL0     C47935   2.239   9.938   5.961  0.2775 -1.0700 -0.5263
  356MOL0     C47936   2.341  10.004   6.054  0.3202 -1.1786  0.4648
  356MOL0     C47937   2.319  10.154   6.081 -0.2337  0.2296 -0.4423
  356MOL0     C47938   2.391  10.207   6.214  0.4661  0.0881 -0.0137
  356MOL0     C47939   2.542  10.165   6.222 -1.1226 -0.2508 -0.4675
  356MOL0     C47940   2.618  10.238   6.108  0.4815  0.2641  0.0054
  356MOL0     C47941   2.757  10.195   6.095  0.2835  0.5550 -0.0798
  356MOL0     N47942   2.844  10.224   6.208  0.2138  0.1159  0.3294
  356MOL0     C47943   2.824  10.308   6.315  0.0975  0.0269  0.3193
  356MOL0     C47944   2.941  10.302   6.377  0.7284 -0.9340 -1.1160
  356MOL0     C47945   2.977  10.384   6.494  0.8798 -0.8472  0.1314
  356MOL0     C47946   2.951  10.528   6.482 -0.4563  0.1705 -0.1237
  356MOL0     C47947   2.996  10.601   6.602 -0.4272  0.2782  0.3489
  356MOL0     C47948   2.956  10.747   6.586  0.3875  0.2751  0.6005
  356MOL0     O47949   2.985  10.807   6.711  0.1317 -0.2048  0.4476
  356MOL0     C47950   3.021  10.942   6.713  0.1935 -0.2438 -0.1666
  356MOL0     C47951   3.139  10.972   6.788 -0.3250  0.3696  1.3225
  356MOL0     C47952   3.184  11.102   6.813 -0.2597 -0.8765 -0.3373
  356MOL0     C47953   3.293  11.129   6.916 -0.5063 -0.3793 -0.1370
  356MOL0     C47954   3.111  11.210   6.748  0.0970 -0.0395 -0.9524
  356MOL0     C47955   3.153  11.360   6.748  0.3267  0.6240  0.6292
  356MOL0     O47956   3.089  11.437   6.645  0.4262 -0.1858  0.3014
  356MOL0     C47957   3.115  11.571   6.615 -0.3610  0.5065 -0.1263
  356MOL0     C47958   3.183  11.664   6.702 -0.8618 -0.2133 -0.2420
  356MOL0     C47959   3.196  11.793   6.656 -0.0057  0.4846 -0.0540
  356MOL0     C47960   3.135  11.833   6.535 -1.0358  0.1327 -0.6410
  356MOL0     O47961   3.165  11.962   6.501  0.0014  0.3198  0.0298
  356MOL0     C47962   3.196  11.995   6.370  1.0441  0.5042 -0.4649
  356MOL0     C47963   3.270  12.124   6.362  0.8562  0.1069 -0.2908
  356MOL0     C47964   3.390  12.147   6.454 -0.0108 -0.5394  0.9875
  356MOL0     C47965   3.407  12.300   6.465  0.0723  0.7251 -1.3369
  356MOL0     C47966   3.445  12.370   6.329  0.2485 -0.6984 -1.2251
  356MOL0     C47967   3.587  12.352   6.278  0.2199 -0.4334 -0.2712
  356MOL0     C47968   3.589  12.419   6.141 -0.0913  0.1619  0.6320
  356MOL0     C47969   3.724  12.401   6.069 -0.5164 -0.5740  0.8557
  356MOL0    Cl47970   3.712  12.221   6.022 -0.1477 -0.1532  0.1484
  356MOL0     C47971   3.051  11.748   6.468 -0.6364 -0.3638  1.7226
  356MOL0     C47972   3.046  11.616   6.502 -0.3668 -0.2172 -0.1034
  356MOL0     O47973   3.246  11.394   6.811  0.7685 -0.4056 -1.0150
  356MOL0     C47974   3.016  11.174   6.655 -1.1844 -0.7429  0.0600
  356MOL0     C47975   2.960  11.051   6.647  0.2033  0.3129  0.5089
  356MOL0     N47976   3.032  10.211   6.313 -0.2535  0.5390 -0.0906
  356MOL0     N47977   2.965  10.168   6.214 -0.1702  0.0314 -0.2595
  356MOL0     C47978   2.002   9.721   6.310 -0.3209 -0.0812 -0.1335
  356MOL0     C47979   1.916   9.716   6.421  0.2615  0.5128  0.8399
  356MOL0     C47980   1.573   9.816   6.723 -0.2883 -0.3498  0.5163
  356MOL0     C47981   1.561   9.680   6.727  0.1938  0.1187 -0.2198
  356MOL0     C47982   1.474   9.628   6.824 -0.5588  0.7996  0.4623
  356MOL0     C47983   1.389   9.706   6.903 -0.4763 -0.0064  0.1116
  356MOL0     O47984   1.273   9.664   6.973  0.2604  0.2434  0.2728
  356MOL0     C47985   1.250   9.518   6.978 -1.1212 -0.5400 -0.9445
  356MOL0     C47986   1.355   9.466   7.080  0.3322  0.2347  0.0065
  356MOL0     C47987   1.288   9.403   7.197 -0.3492 -0.6147  0.2468
  356MOL0     C47988   1.229   9.526   7.276  0.2904 -0.1011  0.3089
  356MOL0     C47989   1.172   9.499   7.413 -0.9836 -0.3957 -0.1144
  356MOL0     C47990   1.143   9.483   7.525 -0.4992  0.3706 -0.8293
  356MOL0     C47991   1.422   9.841   6.900  0.7812 -0.8818  0.6028
  356MOL0     C47992   1.506   9.898   6.810  0.1370  0.8143  0.2805
  356MOL0     H47993   1.715   9.970   6.364  0.4387 -0.6265  2.2336
  356MOL0     H47994   1.878   9.996   6.160 -1.2095 -0.4455 -0.8477
  356MOL0     H47995   2.033   9.893   5.928  1.8770  0.3522 -0.9251
  356MOL0     H47996   2.056  10.012   6.048 -1.4296  1.2698 -3.6650
  356MOL0     H47997   2.286   9.845   5.927  5.0740  0.8291  0.1242
  356MOL0     H47998   2.225   9.993   5.868  4.5296 -0.7042 -1.1830
  356MOL0     H47999   2.368   9.944   6.141  2.9050 -1.8448 -0.7079
  356MOL0     H48000   2.432  10.000   5.994 -0.6264 -0.6221 -1.0616
  356MOL0     H48001   2.345  10.192   5.982 -0.9545 -0.5070 -0.9315
  356MOL0     H48002   2.213  10.172   6.104 -0.2102 -0.9343  0.7033
  356MOL0     H48003   2.363  10.311   6.230 -1.3848 -0.2159 -1.0202
  356MOL0     H48004   2.343  10.158   6.300  2.6364 -0.8915  0.7213
  356MOL0     H48005   2.589  10.193   6.316  1.1126  1.3283 -1.9325
  356MOL0     H48006   2.550  10.057   6.213 -0.0933 -0.4520  2.0816
  356MOL0     H48007   2.567  10.209   6.015 -0.1814 -2.6123  1.1495
  356MOL0     H48008   2.603  10.346   6.108 -0.5071  0.1417  1.0573
  356MOL0     H48009   2.799  10.229   6.000  0.0828 -3.5235 -1.8365
  356MOL0     H48010   2.752  10.086   6.086  0.1510  0.0454  4.1873
  356MOL0     H48011   2.737  10.370   6.331  1.2207  1.8903 -0.4515
  356MOL0     H48012   2.924  10.343   6.581  1.0584 -2.0165 -0.2897
  356MOL0     H48013   3.085  10.367   6.501  0.9027 -0.0765  2.2518
  356MOL0     H48014   2.845  10.552   6.468 -0.2219  0.0907 -2.4102
  356MOL0     H48015   2.990  10.573   6.390 -0.9571  0.8638 -0.0106
  356MOL0     H48016   3.104  10.598   6.620 -0.6438  0.0760  1.7270
  356MOL0     H48017   2.948  10.567   6.695 -1.0373  3.8847  1.4847
  356MOL0     H48018   2.854  10.768   6.552 -0.0565  0.0668  1.7339
  356MOL0     H48019   3.018  10.797   6.511  1.2915 -3.1648 -1.1833
  356MOL0     H48020   3.194  10.888   6.829  0.2524 -0.2600 -0.6164
  356MOL0     H48021   3.361  11.206   6.877  1.7698 -3.3259 -2.4011
  356MOL0     H48022   3.239  11.137   7.011 -1.3068  0.7201 -0.6636
  356MOL0     H48023   3.356  11.042   6.934 -0.1606  0.1743  1.5425
  356MOL0     H48024   3.221  11.636   6.800 -1.0732  1.2050  0.2610
  356MOL0     H48025   3.257  11.865   6.708 -1.8622  1.3767  0.9825
  356MOL0     H48026   3.253  11.908   6.336 -0.8173  0.0879 -2.8107
  356MOL0     H48027   3.097  12.003   6.325  0.6186 -0.1231  0.3241
  356MOL0     H48028   3.293  12.134   6.255  2.7525 -4.9797 -0.6429
  356MOL0     H48029   3.195  12.201   6.381 -0.1179 -1.9377  7.6910
  356MOL0     H48030   3.478  12.086   6.432 -0.7068 -1.9930  2.0867
  356MOL0     H48031   3.370  12.120   6.558 -2.2450  1.3893  1.1683
  356MOL0     H48032   3.320  12.344   6.515 -1.3931 -2.9304 -0.3790
  356MOL0     H48033   3.495  12.316   6.528 -1.4865  1.4797  0.7714
  356MOL0     H48034   3.442  12.477   6.354  1.4244 -0.7030 -1.0233
  356MOL0     H48035   3.375  12.344   6.249  1.0301 -1.5497 -1.6418
  356MOL0     H48036   3.651  12.402   6.352 -0.0634 -4.2341  2.8975
  356MOL0     H48037   3.616  12.247   6.270  0.5491 -0.3200 -0.5954
  356MOL0     H48038   3.565  12.526   6.149 -0.0222  0.3517 -1.3079
  356MOL0     H48039   3.509  12.374   6.082  0.0259 -0.5777  1.0261
  356MOL0     H48040   3.793  12.418   6.152  1.3374 -0.8273 -0.5503
  356MOL0     H48041   3.740  12.476   5.991 -1.1137 -2.3669 -1.1120
  356MOL0     H48042   3.008  11.781   6.374 -3.5345 -2.8292  2.0280
  356MOL0     H48043   2.997  11.538   6.444 -1.1875  0.1537  0.0832
  356MOL0     H48044   2.959  11.250   6.603  2.1559  2.4144  0.6161
  356MOL0     H48045   2.874  11.041   6.582  0.7810 -1.9592  0.0219
  356MOL0     H48046   2.083   9.650   6.319 -0.1786 -0.0932 -1.3799
  356MOL0     H48047   1.934   9.648   6.503  1.6534  4.0417  3.7554
  356MOL0     H48048   1.606   9.622   6.648  2.9991  1.1325  0.5318
  356MOL0     H48049   1.462   9.522   6.802  0.6026  0.9431 -0.9958
  356MOL0     H48050   1.149   9.493   7.013 -0.9941 -0.1436 -0.2637
  356MOL0     H48051   1.261   9.470   6.881  1.3567 -0.5801 -0.6857
  356MOL0     H48052   1.420   9.545   7.119  1.1655 -1.9447  3.4521
  356MOL0     H48053   1.422   9.395   7.031  0.2803  0.3726 -0.2720
  356MOL0     H48054   1.360   9.345   7.255  0.4204  1.0083  0.9827
  356MOL0     H48055   1.203   9.338   7.178 -0.3183 -0.4269 -0.5722
  356MOL0     H48056   1.142   9.564   7.221  0.4827  1.2396  0.8763
  356MOL0     H48057   1.302   9.607   7.285 -2.3092  2.8848 -2.7036
  356MOL0     H48058   1.106   9.460   7.622  1.4724 -3.9883 -0.8544
  356MOL0     H48059   1.374   9.905   6.973  2.2416 -0.2359  1.0484
  356MOL0     H48060   1.530  10.004   6.803  3.0161  0.4330  2.4984
  357MOL0     O48061   9.689   2.960   3.048  0.0668  1.0564 -0.6092
  357MOL0     C48062   9.733   2.855   3.105 -0.1122 -0.2753  0.1840
  357MOL0     O48063   9.773   2.842   3.242 -0.7083 -0.2232 -0.9526
  357MOL0     C48064   9.754   2.940   3.333  0.7527  0.3759 -1.1960
  357MOL0     C48065   9.848   2.948   3.437  0.6560 -0.5811  0.0502
  357MOL0     C48066   9.840   3.048   3.531  0.3801 -0.7041 -0.7023
  357MOL0     C48067   9.727   3.132   3.537 -0.1679  0.2043 -0.3418
  357MOL0     O48068   9.702   3.225   3.636  0.0423 -0.1762  0.9475
  357MOL0     C48069   9.790   3.234   3.748  0.1604  0.6189 -0.1684
  357MOL0     C48070   9.732   3.338   3.840  0.1934 -0.3163 -0.5874
  357MOL0     C48071   9.813   3.337   3.974  0.6485  0.0050 -0.2260
  357MOL0     C48072   9.730   3.413   4.085 -0.4801 -0.2857  0.1743
  357MOL0     C48073   9.821   3.446   4.203  0.0744  0.0134  0.5442
  357MOL0     C48074   9.737   3.568   4.269 -0.3817 -0.0076  0.3091
  357MOL0     C48075   9.611   3.531   4.349  0.6402  0.2813  0.2681
  357MOL0     C48076   9.511   3.654   4.376  0.0464  0.0100  0.9387
  357MOL0     N48077   9.560   3.765   4.455 -1.1869  0.2531 -0.2610
  357MOL0     C48078   9.491   3.834   4.551  0.0264  0.2401 -0.0736
  357MOL0     C48079   9.577   3.909   4.623 -0.2036  1.4293 -1.0221
  357MOL0     C48080   9.555   4.001   4.744 -0.0869 -0.4744  0.1113
  357MOL0     C48081   9.508   4.143   4.713 -0.3889  0.1756  0.5307
  357MOL0     C48082   9.418   4.157   4.590 -0.3790 -0.0314 -0.2012
  357MOL0     C48083   9.363   4.298   4.588  0.1954  0.2579 -0.0611
  357MOL0     O48084   9.250   4.291   4.676 -0.3278 -0.8419 -0.4452
  357MOL0     C48085   9.131   4.340   4.631  0.0716  0.9508 -0.5855
  357MOL0     C48086   9.047   4.396   4.725 -0.0734 -0.4318 -0.3518
  357MOL0     C48087   8.920   4.446   4.694  0.2552 -0.3861 -1.4170
  357MOL0     C48088   8.854   4.510   4.812 -1.2819  0.1598  0.7489
  357MOL0     C48089   8.864   4.423   4.569 -0.2112 -0.0079  0.6671
  357MOL0     C48090   8.725   4.460   4.532  0.3409 -0.0124 -1.0151
  357MOL0     O48091   8.704   4.496   4.398  1.0584 -0.1081 -0.2991
  357MOL0     C48092   8.576   4.541   4.360 -0.6425  0.2377 -0.5727
  357MOL0     C48093   8.462   4.453   4.345 -0.1555 -0.4987 -0.5068
  357MOL0     C48094   8.347   4.495   4.272  0.0767  0.1729  0.9526
  357MOL0     C48095   8.340   4.620   4.216  0.2857  0.3066 -0.0547
  357MOL0     O48096   8.242   4.681   4.141 -0.1872 -0.3481 -0.1826
  357MOL0     C48097   8.104   4.652   4.167  0.0978  0.3566 -0.2124
  357MOL0     C48098   8.035   4.575   4.054  0.7636 -0.0283 -0.6904
  357MOL0     C48099   8.044   4.644   3.920  0.3811 -0.1323 -0.6996
  357MOL0     C48100   7.919   4.631   3.835 -0.4475  0.3635  0.9907
  357MOL0     C48101   7.923   4.718   3.701  0.3695  0.9595 -0.4776
  357MOL0     C48102   8.002   4.638   3.598 -0.8773  0.8126  0.0979
  357MOL0     C48103   7.991   4.694   3.456  0.0519 -0.6397 -1.0784
  357MOL0     C48104   8.100   4.796   3.437 -0.1806  0.3839 -0.3650
  357MOL0    Cl48105   8.257   4.720   3.422 -0.2231 -0.0956 -0.0023
  357MOL0     C48106   8.448   4.696   4.225  0.1045  0.2932 -0.7218
  357MOL0     C48107   8.564   4.665   4.303  0.5078 -0.3218  0.6338
  357MOL0     O48108   8.639   4.447   4.615  0.1394  0.5686  0.2527
  357MOL0     C48109   8.958   4.373   4.471  0.1961 -0.6390 -0.0884
  357MOL0     C48110   9.081   4.323   4.505 -0.2726  0.0553 -0.4842
  357MOL0     N48111   9.704   3.895   4.571  0.5217 -0.7246  0.9406
  357MOL0     N48112   9.687   3.813   4.461 -0.7019  0.1341  0.4380
  357MOL0     C48113   9.628   3.118   3.441  0.2361  0.2652  0.9942
  357MOL0     C48114   9.642   3.024   3.331 -0.1408  0.2821 -0.3430
  357MOL0     C48115   9.764   2.738   3.014  0.2190 -0.3871  0.5881
  357MOL0     C48116   9.717   2.741   2.880 -0.0880  0.0273  0.8012
  357MOL0     C48117   9.770   2.636   2.790  0.0364  0.7043 -0.2446
  357MOL0     C48118   9.855   2.534   2.820 -0.6964 -0.0222  0.0096
  357MOL0     O48119   9.897   2.454   2.713  0.6499 -0.2315 -0.4423
  357MOL0     C48120   9.982   2.343   2.741 -1.1035 -0.6376  0.6208
  357MOL0     C48121  10.127   2.391   2.736  0.3113 -0.3012 -0.1067
  357MOL0     C48122  10.180   2.382   2.597  0.7180  0.2999  0.0124
  357MOL0     C48123  10.316   2.446   2.575  0.0133 -0.4058 -0.4719
  357MOL0     C48124  10.435   2.375   2.615 -0.1690  0.1137 -0.1773
  357MOL0     C48125  10.532   2.310   2.630  0.7518  0.2950 -0.5416
  357MOL0     C48126   9.893   2.531   2.958  0.4403  0.0094 -0.4145
  357MOL0     C48127   9.847   2.627   3.052 -0.5582 -0.4403  0.0552
  357MOL0     H48128   9.936   2.885   3.445 -0.0901 -1.7575 -0.7050
  357MOL0     H48129   9.905   3.057   3.617 -5.1105  0.8479  3.8762
  357MOL0     H48130   9.805   3.142   3.806  1.2207  0.5474 -0.5226
  357MOL0     H48131   9.893   3.253   3.717  0.7144 -2.5846 -0.7026
  357MOL0     H48132   9.738   3.439   3.798 -0.0248  1.0460  2.4055
  357MOL0     H48133   9.628   3.312   3.862  0.3932 -0.6053  0.0376
  357MOL0     H48134   9.826   3.233   4.008  0.6792 -0.3203 -1.1926
  357MOL0     H48135   9.910   3.378   3.946  0.5499  0.2730 -0.1781
  357MOL0     H48136   9.698   3.508   4.040 -0.0229 -0.6012 -0.8325
  357MOL0     H48137   9.648   3.351   4.121  0.7687 -1.3113  1.3462
  357MOL0     H48138   9.824   3.365   4.277  3.6185  0.2891  0.8551
  357MOL0     H48139   9.923   3.480   4.182 -1.2600  3.6794 -0.8326
  357MOL0     H48140   9.806   3.616   4.339  0.3687  2.8579 -2.2022
  357MOL0     H48141   9.720   3.650   4.199  0.7955  2.9062  3.1442
  357MOL0     H48142   9.552   3.462   4.288 -0.0125  1.0892 -0.0314
  357MOL0     H48143   9.641   3.480   4.441 -0.8439  1.1356  1.2614
  357MOL0     H48144   9.415   3.618   4.414  0.0191 -3.2176 -1.7243
  357MOL0     H48145   9.487   3.703   4.281 -0.3871 -2.3146 -0.2183
  357MOL0     H48146   9.388   3.816   4.578  0.9128 -5.6356  0.6513
  357MOL0     H48147   9.491   3.959   4.822 -3.8617  2.9182 -0.8526
  357MOL0     H48148   9.654   4.017   4.789  0.2395 -0.4137 -0.6164
  357MOL0     H48149   9.601   4.189   4.681  1.2912 -1.8802  2.1330
  357MOL0     H48150   9.457   4.192   4.796 -2.2550  0.1313 -0.5357
  357MOL0     H48151   9.332   4.092   4.607  0.7793 -1.7095 -0.5442
  357MOL0     H48152   9.475   4.135   4.499  0.8997  3.7765 -0.4763
  357MOL0     H48153   9.341   4.318   4.483  0.3543 -1.2381 -0.3996
  357MOL0     H48154   9.442   4.361   4.630  2.1747 -2.4403  0.5439
  357MOL0     H48155   9.090   4.401   4.825  0.0657  0.9866 -0.4723
  357MOL0     H48156   8.919   4.522   4.900 -1.6122 -2.5652  1.4511
  357MOL0     H48157   8.833   4.616   4.794  1.4795  0.3610 -2.2595
  357MOL0     H48158   8.762   4.453   4.825 -1.6456 -0.3288 -2.9898
  357MOL0     H48159   8.470   4.355   4.393  2.2761 -0.1226 -0.0024
  357MOL0     H48160   8.269   4.420   4.260  0.2161  0.2961 -1.0505
  357MOL0     H48161   8.094   4.583   4.251 -1.0853 -0.4888 -1.0204
  357MOL0     H48162   8.039   4.734   4.200 -1.2860 -1.0275  0.5966
  357MOL0     H48163   8.060   4.470   4.043  0.9884  0.0226 -0.6785
  357MOL0     H48164   7.928   4.583   4.076  0.9645  3.0839 -0.3679
  357MOL0     H48165   8.129   4.595   3.873  1.2783 -1.2727  1.9086
  357MOL0     H48166   8.061   4.750   3.939 -1.9049  0.6421 -2.5540
  357MOL0     H48167   7.890   4.529   3.811 -0.6681  0.5159  0.5947
  357MOL0     H48168   7.834   4.665   3.894 -0.9964  2.8673 -1.0387
  357MOL0     H48169   7.958   4.820   3.722 -0.2171  0.7187  2.0531
  357MOL0     H48170   7.822   4.739   3.663 -0.1307 -2.9190 -1.7189
  357MOL0     H48171   8.103   4.623   3.635 -1.3677 -2.7156  0.3471
  357MOL0     H48172   7.964   4.536   3.605  2.1135 -0.3052  1.6162
  357MOL0     H48173   7.896   4.744   3.440 -0.0660 -1.0042 -1.5553
  357MOL0     H48174   7.997   4.613   3.382 -2.5348 -0.0470 -2.0264
  357MOL0     H48175   8.101   4.875   3.512 -0.4268  0.0082  0.0397
  357MOL0     H48176   8.068   4.836   3.341 -4.6777 -0.2950  0.6218
  357MOL0     H48177   8.446   4.788   4.167 -0.6925 -0.2401 -1.5729
  357MOL0     H48178   8.641   4.741   4.305  0.5350 -0.3276  0.0515
  357MOL0     H48179   8.922   4.351   4.371 -0.9875 -2.3186  0.6458
  357MOL0     H48180   9.143   4.273   4.431  1.3446  0.8747  0.2628
  357MOL0     H48181   9.524   3.149   3.452 -0.5791 -2.8488  3.4139
  357MOL0     H48182   9.558   3.010   3.265 -0.4535  0.5745 -0.0126
  357MOL0     H48183   9.647   2.805   2.828  1.1784 -1.7919 -3.5819
  357MOL0     H48184   9.728   2.637   2.689 -2.4174 -2.0988  0.6048
  357MOL0     H48185   9.960   2.293   2.836 -0.5657 -1.2564  0.4235
  357MOL0     H48186   9.965   2.262   2.670  0.8961  0.7170 -1.5086
  357MOL0     H48187  10.181   2.326   2.805 -2.4209 -1.4208  1.1012
  357MOL0     H48188  10.125   2.493   2.775 -1.1889 -0.6581  0.7930
  357MOL0     H48189  10.104   2.425   2.532  0.0348  2.1168  1.9191
  357MOL0     H48190  10.190   2.277   2.568 -1.5040  0.1397 -0.3169
  357MOL0     H48191  10.323   2.538   2.634 -1.4236 -0.9735  0.6355
  357MOL0     H48192  10.316   2.483   2.472 -1.2521 -0.9316 -0.6783
  357MOL0     H48193  10.619   2.247   2.632  0.0981 -0.6377 -1.1867
  357MOL0     H48194   9.955   2.444   2.980 -0.5265 -0.8362 -0.9281
  357MOL0     H48195   9.875   2.612   3.156 -1.9824  3.7167  1.2365
  358MOL0     O48196  10.457  10.474   9.041  0.0433  0.4412  0.5011
  358MOL0     C48197  10.550  10.415   9.080 -0.9244  0.1599 -1.2919
  358MOL0     O48198  10.543  10.307   9.168 -0.2047  0.4636  0.1109
  358MOL0     C48199  10.424  10.272   9.223  0.7409  0.4250  0.2687
  358MOL0     C48200  10.392  10.323   9.350  0.3537  0.2403 -0.4352
  358MOL0     C48201  10.269  10.292   9.411 -1.1634 -0.2502  0.3618
  358MOL0     C48202  10.183  10.202   9.347 -0.3904  0.3074 -0.5513
  358MOL0     O48203  10.062  10.163   9.387  0.9397 -0.0685  1.6914
  358MOL0     C48204   9.998  10.220   9.504  0.3686 -0.5226 -0.2911
  358MOL0     C48205   9.854  10.155   9.534  0.5327 -0.4071 -0.5987
  358MOL0     C48206   9.861  10.001   9.545  1.2252 -0.3452  0.7838
  358MOL0     C48207   9.831   9.928   9.413  0.3702 -0.8441 -0.4326
  358MOL0     C48208   9.839   9.777   9.441 -0.6263  0.1573  0.0767
  358MOL0     C48209   9.746   9.700   9.343  0.6187  0.1126  0.0050
  358MOL0     C48210   9.791   9.711   9.191 -0.2918 -0.3751  0.0265
  358MOL0     C48211   9.935   9.656   9.159 -0.4894  0.3498 -0.3512
  358MOL0     N48212   9.972   9.674   9.018  0.3722 -0.4973  0.1456
  358MOL0     C48213   9.974   9.798   8.953 -0.7654  0.1433  0.4231
  358MOL0     C48214  10.018   9.781   8.822 -0.1818  1.4021  0.5204
  358MOL0     C48215  10.025   9.885   8.711  1.0455 -0.7039 -0.2946
  358MOL0     C48216  10.139   9.998   8.735 -0.6057  0.7529 -0.5439
  358MOL0     C48217  10.245   9.965   8.836 -0.7582  0.3861  0.0725
  358MOL0     C48218  10.337   9.851   8.776 -0.9936 -0.0041 -0.7876
  358MOL0     O48219  10.451   9.839   8.875  0.8746  1.0784 -0.4547
  358MOL0     C48220  10.429   9.773   8.997 -0.5014 -0.3834  0.7121
  358MOL0     C48221  10.495   9.815   9.117  0.3071  0.1561 -0.9351
  358MOL0     C48222  10.467   9.775   9.244 -0.6989  0.2373 -0.5140
  358MOL0     C48223  10.520   9.854   9.365  1.7427 -0.0210 -1.4630
  358MOL0     C48224  10.372   9.680   9.258 -0.6271  0.6157  0.4366
  358MOL0     C48225  10.320   9.631   9.388  0.2031  0.4831  0.2403
  358MOL0     O48226  10.393   9.643   9.499  0.4645  0.5876  0.1343
  358MOL0     C48227  10.341   9.599   9.621  0.5347  0.5426 -0.1504
  358MOL0     C48228  10.201   9.628   9.648  0.1107 -0.1684 -0.5143
  358MOL0     C48229  10.148   9.588   9.772  0.8168  0.0163  0.1899
  358MOL0     C48230  10.227   9.525   9.865 -1.1325  0.3074  0.5946
  358MOL0     O48231  10.176   9.477   9.981  0.7771 -0.6836 -0.0173
  358MOL0     C48232  10.077   9.567  10.048 -0.5547 -0.0873 -0.1566
  358MOL0     C48233  10.089   9.543  10.199  0.7221 -0.1965  0.8684
  358MOL0     C48234  10.045   9.673  10.280  0.2079 -0.4704  0.8592
  358MOL0     C48235  10.033   9.655  10.429 -0.5651 -0.0781 -0.3301
  358MOL0     C48236   9.942   9.763  10.483  0.9306 -0.4584 -0.4507
  358MOL0     C48237   9.932   9.773  10.638 -0.1109  0.1589 -0.3276
  358MOL0     C48238   9.882   9.906  10.688  0.1069  0.1211 -0.6701
  358MOL0     C48239   9.872   9.903  10.847  1.2260 -0.1520 -0.3901
  358MOL0    Cl48240  10.041   9.867  10.915  0.2219 -0.1315 -0.0297
  358MOL0     C48241  10.359   9.499   9.841 -0.1978  0.2247 -0.2216
  358MOL0     C48242  10.422   9.534   9.721 -0.0353 -0.2783  1.5858
  358MOL0     O48243  10.211   9.575   9.384  0.1092  0.6553  0.0174
  358MOL0     C48244  10.319   9.618   9.142  0.2069  0.3726  0.6875
  358MOL0     C48245  10.339   9.674   9.016 -0.3724  0.3792  0.3174
  358MOL0     N48246  10.044   9.639   8.811  0.2176 -0.5149  0.4685
  358MOL0     N48247  10.007   9.586   8.923 -0.2751  0.8786  0.4285
  358MOL0     C48248  10.227  10.139   9.237 -0.6172 -0.3832 -0.4811
  358MOL0     C48249  10.338  10.183   9.161  0.3400 -0.3571 -0.1667
  358MOL0     C48250  10.687  10.438   9.030 -0.3228 -0.8685  1.0911
  358MOL0     C48251  10.776  10.332   9.018  0.9025  0.8791 -0.9160
  358MOL0     C48252  10.903  10.363   8.965  0.1723  0.6475 -0.3476
  358MOL0     C48253  10.945  10.487   8.933  0.2009  0.3605 -0.0896
  358MOL0     O48254  11.072  10.513   8.891 -0.0286 -0.2369 -0.1902
  358MOL0     C48255  11.173  10.453   8.982  0.3564 -0.0781 -0.5754
  358MOL0     C48256  11.312  10.494   8.943  0.3910  0.4554  0.0704
  358MOL0     C48257  11.340  10.644   8.986 -0.3874  0.6928  0.8562
  358MOL0     C48258  11.481  10.672   8.929  0.7560  1.3633 -0.0005
  358MOL0     C48259  11.596  10.614   8.992 -0.1223 -0.0754  0.2173
  358MOL0     C48260  11.692  10.556   9.034 -0.1074 -0.1830  0.0209
  358MOL0     C48261  10.859  10.591   8.962  0.2365 -0.6443  1.2660
  358MOL0     C48262  10.733  10.568   8.994  0.4017 -0.0713  0.5104
  358MOL0     H48263  10.453  10.403   9.390  4.6781 -2.7476 -0.3511
  358MOL0     H48264  10.236  10.347   9.499  1.6630 -1.9682  2.6335
  358MOL0     H48265  10.074  10.213   9.582 -1.0192  2.4383  1.4943
  358MOL0     H48266   9.985  10.327   9.491  1.8355 -0.1303  1.1919
  358MOL0     H48267   9.807  10.197   9.623  1.2533 -1.5484  0.3536
  358MOL0     H48268   9.786  10.184   9.453 -1.8099  1.3878  1.8405
  358MOL0     H48269   9.955   9.973   9.593  1.2532  0.6684  1.3560
  358MOL0     H48270   9.781   9.977   9.616  0.5040 -2.1344 -0.5695
  358MOL0     H48271   9.732   9.961   9.382  0.5005  2.9582  2.4013
  358MOL0     H48272   9.911   9.956   9.345  3.4827 -0.1645  3.1536
  358MOL0     H48273   9.945   9.750   9.439 -0.7409 -1.1223  3.6008
  358MOL0     H48274   9.804   9.744   9.540  0.3005 -0.6154  0.1579
  358MOL0     H48275   9.743   9.595   9.373 -3.7404 -0.6656 -2.2155
  358MOL0     H48276   9.645   9.739   9.363  1.3678  1.8000  0.6602
  358MOL0     H48277   9.719   9.659   9.127 -4.0645  0.7131  2.9735
  358MOL0     H48278   9.806   9.815   9.160  1.0803 -0.4644  0.3337
  358MOL0     H48279   9.951   9.550   9.183 -0.2016  0.4926  0.0909
  358MOL0     H48280  10.009   9.697   9.229 -0.1668  0.7721 -0.9311
  358MOL0     H48281   9.948   9.896   8.991 -2.4266 -0.0467 -0.1691
  358MOL0     H48282  10.063   9.841   8.618  3.2609 -4.4854  2.1479
  358MOL0     H48283   9.924   9.924   8.698  1.6841  2.5211  2.7878
  358MOL0     H48284  10.093  10.090   8.772 -2.9121  0.5377 -2.6005
  358MOL0     H48285  10.181  10.034   8.640  2.7756  2.8812  1.5478
  358MOL0     H48286  10.199   9.932   8.930 -1.2125 -1.9576 -0.8965
  358MOL0     H48287  10.308  10.052   8.855 -1.5009  0.8407  0.4948
  358MOL0     H48288  10.370   9.891   8.679  0.2852 -2.3583 -1.4025
  358MOL0     H48289  10.293   9.752   8.763 -0.0887 -1.2172  3.6269
  358MOL0     H48290  10.574   9.887   9.099 -0.1202  0.9105  0.1473
  358MOL0     H48291  10.560   9.950   9.331 -0.3153  0.8221 -1.6529
  358MOL0     H48292  10.444   9.877   9.441  1.5494 -0.9076 -1.3771
  358MOL0     H48293  10.595   9.794   9.417  3.7040  2.3435 -1.4394
  358MOL0     H48294  10.140   9.689   9.582  0.7144  0.0408 -0.8857
  358MOL0     H48295  10.042   9.609   9.787 -0.0888  0.7132 -5.0604
  358MOL0     H48296  10.110   9.669  10.024 -0.3968 -0.0710  0.1275
  358MOL0     H48297   9.979   9.544  10.004  0.5795 -2.5785 -1.6066
  358MOL0     H48298  10.033   9.451  10.215 -1.7097  1.1508  0.5512
  358MOL0     H48299  10.195   9.531  10.225  0.5835 -0.3090  1.3978
  358MOL0     H48300   9.951   9.707  10.235  1.0662  1.9698  0.7278
  358MOL0     H48301  10.126   9.746  10.268  0.3932 -0.6307  1.1172
  358MOL0     H48302   9.998   9.552  10.446 -0.7501  0.0706  0.1903
  358MOL0     H48303  10.132   9.646  10.474  0.2154 -0.2151 -2.0249
  358MOL0     H48304   9.842   9.745  10.443  0.8476 -1.7199  0.2644
  358MOL0     H48305   9.998   9.849  10.447  2.8804 -0.5522  2.1143
  358MOL0     H48306   9.872   9.691  10.678  0.2553  1.0971  2.4029
  358MOL0     H48307  10.032   9.759  10.681 -1.2115  2.6908  3.7072
  358MOL0     H48308   9.780   9.926  10.655 -0.7636  1.7406  2.6305
  358MOL0     H48309   9.949   9.988  10.660 -1.7440  0.7521 -3.7436
  358MOL0     H48310   9.793   9.839  10.886 -0.6011  2.1410 -0.1154
  358MOL0     H48311   9.842   9.999  10.889  0.4106 -0.9281  0.8659
  358MOL0     H48312  10.410   9.444   9.919 -2.1117  0.0480  0.9496
  358MOL0     H48313  10.528   9.516   9.706 -0.4586 -3.1509  1.5131
  358MOL0     H48314  10.257   9.531   9.160 -1.7640  1.7059  0.7119
  358MOL0     H48315  10.286   9.630   8.932 -2.1268  1.2848  0.8935
  358MOL0     H48316  10.163  10.062   9.196 -4.3001  2.5945 -0.9541
  358MOL0     H48317  10.363  10.154   9.059 -0.5646  0.7762 -0.7240
  358MOL0     H48318  10.749  10.233   9.053 -1.8926  2.5362  2.1889
  358MOL0     H48319  10.973  10.284   8.942 -3.1380 -2.6231 -0.2378
  358MOL0     H48320  11.149  10.478   9.086  3.6295  3.3928 -0.4529
  358MOL0     H48321  11.163  10.344   8.977  4.2271 -0.6053  0.0822
  358MOL0     H48322  11.311  10.475   8.835  1.6325 -2.7196  0.4987
  358MOL0     H48323  11.381  10.426   8.993  1.8028  1.2818 -0.6969
  358MOL0     H48324  11.336  10.643   9.095  1.3630 -0.3514  0.9462
  358MOL0     H48325  11.271  10.718   8.944  0.1866  1.1950  0.7804
  358MOL0     H48326  11.505  10.779   8.937 -0.6384  1.5558  2.1306
  358MOL0     H48327  11.486  10.649   8.822  1.7703 -1.2875  0.5393
  358MOL0     H48328  11.772  10.504   9.083 -1.1098 -1.7837  0.0621
  358MOL0     H48329  10.893  10.693   8.950  0.2553 -0.9123 -1.6973
  358MOL0     H48330  10.673  10.655   9.017 -0.1341 -0.4154  0.4240
  359MOL0     O48331  10.236   4.529   8.455 -0.3871  0.3091  0.0463
  359MOL0     C48332  10.257   4.650   8.471  0.3576 -0.2859  0.4579
  359MOL0     O48333  10.265   4.716   8.590 -0.2216  0.0934  0.3455
  359MOL0     C48334  10.271   4.633   8.696 -0.1047  0.1040  0.5586
  359MOL0     C48335  10.189   4.649   8.805  0.2423 -0.1906 -1.1240
  359MOL0     C48336  10.204   4.560   8.919  0.2378  0.7136  0.6428
  359MOL0     C48337  10.290   4.451   8.917 -0.6049 -0.5414  0.9507
  359MOL0     O48338  10.302   4.368   9.026  0.5324 -0.1255 -0.7370
  359MOL0     C48339  10.186   4.282   9.056 -1.2208  0.9073  0.1559
  359MOL0     C48340  10.134   4.182   8.952 -1.1751  0.7555  0.9244
  359MOL0     C48341  10.256   4.088   8.913  0.2795 -0.2657  0.1576
  359MOL0     C48342  10.209   3.958   8.855 -0.4167 -0.7582 -0.2341
  359MOL0     C48343  10.135   3.881   8.959 -1.0204  0.3739 -0.6698
  359MOL0     C48344  10.109   3.740   8.915 -1.1235 -0.5827 -0.3134
  359MOL0     C48345  10.248   3.666   8.936 -0.5737  1.0088 -0.7439
  359MOL0     C48346  10.222   3.514   8.932  0.6515  0.2944  0.1347
  359MOL0     N48347  10.207   3.474   8.791  0.0843  0.4708  0.2746
  359MOL0     C48348  10.080   3.467   8.746  1.3617  0.2523  0.6378
  359MOL0     C48349  10.081   3.455   8.616 -0.8768  0.5923  0.9793
  359MOL0     C48350   9.965   3.462   8.526 -0.1883 -0.4590 -0.4337
  359MOL0     C48351   9.977   3.602   8.455 -0.3647  0.1444 -0.3804
  359MOL0     C48352   9.987   3.730   8.551  0.7978 -0.0393  0.6829
  359MOL0     C48353   9.943   3.864   8.473 -0.0221 -0.2094  1.0405
  359MOL0     O48354   9.989   3.970   8.552 -0.0420 -0.2350  0.5327
  359MOL0     C48355   9.955   4.093   8.501 -0.3061 -0.3690  0.5545
  359MOL0     C48356   9.941   4.199   8.595  1.1672 -1.1029 -0.0671
  359MOL0     C48357   9.889   4.331   8.564  0.4346 -0.1938 -0.7868
  359MOL0     C48358   9.859   4.412   8.694  0.4349  0.2173 -0.2202
  359MOL0     C48359   9.861   4.370   8.433  0.3407 -0.1236  0.5351
  359MOL0     C48360   9.808   4.503   8.383 -1.1806  0.1317 -0.3244
  359MOL0     O48361   9.832   4.548   8.256  0.4415 -0.0101  0.1696
  359MOL0     C48362   9.765   4.656   8.209 -0.3463  0.2893 -0.4484
  359MOL0     C48363   9.842   4.755   8.144  0.4354  0.0753 -0.3277
  359MOL0     C48364   9.779   4.851   8.063 -0.2347  0.2564 -1.7335
  359MOL0     C48365   9.635   4.839   8.046  0.2150 -0.0882 -0.5331
  359MOL0     O48366   9.585   4.949   7.973  0.3423  0.7672  0.0878
  359MOL0     C48367   9.442   4.963   7.956  0.2841 -0.1488 -0.7917
  359MOL0     C48368   9.406   5.097   7.882  0.3463  0.0683 -0.9330
  359MOL0     C48369   9.422   5.077   7.733 -0.6078 -0.2418  0.6827
  359MOL0     C48370   9.455   5.220   7.669  0.7326  0.1649  0.6188
  359MOL0     C48371   9.592   5.271   7.689 -1.0485 -0.4309 -0.3318
  359MOL0     C48372   9.626   5.394   7.599  0.4365 -1.0082  0.2456
  359MOL0     C48373   9.782   5.398   7.604 -0.4530 -0.3721  0.2747
  359MOL0     C48374   9.822   5.548   7.572 -0.3252  0.1898 -0.2515
  359MOL0    Cl48375   9.779   5.611   7.409  0.1078  0.0933 -0.0080
  359MOL0     C48376   9.566   4.742   8.117  0.7839  0.3674  0.3417
  359MOL0     C48377   9.626   4.646   8.186  0.1942  0.8751 -0.6406
  359MOL0     O48378   9.754   4.567   8.470  0.1156 -0.2330  0.4501
  359MOL0     C48379   9.890   4.267   8.334  0.9580  0.4850  0.1686
  359MOL0     C48380   9.923   4.131   8.366  0.6046  0.5544  0.0469
  359MOL0     N48381  10.220   3.449   8.583 -0.2561  0.3277  0.0719
  359MOL0     N48382  10.300   3.454   8.689  0.5441 -0.1570 -0.6165
  359MOL0     C48383  10.382   4.448   8.816 -0.6469  0.2963 -0.0445
  359MOL0     C48384  10.371   4.535   8.710 -0.0732  0.5442  0.8078
  359MOL0     C48385  10.252   4.731   8.348  0.1128 -0.1812  0.4811
  359MOL0     C48386  10.264   4.862   8.355  0.4791 -0.1496  0.0365
  359MOL0     C48387  10.269   4.945   8.237 -0.2970  0.1053  0.9508
  359MOL0     C48388  10.257   4.893   8.114  0.3351 -0.1551  0.6664
  359MOL0     O48389  10.261   4.970   8.000 -0.4672 -0.7560  0.6451
  359MOL0     C48390  10.378   4.969   7.926 -0.4287  0.2581  0.0994
  359MOL0     C48391  10.488   5.034   7.998  0.2365 -0.0312 -0.5759
  359MOL0     C48392  10.479   5.187   8.010  0.6614 -0.1459 -0.2516
  359MOL0     C48393  10.609   5.243   8.066  0.1911 -0.4402 -0.1771
  359MOL0     C48394  10.583   5.348   8.170  0.1509  0.3979  0.6770
  359MOL0     C48395  10.582   5.432   8.252 -0.0936  0.1212 -0.6865
  359MOL0     C48396  10.230   4.751   8.107 -0.0286  0.3553 -0.7287
  359MOL0     C48397  10.231   4.666   8.222 -0.5328 -1.0145  0.0745
  359MOL0     H48398  10.120   4.733   8.813  0.2269 -0.3372  4.4986
  359MOL0     H48399  10.133   4.568   9.001  1.8246 -0.9619  2.3103
  359MOL0     H48400  10.224   4.225   9.141  2.0127 -0.4280 -1.9568
  359MOL0     H48401  10.109   4.350   9.091 -2.4547 -0.0071 -0.6953
  359MOL0     H48402  10.044   4.128   8.982 -0.3231 -1.1765  0.1829
  359MOL0     H48403  10.108   4.233   8.859  3.1768 -0.0292 -0.9728
  359MOL0     H48404  10.326   4.135   8.844  1.8890 -1.3367  0.9842
  359MOL0     H48405  10.308   4.062   9.006  1.6292  1.8646  0.0671
  359MOL0     H48406  10.142   3.986   8.773 -1.4078 -1.4530  0.3164
  359MOL0     H48407  10.297   3.909   8.814  1.9414  3.6577 -1.0125
  359MOL0     H48408  10.172   3.882   9.062 -1.7945  2.4489 -0.3702
  359MOL0     H48409  10.039   3.928   8.979 -1.9773 -1.9147  0.4909
  359MOL0     H48410  10.023   3.701   8.969 -1.3150 -0.7265 -0.7237
  359MOL0     H48411  10.085   3.751   8.809 -0.1994 -0.2172 -0.4993
  359MOL0     H48412  10.332   3.695   8.872 -1.2062 -0.9357 -2.5552
  359MOL0     H48413  10.284   3.695   9.035  0.8568 -0.1463 -0.8939
  359MOL0     H48414  10.126   3.481   8.973 -0.8251 -0.7707 -3.7454
  359MOL0     H48415  10.310   3.463   8.972 -1.2990 -1.5087  2.4089
  359MOL0     H48416   9.987   3.493   8.794  2.0960  1.9524  1.1939
  359MOL0     H48417   9.951   3.384   8.450 -1.1340 -2.7856  1.9671
  359MOL0     H48418   9.876   3.459   8.589 -0.8196  1.4945 -1.1670
  359MOL0     H48419   9.893   3.614   8.386 -0.2449  0.0770 -0.5376
  359MOL0     H48420  10.063   3.598   8.387 -1.7328  0.0325 -2.1887
  359MOL0     H48421  10.086   3.742   8.597 -0.0987 -1.8105  3.3353
  359MOL0     H48422   9.918   3.714   8.635 -0.0481 -1.3665 -0.2243
  359MOL0     H48423   9.838   3.869   8.442  0.1567  2.0256  0.6169
  359MOL0     H48424  10.000   3.856   8.379 -2.7200  0.3170 -0.7551
  359MOL0     H48425   9.965   4.175   8.698  2.6905  0.7579  0.0699
  359MOL0     H48426   9.751   4.418   8.705  0.6940  1.6273  2.1271
  359MOL0     H48427   9.893   4.375   8.791 -0.4525  0.4898  0.2039
  359MOL0     H48428   9.894   4.516   8.688 -0.2159  0.4601  0.1957
  359MOL0     H48429   9.949   4.766   8.154  0.6074 -1.4899 -0.0896
  359MOL0     H48430   9.830   4.935   8.018  0.5559 -0.3934 -2.0786
  359MOL0     H48431   9.406   4.881   7.893 -1.2969  1.1814 -1.7421
  359MOL0     H48432   9.384   4.965   8.048  1.6156  0.9382  0.0638
  359MOL0     H48433   9.302   5.119   7.908  1.0522  1.7924  0.6045
  359MOL0     H48434   9.475   5.169   7.926 -1.4420  1.4756 -0.3084
  359MOL0     H48435   9.328   5.038   7.692  0.0934  0.7220 -2.0428
  359MOL0     H48436   9.505   5.008   7.720  1.8710  2.6912 -0.2645
  359MOL0     H48437   9.435   5.207   7.562 -1.7712  3.2395  0.5741
  359MOL0     H48438   9.387   5.296   7.707 -0.3835 -1.6520  2.5098
  359MOL0     H48439   9.664   5.189   7.687 -0.6242 -0.0521 -0.7424
  359MOL0     H48440   9.593   5.304   7.793 -1.2123  1.4872 -0.9013
  359MOL0     H48441   9.595   5.389   7.494  2.7401  0.4986 -0.5735
  359MOL0     H48442   9.582   5.487   7.635 -2.3921 -0.0479 -4.7605
  359MOL0     H48443   9.830   5.327   7.536  1.9436 -0.1025  1.5765
  359MOL0     H48444   9.807   5.374   7.707  2.2875 -0.5412 -0.3417
  359MOL0     H48445   9.931   5.555   7.571 -0.4203  3.3592  0.6482
  359MOL0     H48446   9.782   5.616   7.648 -0.5304  3.5479 -3.1289
  359MOL0     H48447   9.458   4.739   8.107  1.0080 -0.8365 -2.7096
  359MOL0     H48448   9.565   4.564   8.223 -0.1766  2.1824  1.9141
  359MOL0     H48449   9.868   4.297   8.232  1.9299  0.9943  0.0947
  359MOL0     H48450   9.942   4.054   8.292  1.0164 -2.1710  2.7725
  359MOL0     H48451  10.442   4.358   8.825 -2.2044 -0.5609  4.1198
  359MOL0     H48452  10.434   4.517   8.623 -3.0332  3.7983 -2.3831
  359MOL0     H48453  10.298   4.904   8.449  0.9037 -0.8595  0.2115
  359MOL0     H48454  10.302   5.048   8.251  2.0159 -0.2153 -1.1977
  359MOL0     H48455  10.400   4.862   7.913 -0.4798  0.2221  0.3116
  359MOL0     H48456  10.371   5.020   7.830 -2.6983 -1.2004 -0.5970
  359MOL0     H48457  10.581   5.003   7.950  1.4217  1.1448  0.8324
  359MOL0     H48458  10.492   4.993   8.100  1.2411  2.3993  0.4607
  359MOL0     H48459  10.391   5.213   8.068  0.6160 -0.9647  0.0461
  359MOL0     H48460  10.452   5.223   7.910  1.4460  1.4703  0.0713
  359MOL0     H48461  10.661   5.282   7.978 -0.7097  2.2711  0.3904
  359MOL0     H48462  10.666   5.166   8.118  1.1412 -0.9562 -1.9221
  359MOL0     H48463  10.582   5.498   8.336 -1.8909 -0.4627 -0.1818
  359MOL0     H48464  10.227   4.715   8.005  2.3440  0.5733 -0.9389
  359MOL0     H48465  10.221   4.562   8.191 -0.0772 -1.3999  1.1754
  360MOL0     O48466   1.291   7.298  11.414  0.0473 -0.4154 -0.2184
  360MOL0     C48467   1.404   7.291  11.364 -0.0936 -0.3264 -1.1072
  360MOL0     O48468   1.434   7.238  11.249 -0.0260  0.1507  0.1520
  360MOL0     C48469   1.330   7.193  11.171  0.0411 -0.6250  0.2910
  360MOL0     C48470   1.203   7.260  11.159 -1.3847  0.3118 -0.3577
  360MOL0     C48471   1.110   7.193  11.088  0.1695 -0.1355 -1.0812
  360MOL0     C48472   1.138   7.080  11.013  0.1235  0.5810  0.1168
  360MOL0     O48473   1.043   7.013  10.941  0.5984  0.5175  0.9128
  360MOL0     C48474   0.903   7.012  10.985  0.7552  0.0189  0.0492
  360MOL0     C48475   0.854   6.860  10.976 -0.6468  0.9647  0.5629
  360MOL0     C48476   0.715   6.841  10.932 -0.1006  0.4985  0.6076
  360MOL0     C48477   0.696   6.711  10.852  0.7289 -0.0279 -0.0559
  360MOL0     C48478   0.551   6.659  10.856  0.2387  0.2808  0.1874
  360MOL0     C48479   0.524   6.556  10.737 -0.5567 -0.5195  0.4202
  360MOL0     C48480   0.395   6.474  10.778 -0.6116  0.4469  0.2513
  360MOL0     C48481   0.295   6.457  10.657 -0.2354 -0.5245 -0.1947
  360MOL0     N48482   0.167   6.408  10.703 -0.1334 -0.4785 -1.2694
  360MOL0     C48483   0.137   6.326  10.813  0.0214  0.1048 -0.0227
  360MOL0     C48484   0.000   6.306  10.816 -0.5114 -0.7388 -0.4494
  360MOL0     C48485  -0.063   6.235  10.938 -0.3266 -0.2248  0.1885
  360MOL0     C48486  -0.128   6.338  11.044  0.5602  0.6133 -0.0128
  360MOL0     C48487  -0.203   6.268  11.159 -0.1975  0.2851 -0.5473
  360MOL0     C48488  -0.274   6.362  11.250  1.2789 -0.7620 -0.3655
  360MOL0     O48489  -0.328   6.298  11.364 -0.0715 -0.1101 -0.2486
  360MOL0     C48490  -0.252   6.272  11.473 -0.5294  0.5238  0.4420
  360MOL0     C48491  -0.108   6.277  11.481  1.1274  0.4432 -0.6020
  360MOL0     C48492  -0.038   6.245  11.600 -0.6461  0.2274  0.5261
  360MOL0     C48493   0.113   6.254  11.598  0.0818  0.4207 -0.1758
  360MOL0     C48494  -0.114   6.208  11.715  0.5906  0.2255  0.2126
  360MOL0     C48495  -0.065   6.162  11.842  0.6260  0.4526  0.1051
  360MOL0     O48496   0.065   6.116  11.855 -0.1693  0.0721 -0.2319
  360MOL0     C48497   0.106   6.073  11.978  0.6849 -0.2817  0.5346
  360MOL0     C48498   0.141   6.162  12.082 -0.1095  0.0189 -0.2546
  360MOL0     C48499   0.201   6.123  12.209 -0.2875  0.1151 -0.1025
  360MOL0     C48500   0.214   5.986  12.235 -0.0319 -0.5580 -0.3138
  360MOL0     O48501   0.251   5.951  12.364  0.6512  0.1770  0.2923
  360MOL0     C48502   0.173   5.999  12.475 -0.4596  0.6519  0.3879
  360MOL0     C48503   0.270   6.012  12.593 -0.4891 -0.2046 -0.3125
  360MOL0     C48504   0.327   5.874  12.635  0.2856  0.5620 -1.0031
  360MOL0     C48505   0.433   5.894  12.749  0.3268 -0.5438  0.2652
  360MOL0     C48506   0.470   5.759  12.810 -0.0786 -0.9645  0.8909
  360MOL0     C48507   0.589   5.784  12.901  0.2161 -0.4993  0.0659
  360MOL0     C48508   0.610   5.678  13.006 -0.2505  0.1038  0.5613
  360MOL0     C48509   0.605   5.532  12.955  0.4495 -0.0173 -0.0680
  360MOL0    Cl48510   0.649   5.434  13.093 -0.0126  0.2265 -0.7350
  360MOL0     C48511   0.186   5.896  12.133 -0.2300 -0.1520 -0.0917
  360MOL0     C48512   0.144   5.941  12.004 -0.2878  0.8240  0.4822
  360MOL0     O48513  -0.135   6.193  11.936 -0.2870 -0.1339  0.3336
  360MOL0     C48514  -0.254   6.215  11.707 -0.2546 -0.2837 -0.0033
  360MOL0     C48515  -0.320   6.238  11.589 -0.2268  0.8990 -0.4209
  360MOL0     N48516  -0.051   6.366  10.709  0.1896  0.2015  0.6760
  360MOL0     N48517   0.040   6.431  10.644  0.5617 -0.0716  0.6153
  360MOL0     C48518   1.266   7.022  11.017  0.5119  0.2434 -0.6879
  360MOL0     C48519   1.362   7.074  11.103  0.1940 -0.6683  0.1257
  360MOL0     C48520   1.514   7.366  11.427 -0.8286  0.8936 -1.2095
  360MOL0     C48521   1.646   7.390  11.365  1.0008  0.1080 -0.0486
  360MOL0     C48522   1.752   7.455  11.421  2.1726  0.3279  0.6997
  360MOL0     C48523   1.737   7.490  11.551  0.0693  1.0465  0.0384
  360MOL0     O48524   1.849   7.527  11.626  0.5548 -0.5528 -0.5424
  360MOL0     C48525   1.982   7.532  11.570  0.2740  0.7294 -0.1478
  360MOL0     C48526   2.041   7.391  11.553 -0.1554 -0.3576  0.7125
  360MOL0     C48527   2.146   7.375  11.436  0.3759 -0.3468 -0.6219
  360MOL0     C48528   2.266   7.463  11.479 -0.3874 -0.6397 -0.5589
  360MOL0     C48529   2.376   7.442  11.380  0.2097  0.7740  0.2493
  360MOL0     C48530   2.443   7.398  11.296  0.3861  0.6648  0.3541
  360MOL0     C48531   1.610   7.479  11.610  0.0385  1.1983 -0.2166
  360MOL0     C48532   1.498   7.417  11.556 -0.1675  0.7754  0.7553
  360MOL0     H48533   1.186   7.354  11.211  1.5769  0.8083 -0.1189
  360MOL0     H48534   1.012   7.241  11.095 -0.4087 -1.0619 -2.3810
  360MOL0     H48535   0.876   7.059  11.080  2.2874  1.5382 -0.2162
  360MOL0     H48536   0.840   7.074  10.922  0.7566  0.7475  0.7491
  360MOL0     H48537   0.904   6.800  10.900 -0.3085  1.9922 -0.0478
  360MOL0     H48538   0.874   6.807  11.069  0.3240 -3.6711 -1.9803
  360MOL0     H48539   0.640   6.846  11.012 -0.9230 -2.3430  0.1097
  360MOL0     H48540   0.706   6.915  10.852  2.8781 -1.0235 -1.3304
  360MOL0     H48541   0.726   6.724  10.747 -2.4694  0.1125 -1.0419
  360MOL0     H48542   0.760   6.632  10.893 -1.4521 -1.8510 -0.0148
  360MOL0     H48543   0.537   6.610  10.953  2.5629  0.3317  0.6103
  360MOL0     H48544   0.474   6.736  10.849 -0.5537 -0.1790  2.7723
  360MOL0     H48545   0.494   6.619  10.652 -0.7916  3.3141  3.0794
  360MOL0     H48546   0.611   6.492  10.721 -0.2385 -0.5292  2.0317
  360MOL0     H48547   0.425   6.371  10.800  0.6434  0.5333 -0.8898
  360MOL0     H48548   0.358   6.516  10.871  3.8987 -1.0983  3.0655
  360MOL0     H48549   0.324   6.374  10.592  1.9281 -0.0978  0.1591
  360MOL0     H48550   0.277   6.550  10.603 -1.2189 -0.6698 -0.1481
  360MOL0     H48551   0.203   6.287  10.889 -0.7978  3.0650  2.4236
  360MOL0     H48552  -0.144   6.176  10.894  0.5557 -1.7093  0.4754
  360MOL0     H48553  -0.004   6.163  10.996 -1.4346 -1.1405  0.2208
  360MOL0     H48554  -0.193   6.418  11.007  1.2357  2.0218  1.7002
  360MOL0     H48555  -0.049   6.399  11.088  0.5243  0.9957 -0.4665
  360MOL0     H48556  -0.135   6.211  11.223 -0.0103  2.1124  0.9928
  360MOL0     H48557  -0.270   6.196  11.113  1.9506 -4.2458  2.6445
  360MOL0     H48558  -0.355   6.409  11.193  0.4116  1.4064  2.4558
  360MOL0     H48559  -0.206   6.441  11.282  4.3694 -3.3869  0.1248
  360MOL0     H48560  -0.048   6.313  11.397 -0.2845  1.8910 -1.0347
  360MOL0     H48561   0.152   6.336  11.659 -1.0791  1.8398 -1.2947
  360MOL0     H48562   0.160   6.162  11.635 -0.8448 -0.0322 -0.0882
  360MOL0     H48563   0.146   6.276  11.497  0.4686  2.2678  0.3155
  360MOL0     H48564   0.131   6.266  12.053 -0.4768 -0.6789 -2.8938
  360MOL0     H48565   0.246   6.193  12.279  1.3153 -1.4653  0.5342
  360MOL0     H48566   0.129   6.099  12.470 -3.6939 -0.6463  0.3260
  360MOL0     H48567   0.084   5.936  12.491 -1.8494  2.1949 -0.8874
  360MOL0     H48568   0.361   6.071  12.578  0.3003 -0.8307  1.6205
  360MOL0     H48569   0.217   6.058  12.677  0.4692 -2.5749  1.7271
  360MOL0     H48570   0.376   5.833  12.546  1.4052  1.4520 -0.8312
  360MOL0     H48571   0.249   5.801  12.656  2.9433 -2.4664 -0.9381
  360MOL0     H48572   0.519   5.939  12.698  0.6952 -0.2630  1.1135
  360MOL0     H48573   0.389   5.963  12.822  0.9057 -1.4907  1.5445
  360MOL0     H48574   0.490   5.692  12.726 -0.0038 -0.5316  0.5632
  360MOL0     H48575   0.387   5.726  12.874 -0.9927  2.6590  1.8215
  360MOL0     H48576   0.674   5.773  12.833 -1.1016 -3.0903 -1.3709
  360MOL0     H48577   0.586   5.886  12.939  0.3880  0.4437 -2.2521
  360MOL0     H48578   0.539   5.686  13.088 -0.0592 -0.9049  0.8306
  360MOL0     H48579   0.712   5.688  13.044  0.3008 -0.1275 -0.7870
  360MOL0     H48580   0.674   5.514  12.872  2.2022 -2.2008  1.7231
  360MOL0     H48581   0.503   5.519  12.918 -1.1809  3.1227  2.6868
  360MOL0     H48582   0.197   5.789  12.135 -2.0776 -0.3938 -0.5429
  360MOL0     H48583   0.133   5.858  11.934  0.0149  1.8398 -0.8188
  360MOL0     H48584  -0.305   6.196  11.801  1.2934  2.7886  1.5728
  360MOL0     H48585  -0.428   6.235  11.602  0.1421  0.3231  4.3207
  360MOL0     H48586   1.296   6.926  10.977  4.7889 -0.2778  2.9220
  360MOL0     H48587   1.465   7.042  11.118  1.9055  3.3849 -1.6548
  360MOL0     H48588   1.658   7.345  11.267 -0.0861 -1.2470  0.4031
  360MOL0     H48589   1.842   7.463  11.360  1.4783 -5.4486 -1.7118
  360MOL0     H48590   1.978   7.598  11.484 -1.0019  0.4498 -0.3183
  360MOL0     H48591   2.045   7.570  11.651  0.1170  1.0803 -0.1888
  360MOL0     H48592   1.961   7.322  11.526  0.5983 -1.3285  0.9055
  360MOL0     H48593   2.090   7.355  11.644  0.6913 -0.7284  0.1240
  360MOL0     H48594   2.089   7.417  11.352 -0.1540  0.3118  0.0541
  360MOL0     H48595   2.165   7.268  11.432  2.9301 -0.0535  1.2538
  360MOL0     H48596   2.297   7.423  11.576  2.1451 -1.5777 -1.6556
  360MOL0     H48597   2.243   7.568  11.499 -0.4195 -0.6114 -0.7359
  360MOL0     H48598   2.493   7.374  11.204 -2.2611  0.6973 -1.1875
  360MOL0     H48599   1.602   7.508  11.714  0.4921 -1.8599  0.7819
  360MOL0     H48600   1.410   7.399  11.617  0.6682 -1.4688  1.3856
  361MOL0     O48601   8.874  10.447   7.654 -0.0013 -0.0851  0.2585
  361MOL0     C48602   8.849  10.496   7.759  0.2414  0.3097 -0.1122
  361MOL0     O48603   8.932  10.547   7.850 -0.6078 -0.2893  0.3573
  361MOL0     C48604   9.061  10.517   7.833  0.8326  0.1770 -0.0940
  361MOL0     C48605   9.104  10.405   7.901 -0.2569 -0.7548  0.2218
  361MOL0     C48606   9.234  10.383   7.914  0.2276  0.4039  0.9111
  361MOL0     C48607   9.326  10.461   7.853 -0.6037 -0.7232 -1.5717
  361MOL0     O48608   9.460  10.451   7.865 -0.8067 -1.0384  0.5778
  361MOL0     C48609   9.519  10.384   7.974 -0.1117 -0.1191 -0.4630
  361MOL0     C48610   9.636  10.303   7.912 -0.3314  0.5437  0.6380
  361MOL0     C48611   9.596  10.160   7.878 -0.8239 -0.2639  0.8782
  361MOL0     C48612   9.711  10.083   7.817  0.2103 -0.1586  0.2862
  361MOL0     C48613   9.670   9.967   7.720  0.3522  0.1138  0.3866
  361MOL0     C48614   9.628  10.033   7.595  1.5139  0.7077 -0.0286
  361MOL0     C48615   9.550   9.947   7.504 -0.2308 -0.0846  0.1829
  361MOL0     C48616   9.396   9.968   7.510 -0.5801  0.9527  0.7134
  361MOL0     N48617   9.347  10.061   7.404 -0.0367 -0.3056 -0.2958
  361MOL0     C48618   9.267  10.174   7.428 -0.6095 -0.6638  0.0088
  361MOL0     C48619   9.269  10.241   7.311  0.2608  1.0231  0.0890
  361MOL0     C48620   9.205  10.375   7.307 -0.0918  0.1087 -0.5189
  361MOL0     C48621   9.244  10.474   7.417  0.1132  0.0429  0.9486
  361MOL0     C48622   9.222  10.626   7.385 -0.1083  0.3861 -0.8225
  361MOL0     C48623   9.083  10.662   7.332 -0.8678  0.2154  0.4407
  361MOL0     O48624   9.080  10.796   7.287 -0.6497 -0.2169  0.4688
  361MOL0     C48625   8.964  10.869   7.301  0.1768  0.5092 -0.5980
  361MOL0     C48626   8.985  11.007   7.298 -0.3633 -0.5293 -0.4297
  361MOL0     C48627   8.884  11.097   7.308 -0.0780  0.1055 -0.7263
  361MOL0     C48628   8.920  11.239   7.274 -1.0660  0.0293 -0.2612
  361MOL0     C48629   8.750  11.047   7.324  0.1408  0.4541 -0.2242
  361MOL0     C48630   8.630  11.137   7.343 -0.3438 -0.9302 -0.3612
  361MOL0     O48631   8.499  11.095   7.297 -0.2050 -0.2008  0.3391
  361MOL0     C48632   8.396  11.179   7.315  0.2049 -0.0839  1.5548
  361MOL0     C48633   8.335  11.231   7.194 -1.2015  0.9449 -0.1607
  361MOL0     C48634   8.237  11.324   7.207 -0.3199  0.2334  0.6684
  361MOL0     C48635   8.187  11.363   7.335 -0.3354 -0.1906 -0.0422
  361MOL0     O48636   8.082  11.454   7.344 -0.0002 -0.4650  0.1082
  361MOL0     C48637   8.105  11.556   7.438 -0.3250 -0.3595  0.6902
  361MOL0     C48638   8.031  11.690   7.392  1.5091  0.4286 -0.2292
  361MOL0     C48639   8.083  11.730   7.255 -0.6020  0.0073  0.3833
  361MOL0     C48640   7.995  11.829   7.180 -0.2876 -0.1765  0.5232
  361MOL0     C48641   7.985  11.972   7.216 -1.0505  0.2467 -0.7010
  361MOL0     C48642   7.851  12.035   7.183  0.2000  0.0570  0.0736
  361MOL0     C48643   7.873  12.190   7.171 -0.6178  0.5510  0.5482
  361MOL0     C48644   7.745  12.261   7.153 -0.8001  0.0928 -0.5455
  361MOL0    Cl48645   7.660  12.216   7.000 -0.3979 -0.1304 -0.0557
  361MOL0     C48646   8.236  11.304   7.450 -0.7298  0.6184  0.4366
  361MOL0     C48647   8.340  11.212   7.441 -0.9088 -0.1768  0.3699
  361MOL0     O48648   8.656  11.244   7.395  0.1028 -0.5105  0.6914
  361MOL0     C48649   8.723  10.906   7.312 -0.4546 -0.3353  0.3040
  361MOL0     C48650   8.828  10.816   7.305 -0.5497 -0.5167  0.4069
  361MOL0     N48651   9.339  10.173   7.214  0.2705  1.5000 -0.2737
  361MOL0     N48652   9.387  10.070   7.277  0.3384 -0.2678 -0.3125
  361MOL0     C48653   9.281  10.555   7.769  0.2172  0.6636 -0.1020
  361MOL0     C48654   9.148  10.600   7.760  1.0954 -0.9691  0.1250
  361MOL0     C48655   8.705  10.505   7.798  0.2290  0.6420 -0.1072
  361MOL0     C48656   8.650  10.618   7.856  0.4034 -0.6567  0.2416
  361MOL0     C48657   8.515  10.615   7.898  0.4687  0.5535  0.4151
  361MOL0     C48658   8.428  10.509   7.869  1.0379  0.1327  0.4637
  361MOL0     O48659   8.290  10.499   7.889 -0.3436  0.3269 -0.7439
  361MOL0     C48660   8.229  10.594   7.972  0.1216 -0.4271 -0.6031
  361MOL0     C48661   8.074  10.588   7.932  1.2582 -0.7919  0.3884
  361MOL0     C48662   8.049  10.667   7.798 -0.0053  0.1951 -0.4467
  361MOL0     C48663   7.902  10.687   7.763 -1.3097  0.6199 -0.4655
  361MOL0     C48664   7.843  10.556   7.742 -0.1096  1.0564  0.8296
  361MOL0     C48665   7.803  10.442   7.720  0.1477  0.5570 -0.2016
  361MOL0     C48666   8.490  10.399   7.814 -0.3984  0.9150  0.2443
  361MOL0     C48667   8.625  10.392   7.782 -0.8435 -0.4567  0.9154
  361MOL0     H48668   9.031  10.350   7.959  0.1890  0.7475  2.2871
  361MOL0     H48669   9.270  10.309   7.985  1.7310  0.6691  0.4766
  361MOL0     H48670   9.560  10.472   8.025  0.3040 -2.4439  3.6270
  361MOL0     H48671   9.453  10.331   8.042  0.5184  1.1528  1.2064
  361MOL0     H48672   9.679  10.363   7.832  2.4071  0.4271  1.9005
  361MOL0     H48673   9.713  10.287   7.988 -0.9674 -0.5861  1.0708
  361MOL0     H48674   9.556  10.104   7.964 -0.1730  0.2547  1.5323
  361MOL0     H48675   9.503  10.176   7.822 -0.6077  1.0901  0.8772
  361MOL0     H48676   9.791  10.141   7.770 -1.1010 -0.9390 -3.1999
  361MOL0     H48677   9.757  10.022   7.895  0.4060 -2.4697 -1.5292
  361MOL0     H48678   9.751   9.894   7.708 -3.0563 -3.9742 -0.3270
  361MOL0     H48679   9.586   9.912   7.764  1.3806 -2.6020 -0.8189
  361MOL0     H48680   9.555  10.109   7.625 -0.7025 -0.8484 -1.1757
  361MOL0     H48681   9.720  10.070   7.549  2.7838 -1.5930  0.5334
  361MOL0     H48682   9.598   9.959   7.406  2.3121  0.8007  1.4701
  361MOL0     H48683   9.555   9.846   7.546 -1.2002 -0.7293 -1.1533
  361MOL0     H48684   9.361   9.998   7.609  0.3116  3.2161  0.3970
  361MOL0     H48685   9.346   9.873   7.489  2.1719 -0.9397  2.1161
  361MOL0     H48686   9.221  10.208   7.521 -1.4395  1.4592 -1.1066
  361MOL0     H48687   9.241  10.413   7.210 -2.1994 -0.0292 -1.4194
  361MOL0     H48688   9.096  10.363   7.307 -0.3322  1.9725 -0.8326
  361MOL0     H48689   9.351  10.453   7.425  0.3915  1.6558  1.9282
  361MOL0     H48690   9.191  10.444   7.509  1.1745 -0.2582  1.4727
  361MOL0     H48691   9.292  10.654   7.305 -0.1595  2.4829 -0.2134
  361MOL0     H48692   9.257  10.696   7.461 -0.1922  0.5607 -0.9420
  361MOL0     H48693   8.997  10.634   7.394 -0.9350 -2.2146 -0.6334
  361MOL0     H48694   9.063  10.610   7.238 -0.1743 -2.7398  1.8217
  361MOL0     H48695   9.091  11.027   7.283 -0.2744 -1.8572 -1.7758
  361MOL0     H48696   8.899  11.292   7.367  1.0343 -2.2585  1.6548
  361MOL0     H48697   9.025  11.239   7.245 -1.0560 -1.8181 -0.3662
  361MOL0     H48698   8.862  11.278   7.190 -1.7807  0.1037  0.2525
  361MOL0     H48699   8.362  11.195   7.096 -1.7930 -1.4935  0.4999
  361MOL0     H48700   8.193  11.366   7.117 -0.5873  0.3576  0.8567
  361MOL0     H48701   8.056  11.533   7.533  2.9009  0.5754  2.7632
  361MOL0     H48702   8.210  11.582   7.452 -0.5411  2.2133 -1.6215
  361MOL0     H48703   7.926  11.660   7.390  2.1087 -1.8901 -0.0893
  361MOL0     H48704   8.050  11.759   7.474 -1.5662 -0.2598  1.2200
  361MOL0     H48705   8.088  11.638   7.195 -0.5796 -1.0864  1.9743
  361MOL0     H48706   8.188  11.761   7.257  0.3404 -2.8076 -0.0634
  361MOL0     H48707   8.019  11.817   7.074 -4.4027 -4.5734 -0.2838
  361MOL0     H48708   7.896  11.783   7.178 -0.5703  0.3714  1.3832
  361MOL0     H48709   8.065  12.020   7.159  1.9843 -0.2570  2.7453
  361MOL0     H48710   8.007  11.990   7.321  0.7351 -0.9412 -0.8223
  361MOL0     H48711   7.819  11.997   7.085 -0.2580 -0.7391  0.5254
  361MOL0     H48712   7.772  12.005   7.252 -0.1256 -2.4861 -1.2790
  361MOL0     H48713   7.926  12.203   7.077 -1.1520 -4.5220 -0.7880
  361MOL0     H48714   7.931  12.218   7.259  0.2437 -0.3878  0.2987
  361MOL0     H48715   7.786  12.362   7.146 -0.0522 -0.3264 -3.3829
  361MOL0     H48716   7.693  12.255   7.249  0.1347  0.4942  0.0080
  361MOL0     H48717   8.196  11.315   7.551 -0.0235 -1.9389  1.0624
  361MOL0     H48718   8.368  11.150   7.526 -3.0321 -1.1528  0.4088
  361MOL0     H48719   8.621  10.870   7.315 -1.2648  1.8417  2.3492
  361MOL0     H48720   8.797  10.714   7.284  0.7186 -1.5550  3.0839
  361MOL0     H48721   9.347  10.609   7.701 -0.4538  1.5153 -0.1022
  361MOL0     H48722   9.119  10.683   7.696 -0.0579 -1.2448  0.2667
  361MOL0     H48723   8.716  10.703   7.874  2.5149 -2.1627 -0.0489
  361MOL0     H48724   8.484  10.705   7.951 -0.7120  1.2127 -1.2834
  361MOL0     H48725   8.246  10.584   8.080 -1.0658  2.6315 -0.0297
  361MOL0     H48726   8.275  10.693   7.966  1.5284 -0.9942  0.3484
  361MOL0     H48727   8.006  10.632   8.005 -0.2317  0.3184 -1.5377
  361MOL0     H48728   8.042  10.484   7.924  0.6271 -0.8182  2.6426
  361MOL0     H48729   8.102  10.611   7.720 -0.0393 -2.3929  1.2382
  361MOL0     H48730   8.093  10.765   7.814 -0.2289  0.3550 -0.8109
  361MOL0     H48731   7.903  10.744   7.669 -1.5240  2.6619  0.7113
  361MOL0     H48732   7.853  10.755   7.833 -2.3133 -0.9793  0.4276
  361MOL0     H48733   7.782  10.339   7.699  3.1988 -0.0788 -0.5128
  361MOL0     H48734   8.426  10.312   7.803 -1.1075  1.7064 -2.4451
  361MOL0     H48735   8.677  10.301   7.753 -1.2611 -0.7586  1.1055
  362MOL0     O48736   7.134   2.094  10.579  0.2696 -0.1535 -0.3806
  362MOL0     C48737   7.091   2.039  10.478  0.7117 -1.1784  0.2296
  362MOL0     O48738   7.126   1.913  10.440  1.3853  0.2049 -0.2645
  362MOL0     C48739   7.187   1.834  10.535  0.9387  0.3849  0.6274
  362MOL0     C48740   7.327   1.807  10.542  0.2804 -1.0391 -0.8318
  362MOL0     C48741   7.374   1.744  10.656 -0.2024  0.6186 -0.4025
  362MOL0     C48742   7.295   1.692  10.760 -1.1231 -0.5808 -0.0257
  362MOL0     O48743   7.357   1.625  10.858  0.0611  1.0070 -0.1527
  362MOL0     C48744   7.304   1.520  10.940  0.4183  0.1127 -0.0179
  362MOL0     C48745   7.409   1.452  11.026  0.5154 -0.4324 -0.1292
  362MOL0     C48746   7.347   1.346  11.111 -0.0063 -1.4342 -0.1346
  362MOL0     C48747   7.440   1.290  11.209 -0.3744 -0.0608 -0.2643
  362MOL0     C48748   7.366   1.188  11.292 -0.3054 -0.7002 -0.1006
  362MOL0     C48749   7.302   1.269  11.417  0.6014  0.0876  0.3205
  362MOL0     C48750   7.225   1.165  11.514  0.0898 -0.9133  0.2050
  362MOL0     C48751   7.332   1.102  11.607  0.5564 -0.4945 -0.0924
  362MOL0     N48752   7.255   1.055  11.714  0.2560 -0.4047 -0.4696
  362MOL0     C48753   7.176   1.121  11.808 -0.2094  0.3122  0.1534
  362MOL0     C48754   7.117   1.016  11.873  0.3457 -0.7697  0.4490
  362MOL0     C48755   7.012   1.026  11.973 -0.1849 -0.6212  0.1727
  362MOL0     C48756   7.013   1.168  12.045  0.1184  0.1358  0.4338
  362MOL0     C48757   6.905   1.167  12.149  0.5583 -0.3760 -0.5369
  362MOL0     C48758   6.893   1.310  12.212 -0.9100  0.5330 -0.7730
  362MOL0     O48759   6.772   1.327  12.276  0.4413  0.5015  0.1944
  362MOL0     C48760   6.775   1.422  12.372 -0.0182 -0.1544  0.0958
  362MOL0     C48761   6.740   1.556  12.341 -0.9120  0.5366 -0.6071
  362MOL0     C48762   6.711   1.651  12.432  0.2787 -0.5074 -0.5593
  362MOL0     C48763   6.656   1.790  12.388  0.0509  1.6880 -0.8181
  362MOL0     C48764   6.753   1.628  12.566 -0.2607 -0.5365  0.3001
  362MOL0     C48765   6.739   1.735  12.673 -0.3526 -0.9477  0.8648
  362MOL0     O48766   6.723   1.688  12.803 -1.0573 -0.6377  0.5878
  362MOL0     C48767   6.689   1.777  12.900 -0.7063  0.1149 -0.3884
  362MOL0     C48768   6.780   1.876  12.947  0.4923 -0.2985  1.0264
  362MOL0     C48769   6.742   1.953  13.062  1.2754  1.5983  0.0249
  362MOL0     C48770   6.606   1.947  13.107 -0.6085 -0.4823  0.6431
  362MOL0     O48771   6.563   1.993  13.223  0.0945  0.2679  0.9783
  362MOL0     C48772   6.614   2.121  13.264  0.0897 -0.1108  0.3133
  362MOL0     C48773   6.506   2.176  13.355  1.5635 -1.2492  0.0401
  362MOL0     C48774   6.513   2.337  13.371  0.2784  1.3887  0.0398
  362MOL0     C48775   6.646   2.382  13.425  0.4638 -0.0818 -0.4298
  362MOL0     C48776   6.685   2.344  13.568  0.5220 -0.7423  0.4211
  362MOL0     C48777   6.832   2.401  13.597 -0.8186 -0.0347 -0.3641
  362MOL0     C48778   6.911   2.327  13.717  0.0061 -0.0997  0.4053
  362MOL0     C48779   7.050   2.389  13.744  0.0435  0.1154 -0.1807
  362MOL0    Cl48780   7.108   2.336  13.901  0.1336 -0.1985 -0.1022
  362MOL0     C48781   6.518   1.855  13.053  0.1239 -0.8428  0.4840
  362MOL0     C48782   6.562   1.766  12.956 -0.4902 -0.9786  0.5417
  362MOL0     O48783   6.755   1.859  12.643  0.9572  0.7264  0.1259
  362MOL0     C48784   6.810   1.499  12.593  0.6845  0.1370 -0.2149
  362MOL0     C48785   6.806   1.399  12.502 -0.1156  0.5403 -0.0585
  362MOL0     N48786   7.179   0.901  11.841 -0.5589 -0.0534 -0.1520
  362MOL0     N48787   7.270   0.925  11.748  0.0717  0.2097 -0.1089
  362MOL0     C48788   7.156   1.710  10.756 -0.3652  0.5599  0.2458
  362MOL0     C48789   7.109   1.781  10.641  1.1105  1.0430  0.1948
  362MOL0     C48790   6.990   2.113  10.387 -0.1630  1.1929 -0.4087
  362MOL0     C48791   6.979   2.258  10.396  0.0975  1.0300 -0.1039
  362MOL0     C48792   6.888   2.327  10.315 -0.7604  0.7513 -0.9657
  362MOL0     C48793   6.787   2.254  10.241 -0.1335 -0.7054 -0.2451
  362MOL0     O48794   6.682   2.302  10.164 -0.6273  0.8823  0.4330
  362MOL0     C48795   6.684   2.445  10.148 -0.1831  0.2488  0.7232
  362MOL0     C48796   6.578   2.484  10.050 -0.8282 -0.8093 -0.1327
  362MOL0     C48797   6.578   2.628  10.012 -0.3553  0.6411 -0.0140
  362MOL0     C48798   6.472   2.657   9.908  0.5657 -0.2327  0.5040
  362MOL0     C48799   6.328   2.640   9.952 -0.4816  0.5699  0.4853
  362MOL0     C48800   6.216   2.624   9.970  0.5519  0.5196 -0.9176
  362MOL0     C48801   6.789   2.111  10.245 -0.5571 -0.6895 -0.9380
  362MOL0     C48802   6.892   2.036  10.313 -0.5754 -0.7904  0.6601
  362MOL0     H48803   7.390   1.863  10.473  1.9416  0.9267  2.0697
  362MOL0     H48804   7.482   1.742  10.666 -0.3929 -2.2147  3.4198
  362MOL0     H48805   7.231   1.571  11.005 -0.4971  1.4650 -1.9983
  362MOL0     H48806   7.253   1.448  10.876 -0.0212  2.4681 -2.5304
  362MOL0     H48807   7.493   1.415  10.966  0.0265 -5.1467  1.6887
  362MOL0     H48808   7.450   1.529  11.092 -2.4029 -0.6718  2.1255
  362MOL0     H48809   7.258   1.394  11.152  1.5292 -0.0291  1.8048
  362MOL0     H48810   7.302   1.262  11.059  1.2205 -3.2578  1.6136
  362MOL0     H48811   7.520   1.236  11.156  0.6089  3.4061 -2.6726
  362MOL0     H48812   7.489   1.378  11.251 -3.3245  1.0947  0.9866
  362MOL0     H48813   7.288   1.126  11.246  0.5783 -1.6253 -0.3900
  362MOL0     H48814   7.430   1.108  11.330  2.1758  1.3191  0.1605
  362MOL0     H48815   7.372   1.322  11.481 -0.4492  0.6192  1.0412
  362MOL0     H48816   7.224   1.336  11.381  3.9282  4.4466  0.3556
  362MOL0     H48817   7.142   1.218  11.562 -0.4596 -0.4038 -1.2798
  362MOL0     H48818   7.187   1.078  11.459 -3.9526  0.1402  0.9701
  362MOL0     H48819   7.393   1.185  11.643 -2.6972  2.3353 -0.5462
  362MOL0     H48820   7.392   1.029  11.552 -0.0110 -0.5599 -0.6480
  362MOL0     H48821   7.139   1.223  11.806  2.5688  1.4016 -0.9965
  362MOL0     H48822   6.922   0.990  11.924  1.9584 -2.2222 -2.9480
  362MOL0     H48823   7.035   0.955  12.053 -1.8518 -1.5718 -0.1672
  362MOL0     H48824   6.992   1.243  11.968 -1.6280 -1.4013 -0.6872
  362MOL0     H48825   7.108   1.191  12.094 -1.4835  0.3744  3.6585
  362MOL0     H48826   6.939   1.093  12.222  0.4860 -1.1061 -1.2372
  362MOL0     H48827   6.816   1.126  12.100 -1.3257  2.1480  0.5306
  362MOL0     H48828   6.894   1.380  12.128 -1.7788  0.8497 -0.5252
  362MOL0     H48829   6.984   1.333  12.269 -0.4684  2.1705 -2.0612
  362MOL0     H48830   6.712   1.587  12.241  1.0563  0.3065 -1.2819
  362MOL0     H48831   6.588   1.777  12.304  0.4792  4.3853 -1.6751
  362MOL0     H48832   6.607   1.843  12.471  2.4889  0.7441  1.3862
  362MOL0     H48833   6.739   1.851  12.350  0.8877  1.8373  1.0861
  362MOL0     H48834   6.886   1.870  12.928  0.5035  2.5288 -0.3170
  362MOL0     H48835   6.817   2.005  13.120  1.9629 -0.8920  1.4898
  362MOL0     H48836   6.714   2.110  13.307  1.1032 -0.7334 -2.0134
  362MOL0     H48837   6.620   2.189  13.178 -0.7350 -0.6718 -0.2017
  362MOL0     H48838   6.405   2.163  13.314  1.7137 -0.7021 -0.5107
  362MOL0     H48839   6.497   2.138  13.457  0.2154 -3.1501 -0.7226
  362MOL0     H48840   6.437   2.366  13.444  0.6028 -1.5374  1.7175
  362MOL0     H48841   6.510   2.380  13.271  1.7244  1.7100  0.1063
  362MOL0     H48842   6.713   2.313  13.374 -1.3308 -0.7117 -2.0495
  362MOL0     H48843   6.665   2.486  13.400 -0.4016  0.3523  0.6491
  362MOL0     H48844   6.687   2.235  13.573 -1.9191 -0.9598 -1.5155
  362MOL0     H48845   6.608   2.387  13.632  1.0318  0.0350  0.5306
  362MOL0     H48846   6.883   2.387  13.501 -1.5619  2.2479 -1.1573
  362MOL0     H48847   6.819   2.509  13.614  1.1433 -0.0732  1.7673
  362MOL0     H48848   6.922   2.222  13.687 -1.3963 -0.0282 -0.4498
  362MOL0     H48849   6.850   2.333  13.808  0.0607 -0.3816  0.4629
  362MOL0     H48850   7.052   2.498  13.735  0.8687  0.0207 -1.4012
  362MOL0     H48851   7.109   2.360  13.657 -2.3883  1.0484 -2.2485
  362MOL0     H48852   6.421   1.843  13.100  0.2633  1.3683  1.4677
  362MOL0     H48853   6.490   1.695  12.916 -2.6937  1.1395  0.5758
  362MOL0     H48854   6.846   1.484  12.695  3.1112 -0.6567 -1.1196
  362MOL0     H48855   6.812   1.294  12.528 -1.6771  0.3087 -0.5225
  362MOL0     H48856   7.081   1.674  10.825 -0.4468 -1.6701 -0.9267
  362MOL0     H48857   7.001   1.775  10.638  1.1732 -0.1349 -1.8219
  362MOL0     H48858   7.034   2.320  10.466  0.4984  1.3316 -0.6820
  362MOL0     H48859   6.884   2.435  10.321 -1.3086  1.1678 -5.2227
  362MOL0     H48860   6.687   2.486  10.249 -0.0578 -3.0119  2.1679
  362MOL0     H48861   6.779   2.477  10.103 -0.7908  1.9421  0.5928
  362MOL0     H48862   6.483   2.450  10.092 -0.8148 -0.0811  0.4884
  362MOL0     H48863   6.602   2.428   9.958 -2.3308  0.0787 -1.1124
  362MOL0     H48864   6.679   2.660   9.986 -0.6226 -0.2328 -2.3986
  362MOL0     H48865   6.556   2.674  10.109  1.0807  0.8315  0.2363
  362MOL0     H48866   6.497   2.589   9.825  0.2130  2.5483 -2.0538
  362MOL0     H48867   6.472   2.760   9.873  1.8233 -0.1981  0.5711
  362MOL0     H48868   6.112   2.613   9.990  0.5869  2.1131  0.3368
  362MOL0     H48869   6.714   2.048  10.199 -1.3137  0.0128 -0.6922
  362MOL0     H48870   6.883   1.929  10.304  3.2458 -1.2946  1.2911
  363MOL0     O48871   6.290   0.094   6.681 -0.5725 -0.3148  0.6943
  363MOL0     C48872   6.293   0.156   6.571 -0.0258 -0.3037  0.7536
  363MOL0     O48873   6.275   0.297   6.553  0.6755 -0.0595 -0.4725
  363MOL0     C48874   6.227   0.376   6.657 -0.7988  0.1490  0.5070
  363MOL0     C48875   6.138   0.329   6.753  0.3186 -0.1197  0.9281
  363MOL0     C48876   6.106   0.421   6.852  0.3645 -0.1874  0.0043
  363MOL0     C48877   6.166   0.549   6.870  0.4842 -0.3173 -0.1571
  363MOL0     O48878   6.143   0.638   6.977 -0.6196 -0.1031  0.3629
  363MOL0     C48879   6.023   0.622   7.047  0.8690 -0.0964  0.1696
  363MOL0     C48880   6.006   0.751   7.145  0.6828  0.2562  0.2673
  363MOL0     C48881   5.885   0.726   7.242  0.7523  0.8961 -0.7681
  363MOL0     C48882   5.850   0.867   7.306  0.6090  0.8436  0.2561
  363MOL0     C48883   5.957   0.917   7.404 -0.6119 -0.4093  0.4689
  363MOL0     C48884   5.968   0.855   7.540 -0.6938  1.0160  0.1403
  363MOL0     C48885   6.072   0.920   7.626  0.4280  0.9667  0.6395
  363MOL0     C48886   6.100   0.842   7.760  0.0342  0.3132  0.6754
  363MOL0     N48887   6.100   0.698   7.769  0.0725 -0.6364  0.5505
  363MOL0     C48888   6.148   0.608   7.680 -0.4038  0.0658  0.6427
  363MOL0     C48889   6.153   0.493   7.746  0.0655 -1.1750  0.3759
  363MOL0     C48890   6.219   0.373   7.677 -0.2303 -0.6930  0.2313
  363MOL0     C48891   6.252   0.269   7.782 -0.5870 -0.1527  0.5318
  363MOL0     C48892   6.336   0.159   7.726  0.1354 -0.1581  1.4090
  363MOL0     C48893   6.402   0.066   7.829 -0.1654  0.6977  0.2391
  363MOL0     O48894   6.471  -0.051   7.766  0.4129 -0.0756 -0.7076
  363MOL0     C48895   6.588  -0.033   7.690  0.3201  0.1804 -0.8826
  363MOL0     C48896   6.646   0.091   7.670 -0.3546  0.0137 -0.8513
  363MOL0     C48897   6.750   0.122   7.585  0.0591  0.4062 -0.2389
  363MOL0     C48898   6.798   0.265   7.575 -0.0069 -0.3018  0.0428
  363MOL0     C48899   6.819   0.006   7.523  0.6719 -0.3262  0.1158
  363MOL0     C48900   6.935   0.009   7.440  0.4026  0.6695  1.2811
  363MOL0     O48901   7.045  -0.060   7.483  0.3739  0.2903 -0.6805
  363MOL0     C48902   7.153  -0.099   7.418 -0.3410 -0.7066  0.0892
  363MOL0     C48903   7.266  -0.135   7.494  0.1216  0.2200 -0.6162
  363MOL0     C48904   7.373  -0.199   7.431  0.2851 -0.0067 -0.0474
  363MOL0     C48905   7.382  -0.220   7.299 -0.3613  1.3844  0.4003
  363MOL0     O48906   7.492  -0.269   7.228  0.9491 -0.0780  0.8028
  363MOL0     C48907   7.610  -0.305   7.300 -0.2008 -1.3629  0.3111
  363MOL0     C48908   7.727  -0.306   7.202  0.2224  0.7964 -0.2957
  363MOL0     C48909   7.779  -0.169   7.158  0.6337  0.1889  0.2865
  363MOL0     C48910   7.902  -0.197   7.076 -0.4327 -1.1677 -0.3239
  363MOL0     C48911   7.924  -0.079   6.982  0.1401  0.3792 -0.0479
  363MOL0     C48912   7.831  -0.094   6.854 -0.3419 -0.0320  1.0084
  363MOL0     C48913   7.818   0.038   6.765  0.1434  0.0134 -0.3712
  363MOL0     C48914   7.911   0.028   6.647  0.2085 -0.5854  0.0585
  363MOL0    Cl48915   7.940   0.197   6.581  0.1848 -0.5050 -0.6388
  363MOL0     C48916   7.281  -0.162   7.220  0.6880  0.4004  0.1425
  363MOL0     C48917   7.164  -0.102   7.276 -0.0789 -0.3015 -0.3638
  363MOL0     O48918   6.916   0.063   7.327  0.0991  0.3490 -0.1436
  363MOL0     C48919   6.763  -0.121   7.545  0.3845  0.6033 -0.1300
  363MOL0     C48920   6.647  -0.141   7.623 -0.4906  0.5139 -0.3430
  363MOL0     N48921   6.095   0.509   7.866  0.6498 -0.2243  0.0710
  363MOL0     N48922   6.049   0.635   7.871 -0.3399 -0.3038  0.0626
  363MOL0     C48923   6.251   0.586   6.765  0.6268 -0.0436  0.1813
  363MOL0     C48924   6.288   0.502   6.658  0.0375 -0.6569  0.4224
  363MOL0     C48925   6.334   0.081   6.449 -0.4459 -0.1792  1.2659
  363MOL0     C48926   6.345  -0.062   6.452 -0.0854  0.0809 -0.2484
  363MOL0     C48927   6.352  -0.133   6.332 -0.1771 -0.2140 -0.3849
  363MOL0     C48928   6.336  -0.072   6.202  0.5571  0.0534 -0.4987
  363MOL0     O48929   6.322  -0.153   6.093 -0.2338 -0.1541  0.7193
  363MOL0     C48930   6.295  -0.098   5.966  0.0920 -0.5565  1.0927
  363MOL0     C48931   6.226  -0.203   5.870  0.6091 -0.4256  1.2819
  363MOL0     C48932   6.077  -0.236   5.918 -0.4667 -0.6089 -0.9321
  363MOL0     C48933   6.028  -0.377   5.870 -0.4315 -0.4406 -1.0370
  363MOL0     C48934   6.063  -0.413   5.739 -1.3538  0.6243  0.0162
  363MOL0     C48935   6.081  -0.479   5.639 -0.8485  0.6839 -0.2736
  363MOL0     C48936   6.325   0.068   6.209 -0.3843 -1.1368  0.2146
  363MOL0     C48937   6.345   0.141   6.322  0.5419  0.1373  0.2725
  363MOL0     H48938   6.105   0.226   6.753  0.9440 -0.3588 -1.0263
  363MOL0     H48939   6.034   0.385   6.924 -1.6192  0.5295 -1.4948
  363MOL0     H48940   5.938   0.615   6.979 -0.3139 -1.4456  1.6855
  363MOL0     H48941   6.021   0.535   7.113  0.8280  0.0583  0.3736
  363MOL0     H48942   6.099   0.767   7.200  0.7871 -2.7442  1.1027
  363MOL0     H48943   5.988   0.822   7.063  0.4560  0.1431  0.2194
  363MOL0     H48944   5.799   0.675   7.198  4.0604 -2.6261 -3.8021
  363MOL0     H48945   5.909   0.653   7.320  0.7422  0.2405 -1.3695
  363MOL0     H48946   5.821   0.930   7.222  1.3229 -1.8061 -2.1325
  363MOL0     H48947   5.759   0.846   7.363  0.4275 -2.9543 -1.1658
  363MOL0     H48948   6.055   0.911   7.357 -0.9442 -0.0899 -0.2894
  363MOL0     H48949   5.949   1.026   7.414 -3.7662 -0.3598 -1.3671
  363MOL0     H48950   5.874   0.866   7.594  0.5305  0.8264  2.4365
  363MOL0     H48951   5.981   0.747   7.527 -3.5580  0.3283  2.0559
  363MOL0     H48952   6.155   0.932   7.557 -1.6180  2.1191 -1.7839
  363MOL0     H48953   6.047   1.025   7.645 -0.3252  0.8147  0.5309
  363MOL0     H48954   6.025   0.875   7.833 -0.4707  0.0611  0.2767
  363MOL0     H48955   6.196   0.883   7.793  1.4421  0.0401 -2.6939
  363MOL0     H48956   6.179   0.625   7.577  3.6507 -5.3953  0.5356
  363MOL0     H48957   6.158   0.338   7.593  0.2466 -0.4109 -0.2410
  363MOL0     H48958   6.316   0.406   7.637  1.2341 -1.9623  2.5572
  363MOL0     H48959   6.161   0.230   7.829 -1.1730 -1.2177 -1.4046
  363MOL0     H48960   6.311   0.317   7.860 -1.8425  0.1854  1.3109
  363MOL0     H48961   6.416   0.191   7.659  0.9246 -3.4821  0.5706
  363MOL0     H48962   6.276   0.101   7.655  1.3525 -0.0892  0.2830
  363MOL0     H48963   6.329   0.027   7.900 -2.9799  0.8304 -2.3899
  363MOL0     H48964   6.475   0.124   7.887 -0.2184  0.9584  0.0422
  363MOL0     H48965   6.611   0.171   7.735 -2.2032  0.3087 -2.1405
  363MOL0     H48966   6.871   0.274   7.655 -0.7003 -1.6285  0.8539
  363MOL0     H48967   6.848   0.281   7.479 -0.1955  0.4399  0.0601
  363MOL0     H48968   6.709   0.327   7.591 -0.5747 -0.3915 -2.3631
  363MOL0     H48969   7.277  -0.130   7.602  3.2739 -4.2240 -0.4475
  363MOL0     H48970   7.448  -0.218   7.507  1.5850  0.1454 -1.2556
  363MOL0     H48971   7.617  -0.224   7.373 -3.4860 -1.1950  0.5895
  363MOL0     H48972   7.610  -0.405   7.345 -0.3085 -0.8945  1.3735
  363MOL0     H48973   7.810  -0.364   7.243 -0.4074 -0.7800 -1.1994
  363MOL0     H48974   7.698  -0.355   7.109  2.2336  1.1199 -1.1264
  363MOL0     H48975   7.808  -0.113   7.248  4.1989  0.9070 -1.1318
  363MOL0     H48976   7.699  -0.111   7.112 -0.7368  0.4645  2.8173
  363MOL0     H48977   7.987  -0.207   7.145  0.9449  1.2078 -1.5819
  363MOL0     H48978   7.895  -0.282   7.007 -2.2549 -0.9712 -0.4311
  363MOL0     H48979   8.030  -0.085   6.956  0.3246 -0.8113  0.9015
  363MOL0     H48980   7.918   0.014   7.039  0.6874 -0.1590  0.9122
  363MOL0     H48981   7.868  -0.178   6.794 -1.5833 -0.3468  0.6570
  363MOL0     H48982   7.732  -0.117   6.894 -1.9608  1.7140 -1.7066
  363MOL0     H48983   7.842   0.125   6.828 -1.6984 -1.2459  2.2470
  363MOL0     H48984   7.715   0.060   6.734 -0.4658 -1.8867  0.1920
  363MOL0     H48985   7.875  -0.034   6.564 -0.0746 -2.4107  1.4628
  363MOL0     H48986   8.008  -0.020   6.666  1.0387  0.7053 -0.7511
  363MOL0     H48987   7.284  -0.155   7.112 -1.7131  0.5006  0.0371
  363MOL0     H48988   7.076  -0.072   7.221 -1.8301  0.4967  2.6110
  363MOL0     H48989   6.821  -0.209   7.516 -0.8085  0.1626 -1.2587
  363MOL0     H48990   6.602  -0.236   7.649  2.3361 -0.9834 -0.5055
  363MOL0     H48991   6.306   0.680   6.775  1.2717 -0.3142 -0.7401
  363MOL0     H48992   6.368   0.535   6.592 -1.3809  1.4884 -0.3605
  363MOL0     H48993   6.345  -0.109   6.550 -3.0137  3.1992  1.4461
  363MOL0     H48994   6.354  -0.241   6.322 -2.4092 -0.4567  1.0363
  363MOL0     H48995   6.232  -0.009   5.971 -0.0472 -0.5305 -0.4570
  363MOL0     H48996   6.391  -0.059   5.930 -1.3125  2.1864 -0.0271
  363MOL0     H48997   6.293  -0.289   5.862  1.6258  0.4426 -0.0658
  363MOL0     H48998   6.219  -0.164   5.768 -1.7279 -3.2135  0.2216
  363MOL0     H48999   6.008  -0.164   5.872  0.0293 -2.1543 -4.4455
  363MOL0     H49000   6.061  -0.232   6.026  0.7216  0.6851 -0.7704
  363MOL0     H49001   5.919  -0.370   5.873 -0.3264  1.5175  1.1113
  363MOL0     H49002   6.032  -0.459   5.942 -1.9267 -1.4871 -2.0936
  363MOL0     H49003   6.111  -0.549   5.564 -1.0428 -0.6779  0.8916
  363MOL0     H49004   6.314   0.129   6.120  0.2845 -3.5983 -1.6876
  363MOL0     H49005   6.343   0.250   6.318 -0.1376  0.1002 -2.4099
  364MOL0     O49006   5.892   7.693   5.460  0.0413 -0.6126  0.1200
  364MOL0     C49007   5.788   7.652   5.409 -0.3063 -0.8062 -0.0839
  364MOL0     O49008   5.783   7.574   5.294 -0.1902 -0.3064 -0.4749
  364MOL0     C49009   5.911   7.534   5.248  0.6088 -0.3845 -0.7739
  364MOL0     C49010   5.969   7.425   5.301 -0.2095  0.1588  0.3608
  364MOL0     C49011   6.094   7.387   5.252 -0.5486  0.2619  0.3068
  364MOL0     C49012   6.158   7.453   5.149 -0.2173 -0.6079 -0.0324
  364MOL0     O49013   6.275   7.395   5.097  0.1629  0.8026 -0.6898
  364MOL0     C49014   6.339   7.466   4.986  1.0541 -1.0204  0.0032
  364MOL0     C49015   6.467   7.404   4.938  0.3313 -1.1897 -0.2471
  364MOL0     C49016   6.579   7.453   5.035  0.1245  0.4827 -0.5633
  364MOL0     C49017   6.722   7.402   5.004  0.6557 -0.9633 -0.0975
  364MOL0     C49018   6.765   7.272   5.065 -1.4868  0.4779  0.2751
  364MOL0     C49019   6.806   7.271   5.214  0.1598 -0.5996 -0.5053
  364MOL0     C49020   6.948   7.224   5.247 -0.4409 -0.4356 -0.3617
  364MOL0     C49021   7.047   7.340   5.213  0.3462  0.5604  0.4897
  364MOL0     N49022   7.058   7.441   5.328  0.7437  0.5882  0.0768
  364MOL0     C49023   6.970   7.543   5.341  0.3242  0.3766  0.0690
  364MOL0     C49024   7.018   7.599   5.451  0.6508  0.0195 -0.2928
  364MOL0     C49025   6.972   7.729   5.510 -0.5212 -1.1834  0.0299
  364MOL0     C49026   7.093   7.828   5.503 -0.6666 -0.3025  0.5498
  364MOL0     C49027   7.030   7.975   5.507 -0.0850 -0.3873  0.5049
  364MOL0     C49028   7.141   8.074   5.491  0.5576  0.1800 -0.1739
  364MOL0     O49029   7.098   8.202   5.511 -0.4171  0.2568  0.5281
  364MOL0     C49030   7.168   8.299   5.442  0.4420 -1.0696  0.3227
  364MOL0     C49031   7.307   8.311   5.416 -0.8170 -1.5452  0.8396
  364MOL0     C49032   7.365   8.433   5.367 -0.0474 -0.7418 -0.3160
  364MOL0     C49033   7.514   8.436   5.363  0.4046  0.9365  0.1506
  364MOL0     C49034   7.289   8.541   5.326  0.6435  0.0199  0.0036
  364MOL0     C49035   7.340   8.682   5.295  1.0445 -0.2767 -0.2218
  364MOL0     O49036   7.472   8.701   5.265  0.4493  0.0519 -0.5427
  364MOL0     C49037   7.517   8.819   5.220 -0.1768 -0.9727 -0.6498
  364MOL0     C49038   7.464   8.882   5.106 -0.6136 -0.3188 -0.2488
  364MOL0     C49039   7.498   9.014   5.073  0.2914  0.0216 -0.0647
  364MOL0     C49040   7.591   9.080   5.156  0.5540 -0.1641  0.1331
  364MOL0     O49041   7.646   9.203   5.120 -0.2571  0.5107 -0.0890
  364MOL0     C49042   7.668   9.295   5.224 -0.0230  0.1796  0.3126
  364MOL0     C49043   7.826   9.320   5.248 -0.7775  0.7468  0.0022
  364MOL0     C49044   7.896   9.337   5.113 -0.3621 -0.2934 -0.2495
  364MOL0     C49045   8.025   9.417   5.124  0.5100 -0.9704 -0.0933
  364MOL0     C49046   8.139   9.332   5.187 -1.2706 -0.4987  0.0099
  364MOL0     C49047   8.265   9.397   5.222 -0.3932 -0.5491  0.9204
  364MOL0     C49048   8.348   9.312   5.326  0.3971 -0.4304 -0.0301
  364MOL0     C49049   8.480   9.381   5.352  0.8370 -0.5409  0.5007
  364MOL0    Cl49050   8.445   9.551   5.390  0.1073 -0.4841  0.0402
  364MOL0     C49051   7.650   9.014   5.259 -0.2853  1.3625  0.0543
  364MOL0     C49052   7.605   8.885   5.295 -0.2450 -0.0945  0.1017
  364MOL0     O49053   7.252   8.765   5.299 -0.0820  0.1231 -0.4171
  364MOL0     C49054   7.142   8.532   5.347 -0.1428  0.4221 -0.4660
  364MOL0     C49055   7.094   8.406   5.404 -0.2720 -0.6062 -0.4531
  364MOL0     N49056   7.125   7.535   5.503 -0.0418 -0.0001 -0.1452
  364MOL0     N49057   7.151   7.435   5.428 -0.2844  0.0903  0.6728
  364MOL0     C49058   6.100   7.570   5.102  0.1008  0.0392  0.7085
  364MOL0     C49059   5.979   7.610   5.151 -0.4540 -0.6162 -0.3244
  364MOL0     C49060   5.658   7.670   5.477 -0.5377  0.8519  0.4217
  364MOL0     C49061   5.646   7.757   5.590  0.5020 -0.5840  0.2430
  364MOL0     C49062   5.516   7.776   5.651 -0.0352 -0.2871 -0.5156
  364MOL0     C49063   5.402   7.712   5.607 -0.8246  0.4918  0.1776
  364MOL0     O49064   5.276   7.754   5.657 -0.1479 -0.1968  0.3455
  364MOL0     C49065   5.271   7.866   5.755 -0.0630  0.8553  0.1747
  364MOL0     C49066   5.121   7.878   5.799 -0.3821 -0.0279  0.2259
  364MOL0     C49067   5.035   7.913   5.679  0.3438 -0.7968  0.0775
  364MOL0     C49068   4.888   7.946   5.703 -1.1268 -0.7425  0.4178
  364MOL0     C49069   4.832   7.843   5.772  0.2069  0.3546  0.0900
  364MOL0     C49070   4.786   7.756   5.848 -0.0337 -0.7408 -0.9813
  364MOL0     C49071   5.412   7.631   5.489  0.4986 -0.5344 -0.5471
  364MOL0     C49072   5.542   7.608   5.434  0.0468  0.0121  0.6889
  364MOL0     H49073   5.915   7.363   5.373 -1.3551  2.4914  1.6226
  364MOL0     H49074   6.151   7.301   5.283  1.0297  0.9251 -0.6287
  364MOL0     H49075   6.265   7.467   4.905  1.8952  1.6570 -0.8226
  364MOL0     H49076   6.364   7.569   5.012 -2.3737  0.4472 -1.9407
  364MOL0     H49077   6.451   7.296   4.950 -0.8455 -0.9254  0.8747
  364MOL0     H49078   6.492   7.430   4.835  2.1370 -0.1928  0.4138
  364MOL0     H49079   6.594   7.560   5.023 -1.3741  0.6305 -1.4399
  364MOL0     H49080   6.554   7.433   5.140 -0.1570  4.1537  0.2061
  364MOL0     H49081   6.725   7.397   4.894 -1.6998 -0.7233 -0.2078
  364MOL0     H49082   6.797   7.476   5.035 -0.4907  0.6268 -0.9628
  364MOL0     H49083   6.691   7.196   5.038 -0.3881 -0.1182 -1.2035
  364MOL0     H49084   6.856   7.245   5.010 -1.0705 -0.9016  1.5870
  364MOL0     H49085   6.784   7.368   5.261 -0.9760 -1.5382  1.0029
  364MOL0     H49086   6.742   7.201   5.269  0.6624 -2.0956 -1.7632
  364MOL0     H49087   6.952   7.204   5.355 -1.0756  0.6557 -0.1166
  364MOL0     H49088   6.968   7.136   5.185  2.4326  0.7244 -1.2199
  364MOL0     H49089   7.017   7.392   5.122 -0.1016 -0.9603 -0.2666
  364MOL0     H49090   7.150   7.308   5.195 -0.2581 -0.9705 -0.4475
  364MOL0     H49091   6.885   7.573   5.281  1.1299  1.4220 -0.5862
  364MOL0     H49092   6.891   7.775   5.452 -1.7777 -1.7168  1.3051
  364MOL0     H49093   6.942   7.710   5.613  0.7257 -4.1497 -0.0605
  364MOL0     H49094   7.148   7.821   5.409  1.1447  1.5628  1.3940
  364MOL0     H49095   7.160   7.813   5.588  0.1117  0.6206  0.1150
  364MOL0     H49096   6.984   7.999   5.603  0.9634 -0.5420  1.0604
  364MOL0     H49097   6.962   7.991   5.423  0.8139  4.2734  0.4018
  364MOL0     H49098   7.172   8.063   5.387 -1.5166  1.5777 -1.0084
  364MOL0     H49099   7.236   8.053   5.541  0.9982  2.6205  0.1415
  364MOL0     H49100   7.378   8.233   5.439 -0.2803 -0.8043  1.7300
  364MOL0     H49101   7.546   8.457   5.260 -1.1511 -2.9022 -1.3005
  364MOL0     H49102   7.561   8.511   5.428  0.6395 -0.0242  1.1156
  364MOL0     H49103   7.563   8.340   5.382 -0.0336  0.9612  1.5436
  364MOL0     H49104   7.390   8.841   5.039  0.0667 -0.5778 -0.8600
  364MOL0     H49105   7.450   9.088   5.009  1.5868  1.3353  0.4251
  364MOL0     H49106   7.638   9.394   5.189  2.0995  0.7695  0.0035
  364MOL0     H49107   7.616   9.275   5.318  1.3623 -1.9409  0.6926
  364MOL0     H49108   7.848   9.415   5.297  1.4344  0.3403 -0.0854
  364MOL0     H49109   7.879   9.242   5.303 -2.5763  0.4337  1.3985
  364MOL0     H49110   7.840   9.390   5.035 -1.1165  2.5356  2.0506
  364MOL0     H49111   7.926   9.238   5.076  1.9227  0.7197 -1.3413
  364MOL0     H49112   8.055   9.433   5.020  1.3575 -2.8661 -0.1964
  364MOL0     H49113   8.017   9.514   5.172  5.0942 -0.7642  0.7603
  364MOL0     H49114   8.182   9.276   5.102 -4.2256  2.1149 -3.5123
  364MOL0     H49115   8.106   9.267   5.268 -3.3149  3.1020  2.2978
  364MOL0     H49116   8.334   9.422   5.141 -0.2155 -1.9312  0.6232
  364MOL0     H49117   8.226   9.491   5.263 -1.8196  0.0090 -1.5054
  364MOL0     H49118   8.372   9.210   5.292  0.8029  0.1176 -1.4543
  364MOL0     H49119   8.291   9.308   5.419  0.3166 -0.2249 -0.0719
  364MOL0     H49120   8.548   9.390   5.267 -1.8593 -0.7903 -1.8452
  364MOL0     H49121   8.524   9.334   5.440 -1.6546 -3.2147  0.4767
  364MOL0     H49122   7.735   9.061   5.306  1.3856 -0.2474 -1.1948
  364MOL0     H49123   7.644   8.828   5.379  1.0963  0.1680 -0.3070
  364MOL0     H49124   7.075   8.615   5.328 -3.4955 -0.8673  3.9438
  364MOL0     H49125   6.988   8.410   5.428  0.4718 -2.0183  4.0724
  364MOL0     H49126   6.141   7.627   5.019  0.4871 -2.9624 -1.2945
  364MOL0     H49127   5.918   7.689   5.109 -0.6433  0.8391  2.4569
  364MOL0     H49128   5.733   7.803   5.636 -0.5235  5.9375 -3.1844
  364MOL0     H49129   5.511   7.838   5.740  2.8042 -0.8361  0.1232
  364MOL0     H49130   5.323   7.836   5.846 -2.4979  1.2619  1.7701
  364MOL0     H49131   5.310   7.964   5.725 -0.8793  0.5856 -2.0071
  364MOL0     H49132   5.130   7.952   5.879 -1.1483 -1.4550  1.6732
  364MOL0     H49133   5.086   7.780   5.830 -4.2273  0.7594 -1.0726
  364MOL0     H49134   5.044   7.836   5.602 -1.5234 -3.7925  2.6310
  364MOL0     H49135   5.074   8.008   5.642  2.8968 -1.3045  1.2931
  364MOL0     H49136   4.826   7.968   5.616  2.0333  3.2723 -1.1251
  364MOL0     H49137   4.882   8.034   5.767 -2.2951 -0.3939 -0.1341
  364MOL0     H49138   4.746   7.684   5.916 -2.5736  1.6657  0.2301
  364MOL0     H49139   5.326   7.585   5.440  0.4665 -0.7469 -0.2924
  364MOL0     H49140   5.550   7.542   5.348 -4.2762  0.7213 -0.4408
  365MOL0     O49141   3.116   7.263   4.249 -0.2633 -0.0935 -0.0100
  365MOL0     C49142   3.193   7.351   4.309  0.4149  0.9432  0.0750
  365MOL0     O49143   3.257   7.451   4.246  0.5625  1.1867 -0.4042
  365MOL0     C49144   3.200   7.493   4.130  0.2513 -0.4413 -0.1892
  365MOL0     C49145   3.246   7.431   4.012  0.1406  0.2321  0.0701
  365MOL0     C49146   3.196   7.465   3.880 -0.4296  0.5728 -1.0897
  365MOL0     C49147   3.079   7.550   3.880 -0.9306 -0.0938 -0.4630
  365MOL0     O49148   3.009   7.563   3.766 -0.9529 -0.5329  0.8984
  365MOL0     C49149   2.953   7.690   3.733  0.6989 -0.2743  0.2987
  365MOL0     C49150   2.922   7.710   3.579 -0.2117  0.3392 -0.2090
  365MOL0     C49151   2.881   7.591   3.501 -0.0395  0.0087  1.0154
  365MOL0     C49152   2.856   7.651   3.358 -0.6457 -0.0035 -1.0534
  365MOL0     C49153   2.856   7.545   3.241 -0.9355  0.2140 -0.0278
  365MOL0     C49154   2.822   7.605   3.096  0.2574  0.3051  0.3499
  365MOL0     C49155   2.798   7.495   2.988  1.2199  0.7233  0.3123
  365MOL0     C49156   2.691   7.394   3.035  0.3591 -0.7054  0.2504
  365MOL0     N49157   2.640   7.303   2.936  0.0559  0.4184  0.3499
  365MOL0     C49158   2.552   7.348   2.843  0.0648 -0.3156 -0.7163
  365MOL0     C49159   2.565   7.263   2.740 -1.0938  0.1720  0.5480
  365MOL0     C49160   2.492   7.260   2.607 -0.8550  0.2736  0.4207
  365MOL0     C49161   2.591   7.271   2.494  0.7302  0.2751  0.1512
  365MOL0     C49162   2.639   7.415   2.466 -0.9147 -0.1565 -0.3919
  365MOL0     C49163   2.769   7.460   2.548  0.3679  0.8599  1.0437
  365MOL0     O49164   2.891   7.401   2.503  0.0294 -0.3422 -0.1223
  365MOL0     C49165   3.018   7.419   2.561 -0.4565 -0.6411 -0.6401
  365MOL0     C49166   3.041   7.497   2.669 -0.2513 -0.0984  0.0548
  365MOL0     C49167   3.168   7.512   2.731  0.1775 -0.0564  0.2114
  365MOL0     C49168   3.174   7.601   2.854 -0.6948 -0.4897 -0.1607
  365MOL0     C49169   3.277   7.442   2.681 -1.3503 -1.2366 -0.7638
  365MOL0     C49170   3.411   7.442   2.744 -0.3750  0.3646  0.0486
  365MOL0     O49171   3.510   7.405   2.658 -1.3932 -0.1673 -0.2176
  365MOL0     C49172   3.631   7.362   2.711  0.6867 -0.1373  0.7834
  365MOL0     C49173   3.700   7.452   2.793 -0.5840 -0.0809  0.6965
  365MOL0     C49174   3.819   7.408   2.849 -0.5040  0.0210 -0.4816
  365MOL0     C49175   3.868   7.275   2.831  0.6262 -0.3622 -0.5562
  365MOL0     O49176   3.982   7.236   2.901  0.4807 -0.2706 -0.0625
  365MOL0     C49177   3.940   7.230   3.043 -0.3817 -0.2819 -0.2746
  365MOL0     C49178   4.007   7.114   3.117 -0.2706 -0.3515  0.0139
  365MOL0     C49179   3.961   7.104   3.255  0.0816  0.2117  0.3160
  365MOL0     C49180   4.056   7.049   3.354 -0.3919  0.3634 -0.7028
  365MOL0     C49181   3.996   7.024   3.489 -0.3861 -0.1784  0.4175
  365MOL0     C49182   3.942   7.139   3.566 -0.5206  0.0317 -0.0200
  365MOL0     C49183   3.893   7.095   3.703  0.0130  0.9163 -0.3234
  365MOL0     C49184   4.005   7.067   3.806  0.8861 -0.6639  0.1218
  365MOL0    Cl49185   3.954   7.076   3.984  0.1708 -0.2293 -0.3416
  365MOL0     C49186   3.806   7.195   2.736  0.3323 -0.5289 -0.0874
  365MOL0     C49187   3.687   7.242   2.678 -0.2678  0.3331 -0.2321
  365MOL0     O49188   3.426   7.462   2.858 -0.1418  0.1310 -0.4324
  365MOL0     C49189   3.257   7.370   2.568 -0.4700 -0.2129  0.4079
  365MOL0     C49190   3.130   7.357   2.506 -0.2841 -0.3946  0.7577
  365MOL0     N49191   2.661   7.163   2.774 -0.1746 -0.8998  0.4452
  365MOL0     N49192   2.703   7.191   2.897  0.4474  1.2430  0.5992
  365MOL0     C49193   3.035   7.605   4.001  0.1209 -0.4969 -0.6942
  365MOL0     C49194   3.094   7.584   4.119 -0.8075 -0.4138 -0.0735
  365MOL0     C49195   3.202   7.354   4.456  0.1850 -1.1966  0.7778
  365MOL0     C49196   3.149   7.243   4.532 -0.0620 -1.1222  0.4452
  365MOL0     C49197   3.168   7.236   4.671 -1.0325 -0.0013  0.3820
  365MOL0     C49198   3.239   7.339   4.730  0.1959  0.1208 -0.5451
  365MOL0     O49199   3.260   7.345   4.871  0.5951 -0.1204  0.1946
  365MOL0     C49200   3.159   7.289   4.949  0.0451  0.6659  0.7543
  365MOL0     C49201   3.176   7.316   5.094  0.3577 -0.0034  0.1636
  365MOL0     C49202   3.122   7.456   5.130 -0.0965  0.5561 -0.3021
  365MOL0     C49203   3.166   7.472   5.271  0.7696 -0.0966 -1.0780
  365MOL0     C49204   3.087   7.574   5.347  0.3040 -0.1884 -0.8443
  365MOL0     C49205   3.024   7.651   5.417 -0.0314  0.8944 -0.3236
  365MOL0     C49206   3.289   7.447   4.662 -0.2584 -0.3429 -0.1033
  365MOL0     C49207   3.277   7.452   4.522  0.2504 -0.1790  0.2284
  365MOL0     H49208   3.332   7.364   4.014 -0.8628 -1.0823  0.1547
  365MOL0     H49209   3.255   7.447   3.791 -0.5346 -2.5494 -0.6444
  365MOL0     H49210   2.853   7.699   3.778  1.1115 -0.1603  1.2181
  365MOL0     H49211   3.015   7.770   3.775  0.1198 -1.4033  3.6107
  365MOL0     H49212   2.839   7.780   3.575 -2.3309 -2.0556 -0.7954
  365MOL0     H49213   3.018   7.751   3.546  0.7183 -1.1877  0.5149
  365MOL0     H49214   2.962   7.517   3.492 -0.2767 -0.1442 -0.0597
  365MOL0     H49215   2.790   7.543   3.538  0.2111 -0.0921  1.5079
  365MOL0     H49216   2.763   7.708   3.353  0.4600  1.8000 -2.4073
  365MOL0     H49217   2.932   7.727   3.336 -0.5182  1.3717  3.2322
  365MOL0     H49218   2.955   7.497   3.241  0.2576  2.3329 -2.7070
  365MOL0     H49219   2.776   7.473   3.260 -2.8977  1.8162 -1.7261
  365MOL0     H49220   2.723   7.650   3.112  0.9258  0.6859  4.4712
  365MOL0     H49221   2.892   7.684   3.071 -0.0286  1.8935  3.8628
  365MOL0     H49222   2.770   7.542   2.893  1.1863 -0.5331 -0.3179
  365MOL0     H49223   2.885   7.432   2.967  0.8946 -0.0001  1.0889
  365MOL0     H49224   2.605   7.451   3.071  0.4048  0.0489 -0.7911
  365MOL0     H49225   2.745   7.328   3.103  1.7978 -2.2847 -2.2588
  365MOL0     H49226   2.483   7.432   2.834  2.8008  2.1525 -0.4139
  365MOL0     H49227   2.439   7.165   2.610 -0.1501 -0.1835  4.7782
  365MOL0     H49228   2.419   7.338   2.583 -1.5722 -0.8181 -1.0825
  365MOL0     H49229   2.528   7.245   2.408  0.2501  1.5026  0.1247
  365MOL0     H49230   2.679   7.206   2.500  1.9826  1.8523 -0.5652
  365MOL0     H49231   2.558   7.484   2.492  1.5550  1.9716  2.3474
  365MOL0     H49232   2.655   7.434   2.359  0.0594  2.9004  0.1819
  365MOL0     H49233   2.765   7.422   2.651  1.3231 -1.4247  0.3036
  365MOL0     H49234   2.776   7.569   2.549  0.9724  0.9466 -2.1021
  365MOL0     H49235   2.963   7.549   2.724 -2.6742 -0.6877 -2.6408
  365MOL0     H49236   3.099   7.680   2.846 -0.7273 -0.1515  2.6476
  365MOL0     H49237   3.155   7.546   2.947 -1.0707  0.1293  0.1338
  365MOL0     H49238   3.269   7.654   2.866  1.4324 -4.0689  0.2930
  365MOL0     H49239   3.666   7.552   2.815  1.0198  0.4788  0.7800
  365MOL0     H49240   3.881   7.471   2.911 -2.3450  0.6321  0.8134
  365MOL0     H49241   3.977   7.317   3.098 -0.1592 -0.9521  0.6650
  365MOL0     H49242   3.833   7.215   3.059  0.1229 -3.5732  0.7602
  365MOL0     H49243   3.988   7.019   3.065  0.8486 -0.3065 -0.4997
  365MOL0     H49244   4.113   7.139   3.113 -0.5957  1.2825  0.8641
  365MOL0     H49245   3.875   7.038   3.253 -0.0413  0.3866 -0.4962
  365MOL0     H49246   3.948   7.206   3.292  2.0253 -0.6480  3.8511
  365MOL0     H49247   4.096   6.958   3.307  2.6520  2.0497 -1.6424
  365MOL0     H49248   4.145   7.110   3.365 -0.8551  1.2598 -1.7017
  365MOL0     H49249   4.078   6.982   3.547  0.2321  0.9687  0.3992
  365MOL0     H49250   3.914   6.951   3.491  1.1437 -1.9366  2.3607
  365MOL0     H49251   4.026   7.208   3.579  0.0623 -0.5732 -0.5272
  365MOL0     H49252   3.855   7.190   3.523 -2.2972 -0.7374  2.4603
  365MOL0     H49253   3.821   7.014   3.692 -0.6973  1.7987 -2.5663
  365MOL0     H49254   3.834   7.177   3.744 -0.7982 -0.1200  0.6330
  365MOL0     H49255   4.081   7.143   3.790 -2.1607  3.4008  2.7921
  365MOL0     H49256   4.037   6.968   3.773 -1.9156 -1.1088 -1.6935
  365MOL0     H49257   3.847   7.097   2.714 -0.0272 -0.7703  0.3069
  365MOL0     H49258   3.625   7.174   2.620 -0.7756 -1.1911  1.9823
  365MOL0     H49259   3.329   7.333   2.496  0.7350 -1.2886  2.0946
  365MOL0     H49260   3.108   7.304   2.415  0.6355 -2.3600  1.6172
  365MOL0     H49261   2.948   7.669   3.992 -0.0253 -0.7276 -0.9281
  365MOL0     H49262   3.071   7.645   4.206  2.2286  0.6707  0.0690
  365MOL0     H49263   3.095   7.158   4.492  2.2485 -2.1419 -0.7160
  365MOL0     H49264   3.117   7.159   4.727 -0.9339 -0.5684 -0.2888
  365MOL0     H49265   3.060   7.322   4.917  0.7026 -0.0550 -2.2738
  365MOL0     H49266   3.168   7.181   4.939  3.1039  0.9738 -0.9096
  365MOL0     H49267   3.283   7.310   5.114  0.1240  2.3579  2.6189
  365MOL0     H49268   3.117   7.240   5.145  1.8300 -0.3618  1.3850
  365MOL0     H49269   3.014   7.470   5.120 -0.2890  0.2564  1.1312
  365MOL0     H49270   3.164   7.532   5.064 -4.8351  4.8241  1.0003
  365MOL0     H49271   3.272   7.499   5.279  0.2976  1.8592 -1.1174
  365MOL0     H49272   3.158   7.379   5.328  1.8685  2.1295  3.1546
  365MOL0     H49273   2.969   7.728   5.469  0.4790  0.7951  0.3812
  365MOL0     H49274   3.340   7.529   4.711  1.1319 -0.3013 -1.5227
  365MOL0     H49275   3.315   7.534   4.461  0.9862 -0.8450 -0.2287
  366MOL0     O49276   4.381   6.226   5.877 -0.6717 -0.5308  0.6483
  366MOL0     C49277   4.375   6.142   5.787  0.6962 -0.2860  0.1066
  366MOL0     O49278   4.324   6.014   5.813 -0.4824 -0.1768  0.1591
  366MOL0     C49279   4.280   5.973   5.930  0.6576 -0.6298  0.3008
  366MOL0     C49280   4.282   5.832   5.942  0.7845 -0.3559 -1.3161
  366MOL0     C49281   4.225   5.773   6.059  0.4031 -0.0298 -0.2490
  366MOL0     C49282   4.162   5.848   6.164 -0.5394  0.2990 -0.2502
  366MOL0     O49283   4.112   5.784   6.271 -0.0036 -0.4631 -0.1771
  366MOL0     C49284   3.973   5.793   6.301  0.4510  0.3417 -0.8793
  366MOL0     C49285   3.947   5.798   6.455  0.4673  0.5754  0.3095
  366MOL0     C49286   3.806   5.843   6.490 -0.1947 -1.1020  0.1237
  366MOL0     C49287   3.771   5.855   6.641  0.3190 -0.1293  0.1851
  366MOL0     C49288   3.634   5.911   6.666  0.2047  0.2093  0.2674
  366MOL0     C49289   3.522   5.808   6.649  0.4795 -0.4668 -0.0082
  366MOL0     C49290   3.377   5.864   6.674 -0.3803 -0.6708 -0.2285
  366MOL0     C49291   3.344   5.894   6.825  0.1074 -0.3001  0.4336
  366MOL0     N49292   3.199   5.935   6.840  1.0773  0.1898 -0.3294
  366MOL0     C49293   3.163   6.062   6.876  0.8787 -0.2475  0.2506
  366MOL0     C49294   3.029   6.064   6.870 -0.6418  1.0922  0.1910
  366MOL0     C49295   2.919   6.168   6.902 -1.1023  1.0782 -1.2401
  366MOL0     C49296   2.955   6.224   7.039  0.1382 -0.0417 -0.2989
  366MOL0     C49297   2.936   6.372   7.059 -0.3279  0.3338 -0.3752
  366MOL0     C49298   2.906   6.406   7.201 -1.0917 -0.6143  0.0616
  366MOL0     O49299   3.002   6.343   7.296 -0.0988 -0.0234  0.4639
  366MOL0     C49300   3.123   6.396   7.325 -0.7428 -0.6440  0.0094
  366MOL0     C49301   3.174   6.505   7.255 -0.3482 -0.5783 -0.6818
  366MOL0     C49302   3.301   6.557   7.287 -0.9803  0.2170  0.8455
  366MOL0     C49303   3.334   6.689   7.207 -0.0056 -0.3704  0.2965
  366MOL0     C49304   3.383   6.492   7.381  0.1518  0.6002  0.5487
  366MOL0     C49305   3.512   6.528   7.423  0.1152  1.4049  1.4173
  366MOL0     O49306   3.547   6.503   7.553 -0.6065  0.3130 -0.5825
  366MOL0     C49307   3.681   6.536   7.597 -0.1711  0.1884 -0.5318
  366MOL0     C49308   3.728   6.475   7.702  0.2339  0.4909 -0.1386
  366MOL0     C49309   3.848   6.516   7.774  0.0625  1.3632  0.2567
  366MOL0     C49310   3.933   6.599   7.701  0.3385 -0.6823 -0.7626
  366MOL0     O49311   4.053   6.629   7.767  0.0711  0.2656  0.6074
  366MOL0     C49312   4.155   6.679   7.672 -0.9167 -0.7863 -0.0244
  366MOL0     C49313   4.278   6.676   7.774 -0.5506 -1.0964  1.2231
  366MOL0     C49314   4.302   6.535   7.840 -0.9157  0.1539  0.2636
  366MOL0     C49315   4.427   6.535   7.925 -0.1310 -0.3497 -0.3960
  366MOL0     C49316   4.475   6.393   7.962  0.2585 -0.0395  0.9037
  366MOL0     C49317   4.562   6.340   7.845 -0.4556 -0.5797  0.8771
  366MOL0     C49318   4.663   6.226   7.887  0.5811  0.2660  0.4990
  366MOL0     C49319   4.790   6.266   7.957  0.8869  0.5153  1.0343
  366MOL0    Cl49320   4.889   6.130   7.981  0.0577  0.5202  0.0221
  366MOL0     C49321   3.874   6.686   7.603 -0.3330  0.2728 -0.7700
  366MOL0     C49322   3.747   6.655   7.554 -0.5817  0.9495  0.4083
  366MOL0     O49323   3.587   6.571   7.339 -0.1422 -0.9944 -0.4991
  366MOL0     C49324   3.329   6.372   7.433 -0.5955 -1.5850  0.2628
  366MOL0     C49325   3.203   6.336   7.419  1.4591  0.2763 -0.0936
  366MOL0     N49326   2.987   5.938   6.830  0.2296  0.0538  0.3850
  366MOL0     N49327   3.087   5.860   6.812 -0.6739  0.4328  0.2406
  366MOL0     C49328   4.160   5.983   6.143 -0.4292  0.4958 -1.2038
  366MOL0     C49329   4.205   6.045   6.022  0.0590 -0.0177  1.2440
  366MOL0     C49330   4.433   6.169   5.654  0.6325  0.0317 -1.4197
  366MOL0     C49331   4.469   6.070   5.574 -0.5208  0.1605 -0.0232
  366MOL0     C49332   4.520   6.101   5.442 -0.9604 -0.0829 -0.1860
  366MOL0     C49333   4.537   6.232   5.402 -0.5720  0.1686 -0.2697
  366MOL0     O49334   4.600   6.253   5.286  0.1666 -0.2659 -0.4057
  366MOL0     C49335   4.528   6.327   5.192  0.0098  0.3517  0.6969
  366MOL0     C49336   4.635   6.421   5.136 -0.7987  0.2087  0.0021
  366MOL0     C49337   4.623   6.499   5.010 -0.1981  0.5009  0.1311
  366MOL0     C49338   4.731   6.604   4.991  1.4110 -0.5870 -0.2592
  366MOL0     C49339   4.859   6.544   4.973 -0.2446  0.1583 -0.8599
  366MOL0     C49340   4.965   6.492   4.949 -0.1786 -0.7559 -1.0631
  366MOL0     C49341   4.486   6.334   5.487  0.9664 -0.4945 -0.3414
  366MOL0     C49342   4.447   6.303   5.613 -0.3593  0.1086  0.1405
  366MOL0     H49343   4.344   5.780   5.869  2.4948  0.9199 -0.8459
  366MOL0     H49344   4.230   5.665   6.069 -0.0853 -0.4602 -3.5258
  366MOL0     H49345   3.924   5.882   6.262 -1.6282  0.4199  1.6257
  366MOL0     H49346   3.923   5.707   6.256  3.2797 -1.1599 -1.4362
  366MOL0     H49347   3.969   5.692   6.470 -0.7901 -0.2263 -2.6721
  366MOL0     H49348   4.021   5.850   6.517  1.0203  2.1229 -1.5284
  366MOL0     H49349   3.790   5.944   6.452 -0.7776 -0.9177  0.8472
  366MOL0     H49350   3.739   5.768   6.445 -1.5544  2.0104 -3.5809
  366MOL0     H49351   3.788   5.765   6.701  1.5445  0.2084  0.3557
  366MOL0     H49352   3.846   5.928   6.672  0.4769  0.3558 -1.2960
  366MOL0     H49353   3.632   5.948   6.769 -1.7692 -1.0289  0.7358
  366MOL0     H49354   3.604   5.998   6.606 -2.8377 -1.6455 -1.1415
  366MOL0     H49355   3.525   5.770   6.547  1.0363 -1.3546  0.3271
  366MOL0     H49356   3.537   5.728   6.722  1.2929  3.5841  4.8407
  366MOL0     H49357   3.351   5.958   6.624 -2.2538 -0.1269  1.5998
  366MOL0     H49358   3.305   5.791   6.636 -0.4923 -0.7325  0.0973
  366MOL0     H49359   3.409   5.972   6.864  1.5518 -1.2104 -0.0586
  366MOL0     H49360   3.355   5.803   6.885  0.4507 -2.4879 -2.6472
  366MOL0     H49361   3.229   6.135   6.921 -1.4855  2.2408 -0.0277
  366MOL0     H49362   2.937   6.247   6.830  2.3588  2.9668  1.3652
  366MOL0     H49363   2.813   6.141   6.897 -2.1236  4.7336 -1.8742
  366MOL0     H49364   3.061   6.210   7.063  1.2556  0.5426 -4.1621
  366MOL0     H49365   2.899   6.169   7.115 -0.4504  1.7977  0.6581
  366MOL0     H49366   2.845   6.397   7.003 -2.5982 -0.9467  2.5352
  366MOL0     H49367   3.027   6.423   7.027  0.7421 -0.8067  0.7240
  366MOL0     H49368   2.807   6.368   7.229 -0.6348 -1.2251  0.9173
  366MOL0     H49369   2.896   6.514   7.215 -0.8734 -0.4475 -1.0232
  366MOL0     H49370   3.121   6.563   7.180 -0.8174 -1.0585 -0.7299
  366MOL0     H49371   3.236   6.737   7.210 -0.8442 -1.9099 -1.3300
  366MOL0     H49372   3.413   6.742   7.262 -2.3351  1.7605  1.7931
  366MOL0     H49373   3.355   6.669   7.102  1.2108 -0.3733  0.5232
  366MOL0     H49374   3.676   6.398   7.758  3.0052 -1.2336  0.2974
  366MOL0     H49375   3.867   6.466   7.869 -0.5087 -3.7807 -2.0053
  366MOL0     H49376   4.167   6.615   7.584  3.3085 -1.0039  0.4983
  366MOL0     H49377   4.129   6.779   7.638  3.8768  0.5817 -0.3998
  366MOL0     H49378   4.374   6.697   7.725 -0.0748 -3.4425  1.0460
  366MOL0     H49379   4.261   6.747   7.855 -3.3187 -1.5677  1.1229
  366MOL0     H49380   4.304   6.458   7.763  1.8276  1.4377 -1.0989
  366MOL0     H49381   4.220   6.507   7.907 -0.9130 -3.1197 -0.9345
  366MOL0     H49382   4.503   6.590   7.869 -0.2628 -0.8891 -1.1293
  366MOL0     H49383   4.407   6.577   8.024 -0.3688 -1.7254  0.1603
  366MOL0     H49384   4.380   6.346   7.988  0.3248 -0.6617  0.0733
  366MOL0     H49385   4.547   6.393   8.044  0.7505  2.3681  0.5521
  366MOL0     H49386   4.511   6.314   7.752 -0.0874  0.3612  0.4006
  366MOL0     H49387   4.626   6.424   7.815  3.0203 -2.5887  2.1440
  366MOL0     H49388   4.693   6.184   7.790 -1.0045 -0.6582  0.3675
  366MOL0     H49389   4.612   6.154   7.952  2.0179  0.3450  1.7738
  366MOL0     H49390   4.764   6.309   8.055  0.6466  0.0476  1.1811
  366MOL0     H49391   4.839   6.342   7.896  0.3816 -1.2034 -1.6406
  366MOL0     H49392   3.921   6.775   7.563  2.5864 -0.1736  1.3248
  366MOL0     H49393   3.703   6.724   7.483  2.1703  1.8581 -0.5133
  366MOL0     H49394   3.386   6.318   7.507 -0.8168 -0.3852  1.3349
  366MOL0     H49395   3.163   6.253   7.477 -0.5067  0.5224 -1.0166
  366MOL0     H49396   4.110   6.033   6.226 -0.4453  0.2587 -1.0705
  366MOL0     H49397   4.181   6.149   6.006 -2.6746 -0.6327  0.7649
  366MOL0     H49398   4.467   5.966   5.605  1.0578 -0.2419 -1.1503
  366MOL0     H49399   4.552   6.017   5.382  0.9562  1.1185 -0.9524
  366MOL0     H49400   4.494   6.265   5.109 -2.6770 -0.1248  2.0512
  366MOL0     H49401   4.441   6.377   5.236 -0.4568 -0.6664  0.9479
  366MOL0     H49402   4.730   6.368   5.124  0.7292  3.1255 -2.2756
  366MOL0     H49403   4.647   6.494   5.217  0.9214 -0.7772  0.6873
  366MOL0     H49404   4.524   6.547   5.010 -1.4010 -1.8307 -0.2259
  366MOL0     H49405   4.629   6.424   4.931  2.7227  0.0623  0.6455
  366MOL0     H49406   4.745   6.672   5.076  1.9011 -3.1788  1.8447
  366MOL0     H49407   4.709   6.668   4.905 -2.9960  5.7422  4.6016
  366MOL0     H49408   5.058   6.444   4.924  1.0951  1.3607 -0.6094
  366MOL0     H49409   4.478   6.440   5.465 -3.5221  0.1587  2.9035
  366MOL0     H49410   4.408   6.393   5.659  0.8326  0.8320 -0.2323
  367MOL0     O49411   2.855   7.886   7.215  0.1179 -0.0796  0.4564
  367MOL0     C49412   2.916   7.783   7.191 -0.2908  0.0300  0.2223
  367MOL0     O49413   3.049   7.740   7.221  0.7260 -0.6932 -0.0337
  367MOL0     C49414   3.150   7.815   7.276 -0.5054 -0.2721 -0.0310
  367MOL0     C49415   3.278   7.760   7.285 -0.5042  0.5880  0.9386
  367MOL0     C49416   3.392   7.832   7.327  0.1595  0.1609  0.4584
  367MOL0     C49417   3.381   7.966   7.365  0.5040 -0.5095 -0.0581
  367MOL0     O49418   3.491   8.035   7.393 -0.2011 -0.1229 -0.0128
  367MOL0     C49419   3.485   8.169   7.454 -0.5788  0.4722 -0.1078
  367MOL0     C49420   3.598   8.176   7.560  0.1516 -0.1486  0.1453
  367MOL0     C49421   3.740   8.168   7.508 -0.8984 -0.3559 -0.3419
  367MOL0     C49422   3.757   8.273   7.394  0.3062 -0.2802  0.7706
  367MOL0     C49423   3.897   8.284   7.334 -0.6994 -0.2145 -0.5953
  367MOL0     C49424   3.911   8.404   7.234 -0.0921 -0.2624 -0.5029
  367MOL0     C49425   3.895   8.360   7.089  0.3201  0.1324 -0.0098
  367MOL0     C49426   3.993   8.247   7.057 -0.2641  0.2377  1.4349
  367MOL0     N49427   4.026   8.229   6.916 -0.2453 -1.2225  0.4698
  367MOL0     C49428   4.146   8.255   6.857  0.6557  0.3191  0.7696
  367MOL0     C49429   4.125   8.222   6.730 -1.0178 -0.2417  0.2388
  367MOL0     C49430   4.229   8.240   6.623 -0.7545 -0.2235 -0.3604
  367MOL0     C49431   4.166   8.248   6.479  0.9362 -1.0172  0.3661
  367MOL0     C49432   4.249   8.294   6.361 -0.0409  0.2118  0.0683
  367MOL0     C49433   4.157   8.348   6.242 -0.5970 -0.2741 -1.0594
  367MOL0     O49434   4.238   8.394   6.142  0.4714  0.3096  0.6076
  367MOL0     C49435   4.188   8.459   6.030  1.0846  0.9779 -0.6014
  367MOL0     C49436   4.281   8.524   5.948 -0.2030 -0.4547 -0.7812
  367MOL0     C49437   4.243   8.604   5.839 -0.4425  0.9564  0.2816
  367MOL0     C49438   4.349   8.687   5.762  0.5275  1.1447 -0.8714
  367MOL0     C49439   4.105   8.608   5.806 -0.1351 -1.4104 -0.3267
  367MOL0     C49440   4.047   8.674   5.693 -0.5281 -0.8836  0.4717
  367MOL0     O49441   3.912   8.647   5.662  0.6059 -0.6067 -0.6989
  367MOL0     C49442   3.868   8.709   5.550 -0.4699 -0.0800 -0.4793
  367MOL0     C49443   3.934   8.686   5.427 -0.0316 -0.0107  0.5588
  367MOL0     C49444   3.889   8.732   5.308 -0.6256  0.3983  0.2612
  367MOL0     C49445   3.777   8.819   5.302  0.1263 -0.2162  0.3134
  367MOL0     O49446   3.730   8.859   5.181  0.7766  0.3458  0.0240
  367MOL0     C49447   3.587   8.888   5.172  0.5432 -0.4130 -0.4171
  367MOL0     C49448   3.557   8.930   5.031  0.0831  0.3252  0.1783
  367MOL0     C49449   3.420   8.874   4.981  0.2144 -0.2128 -0.1835
  367MOL0     C49450   3.398   8.913   4.838  1.0383  0.7029 -0.2839
  367MOL0     C49451   3.270   9.009   4.827  0.1991  0.0216  0.0883
  367MOL0     C49452   3.282   9.146   4.908  0.3675  0.3943 -0.2682
  367MOL0     C49453   3.161   9.235   4.878 -0.5451 -0.4737  0.6240
  367MOL0     C49454   3.200   9.369   4.947 -0.4238 -0.3317 -0.5829
  367MOL0    Cl49455   3.333   9.463   4.867 -0.4689 -0.2800 -0.0599
  367MOL0     C49456   3.704   8.835   5.421  0.7055  0.7228 -0.2158
  367MOL0     C49457   3.751   8.784   5.545  0.4408 -0.8586 -0.4789
  367MOL0     O49458   4.110   8.772   5.652 -0.1166  0.0954 -0.3675
  367MOL0     C49459   4.012   8.541   5.884 -0.0078 -0.5210 -0.0548
  367MOL0     C49460   4.053   8.457   5.992 -0.4059  0.4614 -0.3014
  367MOL0     N49461   3.987   8.187   6.707 -0.9126  0.0147  0.3555
  367MOL0     N49462   3.932   8.196   6.823  0.0868  0.3036  0.8527
  367MOL0     C49463   3.250   8.029   7.348 -0.0222  0.2575 -0.3993
  367MOL0     C49464   3.144   7.953   7.309 -0.3526 -0.4041 -0.1439
  367MOL0     C49465   2.840   7.679   7.129  0.1814  0.3475 -0.2071
  367MOL0     C49466   2.878   7.540   7.143  0.0200 -0.4487 -0.6134
  367MOL0     C49467   2.788   7.437   7.102 -0.2905 -0.2992  1.1466
  367MOL0     C49468   2.675   7.464   7.032  0.5794  0.3015  0.1562
  367MOL0     O49469   2.605   7.359   6.972 -0.5191 -0.5917 -1.0317
  367MOL0     C49470   2.510   7.390   6.878  1.0290 -0.2608 -0.2209
  367MOL0     C49471   2.489   7.266   6.784  0.4625 -0.0180 -0.0117
  367MOL0     C49472   2.368   7.293   6.690  0.3165 -0.5136 -0.0440
  367MOL0     C49473   2.417   7.364   6.567 -0.2619  0.0388  0.0306
  367MOL0     C49474   2.495   7.260   6.484  0.4236 -0.7528  0.8282
  367MOL0     C49475   2.544   7.187   6.399 -0.3799  1.2468 -0.2011
  367MOL0     C49476   2.640   7.597   7.021 -0.4935 -0.2992 -0.2914
  367MOL0     C49477   2.718   7.708   7.068  0.7995  1.1539 -0.1741
  367MOL0     H49478   3.305   7.665   7.241 -0.9507  0.8885 -0.0036
  367MOL0     H49479   3.489   7.787   7.346 -0.1055  0.0386  1.5657
  367MOL0     H49480   3.507   8.253   7.388  0.3191 -1.0612 -1.8451
  367MOL0     H49481   3.389   8.186   7.503  0.2743  3.4076  0.7814
  367MOL0     H49482   3.587   8.269   7.617 -0.5173  1.8062 -2.9107
  367MOL0     H49483   3.572   8.094   7.627  2.1455  2.9089  5.1906
  367MOL0     H49484   3.808   8.180   7.592 -0.0085 -0.1931 -1.0733
  367MOL0     H49485   3.747   8.066   7.471  2.4620 -0.3344 -0.0440
  367MOL0     H49486   3.698   8.257   7.303  1.1175 -0.9627  0.3547
  367MOL0     H49487   3.728   8.371   7.434 -6.5669 -0.9820 -1.2717
  367MOL0     H49488   3.967   8.302   7.416 -1.2276 -0.7885 -0.0086
  367MOL0     H49489   3.934   8.188   7.297  3.0451  1.4248 -1.6293
  367MOL0     H49490   3.835   8.478   7.262 -2.4618 -1.8054 -2.5176
  367MOL0     H49491   4.018   8.425   7.243  0.7989 -4.0081 -0.7358
  367MOL0     H49492   3.792   8.325   7.079 -0.4607  2.2548 -0.0822
  367MOL0     H49493   3.921   8.447   7.027  2.1893 -0.3103  0.0795
  367MOL0     H49494   3.955   8.155   7.102  1.4738 -1.4177 -0.3218
  367MOL0     H49495   4.085   8.276   7.108 -0.2328 -1.6397  2.5525
  367MOL0     H49496   4.246   8.275   6.894  1.2788 -0.0878 -0.6293
  367MOL0     H49497   4.293   8.326   6.643  0.0357 -0.9526  0.3656
  367MOL0     H49498   4.297   8.157   6.647 -1.0144 -0.0054  1.2183
  367MOL0     H49499   4.080   8.315   6.479  2.3689  0.9325 -1.3679
  367MOL0     H49500   4.133   8.147   6.450  3.4048 -2.3907  1.9509
  367MOL0     H49501   4.320   8.213   6.343 -1.8531 -1.4990  0.2680
  367MOL0     H49502   4.313   8.376   6.396 -1.0363  1.1200 -0.1681
  367MOL0     H49503   4.088   8.426   6.276  1.2047  1.5752 -1.4950
  367MOL0     H49504   4.104   8.261   6.202  0.6858 -0.6972 -1.8860
  367MOL0     H49505   4.386   8.526   5.975  0.0954  0.6352 -1.9288
  367MOL0     H49506   4.443   8.639   5.791 -0.7050 -2.3759 -2.1054
  367MOL0     H49507   4.338   8.674   5.654  0.3835  1.8194 -0.9401
  367MOL0     H49508   4.337   8.793   5.785 -0.9581  1.3618 -2.4391
  367MOL0     H49509   4.013   8.612   5.421  1.0956  1.2603 -1.7060
  367MOL0     H49510   3.943   8.705   5.218  0.3355 -1.6553  1.3900
  367MOL0     H49511   3.524   8.803   5.199 -2.0099  1.8748  1.5600
  367MOL0     H49512   3.560   8.972   5.237  1.6178 -1.1285  1.0154
  367MOL0     H49513   3.574   9.037   5.023  0.8535  0.1054 -1.5583
  367MOL0     H49514   3.635   8.886   4.968  0.9386 -0.9331  2.0249
  367MOL0     H49515   3.335   8.901   5.045 -0.0559 -0.7784 -0.2966
  367MOL0     H49516   3.424   8.765   4.977 -1.7123 -0.3034 -0.7473
  367MOL0     H49517   3.487   8.954   4.788  1.7999 -0.6464 -0.0765
  367MOL0     H49518   3.383   8.822   4.778  1.7031  0.6973 -0.4500
  367MOL0     H49519   3.185   8.950   4.864 -0.4799  0.2986 -0.9857
  367MOL0     H49520   3.253   9.026   4.721  1.5525  1.3459  0.0502
  367MOL0     H49521   3.283   9.128   5.016  0.8332 -0.1498 -0.3590
  367MOL0     H49522   3.380   9.191   4.888  2.0330 -1.6801  2.5512
  367MOL0     H49523   3.075   9.198   4.934  1.4023 -3.7211  1.7743
  367MOL0     H49524   3.144   9.251   4.771  0.2647  2.7405  0.8690
  367MOL0     H49525   3.225   9.361   5.053 -0.4580 -3.1257 -0.7138
  367MOL0     H49526   3.115   9.438   4.949  0.8132  1.3112  2.7147
  367MOL0     H49527   3.616   8.899   5.425  0.0753  0.0674 -2.1374
  367MOL0     H49528   3.690   8.798   5.634 -1.7432  0.3436 -2.0714
  367MOL0     H49529   3.904   8.545   5.878  0.1097  1.0251 -2.6648
  367MOL0     H49530   3.994   8.394   6.059  2.5413 -0.5704  1.5206
  367MOL0     H49531   3.228   8.131   7.378 -3.1006 -1.3803  4.0015
  367MOL0     H49532   3.050   8.004   7.289  0.0746  0.9951  1.2656
  367MOL0     H49533   2.976   7.514   7.183 -0.5412 -1.0516  0.4227
  367MOL0     H49534   2.811   7.332   7.118 -0.5719 -0.4369  0.6791
  367MOL0     H49535   2.418   7.420   6.928  0.3131 -2.3373 -0.2140
  367MOL0     H49536   2.538   7.472   6.811  0.5761 -1.0328 -1.3837
  367MOL0     H49537   2.467   7.188   6.857  0.5107 -0.0198  0.0009
  367MOL0     H49538   2.582   7.237   6.735  0.6218 -0.1322  0.3553
  367MOL0     H49539   2.282   7.348   6.730 -0.6426 -0.4462 -2.0829
  367MOL0     H49540   2.326   7.199   6.653 -0.8471 -0.3425  0.7752
  367MOL0     H49541   2.477   7.447   6.606 -2.8816  0.2605  4.1280
  367MOL0     H49542   2.334   7.399   6.505  0.4835 -3.6235 -3.4821
  367MOL0     H49543   2.597   7.119   6.336 -2.0792 -0.1648 -0.1948
  367MOL0     H49544   2.540   7.621   6.986 -2.4344 -1.0910  3.9943
  367MOL0     H49545   2.677   7.807   7.053 -0.6690  0.7557  0.9089
  368MOL0     O49546   5.326   8.964   0.477 -0.2720  0.5945 -0.8135
  368MOL0     C49547   5.331   8.936   0.598  0.6764  0.0650  0.8559
  368MOL0     O49548   5.226   8.960   0.688  0.4578  0.1041 -0.3512
  368MOL0     C49549   5.130   9.046   0.661 -0.1886 -0.7184 -0.5698
  368MOL0     C49550   4.993   9.009   0.664  0.4051 -0.5697  0.0704
  368MOL0     C49551   4.892   9.104   0.633  0.2067 -0.0684 -0.8456
  368MOL0     C49552   4.926   9.231   0.586  1.3621 -0.3667 -1.4374
  368MOL0     O49553   4.821   9.313   0.551  0.0663 -0.3566  0.1522
  368MOL0     C49554   4.832   9.451   0.554  0.6810 -1.5624  0.1308
  368MOL0     C49555   4.693   9.531   0.542 -0.9391  0.2440 -0.3059
  368MOL0     C49556   4.593   9.496   0.650 -0.8327  0.3600 -0.0488
  368MOL0     C49557   4.464   9.580   0.628 -0.1881 -0.0237  0.4774
  368MOL0     C49558   4.366   9.550   0.739 -0.1781 -0.1127  0.3851
  368MOL0     C49559   4.239   9.649   0.745  0.5331  0.6980  0.4194
  368MOL0     C49560   4.165   9.659   0.609  0.1785  1.1251 -0.0844
  368MOL0     C49561   4.075   9.777   0.618  0.4932 -0.4064 -1.0069
  368MOL0     N49562   3.950   9.768   0.540  0.1782 -0.0040 -0.0085
  368MOL0     C49563   3.845   9.857   0.532 -0.8011  0.0394  0.0652
  368MOL0     C49564   3.781   9.818   0.418 -0.4231  0.7895 -1.0439
  368MOL0     C49565   3.658   9.890   0.366 -0.0371 -0.4213 -0.9134
  368MOL0     C49566   3.550   9.795   0.353  0.9041 -0.5788  0.2877
  368MOL0     C49567   3.413   9.866   0.322  0.2395 -0.2248  0.2279
  368MOL0     C49568   3.302   9.760   0.323  0.5506 -1.1542  0.6111
  368MOL0     O49569   3.187   9.835   0.272  0.3839  1.0044 -0.7242
  368MOL0     C49570   3.152   9.821   0.142  0.2373  0.7193  0.6856
  368MOL0     C49571   3.181   9.926   0.051 -0.5485 -0.0126  0.3206
  368MOL0     C49572   3.127   9.934  -0.076  0.5373 -0.4983  0.5303
  368MOL0     C49573   3.176  10.039  -0.164 -0.3661 -0.8142 -0.2776
  368MOL0     C49574   3.045   9.824  -0.115 -0.6315  0.5650  1.6916
  368MOL0     C49575   2.995   9.804  -0.252 -0.6841 -0.3284  0.4712
  368MOL0     O49576   2.988   9.672  -0.299  0.9304  0.1316  0.2294
  368MOL0     C49577   2.960   9.645  -0.429 -0.2844  0.0047 -0.1745
  368MOL0     C49578   2.891   9.531  -0.461 -0.8334  1.0445 -0.6828
  368MOL0     C49579   2.858   9.504  -0.593  0.0918  0.3000 -0.3941
  368MOL0     C49580   2.895   9.582  -0.693 -0.7106  1.0860  0.7059
  368MOL0     O49581   2.846   9.548  -0.815  0.4856 -0.3437 -0.3939
  368MOL0     C49582   2.899   9.604  -0.941 -0.3832  0.4660  0.1913
  368MOL0     C49583   2.812   9.720  -0.989 -0.0724  0.4302 -0.0517
  368MOL0     C49584   2.776   9.714  -1.140  0.1560  0.3349  0.4401
  368MOL0     C49585   2.685   9.834  -1.174 -0.6960  0.0482  0.0733
  368MOL0     C49586   2.683   9.873  -1.321 -0.1975 -0.7676  0.4832
  368MOL0     C49587   2.570   9.805  -1.404 -0.0416 -0.1747  0.3387
  368MOL0     C49588   2.596   9.813  -1.556  0.9630  0.1361  0.8412
  368MOL0     C49589   2.472   9.757  -1.628  0.1411 -0.1493 -0.0194
  368MOL0    Cl49590   2.461   9.778  -1.806  0.0700  0.1377 -0.1377
  368MOL0     C49591   2.973   9.695  -0.667  0.8789  0.7664  0.9429
  368MOL0     C49592   3.012   9.719  -0.539  0.6104 -0.9030  0.6162
  368MOL0     O49593   2.968   9.909  -0.317  0.1375  0.1532 -0.2019
  368MOL0     C49594   3.018   9.717  -0.028  0.1186  0.1691 -0.0815
  368MOL0     C49595   3.062   9.715   0.116 -1.0432  0.4679 -0.1529
  368MOL0     N49596   3.845   9.718   0.356 -0.4363 -0.2155  0.2440
  368MOL0     N49597   3.957   9.696   0.422  0.5235 -0.1285 -0.0899
  368MOL0     C49598   5.067   9.263   0.580 -0.3166 -0.3789  0.3783
  368MOL0     C49599   5.154   9.166   0.611 -0.4805  0.1378  0.2326
  368MOL0     C49600   5.448   8.852   0.639  0.8809  0.0743 -0.1881
  368MOL0     C49601   5.456   8.804   0.764  0.5877  0.4694 -0.3540
  368MOL0     C49602   5.560   8.726   0.816 -1.1880 -0.5079  1.2000
  368MOL0     C49603   5.663   8.681   0.727  0.7213 -0.1512 -0.2541
  368MOL0     O49604   5.767   8.599   0.775 -0.1869  0.1823  0.1877
  368MOL0     C49605   5.768   8.526   0.898  0.1526  0.6432  0.2649
  368MOL0     C49606   5.869   8.585   0.993 -0.5208  0.6440 -0.2810
  368MOL0     C49607   5.914   8.474   1.087 -0.1556 -0.0318 -0.5355
  368MOL0     C49608   5.985   8.523   1.224  0.4266 -0.7140  0.6938
  368MOL0     C49609   5.879   8.564   1.320 -1.1134  1.2716 -0.4873
  368MOL0     C49610   5.807   8.578   1.416  0.2126 -0.3006 -0.6699
  368MOL0     C49611   5.639   8.711   0.594  0.7629  1.1239  0.4354
  368MOL0     C49612   5.545   8.806   0.545  0.0034 -0.1770 -0.7251
  368MOL0     H49613   4.961   8.909   0.690  0.4397 -0.7714 -0.6587
  368MOL0     H49614   4.789   9.082   0.659  0.3241 -0.1719 -0.4671
  368MOL0     H49615   4.869   9.477   0.654 -0.9092  0.4943  0.2585
  368MOL0     H49616   4.898   9.483   0.473 -0.2805  0.2628  0.0039
  368MOL0     H49617   4.701   9.640   0.543  0.6341  0.1563 -0.4468
  368MOL0     H49618   4.657   9.503   0.443  2.9954 -0.2156 -1.7891
  368MOL0     H49619   4.586   9.387   0.638  1.9964  0.2107 -0.9129
  368MOL0     H49620   4.642   9.500   0.747 -1.3275 -2.2776  0.4043
  368MOL0     H49621   4.495   9.685   0.629  2.0135 -0.6094  2.1112
  368MOL0     H49622   4.426   9.559   0.528 -3.5867 -2.0695  2.0226
  368MOL0     H49623   4.337   9.446   0.721  0.2239  0.3090 -3.7110
  368MOL0     H49624   4.422   9.558   0.832  0.1015 -1.7250  0.3795
  368MOL0     H49625   4.176   9.634   0.833  3.4669  0.3137  2.6069
  368MOL0     H49626   4.290   9.745   0.757  2.3329 -0.3790  2.1154
  368MOL0     H49627   4.222   9.662   0.516 -2.0251  0.4596 -1.5044
  368MOL0     H49628   4.112   9.565   0.594 -1.6114  2.0897  0.0000
  368MOL0     H49629   4.132   9.861   0.578  1.5267 -2.0192 -3.1242
  368MOL0     H49630   4.041   9.795   0.721  2.7940 -1.0179 -0.0727
  368MOL0     H49631   3.847   9.943   0.598 -0.5632  1.1134 -1.2753
  368MOL0     H49632   3.629   9.971   0.433  2.1787 -0.1454 -0.2016
  368MOL0     H49633   3.678   9.943   0.272 -1.0924 -2.4890 -2.3874
  368MOL0     H49634   3.537   9.730   0.440 -0.4556 -2.6506 -1.3632
  368MOL0     H49635   3.560   9.723   0.271 -0.2855 -1.2066  0.6689
  368MOL0     H49636   3.417   9.922   0.228  2.8620  1.4001  1.2141
  368MOL0     H49637   3.402   9.945   0.396  1.2203 -2.0153  2.4122
  368MOL0     H49638   3.278   9.712   0.419  1.5340 -1.1704  0.8559
  368MOL0     H49639   3.329   9.673   0.264  0.6043 -0.8834  0.2322
  368MOL0     H49640   3.248  10.007   0.080  1.7854  0.0661 -4.3064
  368MOL0     H49641   3.219   9.988  -0.251  2.3642 -0.5951  0.8149
  368MOL0     H49642   3.095  10.109  -0.185 -0.8161 -0.1819  3.0825
  368MOL0     H49643   3.255  10.099  -0.117 -3.0754  1.5599  1.5426
  368MOL0     H49644   2.869   9.470  -0.374  0.3029  1.2033 -0.2746
  368MOL0     H49645   2.807   9.411  -0.617 -1.5958  0.8785  0.7881
  368MOL0     H49646   3.002   9.639  -0.927 -0.6333  0.9973  0.7410
  368MOL0     H49647   2.901   9.523  -1.014  1.0382 -0.7185  1.4722
  368MOL0     H49648   2.713   9.710  -0.943  1.1467 -0.9088  2.5093
  368MOL0     H49649   2.869   9.809  -0.958 -1.0068  0.4962  1.6062
  368MOL0     H49650   2.718   9.629  -1.176  1.1079  0.4794 -1.6179
  368MOL0     H49651   2.873   9.706  -1.189 -0.6958 -2.8766 -0.9341
  368MOL0     H49652   2.581   9.815  -1.145 -1.1045 -1.0397 -1.9422
  368MOL0     H49653   2.727   9.922  -1.124 -0.2788 -0.3112  0.3630
  368MOL0     H49654   2.781   9.847  -1.363  0.3444  0.2176  1.0904
  368MOL0     H49655   2.672   9.981  -1.332 -0.2608 -0.2483  4.3797
  368MOL0     H49656   2.557   9.697  -1.386  0.7604 -0.8123 -2.3777
  368MOL0     H49657   2.474   9.853  -1.384 -0.0793 -1.4597  3.8897
  368MOL0     H49658   2.680   9.748  -1.580  2.4033  2.7845 -2.0855
  368MOL0     H49659   2.629   9.914  -1.582 -0.2742  0.8381  1.8684
  368MOL0     H49660   2.374   9.794  -1.597  0.2806  2.0568 -1.9114
  368MOL0     H49661   2.474   9.651  -1.601  0.0166 -0.1514 -0.0167
  368MOL0     H49662   3.016   9.762  -0.741  4.2701 -0.4464  1.6289
  368MOL0     H49663   3.080   9.801  -0.516 -0.5290 -0.0765  1.1622
  368MOL0     H49664   2.961   9.632  -0.062  2.5503 -2.4336  1.8322
  368MOL0     H49665   3.045   9.635   0.188  0.3916 -1.0212 -1.4168
  368MOL0     H49666   5.097   9.357   0.533 -1.0511 -0.0194  0.6176
  368MOL0     H49667   5.256   9.199   0.595 -1.4948  2.8497 -1.3222
  368MOL0     H49668   5.385   8.855   0.829 -0.3457  2.6545 -2.9098
  368MOL0     H49669   5.566   8.707   0.923 -1.4755  4.9673  2.5011
  368MOL0     H49670   5.666   8.512   0.935  1.5225 -0.5668  4.0377
  368MOL0     H49671   5.804   8.425   0.875 -3.5912 -1.3175  2.1959
  368MOL0     H49672   5.820   8.653   1.065  0.7052 -1.3486  2.6104
  368MOL0     H49673   5.950   8.632   0.937  2.2759 -4.5737 -1.1627
  368MOL0     H49674   5.979   8.402   1.037  2.1471  1.7330 -0.2678
  368MOL0     H49675   5.829   8.416   1.122  0.1978  0.2517  0.8761
  368MOL0     H49676   6.049   8.603   1.186 -2.0301  0.4240 -1.4421
  368MOL0     H49677   6.042   8.447   1.277  1.4213 -2.1686 -2.2590
  368MOL0     H49678   5.740   8.591   1.499  1.2402 -1.4401  0.3791
  368MOL0     H49679   5.684   8.641   0.524  1.6231  2.1106 -0.0334
  368MOL0     H49680   5.547   8.847   0.444  1.6057  2.7508  0.3836
  369MOL0     O49681   5.953   9.058   5.799 -0.6092 -0.0745  0.1417
  369MOL0     C49682   5.972   8.943   5.831 -0.8500  0.0692 -0.3171
  369MOL0     O49683   6.093   8.887   5.862 -0.3374  0.4830 -0.6008
  369MOL0     C49684   6.202   8.972   5.852 -0.4636  0.7299 -0.8657
  369MOL0     C49685   6.302   8.922   5.766 -0.4424 -0.0514 -0.4971
  369MOL0     C49686   6.423   8.996   5.747  0.1259  0.0909  0.8191
  369MOL0     C49687   6.436   9.116   5.808 -0.0929  0.2396 -0.5779
  369MOL0     O49688   6.544   9.202   5.800  0.1449 -0.4577 -0.0776
  369MOL0     C49689   6.536   9.306   5.705  0.6846 -0.7258  0.2912
  369MOL0     C49690   6.674   9.332   5.647 -0.5915  0.3401  1.0606
  369MOL0     C49691   6.731   9.210   5.555  1.3365 -0.2122  0.9033
  369MOL0     C49692   6.857   9.258   5.490  0.3402 -0.7376  0.4847
  369MOL0     C49693   6.901   9.206   5.352 -0.2136  0.0245 -0.4141
  369MOL0     C49694   6.891   9.047   5.348  0.6184  0.2493 -0.4444
  369MOL0     C49695   6.931   8.976   5.210 -0.5107 -0.3732 -0.5791
  369MOL0     C49696   7.066   9.019   5.169  0.7448 -0.8197 -0.4810
  369MOL0     N49697   7.110   8.968   5.041  0.6975 -0.4520 -0.1969
  369MOL0     C49698   7.125   8.840   5.010 -0.2755  1.2617  0.1890
  369MOL0     C49699   7.148   8.840   4.874 -0.0955  0.2953 -0.0802
  369MOL0     C49700   7.157   8.715   4.793  0.0541 -0.5316 -0.0518
  369MOL0     C49701   7.016   8.666   4.750  0.1132 -0.8947  0.8663
  369MOL0     C49702   6.932   8.593   4.853  0.3855  0.3927  0.2331
  369MOL0     C49703   6.813   8.514   4.791 -0.7128  0.3893 -0.6966
  369MOL0     O49704   6.733   8.592   4.702 -0.0537 -0.7617 -0.3928
  369MOL0     C49705   6.639   8.676   4.749 -0.2384 -0.1508  0.5251
  369MOL0     C49706   6.638   8.817   4.708 -0.1719 -0.4289  0.8429
  369MOL0     C49707   6.543   8.905   4.752  0.1938  0.0874 -0.9882
  369MOL0     C49708   6.553   9.045   4.686 -0.1040  0.3263 -0.4001
  369MOL0     C49709   6.449   8.869   4.859  0.5739 -0.2702 -0.3960
  369MOL0     C49710   6.342   8.960   4.921  0.1837  1.1131  0.3121
  369MOL0     O49711   6.256   8.896   5.001  0.1625 -0.5955  0.1377
  369MOL0     C49712   6.141   8.950   5.059 -0.2520 -0.8480 -0.6028
  369MOL0     C49713   6.091   8.892   5.172 -0.0616 -0.3048  0.6356
  369MOL0     C49714   5.961   8.920   5.222  0.1000  0.2596  0.3773
  369MOL0     C49715   5.886   9.021   5.159 -0.1918 -0.1170  0.0783
  369MOL0     O49716   5.775   9.071   5.208  0.6748  0.7735 -0.5940
  369MOL0     C49717   5.772   9.098   5.355  0.0623 -0.0919  0.3762
  369MOL0     C49718   5.756   9.249   5.384  0.2093  0.3452  0.1506
  369MOL0     C49719   5.859   9.353   5.313 -0.3765  0.8372 -0.1707
  369MOL0     C49720   5.996   9.340   5.363 -0.3799 -0.0899  0.1100
  369MOL0     C49721   6.082   9.453   5.301 -0.0838  0.5287  0.0408
  369MOL0     C49722   6.229   9.441   5.327  0.0996  0.0479  0.6872
  369MOL0     C49723   6.299   9.323   5.251 -0.1208 -0.6839 -0.6067
  369MOL0     C49724   6.436   9.282   5.311  0.1905  0.6537  0.2345
  369MOL0    Cl49725   6.538   9.424   5.320  0.2008 -0.2451  0.3035
  369MOL0     C49726   5.934   9.086   5.045  0.6800 -0.3630 -0.8321
  369MOL0     C49727   6.060   9.052   5.003 -0.4566  0.2467 -0.1633
  369MOL0     O49728   6.337   9.080   4.900  0.1578  0.4303 -0.2816
  369MOL0     C49729   6.461   8.742   4.903 -0.2138  0.1503  1.3788
  369MOL0     C49730   6.541   8.643   4.844  0.0940  0.5487 -0.1695
  369MOL0     N49731   7.181   8.966   4.834  0.1405  0.2626 -0.4596
  369MOL0     N49732   7.142   9.041   4.931 -0.0133  0.5917  0.1994
  369MOL0     C49733   6.341   9.164   5.897  0.9674 -0.1890  0.4577
  369MOL0     C49734   6.222   9.093   5.923  0.0076 -0.3047  0.4430
  369MOL0     C49735   5.850   8.862   5.858 -0.2030 -0.8812  0.5453
  369MOL0     C49736   5.863   8.738   5.917  0.2973  0.2805  1.0855
  369MOL0     C49737   5.748   8.663   5.956 -0.7928  0.4124  0.6418
  369MOL0     C49738   5.623   8.717   5.933  0.1153 -0.3437  0.8306
  369MOL0     O49739   5.500   8.657   5.970  0.1059  0.3931 -0.9607
  369MOL0     C49740   5.490   8.517   6.017 -0.4835 -0.4351  0.1366
  369MOL0     C49741   5.524   8.515   6.164 -0.6802 -0.3347  0.3557
  369MOL0     C49742   5.430   8.592   6.252  0.4771 -0.0176  0.8161
  369MOL0     C49743   5.487   8.718   6.316  0.0033 -0.6574  0.5855
  369MOL0     C49744   5.586   8.686   6.425  0.7405 -0.0760  0.0574
  369MOL0     C49745   5.657   8.665   6.526  0.2094  0.3294 -0.0254
  369MOL0     C49746   5.610   8.847   5.881 -0.3726  0.1683 -0.1662
  369MOL0     C49747   5.720   8.920   5.838  0.1604  0.5210 -0.2145
  369MOL0     H49748   6.290   8.820   5.732 -1.9837  0.9001 -3.1148
  369MOL0     H49749   6.504   8.958   5.685 -1.0495  2.1344 -2.2488
  369MOL0     H49750   6.460   9.287   5.629  0.1377 -1.8429  1.0736
  369MOL0     H49751   6.492   9.391   5.759 -0.3365 -1.1438  0.1379
  369MOL0     H49752   6.686   9.423   5.587 -3.1322 -2.0917 -3.7670
  369MOL0     H49753   6.736   9.332   5.737 -1.9301 -2.1386  2.1042
  369MOL0     H49754   6.748   9.124   5.620  1.5118 -1.0513 -0.2264
  369MOL0     H49755   6.662   9.180   5.475  0.9386 -1.1203  1.5790
  369MOL0     H49756   6.857   9.367   5.497 -3.4680 -0.6463  1.0607
  369MOL0     H49757   6.942   9.234   5.554  0.6669  0.9724  0.7514
  369MOL0     H49758   6.829   9.249   5.281 -0.6473 -1.4646 -0.8981
  369MOL0     H49759   7.003   9.244   5.335 -0.8314  3.1090  1.7429
  369MOL0     H49760   6.963   9.016   5.424 -1.9341  2.4300  3.1875
  369MOL0     H49761   6.786   9.028   5.375 -0.7501  3.6616 -2.7014
  369MOL0     H49762   6.947   8.868   5.218 -0.6600 -0.3644 -0.1266
  369MOL0     H49763   6.860   9.006   5.133 -2.5400  1.3820  1.7947
  369MOL0     H49764   7.130   8.987   5.252  1.0796  1.3035  0.1177
  369MOL0     H49765   7.068   9.128   5.166  1.7511 -0.7985  0.5243
  369MOL0     H49766   7.131   8.763   5.087  1.1766  2.5477  1.4546
  369MOL0     H49767   7.214   8.732   4.701  0.5999 -2.2878 -0.0615
  369MOL0     H49768   7.210   8.640   4.852  4.0345  0.4728 -1.9954
  369MOL0     H49769   7.037   8.601   4.664  1.1680 -2.4984  2.2530
  369MOL0     H49770   6.959   8.752   4.714  0.6370 -1.8521 -2.5215
  369MOL0     H49771   6.887   8.660   4.926  0.4173  0.8334 -0.1455
  369MOL0     H49772   7.001   8.529   4.909 -2.0499 -2.3173  0.4032
  369MOL0     H49773   6.750   8.472   4.870 -2.4424 -4.1272 -4.0044
  369MOL0     H49774   6.851   8.426   4.738  0.3071 -0.8714  1.9306
  369MOL0     H49775   6.703   8.846   4.626 -0.7729  2.4769  1.2998
  369MOL0     H49776   6.608   9.099   4.764  1.4187 -1.6214 -0.0213
  369MOL0     H49777   6.615   9.038   4.596  4.8770 -1.3563  2.6896
  369MOL0     H49778   6.450   9.074   4.668 -0.6594 -1.8163 -1.0348
  369MOL0     H49779   6.143   8.811   5.222  0.2919  0.4752  1.5669
  369MOL0     H49780   5.926   8.870   5.312  0.5606  2.4147  1.8245
  369MOL0     H49781   5.679   9.055   5.395 -1.9326  2.1201 -1.5790
  369MOL0     H49782   5.859   9.063   5.411  1.2311  2.3761  0.2016
  369MOL0     H49783   5.657   9.282   5.352  0.1260  0.8572  0.9057
  369MOL0     H49784   5.766   9.259   5.493  1.7111 -3.0048  0.4535
  369MOL0     H49785   5.823   9.455   5.330 -0.7910  1.2619 -3.1322
  369MOL0     H49786   5.849   9.331   5.206 -2.9992  2.6261 -0.3980
  369MOL0     H49787   5.990   9.329   5.472  3.2925 -3.5104  0.2053
  369MOL0     H49788   6.037   9.242   5.336  1.2901  0.9098 -1.1363
  369MOL0     H49789   6.044   9.549   5.339 -0.5360  1.5186 -2.6500
  369MOL0     H49790   6.068   9.445   5.193  0.1663  0.0721  0.0420
  369MOL0     H49791   6.273   9.539   5.308  0.6175 -0.1284  0.9401
  369MOL0     H49792   6.249   9.425   5.433  1.0977  0.1883  0.5260
  369MOL0     H49793   6.311   9.367   5.152  2.1470  3.3823  1.2106
  369MOL0     H49794   6.245   9.228   5.260  2.2478 -1.9520  1.9891
  369MOL0     H49795   6.479   9.203   5.250  0.8821  0.9694  0.3038
  369MOL0     H49796   6.425   9.239   5.411 -0.7429 -3.6484 -1.5153
  369MOL0     H49797   5.891   9.179   5.010  0.2707  0.5327  1.8179
  369MOL0     H49798   6.097   9.094   4.910 -1.5643 -3.2417 -2.3774
  369MOL0     H49799   6.404   8.710   4.990 -0.6180 -3.2042  0.0085
  369MOL0     H49800   6.527   8.542   4.879 -3.4956  0.6643 -0.8529
  369MOL0     H49801   6.362   9.263   5.935 -2.5303  0.7370  0.3534
  369MOL0     H49802   6.142   9.146   5.973 -1.1105  0.2476 -1.8432
  369MOL0     H49803   5.963   8.695   5.920 -0.7333 -2.1805  2.3893
  369MOL0     H49804   5.763   8.563   5.996  1.1664  0.2109 -0.4630
  369MOL0     H49805   5.393   8.475   5.991 -0.3112 -2.2119  2.0853
  369MOL0     H49806   5.562   8.450   5.967 -1.6272  1.0052 -3.8398
  369MOL0     H49807   5.624   8.558   6.179 -1.1147  1.0167 -0.4912
  369MOL0     H49808   5.536   8.409   6.188 -0.7991 -0.8324 -1.6094
  369MOL0     H49809   5.406   8.522   6.333  1.4706 -1.1766  0.1411
  369MOL0     H49810   5.339   8.620   6.198  1.3701 -0.3395 -0.9239
  369MOL0     H49811   5.404   8.781   6.350  0.0531 -0.4244  0.2878
  369MOL0     H49812   5.531   8.779   6.236  0.1341  1.9407  2.4994
  369MOL0     H49813   5.724   8.644   6.607 -2.4226  2.2810  2.8798
  369MOL0     H49814   5.513   8.886   5.854  0.1208  0.0313 -2.3705
  369MOL0     H49815   5.704   9.006   5.773  2.1131 -1.3752 -3.5043
  370MOL0     O49816   8.881   3.274  10.744 -0.2310 -1.0620  0.2722
  370MOL0     C49817   9.002   3.276  10.745 -0.0505 -0.3329  0.7583
  370MOL0     O49818   9.080   3.186  10.803  0.1692 -0.7857 -0.1091
  370MOL0     C49819   9.018   3.107  10.894 -0.4013 -0.6662 -0.0646
  370MOL0     C49820   9.010   3.154  11.025  0.4971  0.0951  0.3337
  370MOL0     C49821   8.974   3.059  11.117  0.4298  0.4885 -0.2757
  370MOL0     C49822   8.936   2.924  11.088 -0.3945 -0.5260 -0.2334
  370MOL0     O49823   8.894   2.845  11.194  0.4106 -0.4825  0.2905
  370MOL0     C49824   8.992   2.771  11.261  0.7279  0.1570 -0.1603
  370MOL0     C49825   8.977   2.740  11.410  0.4376  0.2917 -0.0518
  370MOL0     C49826   8.952   2.864  11.500 -0.3854  1.1268 -0.0269
  370MOL0     C49827   9.060   2.967  11.476  0.4864 -0.4180  0.2006
  370MOL0     C49828   9.018   3.089  11.550  0.6937 -0.2949  0.0442
  370MOL0     C49829   8.909   3.176  11.513 -0.5382  0.3043 -0.0249
  370MOL0     C49830   8.856   3.263  11.625 -0.0488  0.5626 -0.1261
  370MOL0     C49831   8.925   3.402  11.637  0.1580 -0.3805 -0.5307
  370MOL0     N49832   8.837   3.502  11.703 -0.4789  0.6368 -0.5055
  370MOL0     C49833   8.830   3.528  11.841 -0.9175 -0.8734 -0.9398
  370MOL0     C49834   8.728   3.612  11.845  0.0069  1.3550  0.5979
  370MOL0     C49835   8.670   3.666  11.971 -1.1357  0.5399 -0.3133
  370MOL0     C49836   8.557   3.566  12.020  1.2614  0.4233 -0.7663
  370MOL0     C49837   8.490   3.631  12.148 -0.0256  1.5010 -0.1239
  370MOL0     C49838   8.362   3.560  12.194  0.7578 -0.8148  0.4916
  370MOL0     O49839   8.264   3.539  12.092  0.8461  0.0508 -0.3879
  370MOL0     C49840   8.174   3.640  12.061 -0.2848 -0.0419  0.2088
  370MOL0     C49841   8.188   3.770  12.086 -0.2182  0.2604  0.6209
  370MOL0     C49842   8.081   3.859  12.043  0.7397 -0.3282  0.6554
  370MOL0     C49843   8.091   4.005  12.084  0.1259  0.4159 -0.1431
  370MOL0     C49844   7.969   3.808  11.977  0.1607  0.8789  0.3997
  370MOL0     C49845   7.844   3.887  11.950 -0.2094 -0.4788 -1.8344
  370MOL0     O49846   7.787   3.872  11.828  0.5527 -0.4263  0.1368
  370MOL0     C49847   7.659   3.928  11.799  0.4048  0.1587 -0.2598
  370MOL0     C49848   7.536   3.873  11.845  0.0392 -0.3487 -0.1519
  370MOL0     C49849   7.419   3.944  11.806  0.5642  0.2715 -0.2346
  370MOL0     C49850   7.410   4.061  11.735 -0.0751  0.6925 -0.1237
  370MOL0     O49851   7.287   4.125  11.715 -0.5149  0.2593 -0.6613
  370MOL0     C49852   7.178   4.052  11.660 -0.3564 -1.3096  0.2210
  370MOL0     C49853   7.216   3.950  11.544 -0.5913 -0.4738 -0.1780
  370MOL0     C49854   7.083   3.910  11.474 -0.2190 -0.0403  0.4465
  370MOL0     C49855   7.084   3.764  11.434  0.4737  0.1458  0.0073
  370MOL0     C49856   6.960   3.728  11.351 -0.1378  1.1698 -0.6781
  370MOL0     C49857   6.989   3.595  11.282  1.0097  0.2962  1.0807
  370MOL0     C49858   6.872   3.524  11.218 -0.0683  0.1646  0.0622
  370MOL0     C49859   6.933   3.411  11.143  0.5430  0.3917 -0.4154
  370MOL0    Cl49860   6.795   3.310  11.076  0.4462  0.3549  0.0323
  370MOL0     C49861   7.531   4.116  11.700 -0.2141  0.4177  0.7476
  370MOL0     C49862   7.651   4.054  11.727  0.5937 -0.0780 -0.4701
  370MOL0     O49863   7.784   3.946  12.050 -0.1432  0.5419  0.1387
  370MOL0     C49864   7.962   3.671  11.954 -0.3100  0.4004  1.2773
  370MOL0     C49865   8.068   3.590  11.983  0.4653 -0.3620  1.1143
  370MOL0     N49866   8.678   3.641  11.717  0.3756  0.0625  0.0234
  370MOL0     N49867   8.738   3.562  11.640 -0.7760 -0.7172  0.3737
  370MOL0     C49868   8.944   2.874  10.958  0.1830 -0.4286  0.8204
  370MOL0     C49869   8.991   2.967  10.861 -0.3365  0.3311  0.5694
  370MOL0     C49870   9.054   3.389  10.676  0.3340 -0.7417  0.1451
  370MOL0     C49871   9.151   3.370  10.577  0.9689  1.1699  0.8021
  370MOL0     C49872   9.209   3.473  10.506  0.1858  0.7926  0.7573
  370MOL0     C49873   9.186   3.608  10.548 -0.1174  0.2915 -0.3086
  370MOL0     O49874   9.255   3.703  10.486  0.3474  0.0375  0.1641
  370MOL0     C49875   9.225   3.840  10.518 -0.1448 -0.4973  0.8666
  370MOL0     C49876   9.311   3.934  10.429 -0.8014  0.2666  0.5970
  370MOL0     C49877   9.281   4.083  10.444 -0.2374  0.2883  0.6759
  370MOL0     C49878   9.225   4.134  10.318  0.3362 -0.4865  0.5140
  370MOL0     C49879   9.119   4.226  10.354 -0.9363 -0.1830 -0.0964
  370MOL0     C49880   9.025   4.292  10.382  0.2888 -0.5276 -0.0147
  370MOL0     C49881   9.096   3.636  10.655  0.2448  0.2990  0.0324
  370MOL0     C49882   9.034   3.521  10.717 -0.2497 -0.9207  1.2330
  370MOL0     H49883   9.034   3.258  11.046  0.7294 -0.3999  2.7396
  370MOL0     H49884   8.971   3.097  11.219 -3.8488  1.3630 -0.5160
  370MOL0     H49885   8.982   2.678  11.204 -1.4031  2.1326 -3.2839
  370MOL0     H49886   9.093   2.811  11.249 -0.1500  2.4724 -0.3590
  370MOL0     H49887   8.892   2.675  11.433  1.2998 -0.6634  0.5188
  370MOL0     H49888   9.065   2.682  11.438  0.2590 -2.9683 -4.8414
  370MOL0     H49889   8.847   2.892  11.482 -0.4568 -0.0215 -1.6670
  370MOL0     H49890   8.955   2.839  11.606  1.9077 -0.1125 -0.3228
  370MOL0     H49891   9.154   2.926  11.514  0.5294  1.4600  2.2567
  370MOL0     H49892   9.071   3.006  11.374 -1.1441  2.7403  1.1047
  370MOL0     H49893   8.997   3.052  11.651 -2.0561 -1.8206 -0.9925
  370MOL0     H49894   9.113   3.145  11.549  1.8241 -2.0385 -2.6507
  370MOL0     H49895   8.962   3.232  11.435  0.0840  0.5177  0.5436
  370MOL0     H49896   8.819   3.120  11.488  0.5237 -0.5200 -2.2659
  370MOL0     H49897   8.754   3.287  11.594 -0.0781 -0.5511 -0.9342
  370MOL0     H49898   8.851   3.212  11.722 -1.1679  0.6781 -0.1204
  370MOL0     H49899   8.940   3.445  11.537 -0.6067 -1.4229 -1.1228
  370MOL0     H49900   9.023   3.389  11.684  1.1081  1.4592 -1.8800
  370MOL0     H49901   8.898   3.502  11.921 -0.8739  0.3755 -0.5495
  370MOL0     H49902   8.750   3.668  12.045 -2.4477 -0.0440  1.1714
  370MOL0     H49903   8.641   3.771  11.969 -1.7398  0.3921  0.2501
  370MOL0     H49904   8.593   3.465  12.043  0.2845 -0.8953 -4.4033
  370MOL0     H49905   8.486   3.563  11.938  0.8421  3.2570 -0.6143
  370MOL0     H49906   8.472   3.738  12.136 -0.4051  1.5578  0.8417
  370MOL0     H49907   8.565   3.626  12.227 -1.3679  0.7917  1.1540
  370MOL0     H49908   8.320   3.630  12.267  1.0201 -0.6641  0.5000
  370MOL0     H49909   8.386   3.463  12.240  4.0959  0.8613  2.7144
  370MOL0     H49910   8.272   3.812  12.140 -0.6743  1.2886  0.5492
  370MOL0     H49911   8.093   4.077  12.001 -1.2651  0.1547 -0.4438
  370MOL0     H49912   8.002   4.027  12.143  0.3720 -0.5465  0.6079
  370MOL0     H49913   8.174   4.027  12.151 -0.3391  2.6196 -0.1888
  370MOL0     H49914   7.525   3.786  11.910  1.0583 -0.2153  0.2118
  370MOL0     H49915   7.322   3.904  11.832 -1.5073  2.6251 -3.4724
  370MOL0     H49916   7.125   3.990  11.732 -2.4658 -1.9140 -1.7315
  370MOL0     H49917   7.111   4.126  11.614  0.7161  0.0201  0.7260
  370MOL0     H49918   7.286   3.993  11.471  0.6563  1.4681  2.0259
  370MOL0     H49919   7.264   3.861  11.587 -2.0004  0.3199  3.4136
  370MOL0     H49920   7.066   3.958  11.377  0.4419 -1.4132 -0.3839
  370MOL0     H49921   7.003   3.922  11.548 -3.0865  0.3261 -2.4705
  370MOL0     H49922   7.181   3.740  11.389  0.4318  0.8731 -0.4744
  370MOL0     H49923   7.077   3.702  11.524 -0.6864  1.7768  1.1051
  370MOL0     H49924   6.939   3.802  11.274 -1.6790  1.3203 -0.1516
  370MOL0     H49925   6.874   3.714  11.418  0.0142  1.8400 -0.3370
  370MOL0     H49926   7.055   3.613  11.196  3.1541 -0.3275  2.5131
  370MOL0     H49927   7.045   3.528  11.349 -0.1179 -1.7409  0.0968
  370MOL0     H49928   6.804   3.596  11.171 -1.7997 -1.2473  0.3137
  370MOL0     H49929   6.806   3.478  11.292  0.3812 -0.0413  0.3387
  370MOL0     H49930   7.005   3.353  11.202  0.5172  1.9697  1.2484
  370MOL0     H49931   6.978   3.442  11.048 -0.1438 -0.4191 -1.0106
  370MOL0     H49932   7.525   4.207  11.641 -0.5100 -1.0875 -1.6790
  370MOL0     H49933   7.729   4.124  11.699 -1.1535  3.1732  1.9378
  370MOL0     H49934   7.865   3.630  11.926  0.3836 -1.1310  1.0042
  370MOL0     H49935   8.058   3.483  11.967  0.8636 -0.1583 -0.7370
  370MOL0     H49936   8.933   2.771  10.925 -2.0568 -0.3838  1.2240
  370MOL0     H49937   9.004   2.927  10.761 -1.3569 -3.2074  1.7048
  370MOL0     H49938   9.174   3.266  10.555 -1.2439  0.8991 -0.6545
  370MOL0     H49939   9.287   3.442  10.438 -1.5596 -4.0431  0.6169
  370MOL0     H49940   9.119   3.849  10.495 -0.1391 -0.2400  0.9500
  370MOL0     H49941   9.245   3.849  10.625  0.5835 -1.0207  0.7831
  370MOL0     H49942   9.306   3.914  10.322 -1.4230  1.0745  0.4598
  370MOL0     H49943   9.411   3.903  10.460 -0.8488 -0.2331  0.2575
  370MOL0     H49944   9.372   4.142  10.457  0.2289 -0.4157  0.6909
  370MOL0     H49945   9.226   4.100  10.537 -0.3738 -4.4578  1.7201
  370MOL0     H49946   9.171   4.060  10.258  0.2536  0.7327 -0.9853
  370MOL0     H49947   9.307   4.172  10.257  1.3083 -2.0452  0.7966
  370MOL0     H49948   8.934   4.340  10.413  0.7352 -1.5384  3.2484
  370MOL0     H49949   9.079   3.731  10.705  1.5347 -0.3830  1.8921
  370MOL0     H49950   8.970   3.540  10.802  0.1790  1.0606  1.1545
  371MOL0     O49951   3.055  10.227   8.340 -0.0999  0.1809  0.3528
  371MOL0     C49952   3.150  10.197   8.411 -0.0330 -0.9353  0.9116
  371MOL0     O49953   3.281  10.220   8.385  0.5656  0.0832  0.1044
  371MOL0     C49954   3.316  10.276   8.268 -0.0255  0.6292  0.3936
  371MOL0     C49955   3.405  10.387   8.279  0.5578 -0.0492  0.4313
  371MOL0     C49956   3.463  10.450   8.170  0.1072  0.1344 -0.4341
  371MOL0     C49957   3.428  10.407   8.042 -0.5382 -0.0042  0.1037
  371MOL0     O49958   3.488  10.479   7.933  0.1800  0.8301  0.3894
  371MOL0     C49959   3.481  10.404   7.810  0.5778 -0.7102  0.3821
  371MOL0     C49960   3.559  10.490   7.710  0.8006 -0.2800  0.3739
  371MOL0     C49961   3.479  10.611   7.659 -0.1965 -0.3039 -0.2642
  371MOL0     C49962   3.564  10.661   7.549 -0.6440 -0.2962  0.9791
  371MOL0     C49963   3.485  10.763   7.462 -0.1935  0.1117 -0.6585
  371MOL0     C49964   3.543  10.780   7.318  0.1476  0.9386  0.2816
  371MOL0     C49965   3.497  10.893   7.227 -0.3500  0.0867 -0.4452
  371MOL0     C49966   3.560  10.874   7.085  0.5189 -0.8494  1.1951
  371MOL0     N49967   3.514  10.755   7.009 -0.5296 -0.4932  0.0661
  371MOL0     C49968   3.382  10.736   6.975 -0.0365 -0.8792 -0.1694
  371MOL0     C49969   3.369  10.608   6.933 -0.0699 -0.1986  0.1254
  371MOL0     C49970   3.253  10.530   6.894  0.8029 -0.3331  0.3263
  371MOL0     C49971   3.207  10.407   6.975  1.0368  0.1801  0.6575
  371MOL0     C49972   3.211  10.426   7.124  0.6715  0.7775 -0.3749
  371MOL0     C49973   3.136  10.541   7.168  0.3044 -1.1906 -0.2611
  371MOL0     O49974   3.017  10.567   7.096 -0.4033  0.4282 -0.2327
  371MOL0     C49975   2.933  10.668   7.139  0.1123 -0.7828 -0.0776
  371MOL0     C49976   2.905  10.715   7.274  0.4493 -0.0397 -0.3424
  371MOL0     C49977   2.806  10.809   7.299  1.4021  0.2149 -0.3412
  371MOL0     C49978   2.769  10.821   7.446 -1.2115  0.2987 -0.0928
  371MOL0     C49979   2.738  10.862   7.196  0.5250 -1.2040 -1.1398
  371MOL0     C49980   2.643  10.977   7.219  0.6993  0.6935 -0.6226
  371MOL0     O49981   2.556  11.003   7.126  0.6520 -0.2395  0.3097
  371MOL0     C49982   2.434  11.069   7.144  0.4554 -0.0950  0.0393
  371MOL0     C49983   2.451  11.202   7.193  0.5359  0.1009 -0.0324
  371MOL0     C49984   2.330  11.276   7.207  0.9622  0.6669 -0.2207
  371MOL0     C49985   2.207  11.216   7.181  0.4228 -0.1472  0.1729
  371MOL0     O49986   2.092  11.294   7.210  0.5623 -0.2862 -0.3572
  371MOL0     C49987   2.000  11.247   7.313 -0.3956  0.2256 -0.4482
  371MOL0     C49988   2.023  11.321   7.450  0.6681  0.2377 -0.3152
  371MOL0     C49989   1.966  11.467   7.434  0.6819  0.7075 -0.1492
  371MOL0     C49990   1.971  11.535   7.572  0.6791  0.1417  0.5783
  371MOL0     C49991   1.942  11.688   7.558  0.2258 -0.8063  0.0956
  371MOL0     C49992   1.815  11.718   7.475  0.3188 -0.3194 -0.0138
  371MOL0     C49993   1.754  11.847   7.525  0.5170 -0.5566  0.9639
  371MOL0     C49994   1.845  11.966   7.513  0.0263 -0.4921 -0.4439
  371MOL0    Cl49995   1.860  12.014   7.346 -0.1332 -0.2131  0.2214
  371MOL0     C49996   2.202  11.082   7.137  0.2789 -0.2885  0.3575
  371MOL0     C49997   2.319  11.007   7.117  1.1474  0.0562  0.3116
  371MOL0     O49998   2.643  11.032   7.324  0.4206 -0.7861 -0.1617
  371MOL0     C49999   2.769  10.820   7.068  0.8037 -0.3418 -0.4026
  371MOL0     C50000   2.855  10.721   7.037 -0.2172 -0.6287 -0.1792
  371MOL0     N50001   3.497  10.556   6.931 -0.6059 -0.7834 -0.0201
  371MOL0     N50002   3.583  10.640   6.977  0.3272 -0.6453 -0.0327
  371MOL0     C50003   3.341  10.297   8.032  0.4172  0.4796  0.3235
  371MOL0     C50004   3.289  10.227   8.145 -0.5357  0.2881  0.5009
  371MOL0     C50005   3.108  10.175   8.550 -0.1059 -0.1697 -0.3247
  371MOL0     C50006   2.997  10.105   8.579  1.9104 -0.5764 -0.8091
  371MOL0     C50007   2.953  10.095   8.716  0.7939  0.5456  0.4305
  371MOL0     C50008   3.038  10.136   8.817  0.0756 -0.1941 -0.5551
  371MOL0     O50009   2.981  10.116   8.937 -1.0240 -0.2786 -0.0921
  371MOL0     C50010   2.998  10.217   9.038 -0.5196  0.4660  0.7050
  371MOL0     C50011   2.885  10.219   9.136  0.8995 -0.4244  0.2816
  371MOL0     C50012   2.903  10.332   9.237 -0.5737 -0.1636 -0.3705
  371MOL0     C50013   2.778  10.348   9.321 -0.3326 -0.3685  0.1422
  371MOL0     C50014   2.794  10.440   9.436  0.9631  0.8558  0.5168
  371MOL0     C50015   2.824  10.514   9.529 -0.5550 -0.6216 -0.4724
  371MOL0     C50016   3.153  10.209   8.785  0.2386  0.8566 -0.2657
  371MOL0     C50017   3.186  10.232   8.651  0.0956 -0.3587  0.3482
  371MOL0     H50018   3.447  10.436   8.367 -0.0413  0.3616  0.4956
  371MOL0     H50019   3.535  10.529   8.188  0.6657 -0.8152  1.8238
  371MOL0     H50020   3.530  10.307   7.820 -1.9386 -2.1004 -0.0378
  371MOL0     H50021   3.380  10.383   7.774  0.0544  3.9129 -1.5964
  371MOL0     H50022   3.649  10.532   7.756  1.4256 -2.5852  1.4552
  371MOL0     H50023   3.596  10.425   7.630  4.4619  0.3274  1.3745
  371MOL0     H50024   3.377  10.589   7.627  1.1293 -2.2980 -3.6434
  371MOL0     H50025   3.471  10.682   7.742  0.1264  0.7728 -1.1189
  371MOL0     H50026   3.659  10.700   7.587 -0.1265 -2.5445  2.2009
  371MOL0     H50027   3.587  10.575   7.486 -2.2170  0.7712 -1.1823
  371MOL0     H50028   3.377  10.751   7.466 -0.7529  3.5685  4.1857
  371MOL0     H50029   3.486  10.852   7.526  2.0697  0.9914 -1.7995
  371MOL0     H50030   3.650  10.783   7.337  0.4015 -2.6771  0.1227
  371MOL0     H50031   3.519  10.683   7.273 -0.3128  0.8507  0.7007
  371MOL0     H50032   3.388  10.906   7.229 -0.5231 -0.5648  3.5071
  371MOL0     H50033   3.534  10.984   7.275 -2.3675  0.7078  0.0224
  371MOL0     H50034   3.669  10.871   7.086  0.5406 -0.9554  0.0089
  371MOL0     H50035   3.529  10.954   7.017 -2.5140 -2.9068 -0.0733
  371MOL0     H50036   3.297  10.803   6.986  0.7048 -0.0171  0.5885
  371MOL0     H50037   3.170  10.600   6.890 -0.3341 -1.6774 -1.5753
  371MOL0     H50038   3.264  10.498   6.789 -0.6415  0.1626  0.0053
  371MOL0     H50039   3.278  10.327   6.956 -2.1214 -2.5866 -0.4080
  371MOL0     H50040   3.108  10.369   6.949 -0.3660  2.8338  1.6856
  371MOL0     H50041   3.315  10.427   7.156  0.6194  2.2783 -0.1577
  371MOL0     H50042   3.156  10.339   7.162  2.3097  0.2193  0.7900
  371MOL0     H50043   3.192  10.635   7.167 -2.8270  0.8257  0.8264
  371MOL0     H50044   3.115  10.534   7.275  1.5668 -0.4231  0.0549
  371MOL0     H50045   2.958  10.670   7.357 -0.0346  2.4086  1.4237
  371MOL0     H50046   2.817  10.753   7.517  0.3701  0.5958 -0.8289
  371MOL0     H50047   2.808  10.922   7.462 -1.6039  0.2249  1.4521
  371MOL0     H50048   2.664  10.837   7.470 -1.6938 -1.6875 -0.6938
  371MOL0     H50049   2.550  11.236   7.220  0.3009 -0.4967  1.6975
  371MOL0     H50050   2.322  11.371   7.260  1.7345 -0.4657  2.0869
  371MOL0     H50051   1.902  11.274   7.270  0.1998 -0.1332 -2.1331
  371MOL0     H50052   2.000  11.138   7.319  5.4969 -0.1106 -0.8008
  371MOL0     H50053   1.966  11.270   7.528  0.7602  1.1289  0.3512
  371MOL0     H50054   2.127  11.315   7.485  1.0946  5.5289  0.0892
  371MOL0     H50055   1.863  11.465   7.397  1.2482  0.3991 -1.7980
  371MOL0     H50056   2.031  11.515   7.361  3.0622 -1.0109  0.7192
  371MOL0     H50057   1.891  11.491   7.633  1.5798 -1.2888  0.7601
  371MOL0     H50058   2.058  11.501   7.627  1.5688 -0.4464 -1.1181
  371MOL0     H50059   2.022  11.746   7.513 -0.3827 -1.4524 -1.8982
  371MOL0     H50060   1.928  11.728   7.659 -1.2597  1.1484 -0.8251
  371MOL0     H50061   1.845  11.723   7.370  2.1407  4.0338  0.5239
  371MOL0     H50062   1.740  11.638   7.486  0.2387 -0.9295 -3.8359
  371MOL0     H50063   1.718  11.831   7.627 -4.0237 -0.4364 -0.4035
  371MOL0     H50064   1.660  11.877   7.477 -0.9173  0.0933  3.9685
  371MOL0     H50065   1.950  11.949   7.541  0.3862  1.4084 -0.5334
  371MOL0     H50066   1.809  12.044   7.580  3.3894  5.1416 -4.3647
  371MOL0     H50067   2.107  11.030   7.125  0.7914 -0.9199 -1.1703
  371MOL0     H50068   2.321  10.905   7.080 -1.8335  0.3202 -0.8517
  371MOL0     H50069   2.729  10.872   6.981  0.9310 -0.0819 -0.3069
  371MOL0     H50070   2.864  10.687   6.935  0.4761 -2.9887  0.5950
  371MOL0     H50071   3.339  10.249   7.935  2.6141  3.3380 -1.3241
  371MOL0     H50072   3.238  10.132   8.130  2.0864 -0.8668 -2.0472
  371MOL0     H50073   2.935  10.066   8.499  0.1069 -0.1547  0.3124
  371MOL0     H50074   2.864  10.034   8.734  0.9918  1.0316  3.4593
  371MOL0     H50075   3.098  10.200   9.080  0.0098 -2.8708 -1.4787
  371MOL0     H50076   3.001  10.312   8.984  3.0096  0.6041  0.8915
  371MOL0     H50077   2.877  10.127   9.195  0.6417 -0.2938  0.4530
  371MOL0     H50078   2.789  10.234   9.085 -0.8800  1.1524  3.7585
  371MOL0     H50079   2.919  10.426   9.183 -2.7573  1.1334  1.0522
  371MOL0     H50080   2.994  10.319   9.297  0.6817  4.2520 -0.9256
  371MOL0     H50081   2.752  10.250   9.360 -2.4913  0.1818  0.2015
  371MOL0     H50082   2.699  10.382   9.253  0.3220  1.5163  0.2491
  371MOL0     H50083   2.847  10.567   9.620 -0.4775 -0.8826 -0.3391
  371MOL0     H50084   3.224  10.242   8.860  2.1023 -0.5356 -1.3301
  371MOL0     H50085   3.277  10.286   8.625  0.4804 -0.8435  0.6824
  372MOL0     O50086   5.292   5.571  10.545  0.5159  0.2977  0.2886
  372MOL0     C50087   5.399   5.584  10.604 -0.1239  0.3409  0.5916
  372MOL0     O50088   5.446   5.506  10.706 -0.0580  0.2090  0.1643
  372MOL0     C50089   5.367   5.418  10.774  0.6952  0.1682 -0.4244
  372MOL0     C50090   5.224   5.422  10.782  0.6393  0.4068  0.9696
  372MOL0     C50091   5.161   5.358  10.885 -0.3060 -0.0690 -0.2710
  372MOL0     C50092   5.230   5.279  10.982  0.5719 -0.5079 -0.4735
  372MOL0     O50093   5.160   5.217  11.081 -0.2805 -0.5215  0.7542
  372MOL0     C50094   5.239   5.116  11.161 -1.0295  0.0045  0.9477
  372MOL0     C50095   5.318   5.195  11.272 -0.2350  0.1313 -0.9172
  372MOL0     C50096   5.386   5.088  11.368  0.5619 -0.1373  0.3433
  372MOL0     C50097   5.478   5.160  11.461 -0.1650 -1.3550  0.3946
  372MOL0     C50098   5.493   5.077  11.587  0.4405 -0.9896 -1.1405
  372MOL0     C50099   5.541   5.157  11.706  0.7377 -0.1678 -0.6235
  372MOL0     C50100   5.462   5.276  11.766 -0.5791 -0.2540 -0.4151
  372MOL0     C50101   5.308   5.268  11.761  0.3572  0.1609 -0.1830
  372MOL0     N50102   5.244   5.190  11.867 -0.6998  0.5254 -0.4100
  372MOL0     C50103   5.277   5.193  12.003  0.5948  0.6188 -0.0448
  372MOL0     C50104   5.159   5.184  12.073 -0.7498 -0.2895 -0.6340
  372MOL0     C50105   5.137   5.189  12.219  0.6662  0.8342 -0.0004
  372MOL0     C50106   5.130   5.055  12.286  0.5669  0.3971  0.2267
  372MOL0     C50107   5.266   4.978  12.305  0.1086  0.1714 -0.0119
  372MOL0     C50108   5.267   4.899  12.433 -0.6269 -0.0006  0.7175
  372MOL0     O50109   5.383   4.821  12.433 -1.1837 -0.8815 -0.3214
  372MOL0     C50110   5.381   4.696  12.373 -0.7571 -0.8744 -0.1974
  372MOL0     C50111   5.490   4.619  12.409  0.6150  0.0519 -0.7466
  372MOL0     C50112   5.495   4.492  12.352 -0.3646  0.2035  0.3759
  372MOL0     C50113   5.626   4.410  12.390  0.1150 -1.4178 -0.6976
  372MOL0     C50114   5.401   4.433  12.275 -0.1739  0.2332 -0.2868
  372MOL0     C50115   5.390   4.289  12.221  0.0262 -0.5286  0.0872
  372MOL0     O50116   5.326   4.254  12.103 -0.0098 -0.3375  0.2111
  372MOL0     C50117   5.375   4.142  12.052  0.5210  0.9639  0.0522
  372MOL0     C50118   5.293   4.033  12.063 -0.2257 -0.3266  0.4450
  372MOL0     C50119   5.334   3.916  12.018 -0.2470 -0.2877  0.1334
  372MOL0     C50120   5.453   3.890  11.959 -0.7729  0.6462  0.5361
  372MOL0     O50121   5.494   3.767  11.915 -0.3196  0.7229  0.0321
  372MOL0     C50122   5.507   3.765  11.777  0.5208  0.2568  0.5732
  372MOL0     C50123   5.519   3.614  11.746  0.4077 -0.1755  0.5488
  372MOL0     C50124   5.452   3.596  11.605  0.4093 -1.0796 -0.2073
  372MOL0     C50125   5.456   3.444  11.555 -0.1809  0.9778 -0.8346
  372MOL0     C50126   5.393   3.441  11.421 -1.0440  0.1377  0.2799
  372MOL0     C50127   5.368   3.294  11.371  0.1865  0.4327 -0.3725
  372MOL0     C50128   5.300   3.300  11.236 -0.2310 -0.3356 -0.3056
  372MOL0     C50129   5.243   3.166  11.191  0.1109 -0.2672  1.4073
  372MOL0    Cl50130   5.367   3.072  11.097 -0.2490  0.1716 -0.3366
  372MOL0     C50131   5.533   3.995  11.935 -0.1155 -0.1899 -0.5485
  372MOL0     C50132   5.498   4.130  11.984  0.1763  0.7574 -0.6048
  372MOL0     O50133   5.443   4.213  12.295 -1.3672  0.6362  0.4079
  372MOL0     C50134   5.280   4.511  12.251  0.0310 -0.3047  0.3084
  372MOL0     C50135   5.275   4.645  12.294 -0.0186 -0.4128  0.5424
  372MOL0     N50136   5.061   5.152  11.988 -0.1593 -0.3536  0.0532
  372MOL0     N50137   5.110   5.163  11.867 -0.1717 -0.3300 -0.1356
  372MOL0     C50138   5.371   5.267  10.965  0.1717 -0.2534 -0.1973
  372MOL0     C50139   5.439   5.344  10.870  0.2215  0.3814 -0.0831
  372MOL0     C50140   5.486   5.696  10.548 -0.2188  0.1324 -0.5479
  372MOL0     C50141   5.442   5.785  10.450 -0.3259 -0.2509 -0.4873
  372MOL0     C50142   5.532   5.875  10.381 -0.5161  0.3596 -0.2713
  372MOL0     C50143   5.670   5.870  10.402 -0.2189 -0.8425 -0.0343
  372MOL0     O50144   5.774   5.941  10.338  0.0756 -0.8961 -0.1402
  372MOL0     C50145   5.744   6.041  10.236 -0.1113  0.6954  0.0461
  372MOL0     C50146   5.696   6.169  10.296 -0.8237 -0.8817 -0.7480
  372MOL0     C50147   5.818   6.264  10.313  0.1737  0.3328  0.0995
  372MOL0     C50148   5.778   6.395  10.381  0.2091  0.0103 -0.0645
  372MOL0     C50149   5.874   6.432  10.479  0.3080  0.7607  0.3369
  372MOL0     C50150   5.969   6.455  10.548  0.3188  0.2814  0.2835
  372MOL0     C50151   5.716   5.793  10.510 -0.0494 -0.4294 -0.2635
  372MOL0     C50152   5.627   5.712  10.587 -0.0318  0.3185  0.5384
  372MOL0     H50153   5.160   5.473  10.711 -0.0210 -0.1797  1.1300
  372MOL0     H50154   5.055   5.367  10.905 -0.1051 -2.1372  2.4316
  372MOL0     H50155   5.175   5.050  11.220 -0.3568 -1.9785 -0.4337
  372MOL0     H50156   5.304   5.053  11.100 -0.6362  1.2185  0.0571
  372MOL0     H50157   5.391   5.264  11.229 -2.2200  0.1275 -4.6826
  372MOL0     H50158   5.253   5.262  11.330  1.5894  3.7059 -2.6711
  372MOL0     H50159   5.300   5.047  11.422  0.2838  1.7871  1.4496
  372MOL0     H50160   5.434   5.005  11.316  1.7232  0.7442 -0.0450
  372MOL0     H50161   5.578   5.172  11.418 -0.8392  1.3330 -0.6743
  372MOL0     H50162   5.437   5.254  11.500  0.9866 -1.0317  0.8706
  372MOL0     H50163   5.397   5.027  11.602  1.0172 -1.9666 -0.6219
  372MOL0     H50164   5.560   4.994  11.566  3.5149  1.3736 -1.3859
  372MOL0     H50165   5.546   5.081  11.785  0.0784  1.0087  0.5947
  372MOL0     H50166   5.643   5.183  11.675  2.2459 -0.3368  3.5311
  372MOL0     H50167   5.502   5.303  11.864 -2.4630  2.9089 -0.3680
  372MOL0     H50168   5.484   5.360  11.700  1.8494  0.7470  1.5120
  372MOL0     H50169   5.284   5.213  11.669  3.1941 -3.1399  0.8550
  372MOL0     H50170   5.261   5.366  11.751  0.2595  0.1039 -0.2996
  372MOL0     H50171   5.375   5.205  12.049  0.0332  0.9616  1.0992
  372MOL0     H50172   5.209   5.250  12.274 -2.1554  3.1793  1.3944
  372MOL0     H50173   5.043   5.241  12.239  1.0309  0.9503  1.5588
  372MOL0     H50174   5.066   4.993  12.221 -0.6350  0.4566  1.3132
  372MOL0     H50175   5.102   5.076  12.389  2.9935 -1.2964  1.3191
  372MOL0     H50176   5.348   5.051  12.308  3.0744 -2.9250  1.1619
  372MOL0     H50177   5.281   4.913  12.218 -1.2504  1.8483 -1.5692
  372MOL0     H50178   5.181   4.834  12.455  0.2284 -1.5506 -0.3583
  372MOL0     H50179   5.270   4.973  12.513 -2.1133 -1.6677  2.4078
  372MOL0     H50180   5.569   4.657  12.473  2.0867 -1.8841 -1.2961
  372MOL0     H50181   5.695   4.485  12.430 -3.8359  0.9674  2.4853
  372MOL0     H50182   5.602   4.337  12.468 -2.5401  0.6371  0.6241
  372MOL0     H50183   5.677   4.362  12.307 -1.8429 -0.9301 -2.2594
  372MOL0     H50184   5.199   4.036  12.116  0.0162 -1.2055  0.9462
  372MOL0     H50185   5.268   3.833  12.040  1.3154 -1.5217  0.3109
  372MOL0     H50186   5.416   3.803  11.730  2.0983  2.1865 -1.1560
  372MOL0     H50187   5.595   3.822  11.746  1.2244 -1.0912 -0.0381
  372MOL0     H50188   5.623   3.582  11.740  0.7039  1.0031 -1.6354
  372MOL0     H50189   5.473   3.545  11.817  4.5345 -4.4613 -0.5027
  372MOL0     H50190   5.482   3.665  11.525 -0.3488 -0.4060  0.0734
  372MOL0     H50191   5.345   3.615  11.617  0.4093  0.6273 -2.2638
  372MOL0     H50192   5.561   3.424  11.533  0.6259  0.4323  2.8921
  372MOL0     H50193   5.417   3.381  11.635 -2.4844  2.3924 -0.7467
  372MOL0     H50194   5.452   3.506  11.356  1.0542  2.0309  3.7943
  372MOL0     H50195   5.290   3.478  11.411 -1.8324 -2.4981 -3.8125
  372MOL0     H50196   5.460   3.236  11.380  0.1827  0.7358  3.3601
  372MOL0     H50197   5.302   3.232  11.433  1.4712 -1.1394 -0.5178
  372MOL0     H50198   5.368   3.347  11.164 -0.0460  0.6545  0.5038
  372MOL0     H50199   5.211   3.364  11.235 -1.1019 -1.5014 -0.6519
  372MOL0     H50200   5.162   3.179  11.119  1.4710 -2.1874 -0.6161
  372MOL0     H50201   5.221   3.090  11.265  3.2502 -3.3896 -0.5392
  372MOL0     H50202   5.625   4.001  11.877  0.2068  0.8799  0.0491
  372MOL0     H50203   5.567   4.212  11.967  1.6881 -0.5776 -1.2107
  372MOL0     H50204   5.190   4.482  12.196  0.9297 -0.1832 -1.3022
  372MOL0     H50205   5.184   4.701  12.274 -0.2010 -0.3078  1.5894
  372MOL0     H50206   5.440   5.221  11.036 -2.7909 -1.5818  2.0221
  372MOL0     H50207   5.547   5.336  10.869  0.4065  0.3760  4.0669
  372MOL0     H50208   5.337   5.797  10.427  0.0305  1.5304 -1.4183
  372MOL0     H50209   5.490   5.936  10.302 -2.0053  0.4167  0.5326
  372MOL0     H50210   5.834   6.057  10.177  1.1999 -2.7532  0.8339
  372MOL0     H50211   5.664   5.995  10.177  1.4971  0.5191 -2.1152
  372MOL0     H50212   5.657   6.138  10.394  0.8262  0.2485  0.3313
  372MOL0     H50213   5.612   6.224  10.254  0.5294  0.0159 -2.4033
  372MOL0     H50214   5.864   6.291  10.217  0.0036  2.8692  0.6472
  372MOL0     H50215   5.892   6.216  10.377  0.5281  2.0926  1.0749
  372MOL0     H50216   5.675   6.378  10.417  0.1963  1.8092  0.8424
  372MOL0     H50217   5.776   6.471  10.303 -3.5362 -1.3572 -1.5471
  372MOL0     H50218   6.060   6.471  10.603  0.2129  1.9094  0.0147
  372MOL0     H50219   5.822   5.775  10.526 -0.0393 -1.5505 -1.4264
  372MOL0     H50220   5.667   5.645  10.662  1.7492  2.0820  1.2511
  373MOL0     O50221   4.786   0.023   2.059 -0.2066  0.4074  0.1075
  373MOL0     C50222   4.669   0.019   2.024 -0.2884 -0.8847  0.3931
  373MOL0     O50223   4.603  -0.088   1.971 -0.2301  0.1970  0.2237
  373MOL0     C50224   4.667  -0.199   1.945 -0.5642 -0.0649  0.9459
  373MOL0     C50225   4.750  -0.190   1.831  0.6635 -0.3063  0.3418
  373MOL0     C50226   4.823  -0.309   1.796 -0.2347  0.1372 -0.0472
  373MOL0     C50227   4.799  -0.426   1.861 -0.6611 -0.2301  0.6314
  373MOL0     O50228   4.878  -0.539   1.832 -0.3279  0.1193  0.1164
  373MOL0     C50229   4.822  -0.668   1.836  0.3734  1.0438 -0.3403
  373MOL0     C50230   4.904  -0.751   1.743  0.3854 -0.7925  0.1787
  373MOL0     C50231   4.830  -0.760   1.605  1.3014  0.2252 -0.7969
  373MOL0     C50232   4.875  -0.858   1.498 -0.4518 -0.1950 -0.1491
  373MOL0     C50233   5.011  -0.826   1.445  0.5361 -0.0075  0.5156
  373MOL0     C50234   5.060  -0.922   1.343  0.1214  0.5159 -0.4419
  373MOL0     C50235   5.210  -0.894   1.321  1.0205 -0.0720  1.1860
  373MOL0     C50236   5.270  -0.989   1.218 -0.4371  0.4286 -0.3375
  373MOL0     N50237   5.202  -0.979   1.089  0.4710 -0.8990  0.3546
  373MOL0     C50238   5.145  -1.076   1.008 -0.2257 -0.0882  0.0474
  373MOL0     C50239   5.097  -1.003   0.898  0.5302  0.6172 -0.1742
  373MOL0     C50240   5.033  -1.066   0.782 -0.2897  0.1482 -0.0491
  373MOL0     C50241   4.883  -1.103   0.826  0.5515  0.1250  0.0318
  373MOL0     C50242   4.789  -0.990   0.823  0.5640  0.4603  0.2991
  373MOL0     C50243   4.645  -1.036   0.826  0.4379  0.9600 -0.2687
  373MOL0     O50244   4.596  -1.103   0.707  1.2997  0.2090  0.1286
  373MOL0     C50245   4.530  -1.011   0.622 -0.2485 -0.3436 -0.7043
  373MOL0     C50246   4.425  -1.065   0.550 -0.1510  0.5362 -0.1094
  373MOL0     C50247   4.343  -0.996   0.459  0.0870  0.6954  0.1010
  373MOL0     C50248   4.248  -1.072   0.364 -0.0775  0.5358 -0.9095
  373MOL0     C50249   4.362  -0.859   0.448  0.7740  0.3688  0.1293
  373MOL0     C50250   4.269  -0.768   0.369 -0.1176  0.1231  0.2852
  373MOL0     O50251   4.320  -0.645   0.325  0.3458  0.4474 -0.2445
  373MOL0     C50252   4.230  -0.557   0.267  1.1856  0.7188 -0.7659
  373MOL0     C50253   4.203  -0.436   0.333 -0.2245 -0.0605 -0.5305
  373MOL0     C50254   4.113  -0.349   0.268 -0.5580  0.2494 -0.0037
  373MOL0     C50255   4.065  -0.372   0.139 -0.3989 -0.3659  0.0946
  373MOL0     O50256   3.977  -0.273   0.090  0.4471  0.3048  0.0869
  373MOL0     C50257   4.052  -0.166   0.030  0.5484 -0.0323  0.1318
  373MOL0     C50258   3.948  -0.070  -0.039  0.3600 -0.4104 -0.2253
  373MOL0     C50259   4.013   0.067  -0.079  0.5532  0.5070 -0.7948
  373MOL0     C50260   3.917   0.177  -0.149 -0.1188 -0.1335  1.2126
  373MOL0     C50261   3.996   0.289  -0.215  0.7578 -0.2070 -0.6605
  373MOL0     C50262   3.907   0.366  -0.309 -0.3312 -0.1271  0.2320
  373MOL0     C50263   3.787   0.444  -0.262  0.1392  0.2727 -0.0231
  373MOL0     C50264   3.747   0.549  -0.375  0.9741  0.2146 -0.4560
  373MOL0    Cl50265   3.883   0.686  -0.382  0.6836  0.2098 -0.1684
  373MOL0     C50266   4.092  -0.488   0.066 -0.1585 -0.1013 -0.4253
  373MOL0     C50267   4.183  -0.579   0.133  0.1967 -0.7827 -0.0892
  373MOL0     O50268   4.151  -0.800   0.356 -0.1375 -0.2128  0.6208
  373MOL0     C50269   4.465  -0.797   0.530  0.4271  0.7751 -0.3780
  373MOL0     C50270   4.551  -0.871   0.609  0.2092 -0.0209  1.2972
  373MOL0     N50271   5.125  -0.874   0.911  0.1090 -0.2519  0.6165
  373MOL0     N50272   5.182  -0.856   1.030  0.0158 -0.5443 -0.1633
  373MOL0     C50273   4.703  -0.433   1.964  0.4823 -0.2084  0.5607
  373MOL0     C50274   4.633  -0.318   2.005 -0.6859  0.2516  0.1231
  373MOL0     C50275   4.597   0.146   2.037  0.5848 -0.6908  0.0184
  373MOL0     C50276   4.467   0.159   1.992  0.2560 -0.1686  0.3551
  373MOL0     C50277   4.403   0.282   1.987  0.9804  0.1103  0.3393
  373MOL0     C50278   4.458   0.407   2.044  0.7552 -0.3900 -0.6417
  373MOL0     O50279   4.388   0.530   2.048 -0.2582  0.1730 -0.2294
  373MOL0     C50280   4.304   0.552   1.932  0.2122 -0.1769  0.6070
  373MOL0     C50281   4.275   0.692   1.919  0.4661  0.4760 -0.0377
  373MOL0     C50282   4.223   0.732   1.781 -0.4444 -0.2042  0.2282
  373MOL0     C50283   4.188   0.882   1.755  0.3766  0.7043  0.7152
  373MOL0     C50284   4.312   0.964   1.751  0.4699 -0.4552 -0.0324
  373MOL0     C50285   4.420   1.019   1.760  0.0468 -0.3657  0.3920
  373MOL0     C50286   4.584   0.388   2.096 -0.5254 -0.0685 -0.6479
  373MOL0     C50287   4.655   0.263   2.093 -0.1915  0.3117 -0.0777
  373MOL0     H50288   4.758  -0.099   1.772 -0.5023 -1.3123 -1.4631
  373MOL0     H50289   4.889  -0.313   1.710 -0.3882 -2.4330 -0.1003
  373MOL0     H50290   4.831  -0.696   1.941  0.9298 -1.8167 -1.0416
  373MOL0     H50291   4.715  -0.674   1.817  0.4036 -0.6009 -0.1665
  373MOL0     H50292   5.007  -0.716   1.737  0.6564 -1.2178  1.7524
  373MOL0     H50293   4.910  -0.853   1.782  1.4020 -0.9548 -0.3678
  373MOL0     H50294   4.723  -0.772   1.624  0.2236  5.1670 -2.3028
  373MOL0     H50295   4.830  -0.658   1.567  0.2326  0.5335 -0.0024
  373MOL0     H50296   4.870  -0.961   1.532  1.9159 -0.4016 -0.2808
  373MOL0     H50297   4.805  -0.839   1.416 -1.2408  3.1374  1.1300
  373MOL0     H50298   5.019  -0.721   1.413  2.0616 -0.6901 -1.5622
  373MOL0     H50299   5.082  -0.833   1.528  0.4933  2.2499  0.8219
  373MOL0     H50300   5.050  -1.023   1.384 -1.8316  1.4554  1.5434
  373MOL0     H50301   4.996  -0.920   1.254 -0.3878 -0.5287 -0.1056
  373MOL0     H50302   5.214  -0.795   1.275 -1.2754 -0.9649 -1.1920
  373MOL0     H50303   5.266  -0.913   1.413  2.6032 -1.9551 -0.0541
  373MOL0     H50304   5.268  -1.090   1.258  0.0753  0.6856  0.3523
  373MOL0     H50305   5.376  -0.962   1.206 -0.2518 -1.1775 -3.5407
  373MOL0     H50306   5.149  -1.181   1.035 -0.8502  0.0529  0.7264
  373MOL0     H50307   5.030  -0.989   0.704  1.9359 -0.5179 -0.8767
  373MOL0     H50308   5.091  -1.146   0.734 -3.9898 -2.4600 -0.5701
  373MOL0     H50309   4.889  -1.148   0.926  2.5409 -0.7365 -0.4263
  373MOL0     H50310   4.847  -1.173   0.750 -1.1178  4.4973 -3.6871
  373MOL0     H50311   4.793  -0.939   0.726 -0.8405 -1.0603 -0.6287
  373MOL0     H50312   4.816  -0.923   0.905 -2.0332  1.4875  0.3945
  373MOL0     H50313   4.574  -0.955   0.845 -0.1788  0.2182  0.6818
  373MOL0     H50314   4.647  -1.104   0.911  1.0745  2.5991  1.0757
  373MOL0     H50315   4.406  -1.171   0.558  1.4609  0.2033 -0.4822
  373MOL0     H50316   4.254  -1.181   0.379  1.3958  0.2872 -2.8027
  373MOL0     H50317   4.147  -1.039   0.389  0.9082  2.2543  1.0210
  373MOL0     H50318   4.277  -1.047   0.261 -0.8956  1.2085 -0.9790
  373MOL0     H50319   4.235  -0.425   0.436 -1.6512  1.6138 -0.2168
  373MOL0     H50320   4.073  -0.261   0.317  0.8459 -0.1485  2.0096
  373MOL0     H50321   4.113  -0.122   0.109 -1.7362 -0.1254  2.0611
  373MOL0     H50322   4.119  -0.204  -0.048 -0.7347 -2.9661  0.3256
  373MOL0     H50323   3.919  -0.122  -0.132  0.0198 -0.6819  0.0291
  373MOL0     H50324   3.859  -0.062   0.024  0.6460 -0.5367  0.2006
  373MOL0     H50325   4.085   0.034  -0.155 -0.7334  0.9879 -2.2785
  373MOL0     H50326   4.070   0.114   0.002  2.8793 -1.4067 -1.2023
  373MOL0     H50327   3.863   0.128  -0.231 -0.1290  0.9599  0.5495
  373MOL0     H50328   3.846   0.223  -0.081 -0.1394  2.0044 -0.1604
  373MOL0     H50329   4.089   0.257  -0.264  1.1967 -0.7497  0.4812
  373MOL0     H50330   4.026   0.351  -0.130 -2.3643 -3.0446  2.8719
  373MOL0     H50331   3.966   0.447  -0.354 -0.2872  0.2236  0.9114
  373MOL0     H50332   3.876   0.298  -0.388  2.5676 -2.6652  1.0795
  373MOL0     H50333   3.798   0.497  -0.166 -2.6819  1.3862 -0.2141
  373MOL0     H50334   3.719   0.360  -0.245 -0.9390  1.4046  1.6482
  373MOL0     H50335   3.646   0.590  -0.361  0.4949 -1.1175  0.1768
  373MOL0     H50336   3.740   0.501  -0.473 -1.9729  0.9501 -0.6998
  373MOL0     H50337   4.055  -0.496  -0.035  0.6698 -0.8368 -0.6800
  373MOL0     H50338   4.221  -0.673   0.094 -1.4411 -2.4110  1.9484
  373MOL0     H50339   4.486  -0.690   0.533  1.6322  0.5394  0.5171
  373MOL0     H50340   4.627  -0.811   0.657 -0.6704  1.3098  1.0664
  373MOL0     H50341   4.691  -0.526   2.018 -0.5006 -1.7163 -2.0295
  373MOL0     H50342   4.577  -0.319   2.098 -0.1196  0.9384  0.4875
  373MOL0     H50343   4.426   0.067   1.953  0.8438  1.4870 -5.0711
  373MOL0     H50344   4.310   0.290   1.932  1.8225  1.8341 -0.9363
  373MOL0     H50345   4.357   0.515   1.844 -0.0436 -1.0554  0.8093
  373MOL0     H50346   4.207   0.502   1.936 -0.5429  0.8841 -2.3843
  373MOL0     H50347   4.360   0.757   1.940 -0.6705  3.2138 -3.1183
  373MOL0     H50348   4.197   0.714   1.993  1.0141 -2.9769  1.7575
  373MOL0     H50349   4.145   0.660   1.756 -0.3989 -0.5370  1.0047
  373MOL0     H50350   4.302   0.706   1.710 -1.6763  0.7249 -1.5634
  373MOL0     H50351   4.113   0.909   1.830 -0.3467  2.7191 -0.6481
  373MOL0     H50352   4.128   0.883   1.663 -1.6605 -2.2398  1.8541
  373MOL0     H50353   4.505   1.083   1.748  0.6927 -1.3889 -0.6592
  373MOL0     H50354   4.639   0.470   2.140  0.9624 -2.1519  1.6503
  373MOL0     H50355   4.754   0.254   2.136 -0.6306 -0.6475  0.7710
  374MOL0     O50356  10.225   2.113   0.375  0.0564 -0.4530 -0.1849
  374MOL0     C50357  10.140   2.026   0.364  0.0239 -0.8004  1.3448
  374MOL0     O50358  10.034   2.029   0.280 -0.1467  0.2705 -0.1076
  374MOL0     C50359  10.027   2.109   0.168 -1.4799  0.5229 -0.8170
  374MOL0     C50360  10.055   2.053   0.047 -0.2843  0.4524 -0.3353
  374MOL0     C50361  10.056   2.123  -0.079  0.1213  0.1957 -0.3291
  374MOL0     C50362  10.016   2.267  -0.064 -0.2973 -0.0955 -0.0501
  374MOL0     O50363  10.013   2.353  -0.168 -0.2430  0.0560  0.9943
  374MOL0     C50364  10.050   2.309  -0.291 -0.4017 -0.7524  0.3930
  374MOL0     C50365  10.019   2.407  -0.405 -0.7622  0.1238 -1.4902
  374MOL0     C50366  10.096   2.375  -0.532  0.8036 -0.1281 -0.6288
  374MOL0     C50367  10.121   2.503  -0.617  0.2055  0.1566 -0.3256
  374MOL0     C50368  10.179   2.462  -0.753 -1.0730 -0.2055 -0.5721
  374MOL0     C50369  10.235   2.582  -0.819 -0.2215 -0.3912  0.3372
  374MOL0     C50370  10.290   2.561  -0.962 -0.2410  0.0997  0.7804
  374MOL0     C50371  10.334   2.693  -1.033 -0.0741  0.2223 -0.1656
  374MOL0     N50372  10.238   2.756  -1.126 -0.4454 -0.1550  0.8577
  374MOL0     C50373  10.111   2.786  -1.097 -0.6781 -0.4229 -0.6431
  374MOL0     C50374  10.033   2.775  -1.202  1.0662 -0.6101 -0.0360
  374MOL0     C50375   9.879   2.795  -1.214 -0.5391  0.6663  0.4671
  374MOL0     C50376   9.818   2.894  -1.114 -0.5330 -0.3520 -0.0240
  374MOL0     C50377   9.668   2.894  -1.113  0.3146 -1.2037 -0.4870
  374MOL0     C50378   9.613   3.016  -1.030 -0.8528 -0.5722  0.2273
  374MOL0     O50379   9.471   3.015  -1.013  0.4708 -0.2642  0.3240
  374MOL0     C50380   9.408   2.912  -0.948 -0.3312  0.7055 -0.0096
  374MOL0     C50381   9.470   2.797  -0.888 -0.9661  0.0348  0.0178
  374MOL0     C50382   9.401   2.688  -0.837 -0.1535 -0.4851 -0.3348
  374MOL0     C50383   9.484   2.569  -0.798  0.2942  0.8039 -0.8875
  374MOL0     C50384   9.259   2.693  -0.830 -0.1944  0.0867  0.3753
  374MOL0     C50385   9.170   2.590  -0.758 -0.2752 -0.1957  0.9780
  374MOL0     O50386   9.041   2.612  -0.792  0.0911  0.0735 -0.0582
  374MOL0     C50387   8.972   2.499  -0.800 -0.4073 -0.1376  0.5605
  374MOL0     C50388   8.957   2.433  -0.924 -0.2818  0.3680 -0.1203
  374MOL0     C50389   8.900   2.304  -0.912 -0.7853 -0.9033  0.5996
  374MOL0     C50390   8.855   2.251  -0.787  0.4573  0.5565 -0.4484
  374MOL0     O50391   8.809   2.123  -0.766 -0.9004  0.5816  0.1167
  374MOL0     C50392   8.749   2.073  -0.879  0.9152  0.7540  0.0033
  374MOL0     C50393   8.648   1.960  -0.842 -1.2038  0.2075 -0.4118
  374MOL0     C50394   8.723   1.824  -0.806 -0.9017  0.4331  0.0634
  374MOL0     C50395   8.624   1.737  -0.718 -0.3543  0.1842 -0.5577
  374MOL0     C50396   8.690   1.625  -0.653  0.5829  0.7164  0.1137
  374MOL0     C50397   8.597   1.512  -0.616  0.6314 -0.6184 -0.8771
  374MOL0     C50398   8.672   1.392  -0.548 -0.1314 -1.1095  0.9743
  374MOL0     C50399   8.591   1.257  -0.545 -0.0530 -0.8733 -0.5054
  374MOL0    Cl50400   8.690   1.117  -0.488 -0.0585  0.0502  0.0958
  374MOL0     C50401   8.876   2.326  -0.671  0.2719 -0.5242  0.1505
  374MOL0     C50402   8.923   2.457  -0.672  0.1501 -0.2196 -0.1063
  374MOL0     O50403   9.215   2.511  -0.683  0.3616 -0.3522 -0.1936
  374MOL0     C50404   9.192   2.801  -0.901 -0.0018 -0.4786 -0.8557
  374MOL0     C50405   9.267   2.910  -0.954  0.1315 -0.3782  0.8202
  374MOL0     N50406  10.114   2.723  -1.290 -0.1466 -0.1665  0.2226
  374MOL0     N50407  10.235   2.717  -1.252 -0.2928 -0.0037 -0.4791
  374MOL0     C50408   9.988   2.321   0.057 -0.5182  0.6942  0.3943
  374MOL0     C50409   9.987   2.247   0.176  0.0975 -0.3857  0.3847
  374MOL0     C50410  10.159   1.915   0.459 -0.4767 -1.0771  0.1935
  374MOL0     C50411  10.278   1.888   0.526 -0.0893 -0.1945 -0.1168
  374MOL0     C50412  10.287   1.779   0.618 -0.6924  0.3141  0.6817
  374MOL0     C50413  10.188   1.694   0.640  0.2544  0.1562 -0.7148
  374MOL0     O50414  10.228   1.595   0.729  0.1975 -0.0356  0.0857
  374MOL0     C50415  10.132   1.496   0.765 -0.2420 -0.1674  0.2252
  374MOL0     C50416  10.160   1.442   0.903 -0.5072  0.9839  0.1780
  374MOL0     C50417  10.122   1.529   1.019  0.6139  0.5326  1.3575
  374MOL0     C50418   9.971   1.542   1.052  0.0324  0.6805  0.2521
  374MOL0     C50419   9.957   1.613   1.178 -0.0737 -0.1131  0.2555
  374MOL0     C50420   9.949   1.665   1.285  0.9056  0.4386 -0.9734
  374MOL0     C50421  10.065   1.724   0.575  0.0079  0.2378 -0.5702
  374MOL0     C50422  10.055   1.827   0.487 -0.5256  0.4916 -0.3630
  374MOL0     H50423  10.076   1.946   0.049  0.6042  0.5758 -1.8680
  374MOL0     H50424  10.085   2.078  -0.174 -2.3590 -1.5643 -0.3177
  374MOL0     H50425  10.158   2.287  -0.289 -0.6597 -2.0186  0.8913
  374MOL0     H50426  10.003   2.217  -0.326 -1.2911 -0.7151  1.4597
  374MOL0     H50427   9.911   2.400  -0.424 -1.0096  2.0193 -0.9887
  374MOL0     H50428  10.045   2.509  -0.374  0.9311 -1.0697  1.4083
  374MOL0     H50429  10.191   2.326  -0.508 -1.2948 -3.0776  2.5896
  374MOL0     H50430  10.031   2.311  -0.592 -0.4536 -0.6059  1.1652
  374MOL0     H50431  10.025   2.551  -0.641  1.0419  1.9140 -0.3374
  374MOL0     H50432  10.180   2.577  -0.562 -0.9685  1.3936 -0.6633
  374MOL0     H50433  10.258   2.389  -0.736  1.1247  1.7273 -1.9776
  374MOL0     H50434  10.100   2.415  -0.813 -0.4631 -0.7910 -0.9299
  374MOL0     H50435  10.159   2.659  -0.828  0.0706 -0.3367 -2.8029
  374MOL0     H50436  10.311   2.617  -0.749 -0.1400 -1.8705  1.0242
  374MOL0     H50437  10.365   2.481  -0.960 -1.3256 -0.9957 -0.3546
  374MOL0     H50438  10.216   2.509  -1.023 -0.8704  2.2294 -0.3416
  374MOL0     H50439  10.424   2.665  -1.088 -0.9872 -1.4299 -0.8962
  374MOL0     H50440  10.344   2.764  -0.950  2.8939 -0.9858  0.6508
  374MOL0     H50441  10.071   2.826  -1.005  0.8090  1.6661 -0.8338
  374MOL0     H50442   9.865   2.827  -1.318 -3.7328 -0.6813  0.3658
  374MOL0     H50443   9.833   2.698  -1.192 -0.4184  0.1958 -1.1588
  374MOL0     H50444   9.856   2.986  -1.160 -2.8386  0.2866 -0.7685
  374MOL0     H50445   9.843   2.877  -1.009  1.6535 -0.0141 -0.4335
  374MOL0     H50446   9.639   2.794  -1.079 -2.9235 -1.0027 -2.2542
  374MOL0     H50447   9.636   2.896  -1.217 -0.6365  5.0246 -0.4646
  374MOL0     H50448   9.642   3.103  -1.089 -2.5228 -0.5459 -0.5943
  374MOL0     H50449   9.667   3.031  -0.936 -0.5761  1.4447 -0.2010
  374MOL0     H50450   9.579   2.802  -0.882 -0.6531 -2.5553 -1.9004
  374MOL0     H50451   9.576   2.559  -0.856  0.0139 -1.5753 -1.0197
  374MOL0     H50452   9.511   2.570  -0.692 -1.2268  1.8425 -0.4711
  374MOL0     H50453   9.426   2.478  -0.820 -0.4858  0.6409  1.5730
  374MOL0     H50454   8.986   2.467  -1.023 -1.2349  0.4019 -0.3981
  374MOL0     H50455   8.890   2.246  -1.003 -2.6582  0.0322  0.1690
  374MOL0     H50456   8.692   2.155  -0.924 -1.9295 -0.0383  1.8744
  374MOL0     H50457   8.830   2.045  -0.948  1.0470  2.7973 -0.7466
  374MOL0     H50458   8.580   1.981  -0.759  0.6377  1.0361  0.9732
  374MOL0     H50459   8.578   1.961  -0.926 -0.5386 -1.6284 -1.0366
  374MOL0     H50460   8.815   1.832  -0.748  0.6719 -3.0454 -1.7085
  374MOL0     H50461   8.752   1.774  -0.899 -1.7380  0.4236 -0.2034
  374MOL0     H50462   8.557   1.791  -0.651 -1.3499 -2.3115  0.5650
  374MOL0     H50463   8.563   1.689  -0.794 -0.1714  2.3484 -2.1703
  374MOL0     H50464   8.738   1.660  -0.561 -0.4758  0.6021  0.7138
  374MOL0     H50465   8.761   1.593  -0.730  0.8062  0.3293  0.4742
  374MOL0     H50466   8.521   1.546  -0.545  1.3631 -1.5700  0.4023
  374MOL0     H50467   8.544   1.478  -0.706 -0.9810 -1.1358  0.2388
  374MOL0     H50468   8.718   1.424  -0.455  0.1057 -0.0460  0.5104
  374MOL0     H50469   8.760   1.372  -0.610  1.2578  1.2806  2.0311
  374MOL0     H50470   8.566   1.241  -0.650 -1.2296 -0.7849 -0.2546
  374MOL0     H50471   8.502   1.267  -0.482 -0.3282  1.2657 -1.1523
  374MOL0     H50472   8.849   2.285  -0.574 -1.3005 -0.0778 -0.0684
  374MOL0     H50473   8.940   2.518  -0.584  1.1462 -0.2132 -0.2967
  374MOL0     H50474   9.084   2.814  -0.904  0.1175  2.1291  1.5995
  374MOL0     H50475   9.211   3.001  -0.972 -3.4034 -2.4287  0.4561
  374MOL0     H50476   9.959   2.425   0.068 -1.6806  0.2800  1.4681
  374MOL0     H50477   9.945   2.300   0.261 -1.5443 -1.8562  0.5505
  374MOL0     H50478  10.361   1.958   0.527  0.3634 -0.7123  1.3208
  374MOL0     H50479  10.377   1.772   0.678 -0.8321  0.1564  0.8745
  374MOL0     H50480  10.027   1.520   0.751 -0.8850 -3.5682 -1.8551
  374MOL0     H50481  10.144   1.412   0.696 -3.4900 -0.3433 -0.2387
  374MOL0     H50482  10.267   1.426   0.913 -0.2029  2.9459  0.3982
  374MOL0     H50483  10.128   1.340   0.929  0.7926 -0.2620 -2.6458
  374MOL0     H50484  10.157   1.629   0.993  1.8822 -0.1006  0.5396
  374MOL0     H50485  10.181   1.503   1.107  2.2108  1.6217  0.6340
  374MOL0     H50486   9.928   1.441   1.055 -0.1489  0.6170 -2.2750
  374MOL0     H50487   9.922   1.585   0.964 -1.7529 -0.3074  0.7232
  374MOL0     H50488   9.928   1.702   1.384  0.1103  1.0520 -1.3576
  374MOL0     H50489   9.981   1.661   0.602  0.9780 -0.1963  1.7086
  374MOL0     H50490   9.952   1.834   0.455 -0.1278 -0.3046 -1.9247
  375MOL0     O50491   6.315  10.079  10.424  0.5470 -0.7022 -0.1963
  375MOL0     C50492   6.244  10.133  10.509 -0.2703 -0.1257  0.7365
  375MOL0     O50493   6.240  10.266  10.531 -0.0266  0.4619  0.0167
  375MOL0     C50494   6.307  10.362  10.457  1.0942 -0.6481  0.8455
  375MOL0     C50495   6.243  10.486  10.473 -0.3310  0.3822 -0.6550
  375MOL0     C50496   6.301  10.602  10.428  0.1408 -0.1636  0.3128
  375MOL0     C50497   6.419  10.603  10.358  0.1431 -0.4399  0.4808
  375MOL0     O50498   6.459  10.727  10.307  0.5705  0.0446 -0.0594
  375MOL0     C50499   6.592  10.770  10.308 -0.6987  0.7395  0.5960
  375MOL0     C50500   6.623  10.850  10.436  1.0291 -0.5511  0.6457
  375MOL0     C50501   6.772  10.852  10.494 -0.1624  0.2710 -0.1505
  375MOL0     C50502   6.808  10.744  10.597 -0.4886 -0.4602 -1.1438
  375MOL0     C50503   6.940  10.766  10.672  0.6756 -1.0825 -0.2238
  375MOL0     C50504   6.917  10.837  10.805 -0.4896  0.9810  0.1044
  375MOL0     C50505   7.038  10.838  10.895 -0.0611  0.5348  0.1118
  375MOL0     C50506   7.034  10.945  11.000  0.2097  0.5799  1.2433
  375MOL0     N50507   7.076  10.880  11.127 -0.5879  0.2030  0.2211
  375MOL0     C50508   7.205  10.833  11.148 -0.2571 -0.2936 -0.0806
  375MOL0     C50509   7.212  10.796  11.278  0.5205  0.3774  0.1309
  375MOL0     C50510   7.331  10.735  11.356 -0.4955  0.1024  0.2281
  375MOL0     C50511   7.438  10.853  11.368  0.8755  0.2898  0.2146
  375MOL0     C50512   7.382  10.992  11.424  1.7038  0.0123 -0.1409
  375MOL0     C50513   7.477  11.086  11.496  0.0697  1.1657 -0.0494
  375MOL0     O50514   7.602  11.109  11.426  0.1263  0.1929 -0.5430
  375MOL0     C50515   7.613  11.152  11.293 -0.3263  0.4377  0.2161
  375MOL0     C50516   7.714  11.111  11.210  0.0262 -0.1082 -0.8086
  375MOL0     C50517   7.736  11.172  11.089 -0.2917  0.7788  1.5317
  375MOL0     C50518   7.868  11.142  11.013 -0.8305  0.4273 -0.0412
  375MOL0     C50519   7.635  11.262  11.038  0.9370  0.1114  0.0584
  375MOL0     C50520   7.637  11.335  10.910  0.3038  0.3543  0.6993
  375MOL0     O50521   7.527  11.409  10.876  0.4056 -0.1422 -0.6296
  375MOL0     C50522   7.545  11.468  10.752  0.3266  0.5196 -0.0904
  375MOL0     C50523   7.558  11.397  10.624 -0.0695 -0.0303 -0.0949
  375MOL0     C50524   7.589  11.467  10.511 -0.2729 -0.2008 -0.8034
  375MOL0     C50525   7.612  11.604  10.510  1.2096 -0.6417 -0.3305
  375MOL0     O50526   7.630  11.655  10.389  0.3196 -0.8371  0.6005
  375MOL0     C50527   7.671  11.789  10.359 -0.5035  0.0663  0.6872
  375MOL0     C50528   7.725  11.796  10.215 -1.2416 -1.3536 -0.1345
  375MOL0     C50529   7.780  11.931  10.182  0.2574  0.3258  0.5437
  375MOL0     C50530   7.828  11.946  10.038 -0.2847 -0.2058  0.5059
  375MOL0     C50531   7.885  11.818   9.964  0.3756  0.2221  0.3613
  375MOL0     C50532   7.970  11.842   9.841  0.5976  0.3825 -0.0503
  375MOL0     C50533   7.878  11.932   9.751  0.1797 -0.5239 -0.2329
  375MOL0     C50534   7.742  11.873   9.705 -0.4017  0.1937 -0.3783
  375MOL0    Cl50535   7.680  11.960   9.564 -0.1418 -0.4422  0.3139
  375MOL0     C50536   7.617  11.672  10.639  0.4862  0.1227 -0.2394
  375MOL0     C50537   7.582  11.596  10.766 -0.7108 -1.2792  1.0124
  375MOL0     O50538   7.741  11.335  10.844 -0.2833  0.3473  0.5193
  375MOL0     C50539   7.516  11.290  11.114  0.2194  0.7920  0.4505
  375MOL0     C50540   7.507  11.232  11.242  0.1718 -0.1350 -0.3430
  375MOL0     N50541   7.093  10.823  11.338 -0.3924  0.0964  0.7763
  375MOL0     N50542   7.012  10.884  11.247  0.0126  0.7982 -0.8146
  375MOL0     C50543   6.473  10.475  10.332 -0.5035 -1.5422 -0.0699
  375MOL0     C50544   6.422  10.358  10.377 -0.4104  0.3619  1.1093
  375MOL0     C50545   6.154  10.041  10.583 -0.2985 -1.0161  1.0672
  375MOL0     C50546   6.120   9.909  10.534 -0.5321 -0.4271  0.1717
  375MOL0     C50547   6.033   9.827  10.606  0.7875  0.1073  0.0169
  375MOL0     C50548   5.980   9.863  10.733  0.4819  0.2308 -0.0430
  375MOL0     O50549   5.898   9.772  10.794  0.2584 -0.0041 -0.4121
  375MOL0     C50550   5.941   9.716  10.917  0.2364 -0.1561  0.8349
  375MOL0     C50551   5.864   9.593  10.952  0.5485 -0.3383 -0.9782
  375MOL0     C50552   5.878   9.490  10.837  0.1199  1.0881  0.3890
  375MOL0     C50553   5.882   9.346  10.882 -0.4831  0.1295 -0.5976
  375MOL0     C50554   6.011   9.298  10.950 -0.6068 -0.0770  0.2932
  375MOL0     C50555   6.113   9.264  11.001 -0.3758  0.1347 -0.0214
  375MOL0     C50556   6.004   9.994  10.777  0.1570 -0.0427 -0.1469
  375MOL0     C50557   6.082  10.084  10.699  0.7020 -0.3647 -0.3165
  375MOL0     H50558   6.149  10.492  10.526  2.1144 -1.2799  4.6300
  375MOL0     H50559   6.249  10.697  10.437  0.2874  0.3789 -3.1303
  375MOL0     H50560   6.661  10.686  10.302  0.8776  1.8024  2.6180
  375MOL0     H50561   6.610  10.832  10.219 -3.4536 -0.0500 -0.6353
  375MOL0     H50562   6.592  10.953  10.416 -3.4922 -1.3247  2.4480
  375MOL0     H50563   6.553  10.824  10.516  1.4108 -2.4506  0.4150
  375MOL0     H50564   6.849  10.849  10.417 -1.9573  2.1276 -2.1732
  375MOL0     H50565   6.802  10.947  10.540  0.1686  1.7724 -3.1912
  375MOL0     H50566   6.723  10.737  10.665  0.0318  1.3281 -0.2339
  375MOL0     H50567   6.801  10.662  10.526 -5.9845 -0.6705 -0.7589
  375MOL0     H50568   6.974  10.663  10.687 -0.4483 -1.6693 -1.5407
  375MOL0     H50569   7.019  10.809  10.610 -1.0124 -1.9962 -3.2055
  375MOL0     H50570   6.891  10.942  10.786  1.4937  2.0584  2.7664
  375MOL0     H50571   6.834  10.790  10.859  0.1174 -0.2538 -0.0091
  375MOL0     H50572   7.048  10.738  10.937  0.1788 -1.6633 -4.5871
  375MOL0     H50573   7.129  10.860  10.838  1.6044  1.7970  3.0048
  375MOL0     H50574   6.931  10.981  11.012 -0.0665  1.4401 -2.5307
  375MOL0     H50575   7.088  11.034  10.967 -2.5508  1.8245 -0.3018
  375MOL0     H50576   7.287  10.839  11.077  1.5897 -0.1273  1.9339
  375MOL0     H50577   7.310  10.697  11.456  0.1152 -1.3580 -0.1709
  375MOL0     H50578   7.379  10.657  11.297  1.5590  0.1269  1.7617
  375MOL0     H50579   7.482  10.869  11.269  3.2022 -3.2729  0.5209
  375MOL0     H50580   7.512  10.818  11.440  1.2356  0.5631 -0.0202
  375MOL0     H50581   7.310  10.961  11.501 -0.0955 -0.9299 -2.1142
  375MOL0     H50582   7.319  11.055  11.360 -0.3261 -0.0697  1.6669
  375MOL0     H50583   7.519  11.032  11.582 -1.5071 -1.0000 -0.5455
  375MOL0     H50584   7.438  11.179  11.537 -0.3261 -0.3462  3.3077
  375MOL0     H50585   7.782  11.039  11.255  2.0042  3.4447  2.4893
  375MOL0     H50586   7.851  11.107  10.911  2.4020  1.8817 -1.2082
  375MOL0     H50587   7.946  11.218  11.024  1.4163 -2.0606  3.3677
  375MOL0     H50588   7.918  11.059  11.064 -0.7191  0.4424 -0.1264
  375MOL0     H50589   7.540  11.290  10.623 -1.6362  0.1933  0.7597
  375MOL0     H50590   7.602  11.408  10.421 -3.4288  0.1921 -1.6552
  375MOL0     H50591   7.590  11.861  10.368 -1.0248  0.2323 -3.2571
  375MOL0     H50592   7.749  11.817  10.430  1.4161 -0.3684 -1.1317
  375MOL0     H50593   7.805  11.722  10.204  2.1886  1.5074  3.0675
  375MOL0     H50594   7.635  11.778  10.155 -0.7086 -1.0867 -1.0202
  375MOL0     H50595   7.855  11.952  10.259  2.1348  1.9124 -1.5684
  375MOL0     H50596   7.696  11.998  10.205  1.2235  0.6974  3.4784
  375MOL0     H50597   7.747  11.995   9.982 -0.5948 -0.6045  0.6012
  375MOL0     H50598   7.906  12.023  10.042 -1.1979  0.7869 -0.1511
  375MOL0     H50599   7.805  11.748   9.940 -0.4489  0.9255  0.9703
  375MOL0     H50600   7.939  11.769  10.045  0.4540  1.6774  1.2338
  375MOL0     H50601   8.066  11.890   9.865  0.2994  1.2845 -0.6359
  375MOL0     H50602   7.991  11.743   9.800 -1.1385  0.9223 -2.4008
  375MOL0     H50603   7.929  11.955   9.657 -1.8845 -0.4333 -1.3746
  375MOL0     H50604   7.844  12.022   9.802  1.2530 -0.3356  0.1691
  375MOL0     H50605   7.674  11.866   9.791  2.0846  0.1419  1.7157
  375MOL0     H50606   7.761  11.771   9.671  2.0458 -0.4369  2.4735
  375MOL0     H50607   7.660  11.772  10.640  0.6197  0.0877 -1.2237
  375MOL0     H50608   7.590  11.653  10.858 -2.5894 -1.8698  1.6031
  375MOL0     H50609   7.432  11.355  11.094 -0.0066  0.7493  1.2135
  375MOL0     H50610   7.420  11.254  11.303  0.3321  1.0581 -0.5336
  375MOL0     H50611   6.571  10.463  10.287  0.8346  3.3929  0.8492
  375MOL0     H50612   6.477  10.266  10.360  0.3801  0.8657  0.8905
  375MOL0     H50613   6.154   9.873  10.437  0.1256 -0.0660  0.2601
  375MOL0     H50614   6.001   9.731  10.565 -2.9159  0.4815  1.5907
  375MOL0     H50615   6.046   9.696  10.892 -1.0835 -1.5176 -5.1796
  375MOL0     H50616   5.933   9.778  11.007  1.6858  0.2920  0.6808
  375MOL0     H50617   5.757   9.607  10.970  1.0869 -0.5964  3.6738
  375MOL0     H50618   5.901   9.546  11.043  0.9529 -0.5073 -1.2300
  375MOL0     H50619   5.966   9.503  10.772 -0.2175  0.1220 -0.2721
  375MOL0     H50620   5.795   9.496  10.767  0.5633 -2.8354 -0.7284
  375MOL0     H50621   5.869   9.293  10.788 -0.4342  2.9678 -2.3298
  375MOL0     H50622   5.798   9.320  10.946  0.3645 -1.4438 -0.0683
  375MOL0     H50623   6.196   9.231  11.060  0.0955  0.1373 -0.6760
  375MOL0     H50624   5.970  10.022  10.876  0.8611 -0.6103  0.2671
  375MOL0     H50625   6.084  10.181  10.746 -0.3411 -1.3099  1.8289
  376MOL0     O50626   7.895   4.327  10.945 -0.2510 -0.0649 -0.0055
  376MOL0     C50627   7.942   4.426  10.998 -0.0988  0.0138 -0.4762
  376MOL0     O50628   8.023   4.415  11.112 -0.2025  0.1064  0.8558
  376MOL0     C50629   8.048   4.303  11.177  0.3981  0.3088  0.1135
  376MOL0     C50630   8.175   4.238  11.170 -0.6615 -0.4683  0.6712
  376MOL0     C50631   8.192   4.121  11.239 -0.3669 -0.1273  0.2381
  376MOL0     C50632   8.085   4.056  11.305 -0.2648  0.4642  0.8359
  376MOL0     O50633   8.118   3.933  11.360  0.2866 -0.2953 -0.0186
  376MOL0     C50634   8.046   3.904  11.480 -0.2591 -0.2832 -0.4114
  376MOL0     C50635   8.079   3.974  11.617 -0.1834  0.7434 -0.2779
  376MOL0     C50636   8.204   3.923  11.695  1.7933  0.2199  0.0053
  376MOL0     C50637   8.316   4.022  11.709 -0.0348  0.5981  0.9069
  376MOL0     C50638   8.378   4.073  11.576 -0.1018  0.4984  0.6030
  376MOL0     C50639   8.491   4.170  11.609  0.4607  1.3444  0.4578
  376MOL0     C50640   8.589   4.192  11.487  0.3942 -0.4738 -0.3437
  376MOL0     C50641   8.532   4.293  11.377  0.1090 -0.6448  0.0263
  376MOL0     N50642   8.505   4.436  11.436 -0.0198  0.6761  0.7684
  376MOL0     C50643   8.384   4.493  11.428 -0.1902 -0.3834 -0.2553
  376MOL0     C50644   8.377   4.600  11.508  0.1744 -0.2947 -0.6864
  376MOL0     C50645   8.250   4.680  11.545 -0.9134 -1.1693  0.3720
  376MOL0     C50646   8.199   4.748  11.415 -0.2063 -0.0858 -0.2916
  376MOL0     C50647   8.096   4.863  11.440  0.5959  0.8522  0.0321
  376MOL0     C50648   7.979   4.821  11.523 -1.1863 -0.6221 -0.6852
  376MOL0     O50649   7.901   4.729  11.450  0.2429  0.2008 -1.2479
  376MOL0     C50650   7.824   4.774  11.350  0.2386 -0.9410  0.5221
  376MOL0     C50651   7.750   4.673  11.282 -0.8580 -0.9476 -0.5197
  376MOL0     C50652   7.663   4.689  11.179 -0.3997  0.3261 -0.2991
  376MOL0     C50653   7.598   4.556  11.135 -0.0368  0.6589 -0.8942
  376MOL0     C50654   7.657   4.822  11.125  0.0228  0.6382 -0.3085
  376MOL0     C50655   7.556   4.846  11.023  0.5275  0.6743  0.4631
  376MOL0     O50656   7.596   4.933  10.925  0.2944 -0.1351 -0.0825
  376MOL0     C50657   7.513   4.997  10.838  0.5541  0.1261  0.1168
  376MOL0     C50658   7.525   4.992  10.695  0.7743 -0.7219 -0.1378
  376MOL0     C50659   7.447   5.077  10.612  0.4446  0.9739  0.5439
  376MOL0     C50660   7.366   5.170  10.669 -0.4479  0.0045 -0.2861
  376MOL0     O50661   7.296   5.251  10.577 -0.8531 -0.0520 -0.4147
  376MOL0     C50662   7.183   5.333  10.624 -0.0706 -0.5875 -0.4621
  376MOL0     C50663   7.096   5.382  10.509  0.3674 -0.6201  0.4031
  376MOL0     C50664   7.164   5.504  10.434 -0.4376 -0.1378 -0.0443
  376MOL0     C50665   7.092   5.542  10.301 -0.2278  0.2605  0.5162
  376MOL0     C50666   7.175   5.650  10.219  0.4243  1.0815  0.2182
  376MOL0     C50667   7.082   5.725  10.137 -0.0979  0.2241  0.5818
  376MOL0     C50668   7.013   5.636  10.027 -0.1203 -0.8546 -0.2753
  376MOL0     C50669   6.912   5.723   9.954  0.8214 -0.9322 -0.9854
  376MOL0    Cl50670   6.951   5.887   9.913 -0.0230 -0.2760 -0.3283
  376MOL0     C50671   7.353   5.174  10.813 -0.1518  0.0744 -1.1186
  376MOL0     C50672   7.416   5.083  10.895  0.3784  0.1115 -0.0702
  376MOL0     O50673   7.444   4.793  11.022 -0.0577 -0.2814 -0.0718
  376MOL0     C50674   7.735   4.927  11.180  0.3919  1.1720 -1.0351
  376MOL0     C50675   7.812   4.907  11.295 -0.3447 -0.0586  0.2827
  376MOL0     N50676   8.501   4.601  11.581 -0.3158  0.3631  0.5356
  376MOL0     N50677   8.581   4.508  11.524 -0.5013  0.6020 -0.2716
  376MOL0     C50678   7.963   4.120  11.321  0.3292 -0.3166  1.0242
  376MOL0     C50679   7.947   4.246  11.262  0.4127  0.2295 -0.3505
  376MOL0     C50680   7.924   4.552  10.933  0.4139  0.7955 -0.1065
  376MOL0     C50681   7.887   4.562  10.806 -0.1692 -0.2342  0.3856
  376MOL0     C50682   7.876   4.681  10.748  0.4173 -0.4234 -0.2344
  376MOL0     C50683   7.902   4.797  10.821  1.2635 -0.2715  0.1158
  376MOL0     O50684   7.870   4.917  10.758  0.3791  0.8472  0.4488
  376MOL0     C50685   7.877   5.039  10.817  0.6932  0.8157 -0.1623
  376MOL0     C50686   8.005   5.112  10.787 -0.1307 -0.0148  0.2929
  376MOL0     C50687   8.021   5.253  10.852  0.7114  0.9861 -0.3021
  376MOL0     C50688   7.967   5.362  10.759  0.7404  0.0322  0.2971
  376MOL0     C50689   8.055   5.388  10.648  0.1861 -0.3588 -0.0314
  376MOL0     C50690   8.126   5.408  10.553 -0.9607 -0.2416  1.4505
  376MOL0     C50691   7.945   4.788  10.951  0.9192 -0.2657  0.2455
  376MOL0     C50692   7.961   4.664  11.000  0.0569  0.4464  0.4778
  376MOL0     H50693   8.261   4.273  11.114 -0.7682  0.4268  1.0499
  376MOL0     H50694   8.286   4.067  11.235 -0.7384 -0.8859  1.3587
  376MOL0     H50695   7.938   3.908  11.464  0.1238 -0.6060 -3.7724
  376MOL0     H50696   8.062   3.796  11.490  1.3225  0.0896  1.9972
  376MOL0     H50697   8.086   4.078  11.584  0.2656 -0.1706 -3.3671
  376MOL0     H50698   7.989   3.956  11.677 -0.5356  0.1703 -0.9547
  376MOL0     H50699   8.164   3.901  11.794  0.2552  2.6060  0.0111
  376MOL0     H50700   8.239   3.827  11.655 -2.6590 -1.1838 -1.0514
  376MOL0     H50701   8.277   4.114  11.754 -0.6356  0.4308  0.7382
  376MOL0     H50702   8.379   3.976  11.787  1.5702  1.7107  0.3125
  376MOL0     H50703   8.421   3.994  11.514  2.7859  3.1296 -1.0518
  376MOL0     H50704   8.302   4.124  11.515 -1.0590 -3.3808 -1.8410
  376MOL0     H50705   8.447   4.263  11.645 -0.9963  0.3423  1.4104
  376MOL0     H50706   8.548   4.126  11.691  0.6947 -0.0195 -0.3935
  376MOL0     H50707   8.681   4.238  11.524 -0.4029  0.9435 -0.0147
  376MOL0     H50708   8.611   4.089  11.458 -2.3336 -0.8853 -1.1977
  376MOL0     H50709   8.441   4.256  11.328  1.2673  1.3495 -4.0681
  376MOL0     H50710   8.609   4.319  11.304  1.7295 -1.5717  1.3358
  376MOL0     H50711   8.313   4.447  11.360 -2.1779  2.2519 -0.1333
  376MOL0     H50712   8.183   4.607  11.591  0.6867 -1.3795  2.4673
  376MOL0     H50713   8.272   4.751  11.625  0.3564 -1.1174  0.0001
  376MOL0     H50714   8.156   4.675  11.346  0.4277 -0.4900 -0.2693
  376MOL0     H50715   8.283   4.793  11.361  1.0734  0.9759  2.3694
  376MOL0     H50716   8.075   4.900  11.340  0.5854 -1.0099 -0.6878
  376MOL0     H50717   8.148   4.946  11.488  1.4175  2.3936 -3.2924
  376MOL0     H50718   7.923   4.912  11.547  1.2431  0.1238  2.8547
  376MOL0     H50719   8.011   4.777  11.618 -3.9570 -1.7972 -0.1788
  376MOL0     H50720   7.776   4.574  11.318  0.8543 -0.3911 -0.1044
  376MOL0     H50721   7.496   4.550  11.175  0.1731 -1.4541 -0.5528
  376MOL0     H50722   7.603   4.545  11.026  0.5914  0.9133 -0.8915
  376MOL0     H50723   7.647   4.470  11.182 -1.8338  1.4097  2.6918
  376MOL0     H50724   7.593   4.921  10.648 -0.4157 -0.5737 -2.1994
  376MOL0     H50725   7.460   5.064  10.505 -4.1105 -1.5647  0.0498
  376MOL0     H50726   7.118   5.281  10.695  1.3440  0.9450  2.1134
  376MOL0     H50727   7.220   5.423  10.673  1.0760 -0.4849 -1.4736
  376MOL0     H50728   7.080   5.294  10.447 -2.8470 -0.7249  1.2218
  376MOL0     H50729   6.998   5.406  10.549  0.3403  0.0994 -0.0564
  376MOL0     H50730   7.269   5.481  10.416 -0.8148 -2.6931  0.6143
  376MOL0     H50731   7.155   5.585  10.508 -0.4906  0.2531 -0.4719
  376MOL0     H50732   7.083   5.451  10.241  2.2676 -0.7252  1.5229
  376MOL0     H50733   6.989   5.572  10.323 -0.4236  1.1937 -1.4096
  376MOL0     H50734   7.243   5.598  10.151  1.3472  2.1114  0.3453
  376MOL0     H50735   7.230   5.715  10.288  0.9225  0.4361  0.4377
  376MOL0     H50736   7.002   5.760  10.202  0.5753  1.6652  0.6570
  376MOL0     H50737   7.135   5.813  10.101  1.9708 -1.3923 -0.6152
  376MOL0     H50738   6.960   5.548  10.065  0.6149 -1.1008  0.1998
  376MOL0     H50739   7.087   5.596   9.957  1.0673 -0.1678  0.5440
  376MOL0     H50740   6.823   5.731  10.016  1.1502  0.4298 -0.6456
  376MOL0     H50741   6.873   5.695   9.856 -2.7616  1.0883 -0.2851
  376MOL0     H50742   7.306   5.264  10.852 -0.0332  0.9099 -2.7977
  376MOL0     H50743   7.411   5.086  11.003  2.9343 -0.9855  0.1524
  376MOL0     H50744   7.737   5.021  11.127 -0.6599  2.0934  0.4811
  376MOL0     H50745   7.859   4.994  11.340  0.6589  0.3832 -1.5466
  376MOL0     H50746   7.878   4.078  11.373  0.4873  0.3297  1.8288
  376MOL0     H50747   7.850   4.292  11.280 -0.1646 -0.7947 -0.7735
  376MOL0     H50748   7.856   4.475  10.749 -1.5309  0.5885 -0.1741
  376MOL0     H50749   7.824   4.695  10.654 -1.3575 -0.1620  0.7444
  376MOL0     H50750   7.793   5.104  10.793 -2.5613 -1.6362  3.2468
  376MOL0     H50751   7.856   5.030  10.924  2.2504  2.1986  0.3014
  376MOL0     H50752   8.007   5.123  10.678 -1.2499  0.6954  0.3286
  376MOL0     H50753   8.091   5.053  10.821  0.3350  0.6487  0.2881
  376MOL0     H50754   8.128   5.259  10.872  0.5494 -0.3840  1.2512
  376MOL0     H50755   7.954   5.263  10.938 -2.4356 -2.6436 -2.0002
  376MOL0     H50756   7.946   5.453  10.816  0.1940 -0.1365  0.3649
  376MOL0     H50757   7.870   5.328  10.722  0.8944 -0.0780 -0.0128
  376MOL0     H50758   8.185   5.415  10.464 -1.8913  0.2343  0.8521
  376MOL0     H50759   7.966   4.879  11.006 -0.2009 -0.5400  1.1632
  376MOL0     H50760   8.002   4.667  11.100  0.6717  0.7497  0.2204
  377MOL0     O50761   6.763   3.126   4.969 -0.0758 -0.0637 -0.1106
  377MOL0     C50762   6.813   3.036   4.901  0.7005 -0.5003  0.3308
  377MOL0     O50763   6.813   3.037   4.760 -0.4175  0.3228 -0.1086
  377MOL0     C50764   6.747   3.149   4.703 -0.4814  0.2799 -1.0945
  377MOL0     C50765   6.791   3.283   4.724 -0.1430 -0.4086  0.3415
  377MOL0     C50766   6.714   3.387   4.665  0.0069  0.0516  0.0396
  377MOL0     C50767   6.592   3.366   4.592  0.7800  0.1027  0.4606
  377MOL0     O50768   6.511   3.457   4.527 -1.4014  0.0641  0.1825
  377MOL0     C50769   6.575   3.586   4.498  0.4946 -0.4614 -0.5487
  377MOL0     C50770   6.469   3.662   4.407 -0.2348  0.2888  0.8084
  377MOL0     C50771   6.464   3.595   4.270 -0.3247 -0.4202 -0.8256
  377MOL0     C50772   6.361   3.482   4.269  0.1750 -0.3420 -0.2940
  377MOL0     C50773   6.387   3.398   4.142  0.3229  0.0169  0.0861
  377MOL0     C50774   6.309   3.269   4.175 -0.2520 -0.1906 -0.4687
  377MOL0     C50775   6.323   3.172   4.059 -0.5820 -0.3295  0.3828
  377MOL0     C50776   6.256   3.035   4.076  0.6666 -0.2236  0.1431
  377MOL0     N50777   6.235   2.964   3.954  0.7877  0.0974 -0.7966
  377MOL0     C50778   6.125   2.880   3.933 -0.4880 -0.6698 -0.6579
  377MOL0     C50779   6.130   2.843   3.809 -0.4242 -0.1688  0.5215
  377MOL0     C50780   6.036   2.744   3.744 -0.2092  0.7482  0.7021
  377MOL0     C50781   6.001   2.785   3.604 -0.7819 -0.0492 -0.4258
  377MOL0     C50782   5.890   2.717   3.550 -0.4599 -0.1213  0.9792
  377MOL0     C50783   5.913   2.579   3.494  0.7774 -0.1650  0.3891
  377MOL0     O50784   5.951   2.466   3.585  0.4394  0.0139 -0.1448
  377MOL0     C50785   5.962   2.334   3.538  0.5926  0.1418 -0.3928
  377MOL0     C50786   5.965   2.303   3.399  1.1168 -0.5889  0.1811
  377MOL0     C50787   5.964   2.171   3.348  0.4779  0.1091  0.2028
  377MOL0     C50788   5.968   2.135   3.201  0.3957 -0.2523 -0.1333
  377MOL0     C50789   5.962   2.069   3.444  0.3700 -0.0964 -1.3692
  377MOL0     C50790   5.974   1.927   3.419 -0.2595  0.6921 -0.3897
  377MOL0     O50791   6.079   1.879   3.360 -0.2426 -0.3856  0.6191
  377MOL0     C50792   6.079   1.752   3.317  0.6442  0.5122 -0.5960
  377MOL0     C50793   6.113   1.654   3.412  0.3323 -0.4038 -0.7587
  377MOL0     C50794   6.116   1.513   3.380 -0.3626 -0.0101 -0.4196
  377MOL0     C50795   6.097   1.488   3.242 -0.4793 -0.3993 -0.6397
  377MOL0     O50796   6.111   1.367   3.180  0.2420 -0.1331  0.3575
  377MOL0     C50797   6.197   1.268   3.232  0.0386  0.8993  0.8107
  377MOL0     C50798   6.149   1.131   3.165 -0.4718  0.6668  0.8698
  377MOL0     C50799   6.230   0.999   3.183  0.0635  0.4578  0.2993
  377MOL0     C50800   6.164   0.884   3.098  0.6285  0.7596  0.6906
  377MOL0     C50801   6.262   0.767   3.079 -0.5909  0.1422  0.0032
  377MOL0     C50802   6.198   0.631   3.021  0.1025  0.2702  0.9144
  377MOL0     C50803   6.159   0.644   2.870  0.6150 -0.0281  0.7143
  377MOL0     C50804   6.004   0.677   2.861  1.3528  0.8112 -0.2814
  377MOL0    Cl50805   5.934   0.520   2.905 -0.0528 -0.4421  0.4310
  377MOL0     C50806   6.036   1.585   3.162 -0.4202 -0.4647  0.0421
  377MOL0     C50807   6.029   1.713   3.198  0.2153 -0.0521  0.3677
  377MOL0     O50808   5.880   1.864   3.463  0.4469 -0.1992  0.5654
  377MOL0     C50809   5.964   2.099   3.580  0.7191 -0.0939  0.3611
  377MOL0     C50810   5.952   2.226   3.628 -0.4224 -0.2285 -0.5951
  377MOL0     N50811   6.237   2.912   3.748 -0.3994  0.9673 -0.1552
  377MOL0     N50812   6.303   2.978   3.838 -0.2591  0.4286 -1.1373
  377MOL0     C50813   6.556   3.230   4.591  0.4219  0.6779  0.0868
  377MOL0     C50814   6.631   3.119   4.643  0.8168  0.0318 -0.2514
  377MOL0     C50815   6.878   2.919   4.969  0.2776 -2.0498 -0.3725
  377MOL0     C50816   6.877   2.907   5.111  0.7992  0.7482 -0.2504
  377MOL0     C50817   6.918   2.793   5.173 -0.3273 -0.2062  1.0483
  377MOL0     C50818   6.984   2.695   5.094  0.7232 -0.7652 -0.1030
  377MOL0     O50819   7.029   2.584   5.155 -0.4688 -0.6982  0.4531
  377MOL0     C50820   6.932   2.480   5.157  0.4392  0.6511 -0.3870
  377MOL0     C50821   6.981   2.371   5.252 -0.1730 -0.1684 -0.8810
  377MOL0     C50822   6.975   2.411   5.400  0.6181  0.3678 -0.6884
  377MOL0     C50823   6.948   2.282   5.488 -0.2838  0.0899 -0.7353
  377MOL0     C50824   7.050   2.174   5.482 -0.8196  1.2858 -0.1427
  377MOL0     C50825   7.115   2.078   5.445 -0.1828  0.7172 -0.0895
  377MOL0     C50826   6.982   2.698   4.954 -0.9964 -0.8426  1.0822
  377MOL0     C50827   6.930   2.814   4.890 -0.8193 -0.0774  0.1615
  377MOL0     H50828   6.888   3.312   4.762  0.2352 -0.2152 -0.7269
  377MOL0     H50829   6.748   3.489   4.680 -0.8962  0.1948  1.1883
  377MOL0     H50830   6.591   3.638   4.593  0.9501 -2.9625  0.8342
  377MOL0     H50831   6.669   3.585   4.442  1.7186 -0.9056  1.4131
  377MOL0     H50832   6.368   3.673   4.445 -0.3868  3.4099 -0.2671
  377MOL0     H50833   6.504   3.764   4.387  0.2743  0.1675  1.0631
  377MOL0     H50834   6.433   3.664   4.192 -2.5237 -0.1111  0.2430
  377MOL0     H50835   6.559   3.548   4.243 -0.6373 -0.8134 -1.2771
  377MOL0     H50836   6.341   3.435   4.366 -1.3697 -1.0212 -0.9128
  377MOL0     H50837   6.267   3.534   4.246  0.2828  0.5640  1.1847
  377MOL0     H50838   6.339   3.441   4.054  1.2638 -0.5002 -0.6913
  377MOL0     H50839   6.490   3.373   4.116 -0.8985 -3.0448 -2.5228
  377MOL0     H50840   6.333   3.232   4.275  0.2680  4.0462  1.1880
  377MOL0     H50841   6.204   3.302   4.176 -0.4660 -0.7943 -1.3972
  377MOL0     H50842   6.270   3.219   3.976  4.0275 -0.9745 -3.2942
  377MOL0     H50843   6.424   3.165   4.018 -0.2946  0.3068  0.9613
  377MOL0     H50844   6.155   3.062   4.108  0.0950 -2.5553  0.5482
  377MOL0     H50845   6.313   2.967   4.140 -2.2395 -2.3247  0.7344
  377MOL0     H50846   6.055   2.852   4.011 -0.0139  1.9157  0.8240
  377MOL0     H50847   6.092   2.650   3.743  2.1456  2.0753  1.7815
  377MOL0     H50848   5.942   2.741   3.800 -0.9447  2.6286 -0.3616
  377MOL0     H50849   6.087   2.777   3.537 -0.0169  3.3883 -0.0092
  377MOL0     H50850   5.982   2.892   3.601 -0.9793 -0.1050 -3.2223
  377MOL0     H50851   5.851   2.767   3.460  0.6882 -0.2411  0.4013
  377MOL0     H50852   5.802   2.702   3.613 -0.3172  0.2304  1.2652
  377MOL0     H50853   5.983   2.597   3.412 -3.3377  0.9339 -3.2784
  377MOL0     H50854   5.825   2.548   3.438 -0.3988 -2.2384  3.1673
  377MOL0     H50855   5.962   2.380   3.323 -3.7081  2.4151  2.8861
  377MOL0     H50856   5.931   2.214   3.135  0.9496 -0.9742 -1.3521
  377MOL0     H50857   6.070   2.110   3.171  0.1787  0.1393 -1.2558
  377MOL0     H50858   5.900   2.049   3.197 -0.4345  0.2515  1.8028
  377MOL0     H50859   6.124   1.677   3.518 -0.2569 -2.4694 -0.1969
  377MOL0     H50860   6.140   1.436   3.453 -1.4442  3.0970  3.5345
  377MOL0     H50861   6.301   1.282   3.202  1.2228 -1.1655  3.5086
  377MOL0     H50862   6.193   1.255   3.340 -0.2282 -3.7106  0.4245
  377MOL0     H50863   6.045   1.102   3.182 -1.6813  2.0982 -2.9806
  377MOL0     H50864   6.149   1.150   3.057  4.2387 -1.3818  0.2594
  377MOL0     H50865   6.248   0.995   3.290  2.0384  1.3416  0.0423
  377MOL0     H50866   6.324   1.030   3.135  1.0735  0.3247  2.1169
  377MOL0     H50867   6.082   0.839   3.155  3.0761 -4.3392  0.6573
  377MOL0     H50868   6.124   0.907   2.999 -3.0082 -0.5068  1.7005
  377MOL0     H50869   6.304   0.745   3.178 -3.2888  2.0269  1.7158
  377MOL0     H50870   6.340   0.802   3.011 -2.1923 -1.1772 -2.6666
  377MOL0     H50871   6.277   0.556   3.027 -0.3097 -0.3821 -0.9934
  377MOL0     H50872   6.105   0.609   3.075 -2.0554  0.2144 -2.4657
  377MOL0     H50873   6.195   0.553   2.822  0.2471 -0.7216  1.7208
  377MOL0     H50874   6.213   0.731   2.832  0.0999 -0.2261 -0.5168
  377MOL0     H50875   5.979   0.715   2.762 -2.4880  0.9670  0.5979
  377MOL0     H50876   5.965   0.740   2.941 -2.3982 -2.7046  1.0319
  377MOL0     H50877   5.993   1.561   3.065 -0.7861  0.3274  0.0011
  377MOL0     H50878   5.998   1.796   3.136 -0.2930 -0.3917  0.1542
  377MOL0     H50879   5.968   2.012   3.645 -0.6736 -0.9144 -0.5933
  377MOL0     H50880   5.943   2.261   3.730  0.5559  2.1476 -1.2505
  377MOL0     H50881   6.457   3.208   4.552 -0.9209  2.2321  2.3642
  377MOL0     H50882   6.590   3.019   4.639  0.5917  0.0040  1.7328
  377MOL0     H50883   6.837   2.988   5.171 -1.9933 -1.2237  0.7408
  377MOL0     H50884   6.921   2.781   5.280  1.2957 -0.9708  0.9558
  377MOL0     H50885   6.830   2.506   5.186 -0.3507  0.5625 -2.8640
  377MOL0     H50886   6.913   2.439   5.057 -3.3471  3.0991 -0.8690
  377MOL0     H50887   7.088   2.352   5.234  0.1602 -1.9383  2.3931
  377MOL0     H50888   6.916   2.287   5.229  0.7695 -0.4828 -2.6302
  377MOL0     H50889   6.899   2.488   5.412 -0.0357  0.1011 -2.8078
  377MOL0     H50890   7.069   2.460   5.426  0.0063 -0.9421  5.8903
  377MOL0     H50891   6.853   2.230   5.467 -0.0678 -0.7866  0.3715
  377MOL0     H50892   6.947   2.302   5.595  4.3156 -1.0105 -0.2749
  377MOL0     H50893   7.154   1.993   5.394 -0.1026 -0.0810  1.2676
  377MOL0     H50894   7.034   2.619   4.901  1.6995  0.8813  0.9645
  377MOL0     H50895   6.914   2.829   4.784  1.7707  0.0448 -0.2874
  378MOL0     O50896  11.103   1.824   7.921 -0.1879  0.2192 -0.2428
  378MOL0     C50897  11.050   1.769   7.829 -0.1125  0.2370  0.1699
  378MOL0     O50898  11.097   1.658   7.774  0.3529 -0.9314 -0.7939
  378MOL0     C50899  11.215   1.597   7.813 -0.4530 -0.7339 -0.7172
  378MOL0     C50900  11.216   1.465   7.859  0.3053 -0.6038  0.9178
  378MOL0     C50901  11.331   1.403   7.897  0.8120  0.6663 -1.0111
  378MOL0     C50902  11.448   1.463   7.869 -0.6842 -0.0176  0.5333
  378MOL0     O50903  11.574   1.406   7.884 -0.7666 -0.2624 -0.0945
  378MOL0     C50904  11.596   1.276   7.944 -0.1410  1.5197 -0.1906
  378MOL0     C50905  11.708   1.201   7.867  0.0715 -0.4120  0.4503
  378MOL0     C50906  11.645   1.116   7.752  0.0896 -0.1546 -0.1761
  378MOL0     C50907  11.751   1.093   7.645  0.5419  0.0525  0.3851
  378MOL0     C50908  11.689   1.049   7.508  0.2660 -0.4867 -1.1885
  378MOL0     C50909  11.596   0.924   7.524 -0.5180  0.4654  0.0093
  378MOL0     C50910  11.542   0.893   7.386  1.3458 -0.0514  0.2019
  378MOL0     C50911  11.445   0.771   7.392  0.2112  0.2313 -0.2490
  378MOL0     N50912  11.414   0.722   7.260  0.0535  0.6827 -0.6198
  378MOL0     C50913  11.375   0.810   7.162 -0.5560  0.7820 -0.5993
  378MOL0     C50914  11.335   0.734   7.058  0.7503 -0.5454 -0.1434
  378MOL0     C50915  11.289   0.795   6.933  0.9437  0.2197  0.7157
  378MOL0     C50916  11.133   0.800   6.925 -0.6962 -0.3138  1.0834
  378MOL0     C50917  11.057   0.675   6.972 -0.0674 -0.3897 -0.0563
  378MOL0     C50918  10.901   0.677   6.960  0.6767 -1.4963 -0.0066
  378MOL0     O50919  10.857   0.538   6.983  0.2682 -0.5303  0.4889
  378MOL0     C50920  10.738   0.494   6.931 -0.2259 -0.5284  0.2576
  378MOL0     C50921  10.646   0.581   6.869 -0.3553 -0.3858 -0.3698
  378MOL0     C50922  10.519   0.536   6.827 -1.0902  0.7142  0.1750
  378MOL0     C50923  10.425   0.636   6.786 -0.5106 -0.3643  0.3822
  378MOL0     C50924  10.500   0.395   6.834 -0.8064 -0.7124  1.2149
  378MOL0     C50925  10.360   0.337   6.828  0.3385 -0.4974  0.8561
  378MOL0     O50926  10.262   0.401   6.915  0.5119 -0.0574  0.1416
  378MOL0     C50927  10.132   0.369   6.895  0.1242  0.4629 -0.2579
  378MOL0     C50928  10.049   0.486   6.883 -0.2710  0.5945  1.2349
  378MOL0     C50929   9.911   0.478   6.904  0.1513 -0.3759  0.1254
  378MOL0     C50930   9.857   0.352   6.923  0.3163  0.1564 -0.5727
  378MOL0     O50931   9.726   0.316   6.930 -1.1513 -0.0218  0.6435
  378MOL0     C50932   9.637   0.367   7.039  0.8505  0.1194  1.0949
  378MOL0     C50933   9.582   0.245   7.109  0.0297 -0.1600  0.0769
  378MOL0     C50934   9.514   0.161   7.007 -0.0163  0.2676 -0.0362
  378MOL0     C50935   9.425   0.052   7.073 -0.2867  0.1319 -0.2224
  378MOL0     C50936   9.368  -0.042   6.963  0.3590 -1.5220 -0.3803
  378MOL0     C50937   9.331  -0.178   7.010 -0.1614  0.1028 -0.3604
  378MOL0     C50938   9.294  -0.268   6.886  0.3255 -0.3682  0.0326
  378MOL0     C50939   9.150  -0.248   6.836 -0.8697 -0.3493  0.2118
  378MOL0    Cl50940   9.123  -0.310   6.666  0.1198  0.0114 -0.4191
  378MOL0     C50941   9.932   0.238   6.932 -0.1599 -0.0329 -0.7879
  378MOL0     C50942  10.069   0.248   6.922 -0.3776  0.3903 -0.8754
  378MOL0     O50943  10.340   0.238   6.755  0.0120  0.6923 -0.2248
  378MOL0     C50944  10.593   0.310   6.885  0.1870  0.3473 -0.8771
  378MOL0     C50945  10.709   0.358   6.942 -0.8343 -0.2682 -0.0951
  378MOL0     N50946  11.349   0.601   7.091 -0.9390 -0.5301 -0.7851
  378MOL0     N50947  11.393   0.597   7.217  0.1505  0.0250 -0.4211
  378MOL0     C50948  11.450   1.602   7.834  0.4582 -0.1747  0.1800
  378MOL0     C50949  11.337   1.670   7.801  0.2872  0.5012 -0.4249
  378MOL0     C50950  10.932   1.833   7.771  1.1794  0.4799 -0.1890
  378MOL0     C50951  10.907   1.832   7.640 -0.1114 -0.3596 -0.4706
  378MOL0     C50952  10.793   1.893   7.586  1.1662 -0.6040 -1.2157
  378MOL0     C50953  10.698   1.945   7.674  0.2991  0.3404  0.0696
  378MOL0     O50954  10.576   1.997   7.626  0.4851 -0.5827  0.2740
  378MOL0     C50955  10.506   1.909   7.532  0.1903 -0.1609  0.0006
  378MOL0     C50956  10.373   1.956   7.493 -0.4939 -0.1075 -0.6094
  378MOL0     C50957  10.367   2.116   7.488  0.0735  0.3546  0.1378
  378MOL0     C50958  10.231   2.148   7.406 -0.5477  0.2414 -0.4914
  378MOL0     C50959  10.196   2.281   7.433  0.1901 -0.6224 -1.0363
  378MOL0     C50960  10.173   2.397   7.466  0.0344 -0.1066  0.5941
  378MOL0     C50961  10.722   1.956   7.808 -0.0812 -0.7579 -0.0742
  378MOL0     C50962  10.845   1.909   7.855 -0.1775  1.3340  0.7020
  378MOL0     H50963  11.115   1.426   7.871 -0.2423  1.1859  2.5908
  378MOL0     H50964  11.325   1.306   7.945  3.8908  1.2404  0.7701
  378MOL0     H50965  11.613   1.298   8.050  1.6712 -1.0587  0.1158
  378MOL0     H50966  11.509   1.209   7.949 -1.1563  2.7512 -0.5789
  378MOL0     H50967  11.781   1.271   7.825  0.1362 -2.5305 -3.4282
  378MOL0     H50968  11.765   1.125   7.921  2.5702 -0.6829 -2.2909
  378MOL0     H50969  11.614   1.018   7.791 -0.2226 -1.0132 -2.4484
  378MOL0     H50970  11.558   1.168   7.710 -0.3484 -0.2250  0.6023
  378MOL0     H50971  11.804   1.187   7.629  0.2899  0.5146  2.0659
  378MOL0     H50972  11.820   1.015   7.680  2.0835  1.6121  0.9719
  378MOL0     H50973  11.639   1.128   7.451 -0.1145 -0.1188 -0.3736
  378MOL0     H50974  11.775   1.032   7.444  0.5206  1.2261 -1.3507
  378MOL0     H50975  11.647   0.832   7.553  1.1683  1.3637 -0.0086
  378MOL0     H50976  11.520   0.946   7.599  0.0559 -0.6588  0.9646
  378MOL0     H50977  11.472   0.973   7.362 -2.4195 -2.8677  0.8500
  378MOL0     H50978  11.626   0.885   7.316  0.8659  2.1424 -0.7099
  378MOL0     H50979  11.352   0.786   7.447  0.8203 -1.0605  1.2190
  378MOL0     H50980  11.491   0.688   7.446  1.8995  1.2118 -0.0970
  378MOL0     H50981  11.380   0.918   7.171  0.6598  0.5552  2.5758
  378MOL0     H50982  11.336   0.894   6.924  0.6222  0.1981 -1.6358
  378MOL0     H50983  11.339   0.738   6.854  1.4187 -0.4836  1.5002
  378MOL0     H50984  11.110   0.819   6.820  0.1948  1.1130  1.1158
  378MOL0     H50985  11.105   0.888   6.984 -1.2588  0.2987 -0.0715
  378MOL0     H50986  11.080   0.650   7.076 -0.5107 -1.7625 -0.2804
  378MOL0     H50987  11.095   0.595   6.908 -2.6878 -0.6644 -1.3963
  378MOL0     H50988  10.870   0.718   6.864 -1.9702 -1.5565  0.7414
  378MOL0     H50989  10.859   0.747   7.033  0.8411 -1.1357 -0.2597
  378MOL0     H50990  10.667   0.687   6.880  2.6536 -0.9994  1.0328
  378MOL0     H50991  10.479   0.703   6.719 -1.9107 -0.6626 -1.1136
  378MOL0     H50992  10.331   0.598   6.743 -1.2492 -0.7464  2.2532
  378MOL0     H50993  10.399   0.688   6.878 -0.0679  2.8858 -1.1793
  378MOL0     H50994  10.098   0.581   6.868 -0.0732  1.1720  4.6754
  378MOL0     H50995   9.848   0.561   6.875  0.0068 -1.0850 -1.7337
  378MOL0     H50996   9.685   0.430   7.114 -1.5351  2.5983  0.7133
  378MOL0     H50997   9.546   0.413   6.999  1.9701  1.9435  0.4857
  378MOL0     H50998   9.666   0.197   7.161 -0.8400 -2.3286 -0.4282
  378MOL0     H50999   9.516   0.279   7.189  0.3891 -1.5526  1.0041
  378MOL0     H51000   9.578   0.116   6.931  1.8605 -0.8261  2.0733
  378MOL0     H51001   9.436   0.227   6.966 -0.1152  0.8414  1.0464
  378MOL0     H51002   9.491  -0.006   7.137 -1.3650 -0.4914  0.3527
  378MOL0     H51003   9.345   0.094   7.134 -0.4013 -0.7532  0.2509
  378MOL0     H51004   9.432  -0.040   6.874  1.1892 -2.4447  0.1701
  378MOL0     H51005   9.277   0.015   6.944  0.9956  0.2608  1.6629
  378MOL0     H51006   9.418  -0.225   7.058  0.8409  0.4139 -1.8054
  378MOL0     H51007   9.244  -0.183   7.076  1.8599  1.4303  2.6784
  378MOL0     H51008   9.310  -0.376   6.898  2.2604  0.1313  2.8895
  378MOL0     H51009   9.369  -0.239   6.812 -0.2910  3.1621  0.6563
  378MOL0     H51010   9.123  -0.142   6.832 -3.7123 -1.0232 -2.0857
  378MOL0     H51011   9.083  -0.297   6.907 -2.8260 -1.3717 -2.1650
  378MOL0     H51012   9.891   0.142   6.962  1.0919 -0.1101  0.8605
  378MOL0     H51013  10.127   0.169   6.968  0.9338  2.3300  1.0607
  378MOL0     H51014  10.563   0.206   6.896 -0.3270  0.4780 -1.0374
  378MOL0     H51015  10.784   0.306   7.000 -2.8895 -1.2004  1.9127
  378MOL0     H51016  11.536   1.664   7.812 -1.7309  3.0251 -0.0458
  378MOL0     H51017  11.345   1.776   7.779  0.7605  0.7781  0.9314
  378MOL0     H51018  10.992   1.790   7.588  0.7480  1.6187 -0.7490
  378MOL0     H51019  10.767   1.876   7.483 -0.0384 -4.9475 -0.3880
  378MOL0     H51020  10.567   1.904   7.441  1.1418 -0.8556  0.6593
  378MOL0     H51021  10.503   1.809   7.577  1.4232  0.9051  2.6869
  378MOL0     H51022  10.303   1.917   7.567  1.2520 -2.4285 -0.0677
  378MOL0     H51023  10.348   1.902   7.401  0.2083 -0.8252 -0.3886
  378MOL0     H51024  10.442   2.168   7.428 -1.0282 -0.7489 -2.3920
  378MOL0     H51025  10.367   2.163   7.586 -1.1458 -1.6993  1.1962
  378MOL0     H51026  10.153   2.075   7.429  0.5159 -1.7577 -2.8790
  378MOL0     H51027  10.247   2.121   7.302  0.0038 -1.5514  0.0180
  378MOL0     H51028  10.162   2.502   7.486 -0.7251 -0.1657  0.5278
  378MOL0     H51029  10.653   2.009   7.872 -0.2003 -1.0024  0.0008
  378MOL0     H51030  10.873   1.922   7.959  1.0354  0.0619  0.5660
  379MOL0     O51031  10.837   5.182  11.045 -1.0424  0.0840 -0.2648
  379MOL0     C51032  10.812   5.304  11.057  0.3820  0.3340  0.3316
  379MOL0     O51033  10.855   5.396  10.974 -1.0140  0.0741  0.2980
  379MOL0     C51034  10.939   5.367  10.871 -0.9264 -0.3700  0.0032
  379MOL0     C51035  10.906   5.293  10.756 -0.4250 -0.7025  0.3840
  379MOL0     C51036  11.000   5.288  10.659 -0.4501  0.1858 -0.6748
  379MOL0     C51037  11.133   5.339  10.665  0.0337  0.9834  1.0973
  379MOL0     O51038  11.202   5.312  10.550  0.0557 -0.6690 -0.7662
  379MOL0     C51039  11.347   5.315  10.564 -0.1020 -0.5143 -0.6398
  379MOL0     C51040  11.419   5.230  10.464  0.6523 -0.0097  0.5364
  379MOL0     C51041  11.404   5.248  10.326 -0.2393 -0.5918  0.2527
  379MOL0     C51042  11.440   5.129  10.238 -0.8091 -0.3406 -0.5032
  379MOL0     C51043  11.463   5.181  10.099 -0.5317 -0.7761  0.3081
  379MOL0     C51044  11.531   5.071  10.020  0.3823 -0.0857 -0.5283
  379MOL0     C51045  11.556   5.126   9.878  0.2656  0.3849 -0.6587
  379MOL0     C51046  11.598   5.013   9.786  0.1944  0.4954  0.5390
  379MOL0     N51047  11.632   5.065   9.651 -0.0013 -0.0407  0.1228
  379MOL0     C51048  11.745   5.039   9.578 -0.9467 -0.3778 -0.4018
  379MOL0     C51049  11.729   5.098   9.458  0.1508  0.4592  0.1845
  379MOL0     C51050  11.826   5.092   9.348 -0.2575  0.8501  1.0029
  379MOL0     C51051  11.795   4.997   9.230  0.0362  0.1622  0.2696
  379MOL0     C51052  11.890   5.040   9.115  0.0721 -0.2466 -0.2168
  379MOL0     C51053  11.872   4.948   8.992 -0.0308 -0.4531 -0.1576
  379MOL0     O51054  12.006   4.952   8.931  0.0625 -0.4139 -0.7176
  379MOL0     C51055  12.024   4.903   8.801  0.1227  0.0498 -0.0053
  379MOL0     C51056  11.921   4.844   8.718 -0.0925 -0.2626 -0.6642
  379MOL0     C51057  11.950   4.794   8.590 -0.4768 -1.1331 -0.6733
  379MOL0     C51058  11.837   4.766   8.502  0.0311 -0.4531  0.0287
  379MOL0     C51059  12.083   4.790   8.548 -0.4616  0.1237 -0.2074
  379MOL0     C51060  12.126   4.726   8.424 -0.9247 -0.9594  0.9920
  379MOL0     O51061  12.254   4.754   8.371  0.2457 -0.5728  0.7129
  379MOL0     C51062  12.285   4.690   8.248  0.7962 -0.6707 -1.0780
  379MOL0     C51063  12.395   4.602   8.244  0.2048  0.5460 -0.3745
  379MOL0     C51064  12.444   4.549   8.129 -0.0522  0.9186  0.2722
  379MOL0     C51065  12.382   4.576   8.007 -0.4210  0.4811  0.2560
  379MOL0     O51066  12.451   4.535   7.897  0.2092 -1.2084  0.4604
  379MOL0     C51067  12.360   4.455   7.809  0.2876  0.5942  0.0188
  379MOL0     C51068  12.449   4.412   7.685  0.4089 -0.2789  0.1401
  379MOL0     C51069  12.379   4.296   7.610 -0.6595 -0.6352 -0.4088
  379MOL0     C51070  12.469   4.265   7.496  0.6540 -0.1515 -0.2337
  379MOL0     C51071  12.393   4.157   7.409 -0.8839 -1.0364  0.0084
  379MOL0     C51072  12.486   4.113   7.294  0.6297 -0.9008 -0.5536
  379MOL0     C51073  12.396   4.009   7.224 -0.9589 -0.0170  0.7914
  379MOL0     C51074  12.464   3.959   7.088  0.8794  0.3648  0.0250
  379MOL0    Cl51075  12.616   3.889   7.125 -0.0753 -0.2368 -0.1891
  379MOL0     C51076  12.275   4.666   8.006 -1.3900 -0.2238  0.8793
  379MOL0     C51077  12.230   4.726   8.126  0.0339 -0.6387 -0.8851
  379MOL0     O51078  12.047   4.642   8.371 -0.1843  1.2511 -0.4243
  379MOL0     C51079  12.183   4.854   8.621  0.0495  0.4363  0.0283
  379MOL0     C51080  12.154   4.907   8.744 -0.7479 -0.3998  0.3324
  379MOL0     N51081  11.599   5.155   9.451 -0.0303  0.6425 -0.1468
  379MOL0     N51082  11.556   5.147   9.567  0.0898 -0.0793 -0.6371
  379MOL0     C51083  11.163   5.406  10.789  0.5012 -0.1031 -0.2450
  379MOL0     C51084  11.067   5.423  10.886 -0.8862  0.6258 -0.0168
  379MOL0     C51085  10.739   5.346  11.189 -0.7528  1.4369  0.6732
  379MOL0     C51086  10.694   5.253  11.292  0.7455 -0.1247 -0.1137
  379MOL0     C51087  10.656   5.303  11.419  0.0996 -0.0668 -0.3204
  379MOL0     C51088  10.646   5.443  11.446  0.3908  0.3387  0.7961
  379MOL0     O51089  10.584   5.476  11.561 -0.0428  0.2048 -0.2930
  379MOL0     C51090  10.438   5.465  11.551  0.4386  0.3155  0.2660
  379MOL0     C51091  10.374   5.471  11.686 -0.1628  0.2219 -0.0246
  379MOL0     C51092  10.405   5.605  11.762 -0.0739  0.3368 -0.4448
  379MOL0     C51093  10.364   5.593  11.912  0.4125 -0.1351 -0.3453
  379MOL0     C51094  10.385   5.718  11.983  0.7091 -0.3994  0.1458
  379MOL0     C51095  10.398   5.832  12.031 -0.2723 -1.0084 -0.7014
  379MOL0     C51096  10.687   5.541  11.347  0.3035  1.4193 -0.2754
  379MOL0     C51097  10.733   5.487  11.218 -0.3086  0.2883  0.1286
  379MOL0     H51098  10.813   5.238  10.744 -1.1961  0.3835  1.1976
  379MOL0     H51099  10.975   5.228  10.571 -0.4360  2.0467 -2.0029
  379MOL0     H51100  11.370   5.422  10.558 -0.3863 -0.3423  1.0086
  379MOL0     H51101  11.371   5.275  10.662  1.3793  1.3886 -0.1718
  379MOL0     H51102  11.525   5.234  10.491  1.1330  0.6955 -1.3321
  379MOL0     H51103  11.381   5.130  10.486 -2.1336  0.4152 -1.7485
  379MOL0     H51104  11.296   5.261  10.313  0.1678  2.9281 -0.4183
  379MOL0     H51105  11.455   5.341  10.300  0.8719 -0.7934  1.6230
  379MOL0     H51106  11.538   5.088  10.262 -1.4648 -0.8037  1.5934
  379MOL0     H51107  11.379   5.039  10.240 -0.3229 -0.6761 -0.5734
  379MOL0     H51108  11.364   5.209  10.060  0.2713  0.3155 -1.0162
  379MOL0     H51109  11.511   5.278  10.091  0.5988 -1.3274  0.3158
  379MOL0     H51110  11.622   5.046  10.073  0.7312  1.2799 -0.4373
  379MOL0     H51111  11.455   4.992  10.021 -1.4573  1.5963 -0.0610
  379MOL0     H51112  11.470   5.176   9.833  1.1567  0.6568 -2.1225
  379MOL0     H51113  11.635   5.202   9.877  0.8120 -0.1691 -0.6488
  379MOL0     H51114  11.527   4.931   9.773  1.0709 -0.2473  0.3698
  379MOL0     H51115  11.691   4.983   9.834 -0.1054  0.7237  1.2922
  379MOL0     H51116  11.828   4.973   9.603  2.1578  2.9917 -0.8787
  379MOL0     H51117  11.840   5.194   9.313 -3.2438  2.8528  4.9038
  379MOL0     H51118  11.923   5.076   9.394  0.1832  0.3909 -0.0528
  379MOL0     H51119  11.693   5.001   9.191  0.8634 -1.3512 -2.2875
  379MOL0     H51120  11.818   4.892   9.253  0.3310  0.4450  1.3389
  379MOL0     H51121  11.995   5.026   9.142 -0.0364  0.7276  0.8145
  379MOL0     H51122  11.877   5.148   9.100  2.4617 -0.0859 -1.6964
  379MOL0     H51123  11.804   4.974   8.910  3.4440  0.5916 -3.0271
  379MOL0     H51124  11.843   4.851   9.032 -2.1975  0.7042  1.2298
  379MOL0     H51125  11.818   4.837   8.752 -0.5609  0.1318 -1.9271
  379MOL0     H51126  11.818   4.661   8.478  0.6140 -1.6888  4.2427
  379MOL0     H51127  11.746   4.802   8.552 -1.9319 -4.2110 -0.4373
  379MOL0     H51128  11.859   4.823   8.411  2.8262  0.1629  0.9987
  379MOL0     H51129  12.452   4.581   8.334 -0.3891 -1.6633 -0.4502
  379MOL0     H51130  12.536   4.492   8.135 -1.3925 -1.6663 -2.0025
  379MOL0     H51131  12.333   4.362   7.860  1.4396 -0.1625 -0.6975
  379MOL0     H51132  12.275   4.510   7.767  0.9680  2.1367  0.6089
  379MOL0     H51133  12.457   4.500   7.619 -0.3568 -1.5103 -1.6812
  379MOL0     H51134  12.542   4.388   7.737  0.7544 -0.0953 -0.3798
  379MOL0     H51135  12.280   4.325   7.574  0.2303  2.5164 -0.6424
  379MOL0     H51136  12.379   4.215   7.684  0.4161  0.1628  0.4970
  379MOL0     H51137  12.499   4.350   7.433  1.3407 -1.0341 -1.1320
  379MOL0     H51138  12.558   4.223   7.543 -2.0249 -0.8974  4.8773
  379MOL0     H51139  12.310   4.209   7.361  0.8924  1.1947 -0.8004
  379MOL0     H51140  12.352   4.078   7.473  0.0032 -2.3666 -0.9967
  379MOL0     H51141  12.523   4.195   7.232  0.4905 -0.4362 -0.0294
  379MOL0     H51142  12.570   4.061   7.341  1.8852 -1.0190 -2.7924
  379MOL0     H51143  12.299   4.049   7.191 -0.3291 -0.9797 -2.6632
  379MOL0     H51144  12.375   3.924   7.289 -0.9704 -1.7876 -1.4021
  379MOL0     H51145  12.468   4.043   7.018 -1.8957  1.4316  0.9957
  379MOL0     H51146  12.400   3.876   7.056  0.0764  1.0400 -0.1554
  379MOL0     H51147  12.239   4.711   7.914 -1.9095 -0.2460  1.0710
  379MOL0     H51148  12.151   4.801   8.124 -0.7231 -1.4187 -0.9521
  379MOL0     H51149  12.287   4.863   8.590  0.2015  5.6424  1.1880
  379MOL0     H51150  12.232   4.956   8.802 -1.0746  0.5579 -0.0223
  379MOL0     H51151  11.257   5.454  10.812  0.2504 -1.6010  5.3072
  379MOL0     H51152  11.092   5.476  10.978 -3.1130 -0.6504  1.4350
  379MOL0     H51153  10.695   5.148  11.262 -1.6546 -0.2110 -0.0850
  379MOL0     H51154  10.627   5.224  11.488  0.7895 -1.9712 -2.0979
  379MOL0     H51155  10.392   5.528  11.474  3.1958  1.4941 -0.5573
  379MOL0     H51156  10.412   5.364  11.518 -0.3130  0.7187 -0.4204
  379MOL0     H51157  10.394   5.393  11.759 -0.0971  0.9307  0.7339
  379MOL0     H51158  10.264   5.473  11.682 -0.4505  0.9468  4.1107
  379MOL0     H51159  10.347   5.681  11.710  1.4532  0.0755 -2.6564
  379MOL0     H51160  10.512   5.631  11.760  0.6014 -2.0591  0.7682
  379MOL0     H51161  10.437   5.525  11.955 -0.8391 -1.1311  0.2849
  379MOL0     H51162  10.259   5.561  11.923  0.2352  0.3144 -0.7035
  379MOL0     H51163  10.413   5.926  12.079 -1.2043 -0.1747 -1.9603
  379MOL0     H51164  10.688   5.641  11.388  2.6911  2.2684 -2.1546
  379MOL0     H51165  10.775   5.556  11.146  0.2320  2.1021  2.0780
  380MOL0     O51166   2.271   6.432   1.365  0.8806  0.1017 -0.2809
  380MOL0     C51167   2.291   6.549   1.329  0.6159  0.9526  0.4836
  380MOL0     O51168   2.258   6.663   1.401  0.3411 -0.2542 -0.5598
  380MOL0     C51169   2.225   6.636   1.532  0.6025  0.4152 -1.1642
  380MOL0     C51170   2.109   6.693   1.576 -0.1396  0.1340 -0.8206
  380MOL0     C51171   2.058   6.677   1.706  0.1065  0.0851  0.6243
  380MOL0     C51172   2.136   6.607   1.802  0.2384 -0.3037  0.5972
  380MOL0     O51173   2.080   6.591   1.934  0.0029 -0.3061  0.1929
  380MOL0     C51174   2.077   6.472   2.004 -1.2620  0.8632 -0.2767
  380MOL0     C51175   2.043   6.486   2.151 -0.8381  0.6321  0.1881
  380MOL0     C51176   2.037   6.346   2.215  0.2684  0.6863  0.3315
  380MOL0     C51177   2.054   6.358   2.369  0.6445  0.1093  0.9342
  380MOL0     C51178   1.960   6.477   2.426  0.2607  0.6803  0.1312
  380MOL0     C51179   1.814   6.464   2.389  0.3066 -0.5584 -0.3358
  380MOL0     C51180   1.750   6.596   2.443 -1.1806 -0.2431  0.2497
  380MOL0     C51181   1.814   6.733   2.402  0.3581 -0.7043 -0.4298
  380MOL0     N51182   1.821   6.774   2.256 -0.4341  0.2343 -0.4514
  380MOL0     C51183   1.737   6.727   2.159 -0.7083  0.8944 -0.2558
  380MOL0     C51184   1.775   6.783   2.042  1.1766 -0.1165  0.4238
  380MOL0     C51185   1.701   6.765   1.901 -0.3183  0.2639 -0.2155
  380MOL0     C51186   1.587   6.857   1.875  0.1943  0.3230 -0.5363
  380MOL0     C51187   1.516   6.843   1.741  0.1828 -0.2977 -0.0212
  380MOL0     C51188   1.369   6.894   1.752 -0.5313 -0.3966 -0.0470
  380MOL0     O51189   1.384   7.036   1.768 -0.1068  0.1395  0.5633
  380MOL0     C51190   1.276   7.113   1.815  0.4353  0.5156 -0.2371
  380MOL0     C51191   1.161   7.057   1.876  0.1594  0.1543  0.2431
  380MOL0     C51192   1.070   7.139   1.944 -0.0143 -0.9230  0.0106
  380MOL0     C51193   0.956   7.072   2.015  0.3185  0.2745  0.3544
  380MOL0     C51194   1.085   7.282   1.941  1.0021 -0.0734  0.1518
  380MOL0     C51195   0.981   7.382   1.998  0.0341 -0.7978  0.6644
  380MOL0     O51196   1.018   7.509   1.987 -0.2231  0.4351 -0.3665
  380MOL0     C51197   0.941   7.617   2.019  1.0190  0.3916  1.2012
  380MOL0     C51198   0.916   7.645   2.153  1.1935 -0.5172 -0.5454
  380MOL0     C51199   0.830   7.755   2.182  0.9561 -0.6469 -0.0498
  380MOL0     C51200   0.784   7.844   2.082  0.0882  0.8554 -0.3707
  380MOL0     O51201   0.721   7.964   2.115  0.1883 -0.4226  0.0454
  380MOL0     C51202   0.594   7.962   2.175 -0.1495  0.0076 -0.2414
  380MOL0     C51203   0.501   7.869   2.102  0.0419  1.1894  0.4027
  380MOL0     C51204   0.354   7.895   2.130 -0.4783 -0.5777 -0.3509
  380MOL0     C51205   0.291   8.018   2.051 -0.4875 -0.8268 -0.0865
  380MOL0     C51206   0.144   8.060   2.091 -0.3334  0.3684  0.3582
  380MOL0     C51207   0.044   7.938   2.088 -0.4486  0.2616  0.2290
  380MOL0     C51208  -0.104   7.973   2.083 -0.3938  0.3912 -0.8264
  380MOL0     C51209  -0.175   7.902   2.189 -0.0087 -0.4197  0.3255
  380MOL0    Cl51210  -0.107   7.928   2.361 -0.0286 -0.8685 -0.0773
  380MOL0     C51211   0.820   7.825   1.951  0.7075  0.4644 -0.0096
  380MOL0     C51212   0.903   7.707   1.925  0.0829 -0.9259  0.5640
  380MOL0     O51213   0.878   7.341   2.050 -0.2689 -0.2873 -0.0836
  380MOL0     C51214   1.201   7.335   1.878 -0.7846  0.5194  0.8451
  380MOL0     C51215   1.293   7.245   1.822  0.4147 -1.1971  0.3823
  380MOL0     N51216   1.872   6.869   2.073  0.8869  0.6521 -0.3185
  380MOL0     N51217   1.909   6.861   2.191 -0.4209 -0.1860 -0.0220
  380MOL0     C51218   2.250   6.536   1.754  0.1636 -0.2771  0.2514
  380MOL0     C51219   2.293   6.548   1.619 -0.6461  0.4143 -0.2888
  380MOL0     C51220   2.345   6.565   1.194  0.3940 -0.3625  0.1083
  380MOL0     C51221   2.418   6.680   1.156  0.3291 -0.3674  0.2492
  380MOL0     C51222   2.457   6.695   1.025 -0.0691  0.0285  0.2651
  380MOL0     C51223   2.446   6.597   0.931 -0.1174 -0.1203  1.0285
  380MOL0     O51224   2.486   6.602   0.798 -0.4464  0.0407  0.3320
  380MOL0     C51225   2.564   6.712   0.755 -0.4869 -0.3968  0.0273
  380MOL0     C51226   2.599   6.702   0.606 -0.0395 -0.2141 -0.7481
  380MOL0     C51227   2.746   6.647   0.581 -0.2788  0.5841  0.5397
  380MOL0     C51228   2.808   6.729   0.464  0.0712 -0.2644  1.6414
  380MOL0     C51229   2.742   6.685   0.336  0.0004  0.3004  0.3021
  380MOL0     C51230   2.665   6.647   0.244  0.6598 -0.3745 -0.2738
  380MOL0     C51231   2.396   6.472   0.970 -0.3136 -1.0715  0.3862
  380MOL0     C51232   2.338   6.464   1.094  0.7525  0.1560 -0.4586
  380MOL0     H51233   2.043   6.748   1.510 -0.5637 -2.0486 -2.3543
  380MOL0     H51234   1.960   6.719   1.723 -2.3121 -3.9474 -1.6520
  380MOL0     H51235   2.000   6.410   1.956  1.1524 -2.5525 -0.1324
  380MOL0     H51236   2.174   6.421   1.999 -2.3200 -1.3966  0.6413
  380MOL0     H51237   2.114   6.552   2.202 -1.6546  1.7035 -0.0289
  380MOL0     H51238   1.948   6.539   2.159 -1.3609 -0.5083  2.3022
  380MOL0     H51239   1.937   6.311   2.187  0.6325  0.1621 -0.3380
  380MOL0     H51240   2.107   6.269   2.184 -1.5038 -0.5532 -0.8201
  380MOL0     H51241   2.018   6.266   2.416 -1.2104  0.7292  0.8284
  380MOL0     H51242   2.161   6.365   2.388  0.8460 -1.1931  0.4483
  380MOL0     H51243   1.968   6.470   2.534 -0.9055 -0.3057  0.1728
  380MOL0     H51244   2.009   6.572   2.402  1.2535  1.5717  4.7558
  380MOL0     H51245   1.790   6.456   2.282  1.7250  0.8194 -0.8077
  380MOL0     H51246   1.776   6.375   2.440 -0.4357  1.6739  3.4307
  380MOL0     H51247   1.645   6.600   2.412 -0.9229  1.9756 -0.5490
  380MOL0     H51248   1.738   6.591   2.551 -0.5622 -3.3769  0.2593
  380MOL0     H51249   1.917   6.746   2.438  0.1714  0.2565 -0.2225
  380MOL0     H51250   1.756   6.811   2.452 -0.4239 -1.8811  0.5348
  380MOL0     H51251   1.660   6.652   2.177  1.3248 -1.5286 -1.0408
  380MOL0     H51252   1.773   6.793   1.822 -0.3934  0.5024 -0.1972
  380MOL0     H51253   1.679   6.658   1.902 -0.6983  0.2760  3.3075
  380MOL0     H51254   1.617   6.962   1.879 -1.6733  0.9746 -2.2414
  380MOL0     H51255   1.518   6.841   1.958  2.4774 -3.9534  0.8127
  380MOL0     H51256   1.526   6.741   1.703  1.1544 -0.3225  0.2776
  380MOL0     H51257   1.558   6.902   1.659 -0.5696 -1.8267 -1.5699
  380MOL0     H51258   1.312   6.861   1.839 -0.5027  0.2723  0.2318
  380MOL0     H51259   1.319   6.865   1.659 -2.9916  2.0666  0.3926
  380MOL0     H51260   1.141   6.953   1.849 -1.3958  0.4531  0.1939
  380MOL0     H51261   0.969   7.084   2.123 -1.1794  1.7176  0.4105
  380MOL0     H51262   0.859   7.118   1.996 -0.2416 -1.2391 -0.7279
  380MOL0     H51263   0.951   6.970   1.974  0.1632  1.3250 -2.4389
  380MOL0     H51264   0.941   7.572   2.229 -0.1717  0.5373  0.9695
  380MOL0     H51265   0.812   7.783   2.285  1.5285  1.0241 -0.3609
  380MOL0     H51266   0.602   7.909   2.271 -3.1219 -1.4356 -0.6935
  380MOL0     H51267   0.553   8.062   2.190  0.5581  0.4435 -1.1469
  380MOL0     H51268   0.507   7.860   1.994 -3.7146 -2.3726  0.2157
  380MOL0     H51269   0.526   7.767   2.134 -2.7221  0.6461  1.1880
  380MOL0     H51270   0.348   7.918   2.237  1.3502  0.0618 -0.3501
  380MOL0     H51271   0.297   7.802   2.120 -1.8700 -0.1796  2.5718
  380MOL0     H51272   0.350   8.109   2.059  0.0996 -1.3459  2.2084
  380MOL0     H51273   0.279   7.980   1.949 -2.4270  0.1924 -0.2771
  380MOL0     H51274   0.101   8.133   2.022  1.7846  2.1649  0.8292
  380MOL0     H51275   0.146   8.109   2.188 -0.0397  1.3937 -0.1505
  380MOL0     H51276   0.055   7.884   1.993  0.0248 -2.5343  1.7802
  380MOL0     H51277   0.067   7.876   2.175 -0.2422  1.8021  1.3199
  380MOL0     H51278  -0.152   7.986   1.985 -3.9575  2.6812  1.0175
  380MOL0     H51279  -0.117   8.073   2.125  0.0249 -0.0960  0.4953
  380MOL0     H51280  -0.190   7.797   2.162  1.2348 -0.3631 -0.6857
  380MOL0     H51281  -0.274   7.950   2.189  1.5888  3.2607 -1.1464
  380MOL0     H51282   0.793   7.876   1.859  0.6876  1.1418  0.3677
  380MOL0     H51283   0.909   7.676   1.821 -1.0665 -0.0256  0.2005
  380MOL0     H51284   1.214   7.443   1.876  0.8703  0.3305  0.4587
  380MOL0     H51285   1.390   7.275   1.784 -0.6939 -0.6753 -2.2193
  380MOL0     H51286   2.306   6.479   1.827 -1.6020 -0.0748  1.8567
  380MOL0     H51287   2.378   6.488   1.590  0.2759  0.5460  1.9185
  380MOL0     H51288   2.416   6.764   1.225  1.2683 -0.7091  0.7100
  380MOL0     H51289   2.499   6.787   0.986 -3.7738  2.3020  1.1932
  380MOL0     H51290   2.509   6.806   0.764  0.4826  0.2840 -0.9761
  380MOL0     H51291   2.657   6.725   0.810  1.1389 -0.1982 -2.5761
  380MOL0     H51292   2.598   6.804   0.567 -1.7042  0.7655  1.5383
  380MOL0     H51293   2.527   6.645   0.546  3.4968 -3.7370 -2.0155
  380MOL0     H51294   2.747   6.539   0.564  1.3982  1.0544 -3.0770
  380MOL0     H51295   2.810   6.668   0.667  2.8909 -2.6475 -0.7959
  380MOL0     H51296   2.917   6.723   0.457 -0.0929 -1.1888 -2.5194
  380MOL0     H51297   2.785   6.835   0.476  3.0097  0.4892  1.3602
  380MOL0     H51298   2.599   6.624   0.163  0.0813  1.2212 -0.3053
  380MOL0     H51299   2.400   6.395   0.895  0.1926 -0.3010 -0.3939
  380MOL0     H51300   2.297   6.372   1.136  0.8089  1.2344  2.1747
  381MOL0     O51301   1.521   9.446   1.373  0.1249  0.1293 -0.5562
  381MOL0     C51302   1.523   9.494   1.258  0.5337  0.4880 -0.4569
  381MOL0     O51303   1.429   9.575   1.206 -0.6797 -0.3916 -0.3609
  381MOL0     C51304   1.375   9.658   1.301  0.5825  0.5277 -1.1423
  381MOL0     C51305   1.441   9.703   1.420  0.4401 -0.6517  0.7414
  381MOL0     C51306   1.369   9.767   1.512 -0.5894  0.1284 -1.3595
  381MOL0     C51307   1.237   9.794   1.503 -0.6331 -0.2636  0.6726
  381MOL0     O51308   1.185   9.872   1.602 -0.1583  0.1451 -0.7981
  381MOL0     C51309   1.039   9.892   1.618 -0.2711  0.0264 -0.4956
  381MOL0     C51310   0.981  10.021   1.563  0.4780  0.4703  0.4321
  381MOL0     C51311   1.050  10.143   1.628  1.6164  0.0685 -0.9043
  381MOL0     C51312   1.070  10.259   1.534 -0.5121 -0.3554  0.5772
  381MOL0     C51313   1.114  10.393   1.607  0.3678 -0.9150 -1.3704
  381MOL0     C51314   1.143  10.486   1.499  0.0622 -0.9573  1.2126
  381MOL0     C51315   1.237  10.612   1.523  0.5228 -0.1109 -0.0051
  381MOL0     C51316   1.379  10.578   1.555 -0.4181 -0.6092 -0.9543
  381MOL0     N51317   1.445  10.704   1.617 -0.0822  0.5212 -0.2359
  381MOL0     C51318   1.450  10.728   1.750 -0.2032  0.4821 -1.1550
  381MOL0     C51319   1.546  10.818   1.774 -0.0562 -0.0769 -0.3833
  381MOL0     C51320   1.594  10.865   1.910 -0.5864  0.0798 -0.1425
  381MOL0     C51321   1.488  10.957   1.967  0.2598  0.2770  1.3237
  381MOL0     C51322   1.475  11.093   1.892  0.4580 -0.4392  0.1675
  381MOL0     C51323   1.586  11.198   1.927 -0.9638  0.8739 -0.6150
  381MOL0     O51324   1.591  11.302   1.828  0.2638  1.0477 -0.0570
  381MOL0     C51325   1.656  11.290   1.699  0.4935  0.5760  0.0138
  381MOL0     C51326   1.707  11.173   1.652 -0.3825 -0.0548 -0.1491
  381MOL0     C51327   1.760  11.167   1.525  0.8344 -1.7385  0.1949
  381MOL0     C51328   1.814  11.035   1.489 -0.3681  0.3979 -0.1769
  381MOL0     C51329   1.761  11.275   1.421  0.2219 -0.5075  0.1343
  381MOL0     C51330   1.802  11.268   1.278  0.2033 -0.4888 -1.0391
  381MOL0     O51331   1.896  11.169   1.232  0.6847  0.4376 -0.9775
  381MOL0     C51332   1.954  11.183   1.108  0.7295  0.0790 -0.9040
  381MOL0     C51333   2.058  11.270   1.093  0.0252 -0.4628 -0.0703
  381MOL0     C51334   2.122  11.293   0.971 -0.3721 -0.7014 -0.4131
  381MOL0     C51335   2.075  11.223   0.860  0.2229 -0.2591 -0.3618
  381MOL0     O51336   2.124  11.245   0.729 -0.0642  0.4137 -0.3928
  381MOL0     C51337   2.117  11.385   0.685  0.0634 -0.4319 -0.6146
  381MOL0     C51338   1.980  11.398   0.623 -0.1843 -0.3176 -0.1432
  381MOL0     C51339   1.957  11.542   0.594  0.0087  0.4630 -0.1091
  381MOL0     C51340   1.824  11.562   0.516  0.6729 -0.2285  0.7133
  381MOL0     C51341   1.802  11.710   0.469  0.4293 -0.1225 -0.8569
  381MOL0     C51342   1.846  11.713   0.321 -0.8878 -0.2282 -0.3726
  381MOL0     C51343   1.726  11.695   0.214 -0.0370 -0.8013 -0.0301
  381MOL0     C51344   1.626  11.592   0.237  0.8055  0.9609 -0.7804
  381MOL0    Cl51345   1.487  11.666   0.135 -0.1242 -0.0666  0.4092
  381MOL0     C51346   1.978  11.121   0.884  0.3555  0.0862 -0.2381
  381MOL0     C51347   1.918  11.098   1.005  0.5207 -0.0783  1.2447
  381MOL0     O51348   1.762  11.366   1.213 -0.4251 -0.1840 -0.4316
  381MOL0     C51349   1.703  11.385   1.484  0.3282 -0.9706 -0.2573
  381MOL0     C51350   1.656  11.392   1.613  0.8825  0.5295 -0.4011
  381MOL0     N51351   1.597  10.856   1.650  0.6514 -0.4395 -0.2267
  381MOL0     N51352   1.543  10.782   1.565  0.4586 -0.2338  0.7684
  381MOL0     C51353   1.178   9.763   1.387  0.2596 -0.6175  0.0777
  381MOL0     C51354   1.244   9.692   1.285 -0.1677 -0.1674  0.1567
  381MOL0     C51355   1.644   9.480   1.176 -0.1549  0.4815  0.3644
  381MOL0     C51356   1.679   9.579   1.083 -0.3306  0.5286  0.1930
  381MOL0     C51357   1.786   9.541   1.005 -0.3815 -0.3799  0.0372
  381MOL0     C51358   1.868   9.427   1.012 -0.2013  0.0991 -0.2379
  381MOL0     O51359   1.968   9.403   0.928 -0.8406 -0.4270 -0.5103
  381MOL0     C51360   2.037   9.510   0.855 -0.2957  0.2464  0.5190
  381MOL0     C51361   2.115   9.611   0.948 -0.1798  0.0906 -0.4933
  381MOL0     C51362   2.222   9.526   1.018 -0.0362  0.9562  0.6970
  381MOL0     C51363   2.301   9.603   1.122  0.0312 -0.3186 -0.6310
  381MOL0     C51364   2.377   9.725   1.067  0.2883  0.6412  0.0159
  381MOL0     C51365   2.438   9.816   1.037  0.0065 -0.8312 -0.1792
  381MOL0     C51366   1.830   9.336   1.118 -0.5286 -0.5426 -0.2422
  381MOL0     C51367   1.717   9.358   1.197 -0.5704 -0.1332  0.4040
  381MOL0     H51368   1.549   9.693   1.422  0.5529 -0.4388 -1.6659
  381MOL0     H51369   1.421   9.785   1.606 -4.3647  2.5342  0.5263
  381MOL0     H51370   0.986   9.806   1.576 -2.4604  1.8890 -1.7687
  381MOL0     H51371   1.018   9.878   1.725 -3.7646 -1.4913 -1.2253
  381MOL0     H51372   0.995  10.019   1.454 -0.4107 -2.0426  0.3190
  381MOL0     H51373   0.874  10.015   1.582  0.0575 -2.6344 -2.0935
  381MOL0     H51374   0.979  10.178   1.704 -0.7272 -0.1127 -2.8701
  381MOL0     H51375   1.138  10.112   1.684  0.6832  2.5752  2.2901
  381MOL0     H51376   1.146  10.224   1.464  0.9225  1.1254  1.3395
  381MOL0     H51377   0.977  10.275   1.478 -0.0848 -1.3192 -0.4380
  381MOL0     H51378   1.025  10.420   1.663  0.6482 -1.2070 -0.7799
  381MOL0     H51379   1.200  10.375   1.672  0.9026 -1.6063 -2.2350
  381MOL0     H51380   1.180  10.435   1.409  1.1025  0.6202  0.7006
  381MOL0     H51381   1.049  10.530   1.465  0.5585 -1.0927 -0.4426
  381MOL0     H51382   1.232  10.689   1.445 -0.5461  1.9540  1.9744
  381MOL0     H51383   1.200  10.663   1.612 -0.7579 -1.5448  0.3071
  381MOL0     H51384   1.426  10.542   1.464  4.0265  1.8706  0.0976
  381MOL0     H51385   1.386  10.504   1.635 -1.4099 -0.3094 -0.5756
  381MOL0     H51386   1.385  10.678   1.821 -0.3007  3.0886  0.7379
  381MOL0     H51387   1.608  10.778   1.974  1.0516  0.7294  0.4594
  381MOL0     H51388   1.691  10.917   1.906  0.7779 -2.4284 -2.3053
  381MOL0     H51389   1.516  10.982   2.070  2.1989 -0.7147  1.0795
  381MOL0     H51390   1.386  10.915   1.966  0.6132 -0.6142  0.2076
  381MOL0     H51391   1.382  11.142   1.919  0.6793  0.5707 -0.8227
  381MOL0     H51392   1.476  11.067   1.785 -0.2509  0.2975 -0.0241
  381MOL0     H51393   1.676  11.136   1.930 -2.0334 -0.9587 -3.1964
  381MOL0     H51394   1.572  11.242   2.026  0.3531 -2.7093  1.3600
  381MOL0     H51395   1.697  11.085   1.714 -2.1865  1.5593  2.0237
  381MOL0     H51396   1.917  11.051   1.454 -0.0709  0.9557  0.8929
  381MOL0     H51397   1.816  10.968   1.576 -3.9122  0.5079  0.1406
  381MOL0     H51398   1.756  10.977   1.417  0.8691  0.7415 -1.4973
  381MOL0     H51399   2.081  11.325   1.184 -1.0406 -3.4444  2.1679
  381MOL0     H51400   2.206  11.358   0.950  0.2145 -0.2092  2.9100
  381MOL0     H51401   2.121  11.453   0.770  0.7994 -1.8278  0.5153
  381MOL0     H51402   2.187  11.398   0.602 -0.9084 -0.5699 -1.4815
  381MOL0     H51403   1.989  11.344   0.527  0.5466  0.9778 -0.8309
  381MOL0     H51404   1.903  11.363   0.692 -0.8061  0.9409 -0.1742
  381MOL0     H51405   2.030  11.587   0.524 -2.8069  1.8059 -2.4111
  381MOL0     H51406   1.947  11.609   0.680  0.9596  2.3091 -1.3381
  381MOL0     H51407   1.822  11.485   0.439  2.0315 -0.9742  1.3871
  381MOL0     H51408   1.741  11.528   0.578 -1.0113  0.6338 -0.9858
  381MOL0     H51409   1.860  11.778   0.531  0.1130  0.2739 -0.9931
  381MOL0     H51410   1.704  11.757   0.482 -1.5584 -3.4801 -2.4522
  381MOL0     H51411   1.892  11.809   0.295  1.0345 -1.8381 -3.5214
  381MOL0     H51412   1.923  11.638   0.302  0.1789  1.3010 -2.5404
  381MOL0     H51413   1.769  11.669   0.117 -0.9350 -1.7417 -0.1948
  381MOL0     H51414   1.675  11.792   0.216  0.5897 -0.3842 -1.8015
  381MOL0     H51415   1.599  11.586   0.343  1.9999 -0.6346 -0.5243
  381MOL0     H51416   1.659  11.490   0.216 -0.5649  0.4291 -0.4432
  381MOL0     H51417   1.956  11.046   0.809 -0.3120  0.0057  0.0273
  381MOL0     H51418   1.838  11.027   1.024  0.0504 -0.2294 -1.0138
  381MOL0     H51419   1.701  11.470   1.418 -2.5899 -1.6085 -1.1443
  381MOL0     H51420   1.623  11.487   1.654  1.2200  1.0582 -1.3123
  381MOL0     H51421   1.078   9.803   1.373  0.6815  1.2288  1.9645
  381MOL0     H51422   1.198   9.670   1.189  4.5528  0.7983 -2.6556
  381MOL0     H51423   1.627   9.672   1.063 -1.1040  0.1686  0.4947
  381MOL0     H51424   1.814   9.613   0.929 -1.3719 -1.3527 -1.3088
  381MOL0     H51425   2.108   9.466   0.785  1.2791 -1.3016  2.9249
  381MOL0     H51426   1.964   9.561   0.792 -0.2030  0.3649  0.5074
  381MOL0     H51427   2.050   9.649   1.027 -1.3936 -1.3923 -0.7354
  381MOL0     H51428   2.162   9.696   0.897 -0.6055  1.4039  1.2237
  381MOL0     H51429   2.289   9.493   0.938 -0.3114 -2.8756  1.8712
  381MOL0     H51430   2.174   9.439   1.062 -1.0620  0.3561 -1.4809
  381MOL0     H51431   2.370   9.533   1.169  1.5634 -0.0686 -2.4023
  381MOL0     H51432   2.239   9.642   1.203  0.0999  0.9007 -1.1350
  381MOL0     H51433   2.492   9.903   1.003  1.6144 -2.6944 -2.7766
  381MOL0     H51434   1.886   9.248   1.148 -1.6695 -0.8525  1.0813
  381MOL0     H51435   1.687   9.289   1.275  2.6552  0.0179  1.9064
  382MOL0     O51436   1.458   5.749   5.861  0.4065  0.2144  0.8091
  382MOL0     C51437   1.508   5.704   5.753  0.4568  0.1654  0.4594
  382MOL0     O51438   1.633   5.644   5.748  1.2155 -0.4571 -0.6993
  382MOL0     C51439   1.706   5.646   5.860 -0.1861 -0.3193 -0.2622
  382MOL0     C51440   1.798   5.748   5.903  0.7799 -0.2122 -0.6502
  382MOL0     C51441   1.867   5.734   6.020  0.5914  0.0500 -0.6710
  382MOL0     C51442   1.855   5.615   6.101 -0.1537 -0.1522  0.0354
  382MOL0     O51443   1.952   5.606   6.203  0.0138 -0.6765 -0.1038
  382MOL0     C51444   1.987   5.475   6.237 -0.0240 -0.2183 -0.9263
  382MOL0     C51445   2.095   5.461   6.341 -0.2280  0.2108  0.6385
  382MOL0     C51446   2.157   5.323   6.338  0.8409 -0.8841  0.2545
  382MOL0     C51447   2.229   5.287   6.460 -0.0985 -0.5993 -0.4231
  382MOL0     C51448   2.341   5.186   6.445  0.9239  0.5110  0.2556
  382MOL0     C51449   2.393   5.128   6.574 -0.4176 -0.5320  0.4734
  382MOL0     C51450   2.449   5.236   6.672 -0.5604  0.0073 -0.0092
  382MOL0     C51451   2.507   5.194   6.806  0.3484  0.4822  0.1784
  382MOL0     N51452   2.551   5.297   6.898  0.2198 -0.3481 -0.5230
  382MOL0     C51453   2.578   5.424   6.866 -0.2105 -0.1148 -0.1210
  382MOL0     C51454   2.633   5.488   6.973 -0.1155  0.4414  0.0234
  382MOL0     C51455   2.686   5.631   6.971  0.8757 -0.1462 -0.4456
  382MOL0     C51456   2.805   5.655   7.052 -0.7340  0.7650 -0.6586
  382MOL0     C51457   2.926   5.571   7.003  0.2372  0.3953 -0.0707
  382MOL0     C51458   3.065   5.605   7.070  0.7320  1.0382  0.0458
  382MOL0     O51459   3.066   5.544   7.198 -0.6585  0.4161 -0.1613
  382MOL0     C51460   3.169   5.572   7.285 -0.3202  0.1317 -0.4312
  382MOL0     C51461   3.296   5.597   7.236  0.2490  0.3054  0.1076
  382MOL0     C51462   3.403   5.603   7.329  0.2780  0.6216  0.5098
  382MOL0     C51463   3.540   5.643   7.276  0.1353  0.4019 -0.8814
  382MOL0     C51464   3.391   5.554   7.462 -0.5413  0.3773 -0.3409
  382MOL0     C51465   3.497   5.568   7.568 -1.1985  0.3484  0.1188
  382MOL0     O51466   3.453   5.566   7.702  0.0286 -0.6829 -0.1272
  382MOL0     C51467   3.528   5.614   7.806  0.0848  0.0338  0.2372
  382MOL0     C51468   3.500   5.561   7.934  0.4936  0.2936 -0.0167
  382MOL0     C51469   3.562   5.606   8.048 -0.2512 -0.3147 -0.2176
  382MOL0     C51470   3.641   5.726   8.047 -0.0374 -0.7424 -0.8139
  382MOL0     O51471   3.701   5.775   8.159 -1.0843  0.5283  0.7507
  382MOL0     C51472   3.825   5.854   8.142  0.2034 -0.2455  0.5083
  382MOL0     C51473   3.889   5.880   8.283  0.7041 -0.3442 -1.2840
  382MOL0     C51474   3.989   5.775   8.322 -0.2659  0.8647 -0.5819
  382MOL0     C51475   4.080   5.815   8.444  0.3948 -0.6660  0.4662
  382MOL0     C51476   4.192   5.717   8.489 -0.5682  0.0436  0.3067
  382MOL0     C51477   4.224   5.746   8.647  0.6594 -0.0836  0.1695
  382MOL0     C51478   4.274   5.891   8.683  0.4321 -0.0022 -0.3752
  382MOL0     C51479   4.416   5.900   8.633 -0.3477  0.4007  0.0818
  382MOL0    Cl51480   4.487   6.048   8.689 -0.0476  0.3590 -0.0200
  382MOL0     C51481   3.671   5.783   7.918  1.1873 -1.6658 -0.3421
  382MOL0     C51482   3.617   5.727   7.798  0.3707  0.2976  0.0732
  382MOL0     O51483   3.619   5.558   7.534  0.1940  0.5752  0.4867
  382MOL0     C51484   3.261   5.503   7.497 -0.1482 -0.2808  0.3487
  382MOL0     C51485   3.151   5.503   7.407  0.4806 -0.8353  0.5047
  382MOL0     N51486   2.641   5.392   7.075 -0.3369  0.0966  0.0488
  382MOL0     N51487   2.584   5.282   7.031  0.2735  0.1748 -0.5034
  382MOL0     C51488   1.780   5.512   6.048  0.3911  0.1461 -0.2917
  382MOL0     C51489   1.698   5.525   5.937 -0.0506  0.1239  0.1520
  382MOL0     C51490   1.451   5.733   5.622  0.0115  0.0020  0.3976
  382MOL0     C51491   1.320   5.791   5.614 -0.5599 -0.0420  1.0079
  382MOL0     C51492   1.267   5.826   5.488  0.5043 -0.5713  0.7200
  382MOL0     C51493   1.331   5.799   5.359  0.2874 -0.1118 -0.9663
  382MOL0     O51494   1.263   5.826   5.249  0.0341  1.0578  0.5882
  382MOL0     C51495   1.320   5.784   5.126  0.1927  0.9232 -0.0049
  382MOL0     C51496   1.224   5.821   5.005  1.3588  0.1206 -0.4124
  382MOL0     C51497   1.101   5.726   5.001  0.2212  0.8929  0.3049
  382MOL0     C51498   1.037   5.705   4.857  1.2459 -0.6850 -0.3538
  382MOL0     C51499   0.993   5.826   4.795  0.0323 -0.8826  0.1542
  382MOL0     C51500   0.957   5.926   4.730  0.8183  0.0440 -0.6543
  382MOL0     C51501   1.466   5.759   5.379 -0.4010  0.1020  0.1030
  382MOL0     C51502   1.525   5.721   5.503 -0.7118 -0.1367  0.2868
  382MOL0     H51503   1.813   5.842   5.852  1.3459 -0.0265 -0.1483
  382MOL0     H51504   1.934   5.812   6.055  1.6318 -2.5597  3.9515
  382MOL0     H51505   1.902   5.425   6.285 -0.2999  0.3206 -0.8468
  382MOL0     H51506   2.020   5.422   6.147 -1.7680 -3.1717  0.0279
  382MOL0     H51507   2.165   5.541   6.319 -0.6955  0.2759 -0.7062
  382MOL0     H51508   2.059   5.471   6.444 -4.0214 -0.5721 -0.4394
  382MOL0     H51509   2.080   5.247   6.320 -0.9904  1.3580 -2.0946
  382MOL0     H51510   2.221   5.306   6.250  0.3550  0.6447 -0.4221
  382MOL0     H51511   2.269   5.384   6.491 -1.5934 -0.1682  0.2711
  382MOL0     H51512   2.153   5.272   6.537  0.8991  0.7461  0.8768
  382MOL0     H51513   2.306   5.099   6.388 -0.9923  0.7847  0.9409
  382MOL0     H51514   2.415   5.230   6.378 -0.3901  2.2474 -0.1447
  382MOL0     H51515   2.321   5.058   6.617  0.1624 -1.4605 -0.0312
  382MOL0     H51516   2.484   5.078   6.540 -1.2884 -3.0946  1.6355
  382MOL0     H51517   2.534   5.286   6.623 -1.3364 -0.4592 -1.9386
  382MOL0     H51518   2.373   5.313   6.682  3.6372  4.9329 -1.5932
  382MOL0     H51519   2.593   5.132   6.780 -0.7928 -0.6369 -1.1424
  382MOL0     H51520   2.430   5.125   6.841 -0.9286  1.3347 -0.8391
  382MOL0     H51521   2.563   5.466   6.767 -1.2484 -2.1954 -0.9092
  382MOL0     H51522   2.712   5.665   6.870  0.4334 -0.4425 -0.6633
  382MOL0     H51523   2.607   5.691   7.016  0.7240  0.0014 -0.8987
  382MOL0     H51524   2.784   5.661   7.160 -1.2822  2.4019 -0.8193
  382MOL0     H51525   2.843   5.756   7.034  0.3825 -0.1720 -4.3116
  382MOL0     H51526   2.930   5.586   6.894  1.4299  3.5798  0.3101
  382MOL0     H51527   2.901   5.466   7.025  1.9718  0.4362  2.4740
  382MOL0     H51528   3.069   5.712   7.089  0.1974  0.8468  1.3380
  382MOL0     H51529   3.141   5.568   7.000  1.0303 -1.1056  1.4063
  382MOL0     H51530   3.324   5.619   7.134  8.0833 -1.4892  1.2262
  382MOL0     H51531   3.612   5.562   7.289 -1.1252 -0.2614  3.3507
  382MOL0     H51532   3.532   5.676   7.172 -2.9687 -4.1541 -2.4292
  382MOL0     H51533   3.569   5.734   7.329 -2.3202  0.4511  0.5301
  382MOL0     H51534   3.442   5.469   7.944  0.2564  0.4349 -0.0963
  382MOL0     H51535   3.561   5.557   8.145  1.3795  1.5502  0.8230
  382MOL0     H51536   3.899   5.805   8.079  1.9458  1.7833  0.8607
  382MOL0     H51537   3.805   5.954   8.103  3.6468  0.8215  1.1192
  382MOL0     H51538   3.935   5.979   8.287  0.8222 -0.4167 -0.8580
  382MOL0     H51539   3.816   5.900   8.362  2.0619 -1.1076  0.2025
  382MOL0     H51540   4.050   5.749   8.235 -2.0655 -1.0323 -1.3739
  382MOL0     H51541   3.923   5.693   8.352  0.8952 -0.7236 -2.1375
  382MOL0     H51542   4.118   5.915   8.421 -0.0033 -0.8776 -1.2192
  382MOL0     H51543   4.005   5.819   8.523 -1.6615 -0.8318 -1.3878
  382MOL0     H51544   4.286   5.738   8.437 -1.2843 -1.8418 -1.9032
  382MOL0     H51545   4.179   5.611   8.466  0.1616 -0.1556  0.7702
  382MOL0     H51546   4.128   5.734   8.699  1.4831 -0.7515  1.6056
  382MOL0     H51547   4.285   5.668   8.694  2.9579  1.0619 -0.7473
  382MOL0     H51548   4.267   5.905   8.792 -0.0566 -0.3827 -0.3527
  382MOL0     H51549   4.213   5.968   8.634  0.6106 -1.0491 -2.3473
  382MOL0     H51550   4.408   5.910   8.524 -0.3717 -3.2931 -0.3791
  382MOL0     H51551   4.478   5.816   8.665  1.4459  0.9575 -1.7229
  382MOL0     H51552   3.744   5.861   7.904 -0.9357  0.6471  0.7832
  382MOL0     H51553   3.638   5.796   7.718 -1.1036  2.0224  1.0964
  382MOL0     H51554   3.238   5.464   7.596  0.8142 -2.3636 -0.1903
  382MOL0     H51555   3.054   5.463   7.437  1.7053 -3.8756  0.7358
  382MOL0     H51556   1.770   5.417   6.100  0.9927  0.2450  0.0121
  382MOL0     H51557   1.654   5.428   5.918  0.1213  0.2659 -1.0317
  382MOL0     H51558   1.265   5.802   5.707 -1.1346 -1.6061  0.8922
  382MOL0     H51559   1.166   5.865   5.488  1.1409  1.2406 -1.1502
  382MOL0     H51560   1.417   5.834   5.122 -0.8391  2.9380 -2.7136
  382MOL0     H51561   1.343   5.677   5.129 -1.6844  0.4915  0.4866
  382MOL0     H51562   1.284   5.813   4.914 -0.3669  0.7269 -1.6454
  382MOL0     H51563   1.190   5.923   5.020  5.3130  1.1539  3.9053
  382MOL0     H51564   1.028   5.759   5.075  0.5940  2.3062  0.0778
  382MOL0     H51565   1.144   5.633   5.038 -1.5839  0.3024  0.9919
  382MOL0     H51566   0.948   5.646   4.879  1.2396 -0.7565 -0.5743
  382MOL0     H51567   1.100   5.643   4.793  1.6846  0.0644 -0.6626
  382MOL0     H51568   0.915   6.004   4.669 -0.3298  0.3147  0.4599
  382MOL0     H51569   1.525   5.767   5.288 -0.5954  0.0420 -0.0298
  382MOL0     H51570   1.628   5.687   5.495 -1.7534 -3.2291 -1.7052
  383MOL0     O51571  10.455  10.643   5.961 -0.6682 -0.1796 -0.1043
  383MOL0     C51572  10.358  10.695   5.904  1.5223  0.6733  0.1718
  383MOL0     O51573  10.369  10.773   5.793  0.5256  0.1739 -0.4865
  383MOL0     C51574  10.486  10.833   5.767 -0.4017  0.3059  1.0134
  383MOL0     C51575  10.543  10.769   5.660  0.5800  0.1445  0.1819
  383MOL0     C51576  10.675  10.805   5.625 -0.3895 -0.3549  0.3109
  383MOL0     C51577  10.737  10.917   5.688 -1.2554 -1.2751  0.0474
  383MOL0     O51578  10.873  10.962   5.668 -0.0379  0.6171  0.3472
  383MOL0     C51579  10.956  10.864   5.590  0.6549  0.0551  0.0042
  383MOL0     C51580  11.099  10.914   5.594  0.5315  0.5767  0.2668
  383MOL0     C51581  11.106  11.040   5.504  0.4962  0.3003  0.0835
  383MOL0     C51582  11.250  11.077   5.471 -0.6742  0.4081 -1.1843
  383MOL0     C51583  11.259  11.214   5.417  1.0884  0.2510 -0.1693
  383MOL0     C51584  11.396  11.226   5.343 -0.4684 -0.3392  0.2807
  383MOL0     C51585  11.400  11.363   5.269  0.4623  0.3407  0.2664
  383MOL0     C51586  11.530  11.363   5.187  0.0321 -0.9352  0.6925
  383MOL0     N51587  11.511  11.463   5.073 -0.2786  0.0458  0.1171
  383MOL0     C51588  11.433  11.570   5.069 -0.1379  0.4520 -0.4335
  383MOL0     C51589  11.468  11.639   4.959  0.5058  0.2702 -0.8941
  383MOL0     C51590  11.424  11.780   4.929 -0.1073  0.9223 -0.8390
  383MOL0     C51591  11.347  11.850   5.043  0.3972  0.0690 -0.1163
  383MOL0     C51592  11.304  11.985   5.011  0.3495  0.1733  0.4971
  383MOL0     C51593  11.231  12.053   5.134 -0.1433 -0.3714 -0.3622
  383MOL0     O51594  11.105  11.992   5.144  0.4164  0.1335 -0.3507
  383MOL0     C51595  11.029  12.010   5.260 -0.1974 -0.3061  0.5945
  383MOL0     C51596  10.903  11.942   5.262 -0.6034  0.7501 -0.8697
  383MOL0     C51597  10.818  11.957   5.375  0.1118 -0.2171  1.1477
  383MOL0     C51598  10.680  11.899   5.365 -0.9580  0.5078 -0.2570
  383MOL0     C51599  10.862  12.038   5.483 -0.7161  0.0350 -0.9046
  383MOL0     C51600  10.804  12.033   5.613  0.5651  0.1070  0.3400
  383MOL0     O51601  10.799  11.901   5.666 -0.6359 -0.2880 -1.2884
  383MOL0     C51602  10.711  11.873   5.770  0.2316  0.4871 -0.1282
  383MOL0     C51603  10.751  11.762   5.853  0.2302 -0.4203  0.1391
  383MOL0     C51604  10.672  11.733   5.966  0.5109 -0.3101  0.1729
  383MOL0     C51605  10.553  11.805   5.996 -0.4223 -0.4935 -0.4532
  383MOL0     O51606  10.481  11.765   6.105 -0.2293 -0.8372  0.5466
  383MOL0     C51607  10.380  11.859   6.159 -0.5052  0.5628 -0.4145
  383MOL0     C51608  10.324  11.801   6.284 -0.3583  0.2719 -0.5658
  383MOL0     C51609  10.217  11.693   6.259  1.0406  0.1456 -0.1746
  383MOL0     C51610  10.172  11.631   6.398  0.3475 -0.7654  0.3764
  383MOL0     C51611  10.075  11.513   6.374 -0.0404 -0.4453  0.4529
  383MOL0     C51612  10.000  11.460   6.499 -0.2598  0.6003 -0.8205
  383MOL0     C51613   9.941  11.324   6.467  0.2039  0.7272  0.3932
  383MOL0     C51614   9.820  11.312   6.374  0.6586 -0.1138 -0.6867
  383MOL0    Cl51615   9.667  11.353   6.464 -0.2362  0.0711  0.1405
  383MOL0     C51616  10.512  11.909   5.910 -0.5473 -0.1162  0.0683
  383MOL0     C51617  10.590  11.939   5.797 -0.1695  0.5612 -0.3159
  383MOL0     O51618  10.778  12.139   5.665  0.3248 -0.4027 -0.2588
  383MOL0     C51619  10.986  12.105   5.470 -0.5720  1.1820 -1.2870
  383MOL0     C51620  11.060  12.097   5.356 -0.1788 -0.5880 -0.6843
  383MOL0     N51621  11.580  11.584   4.903  0.5088  0.4133  0.4430
  383MOL0     N51622  11.593  11.466   4.957  0.4578 -0.2276 -0.2362
  383MOL0     C51623  10.682  10.985   5.799 -0.3639  0.3573  0.1944
  383MOL0     C51624  10.552  10.938   5.838  0.3367  0.2673  0.2367
  383MOL0     C51625  10.214  10.660   5.953 -0.6074  0.1453 -0.1210
  383MOL0     C51626  10.109  10.688   5.866  0.2491 -0.5185 -0.0570
  383MOL0     C51627   9.975  10.658   5.897 -0.7132  0.0646 -0.2279
  383MOL0     C51628   9.955  10.592   6.020  0.5284  0.2218 -0.6150
  383MOL0     O51629   9.823  10.551   6.035  0.5643  0.4839  0.1415
  383MOL0     C51630   9.814  10.416   6.055  0.4459  0.0372  0.7978
  383MOL0     C51631   9.666  10.375   6.072  0.5934  0.0180 -0.3683
  383MOL0     C51632   9.601  10.386   5.936  0.5882  1.0203 -0.0853
  383MOL0     C51633   9.448  10.365   5.957 -0.5882 -0.4976 -0.4018
  383MOL0     C51634   9.423  10.225   5.975  0.2874  0.4279  0.2027
  383MOL0     C51635   9.393  10.109   5.987  0.1012  0.7119 -0.7305
  383MOL0     C51636  10.066  10.565   6.115  1.3569 -1.4192  0.4329
  383MOL0     C51637  10.196  10.602   6.077  0.4712  0.1556 -0.3579
  383MOL0     H51638  10.497  10.689   5.604  2.0861 -0.6827  0.0531
  383MOL0     H51639  10.738  10.745   5.560 -0.3790  2.7011 -2.7240
  383MOL0     H51640  10.950  10.764   5.633  0.3727  0.0088 -0.1411
  383MOL0     H51641  10.912  10.855   5.490  0.4258 -3.5520  0.2930
  383MOL0     H51642  11.141  10.937   5.692  3.1891  1.1742 -0.9311
  383MOL0     H51643  11.171  10.838   5.562 -1.5234 -1.4918  0.2529
  383MOL0     H51644  11.044  11.022   5.415  0.2760  0.9029  0.1081
  383MOL0     H51645  11.054  11.124   5.551 -0.0080  1.2027 -1.9352
  383MOL0     H51646  11.306  11.068   5.564 -1.1335  1.6398 -0.7795
  383MOL0     H51647  11.291  11.002   5.403 -0.6866 -0.5737 -0.1338
  383MOL0     H51648  11.177  11.217   5.345  2.1952 -2.2519 -1.6743
  383MOL0     H51649  11.247  11.285   5.500  5.9336  1.9111 -0.5861
  383MOL0     H51650  11.479  11.206   5.412 -0.3402 -4.2823 -0.7735
  383MOL0     H51651  11.415  11.146   5.271  2.2917  0.4007  0.0586
  383MOL0     H51652  11.312  11.364   5.203 -0.5126 -1.6331  1.4569
  383MOL0     H51653  11.404  11.443   5.343  0.0614  1.4068 -0.8204
  383MOL0     H51654  11.546  11.267   5.137 -5.3057 -1.2081 -1.1159
  383MOL0     H51655  11.612  11.394   5.253  1.3048 -6.3057  2.1379
  383MOL0     H51656  11.360  11.600   5.144  0.0645 -1.6331  0.6548
  383MOL0     H51657  11.515  11.835   4.902  0.9660 -0.2618  0.2032
  383MOL0     H51658  11.362  11.775   4.839 -0.0176 -2.9014 -0.8345
  383MOL0     H51659  11.411  11.864   5.130  1.0920 -0.4727 -0.5288
  383MOL0     H51660  11.262  11.792   5.081 -2.0062  3.5467  0.2497
  383MOL0     H51661  11.247  11.996   4.918 -0.6939 -1.8593  0.8518
  383MOL0     H51662  11.396  12.041   4.989 -0.3772  1.1657 -0.1366
  383MOL0     H51663  11.234  12.161   5.118 -1.2559 -0.7417 -4.0884
  383MOL0     H51664  11.288  12.025   5.223  0.1353 -3.1567 -1.3025
  383MOL0     H51665  10.871  11.876   5.182 -0.4364 -2.1349  1.2716
  383MOL0     H51666  10.610  11.967   5.415  0.3853  0.2108  2.1735
  383MOL0     H51667  10.654  11.888   5.259  0.7887  0.0031 -0.6707
  383MOL0     H51668  10.666  11.800   5.409  0.5269  0.7714  0.8915
  383MOL0     H51669  10.842  11.709   5.828  0.6923 -0.4223  1.7293
  383MOL0     H51670  10.710  11.653   6.028  2.5992  0.6575  0.2421
  383MOL0     H51671  10.432  11.954   6.171 -0.0066  0.2252  0.1087
  383MOL0     H51672  10.292  11.883   6.098 -1.0583  1.7469  0.8145
  383MOL0     H51673  10.412  11.765   6.338 -2.6085 -0.3029  3.0304
  383MOL0     H51674  10.279  11.886   6.335 -1.3948  0.9441 -2.4844
  383MOL0     H51675  10.259  11.614   6.196  2.3520  0.8169 -0.1930
  383MOL0     H51676  10.130  11.742   6.216  1.8187  0.4443 -1.4677
  383MOL0     H51677  10.263  11.601   6.451 -0.2701 -2.0283  0.7734
  383MOL0     H51678  10.123  11.709   6.458  5.1091  1.6724  1.5775
  383MOL0     H51679  10.137  11.434   6.331 -1.3577 -1.8946  1.1591
  383MOL0     H51680  10.011  11.552   6.294  3.7474  2.6338 -1.4499
  383MOL0     H51681  10.078  11.434   6.571 -1.5145 -1.5820 -0.1481
  383MOL0     H51682   9.921  11.526   6.537 -0.0294  0.6099 -0.3508
  383MOL0     H51683   9.912  11.278   6.562  0.8495 -4.2475 -1.4954
  383MOL0     H51684  10.023  11.262   6.429  1.5590  1.8012  1.4383
  383MOL0     H51685   9.803  11.208   6.344  0.3749 -0.2493 -0.0834
  383MOL0     H51686   9.822  11.381   6.289 -0.6095  3.6907  2.0756
  383MOL0     H51687  10.419  11.962   5.924 -3.2368 -3.8150 -2.0416
  383MOL0     H51688  10.565  12.024   5.734  2.6869  1.2188 -0.7280
  383MOL0     H51689  11.028  12.165   5.550 -2.7621  1.0516  0.0288
  383MOL0     H51690  11.154  12.148   5.339  1.0763 -1.9325  1.7379
  383MOL0     H51691  10.738  11.062   5.850 -0.7722 -0.7034  2.4046
  383MOL0     H51692  10.494  10.977   5.921  1.2715 -1.8859  1.9790
  383MOL0     H51693  10.136  10.719   5.766 -0.8626 -1.7300 -0.7706
  383MOL0     H51694   9.896  10.676   5.825 -2.8184 -1.7253  1.5033
  383MOL0     H51695   9.848  10.366   5.964 -2.0580 -2.5592  1.1116
  383MOL0     H51696   9.859  10.392   6.152 -1.1909  1.7443  2.0723
  383MOL0     H51697   9.626  10.441   6.149  2.0386  0.3144  0.1527
  383MOL0     H51698   9.660  10.272   6.106  1.0790  0.7251  2.0016
  383MOL0     H51699   9.664  10.326   5.870  3.6004  1.4184  2.2566
  383MOL0     H51700   9.618  10.485   5.893 -0.6120  0.1033 -2.9224
  383MOL0     H51701   9.398  10.399   5.865 -0.6636 -2.3956 -1.0943
  383MOL0     H51702   9.406  10.429   6.035  0.2150  1.6733 -1.6455
  383MOL0     H51703   9.358  10.010   6.010  2.8322 -0.2506 -0.3742
  383MOL0     H51704  10.049  10.512   6.208  1.9215  1.6681  2.4069
  383MOL0     H51705  10.282  10.580   6.140 -0.4471 -1.2281  0.4751
  384MOL0     O51706  10.755   5.326   9.924 -0.1058 -0.4310 -0.4832
  384MOL0     C51707  10.838   5.312  10.019  1.2726 -0.1778  1.2637
  384MOL0     O51708  10.836   5.392  10.128  0.6174 -0.4583 -0.6034
  384MOL0     C51709  10.754   5.494  10.139  0.2428  0.9933  0.3613
  384MOL0     C51710  10.805   5.623  10.120  0.6851  0.5769  0.1660
  384MOL0     C51711  10.715   5.735  10.120  0.2098  0.7831  0.0969
  384MOL0     C51712  10.580   5.718  10.144 -0.9132  0.1017 -0.2718
  384MOL0     O51713  10.487   5.826  10.139  0.8487 -0.0878  0.5399
  384MOL0     C51714  10.513   5.922  10.040  0.4210  0.8110 -0.2697
  384MOL0     C51715  10.397   6.028  10.049 -0.5801  0.6202 -0.7328
  384MOL0     C51716  10.258   5.966   9.992  0.7550  0.1780 -0.5683
  384MOL0     C51717  10.124   6.027  10.046  0.5355 -0.2557 -0.7132
  384MOL0     C51718  10.002   5.973   9.970 -0.3399  0.4344 -0.5089
  384MOL0     C51719   9.875   6.052  10.014 -0.7490  0.8693  0.5164
  384MOL0     C51720   9.762   6.020   9.924 -1.2128 -0.4295  0.7533
  384MOL0     C51721   9.630   6.092   9.952 -0.1571 -0.8607  0.6774
  384MOL0     N51722   9.548   6.033  10.055 -0.1901  0.2143 -0.3380
  384MOL0     C51723   9.593   5.988  10.178  0.2652  1.1200  0.3825
  384MOL0     C51724   9.486   5.955  10.248 -0.2063 -0.1164 -0.5680
  384MOL0     C51725   9.497   5.910  10.391 -0.0766 -0.1248  0.6403
  384MOL0     C51726   9.523   6.024  10.497 -0.6369 -1.0995 -0.5795
  384MOL0     C51727   9.396   6.100  10.526 -0.3274 -0.0573 -0.8606
  384MOL0     C51728   9.414   6.190  10.650  0.2378  0.6403  0.3606
  384MOL0     O51729   9.525   6.277  10.617  0.4399  0.2294  0.6786
  384MOL0     C51730   9.558   6.379  10.702 -0.6218  0.0489  0.1937
  384MOL0     C51731   9.495   6.416  10.819  0.1080  0.7725  0.0684
  384MOL0     C51732   9.530   6.525  10.893 -0.3774  0.9234 -1.3178
  384MOL0     C51733   9.449   6.559  11.017  0.6335 -0.0280 -0.4642
  384MOL0     C51734   9.647   6.595  10.863 -0.6547 -0.7107  0.3814
  384MOL0     C51735   9.701   6.702  10.947  0.2407 -0.1322  0.1634
  384MOL0     O51736   9.834   6.730  10.927 -0.2663  0.3217 -0.3345
  384MOL0     C51737   9.904   6.803  11.026  0.5272 -0.9008  0.2426
  384MOL0     C51738   9.866   6.938  11.053 -0.4079  0.1368  0.4178
  384MOL0     C51739   9.930   7.011  11.155 -0.0313  0.2149  0.0546
  384MOL0     C51740  10.034   6.954  11.226  0.3312  0.2494 -0.2073
  384MOL0     O51741  10.088   7.034  11.318 -0.6548 -0.4159  1.3517
  384MOL0     C51742  10.079   6.997  11.455  0.3595  0.4454  0.6073
  384MOL0     C51743  10.146   7.101  11.548  0.7434 -0.1806  0.3085
  384MOL0     C51744  10.290   7.121  11.535 -0.1613  0.0503 -0.6583
  384MOL0     C51745  10.333   7.260  11.607  0.9225 -0.0361  0.5953
  384MOL0     C51746  10.490   7.267  11.606  0.9834  0.2223 -0.4666
  384MOL0     C51747  10.556   7.178  11.721  0.4266 -0.6380 -0.0788
  384MOL0     C51748  10.711   7.168  11.711  0.2361  0.1674  0.2215
  384MOL0     C51749  10.777   7.284  11.777 -0.0326 -0.9347 -0.9191
  384MOL0    Cl51750  10.951   7.308  11.739 -0.0821  0.0242  0.0087
  384MOL0     C51751  10.081   6.824  11.193 -0.4283 -0.2138  0.2222
  384MOL0     C51752  10.017   6.752  11.096 -0.4259  0.6488  0.3676
  384MOL0     O51753   9.620   6.770  11.017 -0.6008 -0.6790  0.2235
  384MOL0     C51754   9.719   6.553  10.747 -0.1863 -1.4736 -0.8971
  384MOL0     C51755   9.674   6.455  10.665 -0.0105  0.3432  1.4327
  384MOL0     N51756   9.376   5.977  10.164  0.6582 -1.5024  0.2950
  384MOL0     N51757   9.413   6.022  10.049 -0.6609  0.1989 -0.0959
  384MOL0     C51758  10.530   5.585  10.158 -0.1276  0.6825  0.1062
  384MOL0     C51759  10.621   5.471  10.162  0.2918  0.1153 -0.5320
  384MOL0     C51760  10.937   5.208  10.003  0.1538  0.8113  0.3013
  384MOL0     C51761  11.001   5.162  10.120  0.5696 -0.0990  0.0498
  384MOL0     C51762  11.083   5.048  10.116 -0.3725 -0.2105 -0.1379
  384MOL0     C51763  11.116   4.990   9.994 -0.5720  0.1750 -0.1303
  384MOL0     O51764  11.209   4.894   9.980 -0.2527  0.2737  0.0516
  384MOL0     C51765  11.240   4.813  10.096 -0.2662 -0.7389  0.3100
  384MOL0     C51766  11.319   4.691  10.018  0.6672 -0.1478 -0.2152
  384MOL0     C51767  11.398   4.591  10.110 -0.1694 -0.5441 -0.5083
  384MOL0     C51768  11.547   4.648  10.124 -0.2694 -0.9554 -0.8979
  384MOL0     C51769  11.616   4.665   9.995  0.4606  0.7060  0.0001
  384MOL0     C51770  11.656   4.667   9.883  0.9673  0.3539 -0.0482
  384MOL0     C51771  11.062   5.039   9.880  0.9023 -0.1879  0.1168
  384MOL0     C51772  10.971   5.145   9.883 -0.2665 -0.0359 -0.0648
  384MOL0     H51773  10.911   5.637  10.105  1.0010 -1.5588  0.0274
  384MOL0     H51774  10.760   5.833  10.108  1.0205  0.4474  0.3449
  384MOL0     H51775  10.598   5.987  10.061 -0.2529  2.6043 -2.7032
  384MOL0     H51776  10.512   5.864   9.947 -2.2818 -3.5898  2.1326
  384MOL0     H51777  10.395   6.068  10.151 -1.4389  0.8080 -0.8166
  384MOL0     H51778  10.429   6.107   9.981 -0.0902 -0.7931 -2.1901
  384MOL0     H51779  10.263   5.967   9.883  1.9860  4.7893 -0.6779
  384MOL0     H51780  10.247   5.862  10.024 -3.7854  0.5715 -0.2110
  384MOL0     H51781  10.122   6.013  10.154 -0.9332 -1.3445 -0.8510
  384MOL0     H51782  10.117   6.136  10.038 -1.7982 -0.3620 -0.8423
  384MOL0     H51783  10.017   5.997   9.864  0.3571  2.7166  0.0612
  384MOL0     H51784   9.995   5.865   9.986  0.1342  0.4189 -0.3935
  384MOL0     H51785   9.861   6.030  10.121  1.4582 -0.7309  0.5383
  384MOL0     H51786   9.901   6.156   9.993  0.7611  0.0621 -2.0567
  384MOL0     H51787   9.793   6.040   9.821  1.9895  2.7355  2.1289
  384MOL0     H51788   9.744   5.912   9.930  0.5474 -1.1278 -3.3214
  384MOL0     H51789   9.581   6.101   9.855  2.4830  1.0323 -0.5820
  384MOL0     H51790   9.660   6.196   9.967 -0.7134 -0.4639 -0.8305
  384MOL0     H51791   9.698   5.987  10.208 -0.3029  1.9064  2.5796
  384MOL0     H51792   9.404   5.856  10.409  0.7226 -1.0189  2.3458
  384MOL0     H51793   9.580   5.841  10.411 -0.0290  0.3741  2.3796
  384MOL0     H51794   9.602   6.089  10.457 -2.9123  0.9714 -1.9743
  384MOL0     H51795   9.566   5.992  10.593 -0.3651  3.0525  0.9011
  384MOL0     H51796   9.315   6.029  10.549 -1.0655  1.6145  2.2230
  384MOL0     H51797   9.370   6.150  10.432 -1.4642 -1.3214 -1.2715
  384MOL0     H51798   9.441   6.124  10.733 -1.8612 -0.1592  0.4664
  384MOL0     H51799   9.325   6.250  10.671  1.2095  1.2594  3.0650
  384MOL0     H51800   9.408   6.364  10.858  1.5830 -0.7663  1.4922
  384MOL0     H51801   9.394   6.651  10.994 -0.7760 -1.1616 -1.9245
  384MOL0     H51802   9.365   6.491  11.034  1.4746 -0.9534  0.0830
  384MOL0     H51803   9.512   6.564  11.106 -1.1891 -0.8742  0.9422
  384MOL0     H51804   9.783   6.977  10.995 -1.1855  0.9533  2.0242
  384MOL0     H51805   9.902   7.107  11.196 -0.1763  0.9948 -1.7691
  384MOL0     H51806   9.971   6.995  11.470  0.1378 -0.2948 -0.9134
  384MOL0     H51807  10.134   6.903  11.463 -2.0375 -1.0752  0.0891
  384MOL0     H51808  10.091   7.195  11.536  1.3589  0.2503  0.7873
  384MOL0     H51809  10.113   7.078  11.650 -2.4044  0.2253 -0.5268
  384MOL0     H51810  10.317   7.120  11.429  0.5845 -1.4415 -0.4777
  384MOL0     H51811  10.342   7.032  11.572  0.1236  0.4356 -0.1150
  384MOL0     H51812  10.298   7.341  11.541 -1.3436 -2.4439 -1.4111
  384MOL0     H51813  10.304   7.260  11.712 -2.0345 -1.0201 -0.1187
  384MOL0     H51814  10.510   7.372  11.629  1.1903 -0.3214  2.2542
  384MOL0     H51815  10.522   7.239  11.506 -1.7749  3.4425 -2.4489
  384MOL0     H51816  10.536   7.213  11.823 -1.7746  1.2277 -1.0632
  384MOL0     H51817  10.521   7.080  11.688 -0.4511 -0.0915 -0.8213
  384MOL0     H51818  10.730   7.171  11.603 -2.2282  1.6599 -0.2379
  384MOL0     H51819  10.764   7.080  11.749  0.9058  0.6809  0.4929
  384MOL0     H51820  10.778   7.275  11.886  1.9384 -2.7072 -1.0149
  384MOL0     H51821  10.717   7.373  11.755  0.7103 -0.5464 -1.4330
  384MOL0     H51822  10.170   6.779  11.236  1.5981  1.0459 -2.3181
  384MOL0     H51823  10.058   6.657  11.063 -0.3280  1.4291 -1.9607
  384MOL0     H51824   9.807   6.603  10.706 -0.5331 -0.9091 -0.9731
  384MOL0     H51825   9.724   6.447  10.569  1.7131  1.1128  2.2296
  384MOL0     H51826  10.423   5.566  10.166 -0.1819 -1.2326 -3.0652
  384MOL0     H51827  10.580   5.371  10.172  2.6218 -0.7972  0.5619
  384MOL0     H51828  10.994   5.212  10.215 -0.5684 -0.8406  0.3742
  384MOL0     H51829  11.130   5.022  10.211  0.8810  1.9358 -0.1021
  384MOL0     H51830  11.286   4.869  10.178 -2.3977 -0.2729  1.2511
  384MOL0     H51831  11.149   4.764  10.131 -1.0198 -0.8997 -1.7070
  384MOL0     H51832  11.392   4.724   9.943  0.5894  1.6529  0.4538
  384MOL0     H51833  11.245   4.632   9.962 -2.6006  1.9715  1.5066
  384MOL0     H51834  11.396   4.488  10.075 -0.4523 -0.4871 -0.6669
  384MOL0     H51835  11.343   4.584  10.204 -0.1144  0.9989 -0.3240
  384MOL0     H51836  11.611   4.583  10.184  1.7899 -1.8997 -3.9028
  384MOL0     H51837  11.534   4.745  10.174 -0.3038 -1.5271  0.2360
  384MOL0     H51838  11.679   4.660   9.778  3.2829 -0.0255  0.4264
  384MOL0     H51839  11.092   4.990   9.788 -0.6208 -0.7036 -0.1280
  384MOL0     H51840  10.943   5.177   9.783  1.2386 -0.1572 -0.5538
  385MOL0     O51841   5.735   3.753   6.851  0.5198 -0.0438  0.3562
  385MOL0     C51842   5.652   3.831   6.792 -0.0059 -0.2832 -0.2440
  385MOL0     O51843   5.604   3.941   6.851 -0.4457  0.8162 -0.0983
  385MOL0     C51844   5.641   3.979   6.977  0.0856 -0.7205 -0.5532
  385MOL0     C51845   5.651   4.119   6.981 -0.5312 -1.1531  0.1404
  385MOL0     C51846   5.691   4.181   7.099  0.4519 -0.0830 -0.3903
  385MOL0     C51847   5.719   4.102   7.219  0.3938  0.1792  0.0866
  385MOL0     O51848   5.759   4.160   7.332 -0.0343  0.1231  0.4098
  385MOL0     C51849   5.862   4.090   7.409  0.4677  0.4083  0.4921
  385MOL0     C51850   5.948   4.199   7.470 -0.3133  0.9675 -0.7417
  385MOL0     C51851   5.952   4.190   7.616 -0.2244  0.7508  0.3007
  385MOL0     C51852   6.072   4.245   7.683 -0.0283 -0.2554 -0.2630
  385MOL0     C51853   6.078   4.198   7.836 -0.1169 -0.0094 -0.0369
  385MOL0     C51854   6.219   4.225   7.901  0.1157 -0.1691  0.6980
  385MOL0     C51855   6.213   4.198   8.051 -0.5833  0.5188  0.8174
  385MOL0     C51856   6.353   4.154   8.104 -0.3442  0.1442  0.2087
  385MOL0     N51857   6.375   4.011   8.064  0.2608 -1.0855 -0.0085
  385MOL0     C51858   6.345   3.900   8.127 -0.6937  0.1147 -0.6892
  385MOL0     C51859   6.369   3.799   8.043  0.1253 -0.7442 -0.1921
  385MOL0     C51860   6.350   3.664   8.056  0.3882 -0.1579  0.5350
  385MOL0     C51861   6.215   3.619   8.086  0.8314 -0.5811 -0.1444
  385MOL0     C51862   6.120   3.658   7.978 -0.2608 -0.2279 -1.0319
  385MOL0     C51863   5.982   3.612   8.016  0.1435 -0.2471  0.0068
  385MOL0     O51864   5.892   3.663   7.920 -0.0516 -1.1361 -0.2229
  385MOL0     C51865   5.850   3.796   7.946 -0.4056  0.8106 -0.4684
  385MOL0     C51866   5.752   3.857   7.855  0.4565  0.0660  0.1075
  385MOL0     C51867   5.707   3.984   7.861 -0.0626  0.1352  0.2054
  385MOL0     C51868   5.610   4.041   7.762 -0.2217  0.7492 -0.1274
  385MOL0     C51869   5.747   4.065   7.970 -0.2237 -0.2993 -0.0165
  385MOL0     C51870   5.711   4.209   8.008 -0.2958 -0.1514  0.3501
  385MOL0     O51871   5.764   4.274   8.112  0.1517  0.0976  0.0622
  385MOL0     C51872   5.719   4.385   8.172 -0.3427  0.2462  0.8788
  385MOL0     C51873   5.807   4.471   8.236 -0.2337 -0.1509  0.2922
  385MOL0     C51874   5.770   4.595   8.286  0.1798  0.2062 -0.6782
  385MOL0     C51875   5.638   4.633   8.283  0.2740  0.8851 -0.7113
  385MOL0     O51876   5.609   4.760   8.324 -0.0437 -0.2695 -0.1052
  385MOL0     C51877   5.522   4.830   8.230  0.8078 -0.0207 -0.6124
  385MOL0     C51878   5.505   4.979   8.270  0.0014  0.3686  1.7301
  385MOL0     C51879   5.638   5.060   8.247  0.5387 -0.3774  0.2866
  385MOL0     C51880   5.727   5.051   8.375 -0.9184  0.0001  0.1659
  385MOL0     C51881   5.875   5.115   8.359  0.9231 -0.3787 -0.4526
  385MOL0     C51882   5.979   5.044   8.265 -0.1400 -0.4782  0.2487
  385MOL0     C51883   6.001   4.900   8.279  0.8469  0.2932 -0.6478
  385MOL0     C51884   6.124   4.845   8.224  0.0409 -0.2463  0.4746
  385MOL0    Cl51885   6.131   4.678   8.261 -0.3999 -0.1410  0.2717
  385MOL0     C51886   5.549   4.541   8.232 -1.0132  0.5101 -0.2004
  385MOL0     C51887   5.584   4.421   8.177 -0.4454 -0.3213 -0.3815
  385MOL0     O51888   5.626   4.256   7.935 -0.0977 -0.1595 -0.4088
  385MOL0     C51889   5.849   4.013   8.056  0.1794 -1.2501  0.3531
  385MOL0     C51890   5.892   3.887   8.048  0.4271  0.1718 -0.4909
  385MOL0     N51891   6.445   3.849   7.943 -0.2015 -0.5455  1.0312
  385MOL0     N51892   6.441   3.978   7.950 -0.4253 -0.4066  0.1284
  385MOL0     C51893   5.692   3.965   7.212 -0.4404 -0.4128 -0.7545
  385MOL0     C51894   5.649   3.903   7.095  0.1442 -0.8468  0.1037
  385MOL0     C51895   5.600   3.807   6.663  0.6206  0.4913 -0.4531
  385MOL0     C51896   5.600   3.680   6.613  0.0573  0.7510  0.9782
  385MOL0     C51897   5.551   3.657   6.483  1.5389  0.9650  0.5354
  385MOL0     C51898   5.507   3.756   6.402 -1.8389 -0.4282 -0.1732
  385MOL0     O51899   5.453   3.729   6.282 -0.2963 -0.2433  0.2464
  385MOL0     C51900   5.494   3.818   6.173  0.3574  0.2096  0.3960
  385MOL0     C51901   5.479   3.732   6.043 -0.1524  0.3082  0.0921
  385MOL0     C51902   5.524   3.799   5.912 -1.0595 -0.1064  0.3352
  385MOL0     C51903   5.475   3.937   5.886  0.4038 -0.3307 -0.3866
  385MOL0     C51904   5.559   4.043   5.943 -0.0247  0.9553 -0.3936
  385MOL0     C51905   5.628   4.115   6.018  0.8943  0.3741  0.3386
  385MOL0     C51906   5.526   3.891   6.449  0.5396  0.1734  0.8706
  385MOL0     C51907   5.562   3.911   6.580  0.0926  0.5567 -0.5150
  385MOL0     H51908   5.640   4.174   6.888 -2.5760  0.4396  1.2220
  385MOL0     H51909   5.717   4.286   7.101 -0.5089  0.1587  0.0305
  385MOL0     H51910   5.816   4.023   7.482 -1.7647  0.3822 -0.8609
  385MOL0     H51911   5.924   4.030   7.342 -0.2997  0.5759 -0.3930
  385MOL0     H51912   6.052   4.190   7.437  0.3490  1.5331  1.1144
  385MOL0     H51913   5.912   4.296   7.434  2.7534  1.9979 -1.2735
  385MOL0     H51914   5.860   4.236   7.654 -0.7476 -0.3996  0.4931
  385MOL0     H51915   5.948   4.086   7.652 -2.0771 -0.2357 -2.4072
  385MOL0     H51916   6.161   4.203   7.635 -1.5316 -1.6596 -1.9890
  385MOL0     H51917   6.078   4.354   7.676 -2.3258  0.1948  2.6770
  385MOL0     H51918   5.999   4.256   7.886 -0.9372 -1.7621  0.8140
  385MOL0     H51919   6.046   4.094   7.848 -0.6015  0.2663  1.2023
  385MOL0     H51920   6.297   4.165   7.853  3.9814  2.2369  3.4219
  385MOL0     H51921   6.253   4.329   7.893  0.1475 -0.1618  0.9364
  385MOL0     H51922   6.173   4.279   8.113 -1.8753 -0.1544  0.9073
  385MOL0     H51923   6.150   4.111   8.067 -2.5139  1.4271 -1.2841
  385MOL0     H51924   6.354   4.166   8.213  0.7336  2.1279  0.0234
  385MOL0     H51925   6.433   4.216   8.063  0.6809 -2.1875 -1.6283
  385MOL0     H51926   6.289   3.908   8.220  0.4689 -0.3844  0.0885
  385MOL0     H51927   6.381   3.617   7.963 -2.6561  2.3638 -1.9773
  385MOL0     H51928   6.412   3.631   8.140 -3.7872 -1.7377  3.3985
  385MOL0     H51929   6.188   3.655   8.186 -3.7467 -1.6757 -0.7480
  385MOL0     H51930   6.208   3.510   8.086 -4.8004 -0.5086 -0.8908
  385MOL0     H51931   6.147   3.599   7.889  1.6730 -0.1067 -0.5739
  385MOL0     H51932   6.126   3.767   7.966 -0.1963 -0.1838 -0.6112
  385MOL0     H51933   5.967   3.642   8.121  1.8065 -1.6732  0.6994
  385MOL0     H51934   5.986   3.503   8.015  2.6677 -0.2159 -1.4904
  385MOL0     H51935   5.703   3.792   7.783  0.4093  0.6654 -0.4163
  385MOL0     H51936   5.520   4.063   7.820  3.4528  3.0754  5.4182
  385MOL0     H51937   5.649   4.118   7.695  0.8623  0.0631 -0.3194
  385MOL0     H51938   5.584   3.966   7.686 -0.7012  1.8618 -1.0988
  385MOL0     H51939   5.910   4.439   8.243 -0.1928 -0.5176 -1.5102
  385MOL0     H51940   5.844   4.651   8.342 -1.5039  0.9233  0.9361
  385MOL0     H51941   5.545   4.809   8.125 -2.0802 -1.1607 -1.1148
  385MOL0     H51942   5.424   4.783   8.241  1.6126 -1.3382  1.4201
  385MOL0     H51943   5.429   5.031   8.210 -1.1408  0.3275  3.1085
  385MOL0     H51944   5.476   4.988   8.375  1.1276  2.4622  1.9168
  385MOL0     H51945   5.614   5.165   8.229 -2.5831 -1.1151 -0.5600
  385MOL0     H51946   5.688   5.017   8.160  2.1850 -0.0712  1.0432
  385MOL0     H51947   5.674   5.109   8.451 -0.3810 -0.2010  0.7028
  385MOL0     H51948   5.737   4.946   8.405  2.9916 -0.1204 -1.1029
  385MOL0     H51949   5.920   5.122   8.458  1.1451 -0.7875 -0.5186
  385MOL0     H51950   5.872   5.213   8.311 -0.0338 -0.2550 -0.1619
  385MOL0     H51951   5.946   5.047   8.161  1.3009 -2.6849 -0.3400
  385MOL0     H51952   6.074   5.098   8.262 -0.5995  0.3158 -2.1722
  385MOL0     H51953   5.909   4.853   8.242  0.5454  0.9191 -0.7147
  385MOL0     H51954   6.006   4.866   8.383  1.6222  1.2977 -0.3448
  385MOL0     H51955   6.210   4.899   8.264 -0.3984  1.2673 -0.5173
  385MOL0     H51956   6.119   4.855   8.115 -2.2166  1.3540  0.6324
  385MOL0     H51957   5.443   4.561   8.216 -0.6186  1.8774 -1.2830
  385MOL0     H51958   5.502   4.359   8.142  1.2797 -1.5424 -2.4974
  385MOL0     H51959   5.892   4.073   8.135  0.6189 -0.3442 -0.5361
  385MOL0     H51960   5.960   3.860   8.128 -2.1761  0.0439  1.8377
  385MOL0     H51961   5.729   3.891   7.282 -2.2340 -2.0527 -1.4431
  385MOL0     H51962   5.636   3.796   7.085 -1.1947 -0.8016  1.0724
  385MOL0     H51963   5.636   3.601   6.677 -3.2079 -1.0225  0.8330
  385MOL0     H51964   5.535   3.559   6.441 -0.7781  1.0215  1.1760
  385MOL0     H51965   5.434   3.909   6.175  0.9624  0.6089  0.6439
  385MOL0     H51966   5.599   3.847   6.164  1.3760 -2.9927  0.5278
  385MOL0     H51967   5.375   3.700   6.038 -0.0120 -0.0690 -0.4957
  385MOL0     H51968   5.548   3.647   6.042  0.1950  0.5866  0.2131
  385MOL0     H51969   5.480   3.747   5.827 -1.9722  0.6783  0.3061
  385MOL0     H51970   5.633   3.801   5.903 -1.1508 -0.4310 -1.0183
  385MOL0     H51971   5.373   3.939   5.926  1.7205 -0.3202  3.3704
  385MOL0     H51972   5.470   3.964   5.780  1.0502  1.8042  0.0827
  385MOL0     H51973   5.694   4.178   6.074  1.2673  0.7411 -0.5008
  385MOL0     H51974   5.497   3.977   6.389  0.9357 -1.2127 -1.4296
  385MOL0     H51975   5.570   4.013   6.615 -1.3176 -0.4139  3.1326
  386MOL0     O51976   5.805   7.987   9.185  0.1156  0.5354 -0.7999
  386MOL0     C51977   5.702   8.038   9.139  0.4670 -0.2963 -0.3543
  386MOL0     O51978   5.688   8.158   9.089  0.0492  0.6997  0.8724
  386MOL0     C51979   5.802   8.237   9.079 -0.0440  0.7089  0.8809
  386MOL0     C51980   5.824   8.357   9.143  0.6347 -0.1359 -0.1277
  386MOL0     C51981   5.942   8.434   9.130 -0.7050  0.3665  0.7340
  386MOL0     C51982   6.039   8.385   9.035  0.8433  0.0578 -0.7844
  386MOL0     O51983   6.162   8.434   9.001 -0.0215  0.3048 -0.3445
  386MOL0     C51984   6.176   8.579   8.967  0.3673  0.6167 -0.3918
  386MOL0     C51985   6.287   8.583   8.862 -0.3591 -0.7610 -0.0315
  386MOL0     C51986   6.313   8.734   8.819 -1.0359 -0.6605 -0.7205
  386MOL0     C51987   6.401   8.750   8.687 -0.1499 -0.0590  0.1633
  386MOL0     C51988   6.544   8.733   8.718 -0.6619  1.0424  0.4891
  386MOL0     C51989   6.633   8.812   8.616  1.3635  0.8365  1.2135
  386MOL0     C51990   6.772   8.781   8.680 -0.1377 -0.3633  0.2520
  386MOL0     C51991   6.892   8.862   8.623 -0.0996 -0.0074  0.0337
  386MOL0     N51992   6.895   8.821   8.471  0.2159  0.0107  0.2489
  386MOL0     C51993   6.885   8.908   8.366 -0.3280  0.1667  0.3727
  386MOL0     C51994   6.846   8.815   8.266 -0.6979 -0.5946  0.3917
  386MOL0     C51995   6.827   8.848   8.124  0.6740  0.7395 -0.3230
  386MOL0     C51996   6.686   8.873   8.092  0.1259 -0.6083  0.5920
  386MOL0     C51997   6.572   8.807   8.179 -0.7453  0.5813 -0.1417
  386MOL0     C51998   6.554   8.653   8.146 -0.6384 -0.6379 -0.4387
  386MOL0     O51999   6.423   8.613   8.156  0.1466  0.6190 -0.1606
  386MOL0     C52000   6.403   8.527   8.263 -0.1720 -0.0354 -0.1596
  386MOL0     C52001   6.300   8.432   8.248  0.0107 -0.7196 -0.0050
  386MOL0     C52002   6.274   8.332   8.351  0.9990  0.4358  0.4323
  386MOL0     C52003   6.163   8.234   8.318 -0.4426  0.8399  0.8257
  386MOL0     C52004   6.356   8.335   8.464  0.1584  0.1518 -0.1977
  386MOL0     C52005   6.358   8.235   8.572 -0.5194  0.4946  0.2890
  386MOL0     O52006   6.426   8.261   8.693  0.0607 -0.7249  0.2373
  386MOL0     C52007   6.445   8.162   8.783  1.0311  1.0888 -0.7241
  386MOL0     C52008   6.332   8.089   8.826  0.0173 -0.7878 -0.8073
  386MOL0     C52009   6.345   7.984   8.913 -0.5234 -0.2951  0.2827
  386MOL0     C52010   6.475   7.942   8.964 -0.4500 -0.4777  0.0816
  386MOL0     O52011   6.493   7.815   9.008 -1.0106 -0.2197  0.2531
  386MOL0     C52012   6.590   7.799   9.114 -0.6982 -1.4986 -0.4765
  386MOL0     C52013   6.546   7.690   9.200 -0.7482 -0.0840 -0.0573
  386MOL0     C52014   6.542   7.551   9.125 -0.2106  0.7261  0.4092
  386MOL0     C52015   6.692   7.515   9.087  0.9548 -0.1803 -0.3956
  386MOL0     C52016   6.722   7.365   9.086  0.5185  0.8783 -0.4605
  386MOL0     C52017   6.862   7.318   9.084 -0.1478  0.0410 -1.4480
  386MOL0     C52018   6.965   7.370   8.989  0.0622  0.3684  0.4845
  386MOL0     C52019   6.993   7.287   8.862 -0.6350 -0.5347  0.5202
  386MOL0    Cl52020   6.857   7.170   8.833 -0.5848 -0.5018  0.0617
  386MOL0     C52021   6.585   8.025   8.934 -0.7714 -0.1145  0.7551
  386MOL0     C52022   6.567   8.132   8.845  0.2865  0.2214  0.6544
  386MOL0     O52023   6.305   8.127   8.545  0.4113  0.3153 -0.9055
  386MOL0     C52024   6.452   8.430   8.480  0.6389 -0.2089 -0.1981
  386MOL0     C52025   6.470   8.533   8.382  0.2486  0.4437 -0.4476
  386MOL0     N52026   6.854   8.686   8.309 -0.3941 -0.1716 -1.1331
  386MOL0     N52027   6.889   8.689   8.436  0.0591  0.7656  0.4286
  386MOL0     C52028   6.017   8.260   8.972 -0.3131  0.0356 -0.4626
  386MOL0     C52029   5.898   8.191   8.995  0.3089  0.4522  0.8991
  386MOL0     C52030   5.586   7.948   9.148 -0.5183 -1.1739 -0.6448
  386MOL0     C52031   5.461   8.008   9.162  0.6819 -0.8786 -0.0838
  386MOL0     C52032   5.357   7.918   9.194  0.8539 -1.1418 -0.6997
  386MOL0     C52033   5.360   7.783   9.184 -0.3210 -1.0140  1.1031
  386MOL0     O52034   5.257   7.700   9.212 -0.6724  0.2333  0.3054
  386MOL0     C52035   5.121   7.745   9.215  0.2129  0.3218  0.3344
  386MOL0     C52036   5.021   7.625   9.193 -0.5482 -0.1415 -0.3249
  386MOL0     C52037   4.996   7.534   9.321  0.3445  0.3210  0.8204
  386MOL0     C52038   4.921   7.606   9.429 -0.3119 -0.5990  0.5993
  386MOL0     C52039   4.927   7.535   9.552 -0.0751  0.3496  0.5147
  386MOL0     C52040   4.906   7.453   9.639 -0.3540  0.0614 -1.1164
  386MOL0     C52041   5.478   7.722   9.150 -0.2184  0.8094 -0.5671
  386MOL0     C52042   5.596   7.800   9.142 -0.4361  0.0344 -0.1754
  386MOL0     H52043   5.743   8.395   9.205  1.9565 -0.0752  1.6463
  386MOL0     H52044   5.957   8.529   9.179 -1.6828  0.1055  1.5653
  386MOL0     H52045   6.089   8.627   8.921  0.9149  0.4816 -1.6272
  386MOL0     H52046   6.208   8.629   9.059  0.4492 -1.0875  0.5514
  386MOL0     H52047   6.378   8.538   8.903  0.3518  0.2310 -0.4975
  386MOL0     H52048   6.265   8.531   8.768  2.3220 -1.4800 -0.3562
  386MOL0     H52049   6.216   8.781   8.800 -1.7301  0.2419  3.8605
  386MOL0     H52050   6.364   8.779   8.905 -2.1257  0.3925 -0.6116
  386MOL0     H52051   6.358   8.690   8.606 -4.5991  3.9488 -0.9282
  386MOL0     H52052   6.394   8.853   8.653  0.0225 -0.2761 -0.5477
  386MOL0     H52053   6.566   8.754   8.823 -0.7990 -2.4468  1.3440
  386MOL0     H52054   6.565   8.626   8.712 -1.2758  0.7756  2.4409
  386MOL0     H52055   6.644   8.769   8.516  0.9001 -0.0815  1.5501
  386MOL0     H52056   6.603   8.917   8.618 -1.6935  0.0576  3.4193
  386MOL0     H52057   6.778   8.789   8.789  1.8625  0.2116  0.1314
  386MOL0     H52058   6.788   8.674   8.669 -1.3820 -0.6292  0.7909
  386MOL0     H52059   6.980   8.817   8.671  0.3182  0.5027 -0.2448
  386MOL0     H52060   6.872   8.968   8.638  1.3721  0.2166  0.5863
  386MOL0     H52061   6.916   9.012   8.374 -1.1982  0.3906  0.9304
  386MOL0     H52062   6.884   8.935   8.090  4.6487  0.0140  3.4962
  386MOL0     H52063   6.851   8.756   8.069 -1.0113  0.1803 -0.1686
  386MOL0     H52064   6.673   8.852   7.985 -1.7711  1.2304  0.3992
  386MOL0     H52065   6.669   8.980   8.106  0.6204 -0.4595  0.1169
  386MOL0     H52066   6.476   8.853   8.156 -2.5261  0.1276  5.0874
  386MOL0     H52067   6.592   8.830   8.284  0.4821  2.1987 -0.6924
  386MOL0     H52068   6.621   8.584   8.198 -0.5825 -2.6137 -2.9276
  386MOL0     H52069   6.578   8.642   8.040 -2.1017 -2.4807 -0.6472
  386MOL0     H52070   6.241   8.427   8.157 -1.5058  0.6285  0.8477
  386MOL0     H52071   6.130   8.186   8.410  0.2909 -1.0916  0.1263
  386MOL0     H52072   6.071   8.267   8.268 -0.9398 -2.3941 -0.6230
  386MOL0     H52073   6.218   8.167   8.251  1.2954 -0.0679  3.0418
  386MOL0     H52074   6.235   8.117   8.786  0.7268  0.5161 -1.6848
  386MOL0     H52075   6.258   7.928   8.942 -0.9378 -1.5412 -2.9722
  386MOL0     H52076   6.684   7.770   9.066  0.0938 -0.5530  0.4498
  386MOL0     H52077   6.623   7.884   9.175 -0.6803 -1.7791 -0.0961
  386MOL0     H52078   6.612   7.695   9.288  0.6797 -2.9012 -0.8570
  386MOL0     H52079   6.445   7.715   9.235  0.0205  0.4704  1.9094
  386MOL0     H52080   6.486   7.551   9.030 -1.3937 -2.9235  0.9722
  386MOL0     H52081   6.505   7.469   9.187 -0.2008 -0.0135 -0.5372
  386MOL0     H52082   6.697   7.537   8.980 -1.5124  1.1723 -0.2917
  386MOL0     H52083   6.768   7.562   9.150  1.7399 -3.5725  1.4294
  386MOL0     H52084   6.663   7.304   9.017  1.0146  1.2243 -1.2114
  386MOL0     H52085   6.688   7.329   9.183 -0.3960 -1.6030 -1.6136
  386MOL0     H52086   6.908   7.340   9.181 -1.6554  2.7811 -1.2374
  386MOL0     H52087   6.853   7.210   9.080 -2.7691  0.0408  1.2892
  386MOL0     H52088   7.059   7.385   9.042  0.7140 -0.2759 -0.4715
  386MOL0     H52089   6.937   7.466   8.943 -3.2857  1.7614  4.7109
  386MOL0     H52090   7.090   7.239   8.877 -0.2388  0.9896  3.5456
  386MOL0     H52091   6.994   7.351   8.772 -2.1369 -0.5908  0.4364
  386MOL0     H52092   6.683   8.013   8.978 -0.7036  0.9187  0.9130
  386MOL0     H52093   6.655   8.189   8.818  0.2296 -1.3203 -3.4223
  386MOL0     H52094   6.521   8.445   8.562  3.0807  0.5694 -2.2467
  386MOL0     H52095   6.541   8.605   8.420  0.6605 -1.6510  3.3095
  386MOL0     H52096   6.092   8.203   8.918  0.5022  0.3122  0.3573
  386MOL0     H52097   5.866   8.100   8.945  0.2157  1.1163 -0.2746
  386MOL0     H52098   5.436   8.111   9.181 -0.2117 -0.8362 -1.3794
  386MOL0     H52099   5.267   7.966   9.231  3.0179  3.3361 -0.6459
  386MOL0     H52100   5.109   7.787   9.316  0.4928 -0.6381  0.7767
  386MOL0     H52101   5.093   7.823   9.144  0.5066  0.4523  0.3574
  386MOL0     H52102   5.067   7.575   9.107  1.4073 -2.5307  1.9623
  386MOL0     H52103   4.924   7.664   9.160  0.5939  0.0752 -3.8819
  386MOL0     H52104   5.094   7.491   9.345  0.1093 -0.5710  0.2739
  386MOL0     H52105   4.960   7.436   9.287  3.0376 -0.4192 -0.2423
  386MOL0     H52106   4.816   7.613   9.399  0.6497  1.2730 -2.8847
  386MOL0     H52107   4.955   7.709   9.443 -2.2476 -0.0767  1.8418
  386MOL0     H52108   4.904   7.378   9.715  0.2071 -0.2629 -1.4149
  386MOL0     H52109   5.467   7.614   9.147  0.7579  0.7169 -2.1339
  386MOL0     H52110   5.689   7.748   9.121  0.8034  1.4484  1.4691
  387MOL0     O52111   4.630   3.780   0.360  0.0321 -0.0809  0.3635
  387MOL0     C52112   4.704   3.846   0.285 -1.6146 -1.0711  0.4309
  387MOL0     O52113   4.818   3.798   0.228  0.7024  0.0027  0.1909
  387MOL0     C52114   4.851   3.672   0.281  0.7872 -0.2146  0.3335
  387MOL0     C52115   4.802   3.556   0.209 -0.4502  0.4254  0.0343
  387MOL0     C52116   4.836   3.429   0.263  0.0225  0.1985 -0.3454
  387MOL0     C52117   4.928   3.422   0.367 -0.8669  0.2339 -0.5928
  387MOL0     O52118   4.966   3.307   0.430  0.1059  0.2759  0.2641
  387MOL0     C52119   4.971   3.193   0.348  0.5216  0.3305  0.4370
  387MOL0     C52120   4.849   3.105   0.391 -1.2147  0.7151  0.4952
  387MOL0     C52121   4.807   3.030   0.276  0.2738  0.6935 -0.4619
  387MOL0     C52122   4.695   2.927   0.298  0.4812 -0.1559 -0.7212
  387MOL0     C52123   4.642   2.851   0.172 -0.1556 -1.4970  0.6565
  387MOL0     C52124   4.591   2.713   0.195 -0.0548  0.4591  0.4158
  387MOL0     C52125   4.463   2.727   0.274  0.1809 -0.5891  0.0251
  387MOL0     C52126   4.401   2.589   0.315  0.1067  1.0287  0.3145
  387MOL0     N52127   4.487   2.513   0.398  0.0954 -0.1391  0.2435
  387MOL0     C52128   4.545   2.561   0.514  0.4917  0.9188 -1.1244
  387MOL0     C52129   4.629   2.457   0.539  0.0870 -0.4641 -0.0835
  387MOL0     C52130   4.731   2.462   0.658  0.4003  0.4409  0.7024
  387MOL0     C52131   4.857   2.540   0.632 -0.0922  0.3674 -0.0896
  387MOL0     C52132   4.823   2.685   0.666 -0.2518  0.0402  0.0143
  387MOL0     C52133   4.945   2.761   0.672  0.5350 -1.3196  0.2827
  387MOL0     O52134   4.922   2.903   0.717  0.0074 -0.1575 -0.4909
  387MOL0     C52135   4.938   2.929   0.853 -0.1613  0.0271 -0.1194
  387MOL0     C52136   4.962   2.833   0.952 -0.3917  0.4508 -0.8130
  387MOL0     C52137   4.960   2.857   1.085  0.3503 -0.1005 -0.0969
  387MOL0     C52138   4.926   2.738   1.178 -0.6230  0.2749 -0.2377
  387MOL0     C52139   4.941   2.993   1.128 -0.1397 -0.5929  0.0586
  387MOL0     C52140   4.958   3.039   1.272  0.1185 -0.2261 -0.3303
  387MOL0     O52141   4.909   3.167   1.307  0.1035 -0.3790 -0.5612
  387MOL0     C52142   4.907   3.221   1.435 -0.6479 -0.1546  0.1043
  387MOL0     C52143   4.888   3.359   1.444  0.3930 -0.3011 -0.4493
  387MOL0     C52144   4.911   3.415   1.569  0.0364  0.5435 -0.9836
  387MOL0     C52145   4.910   3.341   1.691  0.6580 -0.3613 -0.1790
  387MOL0     O52146   4.901   3.391   1.814 -0.6079 -0.2354  0.2995
  387MOL0     C52147   4.972   3.518   1.826  0.2338  0.2174  0.0743
  387MOL0     C52148   4.986   3.551   1.979  0.2293 -0.3212  0.2056
  387MOL0     C52149   5.100   3.478   2.047 -0.3118  0.1357 -0.1966
  387MOL0     C52150   5.054   3.333   2.093 -0.1026 -0.3618 -0.3954
  387MOL0     C52151   5.134   3.291   2.214  0.0325 -0.3586  0.1321
  387MOL0     C52152   5.102   3.371   2.350 -0.2835  0.8416  0.3126
  387MOL0     C52153   4.968   3.369   2.413 -0.0180 -0.8942 -0.3823
  387MOL0     C52154   4.975   3.342   2.561 -0.0582 -0.8515 -0.1745
  387MOL0    Cl52155   4.854   3.450   2.652  0.0235  0.0347  0.4255
  387MOL0     C52156   4.905   3.200   1.681  0.1737 -0.2882  0.1253
  387MOL0     C52157   4.902   3.146   1.551 -0.1987  0.7626  0.0375
  387MOL0     O52158   5.032   2.968   1.341  0.0482  0.6033  0.9098
  387MOL0     C52159   4.915   3.085   1.028  0.6365 -0.0549 -1.4066
  387MOL0     C52160   4.921   3.064   0.892 -0.9498 -0.1719  0.2208
  387MOL0     N52161   4.628   2.364   0.439 -1.3753  0.6750  0.3716
  387MOL0     N52162   4.549   2.403   0.348 -0.4240 -0.1948 -0.1294
  387MOL0     C52163   4.968   3.536   0.441  0.4603  0.4411  0.6363
  387MOL0     C52164   4.935   3.660   0.394 -1.3997  0.5369  0.8593
  387MOL0     C52165   4.672   3.985   0.246 -0.9155 -0.5567  0.8482
  387MOL0     C52166   4.537   4.022   0.226 -0.3611  0.7595  0.5853
  387MOL0     C52167   4.511   4.148   0.192  0.3517 -0.0926 -0.0509
  387MOL0     C52168   4.607   4.246   0.168  0.1147 -0.5852  0.6021
  387MOL0     O52169   4.574   4.380   0.155  0.9826 -0.0527  0.6043
  387MOL0     C52170   4.639   4.444   0.041  0.1758 -0.1918  0.1781
  387MOL0     C52171   4.561   4.565  -0.013  0.5544 -0.1882 -0.0598
  387MOL0     C52172   4.621   4.617  -0.140  0.1529 -0.5166 -0.3730
  387MOL0     C52173   4.530   4.730  -0.201  0.2864 -1.4570 -0.1173
  387MOL0     C52174   4.524   4.839  -0.106  0.8947  0.0672 -0.6325
  387MOL0     C52175   4.553   4.934  -0.035  0.5389  0.4727  1.2032
  387MOL0     C52176   4.740   4.209   0.183 -0.2463 -0.9803  0.7797
  387MOL0     C52177   4.776   4.085   0.223 -1.0659  0.8339  0.5681
  387MOL0     H52178   4.732   3.567   0.127  0.7400 -1.6665 -1.3398
  387MOL0     H52179   4.785   3.342   0.223 -0.2256 -0.7363  1.8639
  387MOL0     H52180   4.972   3.211   0.240 -4.0420 -1.4970 -0.1358
  387MOL0     H52181   5.044   3.121   0.387 -2.1338 -1.6273  2.1807
  387MOL0     H52182   4.882   3.046   0.477 -1.8273  1.4927  1.2753
  387MOL0     H52183   4.772   3.162   0.443 -1.7434 -0.5299  1.1160
  387MOL0     H52184   4.776   3.108   0.205 -2.8013 -0.5756 -0.6463
  387MOL0     H52185   4.889   2.967   0.239 -0.0521 -2.4187  3.5314
  387MOL0     H52186   4.737   2.845   0.359  0.4484  0.8806  0.7496
  387MOL0     H52187   4.618   2.976   0.359  0.3367 -0.9697 -0.2331
  387MOL0     H52188   4.570   2.920   0.127 -1.3233 -1.4434  2.5202
  387MOL0     H52189   4.720   2.847   0.095 -1.6319  1.3750 -1.1526
  387MOL0     H52190   4.586   2.647   0.108  2.2782 -0.9986  1.2993
  387MOL0     H52191   4.659   2.654   0.257  1.1234  0.6443 -0.6522
  387MOL0     H52192   4.477   2.792   0.361 -1.9383  3.1497 -2.1530
  387MOL0     H52193   4.386   2.777   0.215 -0.5465  0.4355  1.7915
  387MOL0     H52194   4.379   2.540   0.219  0.1183  1.7314 -0.0569
  387MOL0     H52195   4.306   2.605   0.367 -0.2722 -1.6926  0.5707
  387MOL0     H52196   4.532   2.659   0.560  1.7841  0.2965  0.6978
  387MOL0     H52197   4.683   2.498   0.749  0.8073  1.3539  0.5727
  387MOL0     H52198   4.764   2.359   0.673  1.4707  0.6401 -0.1301
  387MOL0     H52199   4.895   2.528   0.530 -0.2378 -4.5077  0.1614
  387MOL0     H52200   4.930   2.506   0.706  0.0974 -0.5075 -0.6655
  387MOL0     H52201   4.772   2.688   0.762 -2.7661 -1.0692 -1.1927
  387MOL0     H52202   4.762   2.714   0.580  1.7037 -0.2928 -1.5828
  387MOL0     H52203   4.979   2.783   0.571  0.6105  3.6976  1.1309
  387MOL0     H52204   5.024   2.700   0.717  1.1791 -2.7671 -2.6086
  387MOL0     H52205   4.973   2.730   0.920  1.7482  0.4328 -0.1651
  387MOL0     H52206   5.008   2.716   1.247 -0.1168 -1.2473 -1.2707
  387MOL0     H52207   4.838   2.767   1.237 -0.3183  2.4105 -0.7835
  387MOL0     H52208   4.904   2.646   1.122  2.0986 -0.8758  0.3997
  387MOL0     H52209   4.866   3.411   1.352  0.6878 -0.6017 -0.6976
  387MOL0     H52210   4.903   3.522   1.580 -1.6664  0.4055 -0.6998
  387MOL0     H52211   5.071   3.525   1.780 -0.4222 -1.7269 -1.7683
  387MOL0     H52212   4.912   3.599   1.786 -1.7477 -0.7779  0.9110
  387MOL0     H52213   5.002   3.659   1.988 -2.5860  0.5229 -2.8084
  387MOL0     H52214   4.891   3.529   2.029 -0.4997 -0.5829 -1.2360
  387MOL0     H52215   5.119   3.540   2.135 -2.8344 -1.0664  1.3284
  387MOL0     H52216   5.182   3.480   1.975 -0.7616  1.8612 -0.6853
  387MOL0     H52217   4.948   3.328   2.119 -0.9609  0.6783 -3.3862
  387MOL0     H52218   5.078   3.272   2.006  1.7314 -0.1338 -0.0932
  387MOL0     H52219   5.240   3.307   2.193 -0.4824 -0.7212 -3.3408
  387MOL0     H52220   5.126   3.183   2.223  0.1148 -0.1705  4.1376
  387MOL0     H52221   5.168   3.331   2.427 -4.0575 -0.9631  2.9588
  387MOL0     H52222   5.139   3.472   2.331 -3.4852  1.9326 -0.8495
  387MOL0     H52223   4.910   3.297   2.355  4.5863 -2.7816 -3.2859
  387MOL0     H52224   4.922   3.465   2.391  2.1523 -0.2835 -2.7305
  387MOL0     H52225   5.075   3.353   2.604 -0.0529  0.2269 -0.4439
  387MOL0     H52226   4.961   3.236   2.586  0.3515 -0.7986  0.2981
  387MOL0     H52227   4.896   3.138   1.770 -1.9893  1.5117  1.2739
  387MOL0     H52228   4.901   3.039   1.533  3.3776  0.4914  0.6261
  387MOL0     H52229   4.895   3.184   1.068  0.9843 -1.0233  1.4088
  387MOL0     H52230   4.918   3.152   0.829 -0.5873 -0.2363  0.1145
  387MOL0     H52231   5.034   3.525   0.526  0.1948  3.1014  1.2546
  387MOL0     H52232   4.971   3.757   0.429  0.3758  1.6670 -3.4168
  387MOL0     H52233   4.454   3.952   0.231 -0.0921  0.5365  2.7464
  387MOL0     H52234   4.409   4.174   0.167 -0.0732  0.5597  2.1564
  387MOL0     H52235   4.744   4.460   0.064  0.3671 -1.4199  0.2589
  387MOL0     H52236   4.643   4.385  -0.050  0.5265 -0.1967  0.1961
  387MOL0     H52237   4.570   4.640   0.066  0.6210 -1.5734  1.3116
  387MOL0     H52238   4.456   4.541  -0.031  0.2478 -0.1340  1.4859
  387MOL0     H52239   4.617   4.540  -0.218 -3.5416 -0.8765  0.0325
  387MOL0     H52240   4.724   4.656  -0.139 -0.2028  0.4873 -0.7281
  387MOL0     H52241   4.429   4.688  -0.213 -1.3737  1.9001  0.8259
  387MOL0     H52242   4.554   4.760  -0.304 -2.7805  0.0594 -0.5012
  387MOL0     H52243   4.592   5.006   0.034  0.9693  1.9080 -0.4878
  387MOL0     H52244   4.812   4.287   0.160 -2.8326  1.5490  0.6154
  387MOL0     H52245   4.879   4.057   0.242 -2.4319 -3.8776  2.6022
  388MOL0     O52246   1.854   3.796   8.991  0.4133 -0.8355 -0.1991
  388MOL0     C52247   1.755   3.751   8.926 -0.3311 -0.2009  0.2754
  388MOL0     O52248   1.716   3.627   8.913 -1.1695 -0.2735  1.5759
  388MOL0     C52249   1.793   3.525   8.973 -0.4517 -0.7426 -0.2942
  388MOL0     C52250   1.934   3.525   8.966 -0.6368  0.1499 -0.8455
  388MOL0     C52251   2.011   3.427   9.034  0.6387 -0.3508 -0.6042
  388MOL0     C52252   1.944   3.322   9.091  0.3111 -0.2469 -0.6063
  388MOL0     O52253   2.022   3.229   9.153  0.1761  0.5876 -0.2643
  388MOL0     C52254   1.992   3.091   9.140  0.4028  0.0628  0.3876
  388MOL0     C52255   2.123   3.011   9.170  0.1428 -0.0131 -0.7641
  388MOL0     C52256   2.208   3.074   9.275 -0.2799  0.0868 -0.8626
  388MOL0     C52257   2.338   2.990   9.301 -0.2366  0.0649 -0.5825
  388MOL0     C52258   2.442   3.043   9.409 -0.2456  0.0316  0.2561
  388MOL0     C52259   2.367   3.037   9.547 -0.1862  0.2545 -0.2121
  388MOL0     C52260   2.447   3.087   9.659 -0.1495  0.5625  0.1992
  388MOL0     C52261   2.395   3.046   9.792 -0.2209  0.4637 -0.1004
  388MOL0     N52262   2.477   3.095   9.905 -0.1215  0.6473 -0.0495
  388MOL0     C52263   2.510   3.230   9.911  0.7187  0.3487 -0.9464
  388MOL0     C52264   2.566   3.251  10.035  0.6409 -0.4397 -0.1727
  388MOL0     C52265   2.591   3.378  10.092 -0.8500 -0.6026 -0.7661
  388MOL0     C52266   2.469   3.413  10.172 -0.6354  0.2561  0.8604
  388MOL0     C52267   2.473   3.563  10.204 -0.4792 -0.8573  0.7313
  388MOL0     C52268   2.357   3.611  10.278 -0.0899 -0.4534 -0.2586
  388MOL0     O52269   2.370   3.628  10.422 -0.3945  0.2808  0.1366
  388MOL0     C52270   2.373   3.752  10.477 -0.2030  0.7919  0.2664
  388MOL0     C52271   2.409   3.869  10.411 -0.0940 -0.1159  0.1519
  388MOL0     C52272   2.407   3.984  10.480  0.1484 -0.5690 -0.3797
  388MOL0     C52273   2.438   4.100  10.395 -0.6816  0.8878  0.8088
  388MOL0     C52274   2.381   3.983  10.622  0.6878 -0.4608  0.1581
  388MOL0     C52275   2.404   4.103  10.702  0.8173  0.1570 -0.6755
  388MOL0     O52276   2.439   4.085  10.834  0.3984 -0.0048  0.4357
  388MOL0     C52277   2.449   4.205  10.904 -0.2481 -0.5373 -0.4319
  388MOL0     C52278   2.330   4.282  10.934 -0.3174  0.7941 -0.0507
  388MOL0     C52279   2.351   4.388  11.015 -0.0648 -0.6347 -0.4107
  388MOL0     C52280   2.475   4.437  11.069 -0.4372 -0.0955  1.1023
  388MOL0     O52281   2.461   4.531  11.161 -0.3030  0.5630 -0.3629
  388MOL0     C52282   2.564   4.630  11.159  0.5995 -0.0049 -0.0480
  388MOL0     C52283   2.567   4.725  11.032 -0.1302  0.2414  0.8758
  388MOL0     C52284   2.696   4.818  11.026 -0.1147  0.4779  1.5006
  388MOL0     C52285   2.814   4.737  10.977  0.3340 -0.8339 -0.6713
  388MOL0     C52286   2.830   4.732  10.828  0.4550 -0.2114  0.9613
  388MOL0     C52287   2.758   4.627  10.737 -0.5424 -1.1853 -0.4118
  388MOL0     C52288   2.835   4.622  10.601 -0.8804  0.7371 -0.4929
  388MOL0     C52289   2.819   4.495  10.526 -0.2712  0.7072  0.5195
  388MOL0    Cl52290   2.633   4.443  10.509  0.2926  0.4462  0.0516
  388MOL0     C52291   2.589   4.365  11.021  0.7020 -1.0427  0.2934
  388MOL0     C52292   2.576   4.251  10.943 -0.8356 -0.3715  0.6940
  388MOL0     O52293   2.360   4.203  10.655 -0.6805 -0.0891  0.0053
  388MOL0     C52294   2.349   3.870  10.687  0.4511 -0.5019  0.5011
  388MOL0     C52295   2.342   3.750  10.616 -0.8058 -0.2534  0.7572
  388MOL0     N52296   2.569   3.132  10.094 -0.7121  0.4532 -0.2667
  388MOL0     N52297   2.514   3.043  10.019  0.5910  0.0880 -0.6153
  388MOL0     C52298   1.806   3.314   9.083 -0.1344 -0.4694  0.3249
  388MOL0     C52299   1.728   3.413   9.028  0.0132 -0.3459 -0.4264
  388MOL0     C52300   1.680   3.851   8.850  0.2992 -0.0312 -0.3899
  388MOL0     C52301   1.553   3.813   8.802 -0.2812 -0.3102 -0.2140
  388MOL0     C52302   1.481   3.908   8.720  0.4381  0.2922 -1.1787
  388MOL0     C52303   1.537   4.025   8.671 -0.6046  0.0961  0.3507
  388MOL0     O52304   1.462   4.100   8.580  0.5478  0.0411 -0.3608
  388MOL0     C52305   1.526   4.160   8.467  0.4917  0.0731  1.0421
  388MOL0     C52306   1.627   4.065   8.401 -0.5260 -0.7281 -0.0535
  388MOL0     C52307   1.556   3.930   8.367 -0.4930  0.0788 -0.6557
  388MOL0     C52308   1.606   3.871   8.231  0.1292  0.3943 -0.7310
  388MOL0     C52309   1.748   3.837   8.232 -0.2800 -0.3813  0.1420
  388MOL0     C52310   1.870   3.827   8.228 -0.2085  0.4406 -0.8028
  388MOL0     C52311   1.661   4.055   8.718 -0.4426 -0.5238  0.4671
  388MOL0     C52312   1.734   3.980   8.810  0.3002  0.7087 -0.1271
  388MOL0     H52313   1.988   3.611   8.929  2.4732 -1.6116 -0.6678
  388MOL0     H52314   2.119   3.439   9.035  0.5828  0.1409  0.1831
  388MOL0     H52315   1.920   3.064   9.218 -0.2502  2.8058  0.8418
  388MOL0     H52316   1.959   3.068   9.038  0.8520  0.5012  0.1411
  388MOL0     H52317   2.108   2.910   9.208 -1.7742  0.6246  0.3284
  388MOL0     H52318   2.187   3.005   9.081  1.6091 -3.6937  0.3287
  388MOL0     H52319   2.239   3.177   9.257  0.8153  0.0815  0.7512
  388MOL0     H52320   2.146   3.061   9.365 -1.7024  2.3964 -1.4424
  388MOL0     H52321   2.317   2.885   9.323  2.1200 -0.4854 -0.6965
  388MOL0     H52322   2.398   2.990   9.209 -1.1838 -0.7026 -1.2233
  388MOL0     H52323   2.525   2.973   9.400  1.7043  2.2914 -0.1670
  388MOL0     H52324   2.471   3.145   9.381 -1.2925  0.1122 -0.6013
  388MOL0     H52325   2.275   3.094   9.527 -0.9131 -1.6824 -2.9616
  388MOL0     H52326   2.336   2.934   9.563  1.8264 -0.3638 -0.0640
  388MOL0     H52327   2.547   3.045   9.643 -0.3742 -0.2155  0.7556
  388MOL0     H52328   2.466   3.194   9.658  3.6795  0.0079 -1.0112
  388MOL0     H52329   2.397   2.937   9.800 -1.7505  0.4810  0.7957
  388MOL0     H52330   2.291   3.076   9.807 -1.2733 -3.4149  1.4324
  388MOL0     H52331   2.508   3.312   9.840 -1.4103  0.4976 -0.7760
  388MOL0     H52332   2.683   3.383  10.151 -0.6438 -4.1442 -0.5962
  388MOL0     H52333   2.601   3.450  10.009 -0.9345  1.9443  1.3071
  388MOL0     H52334   2.455   3.347  10.258 -1.1966  0.4222  0.8994
  388MOL0     H52335   2.386   3.394  10.103  0.6862  1.8217 -1.3012
  388MOL0     H52336   2.489   3.620  10.112 -1.4264  0.0293  1.1029
  388MOL0     H52337   2.560   3.583  10.267  0.4611  2.7159 -1.4811
  388MOL0     H52338   2.273   3.541  10.272 -1.3644  0.6902  2.5681
  388MOL0     H52339   2.303   3.696  10.234 -0.6369 -0.1424  0.9564
  388MOL0     H52340   2.418   3.861  10.303 -1.6559 -0.1282  0.0001
  388MOL0     H52341   2.407   4.075  10.293 -3.6011 -0.0635  1.8466
  388MOL0     H52342   2.380   4.189  10.418 -1.8047  0.9476 -1.8911
  388MOL0     H52343   2.547   4.112  10.393 -0.4101 -0.9730  1.9207
  388MOL0     H52344   2.229   4.253  10.905 -1.2031 -1.1292  4.2505
  388MOL0     H52345   2.272   4.456  11.048  1.6473  1.4441 -0.3386
  388MOL0     H52346   2.544   4.700  11.241  0.0508  2.1893 -1.9562
  388MOL0     H52347   2.665   4.594  11.180  0.0429 -1.5410  0.0944
  388MOL0     H52348   2.555   4.665  10.941 -1.0190  0.5778  0.7662
  388MOL0     H52349   2.480   4.790  11.046  0.8468  1.1631  3.1940
  388MOL0     H52350   2.708   4.851  11.129  1.0486 -1.2933  1.9859
  388MOL0     H52351   2.682   4.899  10.954  0.4949 -2.6434 -2.4993
  388MOL0     H52352   2.900   4.793  11.015 -1.9143  2.6379 -0.3071
  388MOL0     H52353   2.818   4.639  11.025 -1.4884 -0.2330  0.8000
  388MOL0     H52354   2.936   4.739  10.805 -0.3819  0.7958 -3.7256
  388MOL0     H52355   2.789   4.827  10.792 -1.2485 -0.6839  1.5470
  388MOL0     H52356   2.769   4.532  10.790  0.8054 -0.3309  0.9298
  388MOL0     H52357   2.653   4.658  10.730 -0.4863 -0.6752  0.7803
  388MOL0     H52358   2.942   4.636  10.616 -0.9308 -0.9501  2.1612
  388MOL0     H52359   2.785   4.699  10.541 -3.2875  0.1194  0.5687
  388MOL0     H52360   2.871   4.416  10.580 -1.1582  0.1294  0.5640
  388MOL0     H52361   2.856   4.515  10.425  0.1039  1.0122  0.7135
  388MOL0     H52362   2.686   4.404  11.054 -0.8115  0.3450  3.5901
  388MOL0     H52363   2.667   4.213  10.898 -1.4705  0.5900 -1.5511
  388MOL0     H52364   2.323   3.860  10.792  0.9005 -1.2251  0.5528
  388MOL0     H52365   2.313   3.657  10.664 -0.6355 -0.1981  0.9686
  388MOL0     H52366   1.775   3.231   9.146  2.3847 -1.6124  0.1693
  388MOL0     H52367   1.620   3.420   9.037 -0.1457  1.3640 -2.8073
  388MOL0     H52368   1.516   3.717   8.837  1.4930 -1.1053 -0.4175
  388MOL0     H52369   1.395   3.865   8.669  1.6077 -1.0840 -2.0322
  388MOL0     H52370   1.450   4.180   8.391  1.9846  0.0490 -0.5357
  388MOL0     H52371   1.587   4.247   8.490  2.2640  0.4442 -3.8575
  388MOL0     H52372   1.713   4.053   8.467 -0.4054  0.4563  0.0322
  388MOL0     H52373   1.659   4.121   8.313  0.9443 -0.9374  0.3328
  388MOL0     H52374   1.450   3.954   8.362 -1.0459 -1.2891  2.3875
  388MOL0     H52375   1.564   3.861   8.451 -0.0228 -0.8787 -1.4669
  388MOL0     H52376   1.582   3.947   8.157  0.3632  0.5234 -0.6734
  388MOL0     H52377   1.561   3.777   8.195  2.0560 -1.6290  1.7593
  388MOL0     H52378   1.974   3.812   8.209  0.7892  0.9251  3.4456
  388MOL0     H52379   1.701   4.155   8.703  0.1807 -0.7069  0.8621
  388MOL0     H52380   1.832   4.014   8.842  1.8597  0.3593 -4.0049
  389MOL0     O52381   2.334   7.435   1.266  0.2228 -0.2904 -0.2581
  389MOL0     C52382   2.345   7.314   1.246 -0.2227  0.1019  0.5560
  389MOL0     O52383   2.378   7.225   1.338  0.7048 -0.3855 -0.4239
  389MOL0     C52384   2.412   7.270   1.461  0.8944 -0.4142  0.5261
  389MOL0     C52385   2.530   7.346   1.477  0.0877  0.7205  0.6954
  389MOL0     C52386   2.567   7.387   1.607  0.1311 -0.4695 -1.0670
  389MOL0     C52387   2.501   7.353   1.727 -0.4580  0.2233 -0.2415
  389MOL0     O52388   2.517   7.395   1.852  0.8746 -0.3709  0.3139
  389MOL0     C52389   2.587   7.515   1.874 -0.4716  0.9971 -0.0736
  389MOL0     C52390   2.572   7.555   2.019 -0.8560 -0.6097  0.2527
  389MOL0     C52391   2.436   7.505   2.083 -0.0331 -0.8583  0.2367
  389MOL0     C52392   2.387   7.597   2.200 -0.4034  0.7580 -0.0921
  389MOL0     C52393   2.247   7.536   2.236  0.0795  0.2108 -0.1540
  389MOL0     C52394   2.178   7.591   2.362  0.1669 -0.0423 -0.3126
  389MOL0     C52395   2.197   7.747   2.374  0.7882  1.2386 -0.3437
  389MOL0     C52396   2.111   7.819   2.476 -0.7211  0.5564  0.2172
  389MOL0     N52397   2.142   7.808   2.622  0.0278 -0.5288 -0.1563
  389MOL0     C52398   2.126   7.693   2.700 -1.6573  0.5552  0.1068
  389MOL0     C52399   2.175   7.726   2.822  0.4097 -0.8644 -1.0495
  389MOL0     C52400   2.187   7.655   2.959 -0.4465 -0.5621 -0.4660
  389MOL0     C52401   2.315   7.676   3.031  0.0297  0.5776  0.6275
  389MOL0     C52402   2.290   7.737   3.171 -0.1767  0.0061 -0.0656
  389MOL0     C52403   2.413   7.787   3.235  0.6966 -1.1149  0.3831
  389MOL0     O52404   2.484   7.672   3.288  0.0795 -0.2840  0.1774
  389MOL0     C52405   2.448   7.612   3.406  0.9934 -0.4196 -0.5268
  389MOL0     C52406   2.520   7.504   3.443  0.0229 -0.3408  0.5890
  389MOL0     C52407   2.504   7.445   3.564  0.4497 -0.2929  0.0768
  389MOL0     C52408   2.599   7.337   3.586  0.1794 -0.7918  0.5537
  389MOL0     C52409   2.408   7.486   3.658 -0.3817  0.2312 -0.5239
  389MOL0     C52410   2.403   7.445   3.798  0.2711 -0.4304 -1.3364
  389MOL0     O52411   2.316   7.515   3.881  0.0309 -0.3042 -0.0023
  389MOL0     C52412   2.282   7.477   4.005 -0.3088 -0.3482  1.1103
  389MOL0     C52413   2.168   7.401   4.029 -0.2936  0.5777  0.7322
  389MOL0     C52414   2.125   7.372   4.157 -0.2638  0.7790  0.6461
  389MOL0     C52415   2.188   7.430   4.262 -0.4292  0.0858 -0.4944
  389MOL0     O52416   2.147   7.429   4.397 -0.4891 -0.2641  0.2534
  389MOL0     C52417   2.106   7.304   4.461 -1.0441 -0.2810  0.4183
  389MOL0     C52418   2.073   7.325   4.606 -0.4852  0.1658  0.1516
  389MOL0     C52419   1.926   7.332   4.638  0.2744 -0.4444  0.5810
  389MOL0     C52420   1.860   7.469   4.606 -0.5455  0.1993  0.3015
  389MOL0     C52421   1.710   7.462   4.555 -1.1432 -0.2810  0.5843
  389MOL0     C52422   1.698   7.421   4.405  0.2911 -0.0341  0.4570
  389MOL0     C52423   1.559   7.366   4.374 -0.0830  0.0724  0.3724
  389MOL0     C52424   1.442   7.450   4.428  0.4432 -0.7592  0.0443
  389MOL0    Cl52425   1.285   7.372   4.369  0.1471  0.2172 -0.2611
  389MOL0     C52426   2.292   7.521   4.236 -0.0454  0.3819 -0.1122
  389MOL0     C52427   2.340   7.546   4.111  0.2273  0.1079  0.4753
  389MOL0     O52428   2.465   7.350   3.837  0.2551 -0.5305  0.6634
  389MOL0     C52429   2.323   7.590   3.617  1.0012  0.0381  0.1066
  389MOL0     C52430   2.348   7.655   3.497  0.1485  0.3176  0.3551
  389MOL0     N52431   2.223   7.856   2.812  0.1594 -0.5084 -0.4970
  389MOL0     N52432   2.210   7.899   2.691 -0.1251 -0.7304 -0.1583
  389MOL0     C52433   2.403   7.263   1.704 -0.7714  1.0696  0.9800
  389MOL0     C52434   2.352   7.219   1.572  0.6994  0.0645 -0.4828
  389MOL0     C52435   2.318   7.261   1.111  0.5219  0.1834 -0.7782
  389MOL0     C52436   2.292   7.353   1.010  0.5714 -0.2102 -0.9061
  389MOL0     C52437   2.277   7.308   0.880 -0.4189 -0.0359  0.0934
  389MOL0     C52438   2.271   7.170   0.851 -0.4678  0.3994 -0.0797
  389MOL0     O52439   2.243   7.114   0.732 -0.3958 -0.0764  0.1305
  389MOL0     C52440   2.247   7.201   0.616  1.0045 -1.0159 -0.0611
  389MOL0     C52441   2.241   7.116   0.488 -0.3975 -0.2690 -0.7556
  389MOL0     C52442   2.346   7.010   0.489  0.1130  1.1280  0.3423
  389MOL0     C52443   2.380   6.939   0.356 -0.2161 -0.1275  0.4879
  389MOL0     C52444   2.402   7.027   0.240  0.3191 -0.2584 -0.3582
  389MOL0     C52445   2.432   7.115   0.155  0.8231 -0.6048 -0.2620
  389MOL0     C52446   2.294   7.083   0.950 -0.1521 -0.4654 -0.9800
  389MOL0     C52447   2.322   7.124   1.080 -0.2988  0.0202 -0.1503
  389MOL0     H52448   2.582   7.384   1.389 -2.5239 -0.6447 -1.6235
  389MOL0     H52449   2.646   7.462   1.600  0.4579 -0.5790  1.0274
  389MOL0     H52450   2.693   7.506   1.850 -1.0234 -1.5711 -2.0048
  389MOL0     H52451   2.559   7.604   1.815 -0.6339  1.4061  0.6046
  389MOL0     H52452   2.651   7.504   2.075 -0.1042  2.2519  2.0089
  389MOL0     H52453   2.577   7.663   2.031  0.3473 -0.5442 -0.5879
  389MOL0     H52454   2.362   7.528   2.005 -1.0629  2.2373  1.9497
  389MOL0     H52455   2.423   7.398   2.100 -1.8629 -1.0107 -1.6497
  389MOL0     H52456   2.458   7.590   2.283  0.0179 -2.0609 -0.6170
  389MOL0     H52457   2.397   7.699   2.161  1.0182  1.3878  1.7548
  389MOL0     H52458   2.184   7.551   2.148 -0.3278 -0.6863 -0.0308
  389MOL0     H52459   2.262   7.429   2.251 -0.4419  0.1116 -0.3079
  389MOL0     H52460   2.073   7.567   2.344  0.4435 -0.6770 -1.1488
  389MOL0     H52461   2.223   7.542   2.449  2.6028  1.1297 -0.8374
  389MOL0     H52462   2.306   7.759   2.380  0.8292  3.0142 -2.8257
  389MOL0     H52463   2.160   7.798   2.284 -0.7584  0.9073  0.0870
  389MOL0     H52464   2.013   7.772   2.464  0.4629 -2.0461  0.1279
  389MOL0     H52465   2.104   7.924   2.447 -0.6996 -0.3806 -3.6337
  389MOL0     H52466   2.080   7.605   2.658 -0.3370 -0.0760 -0.0685
  389MOL0     H52467   2.094   7.670   3.015 -0.9482 -2.1722 -0.8156
  389MOL0     H52468   2.184   7.554   2.916 -4.0717 -1.5218  1.6186
  389MOL0     H52469   2.391   7.730   2.974 -0.1056  0.6274  0.4932
  389MOL0     H52470   2.350   7.573   3.038 -2.8941 -0.5555  0.1109
  389MOL0     H52471   2.225   7.671   3.229  1.3874 -0.7889  0.8530
  389MOL0     H52472   2.225   7.825   3.160  0.3700  0.1830 -2.6265
  389MOL0     H52473   2.386   7.857   3.315  1.1723 -0.2902 -0.1661
  389MOL0     H52474   2.469   7.845   3.161  1.1879 -0.7720  1.0136
  389MOL0     H52475   2.588   7.452   3.376  2.5082  1.4139  1.6299
  389MOL0     H52476   2.546   7.243   3.600  0.4775 -0.7591  1.9732
  389MOL0     H52477   2.653   7.302   3.497  0.8059 -2.0907  1.4053
  389MOL0     H52478   2.670   7.348   3.668  1.1584 -0.0606 -0.3521
  389MOL0     H52479   2.112   7.359   3.946 -2.1267 -1.7057  2.9917
  389MOL0     H52480   2.044   7.301   4.150  0.2172  0.1522  1.2371
  389MOL0     H52481   2.027   7.260   4.399  0.3338 -2.3676  0.0501
  389MOL0     H52482   2.199   7.248   4.456 -0.8878  0.0763 -1.2762
  389MOL0     H52483   2.114   7.242   4.664 -1.1168 -2.0406 -2.3733
  389MOL0     H52484   2.125   7.417   4.637  0.2594  0.1416 -0.9761
  389MOL0     H52485   1.901   7.317   4.743 -1.1443 -0.4460  0.2531
  389MOL0     H52486   1.876   7.248   4.589  0.8697 -0.8712  0.6914
  389MOL0     H52487   1.864   7.513   4.706  1.8444 -0.8946  0.7651
  389MOL0     H52488   1.922   7.526   4.536  0.7664  0.1802  1.4023
  389MOL0     H52489   1.665   7.561   4.569  2.3905  1.1391  3.6459
  389MOL0     H52490   1.648   7.393   4.613  1.2456 -1.6981  1.5837
  389MOL0     H52491   1.706   7.515   4.349  0.4995 -1.0340 -1.2305
  389MOL0     H52492   1.776   7.353   4.370 -0.1618 -0.6216  0.5744
  389MOL0     H52493   1.549   7.272   4.428  2.6215 -1.2482 -1.2636
  389MOL0     H52494   1.528   7.346   4.271 -0.2677 -0.2835  0.4951
  389MOL0     H52495   1.452   7.552   4.389 -3.3603 -0.6282 -1.0105
  389MOL0     H52496   1.444   7.453   4.537  0.3459 -1.3197  0.0636
  389MOL0     H52497   2.342   7.568   4.319  1.0332 -1.8580  0.5894
  389MOL0     H52498   2.427   7.610   4.111 -1.1873  2.2901 -2.5731
  389MOL0     H52499   2.249   7.625   3.689 -0.3628  1.3922 -1.8733
  389MOL0     H52500   2.292   7.747   3.489 -0.7579 -0.2591 -0.1208
  389MOL0     H52501   2.354   7.219   1.791  2.2873  0.2511  2.4572
  389MOL0     H52502   2.278   7.141   1.562  0.1919  0.2270  1.4998
  389MOL0     H52503   2.276   7.458   1.032  2.8234  0.3234 -1.6194
  389MOL0     H52504   2.234   7.373   0.804 -0.0585 -0.8990 -0.8835
  389MOL0     H52505   2.168   7.277   0.606  0.0297 -1.4673  3.1992
  389MOL0     H52506   2.333   7.268   0.622  0.5599 -0.5349  1.2192
  389MOL0     H52507   2.252   7.185   0.403 -1.8327  1.6333  0.5362
  389MOL0     H52508   2.147   7.066   0.461  0.5765 -1.8097 -1.4896
  389MOL0     H52509   2.303   6.937   0.559  0.0605  0.5989 -0.2267
  389MOL0     H52510   2.446   7.022   0.533  2.5749 -0.3114 -4.1904
  389MOL0     H52511   2.297   6.868   0.342 -1.0310  1.0795 -1.1855
  389MOL0     H52512   2.474   6.884   0.367 -0.6575 -1.4982 -1.9139
  389MOL0     H52513   2.450   7.189   0.080 -0.3305 -0.2038 -0.1599
  389MOL0     H52514   2.304   6.978   0.924 -2.3271 -0.6775 -1.0790
  389MOL0     H52515   2.342   7.046   1.152 -1.1851 -0.0447  0.0387
  390MOL0     O52516   7.784   2.507   4.077 -0.6109  0.4678 -0.6103
  390MOL0     C52517   7.752   2.539   4.187 -0.9150  0.0877 -0.4862
  390MOL0     O52518   7.832   2.572   4.289 -0.1580 -0.5825 -0.3397
  390MOL0     C52519   7.964   2.567   4.283  0.2790  0.4673 -0.1293
  390MOL0     C52520   8.042   2.678   4.286 -0.0248  0.2647 -0.2101
  390MOL0     C52521   8.184   2.667   4.296 -0.5564  0.0494  0.8733
  390MOL0     C52522   8.246   2.539   4.290  0.5243 -0.4666 -0.4426
  390MOL0     O52523   8.382   2.531   4.288  0.8766 -0.7907 -0.9272
  390MOL0     C52524   8.462   2.418   4.336 -0.1452  0.0825 -0.3863
  390MOL0     C52525   8.612   2.449   4.357  0.4151 -0.2867 -1.2306
  390MOL0     C52526   8.709   2.343   4.409 -0.4170 -0.1871 -0.2802
  390MOL0     C52527   8.858   2.404   4.416  0.9238  0.3411 -1.0044
  390MOL0     C52528   8.964   2.296   4.458 -0.1640  0.3185 -0.0706
  390MOL0     C52529   8.930   2.239   4.600  0.5249 -0.2750  0.9532
  390MOL0     C52530   9.038   2.156   4.650  0.1701 -0.6056  0.0483
  390MOL0     C52531   9.029   2.009   4.603  0.4055 -0.1338 -0.0622
  390MOL0     N52532   8.936   1.937   4.694 -0.2022 -0.9267  0.7053
  390MOL0     C52533   8.979   1.897   4.812 -0.1715  0.3991 -1.0986
  390MOL0     C52534   8.868   1.840   4.865  0.3996  0.3459 -0.3165
  390MOL0     C52535   8.845   1.781   5.003  0.4353 -0.0338 -0.2775
  390MOL0     C52536   8.769   1.880   5.092  0.9349  0.6337  0.0904
  390MOL0     C52537   8.775   1.840   5.239  0.3217  0.5353 -0.3448
  390MOL0     C52538   8.696   1.938   5.336 -0.7232 -0.6391  0.4677
  390MOL0     O52539   8.562   1.883   5.356  0.5260  0.8986 -0.1697
  390MOL0     C52540   8.545   1.808   5.468  0.4533  0.3268 -0.5824
  390MOL0     C52541   8.410   1.779   5.488 -1.1277  0.3942  0.2049
  390MOL0     C52542   8.378   1.688   5.586  0.4773 -0.0283  0.4548
  390MOL0     C52543   8.235   1.650   5.604 -0.3172 -0.2918  0.2603
  390MOL0     C52544   8.485   1.623   5.658 -0.9884 -0.2370  0.2921
  390MOL0     C52545   8.459   1.524   5.760  0.4240 -0.6151 -0.8281
  390MOL0     O52546   8.492   1.386   5.734 -0.2361 -0.7772 -0.6518
  390MOL0     C52547   8.474   1.294   5.832  0.4678 -0.6973  0.3227
  390MOL0     C52548   8.364   1.200   5.814  0.1238  0.1651 -0.7752
  390MOL0     C52549   8.333   1.116   5.925  0.7696  0.1020 -0.6349
  390MOL0     C52550   8.415   1.120   6.039  0.1555 -0.8553 -0.5113
  390MOL0     O52551   8.383   1.049   6.145 -0.4655  0.0392 -0.4430
  390MOL0     C52552   8.290   1.115   6.241 -0.0499 -0.5778 -0.7694
  390MOL0     C52553   8.345   1.094   6.377  0.3388  0.1100 -0.6814
  390MOL0     C52554   8.246   1.074   6.500 -0.8444 -0.0845  0.3426
  390MOL0     C52555   8.319   1.068   6.635 -0.0275  0.4471  0.5675
  390MOL0     C52556   8.223   1.020   6.749  0.2300 -0.5738  0.0577
  390MOL0     C52557   8.098   1.113   6.760  0.0883 -0.3790 -0.3356
  390MOL0     C52558   8.012   1.084   6.883  0.3710  0.0810 -0.0083
  390MOL0     C52559   7.899   1.192   6.891 -0.2285  0.2921  0.4475
  390MOL0    Cl52560   7.783   1.161   7.022  0.6094 -0.6590 -0.3850
  390MOL0     C52561   8.530   1.198   6.044 -0.6457  0.4445 -0.1616
  390MOL0     C52562   8.558   1.290   5.944  0.6927 -1.4443  1.6436
  390MOL0     O52563   8.413   1.569   5.869 -0.2947 -0.1807 -0.2771
  390MOL0     C52564   8.618   1.654   5.638  0.4398  0.5456  0.5177
  390MOL0     C52565   8.652   1.745   5.548  0.4111  0.0391  0.9923
  390MOL0     N52566   8.761   1.847   4.768 -1.5934 -0.1520 -0.6566
  390MOL0     N52567   8.807   1.903   4.668 -1.2561  0.4208  0.1370
  390MOL0     C52568   8.167   2.423   4.270  0.2400  0.0103 -0.7516
  390MOL0     C52569   8.025   2.440   4.273  0.2479  0.1072 -0.3934
  390MOL0     C52570   7.608   2.519   4.214 -0.5282  0.4100 -0.8417
  390MOL0     C52571   7.558   2.552   4.337  0.7556 -0.9695  0.2820
  390MOL0     C52572   7.430   2.501   4.383 -0.0644 -0.5895  0.1742
  390MOL0     C52573   7.351   2.423   4.296 -0.7446 -0.7860 -0.4527
  390MOL0     O52574   7.229   2.372   4.330 -0.6123  0.8860  0.2546
  390MOL0     C52575   7.164   2.395   4.456  0.1820  1.3760 -0.0166
  390MOL0     C52576   7.023   2.335   4.462  0.0142  1.2421 -0.2330
  390MOL0     C52577   6.957   2.374   4.591 -0.0954 -0.8296  0.1446
  390MOL0     C52578   6.929   2.520   4.620 -0.6080 -0.1928  0.5220
  390MOL0     C52579   6.837   2.598   4.527 -0.7290 -0.3757  0.0809
  390MOL0     C52580   6.763   2.658   4.459 -0.8873  0.0464  0.2369
  390MOL0     C52581   7.401   2.398   4.166 -0.6807 -0.2850  0.1381
  390MOL0     C52582   7.529   2.449   4.123  1.1580 -0.4257 -0.7460
  390MOL0     H52583   7.997   2.777   4.294  0.5891  0.3749  3.2964
  390MOL0     H52584   8.259   2.745   4.307 -0.1458 -0.4669  1.7711
  390MOL0     H52585   8.427   2.374   4.430  2.2894 -0.9661  0.1125
  390MOL0     H52586   8.468   2.337   4.263  2.2257  0.2085 -0.4090
  390MOL0     H52587   8.660   2.498   4.271  1.5491 -0.8572 -0.9470
  390MOL0     H52588   8.599   2.526   4.434 -0.9648 -0.7533 -0.9731
  390MOL0     H52589   8.680   2.319   4.512  0.5203  0.1413  0.0701
  390MOL0     H52590   8.704   2.255   4.345 -2.8010  1.6870 -2.9200
  390MOL0     H52591   8.879   2.442   4.316 -0.2460 -0.0489 -1.4170
  390MOL0     H52592   8.852   2.487   4.487 -1.3677 -3.2566  3.6033
  390MOL0     H52593   8.978   2.210   4.392  0.0101  0.7925 -0.6588
  390MOL0     H52594   9.056   2.355   4.467 -2.0373  3.5594 -0.5734
  390MOL0     H52595   8.917   2.330   4.660  3.1352  0.1237  1.0088
  390MOL0     H52596   8.829   2.197   4.606 -0.7065  1.8466 -2.2917
  390MOL0     H52597   9.135   2.196   4.621  0.7950  2.5957  5.2314
  390MOL0     H52598   9.044   2.161   4.759 -1.3846  2.5301  0.0934
  390MOL0     H52599   9.121   1.951   4.598  1.2702  1.1190  0.8560
  390MOL0     H52600   8.995   1.996   4.500 -0.1704  0.3339  0.0585
  390MOL0     H52601   9.078   1.903   4.856 -0.4172  0.6301 -0.5558
  390MOL0     H52602   8.788   1.687   4.998  0.9568 -0.4478  1.1538
  390MOL0     H52603   8.944   1.755   5.041  1.9311  0.0166 -3.8205
  390MOL0     H52604   8.664   1.874   5.063  1.0080 -0.7540  0.0604
  390MOL0     H52605   8.803   1.983   5.073  2.0649  0.0070 -1.4568
  390MOL0     H52606   8.875   1.832   5.282  0.0171  2.7316  0.9402
  390MOL0     H52607   8.734   1.739   5.250  3.3504 -1.3919 -4.2168
  390MOL0     H52608   8.685   2.038   5.294  1.7062  0.2724  1.8265
  390MOL0     H52609   8.745   1.948   5.433  0.6343  2.9203 -0.4510
  390MOL0     H52610   8.322   1.824   5.444 -2.2136  0.3094  2.1428
  390MOL0     H52611   8.162   1.719   5.561 -4.9865 -2.3977  3.9652
  390MOL0     H52612   8.219   1.553   5.555 -1.2285 -0.6569  1.2595
  390MOL0     H52613   8.201   1.649   5.708 -1.6251 -1.3578 -0.1533
  390MOL0     H52614   8.295   1.204   5.730 -1.1023 -0.9822  0.1513
  390MOL0     H52615   8.251   1.046   5.930 -1.4492  2.6468  1.4983
  390MOL0     H52616   8.296   1.223   6.221 -0.1582 -0.6014 -0.9370
  390MOL0     H52617   8.194   1.069   6.216 -1.2243  0.1667  1.9885
  390MOL0     H52618   8.420   1.014   6.379  0.7729  0.3159 -3.8396
  390MOL0     H52619   8.398   1.187   6.398 -1.1464  0.9423 -0.5114
  390MOL0     H52620   8.193   0.979   6.494 -0.2883 -0.3863  0.1497
  390MOL0     H52621   8.174   1.156   6.498  0.9205  1.5444 -1.4124
  390MOL0     H52622   8.403   0.998   6.634 -0.3494 -0.4243 -5.5975
  390MOL0     H52623   8.354   1.169   6.657  1.2666  0.4014 -1.0901
  390MOL0     H52624   8.280   1.021   6.842  1.9473  2.6046 -0.8694
  390MOL0     H52625   8.187   0.918   6.738 -1.6115 -0.1474  1.5882
  390MOL0     H52626   8.138   1.215   6.763  1.9412 -1.0725 -0.2524
  390MOL0     H52627   8.036   1.110   6.670 -2.2775  2.1412  1.0418
  390MOL0     H52628   8.072   1.091   6.974  0.5595 -1.3936  0.0100
  390MOL0     H52629   7.975   0.983   6.864  2.9216 -1.3011  1.6988
  390MOL0     H52630   7.837   1.191   6.801 -1.7385 -2.1368  1.4215
  390MOL0     H52631   7.944   1.291   6.898 -1.5096  1.0674 -1.5651
  390MOL0     H52632   8.587   1.190   6.136 -0.8236 -1.0255 -0.1623
  390MOL0     H52633   8.632   1.370   5.946 -2.0656  1.7621 -3.0150
  390MOL0     H52634   8.701   1.595   5.675  0.2305  0.7160  1.2761
  390MOL0     H52635   8.757   1.753   5.524  0.1371 -0.6810 -0.5864
  390MOL0     H52636   8.214   2.328   4.248  2.7937  0.9698  0.1106
  390MOL0     H52637   7.971   2.347   4.264  0.9277 -0.2862 -0.4917
  390MOL0     H52638   7.620   2.613   4.402 -3.0533  2.2057  1.3652
  390MOL0     H52639   7.397   2.513   4.486  0.5219 -2.1839  0.5791
  390MOL0     H52640   7.223   2.371   4.546 -0.2168 -0.8035 -0.2955
  390MOL0     H52641   7.154   2.504   4.461  3.0753  1.7097  0.0923
  390MOL0     H52642   7.024   2.227   4.444 -1.0049  1.6758 -3.6047
  390MOL0     H52643   6.968   2.371   4.375  1.3042  1.3479 -1.0439
  390MOL0     H52644   7.021   2.330   4.668  2.3854  1.9883 -0.0925
  390MOL0     H52645   6.855   2.335   4.588 -1.1327  1.6914 -3.1303
  390MOL0     H52646   7.020   2.580   4.616 -0.1567 -0.9247 -2.0591
  390MOL0     H52647   6.883   2.531   4.718 -1.2250  1.8062  0.0542
  390MOL0     H52648   6.690   2.723   4.416 -3.3706  0.5273  4.6006
  390MOL0     H52649   7.350   2.339   4.090 -0.3092 -0.8278  0.3041
  390MOL0     H52650   7.568   2.415   4.027 -1.2593 -4.4036 -0.5687
  391MOL0     O52651  10.557   7.639   2.180  0.4093  0.1750 -0.8778
  391MOL0     C52652  10.598   7.627   2.300  0.3551  0.3651  0.2942
  391MOL0     O52653  10.726   7.666   2.333 -0.8834  0.0927 -0.4959
  391MOL0     C52654  10.798   7.734   2.238 -0.5877 -0.0467  0.4622
  391MOL0     C52655  10.764   7.861   2.204  0.4594 -0.2769 -0.0297
  391MOL0     C52656  10.830   7.934   2.121 -0.3094 -1.1125 -0.4545
  391MOL0     C52657  10.949   7.880   2.064  0.3685 -1.0702  0.7927
  391MOL0     O52658  11.023   7.944   1.975 -0.2144 -0.2694  0.4877
  391MOL0     C52659  11.021   8.084   1.952  0.0031 -1.1686  0.4625
  391MOL0     C52660  11.058   8.127   1.811  1.2360 -0.4847  0.6592
  391MOL0     C52661  11.201   8.110   1.782 -0.2673 -0.3316  0.1433
  391MOL0     C52662  11.267   8.212   1.690  0.6544  0.3177  0.1678
  391MOL0     C52663  11.380   8.152   1.614  0.2102 -0.6638  0.0192
  391MOL0     C52664  11.430   8.259   1.511 -0.3996  0.0006 -0.2452
  391MOL0     C52665  11.557   8.216   1.439 -0.1869  0.1811  0.4966
  391MOL0     C52666  11.527   8.175   1.291  0.6846 -0.2141 -0.3658
  391MOL0     N52667  11.464   8.270   1.194 -0.0526 -0.6011 -0.7996
  391MOL0     C52668  11.532   8.377   1.137 -0.4183  0.1473  0.4648
  391MOL0     C52669  11.439   8.454   1.087 -0.2768 -0.3235 -0.1197
  391MOL0     C52670  11.484   8.581   1.023  0.0278  0.1097  0.4930
  391MOL0     C52671  11.545   8.562   0.885 -0.2434  0.3269  0.0234
  391MOL0     C52672  11.474   8.457   0.788 -0.0511 -0.8583  0.5732
  391MOL0     C52673  11.336   8.520   0.751 -0.3672  0.8484 -0.0531
  391MOL0     O52674  11.284   8.416   0.661 -0.5180 -0.4426 -0.4118
  391MOL0     C52675  11.152   8.382   0.690  0.8273  0.3879  0.0756
  391MOL0     C52676  11.132   8.302   0.809  0.0303 -0.1392 -0.1929
  391MOL0     C52677  11.011   8.277   0.865  0.3011  0.0725  0.9661
  391MOL0     C52678  11.012   8.204   0.992 -0.6482  0.5631  0.8786
  391MOL0     C52679  10.898   8.326   0.802  0.5787  0.1997 -0.8026
  391MOL0     C52680  10.761   8.302   0.847 -0.0826 -0.4973  0.9285
  391MOL0     O52681  10.738   8.227   0.953 -0.0780 -0.3797  1.1592
  391MOL0     C52682  10.613   8.211   1.007  0.1497  0.4960  0.3834
  391MOL0     C52683  10.524   8.134   0.942 -0.9669 -0.6403 -0.6577
  391MOL0     C52684  10.404   8.091   1.011 -0.1467 -0.3953 -0.2042
  391MOL0     C52685  10.388   8.110   1.149 -0.5948 -0.6699 -0.5541
  391MOL0     O52686  10.289   8.064   1.225  0.7699 -0.8029 -0.1316
  391MOL0     C52687  10.311   8.032   1.357 -0.4445  0.3577 -0.4231
  391MOL0     C52688  10.220   7.910   1.390 -0.5380 -1.2619 -0.7270
  391MOL0     C52689  10.223   7.879   1.537  0.4295  0.4112  0.1064
  391MOL0     C52690  10.088   7.824   1.588 -0.4050  0.8862  0.1004
  391MOL0     C52691  10.077   7.856   1.739  0.0712 -0.5714  0.8122
  391MOL0     C52692  10.178   7.781   1.824  0.5421 -0.2341  0.1179
  391MOL0     C52693  10.152   7.815   1.977  0.5805  0.2841 -0.0214
  391MOL0     C52694  10.243   7.741   2.073  0.1624 -0.2215 -0.1957
  391MOL0    Cl52695  10.226   7.766   2.249  0.2392  0.3040  0.2002
  391MOL0     C52696  10.491   8.193   1.214  0.0959  0.0079  0.2426
  391MOL0     C52697  10.596   8.243   1.139 -0.2550  0.7077 -0.9356
  391MOL0     O52698  10.673   8.342   0.762 -0.8939 -1.1048  0.0582
  391MOL0     C52699  10.909   8.402   0.685  0.0934 -0.3763 -0.0460
  391MOL0     C52700  11.034   8.437   0.641 -0.2077  0.1527 -0.0648
  391MOL0     N52701  11.314   8.397   1.098 -0.5561 -0.4774 -0.7117
  391MOL0     N52702  11.329   8.284   1.161  0.3028  0.1088 -0.5219
  391MOL0     C52703  10.985   7.746   2.091  0.2365 -0.6990  0.7721
  391MOL0     C52704  10.905   7.671   2.176  0.1464 -0.0735  0.2942
  391MOL0     C52705  10.511   7.558   2.395 -0.3319  0.0021 -0.5245
  391MOL0     C52706  10.384   7.500   2.366  1.1115 -0.9014  0.4310
  391MOL0     C52707  10.304   7.439   2.468 -0.7315  0.0778 -1.2190
  391MOL0     C52708  10.347   7.430   2.601 -0.5227  1.0272 -0.2303
  391MOL0     O52709  10.265   7.352   2.674  0.4792  0.0744  0.4392
  391MOL0     C52710  10.311   7.292   2.795 -0.3629 -1.1175  0.9266
  391MOL0     C52711  10.202   7.328   2.906  0.0112  0.7170 -0.0331
  391MOL0     C52712  10.258   7.275   3.039 -0.4187  0.5861 -0.1748
  391MOL0     C52713  10.284   7.121   3.033  0.3484  0.5374 -0.5121
  391MOL0     C52714  10.325   7.076   3.165 -0.2300  0.2539 -0.8891
  391MOL0     C52715  10.357   7.037   3.283  0.3692  1.3168  0.9131
  391MOL0     C52716  10.479   7.464   2.623  0.1937  0.0626  0.2171
  391MOL0     C52717  10.565   7.523   2.523 -0.8101  0.8476  0.2667
  391MOL0     H52718  10.678   7.900   2.257 -1.4492 -1.7751 -1.8578
  391MOL0     H52719  10.789   8.030   2.091 -3.0371 -1.3504  2.0357
  391MOL0     H52720  10.920   8.122   1.967 -0.3936 -2.2442  0.5598
  391MOL0     H52721  11.091   8.124   2.026  0.4908 -0.9790 -0.0818
  391MOL0     H52722  10.983   8.089   1.740  0.8956  2.4793 -0.7311
  391MOL0     H52723  11.031   8.233   1.815 -1.8790 -1.1693  0.4490
  391MOL0     H52724  11.242   8.118   1.883  1.4141  0.1060 -0.5367
  391MOL0     H52725  11.219   8.009   1.742  0.0459  0.0061 -0.5832
  391MOL0     H52726  11.184   8.242   1.625  0.8284  2.5286  0.8778
  391MOL0     H52727  11.308   8.302   1.736  1.2519  0.4861 -0.6615
  391MOL0     H52728  11.461   8.115   1.677 -0.2889 -0.8669  0.5544
  391MOL0     H52729  11.336   8.072   1.553 -2.0094  2.1099 -2.3013
  391MOL0     H52730  11.347   8.277   1.442  0.4910  2.1157 -0.8288
  391MOL0     H52731  11.455   8.345   1.573  1.4861 -1.0254  0.5021
  391MOL0     H52732  11.627   8.298   1.421  0.8705 -1.1584 -1.9827
  391MOL0     H52733  11.604   8.134   1.495  0.4573  0.2472  0.0571
  391MOL0     H52734  11.466   8.084   1.294 -1.7938  1.3957  0.8680
  391MOL0     H52735  11.623   8.145   1.249 -0.3641 -2.4147 -1.3412
  391MOL0     H52736  11.639   8.389   1.140 -0.7072  4.3990 -0.4685
  391MOL0     H52737  11.391   8.634   1.002  0.3490  0.6431  0.4143
  391MOL0     H52738  11.550   8.645   1.082  3.4869 -0.1082 -2.7876
  391MOL0     H52739  11.648   8.527   0.894  0.0664  1.5928  2.5669
  391MOL0     H52740  11.532   8.658   0.834  0.3777  0.2455 -0.2858
  391MOL0     H52741  11.465   8.359   0.835 -1.5704 -0.7238  0.6201
  391MOL0     H52742  11.524   8.451   0.691 -0.2047 -1.3235  0.5215
  391MOL0     H52743  11.341   8.623   0.714  1.5028  0.5634 -0.6917
  391MOL0     H52744  11.270   8.524   0.838 -1.9104  2.1232 -1.2066
  391MOL0     H52745  11.223   8.268   0.858  0.3397 -1.7166 -1.7478
  391MOL0     H52746  11.115   8.182   1.022 -0.2107  0.0099 -0.8893
  391MOL0     H52747  10.966   8.256   1.077 -2.6527  2.0952 -1.0149
  391MOL0     H52748  10.954   8.112   0.982  0.1510  0.0033  1.2392
  391MOL0     H52749  10.532   8.109   0.837 -3.0894 -1.4397 -0.6988
  391MOL0     H52750  10.329   8.037   0.955 -1.2815  0.4576  0.4448
  391MOL0     H52751  10.414   8.004   1.379 -0.6474  0.9671  1.4396
  391MOL0     H52752  10.282   8.114   1.423  0.7565 -0.6553  1.4379
  391MOL0     H52753  10.117   7.935   1.361 -0.7100  0.7179  1.3531
  391MOL0     H52754  10.248   7.819   1.335  0.0040 -1.0429 -0.8160
  391MOL0     H52755  10.247   7.963   1.603 -0.0636 -0.2932  1.2020
  391MOL0     H52756  10.301   7.804   1.554 -0.1922 -0.2504  0.1046
  391MOL0     H52757  10.004   7.865   1.533  0.1682  2.3573  0.2691
  391MOL0     H52758  10.096   7.715   1.574  1.8326  0.8715  0.9353
  391MOL0     H52759   9.978   7.819   1.768  1.2500 -1.8011  3.7048
  391MOL0     H52760  10.088   7.964   1.751 -1.0193  0.1267 -3.1246
  391MOL0     H52761  10.164   7.676   1.795 -3.9084  0.5331 -1.3380
  391MOL0     H52762  10.279   7.819   1.803  0.0928  0.4489 -0.9078
  391MOL0     H52763  10.051   7.797   2.015  0.8852 -1.7923 -0.0873
  391MOL0     H52764  10.189   7.918   1.982  0.8862  0.3864 -2.9014
  391MOL0     H52765  10.347   7.763   2.049  1.1929 -3.2661  0.9586
  391MOL0     H52766  10.233   7.632   2.062  0.9799 -0.9390  4.3343
  391MOL0     H52767  10.490   8.206   1.322  2.2756  0.0774  0.3023
  391MOL0     H52768  10.666   8.304   1.196 -0.4542 -0.5783  0.7589
  391MOL0     H52769  10.824   8.441   0.630 -2.2536 -0.0727  3.4795
  391MOL0     H52770  11.045   8.520   0.573 -0.8654  0.0476 -0.3119
  391MOL0     H52771  11.076   7.692   2.067 -0.7327 -4.0634  3.8318
  391MOL0     H52772  10.930   7.567   2.198 -1.4654 -0.4942  0.2053
  391MOL0     H52773  10.346   7.505   2.265 -0.0136  1.5117  0.8978
  391MOL0     H52774  10.206   7.403   2.437 -1.9187  0.1128  2.1593
  391MOL0     H52775  10.319   7.183   2.785  3.0132 -0.8281 -1.5459
  391MOL0     H52776  10.410   7.331   2.819  0.3441 -0.0784 -2.9397
  391MOL0     H52777  10.105   7.283   2.885  0.6353 -0.4470 -0.4875
  391MOL0     H52778  10.203   7.437   2.913  1.0746  0.7221 -0.0522
  391MOL0     H52779  10.192   7.312   3.119 -1.1857 -0.3724 -0.3450
  391MOL0     H52780  10.357   7.319   3.055  0.5506 -0.0786 -3.5305
  391MOL0     H52781  10.359   7.089   2.960 -1.4117 -4.1620 -0.6247
  391MOL0     H52782  10.188   7.074   3.010  0.6493 -0.5823  0.3779
  391MOL0     H52783  10.399   7.022   3.380 -0.5351  0.7907  1.2351
  391MOL0     H52784  10.527   7.445   2.719  1.3507 -1.3698 -0.6065
  391MOL0     H52785  10.673   7.529   2.533 -0.5960  0.0900 -1.2688
  392MOL0     O52786   0.541   4.801   9.590  0.3926 -0.5365  0.1859
  392MOL0     C52787   0.480   4.698   9.562  0.3344 -0.3594  1.3639
  392MOL0     O52788   0.449   4.599   9.647 -0.1346  0.0963  0.1576
  392MOL0     C52789   0.464   4.589   9.782 -0.5599 -0.7126  0.3513
  392MOL0     C52790   0.433   4.466   9.846  0.3269 -1.2250  0.2757
  392MOL0     C52791   0.459   4.456   9.991 -0.9371 -0.1354  0.1283
  392MOL0     C52792   0.515   4.561  10.062 -0.1743  0.3989  0.8202
  392MOL0     O52793   0.534   4.557  10.197 -0.1724  0.2448  0.2210
  392MOL0     C52794   0.630   4.653  10.251  0.9589 -0.1731  1.1959
  392MOL0     C52795   0.656   4.622  10.400  1.0189 -0.1172 -0.9347
  392MOL0     C52796   0.530   4.636  10.489 -0.4772  0.2188 -0.5493
  392MOL0     C52797   0.500   4.787  10.498  0.2345  0.5134 -0.0729
  392MOL0     C52798   0.374   4.814  10.584 -0.2857  0.1125 -0.2312
  392MOL0     C52799   0.303   4.945  10.541 -0.9051  0.0583 -0.2524
  392MOL0     C52800   0.174   4.972  10.619 -0.1116 -0.0503 -0.1700
  392MOL0     C52801   0.209   5.018  10.765  0.0336  0.2380  0.3554
  392MOL0     N52802   0.294   5.145  10.765  0.4864 -0.1633  0.7309
  392MOL0     C52803   0.427   5.156  10.798  0.9530 -0.5848  0.0610
  392MOL0     C52804   0.458   5.286  10.770  1.1174  0.2878 -0.0141
  392MOL0     C52805   0.587   5.340  10.823 -0.3575  0.2164 -0.5815
  392MOL0     C52806   0.601   5.489  10.792  0.2381 -0.3702 -0.3024
  392MOL0     C52807   0.737   5.536  10.821  0.1422 -0.4587  0.5971
  392MOL0     C52808   0.751   5.673  10.762 -0.2828  0.4293 -0.3081
  392MOL0     O52809   0.662   5.750  10.856 -0.1047  0.4890  0.7129
  392MOL0     C52810   0.692   5.880  10.875  0.0598 -0.1557  0.2075
  392MOL0     C52811   0.747   5.971  10.783 -0.8479 -0.7397 -0.3485
  392MOL0     C52812   0.759   6.113  10.806 -0.2762  1.4957  0.5586
  392MOL0     C52813   0.800   6.197  10.694  0.1410 -0.2766  0.0394
  392MOL0     C52814   0.717   6.156  10.943  0.2601 -0.2513  0.4564
  392MOL0     C52815   0.730   6.296  10.989 -0.4623  0.1522 -0.3793
  392MOL0     O52816   0.758   6.309  11.126  0.6931 -0.6708 -0.0964
  392MOL0     C52817   0.802   6.441  11.163  0.3431  0.3752 -0.2523
  392MOL0     C52818   0.929   6.484  11.124  0.2242  1.4858 -0.9182
  392MOL0     C52819   0.986   6.582  11.196  0.2804  0.1468  0.6390
  392MOL0     C52820   0.919   6.675  11.274 -1.2601 -0.0662 -0.2264
  392MOL0     O52821   0.988   6.774  11.335 -0.2072  0.0668 -0.1307
  392MOL0     C52822   0.927   6.900  11.353 -0.0195 -0.1123 -0.1885
  392MOL0     C52823   0.915   6.938  11.500 -0.0043  0.5905  0.2380
  392MOL0     C52824   1.032   7.016  11.560  0.4601  0.1999 -0.8212
  392MOL0     C52825   1.010   7.049  11.710 -0.6854  0.2147 -0.4196
  392MOL0     C52826   1.042   6.941  11.822 -0.2822 -0.0360  1.2782
  392MOL0     C52827   0.990   6.981  11.953  1.1722  0.5514  0.2688
  392MOL0     C52828   0.988   6.868  12.060 -0.5949 -0.3645  0.1632
  392MOL0     C52829   1.125   6.819  12.089  0.1198  0.5565 -0.3856
  392MOL0    Cl52830   1.118   6.733  12.257 -0.0191  0.3126  0.1250
  392MOL0     C52831   0.789   6.640  11.309  0.8879 -0.0577  0.4118
  392MOL0     C52832   0.724   6.522  11.252 -0.0906  0.5087 -0.5329
  392MOL0     O52833   0.723   6.395  10.908  0.2247  0.0822  1.1792
  392MOL0     C52834   0.683   6.057  11.039  0.3463  1.2347 -0.0465
  392MOL0     C52835   0.687   5.928  11.005  0.7479  0.2487  0.4370
  392MOL0     N52836   0.346   5.362  10.739  1.1209  0.1010  0.0117
  392MOL0     N52837   0.254   5.271  10.727 -0.2888 -0.4375  0.8981
  392MOL0     C52838   0.547   4.679   9.990 -0.7201 -0.3078 -0.6891
  392MOL0     C52839   0.513   4.688   9.857 -0.1598  0.1083 -1.0211
  392MOL0     C52840   0.476   4.649   9.423  0.5291 -0.4203 -0.0366
  392MOL0     C52841   0.523   4.729   9.321 -0.7370  0.7643 -0.9079
  392MOL0     C52842   0.526   4.688   9.187  0.7153  0.0472 -0.1986
  392MOL0     C52843   0.484   4.557   9.155  1.0554 -0.5180  0.5752
  392MOL0     O52844   0.514   4.485   9.039  0.0040  0.1998  0.7201
  392MOL0     C52845   0.566   4.536   8.919 -0.2097  0.9295  1.3240
  392MOL0     C52846   0.471   4.489   8.810  0.7580  0.7928 -0.6207
  392MOL0     C52847   0.545   4.398   8.706  0.5966 -0.9669  0.0325
  392MOL0     C52848   0.452   4.371   8.588  0.6213  0.5935  0.2841
  392MOL0     C52849   0.504   4.263   8.508 -0.3286  0.3968  0.6505
  392MOL0     C52850   0.541   4.183   8.425  0.0924  0.2464  0.6554
  392MOL0     C52851   0.430   4.476   9.257 -0.3479 -0.2537 -1.0291
  392MOL0     C52852   0.422   4.520   9.385 -0.5016 -0.6274 -0.8237
  392MOL0     H52853   0.389   4.387   9.787  0.5406 -1.5605  0.5663
  392MOL0     H52854   0.432   4.367  10.046 -1.1784 -1.5578 -2.1420
  392MOL0     H52855   0.728   4.656  10.202  1.5293  0.1530  2.3304
  392MOL0     H52856   0.591   4.755  10.238 -4.2040 -2.1854 -2.6726
  392MOL0     H52857   0.677   4.515  10.409 -0.5738 -0.2939  2.3570
  392MOL0     H52858   0.738   4.684  10.437  0.1968 -0.2148  1.1844
  392MOL0     H52859   0.448   4.577  10.446 -0.5057 -2.0896  2.3123
  392MOL0     H52860   0.547   4.603  10.592  2.4625  0.9885 -0.7149
  392MOL0     H52861   0.589   4.839  10.536  0.0113  2.0683 -1.5346
  392MOL0     H52862   0.476   4.811  10.394 -0.5668 -3.7122 -1.0509
  392MOL0     H52863   0.293   4.740  10.577  1.0033 -1.2360 -1.8862
  392MOL0     H52864   0.421   4.825  10.682 -0.8378  2.9523 -0.2049
  392MOL0     H52865   0.381   5.020  10.556 -0.7786 -0.2113  0.5082
  392MOL0     H52866   0.274   4.948  10.436  1.0821 -1.2769 -0.8792
  392MOL0     H52867   0.112   5.053  10.578 -0.8410 -0.0197  0.9480
  392MOL0     H52868   0.108   4.885  10.622 -3.1130  2.1016  2.0913
  392MOL0     H52869   0.269   4.934  10.802  2.2388 -0.1269 -3.4147
  392MOL0     H52870   0.121   5.026  10.829 -1.0796  2.3063 -1.3114
  392MOL0     H52871   0.479   5.067  10.832  0.3382 -1.7189 -1.7751
  392MOL0     H52872   0.594   5.331  10.932 -0.8870  1.6925 -0.4038
  392MOL0     H52873   0.667   5.287  10.771 -0.0813  0.9190 -0.8889
  392MOL0     H52874   0.525   5.539  10.853  1.9067  1.1866  0.6096
  392MOL0     H52875   0.574   5.512  10.689  4.1570  0.3251 -1.3518
  392MOL0     H52876   0.816   5.475  10.775 -0.1627 -0.0415 -0.5039
  392MOL0     H52877   0.744   5.550  10.929 -1.0600 -1.0843  0.7670
  392MOL0     H52878   0.726   5.678  10.656 -2.1129 -1.4966 -0.0507
  392MOL0     H52879   0.854   5.699  10.787 -1.0431  0.7212  2.9747
  392MOL0     H52880   0.761   5.951  10.677 -0.0098  2.5331 -0.9914
  392MOL0     H52881   0.724   6.244  10.632 -0.1740  0.5354  1.0075
  392MOL0     H52882   0.847   6.286  10.736 -0.0994 -0.2082  0.1625
  392MOL0     H52883   0.877   6.145  10.636  1.0988  0.3440  0.7170
  392MOL0     H52884   0.998   6.433  11.059  1.4304 -0.9781  2.0489
  392MOL0     H52885   1.087   6.607  11.164  0.4590 -1.2704  0.0154
  392MOL0     H52886   0.985   6.977  11.302  1.4427  0.0207  1.5431
  392MOL0     H52887   0.833   6.905  11.297  2.8472  0.1133 -5.6432
  392MOL0     H52888   0.827   6.998  11.525  0.1472  2.1897 -2.7206
  392MOL0     H52889   0.903   6.848  11.562 -0.3844  1.2340  1.1259
  392MOL0     H52890   1.024   7.111  11.507  1.3063  3.6647  4.4735
  392MOL0     H52891   1.131   6.970  11.553  1.5735  2.4754 -1.0694
  392MOL0     H52892   1.064   7.140  11.735  0.3196 -0.0398 -1.5849
  392MOL0     H52893   0.904   7.078  11.717 -0.6022  0.0789  2.6578
  392MOL0     H52894   1.150   6.921  11.830 -0.8059 -2.5999  3.0844
  392MOL0     H52895   0.984   6.855  11.790 -1.4243  0.6975  1.3210
  392MOL0     H52896   1.050   7.066  11.986  5.0364 -2.5288  2.0405
  392MOL0     H52897   0.885   7.008  11.963  1.1543 -0.0515  2.1297
  392MOL0     H52898   0.934   6.783  12.019  0.2199 -0.3825 -0.9256
  392MOL0     H52899   0.934   6.891  12.152  2.1963 -0.4292  1.9311
  392MOL0     H52900   1.202   6.895  12.102  2.3519 -2.0682  3.9390
  392MOL0     H52901   1.153   6.737  12.023  0.2825 -2.6005  3.2745
  392MOL0     H52902   0.742   6.716  11.371  1.9632  3.9326 -3.1625
  392MOL0     H52903   0.623   6.492  11.278  0.4883 -4.1440 -2.7002
  392MOL0     H52904   0.652   6.076  11.141  0.1429  0.2257  0.0973
  392MOL0     H52905   0.667   5.844  11.071 -1.0876 -0.0818 -0.4766
  392MOL0     H52906   0.582   4.774  10.030 -1.4094  0.5913 -2.1024
  392MOL0     H52907   0.531   4.787   9.815 -3.5955  1.4338  0.2450
  392MOL0     H52908   0.561   4.830   9.329  1.5823  0.2894 -4.0685
  392MOL0     H52909   0.585   4.753   9.123  0.7584  1.2517  1.0107
  392MOL0     H52910   0.572   4.646   8.918 -1.1985  0.9881  1.1780
  392MOL0     H52911   0.665   4.491   8.908 -0.1726  1.5185 -1.3585
  392MOL0     H52912   0.423   4.580   8.773 -1.4147  1.2014  2.7792
  392MOL0     H52913   0.395   4.425   8.857  3.1035 -0.2031  2.1016
  392MOL0     H52914   0.582   4.309   8.757  1.3443 -0.9479 -0.4657
  392MOL0     H52915   0.639   4.432   8.660 -1.2313  0.7764 -2.6797
  392MOL0     H52916   0.440   4.463   8.530 -1.9401 -0.8626 -1.8067
  392MOL0     H52917   0.352   4.350   8.627 -1.1789  1.8995 -3.1472
  392MOL0     H52918   0.576   4.117   8.348 -1.8352 -0.5006  0.3626
  392MOL0     H52919   0.391   4.375   9.260  2.4744 -1.4423  1.4672
  392MOL0     H52920   0.370   4.461   9.460  2.7708 -2.8118 -0.0605
  393MOL0     O52921   9.146  11.134   9.166 -0.5253  0.4259 -0.3865
  393MOL0     C52922   9.045  11.162   9.099  0.4364 -0.2746 -0.8166
  393MOL0     O52923   8.979  11.080   9.019 -0.3431  0.0330  0.3668
  393MOL0     C52924   8.952  10.949   9.059 -0.9142  0.5985 -0.9917
  393MOL0     C52925   8.955  10.903   9.191  1.0884 -0.2345 -0.1712
  393MOL0     C52926   8.938  10.771   9.232 -1.4506  0.1837  0.1022
  393MOL0     C52927   8.912  10.683   9.136 -0.4593 -0.0402  0.5556
  393MOL0     O52928   8.895  10.553   9.187 -1.0335 -0.6984  0.3639
  393MOL0     C52929   8.822  10.455   9.107 -1.0859  0.0630 -0.3759
  393MOL0     C52930   8.751  10.355   9.195 -0.5465 -0.6248  1.0975
  393MOL0     C52931   8.846  10.293   9.301  1.2045  0.6599  0.6505
  393MOL0     C52932   8.763  10.197   9.395 -0.2572 -0.1925 -0.2251
  393MOL0     C52933   8.839  10.147   9.514 -0.3882  0.4665  0.7178
  393MOL0     C52934   8.770  10.053   9.609 -0.1104 -0.0849 -0.4312
  393MOL0     C52935   8.674  10.127   9.700  1.4956 -0.9181  1.2258
  393MOL0     C52936   8.615  10.046   9.814 -0.0337  0.6716 -0.2161
  393MOL0     N52937   8.700   9.991   9.916 -0.6949  0.3983  0.1183
  393MOL0     C52938   8.777  10.063  10.002  0.3815 -0.1258 -0.3094
  393MOL0     C52939   8.855   9.973  10.062 -0.6054 -0.4549  0.3720
  393MOL0     C52940   8.958  10.006  10.164  0.7397 -0.2037  0.9127
  393MOL0     C52941   9.091   9.960  10.113  0.1656  0.6527  0.9024
  393MOL0     C52942   9.211  10.005  10.185 -0.4715  0.0603  0.0851
  393MOL0     C52943   9.337   9.969  10.104 -0.1437 -0.9316  0.2945
  393MOL0     O52944   9.423  10.087  10.088  0.2688 -0.6984 -0.5292
  393MOL0     C52945   9.550  10.067  10.042 -0.0088 -0.6145  1.0016
  393MOL0     C52946   9.609   9.944  10.008 -0.4277 -0.5048 -0.2668
  393MOL0     C52947   9.741   9.942   9.961 -0.7981  0.1948 -0.2477
  393MOL0     C52948   9.793   9.810   9.910 -0.3871  0.3573 -0.0705
  393MOL0     C52949   9.819  10.058   9.945  0.7125 -0.4313 -0.1045
  393MOL0     C52950   9.966  10.070   9.903  0.7888 -0.1368 -0.6018
  393MOL0     O52951  10.048   9.978   9.951  0.3295 -0.1504  0.2825
  393MOL0     C52952  10.174   9.999   9.933  0.3937  0.4988  0.3159
  393MOL0     C52953  10.256  10.080  10.011 -0.2475  0.6086 -0.7490
  393MOL0     C52954  10.394  10.091   9.969  0.2008 -0.3321 -0.3218
  393MOL0     C52955  10.438  10.024   9.851  0.1420 -0.1813  0.1500
  393MOL0     O52956  10.563  10.057   9.821  0.3138 -0.8421  0.0382
  393MOL0     C52957  10.615  10.005   9.700  0.2843  0.1646  1.4482
  393MOL0     C52958  10.714  10.117   9.656 -0.1471 -0.0678 -0.1172
  393MOL0     C52959  10.813  10.056   9.551 -0.6081 -0.4691  0.2783
  393MOL0     C52960  10.845  10.155   9.432  0.3729  0.7323  0.6391
  393MOL0     C52961  10.967  10.100   9.351 -0.6453  0.3447 -0.6680
  393MOL0     C52962  10.960   9.960   9.291  0.0887  0.2617  0.3152
  393MOL0     C52963  10.892   9.963   9.154 -0.0193 -0.5635 -0.5641
  393MOL0     C52964  10.891   9.826   9.085 -0.2800 -0.7380  0.0870
  393MOL0    Cl52965  11.070   9.775   9.070  0.6582  0.2801  0.1567
  393MOL0     C52966  10.354   9.937   9.785  0.3627  0.0876 -0.3968
  393MOL0     C52967  10.221   9.934   9.823 -0.1050  0.9761  0.4689
  393MOL0     O52968  10.006  10.170   9.834 -0.1924  0.5526 -0.3872
  393MOL0     C52969   9.747  10.180   9.947  0.2937 -0.6985  0.6090
  393MOL0     C52970   9.623  10.177  10.015 -0.6888 -0.3206  0.3594
  393MOL0     N52971   8.827   9.845  10.013 -0.0965  0.0855 -0.5137
  393MOL0     N52972   8.731   9.859   9.928  1.3081 -0.3034  0.0633
  393MOL0     C52973   8.907  10.716   9.001 -0.0744 -1.0319  0.2788
  393MOL0     C52974   8.918  10.851   8.965 -0.0374  0.3980 -0.0142
  393MOL0     C52975   9.019  11.309   9.086  0.7371  0.3407  1.5483
  393MOL0     C52976   8.959  11.351   8.965 -0.0647  0.0088 -1.0537
  393MOL0     C52977   8.930  11.482   8.943  0.4883  0.4978  0.8835
  393MOL0     C52978   8.964  11.582   9.036 -0.1124  1.0387  0.3152
  393MOL0     O52979   8.931  11.708   9.005  0.0094  0.7247 -0.0525
  393MOL0     C52980   9.006  11.811   9.072 -0.0599 -0.5107 -0.0210
  393MOL0     C52981   8.910  11.877   9.178  0.3681  0.4849 -0.2912
  393MOL0     C52982   8.992  11.924   9.293 -0.1743 -0.7388  0.3319
  393MOL0     C52983   8.901  11.996   9.398  1.1637 -0.5235  0.0825
  393MOL0     C52984   8.839  11.906   9.494  0.4866  0.2270 -0.0193
  393MOL0     C52985   8.773  11.843   9.576  0.0419  0.3316  0.4393
  393MOL0     C52986   9.013  11.536   9.157  0.4125  0.3818  0.0522
  393MOL0     C52987   9.034  11.402   9.187  0.3920 -0.6798  0.0648
  393MOL0     H52988   8.976  10.974   9.270  0.4419  1.8088 -1.7516
  393MOL0     H52989   8.925  10.742   9.336  4.6448 -3.4616  0.3160
  393MOL0     H52990   8.749  10.504   9.042 -3.0847 -3.0148 -0.6645
  393MOL0     H52991   8.887  10.393   9.045  0.9097  2.6358 -1.0787
  393MOL0     H52992   8.674  10.413   9.247 -0.2610  1.0378 -0.2300
  393MOL0     H52993   8.698  10.290   9.124  3.3399 -2.0349 -0.7871
  393MOL0     H52994   8.904  10.226   9.237 -1.8428  0.2795 -1.9504
  393MOL0     H52995   8.911  10.369   9.348  1.0976  1.2492 -0.1395
  393MOL0     H52996   8.673  10.251   9.428  0.2404  2.2574 -2.4621
  393MOL0     H52997   8.719  10.115   9.338  1.6566 -0.7181 -1.0345
  393MOL0     H52998   8.922  10.089   9.474  0.1415  1.1273  0.8442
  393MOL0     H52999   8.881  10.231   9.570  1.2779 -0.5884  1.1200
  393MOL0     H53000   8.724   9.977   9.546 -2.0569  0.3216  0.4333
  393MOL0     H53001   8.843  10.005   9.676  0.3162 -2.2975 -2.3738
  393MOL0     H53002   8.725  10.210   9.748  1.2319 -0.0911  0.1069
  393MOL0     H53003   8.603  10.162   9.624  2.9813  1.3450  0.7850
  393MOL0     H53004   8.570   9.954   9.774 -1.4313  1.3035 -0.1456
  393MOL0     H53005   8.537  10.107   9.859  0.1560  0.1103  0.9129
  393MOL0     H53006   8.779  10.169  10.028  1.7801 -0.5299  1.4197
  393MOL0     H53007   8.957  10.114  10.176  0.2428  0.0822 -1.3353
  393MOL0     H53008   8.929   9.964  10.261 -2.4486  1.8643  0.9953
  393MOL0     H53009   9.089   9.991  10.008  0.4285  0.7484  0.9237
  393MOL0     H53010   9.099   9.851  10.107  0.0923  0.7307 -1.7174
  393MOL0     H53011   9.201   9.964  10.286  0.5374  1.4765  0.7941
  393MOL0     H53012   9.201  10.112  10.206  0.0206  0.4003 -1.2581
  393MOL0     H53013   9.321   9.934  10.002 -0.0082  0.3955 -0.1944
  393MOL0     H53014   9.402   9.893  10.149  1.3304 -0.8163 -1.5357
  393MOL0     H53015   9.550   9.853  10.010 -0.7879 -0.2629  1.1428
  393MOL0     H53016   9.720   9.734   9.941  1.3161 -0.5204  2.0138
  393MOL0     H53017   9.827   9.815   9.806  1.5385 -3.0793  0.2315
  393MOL0     H53018   9.885   9.795   9.966 -1.0392 -0.1304  0.8984
  393MOL0     H53019  10.217  10.129  10.099 -1.0085 -3.0618  1.1394
  393MOL0     H53020  10.459  10.165  10.014  0.5183 -2.5777  3.3050
  393MOL0     H53021  10.665   9.909   9.713  0.7008 -0.0811 -1.3705
  393MOL0     H53022  10.536  10.008   9.624  2.8239 -2.8175 -1.6223
  393MOL0     H53023  10.658  10.201   9.615  1.5701  1.2124  0.0267
  393MOL0     H53024  10.781  10.158   9.732 -0.7630  3.6433 -1.3655
  393MOL0     H53025  10.778   9.965   9.502  2.0393 -0.7125 -1.3905
  393MOL0     H53026  10.904  10.031   9.606 -1.6466 -0.7329  1.9419
  393MOL0     H53027  10.764  10.150   9.358  1.0576  0.3112 -0.1058
  393MOL0     H53028  10.867  10.258   9.462  2.4082 -0.3575  3.3359
  393MOL0     H53029  11.068  10.106   9.391 -0.7983 -1.2270  0.0285
  393MOL0     H53030  10.971  10.167   9.265  1.9457  0.9506 -0.1540
  393MOL0     H53031  11.059   9.921   9.265 -1.4370 -1.9712 -2.8420
  393MOL0     H53032  10.926   9.881   9.358  1.9419 -0.7711  0.1140
  393MOL0     H53033  10.952  10.025   9.087 -1.1832  0.7310 -0.4546
  393MOL0     H53034  10.791  10.006   9.148  0.5811  0.7185 -3.6481
  393MOL0     H53035  10.857   9.828   8.981  0.4124 -2.9168 -0.2186
  393MOL0     H53036  10.838   9.747   9.139  0.2607 -0.2230  1.4085
  393MOL0     H53037  10.380   9.892   9.690  2.5821  1.9625 -0.7565
  393MOL0     H53038  10.155   9.870   9.766  0.0499  1.7086 -0.5502
  393MOL0     H53039   9.783  10.280   9.925 -1.9073  0.1651  0.7701
  393MOL0     H53040   9.590  10.275  10.048 -1.7524 -1.3424  2.5080
  393MOL0     H53041   8.888  10.632   8.936 -0.8588  1.3940 -2.8471
  393MOL0     H53042   8.902  10.873   8.860 -1.2608  1.3400  0.3487
  393MOL0     H53043   8.932  11.288   8.880 -3.7948  0.3003 -0.2632
  393MOL0     H53044   8.894  11.514   8.846  1.3929  3.9118  1.5535
  393MOL0     H53045   9.095  11.778   9.127  2.1886  6.9855  2.0164
  393MOL0     H53046   9.042  11.883   8.997 -3.6085  1.0165 -0.4640
  393MOL0     H53047   8.837  11.802   9.211 -0.9183  0.5234 -2.7324
  393MOL0     H53048   8.849  11.949   9.122 -0.3309  0.6090  0.6007
  393MOL0     H53049   9.075  11.990   9.267  0.0283 -0.7272  1.0073
  393MOL0     H53050   9.041  11.849   9.356 -0.8592 -1.0445  0.5093
  393MOL0     H53051   8.826  12.052   9.341  2.1875  0.4991 -0.3143
  393MOL0     H53052   8.962  12.067   9.455  2.3269 -0.4173 -1.2110
  393MOL0     H53053   8.718  11.794   9.654 -3.0688 -1.5839 -2.6772
  393MOL0     H53054   9.017  11.605   9.240 -0.2710 -0.7347  1.0532
  393MOL0     H53055   9.077  11.372   9.282  2.4876 -3.5366 -1.6143
  394MOL0     O53056  10.646  11.455   1.403  0.1512 -0.7331  0.2305
  394MOL0     C53057  10.606  11.453   1.519  0.5626 -0.9769 -0.3503
  394MOL0     O53058  10.589  11.563   1.599 -0.1079 -0.9135  0.1476
  394MOL0     C53059  10.653  11.682   1.568  0.1661 -0.3008 -1.5600
  394MOL0     C53060  10.594  11.798   1.615 -0.7627 -0.8058 -0.7726
  394MOL0     C53061  10.649  11.924   1.591 -0.3120 -0.2127 -0.7652
  394MOL0     C53062  10.766  11.943   1.524 -0.3031  0.5756 -0.6561
  394MOL0     O53063  10.794  12.071   1.481  0.0843  0.1231 -0.0519
  394MOL0     C53064  10.862  12.096   1.356 -0.0201 -0.6236  0.7954
  394MOL0     C53065  10.895  12.245   1.364  0.1532 -0.7312  0.0006
  394MOL0     C53066  10.773  12.340   1.326 -0.3194 -0.3092  0.0284
  394MOL0     C53067  10.822  12.491   1.366 -0.1500  0.4430  0.8230
  394MOL0     C53068  10.870  12.567   1.244  0.5224  1.4166 -0.0854
  394MOL0     C53069  10.902  12.717   1.259  0.1608 -0.1535 -1.1194
  394MOL0     C53070  10.969  12.746   1.385 -0.3432  0.2492 -0.4101
  394MOL0     C53071  11.048  12.875   1.379  0.4865  0.3783 -0.6083
  394MOL0     N53072  11.182  12.859   1.315  0.4549  0.1620 -0.0951
  394MOL0     C53073  11.285  12.796   1.378 -0.8177 -0.5524 -0.1050
  394MOL0     C53074  11.362  12.748   1.277 -0.4310  0.0561  0.3012
  394MOL0     C53075  11.484  12.661   1.274 -0.5375  0.0209 -0.1358
  394MOL0     C53076  11.475  12.535   1.351  0.1686  0.0288  0.4006
  394MOL0     C53077  11.353  12.453   1.305  0.3786 -0.9398 -0.8394
  394MOL0     C53078  11.340  12.316   1.384  1.2012  0.9543  0.2536
  394MOL0     O53079  11.451  12.238   1.368  0.3923 -0.3826 -0.3055
  394MOL0     C53080  11.462  12.134   1.278  0.5516 -0.3238  0.4548
  394MOL0     C53081  11.350  12.071   1.217  0.2648 -0.3097  0.7653
  394MOL0     C53082  11.367  11.975   1.117  0.3565 -0.0900 -0.0224
  394MOL0     C53083  11.241  11.918   1.048 -0.1567 -0.4272 -1.3362
  394MOL0     C53084  11.493  11.938   1.079 -0.0761  0.2441  0.5083
  394MOL0     C53085  11.520  11.851   0.978  0.0409  0.4884  1.2874
  394MOL0     O53086  11.470  11.885   0.847  0.6824  0.1576  0.1230
  394MOL0     C53087  11.527  11.815   0.749  0.0636  1.4681  1.8299
  394MOL0     C53088  11.480  11.687   0.709  0.7498 -0.2840  0.0898
  394MOL0     C53089  11.531  11.633   0.590  0.5307 -0.1985  0.6184
  394MOL0     C53090  11.617  11.702   0.500  0.5743  0.8834  0.0338
  394MOL0     O53091  11.663  11.658   0.386 -0.3271  0.7664 -0.2570
  394MOL0     C53092  11.672  11.514   0.359  1.1388 -1.8787 -0.0172
  394MOL0     C53093  11.549  11.469   0.290 -0.7390 -0.3572 -0.6169
  394MOL0     C53094  11.531  11.528   0.145  0.7590 -0.5329 -0.6593
  394MOL0     C53095  11.496  11.426   0.043  1.2066  0.3137  0.1926
  394MOL0     C53096  11.612  11.339  -0.008 -0.4762 -0.3556  0.2825
  394MOL0     C53097  11.579  11.281  -0.144  0.1477  1.7450 -0.2531
  394MOL0     C53098  11.707  11.200  -0.189  0.5628 -0.6264 -0.1971
  394MOL0     C53099  11.690  11.144  -0.327 -0.1515  0.3746 -0.2884
  394MOL0    Cl53100  11.828  11.035  -0.365 -0.0097  0.1686 -0.4785
  394MOL0     C53101  11.662  11.823   0.542  0.6561  0.1775  0.2601
  394MOL0     C53102  11.628  11.868   0.663  0.6490  0.4092 -0.1116
  394MOL0     O53103  11.601  11.761   0.991  0.4416  0.0765  0.1296
  394MOL0     C53104  11.600  12.008   1.129 -0.2550  0.3958 -0.7289
  394MOL0     C53105  11.586  12.099   1.230  0.2896  0.0573 -0.9729
  394MOL0     N53106  11.307  12.786   1.158 -0.2746 -0.3477 -0.4097
  394MOL0     N53107  11.197  12.859   1.175  0.4188 -0.1148  0.0634
  394MOL0     C53108  10.834  11.831   1.490 -0.1653  0.0924 -0.1853
  394MOL0     C53109  10.784  11.701   1.508  0.0176 -0.2714 -0.2444
  394MOL0     C53110  10.561  11.316   1.563  0.2220 -0.4532  0.3763
  394MOL0     C53111  10.548  11.280   1.700  0.0122 -0.1634  1.4098
  394MOL0     C53112  10.521  11.155   1.742 -0.7128  0.2568 -0.1399
  394MOL0     C53113  10.512  11.049   1.648  0.1055 -0.6862  0.1628
  394MOL0     O53114  10.513  10.925   1.703  0.0096  0.3243  0.0002
  394MOL0     C53115  10.458  10.814   1.621 -0.2403 -0.2834  1.0468
  394MOL0     C53116  10.302  10.838   1.585 -0.6601  0.5480  0.5390
  394MOL0     C53117  10.211  10.906   1.686 -0.4304 -0.5794 -0.9388
  394MOL0     C53118  10.073  10.840   1.686 -0.7679 -1.0707  0.0240
  394MOL0     C53119  10.014  10.857   1.546 -1.0619  0.3163 -0.0524
  394MOL0     C53120   9.980  10.856   1.426  0.6140  0.6024  0.3217
  394MOL0     C53121  10.506  11.080   1.512  0.9264  0.0206  0.4082
  394MOL0     C53122  10.541  11.207   1.472  0.9543 -0.2549 -0.7200
  394MOL0     H53123  10.504  11.793   1.674  0.2489 -1.8000  0.7526
  394MOL0     H53124  10.593  12.012   1.620  0.8416  0.5922 -0.8849
  394MOL0     H53125  10.957  12.042   1.346 -1.3511 -2.8374 -0.5758
  394MOL0     H53126  10.814  12.081   1.259  3.1329 -0.1849 -1.0002
  394MOL0     H53127  10.920  12.247   1.470 -1.9017 -3.3371  0.6246
  394MOL0     H53128  10.985  12.274   1.308  0.6137 -1.3396  0.4008
  394MOL0     H53129  10.758  12.349   1.218  0.3701 -2.3390 -0.2819
  394MOL0     H53130  10.687  12.303   1.383 -0.5670  0.3864  0.1125
  394MOL0     H53131  10.736  12.547   1.406  1.5595  3.6185  0.3540
  394MOL0     H53132  10.893  12.490   1.449  0.1707  2.4326  0.6254
  394MOL0     H53133  10.948  12.518   1.184  0.3171  2.2754 -1.0707
  394MOL0     H53134  10.790  12.559   1.170  1.1025 -1.2782 -0.5587
  394MOL0     H53135  10.970  12.748   1.179  0.0340 -0.2273 -1.2566
  394MOL0     H53136  10.809  12.775   1.257 -0.6539 -1.4387 -1.5503
  394MOL0     H53137  10.909  12.756   1.476 -0.6745 -1.9144 -0.3316
  394MOL0     H53138  11.037  12.661   1.397 -0.4769 -0.1498 -2.2072
  394MOL0     H53139  11.078  12.901   1.481  0.0926 -1.0825 -0.1017
  394MOL0     H53140  10.987  12.957   1.341 -1.1354 -0.6015 -0.2023
  394MOL0     H53141  11.286  12.773   1.484 -1.0683 -0.0168  0.0149
  394MOL0     H53142  11.509  12.627   1.173  0.2728 -0.7726  0.3159
  394MOL0     H53143  11.572  12.722   1.297  0.5342 -0.8249 -1.8398
  394MOL0     H53144  11.463  12.570   1.454  2.4785  0.6958  0.5039
  394MOL0     H53145  11.565  12.473   1.342  0.8102  1.2353 -3.8462
  394MOL0     H53146  11.352  12.417   1.201  0.0437 -1.3618 -0.6967
  394MOL0     H53147  11.270  12.520   1.328  1.4837 -0.0170  0.6015
  394MOL0     H53148  11.249  12.265   1.353  1.1036  0.7780  0.8076
  394MOL0     H53149  11.317  12.328   1.491 -3.8618 -1.2293 -0.3100
  394MOL0     H53150  11.251  12.101   1.252  1.3383  0.6276  3.2432
  394MOL0     H53151  11.243  11.943   0.942  6.5450 -2.2340 -2.1235
  394MOL0     H53152  11.249  11.809   1.060  2.5398 -0.1791 -0.0581
  394MOL0     H53153  11.159  11.959   1.108  2.5992  3.0906  0.4308
  394MOL0     H53154  11.398  11.643   0.765  2.4146 -1.0154  2.0715
  394MOL0     H53155  11.494  11.532   0.572  0.5742 -0.2229  0.6684
  394MOL0     H53156  11.757  11.488   0.296  0.9771 -0.3203 -0.9577
  394MOL0     H53157  11.672  11.457   0.452  1.2996 -0.4049  0.9192
  394MOL0     H53158  11.570  11.363   0.271 -1.0519 -0.3002 -1.2969
  394MOL0     H53159  11.455  11.483   0.344 -1.9871  0.4338 -2.8741
  394MOL0     H53160  11.622  11.584   0.122  1.9394 -1.3292  1.7754
  394MOL0     H53161  11.454  11.605   0.141 -1.2760 -2.5241 -2.0925
  394MOL0     H53162  11.417  11.360   0.080  4.0863 -4.5652 -1.5395
  394MOL0     H53163  11.457  11.484  -0.041  3.1326  2.3191  0.5740
  394MOL0     H53164  11.656  11.265   0.058  1.3192  0.6118  0.2281
  394MOL0     H53165  11.686  11.419  -0.024  1.0673 -0.9008  3.7757
  394MOL0     H53166  11.496  11.214  -0.122  1.7679 -0.2774  0.0670
  394MOL0     H53167  11.553  11.361  -0.213 -1.9336  1.3756  0.0571
  394MOL0     H53168  11.712  11.117  -0.117 -5.9032 -0.9251  0.5714
  394MOL0     H53169  11.797  11.262  -0.189  0.4039 -0.3945 -0.2670
  394MOL0     H53170  11.682  11.218  -0.407 -1.6608 -0.8190 -1.3296
  394MOL0     H53171  11.605  11.074  -0.330  1.8244 -2.1988 -0.1506
  394MOL0     H53172  11.721  11.883   0.474  2.7570 -0.6140  1.2909
  394MOL0     H53173  11.658  11.968   0.693  1.0054 -0.3472  2.2274
  394MOL0     H53174  11.697  11.979   1.089 -0.3711  1.6408 -2.0042
  394MOL0     H53175  11.671  12.137   1.284 -0.0840 -2.2557  1.4578
  394MOL0     H53176  10.926  11.837   1.433 -1.0507  0.4341 -1.6290
  394MOL0     H53177  10.836  11.617   1.464 -1.6247 -4.0998  4.3440
  394MOL0     H53178  10.558  11.356   1.777 -0.8124  0.4717  0.9094
  394MOL0     H53179  10.515  11.142   1.849  0.9052 -0.4800 -0.1066
  394MOL0     H53180  10.520  10.806   1.531  3.5915  2.2306  3.1662
  394MOL0     H53181  10.481  10.728   1.685  0.8726 -1.2657 -0.5844
  394MOL0     H53182  10.266  10.738   1.561 -1.7453  1.6218 -2.8295
  394MOL0     H53183  10.300  10.893   1.491 -0.1573  1.3709  0.9990
  394MOL0     H53184  10.198  11.010   1.655 -0.2136 -0.8134 -1.8496
  394MOL0     H53185  10.250  10.903   1.788 -2.0961  1.5906 -0.1724
  394MOL0     H53186  10.018  10.895   1.762 -0.3447 -0.4962 -0.0782
  394MOL0     H53187  10.077  10.736   1.722 -3.6000 -1.1575  0.3583
  394MOL0     H53188   9.950  10.850   1.323 -2.9646  2.0432  1.1416
  394MOL0     H53189  10.499  11.006   1.432 -2.9127 -1.3621  1.8131
  394MOL0     H53190  10.524  11.235   1.368 -1.8731 -1.6980 -0.7594
  395MOL0     O53191   9.413   2.868   0.420  0.3347 -0.6098 -0.0685
  395MOL0     C53192   9.517   2.814   0.467 -0.9410 -0.0686 -0.4289
  395MOL0     O53193   9.526   2.688   0.494 -0.3703  0.4075 -0.4130
  395MOL0     C53194   9.421   2.602   0.505  0.0558  0.2853  0.3355
  395MOL0     C53195   9.458   2.470   0.528  0.5606 -1.2367  0.7539
  395MOL0     C53196   9.362   2.376   0.548 -0.6382  0.6309 -0.9177
  395MOL0     C53197   9.228   2.410   0.558  0.1492  0.2766 -1.1655
  395MOL0     O53198   9.142   2.306   0.576 -0.2855  0.3418 -0.1053
  395MOL0     C53199   9.001   2.323   0.547 -0.0794 -0.0061 -0.8019
  395MOL0     C53200   8.995   2.276   0.402 -1.0269 -0.2023 -0.8812
  395MOL0     C53201   8.851   2.265   0.357  0.1072 -0.5030 -0.7196
  395MOL0     C53202   8.848   2.253   0.195  0.7239 -0.5085  0.0537
  395MOL0     C53203   8.709   2.267   0.130  0.0339  0.1983  0.8264
  395MOL0     C53204   8.702   2.288  -0.025 -0.1405 -0.1691  0.7239
  395MOL0     C53205   8.781   2.410  -0.064 -0.5371 -0.0933 -0.0722
  395MOL0     C53206   8.770   2.434  -0.214 -0.9837 -0.0126 -1.0746
  395MOL0     N53207   8.635   2.455  -0.267  0.3842  0.5513 -0.1783
  395MOL0     C53208   8.582   2.581  -0.290  0.0068 -0.0438 -0.1708
  395MOL0     C53209   8.475   2.559  -0.370 -0.0522 -0.7140 -0.0826
  395MOL0     C53210   8.379   2.659  -0.422  1.0592  0.5779 -0.0400
  395MOL0     C53211   8.433   2.730  -0.546 -0.0919  0.4763  0.1082
  395MOL0     C53212   8.546   2.832  -0.521 -0.6283  0.3676  0.8801
  395MOL0     C53213   8.576   2.903  -0.655  0.7598  0.6741 -1.5777
  395MOL0     O53214   8.643   2.811  -0.741  0.8405 -0.1823 -0.4864
  395MOL0     C53215   8.702   2.868  -0.850  0.7330 -0.2621  0.7369
  395MOL0     C53216   8.778   2.792  -0.933 -0.0932  0.5694 -0.5984
  395MOL0     C53217   8.853   2.845  -1.038  0.4251  1.2266  0.4998
  395MOL0     C53218   8.931   2.748  -1.124 -0.5053  0.2781  0.3117
  395MOL0     C53219   8.852   2.980  -1.069 -0.4672 -0.1203  0.0514
  395MOL0     C53220   8.929   3.059  -1.167 -1.2024 -0.7209  0.5706
  395MOL0     O53221   8.873   3.177  -1.200 -0.0539 -0.3673  0.8339
  395MOL0     C53222   8.935   3.275  -1.274  0.6708 -0.9009 -0.6075
  395MOL0     C53223   8.989   3.252  -1.398  0.3687 -0.2441  0.2388
  395MOL0     C53224   9.042   3.353  -1.473  0.5910 -0.1480  0.1365
  395MOL0     C53225   9.042   3.483  -1.425 -0.1603 -0.5359 -0.5172
  395MOL0     O53226   9.105   3.578  -1.506 -0.4701 -0.3244 -0.2970
  395MOL0     C53227   9.130   3.708  -1.456 -1.1194  0.2622 -0.0126
  395MOL0     C53228   9.202   3.776  -1.572 -0.0381  0.1692  0.0847
  395MOL0     C53229   9.220   3.925  -1.565 -0.4803 -0.8670  0.2708
  395MOL0     C53230   9.105   4.014  -1.569  0.6538  0.6621 -0.2126
  395MOL0     C53231   9.159   4.161  -1.574  0.5240  0.2309 -0.4334
  395MOL0     C53232   9.045   4.264  -1.583  0.3982  0.4189  0.8016
  395MOL0     C53233   9.093   4.401  -1.541 -0.2661 -0.7290  0.2606
  395MOL0     C53234   9.203   4.460  -1.629 -0.3850  0.1296 -0.7923
  395MOL0    Cl53235   9.209   4.635  -1.633  0.5364 -0.1101 -0.4373
  395MOL0     C53236   8.992   3.510  -1.293 -0.8331  0.5334 -0.1392
  395MOL0     C53237   8.946   3.399  -1.225  1.0636 -0.5154 -1.3575
  395MOL0     O53238   9.047   3.030  -1.193  0.4330 -0.0912  0.9904
  395MOL0     C53239   8.769   3.061  -0.984 -0.1852 -0.3520 -0.2074
  395MOL0     C53240   8.682   3.002  -0.890 -0.8589 -0.2032  0.0612
  395MOL0     N53241   8.465   2.416  -0.394  0.6722 -0.0308  0.1003
  395MOL0     N53242   8.560   2.356  -0.326 -0.1897 -0.9626  0.7118
  395MOL0     C53243   9.190   2.546   0.543  0.0795 -0.2714  0.2371
  395MOL0     C53244   9.288   2.645   0.528 -0.1819 -0.2733  0.3738
  395MOL0     C53245   9.633   2.900   0.483 -0.1502 -1.3156  0.7722
  395MOL0     C53246   9.637   3.018   0.406 -0.7263 -0.2391 -0.3922
  395MOL0     C53247   9.739   3.112   0.431 -0.1242 -0.4617  0.5193
  395MOL0     C53248   9.844   3.084   0.521  0.9063 -1.0687  0.0754
  395MOL0     O53249   9.947   3.171   0.530 -0.0301  0.5298 -0.2947
  395MOL0     C53250  10.045   3.128   0.622 -1.2407 -0.8420 -0.1219
  395MOL0     C53251  10.155   3.229   0.638 -0.6181 -0.1676 -0.0765
  395MOL0     C53252  10.106   3.376   0.661  0.5149 -1.1961  0.4305
  395MOL0     C53253  10.069   3.402   0.806  0.7493  0.8893  0.4045
  395MOL0     C53254  10.032   3.543   0.823 -0.6557  0.9659 -0.9675
  395MOL0     C53255   9.976   3.651   0.841  0.3061 -0.5772  0.4777
  395MOL0     C53256   9.838   2.959   0.586 -1.2634  0.2545  0.1202
  395MOL0     C53257   9.738   2.867   0.562 -0.1493 -0.0936  0.2114
  395MOL0     H53258   9.565   2.458   0.515  0.4094 -0.6892 -1.4146
  395MOL0     H53259   9.379   2.273   0.577 -0.6534  1.6053  3.0876
  395MOL0     H53260   8.941   2.263   0.616  2.3443  0.7031  2.1498
  395MOL0     H53261   8.971   2.427   0.563  0.9395 -0.1270  2.6416
  395MOL0     H53262   9.049   2.348   0.339  1.1995 -2.3410 -1.5851
  395MOL0     H53263   9.042   2.177   0.393 -2.1135 -0.6576 -1.8376
  395MOL0     H53264   8.801   2.181   0.405  1.2028 -0.5214  0.4208
  395MOL0     H53265   8.797   2.355   0.388 -1.0348  0.1420 -4.1102
  395MOL0     H53266   8.911   2.334   0.156 -0.3727 -0.5541 -1.9527
  395MOL0     H53267   8.885   2.158   0.156  1.8937  0.9459 -2.6723
  395MOL0     H53268   8.669   2.168   0.152 -0.1844  0.1449  0.2062
  395MOL0     H53269   8.644   2.343   0.177 -1.1352 -1.0888  1.3655
  395MOL0     H53270   8.737   2.195  -0.070  0.5902  0.6513 -0.4561
  395MOL0     H53271   8.595   2.299  -0.046 -0.3427  2.4939  2.6317
  395MOL0     H53272   8.752   2.493   0.000 -2.0041  0.0451 -0.8832
  395MOL0     H53273   8.888   2.388  -0.051 -0.2145  0.1136 -2.0186
  395MOL0     H53274   8.806   2.340  -0.255  1.5334  0.4649 -0.1692
  395MOL0     H53275   8.832   2.519  -0.244 -1.9206  0.1132 -2.7848
  395MOL0     H53276   8.623   2.676  -0.259  1.2699 -1.3944  2.6361
  395MOL0     H53277   8.286   2.602  -0.439  1.5374 -0.7580  1.5627
  395MOL0     H53278   8.371   2.734  -0.343  3.1453  1.2198 -0.3879
  395MOL0     H53279   8.350   2.789  -0.586 -1.0235  0.3018  1.6883
  395MOL0     H53280   8.474   2.654  -0.614  1.4391  0.2812  1.1900
  395MOL0     H53281   8.640   2.785  -0.491  0.0849  2.3079  1.8013
  395MOL0     H53282   8.510   2.892  -0.437  0.8044 -0.0465  1.8249
  395MOL0     H53283   8.642   2.989  -0.638  3.1037 -1.6482  3.3319
  395MOL0     H53284   8.483   2.932  -0.703 -0.8143 -0.2309  0.7546
  395MOL0     H53285   8.785   2.686  -0.907 -0.5535  0.4050 -1.1294
  395MOL0     H53286   8.884   2.650  -1.119 -1.3753  0.7016  0.7962
  395MOL0     H53287   8.915   2.783  -1.226 -0.4166  0.6508  0.4221
  395MOL0     H53288   9.039   2.756  -1.109 -0.4216  2.0556 -0.9178
  395MOL0     H53289   8.992   3.155  -1.447 -0.5188  0.4851 -1.3284
  395MOL0     H53290   9.078   3.335  -1.573 -0.2912 -0.4161 -0.1426
  395MOL0     H53291   9.041   3.756  -1.416 -0.6621 -0.5312  2.0884
  395MOL0     H53292   9.199   3.701  -1.371 -0.6693 -1.5317 -0.4663
  395MOL0     H53293   9.302   3.733  -1.586  0.9468  2.8810 -2.1405
  395MOL0     H53294   9.151   3.749  -1.664 -1.4303 -0.9890  1.1486
  395MOL0     H53295   9.283   3.955  -1.649  0.3701  3.0512  2.0656
  395MOL0     H53296   9.282   3.943  -1.476 -2.3266  0.7252  1.3006
  395MOL0     H53297   9.049   3.993  -1.661  0.8380 -0.2604 -0.1210
  395MOL0     H53298   9.040   4.000  -1.482 -0.6266  2.0666 -0.8985
  395MOL0     H53299   9.225   4.186  -1.658 -0.7589 -1.4984 -2.0327
  395MOL0     H53300   9.206   4.170  -1.476 -0.1689  0.4903 -0.1146
  395MOL0     H53301   9.008   4.279  -1.685  3.2416  1.7460 -0.1345
  395MOL0     H53302   8.969   4.240  -1.508  2.2186  1.2270  3.0206
  395MOL0     H53303   9.124   4.401  -1.436  1.9225  1.4679 -0.2694
  395MOL0     H53304   9.007   4.467  -1.557  1.5257  1.7247  0.1228
  395MOL0     H53305   9.189   4.424  -1.731  0.9228  0.7739 -1.2177
  395MOL0     H53306   9.295   4.414  -1.593 -0.6630 -2.4476 -3.0764
  395MOL0     H53307   8.993   3.610  -1.249  0.5260  0.5188 -0.1067
  395MOL0     H53308   8.905   3.407  -1.124 -0.1679 -2.3978 -1.6732
  395MOL0     H53309   8.770   3.170  -0.987 -0.8628 -0.2874  1.0453
  395MOL0     H53310   8.615   3.072  -0.840 -0.9860 -1.5279  1.8177
  395MOL0     H53311   9.089   2.587   0.543  0.3764  0.5406 -1.2007
  395MOL0     H53312   9.264   2.751   0.537 -0.2006 -0.0858 -1.4274
  395MOL0     H53313   9.554   3.041   0.340 -3.0755  1.5833  2.8948
  395MOL0     H53314   9.743   3.208   0.380 -0.8464  2.5571  5.4661
  395MOL0     H53315  10.000   3.119   0.722 -2.6332  0.4471 -0.5973
  395MOL0     H53316  10.091   3.038   0.581 -0.8214 -0.5837 -0.2246
  395MOL0     H53317  10.209   3.234   0.543  0.8374  2.0444  0.7960
  395MOL0     H53318  10.233   3.194   0.705  1.5329  3.6276 -0.3226
  395MOL0     H53319  10.026   3.392   0.588 -1.0304 -2.1933  1.8296
  395MOL0     H53320  10.186   3.449   0.645 -1.2108  1.4983  3.1150
  395MOL0     H53321  10.161   3.365   0.853  1.4850  3.4673  1.1568
  395MOL0     H53322   9.984   3.350   0.849 -0.1535  2.0738  0.1038
  395MOL0     H53323   9.933   3.742   0.878  0.2001 -1.1823  1.9047
  395MOL0     H53324   9.911   2.925   0.659  0.6636  1.7156 -1.0383
  395MOL0     H53325   9.739   2.768   0.607 -1.9151  0.3746  1.3702
  396MOL0     O53326   7.944   2.553   0.031 -0.3668 -0.7393  1.0910
  396MOL0     C53327   8.013   2.479  -0.040 -0.5766  0.3826  1.0097
  396MOL0     O53328   8.019   2.489  -0.177  0.1071  0.0111  0.5917
  396MOL0     C53329   8.032   2.601  -0.252  0.1654  0.4306 -0.4283
  396MOL0     C53330   7.984   2.590  -0.383 -0.1062 -0.9650  0.5876
  396MOL0     C53331   7.985   2.703  -0.474 -0.0938 -0.5183  0.5279
  396MOL0     C53332   8.036   2.824  -0.427  0.3286  0.2033  0.2291
  396MOL0     O53333   8.042   2.934  -0.508  0.0120 -0.9037  0.6269
  396MOL0     C53334   7.935   2.983  -0.585  0.5368 -0.5645 -0.2066
  396MOL0     C53335   7.983   2.985  -0.732  1.2065 -0.2121 -0.5337
  396MOL0     C53336   7.862   3.006  -0.833 -0.0915  0.2571  0.6328
  396MOL0     C53337   7.791   2.866  -0.849 -0.1145  0.3676  0.5235
  396MOL0     C53338   7.671   2.900  -0.938 -0.4198  0.0587  0.0258
  396MOL0     C53339   7.698   2.870  -1.084 -0.1760 -0.2754  0.8696
  396MOL0     C53340   7.706   2.718  -1.106  1.5611 -0.1026  0.8822
  396MOL0     C53341   7.706   2.680  -1.257  0.9299  0.1682 -0.2420
  396MOL0     N53342   7.815   2.589  -1.288 -1.1801  0.3007 -0.0414
  396MOL0     C53343   7.794   2.464  -1.316  0.4119 -0.0158 -0.1488
  396MOL0     C53344   7.919   2.413  -1.320  0.0568  0.0142 -0.6355
  396MOL0     C53345   7.947   2.263  -1.341 -0.5952 -0.6713 -0.1559
  396MOL0     C53346   8.005   2.185  -1.216  1.4437 -0.3394  0.0288
  396MOL0     C53347   7.907   2.170  -1.100  0.7861  0.3138 -0.4501
  396MOL0     C53348   7.776   2.105  -1.150  0.3395  1.2024 -0.4298
  396MOL0     O53349   7.688   2.053  -1.054 -0.4958  0.0363 -0.0521
  396MOL0     C53350   7.630   2.111  -0.944 -0.1863 -0.9549  0.3513
  396MOL0     C53351   7.622   2.250  -0.928 -0.2769 -0.1393 -0.1369
  396MOL0     C53352   7.583   2.313  -0.812  0.0180 -0.2332  0.0041
  396MOL0     C53353   7.595   2.460  -0.820 -0.0941  0.3355 -0.6221
  396MOL0     C53354   7.534   2.234  -0.706 -0.3724  0.3765 -1.1383
  396MOL0     C53355   7.494   2.293  -0.574  0.3380 -0.3501 -0.4455
  396MOL0     O53356   7.488   2.203  -0.469 -0.1388  0.1105  0.2920
  396MOL0     C53357   7.428   2.239  -0.349  0.9561  0.3655 -0.2881
  396MOL0     C53358   7.312   2.171  -0.300 -0.0212 -1.5138  0.4101
  396MOL0     C53359   7.279   2.177  -0.163 -0.6835 -1.0641 -0.1554
  396MOL0     C53360   7.349   2.260  -0.077  0.3056 -0.0740 -0.5523
  396MOL0     O53361   7.306   2.278   0.053  0.0759  0.4429 -0.1772
  396MOL0     C53362   7.216   2.175   0.101  0.6187 -0.3898  0.2313
  396MOL0     C53363   7.202   2.180   0.252  0.1547  0.2293 -0.0998
  396MOL0     C53364   7.323   2.169   0.348  0.7046 -0.3183 -0.0813
  396MOL0     C53365   7.410   2.286   0.358 -0.0941 -0.4401 -0.0984
  396MOL0     C53366   7.558   2.261   0.367 -0.7570 -0.2269  0.4364
  396MOL0     C53367   7.637   2.398   0.364  0.9329  0.3194  0.1994
  396MOL0     C53368   7.776   2.379   0.417  1.1096  0.6351 -0.5197
  396MOL0     C53369   7.858   2.503   0.430 -0.3995  0.3029  0.0771
  396MOL0    Cl53370   7.787   2.611   0.540  0.2542  0.0360  0.0309
  396MOL0     C53371   7.456   2.343  -0.126 -0.0517  0.7496 -0.3897
  396MOL0     C53372   7.489   2.337  -0.260  1.1074 -0.9602  1.3590
  396MOL0     O53373   7.460   2.408  -0.565  0.3732 -0.3517 -0.2150
  396MOL0     C53374   7.538   2.095  -0.717  0.3086  0.9703 -0.9653
  396MOL0     C53375   7.576   2.038  -0.839 -0.9672  0.4742 -0.3565
  396MOL0     N53376   8.016   2.511  -1.307  0.0207  0.4208 -0.0349
  396MOL0     N53377   7.947   2.613  -1.280 -0.0170 -0.6608 -0.4588
  396MOL0     C53378   8.085   2.833  -0.292  0.8198  0.1447  0.8762
  396MOL0     C53379   8.081   2.723  -0.205 -0.1279 -1.1407  0.9956
  396MOL0     C53380   8.062   2.359   0.028  1.5581  1.1059 -0.6137
  396MOL0     C53381   8.132   2.262  -0.042  0.4480  0.5283  0.0190
  396MOL0     C53382   8.196   2.156   0.028 -0.7537 -0.1471 -0.5803
  396MOL0     C53383   8.172   2.130   0.168  0.2419 -0.1354 -0.7878
  396MOL0     O53384   8.223   2.025   0.250  0.9488 -0.2633 -0.2870
  396MOL0     C53385   8.280   1.914   0.190  0.2434 -0.1882 -0.2022
  396MOL0     C53386   8.164   1.838   0.131 -0.2087 -0.8654  1.1606
  396MOL0     C53387   8.210   1.698   0.076  0.4975 -0.5913 -0.0645
  396MOL0     C53388   8.326   1.716  -0.024  0.9587  0.4696 -1.0883
  396MOL0     C53389   8.343   1.590  -0.094  0.5813 -0.2982 -0.9503
  396MOL0     C53390   8.361   1.484  -0.146 -0.6308 -0.5133 -0.2844
  396MOL0     C53391   8.084   2.224   0.235  0.1113  0.0356 -1.2338
  396MOL0     C53392   8.036   2.328   0.160 -0.2094 -0.3031  1.3522
  396MOL0     H53393   7.939   2.494  -0.407 -2.3025  0.5906 -2.1244
  396MOL0     H53394   7.955   2.691  -0.578  0.4785  0.4277  0.2409
  396MOL0     H53395   7.853   2.912  -0.572  0.8212 -2.2493 -5.3549
  396MOL0     H53396   7.911   3.085  -0.555  0.6017 -0.7634  0.5371
  396MOL0     H53397   8.052   3.070  -0.742 -0.6833  1.5858  0.9545
  396MOL0     H53398   8.038   2.893  -0.756  0.4644 -1.2587  1.5733
  396MOL0     H53399   7.794   3.080  -0.791  1.4342  1.4469  1.1116
  396MOL0     H53400   7.906   3.021  -0.932  0.8461 -4.6217  0.0541
  396MOL0     H53401   7.872   2.808  -0.894 -1.3273  0.2110 -1.5867
  396MOL0     H53402   7.774   2.814  -0.754  2.3235 -1.2266  0.1637
  396MOL0     H53403   7.583   2.845  -0.903 -1.6300  0.9606 -1.4543
  396MOL0     H53404   7.652   3.007  -0.923  2.7409  0.9682 -1.6284
  396MOL0     H53405   7.624   2.913  -1.152 -1.6842 -4.3601 -0.4077
  396MOL0     H53406   7.799   2.909  -1.102  1.0611 -3.0988  1.1305
  396MOL0     H53407   7.793   2.684  -1.050  0.7039 -0.2898  2.1394
  396MOL0     H53408   7.611   2.676  -1.071  0.1415  1.1777 -1.2081
  396MOL0     H53409   7.716   2.773  -1.314 -0.0008 -0.7151 -1.9537
  396MOL0     H53410   7.610   2.636  -1.286  0.2456  0.5453  1.3874
  396MOL0     H53411   7.707   2.402  -1.294  0.9240 -0.0215  2.0926
  396MOL0     H53412   7.854   2.221  -1.379 -1.1621  0.7506 -0.3881
  396MOL0     H53413   8.009   2.245  -1.430  1.2595  0.6724  0.7873
  396MOL0     H53414   8.087   2.250  -1.184  0.2231  1.8108 -0.9604
  396MOL0     H53415   8.036   2.083  -1.244  1.1177 -0.5161  0.3101
  396MOL0     H53416   7.883   2.268  -1.059  2.2120  0.7774 -0.6838
  396MOL0     H53417   7.947   2.120  -1.011 -0.0740 -2.8516 -1.7090
  396MOL0     H53418   7.796   2.008  -1.197 -0.8240  1.3218 -1.2181
  396MOL0     H53419   7.723   2.166  -1.224 -4.6203 -1.1081  0.8358
  396MOL0     H53420   7.655   2.310  -1.012 -2.4180 -1.3215 -1.9111
  396MOL0     H53421   7.507   2.506  -0.866 -0.3953  1.6158  1.1413
  396MOL0     H53422   7.599   2.501  -0.719 -6.2058 -1.2746  0.6898
  396MOL0     H53423   7.680   2.474  -0.888  1.6837 -0.1317  1.3953
  396MOL0     H53424   7.269   2.123  -0.387  3.0087 -1.5086 -1.2195
  396MOL0     H53425   7.184   2.136  -0.131 -1.6471  1.0041 -0.2141
  396MOL0     H53426   7.118   2.192   0.056  0.1417  0.7351  1.5875
  396MOL0     H53427   7.255   2.075   0.082 -2.3025 -1.4290 -0.8207
  396MOL0     H53428   7.172   2.284   0.270 -0.0703 -0.0232  1.1372
  396MOL0     H53429   7.124   2.110   0.285  0.0011  0.2695 -0.3777
  396MOL0     H53430   7.384   2.093   0.298  0.1257  0.8076 -2.6640
  396MOL0     H53431   7.294   2.132   0.447  1.8034 -2.0088 -0.3516
  396MOL0     H53432   7.409   2.354   0.273  0.9131 -0.7018 -0.3437
  396MOL0     H53433   7.372   2.349   0.439  2.1922  3.3785 -1.7055
  396MOL0     H53434   7.597   2.225   0.272 -0.8609  0.4603  0.1296
  396MOL0     H53435   7.572   2.199   0.456 -1.7774 -2.0385 -0.6033
  396MOL0     H53436   7.635   2.438   0.262  0.5856 -1.5557 -0.5840
  396MOL0     H53437   7.579   2.459   0.433 -0.5038 -1.6658  0.8652
  396MOL0     H53438   7.827   2.312   0.348 -2.1178  0.1250 -2.6338
  396MOL0     H53439   7.752   2.334   0.514  1.9418 -1.6598 -1.3351
  396MOL0     H53440   7.866   2.549   0.331 -0.1875  0.3878  0.1327
  396MOL0     H53441   7.960   2.492   0.468 -0.8997  2.6100  2.3582
  396MOL0     H53442   7.507   2.411  -0.059  1.7562 -0.7212 -0.1926
  396MOL0     H53443   7.555   2.406  -0.312 -0.8449 -0.8830 -1.2558
  396MOL0     H53444   7.493   2.026  -0.647  2.2804  1.9599  1.4124
  396MOL0     H53445   7.587   1.930  -0.851 -1.3570  0.1010  2.1139
  396MOL0     H53446   8.136   2.925  -0.265  1.2294 -1.0525  4.7508
  396MOL0     H53447   8.116   2.745  -0.104  2.6116 -1.6660  0.2346
  396MOL0     H53448   8.158   2.287  -0.145 -1.2723  0.2026 -0.5157
  396MOL0     H53449   8.251   2.083  -0.031 -1.4837 -0.4399 -0.9225
  396MOL0     H53450   8.349   1.946   0.112 -0.2663 -1.0823 -1.0479
  396MOL0     H53451   8.320   1.844   0.264 -2.8839  0.9220  2.8326
  396MOL0     H53452   8.107   1.893   0.056 -0.4259 -3.3144 -0.5648
  396MOL0     H53453   8.096   1.817   0.215 -2.6026 -2.1225 -0.9734
  396MOL0     H53454   8.125   1.640   0.039  0.3147  0.6958 -1.8031
  396MOL0     H53455   8.252   1.640   0.159  1.0678 -0.9037 -0.5618
  396MOL0     H53456   8.412   1.733   0.042  0.5742 -1.8946  0.1471
  396MOL0     H53457   8.327   1.796  -0.098  3.2827 -0.0851 -1.7224
  396MOL0     H53458   8.388   1.390  -0.191  1.6954 -0.0032 -0.0731
  396MOL0     H53459   8.064   2.217   0.341  1.0546  0.1235 -1.0404
  396MOL0     H53460   7.975   2.403   0.211 -0.1997  2.0811 -1.7832
  397MOL0     O53461   0.780  10.315   2.547  0.1852  0.5573 -0.2239
  397MOL0     C53462   0.810  10.360   2.440  0.4935 -0.6758 -0.4144
  397MOL0     O53463   0.933  10.381   2.396 -0.7600 -0.2533  0.4796
  397MOL0     C53464   1.045  10.344   2.453 -0.3324  1.1944 -0.3009
  397MOL0     C53465   1.154  10.401   2.389 -0.3461  0.0085 -0.6641
  397MOL0     C53466   1.283  10.356   2.430 -1.2545  0.3517  0.9740
  397MOL0     C53467   1.299  10.244   2.516  0.5409 -0.2676 -0.2043
  397MOL0     O53468   1.418  10.191   2.536 -0.5479 -0.3048  0.0484
  397MOL0     C53469   1.437  10.078   2.627  0.1157  0.6303  0.6639
  397MOL0     C53470   1.590  10.034   2.629 -0.4189 -0.5328  1.3270
  397MOL0     C53471   1.643   9.966   2.499  0.8087  0.4584 -0.2662
  397MOL0     C53472   1.779   9.909   2.537  0.4461 -0.0484  1.4039
  397MOL0     C53473   1.836   9.849   2.412 -0.8703 -0.2784  0.3739
  397MOL0     C53474   1.773   9.707   2.380 -0.7954  0.2212 -0.2365
  397MOL0     C53475   1.829   9.656   2.251 -0.7276 -0.0496  0.5038
  397MOL0     C53476   1.798   9.735   2.129  0.2703 -0.8709 -0.4187
  397MOL0     N53477   1.802   9.661   2.006 -0.8356  0.3237  1.1722
  397MOL0     C53478   1.698   9.587   1.951  0.2918 -1.9963  0.0123
  397MOL0     C53479   1.721   9.575   1.813  0.9271 -0.2807 -0.7889
  397MOL0     C53480   1.627   9.502   1.725  0.4407  0.9347 -0.8918
  397MOL0     C53481   1.567   9.373   1.796 -0.1467 -0.2437 -0.2401
  397MOL0     C53482   1.493   9.287   1.702 -0.2656 -0.2384 -0.0988
  397MOL0     C53483   1.353   9.342   1.657 -0.9129  0.6043 -0.6576
  397MOL0     O53484   1.278   9.248   1.593 -0.3543  0.0982  0.0736
  397MOL0     C53485   1.188   9.281   1.498 -0.1457 -0.4978 -0.1470
  397MOL0     C53486   1.150   9.186   1.401 -0.6395  0.3443 -1.0846
  397MOL0     C53487   1.060   9.209   1.302 -1.0572 -0.4876  0.2903
  397MOL0     C53488   1.043   9.106   1.191 -0.7366  0.0635 -0.2521
  397MOL0     C53489   1.002   9.331   1.284 -0.4608 -1.3425  0.3836
  397MOL0     C53490   0.913   9.361   1.171 -0.5481 -0.6472  0.5080
  397MOL0     O53491   0.936   9.476   1.106  0.2220  0.3947 -0.4467
  397MOL0     C53492   0.865   9.515   0.997  0.0773 -0.2314  1.3222
  397MOL0     C53493   0.764   9.617   1.012 -0.3264  0.4732  0.4020
  397MOL0     C53494   0.691   9.662   0.905  0.3792  0.3916  0.3018
  397MOL0     C53495   0.719   9.609   0.777  0.8202 -0.0616 -0.0363
  397MOL0     O53496   0.639   9.655   0.665 -0.0286 -0.3631  0.8019
  397MOL0     C53497   0.553   9.766   0.674 -0.7122  0.1080 -0.0900
  397MOL0     C53498   0.512   9.824   0.538  0.7363 -1.1393 -0.5853
  397MOL0     C53499   0.624   9.874   0.447  0.4316 -0.6725  0.1191
  397MOL0     C53500   0.602   9.865   0.295 -0.1806  0.4371 -0.2646
  397MOL0     C53501   0.712   9.910   0.201  0.0406  0.1132  0.3450
  397MOL0     C53502   0.858   9.853   0.227  0.0375 -0.5853 -0.5481
  397MOL0     C53503   0.849   9.700   0.194 -0.3040  0.3407  0.0146
  397MOL0     C53504   0.951   9.607   0.272 -1.2940 -0.1851 -0.9182
  397MOL0    Cl53505   0.924   9.421   0.266  0.4640  0.1020 -0.2039
  397MOL0     C53506   0.806   9.498   0.765 -0.5791 -0.3886  0.3942
  397MOL0     C53507   0.879   9.449   0.873 -0.5795  0.1718  0.6664
  397MOL0     O53508   0.829   9.277   1.141 -0.5172 -0.0801 -0.8218
  397MOL0     C53509   1.033   9.431   1.379 -0.6482  0.0114 -0.1339
  397MOL0     C53510   1.120   9.407   1.486  0.6254  0.9101  0.0113
  397MOL0     N53511   1.845   9.620   1.792 -0.6316 -0.1742  0.3575
  397MOL0     N53512   1.894   9.663   1.903 -0.5996  0.0038 -0.4256
  397MOL0     C53513   1.190  10.191   2.573  0.0276  0.2200 -0.1090
  397MOL0     C53514   1.066  10.245   2.547  0.3459  0.4623 -0.5033
  397MOL0     C53515   0.710  10.413   2.333 -0.7717  0.3313 -1.2491
  397MOL0     C53516   0.589  10.349   2.347 -0.0141 -0.1274  0.2885
  397MOL0     C53517   0.502  10.374   2.246  0.4783  0.2291 -0.7224
  397MOL0     C53518   0.522  10.463   2.137  0.0369 -0.6232 -0.2130
  397MOL0     O53519   0.432  10.481   2.042  0.3884 -0.3719  0.3337
  397MOL0     C53520   0.433  10.380   1.939 -0.3891  0.8512  0.1117
  397MOL0     C53521   0.306  10.293   1.944  0.6013 -0.8177  1.2991
  397MOL0     C53522   0.264  10.246   1.803 -0.2209 -0.1031  0.0695
  397MOL0     C53523   0.181  10.121   1.808 -1.2248 -0.1551  0.3638
  397MOL0     C53524   0.056  10.161   1.862 -0.0462  0.9273 -0.4438
  397MOL0     C53525  -0.059  10.168   1.908  0.2783 -0.0506  0.0369
  397MOL0     C53526   0.651  10.523   2.134 -0.6619 -0.3857 -0.2545
  397MOL0     C53527   0.749  10.486   2.224  0.3862  0.0347  0.7878
  397MOL0     H53528   1.147  10.475   2.311 -0.1333 -0.7210 -1.3898
  397MOL0     H53529   1.360  10.395   2.364 -0.4228 -1.5839  0.7281
  397MOL0     H53530   1.405  10.110   2.726 -0.0227 -0.1081  0.8628
  397MOL0     H53531   1.373   9.992   2.602 -2.2504  1.4339  3.4776
  397MOL0     H53532   1.647  10.127   2.640  2.3452 -1.6585 -1.8363
  397MOL0     H53533   1.607   9.971   2.717 -1.6442 -1.6543  0.7963
  397MOL0     H53534   1.582   9.881   2.465  0.9794  0.8034 -1.4874
  397MOL0     H53535   1.636  10.035   2.415 -3.0269 -0.2149 -0.7095
  397MOL0     H53536   1.836   9.993   2.578  1.4030 -1.2266  2.5592
  397MOL0     H53537   1.779   9.822   2.602  1.6524  1.1955  3.1511
  397MOL0     H53538   1.813   9.916   2.329 -1.6995 -0.1695  0.6827
  397MOL0     H53539   1.945   9.849   2.425 -1.1212  2.7959  4.8505
  397MOL0     H53540   1.801   9.640   2.462 -4.0261  0.1207  0.9348
  397MOL0     H53541   1.664   9.708   2.382 -0.8139  0.6704 -1.1489
  397MOL0     H53542   1.938   9.647   2.256 -0.4301  0.8927 -2.4667
  397MOL0     H53543   1.791   9.556   2.232  3.3301 -1.4258 -1.5408
  397MOL0     H53544   1.876   9.810   2.119 -0.2326 -0.3489 -0.4606
  397MOL0     H53545   1.693   9.766   2.135 -0.0388 -1.7156 -1.1934
  397MOL0     H53546   1.603   9.565   1.998 -0.3106 -0.4590 -0.3949
  397MOL0     H53547   1.543   9.570   1.711 -0.2605 -0.0874 -1.8218
  397MOL0     H53548   1.677   9.478   1.630  2.4518  4.7076 -0.9831
  397MOL0     H53549   1.502   9.409   1.877  2.0623  0.1859  1.4538
  397MOL0     H53550   1.641   9.309   1.845 -1.2820 -2.1380 -0.9068
  397MOL0     H53551   1.490   9.199   1.766  2.8913 -1.0625 -0.9298
  397MOL0     H53552   1.545   9.256   1.611 -0.0803  2.3308 -0.9581
  397MOL0     H53553   1.364   9.430   1.592  1.8550  0.8588  0.0288
  397MOL0     H53554   1.302   9.374   1.749  4.1082  3.3621  1.6016
  397MOL0     H53555   1.195   9.088   1.404  2.3752  1.6328  0.4350
  397MOL0     H53556   1.127   9.037   1.181  0.7020  1.9282 -1.7149
  397MOL0     H53557   0.952   9.047   1.206 -0.7178 -0.0172 -0.4507
  397MOL0     H53558   1.038   9.142   1.088 -1.7274 -1.8489 -0.9330
  397MOL0     H53559   0.755   9.672   1.105 -3.3983  0.8344 -0.0166
  397MOL0     H53560   0.625   9.749   0.907 -0.3793  0.2103 -4.5497
  397MOL0     H53561   0.463   9.761   0.736 -0.4421 -1.9345  0.2019
  397MOL0     H53562   0.615   9.848   0.711  0.3351  0.4340 -2.4134
  397MOL0     H53563   0.456   9.741   0.494  0.6411 -1.0985 -0.5417
  397MOL0     H53564   0.442   9.905   0.561  1.1642 -1.0184  0.3663
  397MOL0     H53565   0.721   9.836   0.480  1.1765 -0.9168 -2.2196
  397MOL0     H53566   0.629   9.982   0.465  1.5090 -0.5175 -1.0106
  397MOL0     H53567   0.562   9.768   0.263 -2.8375  1.7309 -1.2237
  397MOL0     H53568   0.523   9.938   0.271  0.5394  1.2255 -0.2824
  397MOL0     H53569   0.706  10.019   0.196 -3.1586 -0.0353 -0.9008
  397MOL0     H53570   0.689   9.882   0.097 -1.7688  3.7963 -0.3903
  397MOL0     H53571   0.921   9.902   0.152 -2.3216 -0.0104 -2.2654
  397MOL0     H53572   0.888   9.878   0.329 -3.6777  2.4181  0.0146
  397MOL0     H53573   0.879   9.686   0.089  2.8261  0.1230  0.8430
  397MOL0     H53574   0.749   9.658   0.208  0.0625 -0.1237  1.4313
  397MOL0     H53575   0.946   9.625   0.380 -1.1679  0.3578 -0.9982
  397MOL0     H53576   1.043   9.632   0.219 -0.8747  0.4538  0.0731
  397MOL0     H53577   0.793   9.453   0.667  1.0525  0.1097 -0.0733
  397MOL0     H53578   0.947   9.364   0.869  1.6039  1.7734  1.7733
  397MOL0     H53579   0.990   9.528   1.356  2.2338  1.4206  0.0611
  397MOL0     H53580   1.123   9.485   1.561 -0.5909  1.5596 -0.5886
  397MOL0     H53581   1.194  10.103   2.636 -1.7981  1.9456  2.6180
  397MOL0     H53582   0.979  10.186   2.573  2.4774 -3.0913 -0.8386
  397MOL0     H53583   0.575  10.288   2.435  2.2891  0.4302  1.1352
  397MOL0     H53584   0.407  10.323   2.254  0.3780  0.6044  0.7572
  397MOL0     H53585   0.449  10.423   1.839  0.5844 -1.4384 -0.7867
  397MOL0     H53586   0.517  10.310   1.946 -2.6328 -1.9171  1.1095
  397MOL0     H53587   0.228  10.352   1.992  0.4907  1.6427 -1.5757
  397MOL0     H53588   0.323  10.209   2.012  1.6213 -2.4147 -0.7985
  397MOL0     H53589   0.352  10.218   1.743  0.4308 -1.8142  1.7266
  397MOL0     H53590   0.204  10.325   1.757 -0.0515 -0.8421 -1.4812
  397MOL0     H53591   0.234  10.042   1.863 -0.6859  1.6603  2.6521
  397MOL0     H53592   0.168  10.087   1.705 -3.8601  1.6618  0.0069
  397MOL0     H53593  -0.154  10.179   1.955  0.7726 -2.5123  1.8113
  397MOL0     H53594   0.688  10.590   2.056  1.5694  3.9014  3.9736
  397MOL0     H53595   0.852  10.515   2.209  1.9378 -5.2869 -1.3336
  398MOL0     O53596   4.864   8.201   4.013  0.6068  0.5126  0.0451
  398MOL0     C53597   4.894   8.209   3.896 -0.3189 -0.2398  1.1080
  398MOL0     O53598   5.025   8.190   3.848  0.4196 -0.2570 -0.5375
  398MOL0     C53599   5.125   8.144   3.927  0.1398 -1.3791  0.6367
  398MOL0     C53600   5.112   8.043   4.022 -0.3305 -0.1091 -1.0872
  398MOL0     C53601   5.225   8.004   4.101  1.0263 -0.1613 -0.2622
  398MOL0     C53602   5.342   8.071   4.097 -0.4969 -0.3752  0.5770
  398MOL0     O53603   5.435   8.056   4.194 -0.2415  0.0775 -0.2732
  398MOL0     C53604   5.478   8.174   4.274 -0.0105  0.5670 -0.6835
  398MOL0     C53605   5.553   8.127   4.390  0.4350  0.2591 -0.8565
  398MOL0     C53606   5.677   8.050   4.340  0.2993 -0.1991 -0.1300
  398MOL0     C53607   5.730   7.967   4.455 -0.2142  0.2612 -0.3014
  398MOL0     C53608   5.853   7.893   4.414  0.0756  0.0599  0.4689
  398MOL0     C53609   5.901   7.800   4.522 -0.4761 -0.1687  0.0338
  398MOL0     C53610   6.042   7.743   4.498  0.8447 -0.9488 -0.0062
  398MOL0     C53611   6.081   7.648   4.619  0.1454  0.1200 -1.1770
  398MOL0     N53612   6.166   7.717   4.727 -1.1270 -0.5025  0.4216
  398MOL0     C53613   6.128   7.823   4.796 -0.0082 -0.0056 -0.0675
  398MOL0     C53614   6.233   7.855   4.872 -0.5687  0.5960  0.8984
  398MOL0     C53615   6.233   7.961   4.972  0.1419  0.6741  0.3209
  398MOL0     C53616   6.292   8.087   4.915  0.2677 -0.3783  0.8172
  398MOL0     C53617   6.258   8.211   4.991  1.2707 -0.1384  0.5675
  398MOL0     C53618   6.330   8.339   4.946 -0.2469 -0.2782  0.7838
  398MOL0     O53619   6.354   8.431   5.062 -0.4232 -0.7192  0.1120
  398MOL0     C53620   6.248   8.469   5.133  0.4294 -0.0424  0.7879
  398MOL0     C53621   6.250   8.461   5.271  0.0064  0.1128 -0.1336
  398MOL0     C53622   6.137   8.497   5.347 -0.0916 -0.4180  0.6455
  398MOL0     C53623   6.143   8.449   5.489  0.5984 -0.1815  0.8979
  398MOL0     C53624   6.015   8.544   5.283 -0.1268 -0.9424 -0.5579
  398MOL0     C53625   5.904   8.603   5.359  1.1913  1.3077 -0.3080
  398MOL0     O53626   5.798   8.637   5.293 -0.5193  0.7032 -0.3587
  398MOL0     C53627   5.690   8.708   5.345 -0.7873 -0.2192  1.4300
  398MOL0     C53628   5.648   8.733   5.479 -1.0488  0.3446 -0.0757
  398MOL0     C53629   5.538   8.821   5.502  0.1937  0.2332  0.3663
  398MOL0     C53630   5.451   8.855   5.401 -0.2875  0.2120 -0.4761
  398MOL0     O53631   5.347   8.940   5.419  0.0459  0.3957  0.5734
  398MOL0     C53632   5.355   9.064   5.352 -0.0589 -0.9745  0.3541
  398MOL0     C53633   5.358   9.186   5.435 -1.0091  0.5947  0.1499
  398MOL0     C53634   5.220   9.251   5.464 -1.6772 -0.4773 -0.6793
  398MOL0     C53635   5.211   9.410   5.453 -0.4384  0.6960 -0.6997
  398MOL0     C53636   5.082   9.483   5.501  0.0071 -0.2314  0.4499
  398MOL0     C53637   4.969   9.459   5.398 -0.4063  1.3460  0.2302
  398MOL0     C53638   4.833   9.509   5.446  0.9631 -0.2078 -0.1786
  398MOL0     C53639   4.826   9.654   5.485  0.6479 -1.2365  0.0701
  398MOL0    Cl53640   4.884   9.693   5.646  0.3720 -0.0344 -1.0686
  398MOL0     C53641   5.489   8.820   5.274  0.7002 -0.8630  0.1370
  398MOL0     C53642   5.602   8.752   5.249  0.7937 -0.3945  0.6110
  398MOL0     O53643   5.912   8.604   5.482  0.4950  0.1954  0.5683
  398MOL0     C53644   6.019   8.552   5.146 -0.4994 -0.9498  0.7189
  398MOL0     C53645   6.138   8.521   5.067 -0.5826  0.3373 -0.1304
  398MOL0     N53646   6.337   7.775   4.840  0.0640  0.8218 -0.4260
  398MOL0     N53647   6.294   7.691   4.756  0.3077 -0.3165 -0.7490
  398MOL0     C53648   5.366   8.165   3.994  0.4538  0.6768  1.3046
  398MOL0     C53649   5.256   8.190   3.905  1.2598 -0.4941 -0.1641
  398MOL0     C53650   4.786   8.257   3.793  0.5411 -0.2812 -1.4654
  398MOL0     C53651   4.797   8.233   3.659 -0.6304  0.9679  0.3734
  398MOL0     C53652   4.701   8.280   3.571 -0.6145  0.3109 -0.0488
  398MOL0     C53653   4.588   8.348   3.615 -0.3829 -0.3703  0.6455
  398MOL0     O53654   4.504   8.398   3.517  0.5179  0.2590  0.8776
  398MOL0     C53655   4.407   8.310   3.456 -0.9911 -0.4536  0.6177
  398MOL0     C53656   4.264   8.386   3.436 -0.5522  0.7290 -0.3596
  398MOL0     C53657   4.179   8.387   3.572 -0.2491  0.2785 -0.5745
  398MOL0     C53658   4.108   8.246   3.606 -0.2213 -0.6984  0.6896
  398MOL0     C53659   4.036   8.200   3.484 -0.9178  0.3369  0.0504
  398MOL0     C53660   3.986   8.156   3.389  0.0211 -0.6387 -0.3368
  398MOL0     C53661   4.571   8.357   3.756 -0.1892 -0.3941 -0.7231
  398MOL0     C53662   4.671   8.314   3.842 -1.1840 -0.4416  0.3400
  398MOL0     H53663   5.018   7.994   4.046 -0.0480  0.5134  1.7009
  398MOL0     H53664   5.220   7.919   4.169 -3.1338  0.9205  1.1012
  398MOL0     H53665   5.539   8.248   4.221  1.9373 -1.1348 -0.9709
  398MOL0     H53666   5.385   8.218   4.309  0.5565 -0.3958  2.3015
  398MOL0     H53667   5.597   8.218   4.433  0.4381 -0.1484  0.0171
  398MOL0     H53668   5.500   8.059   4.457  4.3938 -4.3358 -1.8384
  398MOL0     H53669   5.653   7.988   4.254  0.6611 -2.5934  1.3878
  398MOL0     H53670   5.756   8.124   4.324 -2.2775  2.6233 -0.8222
  398MOL0     H53671   5.756   8.016   4.549  0.1643 -3.1934  1.5520
  398MOL0     H53672   5.646   7.902   4.480 -0.1259 -0.6939 -2.2727
  398MOL0     H53673   5.833   7.835   4.324  1.0436 -2.1297  1.5895
  398MOL0     H53674   5.927   7.967   4.383 -1.9005  1.5969 -0.8320
  398MOL0     H53675   5.918   7.848   4.619  2.5878 -0.1876 -0.3791
  398MOL0     H53676   5.824   7.723   4.528 -0.6882  0.1391  3.1893
  398MOL0     H53677   6.024   7.690   4.404  0.9657  1.3450 -1.4200
  398MOL0     H53678   6.102   7.832   4.475  2.5866 -1.7998  1.0386
  398MOL0     H53679   6.127   7.556   4.581 -1.4883 -0.7189 -1.2076
  398MOL0     H53680   5.994   7.608   4.671 -0.5751  1.1875 -1.5319
  398MOL0     H53681   6.039   7.886   4.791 -0.1205 -0.2402 -1.4828
  398MOL0     H53682   6.130   7.980   5.004  0.1160 -0.0569  0.7125
  398MOL0     H53683   6.286   7.918   5.058  2.0321 -3.5749 -2.5930
  398MOL0     H53684   6.247   8.112   4.818 -0.5901 -0.4859  1.1820
  398MOL0     H53685   6.400   8.085   4.903  0.1103  0.6980 -1.2512
  398MOL0     H53686   6.263   8.206   5.100 -0.4312  1.8527  0.8056
  398MOL0     H53687   6.152   8.238   4.987  1.1395 -0.2486  2.3505
  398MOL0     H53688   6.282   8.392   4.864  2.8273 -1.1574 -1.8057
  398MOL0     H53689   6.418   8.297   4.897 -2.3671 -1.5593 -2.2264
  398MOL0     H53690   6.335   8.408   5.314 -0.3694 -1.8580 -1.6442
  398MOL0     H53691   6.060   8.383   5.517  2.1845 -1.2859  3.3191
  398MOL0     H53692   6.239   8.405   5.517  0.6216 -0.1248  0.9066
  398MOL0     H53693   6.142   8.540   5.550  0.8156  0.2808  0.2209
  398MOL0     H53694   5.700   8.694   5.566 -1.7977  1.1172  0.7457
  398MOL0     H53695   5.511   8.844   5.605 -0.0240 -2.1484  0.9021
  398MOL0     H53696   5.445   9.063   5.289 -1.1514 -0.2238 -1.2870
  398MOL0     H53697   5.281   9.075   5.273  1.2153 -1.0096 -0.8900
  398MOL0     H53698   5.406   9.164   5.531 -0.9896 -0.2401 -0.0406
  398MOL0     H53699   5.419   9.265   5.391 -0.5131  0.4571  0.5753
  398MOL0     H53700   5.185   9.220   5.563  4.0139 -0.3576  1.7633
  398MOL0     H53701   5.149   9.211   5.391 -2.1061  2.1161 -1.7745
  398MOL0     H53702   5.308   9.436   5.494  1.2570 -3.0886 -1.8738
  398MOL0     H53703   5.223   9.445   5.350 -0.7399  1.0284 -0.6253
  398MOL0     H53704   5.099   9.591   5.508 -2.2687  0.1502  0.7242
  398MOL0     H53705   5.051   9.453   5.601 -2.9741 -1.3999 -0.7206
  398MOL0     H53706   5.000   9.507   5.304  2.1469  0.2794  0.4506
  398MOL0     H53707   4.951   9.354   5.377  0.0891  1.5402 -1.2815
  398MOL0     H53708   4.800   9.446   5.529 -1.7220 -1.2922 -1.9376
  398MOL0     H53709   4.754   9.503   5.370 -1.5621 -0.6477  2.3186
  398MOL0     H53710   4.722   9.683   5.466  1.3248  1.4732  0.0066
  398MOL0     H53711   4.876   9.708   5.404 -1.9242 -1.9777 -2.1555
  398MOL0     H53712   5.433   8.862   5.191  2.7228 -3.9030 -3.0561
  398MOL0     H53713   5.620   8.742   5.143 -2.2959  1.6185 -0.2348
  398MOL0     H53714   5.931   8.582   5.091  0.6647 -2.3273 -2.1155
  398MOL0     H53715   6.139   8.523   4.958  2.8122 -2.4997 -0.3483
  398MOL0     H53716   5.465   8.210   3.987  1.4640 -1.4588  0.9280
  398MOL0     H53717   5.278   8.258   3.824  1.9400  0.3902  0.7364
  398MOL0     H53718   4.883   8.179   3.620 -0.0469 -0.2471  3.0603
  398MOL0     H53719   4.722   8.284   3.464 -2.8826  0.2707 -0.5479
  398MOL0     H53720   4.440   8.284   3.355  2.3275  1.1118  1.1812
  398MOL0     H53721   4.388   8.217   3.511 -2.5316 -0.2342  0.5100
  398MOL0     H53722   4.216   8.344   3.347 -0.5127 -0.5552  0.1984
  398MOL0     H53723   4.299   8.486   3.410  2.6315  0.7507  3.1553
  398MOL0     H53724   4.112   8.473   3.566  2.2996  2.8662  3.2308
  398MOL0     H53725   4.247   8.417   3.652  1.4563 -2.4981 -0.8452
  398MOL0     H53726   4.032   8.270   3.680 -0.2556  1.8889 -0.0804
  398MOL0     H53727   4.180   8.174   3.644  1.2182 -0.6352 -1.7090
  398MOL0     H53728   3.946   8.107   3.302 -2.6063  0.2829  0.2657
  398MOL0     H53729   4.485   8.407   3.799  1.0944  0.6046  0.7746
  398MOL0     H53730   4.646   8.314   3.947 -0.8891 -2.5908  0.4627
  399MOL0     O53731   5.360   1.751   7.578 -0.2281  0.1131  0.2788
  399MOL0     C53732   5.461   1.697   7.626  0.5240  0.6178  0.2405
  399MOL0     O53733   5.578   1.658   7.561 -0.3941 -0.2488 -0.6826
  399MOL0     C53734   5.601   1.684   7.430  0.0322  1.1497  0.4709
  399MOL0     C53735   5.504   1.685   7.322 -0.0987 -0.2005 -0.6332
  399MOL0     C53736   5.541   1.712   7.194  0.4449 -0.6907 -0.0759
  399MOL0     C53737   5.675   1.729   7.153  0.0043  0.2002  0.2712
  399MOL0     O53738   5.717   1.768   7.026  0.1129  0.0872 -0.3819
  399MOL0     C53739   5.620   1.762   6.922 -0.0744 -0.0835 -0.4501
  399MOL0     C53740   5.538   1.894   6.923  0.4564  0.1655 -0.3288
  399MOL0     C53741   5.447   1.923   6.793 -0.3694 -0.0661  0.2932
  399MOL0     C53742   5.367   2.052   6.809 -0.3174  0.7444 -0.4037
  399MOL0     C53743   5.254   2.077   6.713 -0.2181  0.5202 -0.5886
  399MOL0     C53744   5.308   2.088   6.564 -0.2069 -0.8286 -0.0581
  399MOL0     C53745   5.193   2.119   6.463  0.1365 -0.7185  0.6352
  399MOL0     C53746   5.144   1.981   6.404  0.3540  0.3580  0.3458
  399MOL0     N53747   5.049   1.919   6.498 -0.2532  0.4406 -0.5004
  399MOL0     C53748   4.924   1.976   6.516  0.3800  0.3630  0.2891
  399MOL0     C53749   4.865   1.897   6.601  0.7982  0.9962 -0.9713
  399MOL0     C53750   4.734   1.919   6.657  0.2508  0.7673 -0.3459
  399MOL0     C53751   4.630   1.888   6.550  0.4512  0.3902  0.5558
  399MOL0     C53752   4.487   1.930   6.584 -0.6367 -0.4890 -0.5182
  399MOL0     C53753   4.422   1.859   6.704 -0.3960  0.5534 -0.6183
  399MOL0     O53754   4.431   1.716   6.702 -1.0323  0.3945  0.2114
  399MOL0     C53755   4.497   1.665   6.814  0.3768  0.1978 -0.5191
  399MOL0     C53756   4.424   1.662   6.933 -0.6524 -0.6919  0.3672
  399MOL0     C53757   4.466   1.597   7.048  0.0110 -0.2523 -0.0266
  399MOL0     C53758   4.378   1.623   7.170  0.0894  0.9908  0.3341
  399MOL0     C53759   4.593   1.526   7.038  0.6650 -0.2777  1.1915
  399MOL0     C53760   4.660   1.448   7.141  0.0379  0.4101  0.0794
  399MOL0     O53761   4.732   1.339   7.111  0.0761 -0.9904 -0.5633
  399MOL0     C53762   4.807   1.269   7.202  0.9028 -0.5417  0.4867
  399MOL0     C53763   4.912   1.322   7.268 -0.9564 -0.1553 -0.3051
  399MOL0     C53764   4.984   1.246   7.358 -0.1230  0.2983  0.7448
  399MOL0     C53765   4.949   1.116   7.391 -0.0114 -0.1695  0.0004
  399MOL0     O53766   5.015   1.022   7.474  0.2660 -0.4895  0.0514
  399MOL0     C53767   5.164   1.030   7.468 -0.3845  0.3690  1.2102
  399MOL0     C53768   5.216   0.940   7.572  0.1835 -0.2123 -0.2431
  399MOL0     C53769   5.361   0.893   7.534  0.7816  1.0810 -0.6800
  399MOL0     C53770   5.416   0.786   7.628  0.0292 -0.7412  0.1281
  399MOL0     C53771   5.551   0.736   7.578  0.2500 -0.0678 -0.3319
  399MOL0     C53772   5.584   0.617   7.666 -0.6415  0.9831 -0.2072
  399MOL0     C53773   5.732   0.564   7.644  0.5305  0.8158 -0.4680
  399MOL0     C53774   5.784   0.464   7.747  0.2012  0.4749  0.3721
  399MOL0    Cl53775   5.661   0.316   7.751 -0.1527  0.0082  0.0702
  399MOL0     C53776   4.836   1.069   7.325  0.5834 -0.1915 -0.3922
  399MOL0     C53777   4.763   1.144   7.237 -0.0260  0.0334 -0.0735
  399MOL0     O53778   4.633   1.483   7.257  0.6191  0.5276 -0.1701
  399MOL0     C53779   4.664   1.519   6.913  0.3794  0.1348  0.3731
  399MOL0     C53780   4.622   1.598   6.804  0.3837 -1.4654  0.8517
  399MOL0     N53781   4.939   1.786   6.639  0.5430 -0.4585 -0.6276
  399MOL0     N53782   5.059   1.810   6.588  0.7959 -0.5843 -0.7490
  399MOL0     C53783   5.772   1.715   7.250 -0.0942 -0.4423 -0.3629
  399MOL0     C53784   5.740   1.694   7.392 -1.3484  0.8232 -0.5115
  399MOL0     C53785   5.454   1.634   7.762 -1.1714  0.3439 -0.0220
  399MOL0     C53786   5.566   1.564   7.822  0.2066  0.0551  0.2573
  399MOL0     C53787   5.554   1.514   7.945  0.8473  0.0072 -0.2737
  399MOL0     C53788   5.443   1.534   8.027  0.6162 -0.5193 -0.2252
  399MOL0     O53789   5.433   1.468   8.147 -0.6929 -0.3885  0.0530
  399MOL0     C53790   5.339   1.516   8.244  0.5788 -0.1140 -0.1555
  399MOL0     C53791   5.389   1.506   8.389 -0.7652 -0.1760  0.0235
  399MOL0     C53792   5.500   1.615   8.419 -0.2650 -0.3540 -0.6105
  399MOL0     C53793   5.444   1.764   8.434 -0.2703  0.1879  0.0278
  399MOL0     C53794   5.538   1.862   8.382  0.7101 -0.1365  0.3594
  399MOL0     C53795   5.607   1.947   8.332  1.4876  0.1045  0.6098
  399MOL0     C53796   5.338   1.614   7.973  0.8389  0.2764  0.4251
  399MOL0     C53797   5.337   1.648   7.839  0.4853 -0.2996 -0.0242
  399MOL0     H53798   5.401   1.665   7.350  0.4036 -0.9747  0.7851
  399MOL0     H53799   5.462   1.724   7.121 -0.5389  3.3102  1.4007
  399MOL0     H53800   5.674   1.751   6.828 -2.0985  0.7261 -1.7829
  399MOL0     H53801   5.558   1.672   6.931  1.5786 -1.1073  1.5870
  399MOL0     H53802   5.467   1.896   7.007  1.8526  0.2646  0.8752
  399MOL0     H53803   5.609   1.976   6.916 -1.3123  1.9684  1.5585
  399MOL0     H53804   5.498   1.916   6.696 -0.7606  1.9567 -0.0980
  399MOL0     H53805   5.377   1.843   6.765  3.0724 -2.5704 -2.1256
  399MOL0     H53806   5.314   2.042   6.905 -1.4194  2.0448 -0.8493
  399MOL0     H53807   5.433   2.139   6.810 -0.6774  1.0128  0.2940
  399MOL0     H53808   5.183   1.993   6.716  1.1995 -0.7189 -0.4106
  399MOL0     H53809   5.196   2.165   6.741 -3.4527 -1.4068 -0.7408
  399MOL0     H53810   5.384   2.166   6.559 -3.2433  2.4549  0.5205
  399MOL0     H53811   5.357   1.993   6.543  0.1703 -1.1235  1.9797
  399MOL0     H53812   5.110   2.174   6.508 -1.3333  0.0654 -2.6960
  399MOL0     H53813   5.226   2.179   6.377 -1.3562 -2.3194 -1.1608
  399MOL0     H53814   5.227   1.916   6.375 -1.9097 -2.4736 -0.2646
  399MOL0     H53815   5.085   2.003   6.315 -3.7042  0.7246  2.8852
  399MOL0     H53816   4.889   2.074   6.484 -0.1634 -0.6395 -2.4863
  399MOL0     H53817   4.721   1.851   6.741 -1.7093 -1.8236 -2.5748
  399MOL0     H53818   4.716   2.022   6.689 -3.3122  0.8812 -2.1771
  399MOL0     H53819   4.637   1.784   6.519 -2.7119  0.5348 -1.0149
  399MOL0     H53820   4.648   1.950   6.461 -0.6042  0.8368  0.6443
  399MOL0     H53821   4.428   1.888   6.503  1.6456 -1.6509 -1.6794
  399MOL0     H53822   4.487   2.039   6.584  0.6196 -0.4142 -2.8333
  399MOL0     H53823   4.317   1.890   6.705 -1.1064 -1.6732 -1.0709
  399MOL0     H53824   4.469   1.886   6.799 -2.0990 -1.5355  0.9242
  399MOL0     H53825   4.330   1.713   6.918  0.0419 -0.2952 -3.7788
  399MOL0     H53826   4.330   1.526   7.182  1.5751  0.1901  0.0131
  399MOL0     H53827   4.437   1.654   7.257 -1.9128  0.5238  1.9444
  399MOL0     H53828   4.302   1.699   7.145 -0.0798  0.5678 -0.4789
  399MOL0     H53829   4.928   1.426   7.242 -1.9648  0.2668  0.6914
  399MOL0     H53830   5.068   1.301   7.400  1.0925  1.9185 -3.3204
  399MOL0     H53831   5.188   0.988   7.370  0.9574  1.3912  1.0759
  399MOL0     H53832   5.202   1.133   7.472  0.7638  0.1232 -1.4959
  399MOL0     H53833   5.210   0.991   7.668  0.1865 -0.1269 -0.2881
  399MOL0     H53834   5.162   0.845   7.565  3.1930 -2.1338  0.7236
  399MOL0     H53835   5.423   0.983   7.527  1.5020  0.6168 -0.3976
  399MOL0     H53836   5.352   0.861   7.430 -0.5386  0.9905 -0.5622
  399MOL0     H53837   5.434   0.839   7.722  0.6219  0.2630 -0.5338
  399MOL0     H53838   5.343   0.707   7.649 -0.3227 -0.2811  0.6857
  399MOL0     H53839   5.625   0.813   7.602  0.2729  0.1025 -0.9598
  399MOL0     H53840   5.551   0.703   7.474  0.1992 -1.5067  0.1012
  399MOL0     H53841   5.581   0.660   7.767 -2.2513 -0.3507  0.3529
  399MOL0     H53842   5.508   0.539   7.666  0.9794 -0.6655 -0.2494
  399MOL0     H53843   5.789   0.656   7.633  0.6905  0.5527 -2.0916
  399MOL0     H53844   5.743   0.520   7.545 -0.2032  0.0803 -0.2338
  399MOL0     H53845   5.790   0.516   7.843 -1.4507  1.5123 -0.0453
  399MOL0     H53846   5.885   0.437   7.715 -1.0445 -2.7627 -1.2913
  399MOL0     H53847   4.803   0.971   7.357 -2.6384  0.5982 -0.9502
  399MOL0     H53848   4.674   1.101   7.192  0.0077 -0.2970  0.1669
  399MOL0     H53849   4.759   1.467   6.908  1.7920  2.5619  0.0201
  399MOL0     H53850   4.676   1.587   6.710  0.2587 -1.1786  0.7444
  399MOL0     H53851   5.874   1.740   7.222 -0.3940  1.4340  0.0616
  399MOL0     H53852   5.822   1.684   7.462 -1.4730  1.6797 -0.2207
  399MOL0     H53853   5.657   1.544   7.766  1.5526  1.8422  1.6931
  399MOL0     H53854   5.639   1.466   7.992  1.5466 -0.4665 -1.9398
  399MOL0     H53855   5.316   1.622   8.229  2.6856  0.8958  2.9004
  399MOL0     H53856   5.243   1.465   8.229  0.2904  0.1571  0.6979
  399MOL0     H53857   5.419   1.402   8.409 -1.0685  0.1882  2.7852
  399MOL0     H53858   5.299   1.527   8.447 -0.9304  1.7086 -0.8351
  399MOL0     H53859   5.584   1.611   8.349 -0.8690 -0.2534 -1.3534
  399MOL0     H53860   5.545   1.585   8.514 -2.5683  1.3256  1.1148
  399MOL0     H53861   5.426   1.787   8.539  1.3896  1.3229  0.1181
  399MOL0     H53862   5.344   1.778   8.391 -0.3258  1.6687  0.5898
  399MOL0     H53863   5.676   2.020   8.296 -2.0178  2.3076 -2.3124
  399MOL0     H53864   5.240   1.636   8.016  0.9485  3.1540 -0.5668
  399MOL0     H53865   5.262   1.712   7.794  1.6393 -0.8256 -2.8830
  400MOL0     O53866   5.672   1.211   7.402 -0.1756 -0.0332  0.2817
  400MOL0     C53867   5.581   1.282   7.359 -0.3017  0.7062 -0.9496
  400MOL0     O53868   5.572   1.320   7.226  0.2510  0.5410 -0.1183
  400MOL0     C53869   5.685   1.285   7.152 -0.1411 -1.7199 -0.2252
  400MOL0     C53870   5.691   1.162   7.081  0.5482  0.8765 -0.5302
  400MOL0     C53871   5.805   1.117   7.010 -0.8066 -0.4480 -0.2035
  400MOL0     C53872   5.926   1.194   7.010  1.0697  0.2588 -1.0629
  400MOL0     O53873   6.048   1.163   6.957 -0.7163  0.1198 -0.1821
  400MOL0     C53874   6.052   1.048   6.875  0.1497 -1.4358 -0.6562
  400MOL0     C53875   6.192   0.992   6.860 -0.5174  0.4596 -0.6556
  400MOL0     C53876   6.271   1.066   6.750 -0.5791 -0.0015 -0.0673
  400MOL0     C53877   6.414   1.006   6.731  0.0077 -0.3738 -0.6208
  400MOL0     C53878   6.492   1.053   6.603 -0.5708 -0.1948 -0.7100
  400MOL0     C53879   6.466   1.197   6.560 -0.5344  0.1952  0.3365
  400MOL0     C53880   6.577   1.241   6.457 -0.1033 -0.0991 -1.0169
  400MOL0     C53881   6.555   1.385   6.409 -0.2119 -1.0334 -0.2518
  400MOL0     N53882   6.424   1.415   6.341 -0.6142  0.4427  0.4425
  400MOL0     C53883   6.305   1.442   6.397  0.3911 -0.4995 -0.3120
  400MOL0     C53884   6.226   1.470   6.295 -0.2456 -1.1989  0.1051
  400MOL0     C53885   6.081   1.511   6.316  0.2773  0.4747  0.8737
  400MOL0     C53886   6.058   1.660   6.281 -1.3343 -0.1582  0.6591
  400MOL0     C53887   6.114   1.759   6.384  0.1772 -0.4335 -0.0935
  400MOL0     C53888   6.153   1.884   6.304 -0.0484  0.1237 -0.8040
  400MOL0     O53889   6.285   1.931   6.337  0.3142  0.3012 -0.2094
  400MOL0     C53890   6.381   1.852   6.278 -0.9213  0.2351 -0.6657
  400MOL0     C53891   6.484   1.815   6.362  0.1780  0.6878 -0.4382
  400MOL0     C53892   6.593   1.739   6.326 -0.6060  0.6440  1.1891
  400MOL0     C53893   6.695   1.710   6.431  0.2178  0.0590  0.0350
  400MOL0     C53894   6.613   1.713   6.184  1.0572  0.0552  0.4804
  400MOL0     C53895   6.744   1.660   6.131  0.2543 -0.1837  0.1598
  400MOL0     O53896   6.815   1.738   6.045 -0.5550 -0.1509 -0.1975
  400MOL0     C53897   6.924   1.684   5.985 -0.0669 -0.5351  0.6641
  400MOL0     C53898   6.907   1.584   5.886 -0.5073  0.5555 -0.9076
  400MOL0     C53899   7.021   1.543   5.821 -1.5491 -0.5171  1.0732
  400MOL0     C53900   7.156   1.584   5.846  0.6492  0.1902  0.1170
  400MOL0     O53901   7.271   1.539   5.785 -0.0222 -0.6364 -0.2869
  400MOL0     C53902   7.333   1.421   5.841  0.3205 -0.7238 -0.5691
  400MOL0     C53903   7.477   1.413   5.809 -0.5430 -0.9520  1.3890
  400MOL0     C53904   7.585   1.474   5.893 -0.0501 -0.5923  0.3607
  400MOL0     C53905   7.725   1.424   5.858 -0.2381  0.1139 -0.7532
  400MOL0     C53906   7.830   1.475   5.961  0.1460  0.1322 -0.2248
  400MOL0     C53907   7.973   1.463   5.897 -0.0836 -0.4793 -1.3500
  400MOL0     C53908   8.078   1.527   5.997  0.1038  0.0004 -0.0202
  400MOL0     C53909   8.147   1.435   6.088  0.1449  0.0724 -0.0842
  400MOL0    Cl53910   8.024   1.337   6.172  0.0434  0.4030 -0.2239
  400MOL0     C53911   7.170   1.678   5.954 -0.2136 -0.4927  0.1760
  400MOL0     C53912   7.057   1.730   6.018  0.9613  0.4210  0.9769
  400MOL0     O53913   6.769   1.542   6.154  0.9063 -0.2256  0.0536
  400MOL0     C53914   6.510   1.758   6.096 -0.1057 -0.1747  0.6180
  400MOL0     C53915   6.391   1.823   6.139  0.2745  0.7903 -0.0625
  400MOL0     N53916   6.299   1.470   6.178 -0.2856 -0.2348  0.2211
  400MOL0     N53917   6.422   1.428   6.204 -0.0383 -0.8403  0.1275
  400MOL0     C53918   5.915   1.309   7.087 -1.1744  0.3489  0.2011
  400MOL0     C53919   5.808   1.361   7.147  0.0604  0.2103 -0.3083
  400MOL0     C53920   5.480   1.320   7.456 -0.4931 -0.6076 -0.5307
  400MOL0     C53921   5.487   1.283   7.591 -0.0532  0.2175 -0.9935
  400MOL0     C53922   5.376   1.312   7.682 -0.9398  0.5076  0.7166
  400MOL0     C53923   5.261   1.373   7.630  0.3693 -0.0151 -1.3528
  400MOL0     O53924   5.154   1.395   7.711 -0.2735 -0.6862 -0.0401
  400MOL0     C53925   5.094   1.273   7.755 -0.6229 -0.2113  0.1187
  400MOL0     C53926   4.992   1.288   7.863 -0.3721 -0.0868  1.0661
  400MOL0     C53927   5.052   1.357   7.984  0.2134 -0.1920  0.8803
  400MOL0     C53928   4.949   1.376   8.088 -0.1161 -0.0745 -0.2435
  400MOL0     C53929   4.945   1.246   8.168  1.2216 -0.5585 -0.0231
  400MOL0     C53930   4.961   1.144   8.234  0.2354 -0.1456  0.4031
  400MOL0     C53931   5.264   1.424   7.506 -0.1543  0.0623  1.0299
  400MOL0     C53932   5.369   1.398   7.418 -0.3910 -0.1607 -0.4592
  400MOL0     H53933   5.602   1.100   7.090  1.8277 -1.5443 -3.0820
  400MOL0     H53934   5.809   1.016   6.969  2.5855  0.2344 -1.8833
  400MOL0     H53935   5.989   0.969   6.916 -2.3513  1.3811  1.3558
  400MOL0     H53936   6.023   1.074   6.773 -0.6228  0.6579  0.0455
  400MOL0     H53937   6.250   0.991   6.953  2.4241  2.5294 -2.2968
  400MOL0     H53938   6.190   0.883   6.845  1.0828  0.0047  1.8195
  400MOL0     H53939   6.209   1.029   6.668 -2.9637 -0.4896  1.8537
  400MOL0     H53940   6.272   1.175   6.760  0.3320  0.2066 -1.9247
  400MOL0     H53941   6.476   1.034   6.817  3.0817 -3.9612 -1.3959
  400MOL0     H53942   6.416   0.897   6.717 -0.8068 -0.2861 -1.4561
  400MOL0     H53943   6.600   1.043   6.616 -0.7205  0.0426  0.9594
  400MOL0     H53944   6.461   0.986   6.522  0.5260 -1.3615 -0.2019
  400MOL0     H53945   6.369   1.212   6.514  0.4341 -1.7914 -2.6579
  400MOL0     H53946   6.486   1.256   6.650  0.6762  2.1533 -1.1450
  400MOL0     H53947   6.669   1.258   6.514  0.2510  1.0968 -1.8913
  400MOL0     H53948   6.594   1.174   6.372  2.2332 -2.3701  1.0511
  400MOL0     H53949   6.630   1.405   6.332  0.6260 -2.4133  0.1784
  400MOL0     H53950   6.559   1.447   6.499 -2.0835 -0.9315 -0.1966
  400MOL0     H53951   6.265   1.443   6.498  0.9383 -1.0336 -0.0871
  400MOL0     H53952   6.031   1.442   6.247  2.5221  0.4246 -0.8202
  400MOL0     H53953   6.034   1.479   6.409 -0.0875 -0.3958  0.4027
  400MOL0     H53954   5.951   1.681   6.270 -1.7271 -2.6403 -0.9948
  400MOL0     H53955   6.114   1.672   6.188 -1.5440 -2.9555  0.0793
  400MOL0     H53956   6.197   1.715   6.440 -0.7544  0.7298  2.3696
  400MOL0     H53957   6.030   1.776   6.452  0.2318  0.7697 -0.3003
  400MOL0     H53958   6.083   1.968   6.311 -1.3706 -1.0805  2.2825
  400MOL0     H53959   6.143   1.868   6.196 -1.1492  1.9952 -1.0298
  400MOL0     H53960   6.466   1.847   6.464 -0.8228  2.6786 -1.1786
  400MOL0     H53961   6.647   1.717   6.529  0.5552 -2.8022  0.5131
  400MOL0     H53962   6.727   1.606   6.414  1.6836  0.2416  1.4167
  400MOL0     H53963   6.780   1.779   6.431  0.0960  0.2137 -0.4139
  400MOL0     H53964   6.810   1.550   5.851 -0.0327 -0.0167 -1.7209
  400MOL0     H53965   7.013   1.479   5.733 -5.8747  1.2563 -0.0980
  400MOL0     H53966   7.311   1.415   5.948 -2.3710  0.8734 -0.9305
  400MOL0     H53967   7.279   1.335   5.802  0.1827 -0.9823  0.1776
  400MOL0     H53968   7.511   1.309   5.796  2.9712  0.4192 -3.4208
  400MOL0     H53969   7.484   1.457   5.709 -1.6853 -2.4384  0.6146
  400MOL0     H53970   7.572   1.448   5.999 -0.6514 -2.1308 -0.0579
  400MOL0     H53971   7.593   1.582   5.878  1.2106 -0.5738  0.9656
  400MOL0     H53972   7.725   1.315   5.866  1.3950  0.2112  1.9096
  400MOL0     H53973   7.759   1.449   5.758  3.0807  3.5050  0.9813
  400MOL0     H53974   7.820   1.425   6.058  3.0394  2.1681  1.2740
  400MOL0     H53975   7.812   1.581   5.983  0.1400  1.1029 -4.0909
  400MOL0     H53976   8.011   1.367   5.862  0.9233 -1.2761  1.6041
  400MOL0     H53977   7.972   1.510   5.799  1.2575 -4.0434 -3.2628
  400MOL0     H53978   8.026   1.596   6.064  1.2871 -1.1015  2.1621
  400MOL0     H53979   8.153   1.583   5.941 -0.0947  0.8334  0.5317
  400MOL0     H53980   8.202   1.498   6.159 -1.8005  0.9736  0.6820
  400MOL0     H53981   8.216   1.369   6.035 -1.4632  0.5820 -2.9740
  400MOL0     H53982   7.263   1.725   5.985 -0.7982 -1.3300  3.5842
  400MOL0     H53983   7.055   1.810   6.092  0.8651  0.0808  1.3446
  400MOL0     H53984   6.507   1.729   5.991 -5.7338 -1.6784  0.8615
  400MOL0     H53985   6.316   1.841   6.062 -0.2806  0.4181  0.3859
  400MOL0     H53986   6.009   1.363   7.093  0.1260 -1.8793  1.3497
  400MOL0     H53987   5.816   1.460   7.189 -0.1894  0.7906 -1.5655
  400MOL0     H53988   5.581   1.243   7.628  1.3810  1.3947 -3.1649
  400MOL0     H53989   5.387   1.289   7.787 -0.3998  0.6429  0.6906
  400MOL0     H53990   5.050   1.223   7.668  1.7106 -0.0809 -1.2105
  400MOL0     H53991   5.169   1.205   7.796 -0.0141  0.0099 -0.6068
  400MOL0     H53992   4.960   1.189   7.895  1.8776 -0.7190  1.5219
  400MOL0     H53993   4.904   1.344   7.829 -0.3820  0.1764  1.5281
  400MOL0     H53994   5.090   1.452   7.945 -2.2985  1.2078  1.5938
  400MOL0     H53995   5.127   1.299   8.036 -1.6564  0.3814  4.5475
  400MOL0     H53996   4.857   1.402   8.035  1.6185 -1.9345 -4.7708
  400MOL0     H53997   4.974   1.459   8.154 -0.7950  1.2051 -1.5303
  400MOL0     H53998   4.957   1.055   8.294 -1.0033 -0.5581 -0.2423
  400MOL0     H53999   5.184   1.492   7.478  0.5939  0.3787 -0.4312
  400MOL0     H54000   5.362   1.417   7.312  2.4233 -1.9164 -1.0560
  401MOL0     O54001   5.320   5.941   7.123  0.0558 -0.1631  0.2372
  401MOL0     C54002   5.272   5.834   7.159  0.8142 -0.1099  0.1591
  401MOL0     O54003   5.311   5.712   7.103  0.0520  0.6677 -0.2066
  401MOL0     C54004   5.396   5.711   7.005 -0.1785 -0.4313  0.0024
  401MOL0     C54005   5.530   5.676   7.030  0.7557 -0.5057  0.2248
  401MOL0     C54006   5.624   5.653   6.930  0.6606  0.0234  1.3952
  401MOL0     C54007   5.585   5.688   6.799  0.4708  0.0951 -0.4844
  401MOL0     O54008   5.678   5.694   6.704  0.6765  0.5479  0.6906
  401MOL0     C54009   5.756   5.574   6.693  0.3725  0.1887  0.0491
  401MOL0     C54010   5.773   5.561   6.539 -0.0423  0.5412 -1.0254
  401MOL0     C54011   5.783   5.416   6.496 -0.7695 -0.0367 -0.0089
  401MOL0     C54012   5.917   5.346   6.520 -0.5550 -0.7852 -0.3482
  401MOL0     C54013   5.914   5.203   6.474  0.2593 -0.3068 -0.2207
  401MOL0     C54014   6.043   5.138   6.501 -1.1350  0.2548 -0.2649
  401MOL0     C54015   6.044   4.992   6.459  0.0389  0.9397  0.2353
  401MOL0     C54016   6.182   4.923   6.480 -0.3920 -1.0000 -0.3503
  401MOL0     N54017   6.219   4.901   6.620 -0.3007 -0.6461 -0.4791
  401MOL0     C54018   6.295   4.984   6.699 -0.2666  0.1272  1.2485
  401MOL0     C54019   6.328   4.922   6.810  0.9620 -0.5247  0.5250
  401MOL0     C54020   6.400   4.956   6.933  0.4629 -0.2819  0.1849
  401MOL0     C54021   6.334   5.077   7.015 -0.0917  0.2629  0.0101
  401MOL0     C54022   6.179   5.051   7.047 -0.3097  0.0301 -0.0935
  401MOL0     C54023   6.143   5.113   7.182  0.1444  1.1485  0.9897
  401MOL0     O54024   6.003   5.080   7.211  0.1432  0.1441 -0.2206
  401MOL0     C54025   5.951   5.119   7.331  0.2810 -0.6978 -0.5116
  401MOL0     C54026   5.999   5.230   7.394  0.9245  0.2582  0.0119
  401MOL0     C54027   5.941   5.270   7.524 -0.1745 -0.0828  1.2407
  401MOL0     C54028   5.975   5.398   7.582 -0.6111 -0.2570  0.6796
  401MOL0     C54029   5.840   5.187   7.587 -0.5237  0.6219 -0.0113
  401MOL0     C54030   5.789   5.219   7.721 -0.2158 -0.6019 -0.6155
  401MOL0     O54031   5.802   5.348   7.770  0.9169  1.2253  0.0290
  401MOL0     C54032   5.737   5.383   7.887  0.0355 -0.9177 -0.2992
  401MOL0     C54033   5.810   5.401   8.007  0.5488  0.2151  0.0692
  401MOL0     C54034   5.751   5.449   8.124  0.0725  0.9185  0.8567
  401MOL0     C54035   5.611   5.474   8.124  0.6706 -0.7298 -0.2843
  401MOL0     O54036   5.548   5.520   8.238 -0.6852 -1.4563  0.7382
  401MOL0     C54037   5.581   5.446   8.361 -0.4510  0.0290 -0.1079
  401MOL0     C54038   5.449   5.436   8.443 -0.2527 -0.3391  0.0438
  401MOL0     C54039   5.398   5.581   8.472  0.4388  0.1667  0.6022
  401MOL0     C54040   5.250   5.578   8.499  0.2918  0.0058 -0.3621
  401MOL0     C54041   5.170   5.713   8.476  0.1147  0.2780 -0.4186
  401MOL0     C54042   5.148   5.752   8.322 -0.1781  0.0104  0.1045
  401MOL0     C54043   5.224   5.873   8.282 -0.6181 -0.7397 -0.1199
  401MOL0     C54044   5.157   5.997   8.350 -0.5550  1.4969  0.3448
  401MOL0    Cl54045   5.223   6.152   8.288  0.0612  0.3183 -0.3657
  401MOL0     C54046   5.539   5.463   8.006  0.7212 -0.9665 -0.1164
  401MOL0     C54047   5.599   5.417   7.890 -0.2530  0.9621 -0.4761
  401MOL0     O54048   5.721   5.134   7.787 -0.0282  0.0297  0.9153
  401MOL0     C54049   5.789   5.081   7.502  0.0928 -0.2662 -0.8118
  401MOL0     C54050   5.838   5.047   7.383 -0.0065  0.0535 -0.4288
  401MOL0     N54051   6.265   4.794   6.807  0.4873  0.3836 -0.1682
  401MOL0     N54052   6.201   4.789   6.693 -0.2677 -0.4487  0.6191
  401MOL0     C54053   5.450   5.718   6.768 -0.2264 -1.1378 -0.2714
  401MOL0     C54054   5.354   5.729   6.873 -0.1708  0.4048  0.5717
  401MOL0     C54055   5.170   5.834   7.262  0.2743 -0.7787 -0.7086
  401MOL0     C54056   5.148   5.956   7.338 -1.0558  0.7594  0.1438
  401MOL0     C54057   5.055   5.958   7.442  0.8925 -0.1357  0.0825
  401MOL0     C54058   4.965   5.847   7.458  0.4125 -0.3593 -0.5907
  401MOL0     O54059   4.869   5.826   7.554  0.0090  0.8186  0.8584
  401MOL0     C54060   4.882   5.888   7.685 -0.2306  0.0316  0.4267
  401MOL0     C54061   4.763   5.845   7.777 -0.3346  0.1879 -0.8985
  401MOL0     C54062   4.772   5.692   7.800  0.6917  1.1665  0.1155
  401MOL0     C54063   4.853   5.640   7.921  0.5682 -0.1868 -0.9207
  401MOL0     C54064   4.848   5.490   7.913 -0.3033  0.2913 -0.4388
  401MOL0     C54065   4.836   5.369   7.909  0.0025 -1.1781  0.0486
  401MOL0     C54066   4.992   5.733   7.379  0.2847 -0.8498 -0.2464
  401MOL0     C54067   5.082   5.724   7.279  0.7663  0.3220  1.3579
  401MOL0     H54068   5.565   5.669   7.133  0.0435  1.3423  0.6430
  401MOL0     H54069   5.727   5.621   6.948  0.9744  1.5505  2.5514
  401MOL0     H54070   5.849   5.598   6.746  0.7087 -0.1452 -0.3806
  401MOL0     H54071   5.698   5.486   6.722 -5.6900  1.8864 -4.9002
  401MOL0     H54072   5.685   5.604   6.492 -0.8285  0.2776  0.1665
  401MOL0     H54073   5.856   5.627   6.510 -1.8999  3.4378 -0.2414
  401MOL0     H54074   5.704   5.364   6.552 -1.0972 -0.0847 -0.5104
  401MOL0     H54075   5.738   5.397   6.398  0.0768  0.1799 -0.4462
  401MOL0     H54076   5.991   5.404   6.465 -0.7237 -1.2810 -1.1046
  401MOL0     H54077   5.942   5.350   6.627 -2.9690  3.4204  0.2944
  401MOL0     H54078   5.824   5.152   6.510  0.1385 -2.5900 -3.3318
  401MOL0     H54079   5.882   5.209   6.369 -5.0855 -0.3060  1.0926
  401MOL0     H54080   6.124   5.192   6.452  1.5732 -0.7167  2.8634
  401MOL0     H54081   6.061   5.157   6.607 -1.1919  1.8386 -0.4996
  401MOL0     H54082   5.955   4.936   6.490  0.5471  0.2613  0.5024
  401MOL0     H54083   6.035   4.989   6.350 -1.8664 -1.7425  0.3678
  401MOL0     H54084   6.265   4.983   6.443 -0.7443 -0.6586 -0.5976
  401MOL0     H54085   6.168   4.825   6.433 -4.3679 -0.3713 -0.8028
  401MOL0     H54086   6.339   5.078   6.667  0.4629 -0.6887 -0.2455
  401MOL0     H54087   6.397   4.871   7.002  0.7242 -0.7470 -0.3719
  401MOL0     H54088   6.505   4.980   6.911  0.0444 -0.8804 -2.9019
  401MOL0     H54089   6.344   5.159   6.942  3.8285  0.5955  0.7179
  401MOL0     H54090   6.400   5.095   7.101  0.0889 -1.8739  0.3622
  401MOL0     H54091   6.156   4.945   7.035 -3.2788  0.5027  0.6928
  401MOL0     H54092   6.112   5.103   6.978 -0.6594  1.2292  1.1146
  401MOL0     H54093   6.148   5.222   7.171 -0.0918  1.0025 -0.8720
  401MOL0     H54094   6.211   5.080   7.262  2.5196 -1.7083 -1.9324
  401MOL0     H54095   6.072   5.298   7.353  0.6208 -0.0871 -1.1650
  401MOL0     H54096   6.057   5.438   7.521 -2.0774  1.7184 -0.1351
  401MOL0     H54097   5.891   5.468   7.574  2.1251  3.1305 -3.7681
  401MOL0     H54098   6.014   5.390   7.683 -0.1821  0.9772  0.6293
  401MOL0     H54099   5.916   5.377   8.005  0.1735 -1.5185 -1.3194
  401MOL0     H54100   5.814   5.455   8.212 -1.0221 -2.4104  2.0225
  401MOL0     H54101   5.612   5.344   8.337  0.0911  0.0871  0.3409
  401MOL0     H54102   5.660   5.492   8.421  0.2183 -0.8080 -0.3314
  401MOL0     H54103   5.376   5.367   8.398  0.9857  1.0086 -4.5728
  401MOL0     H54104   5.474   5.382   8.534 -0.1504 -1.2089 -0.4877
  401MOL0     H54105   5.423   5.655   8.396 -1.9372 -1.9546 -2.5018
  401MOL0     H54106   5.446   5.617   8.564  2.0078  0.5836 -0.3469
  401MOL0     H54107   5.200   5.500   8.442  0.8391  1.6913 -3.3664
  401MOL0     H54108   5.231   5.543   8.601 -1.9365 -2.1278 -1.4159
  401MOL0     H54109   5.226   5.788   8.532 -1.0420 -1.0699  2.7315
  401MOL0     H54110   5.072   5.703   8.523  1.6591  0.0248  2.9927
  401MOL0     H54111   5.184   5.670   8.259 -1.3891 -3.5147  3.5938
  401MOL0     H54112   5.042   5.772   8.309  0.0225 -0.2427 -2.4860
  401MOL0     H54113   5.230   5.874   8.173 -1.0817  1.0344 -0.1592
  401MOL0     H54114   5.328   5.859   8.315 -1.1476 -1.9419  1.1126
  401MOL0     H54115   5.163   5.984   8.458 -1.1922 -2.4145  0.0405
  401MOL0     H54116   5.052   5.991   8.321  0.1463 -0.8703 -2.1988
  401MOL0     H54117   5.434   5.492   8.001  1.5877  2.6119 -0.8405
  401MOL0     H54118   5.540   5.404   7.800 -3.1455  0.4105  1.3739
  401MOL0     H54119   5.698   5.026   7.525 -0.9597  1.3794 -0.9313
  401MOL0     H54120   5.795   4.971   7.318  2.2788  0.7259 -2.9296
  401MOL0     H54121   5.442   5.761   6.669  3.7626  3.1134  0.8827
  401MOL0     H54122   5.251   5.757   6.854 -2.4697 -4.5850  3.5908
  401MOL0     H54123   5.224   6.033   7.346  0.8792 -1.1056  0.8218
  401MOL0     H54124   5.041   6.037   7.515  1.0343 -1.0120  1.0777
  401MOL0     H54125   4.977   5.858   7.730  0.8484  3.7803  1.0516
  401MOL0     H54126   4.894   5.997   7.675  0.2071  0.0021  0.5950
  401MOL0     H54127   4.667   5.871   7.731 -0.5155  4.1776  1.2873
  401MOL0     H54128   4.765   5.905   7.869  1.4224  3.3673 -2.8163
  401MOL0     H54129   4.798   5.650   7.703 -0.1886 -0.8682  0.7091
  401MOL0     H54130   4.666   5.671   7.817  0.5981  3.1565  2.5806
  401MOL0     H54131   4.827   5.683   8.018  2.2168 -0.2412 -0.4242
  401MOL0     H54132   4.957   5.674   7.917  0.5462  0.5945  2.1418
  401MOL0     H54133   4.837   5.264   7.886 -0.9946 -1.3197  0.6035
  401MOL0     H54134   4.942   5.641   7.408  2.7422 -2.3186 -0.3322
  401MOL0     H54135   5.104   5.639   7.215  0.7518 -1.0323  3.0894
  402MOL0     O54136   1.162   3.176   6.324  0.1043 -1.1594  0.1141
  402MOL0     C54137   1.219   3.184   6.437  0.0233 -0.3425  0.4243
  402MOL0     O54138   1.283   3.296   6.477 -1.2315 -0.8346  0.5653
  402MOL0     C54139   1.282   3.408   6.396 -1.2234  0.2913  0.3786
  402MOL0     C54140   1.159   3.474   6.378 -0.1158  0.7113 -0.2313
  402MOL0     C54141   1.159   3.603   6.318 -0.8889  0.4688  0.4742
  402MOL0     C54142   1.282   3.647   6.267  0.2635 -0.5121  0.1013
  402MOL0     O54143   1.301   3.755   6.186 -0.2803  0.3322 -0.2785
  402MOL0     C54144   1.207   3.870   6.211 -0.1969 -0.9158 -0.7225
  402MOL0     C54145   1.274   3.999   6.169  0.5728 -0.0484  1.1120
  402MOL0     C54146   1.419   4.013   6.190  0.5010 -0.4753 -0.5860
  402MOL0     C54147   1.479   4.152   6.154  0.0741 -0.3181 -0.6782
  402MOL0     C54148   1.504   4.181   6.003  0.0163 -0.2279  0.3339
  402MOL0     C54149   1.628   4.104   5.941  0.2474 -0.4716 -0.3548
  402MOL0     C54150   1.610   4.128   5.787 -0.4921  0.1793 -0.2944
  402MOL0     C54151   1.704   4.020   5.719  0.2570 -0.8699 -0.9346
  402MOL0     N54152   1.730   4.072   5.586  0.6762 -0.2179  0.1979
  402MOL0     C54153   1.669   4.010   5.482  0.4860  0.6313 -0.4357
  402MOL0     C54154   1.748   4.025   5.379  0.7126 -1.0959 -0.2477
  402MOL0     C54155   1.717   3.987   5.243  0.0787 -0.1694  0.7905
  402MOL0     C54156   1.691   4.104   5.141  0.7627 -0.4528 -0.5359
  402MOL0     C54157   1.610   4.227   5.199 -0.2665  0.7782  0.3383
  402MOL0     C54158   1.466   4.182   5.215  0.1096  0.0978 -0.3657
  402MOL0     O54159   1.407   4.170   5.082  0.4156 -0.4413 -0.2289
  402MOL0     C54160   1.278   4.206   5.066 -0.5625  0.7570  0.9481
  402MOL0     C54161   1.186   4.206   5.177 -0.1995  0.1703  0.2253
  402MOL0     C54162   1.050   4.240   5.150 -1.0823  0.8691  0.1546
  402MOL0     C54163   0.963   4.207   5.262  0.1687  0.0111  1.3226
  402MOL0     C54164   1.009   4.268   5.019 -0.8635 -0.4858  0.0453
  402MOL0     C54165   0.875   4.284   4.980 -0.2550 -0.5470 -0.1420
  402MOL0     O54166   0.853   4.265   4.853 -0.1417 -0.4561 -0.7287
  402MOL0     C54167   0.736   4.298   4.795 -0.3497 -0.3307  1.2681
  402MOL0     C54168   0.722   4.411   4.708 -1.0956 -0.0670 -0.0339
  402MOL0     C54169   0.605   4.445   4.637 -0.5908  0.4266  0.8263
  402MOL0     C54170   0.495   4.361   4.658  0.2870  0.1548  0.0721
  402MOL0     O54171   0.364   4.390   4.617  0.5500 -0.8434 -0.5244
  402MOL0     C54172   0.348   4.480   4.504  0.0794 -0.0264 -0.5657
  402MOL0     C54173   0.206   4.479   4.448  0.6711 -0.3465  0.0700
  402MOL0     C54174   0.112   4.550   4.544  0.2566  0.0049  0.9667
  402MOL0     C54175  -0.038   4.517   4.495 -0.5779  0.5141 -0.4559
  402MOL0     C54176  -0.136   4.619   4.553 -0.1729 -0.0579 -0.2302
  402MOL0     C54177  -0.149   4.587   4.698 -0.2129  0.3762  0.3099
  402MOL0     C54178  -0.250   4.654   4.789  0.4717 -0.5758  0.4044
  402MOL0     C54179  -0.209   4.787   4.832 -0.2194  0.1477 -0.3454
  402MOL0    Cl54180  -0.082   4.766   4.961  0.9160 -0.4126  0.1627
  402MOL0     C54181   0.501   4.252   4.740  0.2855  0.6223  0.5038
  402MOL0     C54182   0.620   4.222   4.810  0.5204  0.7691 -0.3924
  402MOL0     O54183   0.796   4.316   5.060  0.0808  0.3620  0.3251
  402MOL0     C54184   1.110   4.270   4.910  0.9874  0.0595  0.5747
  402MOL0     C54185   1.245   4.239   4.938 -0.1947 -0.8644 -0.2896
  402MOL0     N54186   1.848   4.103   5.422 -0.5768  0.2427  0.9842
  402MOL0     N54187   1.842   4.138   5.550  0.5452 -0.0565  0.3830
  402MOL0     C54188   1.401   3.586   6.301 -0.4072  0.3610 -0.6710
  402MOL0     C54189   1.402   3.468   6.369  0.3682 -0.5350  0.0306
  402MOL0     C54190   1.213   3.071   6.527  0.3221  0.9083 -0.7884
  402MOL0     C54191   1.130   2.958   6.512 -0.9126 -1.1382 -0.1676
  402MOL0     C54192   1.123   2.847   6.593 -1.0618 -0.0860  0.3884
  402MOL0     C54193   1.213   2.821   6.700 -0.4428  0.3792 -0.0265
  402MOL0     O54194   1.212   2.706   6.773  0.6799 -0.5866 -0.6690
  402MOL0     C54195   1.314   2.682   6.872  0.7469 -0.3061 -0.2922
  402MOL0     C54196   1.262   2.682   7.017 -0.7650  1.2520 -0.2210
  402MOL0     C54197   1.200   2.804   7.068  0.4897 -0.5186 -0.6946
  402MOL0     C54198   1.274   2.845   7.200 -0.7058 -0.8610  0.2611
  402MOL0     C54199   1.408   2.899   7.183 -0.1266  0.2097  0.7125
  402MOL0     C54200   1.521   2.956   7.176  1.0024  0.8052 -0.0446
  402MOL0     C54201   1.297   2.940   6.727  0.9993 -0.1794 -0.5078
  402MOL0     C54202   1.297   3.053   6.641 -0.5725  0.6133  0.0673
  402MOL0     H54203   1.072   3.428   6.422  0.6724  1.2779  2.0416
  402MOL0     H54204   1.070   3.663   6.304  0.9668  3.3156  0.0277
  402MOL0     H54205   1.115   3.865   6.151  0.6786  0.9729 -2.3385
  402MOL0     H54206   1.182   3.886   6.316 -2.3108 -2.4781 -0.9080
  402MOL0     H54207   1.263   4.008   6.061  2.4152  1.5043  0.9933
  402MOL0     H54208   1.223   4.091   6.201 -1.8252 -0.8540 -0.1403
  402MOL0     H54209   1.437   3.995   6.296  1.3599  1.3033 -0.3855
  402MOL0     H54210   1.476   3.940   6.132  2.1128  0.4139 -0.1784
  402MOL0     H54211   1.430   4.237   6.204  2.7904  1.3124 -0.6167
  402MOL0     H54212   1.577   4.152   6.202  0.8400 -3.7455 -1.9705
  402MOL0     H54213   1.411   4.156   5.950  0.0605  4.2192 -2.3547
  402MOL0     H54214   1.520   4.289   5.998 -1.1997 -0.0127  0.6426
  402MOL0     H54215   1.718   4.157   5.974 -2.0911  3.2393  0.6160
  402MOL0     H54216   1.629   3.997   5.966 -0.7120 -0.4405 -0.1472
  402MOL0     H54217   1.505   4.113   5.760 -1.1627 -0.0301  2.1215
  402MOL0     H54218   1.636   4.228   5.750 -0.3101 -0.1931 -1.1974
  402MOL0     H54219   1.659   3.921   5.725 -3.4757  0.7358  1.2903
  402MOL0     H54220   1.797   4.006   5.774 -0.4616 -0.4098  0.4292
  402MOL0     H54221   1.581   3.947   5.493  1.8661 -1.0241  2.3482
  402MOL0     H54222   1.795   3.925   5.198 -1.6442 -1.6432 -0.2975
  402MOL0     H54223   1.621   3.935   5.241 -2.2723  3.5461 -4.0191
  402MOL0     H54224   1.649   4.063   5.049  1.2620 -4.3791  0.7849
  402MOL0     H54225   1.793   4.137   5.117  1.5947 -2.5060 -0.0579
  402MOL0     H54226   1.614   4.311   5.128 -2.7675 -0.3180 -1.2145
  402MOL0     H54227   1.641   4.263   5.298 -1.9033  1.0068  0.7924
  402MOL0     H54228   1.426   4.255   5.287  2.7547 -0.8048  2.1983
  402MOL0     H54229   1.456   4.086   5.265 -0.6487 -1.1187 -2.6859
  402MOL0     H54230   1.214   4.186   5.280  0.3915  3.3592  0.7839
  402MOL0     H54231   1.025   4.159   5.339  1.9368 -2.3311 -1.3470
  402MOL0     H54232   0.907   4.291   5.303 -0.5451 -0.7262  1.8691
  402MOL0     H54233   0.887   4.133   5.234  2.0197 -1.9233  1.1233
  402MOL0     H54234   0.804   4.482   4.693 -0.2264 -0.5855  1.9417
  402MOL0     H54235   0.617   4.531   4.572  1.4468 -0.6469 -0.3268
  402MOL0     H54236   0.371   4.573   4.555  0.2431 -0.0197 -0.6512
  402MOL0     H54237   0.425   4.457   4.429  1.6852  1.1899  0.6579
  402MOL0     H54238   0.211   4.531   4.351  2.5048  0.8397  0.7561
  402MOL0     H54239   0.183   4.373   4.432 -1.3438 -0.0658  0.7810
  402MOL0     H54240   0.125   4.658   4.538  0.8863 -0.1260 -2.0299
  402MOL0     H54241   0.123   4.503   4.642  0.0839 -0.6924  0.6554
  402MOL0     H54242  -0.047   4.529   4.387 -1.1586  0.0483 -0.4675
  402MOL0     H54243  -0.052   4.411   4.521  0.5897  0.6589  0.8566
  402MOL0     H54244  -0.236   4.610   4.509 -1.8909  0.1336  3.3253
  402MOL0     H54245  -0.112   4.725   4.545 -0.3613 -0.0403 -0.5994
  402MOL0     H54246  -0.172   4.480   4.704 -2.1870  0.6743 -1.1122
  402MOL0     H54247  -0.048   4.583   4.740  0.7233 -0.3978 -1.8866
  402MOL0     H54248  -0.288   4.591   4.871 -0.6113  0.5895  0.8255
  402MOL0     H54249  -0.339   4.666   4.726  0.7599  2.1270  0.3909
  402MOL0     H54250  -0.291   4.849   4.869  2.1645  2.5874  1.2128
  402MOL0     H54251  -0.156   4.851   4.761  1.3114  2.2236  2.4260
  402MOL0     H54252   0.406   4.201   4.747  0.2451  0.1094 -2.3095
  402MOL0     H54253   0.643   4.138   4.874  1.3937  0.3367 -1.2405
  402MOL0     H54254   1.085   4.284   4.805  3.0141 -0.0418  0.0277
  402MOL0     H54255   1.310   4.219   4.854 -1.1598 -2.3634 -0.7159
  402MOL0     H54256   1.499   3.618   6.267 -0.1460 -1.1022 -1.3825
  402MOL0     H54257   1.498   3.423   6.391  2.2500  2.4484 -1.4495
  402MOL0     H54258   1.060   2.968   6.429 -0.1578  1.7242 -0.5697
  402MOL0     H54259   1.052   2.770   6.563 -1.3030 -0.0980  0.9850
  402MOL0     H54260   1.373   2.593   6.846  1.6319 -0.0816  0.8269
  402MOL0     H54261   1.395   2.755   6.878 -0.5884  1.1522  1.0136
  402MOL0     H54262   1.345   2.640   7.075 -0.9896 -3.1382 -2.6305
  402MOL0     H54263   1.193   2.597   7.031  0.8252  0.0157  0.4431
  402MOL0     H54264   1.094   2.787   7.089 -0.6217  4.8925 -0.5117
  402MOL0     H54265   1.199   2.885   6.996 -3.4823  0.3741  0.0919
  402MOL0     H54266   1.283   2.755   7.262  0.9767  0.2522  1.7188
  402MOL0     H54267   1.213   2.907   7.266  3.7309  3.4811  0.8317
  402MOL0     H54268   1.609   3.015   7.169 -0.3210  2.7563 -1.2167
  402MOL0     H54269   1.362   2.951   6.814  1.1024  0.9895 -0.7194
  402MOL0     H54270   1.380   3.123   6.646 -1.3569  1.5018  0.9409
  403MOL0     O54271   8.058   3.376   2.572 -0.1658  0.0362 -0.6263
  403MOL0     C54272   7.937   3.405   2.554 -0.5104  0.0666 -0.8964
  403MOL0     O54273   7.847   3.412   2.653 -0.3396  0.1678 -0.1789
  403MOL0     C54274   7.896   3.379   2.774 -0.1802  0.0373 -0.1275
  403MOL0     C54275   7.975   3.484   2.835  0.4980  0.4091 -0.2858
  403MOL0     C54276   8.009   3.479   2.970 -0.1411  1.5651 -0.1713
  403MOL0     C54277   7.961   3.374   3.046 -0.1527  1.6791 -0.4349
  403MOL0     O54278   7.972   3.356   3.181 -0.2330 -0.0466 -0.7436
  403MOL0     C54279   8.080   3.281   3.232  0.3182  0.0169 -0.0853
  403MOL0     C54280   8.111   3.138   3.181 -0.4861  0.0691 -0.3904
  403MOL0     C54281   8.204   3.066   3.274 -1.2714 -0.4486  0.2752
  403MOL0     C54282   8.348   3.105   3.246 -0.2391  0.3440 -0.5150
  403MOL0     C54283   8.459   3.041   3.339 -0.0846  0.0029  0.2674
  403MOL0     C54284   8.416   3.024   3.485 -0.3503  0.1622 -0.1366
  403MOL0     C54285   8.526   2.947   3.561  0.3494 -0.7557 -0.9975
  403MOL0     C54286   8.663   2.996   3.557  0.2242 -0.3041 -1.1991
  403MOL0     N54287   8.734   2.949   3.683 -0.6954 -0.2252  0.4956
  403MOL0     C54288   8.715   2.990   3.808  0.3969 -0.2138 -0.6248
  403MOL0     C54289   8.822   2.942   3.872 -0.0679  0.0986  0.3329
  403MOL0     C54290   8.848   2.961   4.022 -0.3702 -0.0378 -0.9302
  403MOL0     C54291   8.791   2.854   4.109 -0.8052 -0.1157  0.2129
  403MOL0     C54292   8.889   2.737   4.116 -0.1091  0.3505 -0.3135
  403MOL0     C54293   8.991   2.768   4.230 -0.1956 -0.2998  0.3819
  403MOL0     O54294   9.066   2.653   4.263  0.7298 -0.2909 -0.1958
  403MOL0     C54295   9.185   2.620   4.212 -0.7178  0.5252  0.2498
  403MOL0     C54296   9.280   2.705   4.157 -0.6390  0.7038  0.3942
  403MOL0     C54297   9.402   2.658   4.094 -0.2780 -0.1515 -0.3168
  403MOL0     C54298   9.495   2.761   4.047  0.8504 -0.1853  0.7799
  403MOL0     C54299   9.435   2.513   4.091 -0.2011 -0.3660 -0.0693
  403MOL0     C54300   9.558   2.450   4.025 -0.6120  0.0066 -0.0940
  403MOL0     O54301   9.536   2.330   3.983  0.4869  0.9256 -0.2655
  403MOL0     C54302   9.630   2.260   3.918 -0.4935 -0.3442  0.1126
  403MOL0     C54303   9.723   2.182   3.999 -0.0584  0.0607  0.1431
  403MOL0     C54304   9.810   2.088   3.940  0.1422 -0.4210  0.1765
  403MOL0     C54305   9.803   2.064   3.804  0.3030  0.7238  0.6216
  403MOL0     O54306   9.869   1.955   3.741  0.0840 -0.0749  0.4722
  403MOL0     C54307   9.782   1.851   3.697  0.4165  0.4425  0.0875
  403MOL0     C54308   9.839   1.716   3.679 -0.8189  0.0432  0.6200
  403MOL0     C54309   9.904   1.662   3.808  0.5252  0.4390 -0.1780
  403MOL0     C54310   9.959   1.522   3.785 -0.3403  0.9238  0.3172
  403MOL0     C54311  10.024   1.470   3.914 -0.4033 -0.0998  0.3962
  403MOL0     C54312  10.040   1.314   3.942 -0.8062 -0.4404 -0.4755
  403MOL0     C54313  10.110   1.247   3.820 -0.2305 -0.3137  0.2035
  403MOL0     C54314  10.209   1.143   3.857 -0.0574  1.0124 -0.0108
  403MOL0    Cl54315  10.365   1.186   3.770 -0.5002  0.2151 -0.3169
  403MOL0     C54316   9.709   2.137   3.728 -1.0228 -0.1408 -0.6808
  403MOL0     C54317   9.638   2.246   3.780 -0.0897  0.2494 -0.0594
  403MOL0     O54318   9.667   2.516   4.019 -0.3229  0.2989 -0.3687
  403MOL0     C54319   9.327   2.428   4.136  1.2784  0.5131 -0.7950
  403MOL0     C54320   9.220   2.484   4.197  0.0389 -0.0029 -0.6569
  403MOL0     N54321   8.896   2.861   3.789 -0.0279 -0.5885  0.2899
  403MOL0     N54322   8.834   2.865   3.686 -0.5568  0.7411 -0.1417
  403MOL0     C54323   7.887   3.271   2.987  0.2431  0.3662 -0.5000
  403MOL0     C54324   7.857   3.265   2.850 -0.4979  0.5400  0.0063
  403MOL0     C54325   7.891   3.459   2.428 -1.2701  0.3611  0.9219
  403MOL0     C54326   7.985   3.490   2.324 -0.0666  0.3228 -0.1125
  403MOL0     C54327   7.937   3.548   2.205  0.6927  0.8421  0.5254
  403MOL0     C54328   7.794   3.583   2.183 -0.6028 -0.3446 -0.6667
  403MOL0     O54329   7.760   3.665   2.074  0.5520 -0.8009 -0.3439
  403MOL0     C54330   7.865   3.730   1.991  0.6813 -0.8507  0.4589
  403MOL0     C54331   7.800   3.814   1.886 -0.2760  0.5821  0.0373
  403MOL0     C54332   7.765   3.958   1.949  0.8262  0.4456 -0.8407
  403MOL0     C54333   7.688   4.044   1.847  1.2865  0.3789 -0.0133
  403MOL0     C54334   7.644   4.172   1.898  0.2677 -0.5004  0.3036
  403MOL0     C54335   7.608   4.281   1.941 -0.1748 -0.0647 -0.1951
  403MOL0     C54336   7.715   3.560   2.290  0.3610 -0.0913  0.9359
  403MOL0     C54337   7.761   3.493   2.407 -0.0572 -0.4013  0.3375
  403MOL0     H54338   8.024   3.556   2.769  2.4001 -2.1332 -1.8607
  403MOL0     H54339   8.064   3.563   3.011 -2.1617  2.1598  1.4995
  403MOL0     H54340   8.159   3.346   3.192  0.5499 -1.6004 -2.4444
  403MOL0     H54341   8.092   3.299   3.339  1.1099  1.0579 -0.3266
  403MOL0     H54342   8.020   3.077   3.184  1.3809 -2.9349  0.0626
  403MOL0     H54343   8.152   3.148   3.080  2.5042  0.0386  0.7203
  403MOL0     H54344   8.156   3.077   3.372 -2.2150  0.2333 -0.2383
  403MOL0     H54345   8.201   2.960   3.251  3.0351 -0.1289 -3.1676
  403MOL0     H54346   8.366   3.092   3.139  0.2849 -0.3229 -0.3525
  403MOL0     H54347   8.347   3.214   3.247 -2.0532  0.3712  0.8334
  403MOL0     H54348   8.480   2.943   3.296 -1.0957 -0.3026  0.4323
  403MOL0     H54349   8.547   3.102   3.320 -0.0402 -0.5304 -1.4056
  403MOL0     H54350   8.403   3.123   3.530  2.1062  0.0062  1.0614
  403MOL0     H54351   8.321   2.970   3.495 -2.0273  2.7492 -1.0402
  403MOL0     H54352   8.488   2.943   3.663  0.2836  0.3506 -0.9588
  403MOL0     H54353   8.531   2.846   3.519  3.5085 -0.6933 -0.9615
  403MOL0     H54354   8.660   3.105   3.556 -2.5773 -0.2875 -2.0808
  403MOL0     H54355   8.717   2.964   3.468  1.4849 -0.7637 -0.3058
  403MOL0     H54356   8.630   3.047   3.844  0.6918 -0.1223 -0.0511
  403MOL0     H54357   8.953   2.982   4.045 -0.8937  0.6054  1.0349
  403MOL0     H54358   8.804   3.055   4.058 -1.0294 -0.8033  0.3180
  403MOL0     H54359   8.700   2.827   4.055  0.5775  1.3069 -3.0919
  403MOL0     H54360   8.763   2.896   4.207 -0.5556  2.4375 -0.7313
  403MOL0     H54361   8.936   2.728   4.018 -0.1669  1.0447 -0.4095
  403MOL0     H54362   8.828   2.650   4.144  2.4481 -1.0138  1.4039
  403MOL0     H54363   8.948   2.797   4.327  1.1395  0.4286  0.7776
  403MOL0     H54364   9.058   2.844   4.189  1.2653 -1.6666  0.1592
  403MOL0     H54365   9.265   2.812   4.160 -2.1671  0.5071  2.5499
  403MOL0     H54366   9.557   2.786   4.133  2.0801 -1.7855  0.4008
  403MOL0     H54367   9.557   2.739   3.959 -0.0654  0.5299 -0.0778
  403MOL0     H54368   9.446   2.854   4.016 -0.3778 -1.3605 -1.0350
  403MOL0     H54369   9.721   2.183   4.107  0.4095  2.3266  0.1741
  403MOL0     H54370   9.868   2.020   4.001 -0.1342 -0.3338  0.5418
  403MOL0     H54371   9.699   1.842   3.768 -2.9797  0.9341 -3.4345
  403MOL0     H54372   9.736   1.865   3.599  2.1225 -4.6772 -1.7787
  403MOL0     H54373   9.763   1.643   3.646 -0.4100 -0.3608  0.5671
  403MOL0     H54374   9.923   1.732   3.611  1.7371 -0.2102  3.5452
  403MOL0     H54375   9.833   1.665   3.891  1.7769 -0.6218  0.9797
  403MOL0     H54376   9.982   1.731   3.842 -1.1331  0.7536  3.4563
  403MOL0     H54377   9.883   1.452   3.749  1.1301 -0.8963  0.5993
  403MOL0     H54378  10.030   1.517   3.703 -2.0147  1.0122 -1.1921
  403MOL0     H54379   9.978   1.517   4.002 -1.8527 -4.0751  2.0018
  403MOL0     H54380  10.128   1.501   3.901 -0.7370  0.0162 -2.7933
  403MOL0     H54381  10.098   1.314   4.034  0.5768  2.3174 -1.2148
  403MOL0     H54382   9.937   1.278   3.952 -0.6802 -0.8289 -0.5775
  403MOL0     H54383  10.161   1.328   3.768 -0.1839 -1.0593 -0.9364
  403MOL0     H54384  10.032   1.211   3.752  0.1436 -0.1518 -0.3179
  403MOL0     H54385  10.163   1.049   3.825  0.6836  1.0142 -1.1309
  403MOL0     H54386  10.223   1.151   3.965  0.5509  2.8981 -0.1856
  403MOL0     H54387   9.706   2.126   3.620 -0.5174  0.8058 -0.7986
  403MOL0     H54388   9.564   2.307   3.729 -0.6683 -0.5592 -0.2219
  403MOL0     H54389   9.323   2.320   4.127 -1.7677  0.3037  1.4045
  403MOL0     H54390   9.142   2.422   4.241  1.5780 -2.8750 -1.7404
  403MOL0     H54391   7.845   3.184   3.037 -1.9401  1.2122 -0.7114
  403MOL0     H54392   7.806   3.175   2.819 -0.7094 -0.1993  2.2821
  403MOL0     H54393   8.092   3.482   2.336  0.2618  1.3928 -1.8442
  403MOL0     H54394   8.012   3.568   2.129 -0.3340  1.7431 -0.3044
  403MOL0     H54395   7.933   3.784   2.058 -0.6591 -2.0524  2.9395
  403MOL0     H54396   7.916   3.653   1.932  3.7125 -0.4740  2.3921
  403MOL0     H54397   7.713   3.755   1.855 -0.2358 -0.4576  1.8110
  403MOL0     H54398   7.873   3.832   1.806  0.4993  2.1425  1.0516
  403MOL0     H54399   7.857   4.012   1.968  0.1281  0.8273  1.8581
  403MOL0     H54400   7.709   3.953   2.043  0.3420  2.7315 -0.9518
  403MOL0     H54401   7.607   4.001   1.787 -1.4914  1.9360  2.3601
  403MOL0     H54402   7.761   4.080   1.773  0.8581 -1.7871 -1.5874
  403MOL0     H54403   7.584   4.382   1.966  1.4630  0.2167  0.3754
  403MOL0     H54404   7.620   3.612   2.279  2.7178  4.2612 -2.1253
  403MOL0     H54405   7.687   3.480   2.485  2.5959  1.3883  3.3397
  404MOL0     O54406   7.833   8.338   5.574  0.1545  0.1753 -0.5673
  404MOL0     C54407   7.915   8.366   5.666 -0.4002  0.1761  0.4320
  404MOL0     O54408   8.056   8.346   5.656  0.4845 -0.2510 -0.1791
  404MOL0     C54409   8.113   8.291   5.542  0.0030  0.0100  0.5384
  404MOL0     C54410   8.243   8.341   5.516  0.5698  1.1251 -0.0713
  404MOL0     C54411   8.312   8.303   5.404  0.2488  0.1638 -0.3631
  404MOL0     C54412   8.268   8.205   5.315  0.1994  0.9758  0.0837
  404MOL0     O54413   8.335   8.158   5.205  0.6503 -0.3706  0.6078
  404MOL0     C54414   8.282   8.221   5.090  0.7013  0.1351  0.1118
  404MOL0     C54415   8.367   8.177   4.974  0.4179 -0.5023  0.4537
  404MOL0     C54416   8.344   8.028   4.948  0.4632  0.0310  1.2053
  404MOL0     C54417   8.397   8.003   4.805 -0.1563  0.8657  0.5766
  404MOL0     C54418   8.549   7.967   4.809  0.5357 -0.6526 -0.5326
  404MOL0     C54419   8.568   7.820   4.846 -0.2730 -0.5185  0.1741
  404MOL0     C54420   8.715   7.785   4.864  0.4272 -0.0989 -0.0701
  404MOL0     C54421   8.732   7.641   4.931 -0.7530  0.6489  0.0431
  404MOL0     N54422   8.875   7.625   4.970  0.1713 -0.4433  0.3141
  404MOL0     C54423   8.976   7.636   4.883  0.5784 -0.4148  0.0310
  404MOL0     C54424   9.092   7.639   4.953 -1.1657 -0.0443  1.1268
  404MOL0     C54425   9.234   7.657   4.900 -0.1303 -0.5888 -0.2132
  404MOL0     C54426   9.238   7.801   4.843  0.5585  0.8002 -0.1919
  404MOL0     C54427   9.366   7.826   4.759 -0.1229 -0.9363 -0.1057
  404MOL0     C54428   9.496   7.808   4.825 -0.8347  0.6921  0.1058
  404MOL0     O54429   9.520   7.917   4.913 -0.1942 -0.2792 -0.0975
  404MOL0     C54430   9.642   7.928   4.962 -0.1129  0.0048  0.8339
  404MOL0     C54431   9.653   8.040   5.046 -0.2435  0.2052  0.4176
  404MOL0     C54432   9.780   8.090   5.084 -0.6233  0.1022 -0.3952
  404MOL0     C54433   9.782   8.223   5.154 -0.6452  0.1984 -0.3151
  404MOL0     C54434   9.892   8.028   5.055 -0.0878 -0.8490 -0.1146
  404MOL0     C54435  10.028   8.075   5.102 -0.8395  0.2736  0.6855
  404MOL0     O54436  10.116   8.087   4.998  0.0748 -0.1221 -0.1469
  404MOL0     C54437  10.247   8.104   5.027 -0.3985 -0.2951  0.7874
  404MOL0     C54438  10.324   8.049   5.127  1.5629 -0.1403  0.4266
  404MOL0     C54439  10.466   8.074   5.128  0.7375  0.0328  0.5215
  404MOL0     C54440  10.514   8.175   5.034 -0.4827 -0.0991 -0.0803
  404MOL0     O54441  10.644   8.206   5.022  0.1996 -0.3256  0.0974
  404MOL0     C54442  10.737   8.103   5.064 -0.8795  0.6039  0.4353
  404MOL0     C54443  10.873   8.155   5.017 -0.4071  0.5498  0.5527
  404MOL0     C54444  10.992   8.048   5.040  0.5114 -0.6930 -0.3229
  404MOL0     C54445  11.129   8.092   4.970 -0.4892  1.1041 -0.5880
  404MOL0     C54446  11.243   7.982   4.985  0.0492 -0.8333 -0.2595
  404MOL0     C54447  11.348   7.988   4.875 -0.4549 -0.9112 -0.0264
  404MOL0     C54448  11.441   8.102   4.890  0.2204 -0.4130  0.5821
  404MOL0     C54449  11.534   8.119   4.772 -0.3740 -0.2749  0.5321
  404MOL0    Cl54450  11.440   8.201   4.642 -0.0631 -0.0731 -0.2145
  404MOL0     C54451  10.433   8.232   4.932 -0.5532 -0.8138  0.6873
  404MOL0     C54452  10.299   8.194   4.936 -0.0756 -0.2401  0.5769
  404MOL0     O54453  10.046   8.101   5.227 -0.5131 -0.7833 -0.3746
  404MOL0     C54454   9.888   7.906   4.990 -0.1358  0.6584  0.6835
  404MOL0     C54455   9.763   7.852   4.940  0.6024 -0.0023  0.1730
  404MOL0     N54456   9.060   7.635   5.086 -0.8882 -0.7654  0.0384
  404MOL0     N54457   8.932   7.624   5.090 -0.0933  0.3119 -0.7930
  404MOL0     C54458   8.135   8.168   5.333 -0.8707 -0.2381  0.5138
  404MOL0     C54459   8.059   8.209   5.442  0.5794 -0.2283  0.4631
  404MOL0     C54460   7.874   8.423   5.793  0.4239  0.3525 -0.0801
  404MOL0     C54461   7.963   8.510   5.869 -0.1048 -0.5382 -0.2810
  404MOL0     C54462   7.917   8.564   5.989  0.6152 -0.1913  0.6340
  404MOL0     C54463   7.788   8.528   6.026  0.0423 -0.2375 -0.0914
  404MOL0     O54464   7.762   8.578   6.153 -0.4015 -0.4821  0.2733
  404MOL0     C54465   7.666   8.687   6.159  0.7052  0.2289  0.5283
  404MOL0     C54466   7.730   8.810   6.090 -0.5798  0.7277 -0.2727
  404MOL0     C54467   7.639   8.936   6.083  0.1628  0.3084  0.2252
  404MOL0     C54468   7.702   9.059   6.023 -0.0598  0.4730  0.1440
  404MOL0     C54469   7.602   9.163   6.033  0.0378  0.2050 -0.3526
  404MOL0     C54470   7.512   9.248   6.020 -0.6815  0.5680 -0.4659
  404MOL0     C54471   7.693   8.455   5.956 -0.8405  0.1093 -0.3069
  404MOL0     C54472   7.733   8.403   5.835 -0.3773 -0.9594  0.7157
  404MOL0     H54473   8.289   8.419   5.577 -0.0987 -0.3956  2.5375
  404MOL0     H54474   8.409   8.349   5.393  0.4224  0.6327  2.3140
  404MOL0     H54475   8.183   8.177   5.074 -1.1756  4.2901 -1.1644
  404MOL0     H54476   8.290   8.329   5.101  0.5758 -0.1456  5.7010
  404MOL0     H54477   8.315   8.237   4.898 -1.0984 -0.9965  1.0565
  404MOL0     H54478   8.475   8.192   4.982  0.1192  1.5793  1.2790
  404MOL0     H54479   8.399   7.972   5.025  0.6919 -0.3744  0.7543
  404MOL0     H54480   8.238   8.005   4.961 -0.4050  3.1690  0.5336
  404MOL0     H54481   8.350   7.917   4.759  0.0344  2.4235 -2.8461
  404MOL0     H54482   8.382   8.089   4.739 -1.9509  0.4854  0.4402
  404MOL0     H54483   8.602   7.987   4.716  1.4278  0.8054  0.2577
  404MOL0     H54484   8.602   8.027   4.883  0.5472 -0.6391 -0.5518
  404MOL0     H54485   8.508   7.792   4.933 -1.7135 -4.5509 -1.8407
  404MOL0     H54486   8.531   7.754   4.767 -0.7486 -0.3415  0.2427
  404MOL0     H54487   8.775   7.794   4.773 -0.0681 -1.3070 -0.5368
  404MOL0     H54488   8.757   7.849   4.942  2.3518 -2.3693  0.8672
  404MOL0     H54489   8.707   7.555   4.867  1.0252 -4.2826  5.1382
  404MOL0     H54490   8.667   7.620   5.016 -3.4157  0.9847 -1.7996
  404MOL0     H54491   8.954   7.648   4.778  0.3205  0.8958  0.2086
  404MOL0     H54492   9.314   7.648   4.974  2.1896  2.5061 -2.0716
  404MOL0     H54493   9.251   7.586   4.818 -1.7153  2.4078 -3.3996
  404MOL0     H54494   9.245   7.873   4.925 -0.0235  0.0434  0.5372
  404MOL0     H54495   9.151   7.833   4.785 -0.5930 -0.5879  0.6815
  404MOL0     H54496   9.351   7.931   4.730 -2.7840 -1.0684  0.5077
  404MOL0     H54497   9.364   7.767   4.667 -3.7749  1.7947 -2.0784
  404MOL0     H54498   9.568   7.811   4.743  0.2605  0.8963  1.0442
  404MOL0     H54499   9.507   7.713   4.879 -2.6395  0.7118  0.5844
  404MOL0     H54500   9.565   8.088   5.088 -0.7341  2.1275 -2.5165
  404MOL0     H54501   9.696   8.287   5.131 -0.1494  1.5350  1.3090
  404MOL0     H54502   9.772   8.203   5.261 -2.4610  1.2834 -0.2364
  404MOL0     H54503   9.875   8.280   5.147  0.2793 -1.0819  1.1562
  404MOL0     H54504  10.277   7.989   5.204 -3.2561 -0.5071 -2.3615
  404MOL0     H54505  10.530   8.030   5.203  1.0669 -2.3601 -1.0493
  404MOL0     H54506  10.737   8.094   5.173  1.3775  1.2047  0.5399
  404MOL0     H54507  10.709   8.006   5.022 -2.4243  2.1319 -2.3116
  404MOL0     H54508  10.847   8.186   4.915 -0.6278 -0.4047  0.3095
  404MOL0     H54509  10.898   8.242   5.079 -1.2279  0.4138  1.0893
  404MOL0     H54510  10.959   7.950   5.004  1.4128 -1.6863  1.4343
  404MOL0     H54511  11.004   8.039   5.148  0.2114  1.6434 -0.0340
  404MOL0     H54512  11.105   8.104   4.864 -5.1163 -0.5661  0.0602
  404MOL0     H54513  11.164   8.189   5.008  2.1688 -0.0592  0.1904
  404MOL0     H54514  11.188   7.888   4.972 -0.2018 -0.4339 -2.5616
  404MOL0     H54515  11.285   7.982   5.085 -3.2598  1.0772  1.3082
  404MOL0     H54516  11.401   7.893   4.890  0.8265 -0.4708 -1.5046
  404MOL0     H54517  11.305   7.977   4.775 -0.4090 -1.0315 -0.0338
  404MOL0     H54518  11.501   8.071   4.976 -0.6533 -1.0616  0.9725
  404MOL0     H54519  11.384   8.192   4.917 -0.9578 -0.4140 -1.6596
  404MOL0     H54520  11.571   8.021   4.737 -3.0690 -0.7135 -1.4248
  404MOL0     H54521  11.624   8.174   4.801  0.4199 -1.7077  0.9269
  404MOL0     H54522  10.469   8.302   4.856  1.7440 -1.1866  1.3539
  404MOL0     H54523  10.239   8.224   4.851  0.7762  0.5429  0.2310
  404MOL0     H54524   9.984   7.857   4.982  0.0516  0.9321  1.1891
  404MOL0     H54525   9.759   7.757   4.889  1.4063  0.1343 -0.1567
  404MOL0     H54526   8.086   8.112   5.254 -0.2838 -0.7865  0.5355
  404MOL0     H54527   7.959   8.168   5.448 -0.1173  1.2052 -0.6234
  404MOL0     H54528   8.065   8.530   5.839 -1.1104  3.6006 -1.5768
  404MOL0     H54529   7.977   8.612   6.066  1.6070 -1.3080  0.5878
  404MOL0     H54530   7.574   8.655   6.110  0.2552 -0.3553  1.7259
  404MOL0     H54531   7.629   8.710   6.259 -1.3071  0.8036 -0.3131
  404MOL0     H54532   7.754   8.782   5.987  2.1205 -1.9523  0.9362
  404MOL0     H54533   7.818   8.854   6.138 -0.6225  1.1879 -0.6022
  404MOL0     H54534   7.616   8.957   6.188  3.2980  0.6707  0.9392
  404MOL0     H54535   7.549   8.917   6.024 -0.1065  1.3782  0.2635
  404MOL0     H54536   7.726   9.038   5.918 -0.6844  1.5354 -0.2235
  404MOL0     H54537   7.794   9.085   6.076  0.0361 -1.6747  1.1330
  404MOL0     H54538   7.420   9.303   6.018 -1.1396 -0.1333  0.2815
  404MOL0     H54539   7.603   8.414   6.001 -1.8002 -0.1482 -2.3532
  404MOL0     H54540   7.660   8.357   5.770  1.8284  0.6232 -3.2727
  405MOL0     O54541   7.174  11.418   3.501 -0.7861  0.2393 -0.4537
  405MOL0     C54542   7.069  11.355   3.485 -0.1165  0.3469  0.3215
  405MOL0     O54543   7.000  11.329   3.364  0.3753 -0.3403  0.3430
  405MOL0     C54544   7.062  11.398   3.258 -0.5475  0.1241 -0.6247
  405MOL0     C54545   7.085  11.535   3.249  0.1268 -0.3347 -0.4035
  405MOL0     C54546   7.117  11.586   3.127 -0.3122 -0.0870  0.1114
  405MOL0     C54547   7.140  11.507   3.011  0.1139 -1.3308  0.3631
  405MOL0     O54548   7.192  11.560   2.894  0.1562 -0.5180 -0.0779
  405MOL0     C54549   7.206  11.484   2.771  0.5119 -0.0358 -0.8461
  405MOL0     C54550   7.260  11.569   2.676 -0.2110 -0.4564 -0.1304
  405MOL0     C54551   7.173  11.669   2.598  0.3778  0.1493  0.3549
  405MOL0     C54552   7.171  11.818   2.647  0.9948  0.6621  0.4535
  405MOL0     C54553   7.091  11.908   2.552  0.1322 -0.1641  0.4593
  405MOL0     C54554   7.052  12.044   2.615  0.2525 -0.6919 -0.6991
  405MOL0     C54555   6.922  12.098   2.559  0.6745  0.4876  0.0893
  405MOL0     C54556   6.873  12.231   2.618  1.6273  0.2807 -0.3954
  405MOL0     N54557   6.731  12.255   2.575 -0.2127 -0.2304  0.4140
  405MOL0     C54558   6.662  12.269   2.453  0.0397 -1.4757 -0.8095
  405MOL0     C54559   6.534  12.248   2.482  0.7810  0.2128 -0.1221
  405MOL0     C54560   6.424  12.249   2.382  0.7868 -0.0525  0.0926
  405MOL0     C54561   6.364  12.396   2.362 -1.1449 -0.0194 -0.3077
  405MOL0     C54562   6.300  12.454   2.483 -0.0110 -0.0783  0.1801
  405MOL0     C54563   6.166  12.401   2.523  0.2020  0.7262 -0.0064
  405MOL0     O54564   6.118  12.444   2.647 -0.0661  0.4714 -0.5299
  405MOL0     C54565   6.049  12.569   2.662 -0.2163  0.4398  0.5155
  405MOL0     C54566   5.986  12.585   2.787 -0.6495  0.0268  0.1082
  405MOL0     C54567   5.902  12.699   2.813 -0.8493  0.0647 -0.0195
  405MOL0     C54568   5.843  12.703   2.949  0.5662 -0.3411  0.4808
  405MOL0     C54569   5.900  12.807   2.717  0.6111  0.0280  0.0311
  405MOL0     C54570   5.849  12.944   2.745 -0.5288 -0.2335 -0.0580
  405MOL0     O54571   5.823  12.969   2.879  0.3868  0.2908 -0.0983
  405MOL0     C54572   5.776  13.092   2.921  0.1634  0.0680  0.0104
  405MOL0     C54573   5.682  13.090   3.022  0.5436  0.2117  0.0455
  405MOL0     C54574   5.618  13.211   3.059 -0.7286 -0.1237  0.8420
  405MOL0     C54575   5.668  13.337   3.013 -0.2548  0.4192 -0.6740
  405MOL0     O54576   5.615  13.455   3.055  0.3571 -0.3276  0.0298
  405MOL0     C54577   5.497  13.465   3.130 -0.0618 -0.4939 -0.1182
  405MOL0     C54578   5.447  13.603   3.118  0.2453  0.0131 -0.6753
  405MOL0     C54579   5.519  13.720   3.195  0.1152  0.4696 -0.2617
  405MOL0     C54580   5.530  13.696   3.352 -1.2078 -0.4015 -0.3343
  405MOL0     C54581   5.563  13.825   3.429  0.6387 -0.2699 -0.4410
  405MOL0     C54582   5.583  13.789   3.575 -0.3914  0.7106  0.5151
  405MOL0     C54583   5.600  13.929   3.647 -0.3699 -0.4427 -0.0288
  405MOL0     C54584   5.620  13.911   3.799 -0.2846  0.4862  0.2417
  405MOL0    Cl54585   5.645  14.081   3.847  0.5952 -0.0776 -0.3384
  405MOL0     C54586   5.775  13.333   2.926 -0.1259  0.0050  0.6367
  405MOL0     C54587   5.826  13.212   2.873  0.1065 -0.8125  0.5187
  405MOL0     O54588   5.819  13.021   2.660  0.1377 -0.2624  0.6304
  405MOL0     C54589   5.968  12.785   2.594  0.9416  0.0208 -0.1145
  405MOL0     C54590   6.042  12.671   2.565 -0.9783 -0.4494 -0.5287
  405MOL0     N54591   6.514  12.242   2.621 -0.2928  0.4369 -0.2025
  405MOL0     N54592   6.634  12.261   2.673 -0.4290 -0.0666  0.0929
  405MOL0     C54593   7.117  11.368   3.019  0.0074 -1.1551 -0.0558
  405MOL0     C54594   7.081  11.318   3.138  0.7932 -0.2171  0.0355
  405MOL0     C54595   7.044  11.271   3.612  0.5089 -0.1496  0.4009
  405MOL0     C54596   6.920  11.202   3.627 -1.0702 -0.8208  0.5460
  405MOL0     C54597   6.895  11.122   3.741  0.1438  0.5105  0.9105
  405MOL0     C54598   6.979  11.123   3.844 -0.4021  0.0517 -0.3059
  405MOL0     O54599   6.931  11.064   3.960 -0.2818  0.8211  0.4665
  405MOL0     C54600   7.022  11.078   4.073  0.4120 -0.9456 -0.0402
  405MOL0     C54601   6.955  11.028   4.201  0.1302 -0.1856  0.5257
  405MOL0     C54602   7.037  11.062   4.325 -0.1595  0.2282 -0.1014
  405MOL0     C54603   6.947  11.027   4.446 -0.0529  0.3635 -0.4415
  405MOL0     C54604   6.975  11.120   4.559 -0.6653 -0.0023  0.3238
  405MOL0     C54605   7.017  11.183   4.651  0.4457 -0.6294 -0.1848
  405MOL0     C54606   7.094  11.189   3.833 -0.0773 -0.8820 -0.5398
  405MOL0     C54607   7.117  11.281   3.726 -0.4084 -0.6892 -0.4740
  405MOL0     H54608   7.079  11.592   3.341  3.6274 -1.0769  0.4316
  405MOL0     H54609   7.140  11.690   3.106 -1.3152 -0.1717 -1.6634
  405MOL0     H54610   7.266  11.396   2.795  2.1622  1.2760  0.0114
  405MOL0     H54611   7.106  11.447   2.745  0.0723 -1.0371  1.8722
  405MOL0     H54612   7.341  11.622   2.728 -0.4134  0.8478 -1.0949
  405MOL0     H54613   7.308  11.499   2.607 -0.4385 -0.1242 -0.6348
  405MOL0     H54614   7.201  11.670   2.493 -1.0385  0.1523 -0.0477
  405MOL0     H54615   7.066  11.647   2.600  0.3757  0.1403  0.1336
  405MOL0     H54616   7.106  11.825   2.735 -4.1511  0.8917 -2.9670
  405MOL0     H54617   7.272  11.857   2.663  2.2070 -1.8377 -0.5551
  405MOL0     H54618   7.159  11.935   2.471  0.0310 -0.1961  0.3642
  405MOL0     H54619   7.010  11.856   2.501 -1.7228  2.4157  0.5891
  405MOL0     H54620   7.038  12.020   2.721  1.6887  1.8693  0.1744
  405MOL0     H54621   7.130  12.120   2.605 -0.7301  0.3998 -0.4209
  405MOL0     H54622   6.940  12.113   2.452  4.6368  1.2948  0.6819
  405MOL0     H54623   6.843  12.027   2.585  0.7654 -0.1256 -1.1784
  405MOL0     H54624   6.923  12.315   2.569 -3.2620  3.6266 -0.3739
  405MOL0     H54625   6.891  12.236   2.726  1.7792  1.7399 -0.4648
  405MOL0     H54626   6.708  12.284   2.356  2.2352  0.2896  0.4275
  405MOL0     H54627   6.452  12.210   2.283  0.4262 -2.3953  0.8401
  405MOL0     H54628   6.341  12.184   2.410 -0.6111  1.9576  0.8305
  405MOL0     H54629   6.291  12.384   2.282 -1.9165 -0.1058  0.3999
  405MOL0     H54630   6.435  12.458   2.306 -0.3664  0.3996  1.0853
  405MOL0     H54631   6.294  12.563   2.470 -3.1730 -0.3409 -1.5733
  405MOL0     H54632   6.362  12.444   2.573 -0.1623 -0.7857  0.2093
  405MOL0     H54633   6.182  12.294   2.537  2.6792  1.1670  1.1912
  405MOL0     H54634   6.090  12.412   2.446 -0.4622  0.3631  0.5831
  405MOL0     H54635   6.004  12.505   2.858  1.7218 -0.1919 -0.6548
  405MOL0     H54636   5.807  12.608   2.992  1.3010 -1.9446 -2.2080
  405MOL0     H54637   5.909  12.734   3.030  0.3574 -2.6526  1.6187
  405MOL0     H54638   5.753  12.765   2.959 -0.5847 -2.2396  3.6608
  405MOL0     H54639   5.654  12.992   3.059  1.7114 -0.0890  0.1701
  405MOL0     H54640   5.539  13.209   3.133  1.2573 -0.3170  3.0604
  405MOL0     H54641   5.419  13.391   3.111  1.9297 -3.1229  1.2336
  405MOL0     H54642   5.522  13.462   3.236 -4.8237  5.1093  1.6529
  405MOL0     H54643   5.413  13.629   3.017  0.0481  1.5047 -0.2516
  405MOL0     H54644   5.350  13.607   3.168 -1.9458  1.2548 -4.5277
  405MOL0     H54645   5.458  13.810   3.185  0.1297  0.4044 -1.0264
  405MOL0     H54646   5.615  13.744   3.148  1.6353 -1.9920  1.3582
  405MOL0     H54647   5.443  13.637   3.383  1.2944 -4.3273 -0.0293
  405MOL0     H54648   5.617  13.633   3.373  0.7122  2.8334  2.5663
  405MOL0     H54649   5.477  13.891   3.420  0.9383 -0.1297 -2.9704
  405MOL0     H54650   5.649  13.876   3.385  1.2322 -1.0135 -0.1623
  405MOL0     H54651   5.502  13.733   3.623  0.8506 -1.0198  0.7090
  405MOL0     H54652   5.676  13.731   3.578  1.7859  3.3533 -4.2110
  405MOL0     H54653   5.530  13.998   3.599 -1.3399 -2.2369 -1.3318
  405MOL0     H54654   5.699  13.965   3.616  1.2006 -3.1087  1.5513
  405MOL0     H54655   5.717  13.863   3.808  0.0222  0.9690 -0.3904
  405MOL0     H54656   5.540  13.845   3.834  0.6917 -0.6857  0.3176
  405MOL0     H54657   5.818  13.425   2.887 -0.7994 -0.1916 -0.6579
  405MOL0     H54658   5.902  13.221   2.796  0.4767  1.8360  1.0840
  405MOL0     H54659   5.967  12.855   2.511  0.6807  1.6682  1.2200
  405MOL0     H54660   6.096  12.658   2.473  0.4200 -3.2050  0.5498
  405MOL0     H54661   7.128  11.288   2.947 -0.0433 -1.8206  0.6597
  405MOL0     H54662   7.069  11.210   3.146 -3.3989  0.2085  2.0511
  405MOL0     H54663   6.850  11.196   3.544  0.1885 -0.3106 -0.5934
  405MOL0     H54664   6.803  11.066   3.753 -0.1152  0.8553  0.5453
  405MOL0     H54665   7.112  11.020   4.050  3.4350  2.5012  1.9669
  405MOL0     H54666   7.051  11.183   4.084 -1.4388 -0.4199  0.1561
  405MOL0     H54667   6.939  10.920   4.190  1.7596 -0.3655 -0.2826
  405MOL0     H54668   6.857  11.077   4.206  0.0307 -0.0344 -1.8095
  405MOL0     H54669   7.059  11.169   4.317 -0.2196  0.3379  1.0284
  405MOL0     H54670   7.134  11.012   4.329  1.0529  2.1551 -2.5857
  405MOL0     H54671   6.979  10.929   4.482  0.4213 -0.4447 -2.8795
  405MOL0     H54672   6.843  11.027   4.415 -0.3394  1.0656  0.4811
  405MOL0     H54673   7.072  11.233   4.728  0.9471 -0.7393 -0.4662
  405MOL0     H54674   7.169  11.201   3.911  0.9040  0.5740 -1.6627
  405MOL0     H54675   7.204  11.345   3.737 -2.1883  1.9747 -0.6648
  406MOL0     O54676   4.021  11.347   3.186  0.5375 -0.0940 -0.4071
  406MOL0     C54677   3.972  11.298   3.083  0.6574 -0.9736 -0.5230
  406MOL0     O54678   4.003  11.178   3.041 -1.1248 -0.6771  0.1942
  406MOL0     C54679   4.107  11.111   3.109 -0.0822  0.1031 -0.3645
  406MOL0     C54680   4.249  11.145   3.079 -0.7085 -0.0168  0.0052
  406MOL0     C54681   4.340  11.069   3.144 -0.5260 -0.3038  1.0809
  406MOL0     C54682   4.311  10.965   3.229  1.2971  0.9778 -0.8439
  406MOL0     O54683   4.412  10.900   3.302 -0.3345 -0.3886 -0.5232
  406MOL0     C54684   4.488  10.808   3.217 -0.8463 -1.4017  0.0722
  406MOL0     C54685   4.612  10.761   3.293 -0.0587 -0.3082 -0.1833
  406MOL0     C54686   4.588  10.637   3.383 -0.4865  0.4314  0.1040
  406MOL0     C54687   4.604  10.499   3.298  0.6570  0.3285 -0.0619
  406MOL0     C54688   4.539  10.387   3.376  0.0491 -0.8633  0.0075
  406MOL0     C54689   4.595  10.250   3.314  0.6140  0.3124 -0.4605
  406MOL0     C54690   4.493  10.140   3.333 -0.4009  0.4478 -0.2259
  406MOL0     C54691   4.531   9.998   3.276  0.8571 -0.5664 -0.8394
  406MOL0     N54692   4.420   9.903   3.307 -0.1900 -0.2357  0.1314
  406MOL0     C54693   4.393   9.853   3.431  0.5525  0.9204  0.1745
  406MOL0     C54694   4.311   9.749   3.400 -0.9402 -0.0616  0.4242
  406MOL0     C54695   4.267   9.633   3.488 -0.5415  0.4148 -0.0659
  406MOL0     C54696   4.216   9.678   3.628  0.2297  0.0287  0.1895
  406MOL0     C54697   4.064   9.712   3.640 -0.3479  0.6091  0.9322
  406MOL0     C54698   4.010   9.809   3.529 -0.9405  0.6570  0.2158
  406MOL0     O54699   3.880   9.858   3.568  0.7832  0.6117 -0.0030
  406MOL0     C54700   3.805   9.936   3.484  0.6159  0.0073  0.0990
  406MOL0     C54701   3.847   9.998   3.364  0.1950  0.3595  0.6414
  406MOL0     C54702   3.767  10.096   3.307  0.5836  1.1633 -0.1252
  406MOL0     C54703   3.826  10.173   3.198  0.3107 -0.0418 -0.4699
  406MOL0     C54704   3.646  10.137   3.361  0.6944 -0.4558  0.0944
  406MOL0     C54705   3.557  10.253   3.313  0.7518  0.8885 -0.1127
  406MOL0     O54706   3.499  10.328   3.411 -0.0982  0.1856 -0.1758
  406MOL0     C54707   3.385  10.408   3.387 -0.0557  0.3436  0.4972
  406MOL0     C54708   3.384  10.508   3.290 -0.0397  0.3668  0.2437
  406MOL0     C54709   3.273  10.595   3.283  0.0512 -0.2007  0.8447
  406MOL0     C54710   3.161  10.579   3.365 -0.1213 -0.8616  0.0342
  406MOL0     O54711   3.053  10.660   3.348 -0.0056 -0.1926 -0.1291
  406MOL0     C54712   2.934  10.650   3.425  0.2698 -0.2358  0.1272
  406MOL0     C54713   2.820  10.720   3.355  0.0181 -0.0088 -0.6100
  406MOL0     C54714   2.829  10.873   3.373 -1.0827 -0.0884  1.0548
  406MOL0     C54715   2.701  10.944   3.332 -0.6551 -0.2562 -0.1930
  406MOL0     C54716   2.570  10.925   3.411 -0.5261  0.0455 -0.1937
  406MOL0     C54717   2.570  10.971   3.552  0.8507 -0.1453  0.3852
  406MOL0     C54718   2.450  10.915   3.630 -0.3002 -0.1732  0.2510
  406MOL0     C54719   2.323  10.993   3.577  0.3060  0.2411 -0.4279
  406MOL0    Cl54720   2.181  10.929   3.655  0.2371 -0.1022 -0.1559
  406MOL0     C54721   3.171  10.480   3.465  0.8156 -0.4309  0.8177
  406MOL0     C54722   3.269  10.388   3.467  0.0705  0.0161  0.1827
  406MOL0     O54723   3.538  10.259   3.195  0.2898  0.6695  0.0356
  406MOL0     C54724   3.597  10.059   3.460  0.5646  0.4882 -1.1700
  406MOL0     C54725   3.676   9.969   3.533 -0.4946  1.1279 -0.2775
  406MOL0     N54726   4.297   9.737   3.265  0.4700 -0.1280 -0.7602
  406MOL0     N54727   4.354   9.836   3.206 -0.4949  0.1073 -0.8586
  406MOL0     C54728   4.176  10.940   3.260 -0.1543  0.7612  0.5318
  406MOL0     C54729   4.074  11.007   3.193  0.3232 -0.3596  0.9269
  406MOL0     C54730   3.871  11.374   2.994  0.0351 -0.6764 -0.2086
  406MOL0     C54731   3.840  11.331   2.865 -0.6596 -1.3428 -0.7682
  406MOL0     C54732   3.769  11.421   2.778  0.0195  0.5255  0.2456
  406MOL0     C54733   3.715  11.539   2.827 -0.2539  0.6227 -0.2894
  406MOL0     O54734   3.635  11.636   2.762  0.5173  0.7786  0.3183
  406MOL0     C54735   3.630  11.638   2.621 -0.3631 -0.5795  0.4202
  406MOL0     C54736   3.512  11.729   2.567  0.4473 -0.6422  0.9758
  406MOL0     C54737   3.535  11.869   2.591  0.2148  0.5743 -1.1697
  406MOL0     C54738   3.415  11.950   2.545 -0.0661  0.1095  0.5052
  406MOL0     C54739   3.449  12.084   2.571  1.1719  0.3433  0.6423
  406MOL0     C54740   3.464  12.201   2.593  0.6660 -0.3110  0.3781
  406MOL0     C54741   3.736  11.572   2.957  0.5130 -0.3643  0.2015
  406MOL0     C54742   3.812  11.487   3.043 -0.2798 -1.1677  1.0615
  406MOL0     H54743   4.293  11.211   3.006  0.8935 -2.1101 -1.0364
  406MOL0     H54744   4.441  11.093   3.114 -0.9647  0.3160  0.0322
  406MOL0     H54745   4.429  10.717   3.201 -1.5983 -1.3107  2.0467
  406MOL0     H54746   4.527  10.853   3.125 -1.9777  0.4320  0.4373
  406MOL0     H54747   4.682  10.719   3.220 -2.6474 -0.3856 -2.7882
  406MOL0     H54748   4.658  10.843   3.349  1.5313  1.9275 -4.2655
  406MOL0     H54749   4.660  10.632   3.465  0.6716 -1.8807 -0.9927
  406MOL0     H54750   4.484  10.634   3.419 -0.4368  0.7973  0.2783
  406MOL0     H54751   4.556  10.507   3.200 -2.5465  3.1338  1.5199
  406MOL0     H54752   4.710  10.473   3.293  0.9219  1.2702  0.3229
  406MOL0     H54753   4.577  10.385   3.479  1.2332  3.1224 -0.1853
  406MOL0     H54754   4.430  10.387   3.369 -0.1500 -4.3789  1.1089
  406MOL0     H54755   4.624  10.259   3.209 -1.9717  1.6001 -1.1612
  406MOL0     H54756   4.684  10.229   3.374  0.8838  4.1423  0.7005
  406MOL0     H54757   4.481  10.124   3.440 -2.8765  2.2649 -0.1373
  406MOL0     H54758   4.396  10.184   3.306  0.6470  1.1274 -3.2602
  406MOL0     H54759   4.625   9.963   3.320 -0.3736 -0.7395  1.8285
  406MOL0     H54760   4.545  10.005   3.167  0.4518  4.9313 -0.7933
  406MOL0     H54761   4.425   9.887   3.529 -0.0443 -0.0368  0.7175
  406MOL0     H54762   4.178   9.595   3.437 -0.4122 -1.5446  1.0652
  406MOL0     H54763   4.347   9.559   3.491 -2.7327 -2.0742  1.5043
  406MOL0     H54764   4.253   9.777   3.657  1.0241 -0.9649  2.9361
  406MOL0     H54765   4.235   9.607   3.709 -1.9046  0.2959  0.9935
  406MOL0     H54766   4.042   9.756   3.738  1.0901 -2.3856  2.7165
  406MOL0     H54767   4.015   9.614   3.639 -2.6154  1.6667  1.4888
  406MOL0     H54768   4.014   9.766   3.429 -0.1720 -1.3987  1.0605
  406MOL0     H54769   4.086   9.888   3.529 -0.0461 -0.1675  0.9512
  406MOL0     H54770   3.934   9.958   3.312 -1.5913  0.3646 -2.5941
  406MOL0     H54771   3.761  10.147   3.114  0.1753 -3.0759  0.4765
  406MOL0     H54772   3.822  10.281   3.217  0.9487 -0.0626 -0.1910
  406MOL0     H54773   3.930  10.151   3.173  0.6082 -0.0143  0.6954
  406MOL0     H54774   3.467  10.530   3.223  0.3020  0.1383  0.5843
  406MOL0     H54775   3.270  10.674   3.209 -3.3911 -2.9802 -2.4543
  406MOL0     H54776   2.903  10.545   3.433 -3.3711  0.6453 -0.5933
  406MOL0     H54777   2.947  10.686   3.527  3.3403  2.2471 -0.9647
  406MOL0     H54778   2.833  10.710   3.246 -0.9305  2.6214 -1.0433
  406MOL0     H54779   2.724  10.680   3.390 -0.3869 -1.1474 -2.8228
  406MOL0     H54780   2.914  10.902   3.312 -0.0768 -3.3232  0.7412
  406MOL0     H54781   2.853  10.896   3.478  0.0031 -1.1661  1.0661
  406MOL0     H54782   2.722  11.052   3.328 -0.9522 -0.0837  1.9241
  406MOL0     H54783   2.688  10.901   3.232  0.5922 -3.0319  0.7523
  406MOL0     H54784   2.556  10.817   3.409 -0.0087 -0.0175 -0.9157
  406MOL0     H54785   2.496  10.979   3.350 -0.6610  1.5065  1.2136
  406MOL0     H54786   2.663  10.931   3.595  0.9244 -0.8681 -0.4255
  406MOL0     H54787   2.570  11.080   3.565 -1.6011 -0.2842  2.1250
  406MOL0     H54788   2.460  10.935   3.737  0.1730 -1.2134  0.4142
  406MOL0     H54789   2.436  10.807   3.622 -4.2813  0.0441  2.1675
  406MOL0     H54790   2.301  10.983   3.471  1.0430  2.5510 -0.8505
  406MOL0     H54791   2.329  11.099   3.603 -2.0426 -0.1524  2.3019
  406MOL0     H54792   3.084  10.463   3.527 -0.5787  0.5004 -0.8163
  406MOL0     H54793   3.251  10.313   3.544 -2.3680 -0.8133 -1.0873
  406MOL0     H54794   3.495  10.064   3.499  1.4182 -0.5789  1.3852
  406MOL0     H54795   3.642   9.909   3.616 -3.6214 -1.5456 -3.1878
  406MOL0     H54796   4.164  10.850   3.319 -1.9528 -0.2683 -1.2590
  406MOL0     H54797   3.968  10.985   3.202  0.0677  0.9041  1.2367
  406MOL0     H54798   3.883  11.238   2.829 -0.4770 -1.4677 -0.2403
  406MOL0     H54799   3.745  11.378   2.681  2.3696 -3.4844  1.2077
  406MOL0     H54800   3.727  11.678   2.587  0.0640 -1.6229  0.3623
  406MOL0     H54801   3.616  11.538   2.578 -3.5167  0.0321 -0.1616
  406MOL0     H54802   3.422  11.701   2.622  1.5041 -1.5394  2.3194
  406MOL0     H54803   3.500  11.724   2.459  0.2110  2.5390  0.7512
  406MOL0     H54804   3.633  11.902   2.554 -0.1098  0.9627 -1.7149
  406MOL0     H54805   3.535  11.880   2.700 -3.1570 -2.3518 -0.7029
  406MOL0     H54806   3.326  11.926   2.604 -1.3343  3.4644  0.1692
  406MOL0     H54807   3.401  11.940   2.436  1.6692 -1.7129  0.3856
  406MOL0     H54808   3.485  12.300   2.627 -0.1171 -0.4358  1.2596
  406MOL0     H54809   3.704  11.671   2.990  0.6941  0.9124 -3.0656
  406MOL0     H54810   3.840  11.513   3.145  0.8854 -0.6915  0.6353
  407MOL0     O54811   0.253   4.931   8.196  0.3718  0.1235 -0.7707
  407MOL0     C54812   0.278   4.988   8.092 -0.0342 -0.5557  0.4482
  407MOL0     O54813   0.290   4.926   7.971 -0.5419 -0.5100  0.0861
  407MOL0     C54814   0.318   4.791   7.966  0.8474  0.3038 -0.1599
  407MOL0     C54815   0.388   4.718   8.064  0.9651  0.6273 -0.3062
  407MOL0     C54816   0.414   4.587   8.038  0.2399  0.7205 -0.2688
  407MOL0     C54817   0.378   4.517   7.921  0.3735  0.7591 -0.1468
  407MOL0     O54818   0.390   4.382   7.896 -0.1747  0.2201  0.1066
  407MOL0     C54819   0.487   4.307   7.958 -0.3769  0.0226 -0.9006
  407MOL0     C54820   0.428   4.253   8.085 -0.3027  0.6968 -0.0572
  407MOL0     C54821   0.287   4.197   8.079  0.4207  0.0365  0.1157
  407MOL0     C54822   0.260   4.099   8.195 -0.3324  0.9218 -1.2797
  407MOL0     C54823   0.116   4.039   8.186 -0.8862 -0.6040  0.2203
  407MOL0     C54824   0.090   3.954   8.314  0.2337  0.1812  0.1933
  407MOL0     C54825   0.156   3.815   8.316 -1.0917 -0.5640 -0.9557
  407MOL0     C54826   0.121   3.723   8.197  0.6521  1.0976 -0.1834
  407MOL0     N54827   0.194   3.596   8.188  0.6780 -0.7442  0.6828
  407MOL0     C54828   0.194   3.499   8.290 -0.1689 -0.0739  0.2383
  407MOL0     C54829   0.264   3.397   8.239 -0.7118 -0.0858 -0.8580
  407MOL0     C54830   0.309   3.271   8.305 -0.5988 -0.2401 -0.5543
  407MOL0     C54831   0.453   3.224   8.290  0.5550 -0.0099 -0.8111
  407MOL0     C54832   0.555   3.335   8.328 -0.1556  0.1716  0.5531
  407MOL0     C54833   0.696   3.284   8.363  0.0557  0.8144 -0.1696
  407MOL0     O54834   0.760   3.265   8.237  0.3066  0.1595 -0.2944
  407MOL0     C54835   0.891   3.215   8.240 -0.7075  0.0353  0.2573
  407MOL0     C54836   0.946   3.180   8.117  0.6824 -1.0369 -0.5429
  407MOL0     C54837   1.064   3.112   8.108 -0.8615  0.3985  0.4294
  407MOL0     C54838   1.103   3.075   7.960  0.2441  0.5743 -0.1379
  407MOL0     C54839   1.130   3.074   8.224  0.0111 -0.2104 -0.4701
  407MOL0     C54840   1.263   2.996   8.234  0.2767 -0.3310 -0.0771
  407MOL0     O54841   1.284   2.917   8.121 -0.4458 -0.9400  0.6047
  407MOL0     C54842   1.412   2.895   8.081  0.5146 -0.0760 -0.0247
  407MOL0     C54843   1.447   2.784   8.011  0.1121  1.5062 -0.1333
  407MOL0     C54844   1.576   2.772   7.946  0.1690  0.2820 -0.4155
  407MOL0     C54845   1.676   2.869   7.974  0.8626 -0.2755  0.2365
  407MOL0     O54846   1.813   2.862   7.928  0.5803 -0.1966 -0.9790
  407MOL0     C54847   1.859   2.734   7.915 -0.2838  0.7286  0.2911
  407MOL0     C54848   1.910   2.676   8.046  0.3931  0.3036 -0.1840
  407MOL0     C54849   2.051   2.724   8.078 -0.4978 -0.4590  0.4583
  407MOL0     C54850   2.090   2.718   8.230 -0.1728 -0.1783  0.2064
  407MOL0     C54851   2.216   2.794   8.256 -0.1386 -0.0672 -0.1040
  407MOL0     C54852   2.233   2.791   8.406 -0.4791 -0.3624  0.3424
  407MOL0     C54853   2.382   2.824   8.444  0.0569 -0.7868 -0.2098
  407MOL0     C54854   2.482   2.710   8.421  0.8693  0.4657  0.0909
  407MOL0    Cl54855   2.459   2.585   8.545  0.1377 -0.2887  0.0788
  407MOL0     C54856   1.645   2.976   8.047 -0.5681 -0.1305  0.1981
  407MOL0     C54857   1.515   2.995   8.098  0.6957 -0.5981  0.5883
  407MOL0     O54858   1.336   2.993   8.328 -0.1161  0.1479 -0.5701
  407MOL0     C54859   1.080   3.116   8.351  0.0575  0.2738  0.0669
  407MOL0     C54860   0.960   3.186   8.359 -0.3610 -0.1869 -0.3588
  407MOL0     N54861   0.307   3.440   8.116 -0.0930  0.9061 -0.2555
  407MOL0     N54862   0.268   3.553   8.082 -0.3427  1.3603  0.7069
  407MOL0     C54863   0.306   4.589   7.822 -0.0409  0.9066 -1.1417
  407MOL0     C54864   0.277   4.727   7.851  0.1692  0.0684 -0.3153
  407MOL0     C54865   0.284   5.143   8.100 -0.9374 -0.2507 -0.4619
  407MOL0     C54866   0.286   5.203   8.229  0.2253  1.1300 -0.3506
  407MOL0     C54867   0.319   5.338   8.242 -0.6293  0.0178  0.2638
  407MOL0     C54868   0.330   5.418   8.132 -0.6007  0.3793  0.1440
  407MOL0     O54869   0.344   5.552   8.148 -0.5056 -0.0620 -0.3064
  407MOL0     C54870   0.226   5.629   8.117 -1.1871  0.6216 -0.9482
  407MOL0     C54871   0.226   5.740   8.226 -0.1094 -0.6097  0.3079
  407MOL0     C54872   0.099   5.834   8.220 -1.1147  0.3310 -0.4795
  407MOL0     C54873   0.087   5.906   8.091 -0.3519  0.1329  0.1051
  407MOL0     C54874  -0.021   6.008   8.106 -1.3135 -0.0308  1.4246
  407MOL0     C54875  -0.121   6.064   8.109 -0.0047 -0.5496  0.8406
  407MOL0     C54876   0.336   5.356   8.005 -0.4279  0.2418  0.5719
  407MOL0     C54877   0.316   5.218   7.991 -0.0534  1.3885 -0.0059
  407MOL0     H54878   0.428   4.752   8.159 -0.9946 -0.2104  0.8768
  407MOL0     H54879   0.471   4.547   8.121  1.3287  2.8542  0.0833
  407MOL0     H54880   0.519   4.217   7.904  2.0714  0.3681 -0.1706
  407MOL0     H54881   0.578   4.366   7.975 -0.9588  0.4691  0.7975
  407MOL0     H54882   0.501   4.176   8.110  2.5720  3.3548  0.3021
  407MOL0     H54883   0.419   4.326   8.166 -1.8246 -0.1942  0.6259
  407MOL0     H54884   0.220   4.283   8.091 -1.5901 -1.2667 -1.2238
  407MOL0     H54885   0.259   4.155   7.982 -1.8006 -0.2105  0.8083
  407MOL0     H54886   0.330   4.016   8.190 -0.6243  0.5467  0.3084
  407MOL0     H54887   0.264   4.154   8.289  1.4444  0.3407 -0.9801
  407MOL0     H54888   0.050   4.126   8.178 -1.8871 -1.4963 -1.7097
  407MOL0     H54889   0.101   3.977   8.098  0.3041 -0.4103 -0.1423
  407MOL0     H54890   0.119   4.008   8.404  1.5738 -0.7032  0.3329
  407MOL0     H54891  -0.016   3.942   8.337  1.1396 -0.6674  4.8795
  407MOL0     H54892   0.262   3.841   8.306 -1.6333  0.8757 -4.9791
  407MOL0     H54893   0.140   3.764   8.411  0.1309 -1.0827 -1.0168
  407MOL0     H54894   0.135   3.777   8.103  2.4795  2.4144  0.7956
  407MOL0     H54895   0.014   3.698   8.204  0.6579  0.3049 -2.2299
  407MOL0     H54896   0.162   3.511   8.393  1.8229 -0.1101  0.9053
  407MOL0     H54897   0.283   3.266   8.411  1.7789 -0.0973  0.0762
  407MOL0     H54898   0.243   3.198   8.256 -2.4174  0.3099  0.9482
  407MOL0     H54899   0.480   3.204   8.186  1.4244  1.6663 -0.9375
  407MOL0     H54900   0.456   3.123   8.332 -1.3136  0.0946 -0.3403
  407MOL0     H54901   0.517   3.373   8.424 -2.2705 -1.2888  0.3663
  407MOL0     H54902   0.565   3.408   8.247  5.3983  0.7850  1.4287
  407MOL0     H54903   0.684   3.198   8.430 -0.0501  0.5844 -0.4788
  407MOL0     H54904   0.758   3.362   8.406  1.2536 -0.3773  0.3436
  407MOL0     H54905   0.891   3.210   8.029  0.9926 -0.6673 -0.6147
  407MOL0     H54906   1.062   2.974   7.946  0.8203 -0.2319  3.0972
  407MOL0     H54907   1.051   3.145   7.894 -3.5485  0.1284  2.1000
  407MOL0     H54908   1.212   3.077   7.951  0.1891 -0.2149 -1.2053
  407MOL0     H54909   1.362   2.722   7.986 -1.0691  1.7800  2.8076
  407MOL0     H54910   1.575   2.681   7.886 -2.3865 -0.6458  0.9128
  407MOL0     H54911   1.798   2.658   7.865 -2.3748  2.0788  0.6540
  407MOL0     H54912   1.948   2.736   7.852 -0.2569 -1.1238  0.2186
  407MOL0     H54913   1.844   2.692   8.132 -1.1445 -2.9681 -0.6096
  407MOL0     H54914   1.909   2.569   8.022  0.4125  0.4539 -0.8873
  407MOL0     H54915   2.071   2.818   8.027 -4.2301 -1.4874 -3.4885
  407MOL0     H54916   2.110   2.651   8.022 -4.4666 -2.3708 -1.6819
  407MOL0     H54917   2.010   2.760   8.291 -0.7160 -0.1665 -0.4969
  407MOL0     H54918   2.101   2.614   8.262  1.0646  0.4904  2.0706
  407MOL0     H54919   2.211   2.897   8.220 -0.0243 -0.5940 -1.7241
  407MOL0     H54920   2.298   2.746   8.203 -0.6722 -3.8512  2.0965
  407MOL0     H54921   2.168   2.863   8.457 -0.9964 -0.7892  0.2877
  407MOL0     H54922   2.209   2.697   8.455  1.8384  0.9045  4.3280
  407MOL0     H54923   2.367   2.841   8.551 -0.0192 -3.0736  0.1940
  407MOL0     H54924   2.431   2.908   8.393 -1.9339  0.2287 -0.5615
  407MOL0     H54925   2.581   2.754   8.435  0.5684  1.8182 -1.6480
  407MOL0     H54926   2.471   2.674   8.318  1.3040  4.2563 -1.4349
  407MOL0     H54927   1.714   3.053   8.080 -1.1310 -0.1827  1.5646
  407MOL0     H54928   1.497   3.094   8.139  1.3003 -0.2556  0.0569
  407MOL0     H54929   1.129   3.076   8.439  0.0389  1.3741  0.5914
  407MOL0     H54930   0.917   3.202   8.457 -0.5736 -3.9350  0.3114
  407MOL0     H54931   0.271   4.566   7.723  0.3743  1.0778 -1.3324
  407MOL0     H54932   0.212   4.784   7.785 -0.4861  1.6699  1.6389
  407MOL0     H54933   0.268   5.150   8.322 -1.1674  0.5344 -0.9303
  407MOL0     H54934   0.324   5.381   8.342 -2.5276  0.2188  0.2988
  407MOL0     H54935   0.239   5.668   8.016  2.0941 -1.1391 -1.3501
  407MOL0     H54936   0.132   5.574   8.131 -1.2078  0.3615 -2.0121
  407MOL0     H54937   0.313   5.806   8.218  0.4305 -1.3876 -0.2873
  407MOL0     H54938   0.224   5.691   8.324 -1.5347 -2.5955 -0.6568
  407MOL0     H54939   0.111   5.908   8.299 -3.7846 -1.9067  2.3157
  407MOL0     H54940   0.018   5.760   8.226  1.4035 -2.9332 -2.6389
  407MOL0     H54941   0.052   5.853   8.003 -0.3297 -2.9028  1.8062
  407MOL0     H54942   0.186   5.950   8.074 -1.0805  0.7346 -3.3169
  407MOL0     H54943  -0.221   6.102   8.111  0.5263  0.9024  1.1113
  407MOL0     H54944   0.345   5.419   7.917  0.5243 -0.7395 -0.0726
  407MOL0     H54945   0.329   5.182   7.890 -0.5563  1.8842 -0.2566
  408MOL0     O54946   4.873   0.227   4.668 -0.1515  0.5370  0.1340
  408MOL0     C54947   4.772   0.294   4.661 -0.6361  0.8863  0.0289
  408MOL0     O54948   4.698   0.300   4.548 -0.0172 -0.1003 -0.1098
  408MOL0     C54949   4.758   0.305   4.424  0.2609 -0.0439  0.8309
  408MOL0     C54950   4.815   0.192   4.357 -0.5281  0.4243  0.0674
  408MOL0     C54951   4.862   0.195   4.222  0.2809 -0.6124 -0.7234
  408MOL0     C54952   4.860   0.314   4.154  0.1596 -1.3344  0.0409
  408MOL0     O54953   4.903   0.337   4.021  0.6340  0.1094  0.0881
  408MOL0     C54954   4.991   0.248   3.963 -1.0518  0.3217  0.9717
  408MOL0     C54955   5.080   0.325   3.860  0.3027  0.2097 -0.5270
  408MOL0     C54956   5.056   0.272   3.717 -0.3378  0.8554 -0.1742
  408MOL0     C54957   5.121   0.346   3.597  0.3447  0.0562 -0.1035
  408MOL0     C54958   5.095   0.248   3.477 -0.1819  0.2189  0.5941
  408MOL0     C54959   5.114   0.315   3.336  1.4400 -0.3054  0.4630
  408MOL0     C54960   5.022   0.434   3.304  0.0569 -0.3085 -1.1335
  408MOL0     C54961   5.084   0.578   3.318  0.2609  0.0382 -0.4140
  408MOL0     N54962   4.972   0.666   3.261 -0.3252  0.0665 -0.5719
  408MOL0     C54963   4.926   0.673   3.137  0.1661  0.0894 -0.4307
  408MOL0     C54964   4.830   0.769   3.139  0.0785 -0.4221 -0.2518
  408MOL0     C54965   4.728   0.813   3.027  0.3354  0.0177  0.1164
  408MOL0     C54966   4.819   0.890   2.920 -0.0424 -0.7963 -0.1941
  408MOL0     C54967   4.753   0.943   2.793  0.5741 -0.0567  0.8198
  408MOL0     C54968   4.657   1.053   2.803 -0.0195 -0.6863 -0.9177
  408MOL0     O54969   4.721   1.178   2.817 -0.1751 -0.9001  0.8298
  408MOL0     C54970   4.649   1.288   2.857  0.0473 -0.1280  0.8174
  408MOL0     C54971   4.711   1.409   2.856  0.6709 -0.0840 -0.4350
  408MOL0     C54972   4.652   1.531   2.903  0.9040  0.2295  0.6240
  408MOL0     C54973   4.727   1.657   2.885  0.4056  0.8264  0.0619
  408MOL0     C54974   4.521   1.536   2.950 -0.3490  0.4817  0.0682
  408MOL0     C54975   4.461   1.656   2.975 -0.1000 -0.2224  0.0334
  408MOL0     O54976   4.507   1.729   3.078  0.8663 -1.3129 -0.4333
  408MOL0     C54977   4.444   1.843   3.111  0.1762  0.6683  0.6716
  408MOL0     C54978   4.495   1.959   3.060 -0.3457  0.9442  0.5682
  408MOL0     C54979   4.433   2.081   3.080  0.2594 -1.1308 -0.4757
  408MOL0     C54980   4.330   2.084   3.168  0.3111  0.2319 -1.6469
  408MOL0     O54981   4.255   2.199   3.187  0.1030  0.4315  0.6707
  408MOL0     C54982   4.268   2.322   3.118 -0.9405 -1.2113 -0.3891
  408MOL0     C54983   4.169   2.343   3.012  0.4202 -1.1050  0.1671
  408MOL0     C54984   4.141   2.484   2.960 -0.3084 -0.6904 -0.4639
  408MOL0     C54985   4.272   2.554   2.925  0.0350  0.5625 -0.5876
  408MOL0     C54986   4.261   2.693   2.865  0.3386  0.0641  0.1055
  408MOL0     C54987   4.170   2.712   2.741 -0.8296 -0.2830 -0.7693
  408MOL0     C54988   4.191   2.833   2.643  0.6417  0.3505  0.3009
  408MOL0     C54989   4.196   2.968   2.713 -0.9357  0.0753 -0.3932
  408MOL0    Cl54990   4.259   3.096   2.596 -0.0767 -0.0791 -0.6474
  408MOL0     C54991   4.296   1.975   3.256  0.1141  0.5434  0.1343
  408MOL0     C54992   4.349   1.855   3.218 -1.5186 -0.4419 -1.0735
  408MOL0     O54993   4.355   1.678   2.918 -0.0932  0.4518 -0.0435
  408MOL0     C54994   4.454   1.411   2.947 -0.3415 -0.7562  0.0125
  408MOL0     C54995   4.516   1.288   2.913 -1.2403 -0.4830  0.9005
  408MOL0     N54996   4.825   0.823   3.265 -0.7929  0.2131  0.4712
  408MOL0     N54997   4.911   0.764   3.336 -0.7141  0.6103  0.2266
  408MOL0     C54998   4.814   0.434   4.222  0.8390 -0.3626  0.1663
  408MOL0     C54999   4.756   0.423   4.350  0.5611 -0.6605 -0.2720
  408MOL0     C55000   4.737   0.355   4.782  0.0823  0.2461  0.1348
  408MOL0     C55001   4.776   0.305   4.905 -0.4804  0.2452  0.7215
  408MOL0     C55002   4.729   0.371   5.019  0.2415 -1.1441 -0.4187
  408MOL0     C55003   4.657   0.497   5.008 -0.2807 -0.7243 -0.8090
  408MOL0     O55004   4.647   0.572   5.124 -0.0053  0.0175  0.0804
  408MOL0     C55005   4.570   0.688   5.124 -0.1429 -0.1602  0.7062
  408MOL0     C55006   4.540   0.739   5.269 -0.5663  0.0026 -0.3330
  408MOL0     C55007   4.461   0.866   5.273  0.4745 -0.7194  0.9110
  408MOL0     C55008   4.539   0.978   5.219  0.3750  0.5414  0.5039
  408MOL0     C55009   4.483   1.097   5.268 -0.1588  0.3228  0.3666
  408MOL0     C55010   4.453   1.192   5.327  0.6505  0.2119  0.4178
  408MOL0     C55011   4.617   0.544   4.885  0.1845 -0.1303 -0.0686
  408MOL0     C55012   4.661   0.473   4.772  0.3921 -0.0067  0.6963
  408MOL0     H55013   4.810   0.096   4.408 -2.4938 -0.9664 -2.4614
  408MOL0     H55014   4.889   0.100   4.178 -0.6003 -0.7903 -0.8876
  408MOL0     H55015   5.066   0.211   4.033  4.9243  4.1431 -2.5052
  408MOL0     H55016   4.943   0.163   3.915 -0.8107  0.2169  0.9135
  408MOL0     H55017   5.067   0.433   3.862  2.7993  0.6849 -3.4558
  408MOL0     H55018   5.187   0.312   3.878  0.4523  0.2980 -1.2984
  408MOL0     H55019   5.069   0.164   3.705 -1.5907  0.6966 -0.2451
  408MOL0     H55020   4.951   0.294   3.697  0.2084  1.3219 -2.9134
  408MOL0     H55021   5.073   0.443   3.581  1.9644  0.7167 -1.2322
  408MOL0     H55022   5.228   0.355   3.614  0.4493  0.9723 -1.1236
  408MOL0     H55023   5.172   0.169   3.480  1.4371  1.7062 -0.0891
  408MOL0     H55024   4.993   0.212   3.467  0.0840 -0.1974 -0.8602
  408MOL0     H55025   5.214   0.351   3.313  0.8119  0.8147 -0.5556
  408MOL0     H55026   5.093   0.238   3.261 -2.2449  1.6085 -0.6862
  408MOL0     H55027   5.006   0.424   3.196 -3.0191 -3.3106 -0.5595
  408MOL0     H55028   4.922   0.410   3.340  0.8162 -0.1914  1.2597
  408MOL0     H55029   5.179   0.582   3.264  0.1187  0.3843 -0.6409
  408MOL0     H55030   5.097   0.593   3.425  1.2465  0.5650 -0.6009
  408MOL0     H55031   4.966   0.613   3.056 -3.1874 -2.7539 -0.1919
  408MOL0     H55032   4.678   0.721   2.995  0.3428  0.7979 -2.3812
  408MOL0     H55033   4.651   0.882   3.063  0.2415  0.0839 -0.2024
  408MOL0     H55034   4.899   0.817   2.900 -1.7011 -2.6024 -0.5586
  408MOL0     H55035   4.863   0.976   2.972 -1.5101 -0.7256  0.9697
  408MOL0     H55036   4.696   0.857   2.755  1.1828  0.9936 -2.9587
  408MOL0     H55037   4.835   0.961   2.722 -1.2229 -0.6590 -1.5546
  408MOL0     H55038   4.581   1.039   2.881 -2.3967  2.3832 -2.4198
  408MOL0     H55039   4.599   1.058   2.710 -0.2184 -0.6159 -0.7910
  408MOL0     H55040   4.810   1.422   2.811  0.2636  2.0493 -0.8256
  408MOL0     H55041   4.820   1.640   2.831  0.4708 -1.5622  0.8153
  408MOL0     H55042   4.672   1.730   2.825  1.1086  1.7731  0.5388
  408MOL0     H55043   4.748   1.694   2.986  1.6507 -0.8525  0.4632
  408MOL0     H55044   4.589   1.959   3.006 -0.1207  1.5307  0.9424
  408MOL0     H55045   4.473   2.175   3.044  2.4390 -0.8405  2.4235
  408MOL0     H55046   4.252   2.402   3.191 -0.9748  0.4185 -2.0806
  408MOL0     H55047   4.371   2.341   3.086 -1.8076  1.5065 -1.9172
  408MOL0     H55048   4.218   2.287   2.931 -0.5717 -2.7014  0.6118
  408MOL0     H55049   4.070   2.299   3.029  1.2827 -2.8432  1.0319
  408MOL0     H55050   4.084   2.544   3.031  0.3280  0.6066 -1.0218
  408MOL0     H55051   4.079   2.482   2.870 -0.6748 -1.3460 -0.2039
  408MOL0     H55052   4.331   2.571   3.017 -1.9303  0.5118  0.7443
  408MOL0     H55053   4.329   2.488   2.860  1.9170 -0.1004  1.5867
  408MOL0     H55054   4.363   2.726   2.841  0.2555  0.8975  0.8556
  408MOL0     H55055   4.227   2.761   2.944  3.0053  3.1382 -1.1179
  408MOL0     H55056   4.189   2.627   2.675 -0.9465 -1.9735  1.2676
  408MOL0     H55057   4.064   2.713   2.767 -0.1859  1.1748  2.2545
  408MOL0     H55058   4.102   2.841   2.580  1.5137  0.5732 -0.9412
  408MOL0     H55059   4.279   2.812   2.582 -0.4685 -1.4781 -0.7795
  408MOL0     H55060   4.264   2.964   2.798 -0.4076 -1.9625 -0.8716
  408MOL0     H55061   4.099   3.002   2.750 -1.1786 -1.1519  0.1282
  408MOL0     H55062   4.231   1.988   3.342 -0.2592  1.0357 -0.2198
  408MOL0     H55063   4.328   1.768   3.279  0.1519 -1.1791 -1.5064
  408MOL0     H55064   4.348   1.400   2.966  0.1737 -3.7159  1.6875
  408MOL0     H55065   4.457   1.198   2.907 -0.0648 -1.1850 -1.8285
  408MOL0     H55066   4.816   0.531   4.175  2.3332  0.8456  2.5320
  408MOL0     H55067   4.714   0.507   4.405 -0.8488 -1.6443  0.1887
  408MOL0     H55068   4.837   0.216   4.917 -0.1354  0.2498 -0.8642
  408MOL0     H55069   4.765   0.338   5.116 -1.4433  1.5966  1.2538
  408MOL0     H55070   4.629   0.761   5.068 -0.9551 -1.6943 -2.3245
  408MOL0     H55071   4.470   0.671   5.085 -0.6302  0.1601  1.7579
  408MOL0     H55072   4.631   0.764   5.323  2.8891 -2.2256 -4.5543
  408MOL0     H55073   4.490   0.663   5.330 -0.3139 -0.4501 -0.6895
  408MOL0     H55074   4.439   0.875   5.380  0.9023 -1.1265  1.0371
  408MOL0     H55075   4.372   0.848   5.212  2.3957  1.0630 -2.7115
  408MOL0     H55076   4.545   0.966   5.110  2.3787  0.3296  0.6108
  408MOL0     H55077   4.644   0.980   5.249 -0.0159 -0.9078  2.1257
  408MOL0     H55078   4.398   1.276   5.365  0.0052  1.5734 -3.1036
  408MOL0     H55079   4.586   0.648   4.881  0.0997 -0.1470  0.2088
  408MOL0     H55080   4.638   0.521   4.677  0.2533 -4.0620 -1.5759
  409MOL0     O55081   1.279   9.673   3.685  0.0485  0.1879  0.1999
  409MOL0     C55082   1.176   9.627   3.637  0.2844  0.1362 -0.1826
  409MOL0     O55083   1.064   9.598   3.711  1.0412 -0.2004  0.0517
  409MOL0     C55084   1.050   9.615   3.843  0.4481 -0.0464  0.2805
  409MOL0     C55085   0.961   9.709   3.899 -0.0974 -0.9155 -1.1966
  409MOL0     C55086   0.944   9.713   4.043  0.1065 -0.1984 -0.0686
  409MOL0     C55087   1.028   9.630   4.120  0.8530  0.2154  0.6011
  409MOL0     O55088   1.012   9.644   4.262 -0.4646 -0.4471  0.3059
  409MOL0     C55089   1.113   9.606   4.355  0.6436  0.4226  0.0753
  409MOL0     C55090   1.060   9.479   4.422 -0.3443  0.0389 -0.1234
  409MOL0     C55091   1.136   9.344   4.407  0.2545 -0.1748  0.1986
  409MOL0     C55092   1.043   9.233   4.465 -0.1210  0.5068  0.2247
  409MOL0     C55093   1.116   9.097   4.475 -0.0453  0.2335 -0.1865
  409MOL0     C55094   1.030   8.984   4.530  0.0959 -0.6092 -0.5127
  409MOL0     C55095   1.093   8.848   4.508  0.0498  0.4776  0.8848
  409MOL0     C55096   1.238   8.841   4.559 -0.6263 -0.6196 -0.6270
  409MOL0     N55097   1.337   8.807   4.457 -0.1256 -0.3146  0.1799
  409MOL0     C55098   1.413   8.893   4.391 -0.5531 -0.3749 -0.3618
  409MOL0     C55099   1.484   8.813   4.309  0.8372 -0.6726  0.0356
  409MOL0     C55100   1.579   8.870   4.204  0.2097 -0.6898 -0.4770
  409MOL0     C55101   1.688   8.781   4.160 -0.0317  0.5911  0.2388
  409MOL0     C55102   1.656   8.662   4.069 -0.3961  0.3396  0.3520
  409MOL0     C55103   1.749   8.653   3.950 -0.4835  0.6588 -0.7701
  409MOL0     O55104   1.737   8.777   3.877  0.2791  0.2461  0.1954
  409MOL0     C55105   1.782   8.762   3.747 -0.8306 -0.2239  0.0241
  409MOL0     C55106   1.893   8.682   3.705  0.7110  0.1239  0.4897
  409MOL0     C55107   1.930   8.675   3.565 -0.2837 -0.5499 -0.0516
  409MOL0     C55108   2.067   8.611   3.534  0.8427 -1.3700 -0.0842
  409MOL0     C55109   1.852   8.740   3.465 -0.3265  0.0165  0.5312
  409MOL0     C55110   1.880   8.733   3.321 -0.3425 -0.2415  0.2490
  409MOL0     O55111   1.962   8.630   3.276 -0.1835  0.7002 -0.5046
  409MOL0     C55112   2.015   8.640   3.149 -0.3688  0.2713  0.2841
  409MOL0     C55113   1.997   8.546   3.049  0.5500  0.7438 -1.1584
  409MOL0     C55114   2.069   8.554   2.928  0.2879  1.3989  0.2832
  409MOL0     C55115   2.154   8.661   2.891 -0.3944 -0.1273 -0.4650
  409MOL0     O55116   2.224   8.665   2.771  0.0787 -0.2930 -0.0874
  409MOL0     C55117   2.273   8.786   2.730 -1.3823 -0.9102  0.2315
  409MOL0     C55118   2.340   8.772   2.595  1.2043 -0.2830  0.0802
  409MOL0     C55119   2.406   8.898   2.546  0.3009 -0.5840  0.3260
  409MOL0     C55120   2.491   8.861   2.416 -0.2401 -0.0347  0.1163
  409MOL0     C55121   2.414   8.816   2.299  0.0817  0.3789  0.1858
  409MOL0     C55122   2.511   8.733   2.213 -0.4103  0.8366  0.1142
  409MOL0     C55123   2.445   8.718   2.080  0.2953  0.4797  0.3053
  409MOL0     C55124   2.507   8.600   2.003  0.3884  0.2416  0.3598
  409MOL0    Cl55125   2.652   8.662   1.919 -0.1361  0.0548 -0.3129
  409MOL0     C55126   2.157   8.767   2.991  0.0497  0.2331 -0.3972
  409MOL0     C55127   2.092   8.753   3.118 -0.4199  0.5833  0.4969
  409MOL0     O55128   1.831   8.824   3.247  0.0645  0.3866 -0.3876
  409MOL0     C55129   1.738   8.822   3.511  0.4822  0.7729 -0.6033
  409MOL0     C55130   1.711   8.830   3.646  0.2930  0.3884  0.7802
  409MOL0     N55131   1.456   8.683   4.327  0.1401  0.7215 -0.0311
  409MOL0     N55132   1.362   8.683   4.418 -0.1009  0.5739 -0.3527
  409MOL0     C55133   1.116   9.539   4.062  0.8164  0.1116  0.6125
  409MOL0     C55134   1.126   9.542   3.920 -0.4620  0.1335 -0.5548
  409MOL0     C55135   1.177   9.590   3.498 -0.8302  0.5549  0.2329
  409MOL0     C55136   1.083   9.495   3.449 -0.1344  0.3185  0.0488
  409MOL0     C55137   1.097   9.444   3.317  0.4377 -0.6049  0.3114
  409MOL0     C55138   1.195   9.485   3.231  0.1268  0.1328 -0.2985
  409MOL0     O55139   1.209   9.420   3.109 -0.3871 -0.3593  0.3648
  409MOL0     C55140   1.253   9.281   3.119  0.2389 -0.1311 -1.1566
  409MOL0     C55141   1.264   9.201   2.989 -0.2021  0.0136 -0.1762
  409MOL0     C55142   1.131   9.205   2.911 -0.4160  0.6740  0.2610
  409MOL0     C55143   1.062   9.074   2.905 -0.0567  1.4072  0.5745
  409MOL0     C55144   1.033   9.017   3.042 -0.1728  0.3676 -0.7120
  409MOL0     C55145   1.027   8.979   3.157 -0.0788 -0.0319  0.0813
  409MOL0     C55146   1.288   9.576   3.278  0.4267  0.1304  0.6345
  409MOL0     C55147   1.277   9.631   3.405 -0.9154 -1.1344 -0.1181
  409MOL0     H55148   0.900   9.771   3.834  0.7651  0.8400 -0.4205
  409MOL0     H55149   0.865   9.759   4.102 -0.3858 -1.2645  0.1380
  409MOL0     H55150   1.209   9.582   4.309  2.2749 -1.5560  4.0486
  409MOL0     H55151   1.130   9.677   4.437  2.6485 -1.8749  1.7944
  409MOL0     H55152   1.046   9.493   4.529  1.2479 -3.9128  0.7428
  409MOL0     H55153   0.964   9.457   4.375 -0.9897  0.0833  1.1381
  409MOL0     H55154   1.155   9.324   4.301  2.4516  0.4865  0.4319
  409MOL0     H55155   1.236   9.357   4.449  0.8471 -0.2594 -1.1427
  409MOL0     H55156   0.994   9.267   4.557 -2.5116 -2.2318  0.0898
  409MOL0     H55157   0.970   9.221   4.384  2.0683  2.1066 -2.1598
  409MOL0     H55158   1.176   9.073   4.387  1.6148  0.6878  0.7923
  409MOL0     H55159   1.193   9.113   4.550  0.0206  0.8039 -0.3687
  409MOL0     H55160   1.014   9.000   4.637 -2.7293 -0.5686 -0.8835
  409MOL0     H55161   0.940   8.971   4.470  1.0614 -1.3871 -1.8361
  409MOL0     H55162   1.038   8.772   4.564 -1.9172  1.4614  0.3795
  409MOL0     H55163   1.083   8.818   4.403  0.1964 -1.0242  1.2783
  409MOL0     H55164   1.250   8.757   4.628 -3.3211 -0.6694 -0.0948
  409MOL0     H55165   1.271   8.931   4.612 -0.7485 -0.8985 -0.0710
  409MOL0     H55166   1.417   9.001   4.391 -1.7618 -0.3031  1.5241
  409MOL0     H55167   1.527   8.917   4.121 -0.7514 -0.4057  0.2695
  409MOL0     H55168   1.620   8.954   4.262 -3.5884 -0.8871  2.9489
  409MOL0     H55169   1.746   8.744   4.245 -1.0663  1.5401  1.4076
  409MOL0     H55170   1.758   8.848   4.110  1.4312 -0.4084  0.8803
  409MOL0     H55171   1.551   8.661   4.036 -0.1520  2.4318 -0.6387
  409MOL0     H55172   1.684   8.577   4.131  1.9611  0.7269 -0.0928
  409MOL0     H55173   1.745   8.560   3.894  3.8810 -3.0096  4.0973
  409MOL0     H55174   1.850   8.655   3.991 -0.3309  1.3424 -1.1648
  409MOL0     H55175   1.959   8.629   3.772 -1.9274 -3.2723  0.6825
  409MOL0     H55176   2.127   8.621   3.625 -0.7721  3.3295  0.7862
  409MOL0     H55177   2.064   8.505   3.511  1.0186 -2.3755  3.8142
  409MOL0     H55178   2.117   8.672   3.458  0.7452 -2.0957 -0.7344
  409MOL0     H55179   1.926   8.468   3.075  0.5987  1.0291 -0.1540
  409MOL0     H55180   2.045   8.479   2.853  0.5447  1.2382  0.3629
  409MOL0     H55181   2.199   8.866   2.721 -0.1829  0.2405  0.2794
  409MOL0     H55182   2.359   8.816   2.791 -0.9004 -0.8716 -0.4560
  409MOL0     H55183   2.411   8.690   2.610  0.7742 -0.5489  0.7310
  409MOL0     H55184   2.248   8.752   2.540 -0.7674  2.9018  1.8714
  409MOL0     H55185   2.468   8.941   2.626 -2.7156  0.5220  2.2366
  409MOL0     H55186   2.337   8.980   2.525 -2.1047 -2.3288  1.0221
  409MOL0     H55187   2.560   8.941   2.390 -0.9240  0.6935  0.4850
  409MOL0     H55188   2.562   8.780   2.435 -0.5880 -0.9146 -2.0060
  409MOL0     H55189   2.379   8.904   2.245 -1.0553 -1.1144 -1.6691
  409MOL0     H55190   2.315   8.775   2.322 -1.6008  2.6337 -2.4194
  409MOL0     H55191   2.611   8.775   2.207  0.2390 -0.4475  1.2972
  409MOL0     H55192   2.540   8.640   2.263 -0.7424 -0.3644 -1.8394
  409MOL0     H55193   2.460   8.811   2.025  4.0763  0.7115  1.4775
  409MOL0     H55194   2.336   8.705   2.091  0.3709  0.0290  0.5421
  409MOL0     H55195   2.440   8.574   1.920 -0.8450 -0.6061  1.5640
  409MOL0     H55196   2.532   8.514   2.065 -2.7637  1.1488  3.1879
  409MOL0     H55197   2.207   8.864   2.986 -3.7621  2.4719  0.9788
  409MOL0     H55198   2.095   8.821   3.202  2.4782  0.6557  0.4256
  409MOL0     H55199   1.681   8.879   3.439 -1.3230  1.0667  0.9808
  409MOL0     H55200   1.633   8.900   3.674 -0.9575 -0.4777 -0.3835
  409MOL0     H55201   1.172   9.467   4.121  3.6590  2.0332  0.4662
  409MOL0     H55202   1.192   9.476   3.865 -1.0451  0.8059 -2.1304
  409MOL0     H55203   1.008   9.459   3.519  0.2772 -0.1873  0.2374
  409MOL0     H55204   1.041   9.362   3.272  1.3483 -1.2317  0.2938
  409MOL0     H55205   1.351   9.283   3.168  0.0718  1.3126 -0.8589
  409MOL0     H55206   1.188   9.225   3.188  1.9255 -0.8827 -0.1008
  409MOL0     H55207   1.292   9.097   3.007  0.5440  0.3719  0.8347
  409MOL0     H55208   1.343   9.244   2.926 -1.7029  1.4211 -1.1605
  409MOL0     H55209   1.161   9.229   2.808  0.3125 -1.4490 -0.0770
  409MOL0     H55210   1.061   9.283   2.940 -2.5598  0.8864 -4.4757
  409MOL0     H55211   1.127   9.006   2.848  1.6343  0.8698  3.0167
  409MOL0     H55212   0.972   9.092   2.845  0.6240  1.6370 -0.4157
  409MOL0     H55213   1.014   8.956   3.260 -2.5979  0.6632 -0.0143
  409MOL0     H55214   1.378   9.607   3.225  0.7861  0.9353  1.6871
  409MOL0     H55215   1.351   9.701   3.442  0.7753 -3.4044  1.0776
  410MOL0     O55216   7.767   8.980   6.547 -0.3050 -0.8578  0.2613
  410MOL0     C55217   7.773   9.017   6.663  0.5265  0.5051  0.3773
  410MOL0     O55218   7.833   9.130   6.712 -0.6225 -0.1453 -0.3167
  410MOL0     C55219   7.881   9.234   6.640 -0.2833  0.1179 -1.0920
  410MOL0     C55220   7.823   9.292   6.528  0.1440 -0.0306 -0.2368
  410MOL0     C55221   7.881   9.416   6.484  1.2114  0.0362  0.7203
  410MOL0     C55222   7.994   9.485   6.542  0.5026  0.1465 -0.2750
  410MOL0     O55223   8.045   9.599   6.485  0.4901 -0.0001  0.0877
  410MOL0     C55224   8.117   9.683   6.581  1.1227 -0.6210 -0.0114
  410MOL0     C55225   8.270   9.682   6.561 -0.7009  0.4198 -0.2432
  410MOL0     C55226   8.343   9.782   6.658  0.3243  0.3310  0.1383
  410MOL0     C55227   8.490   9.774   6.615 -0.2893  0.0921  0.1573
  410MOL0     C55228   8.586   9.838   6.718 -0.0493 -0.2077  0.5140
  410MOL0     C55229   8.549   9.979   6.761 -0.0740 -0.1814  0.1879
  410MOL0     C55230   8.647  10.044   6.847  0.0180  0.7430  0.1007
  410MOL0     C55231   8.599  10.189   6.887  0.3907 -0.3699 -0.2278
  410MOL0     N55232   8.700  10.259   6.977 -0.1954  0.7343 -0.6454
  410MOL0     C55233   8.702  10.253   7.114 -0.7170 -0.7275 -0.3524
  410MOL0     C55234   8.770  10.364   7.152  0.1334  0.0994 -0.6804
  410MOL0     C55235   8.804  10.398   7.293  0.1611  0.2506 -0.0333
  410MOL0     C55236   8.706  10.487   7.363  0.1499  0.4743 -0.1484
  410MOL0     C55237   8.590  10.397   7.420  0.0262  0.1471  0.2203
  410MOL0     C55238   8.486  10.502   7.465  1.0665 -0.2099 -0.3124
  410MOL0     O55239   8.421  10.589   7.371  0.0049  0.2115 -0.0160
  410MOL0     C55240   8.337  10.673   7.434  0.8226  1.3645  0.3213
  410MOL0     C55241   8.252  10.741   7.345 -0.5996 -0.0220  0.1935
  410MOL0     C55242   8.166  10.851   7.388  0.5318  0.2533  1.2994
  410MOL0     C55243   8.094  10.933   7.282 -0.1427  0.6528  0.1849
  410MOL0     C55244   8.165  10.883   7.519 -0.6783 -0.0257  0.4842
  410MOL0     C55245   8.067  10.992   7.574 -0.7168 -0.0932  0.6612
  410MOL0     O55246   7.941  11.010   7.520 -0.3384  0.1762  0.3713
  410MOL0     C55247   7.874  11.115   7.574  0.1876  0.1092  0.4898
  410MOL0     C55248   7.878  11.244   7.508  0.1711 -0.2035  0.4128
  410MOL0     C55249   7.795  11.348   7.555  0.9443  0.9249  0.4557
  410MOL0     C55250   7.728  11.322   7.675 -0.0927 -0.3646  0.1106
  410MOL0     O55251   7.648  11.408   7.746  0.1161  0.9281  0.2811
  410MOL0     C55252   7.625  11.543   7.688 -0.4889 -0.7647 -0.3362
  410MOL0     C55253   7.733  11.640   7.742  0.5650  0.5304  1.2549
  410MOL0     C55254   7.744  11.624   7.896  0.5692  0.0269  0.2704
  410MOL0     C55255   7.829  11.724   7.957  0.3872  0.9002  0.3580
  410MOL0     C55256   7.801  11.728   8.110 -0.5282  0.2301  0.2560
  410MOL0     C55257   7.870  11.848   8.173 -0.0256 -0.2503 -1.1356
  410MOL0     C55258   8.020  11.849   8.161  0.0678  0.4846 -0.3497
  410MOL0     C55259   8.077  11.945   8.049 -0.0849 -0.7437 -0.4838
  410MOL0    Cl55260   8.020  12.111   8.048  0.0201 -0.0821 -0.0914
  410MOL0     C55261   7.744  11.207   7.751 -0.0814  0.0833  0.0623
  410MOL0     C55262   7.806  11.101   7.690 -0.3540 -0.0840 -0.0158
  410MOL0     O55263   8.116  11.061   7.665 -0.6391 -0.4788 -0.4562
  410MOL0     C55264   8.262  10.820   7.606  0.3557  0.0109 -1.2180
  410MOL0     C55265   8.339  10.711   7.568 -0.1860  1.1129 -0.0402
  410MOL0     N55266   8.816  10.423   7.044 -0.2478 -0.7066 -0.0301
  410MOL0     N55267   8.763  10.370   6.937 -0.9962 -0.4028  0.0363
  410MOL0     C55268   8.060   9.408   6.636  0.7031 -0.1236 -0.4334
  410MOL0     C55269   7.998   9.289   6.687  1.0053 -0.4136  0.2891
  410MOL0     C55270   7.713   8.938   6.771 -0.7878 -0.2050 -0.1716
  410MOL0     C55271   7.769   8.934   6.902 -0.0196 -0.7019  0.5381
  410MOL0     C55272   7.706   8.858   7.006  0.1763 -0.2681  0.0769
  410MOL0     C55273   7.586   8.786   6.975  0.7807 -0.0334  0.4871
  410MOL0     O55274   7.511   8.708   7.058 -0.0601 -0.3717  0.0332
  410MOL0     C55275   7.535   8.733   7.198 -0.3599 -0.0257 -0.4774
  410MOL0     C55276   7.422   8.663   7.274 -0.3200  0.7074 -1.1457
  410MOL0     C55277   7.436   8.508   7.281 -0.3744  0.6359 -0.1387
  410MOL0     C55278   7.308   8.451   7.353  0.5723  0.3043 -0.2505
  410MOL0     C55279   7.276   8.511   7.488 -0.6438 -1.2621 -0.5332
  410MOL0     C55280   7.263   8.568   7.600 -0.4964 -1.1527 -0.0084
  410MOL0     C55281   7.541   8.782   6.844  1.2867  0.0135 -0.3512
  410MOL0     C55282   7.593   8.861   6.745  0.2580 -1.4679 -0.5148
  410MOL0     H55283   7.733   9.255   6.481 -1.0342  0.7617  1.3030
  410MOL0     H55284   7.838   9.444   6.389 -2.2178 -0.0343  2.0843
  410MOL0     H55285   8.077   9.784   6.568  2.1111 -0.2309 -0.1133
  410MOL0     H55286   8.088   9.649   6.680 -3.9116 -0.7415 -1.2270
  410MOL0     H55287   8.298   9.579   6.587 -0.3430  0.7690  0.8392
  410MOL0     H55288   8.280   9.697   6.453 -1.5670  0.3482 -0.3395
  410MOL0     H55289   8.306   9.885   6.654 -1.2547 -0.1304  1.5906
  410MOL0     H55290   8.339   9.753   6.764  1.5607  3.1981  1.0667
  410MOL0     H55291   8.506   9.666   6.602 -0.4615  0.0712  0.1115
  410MOL0     H55292   8.502   9.815   6.514  0.1191 -2.7473 -1.0409
  410MOL0     H55293   8.580   9.781   6.812 -0.0881  0.1977  0.7575
  410MOL0     H55294   8.691   9.832   6.686  0.4748  0.9802  1.8784
  410MOL0     H55295   8.546  10.041   6.671 -0.6141  1.0066  1.0087
  410MOL0     H55296   8.457   9.983   6.819 -0.3984 -1.1882 -0.2210
  410MOL0     H55297   8.662   9.988   6.940 -1.5774  2.3105  1.3884
  410MOL0     H55298   8.744  10.053   6.798 -1.3595  2.9954 -2.4391
  410MOL0     H55299   8.502  10.189   6.936  0.4268  3.3104  0.0941
  410MOL0     H55300   8.583  10.258   6.804  3.5298  0.1942 -0.4895
  410MOL0     H55301   8.651  10.185   7.181 -0.4843  1.3864  2.1747
  410MOL0     H55302   8.810  10.306   7.352 -0.0061 -0.4610 -1.1006
  410MOL0     H55303   8.896  10.457   7.286 -0.8145  1.7760 -0.3993
  410MOL0     H55304   8.658  10.557   7.294 -1.3377 -1.0033 -0.6965
  410MOL0     H55305   8.744  10.558   7.437  0.3533 -0.2604  0.4669
  410MOL0     H55306   8.624  10.335   7.503 -1.5111 -1.3716 -0.2149
  410MOL0     H55307   8.547  10.324   7.351  1.0507  1.5497 -2.0057
  410MOL0     H55308   8.548  10.556   7.538  1.0861 -1.3409  0.5511
  410MOL0     H55309   8.405  10.457   7.524 -0.2343 -0.0522 -1.9201
  410MOL0     H55310   8.263  10.706   7.243 -3.8610 -2.6532  0.5697
  410MOL0     H55311   8.099  11.041   7.303 -2.1713  0.4418  2.1456
  410MOL0     H55312   8.143  10.920   7.185 -1.1611  3.0254 -0.7413
  410MOL0     H55313   7.989  10.904   7.277  0.5241 -2.5201  2.1459
  410MOL0     H55314   7.944  11.263   7.424  2.1381  3.8183  2.5727
  410MOL0     H55315   7.796  11.443   7.503  2.0727  0.6061 -0.1532
  410MOL0     H55316   7.625  11.533   7.579  0.3576  0.5533 -0.4665
  410MOL0     H55317   7.531  11.579   7.730  1.1762  1.5841  1.5987
  410MOL0     H55318   7.829  11.612   7.697 -0.0897  2.9361 -1.9724
  410MOL0     H55319   7.709  11.742   7.711  2.0039  0.9940  1.5670
  410MOL0     H55320   7.778  11.523   7.923 -1.5247 -0.3164  1.9367
  410MOL0     H55321   7.639  11.627   7.927 -0.0643 -1.6433 -1.4976
  410MOL0     H55322   7.933  11.698   7.936 -0.1801 -2.3891  1.0734
  410MOL0     H55323   7.819  11.827   7.923 -0.4359  0.9327  0.6710
  410MOL0     H55324   7.834  11.642   8.168  0.1586  1.8878  2.4562
  410MOL0     H55325   7.695  11.734   8.133 -1.0986 -1.9534 -1.4922
  410MOL0     H55326   7.834  11.945   8.137 -0.0764  0.8982  1.7631
  410MOL0     H55327   7.850  11.845   8.280 -0.9306  2.6949 -1.1099
  410MOL0     H55328   8.059  11.749   8.138 -2.4106 -1.4577  3.0132
  410MOL0     H55329   8.069  11.880   8.254  0.7001  0.7058 -0.7541
  410MOL0     H55330   8.068  11.892   7.954  2.7173 -0.2839 -1.1123
  410MOL0     H55331   8.186  11.943   8.050 -0.0889 -2.0196  0.7895
  410MOL0     H55332   7.709  11.203   7.854 -1.8849  0.8817 -0.4779
  410MOL0     H55333   7.806  11.005   7.739  2.0140  0.9119  2.1283
  410MOL0     H55334   8.256  10.849   7.711 -2.0388 -1.5425 -0.8263
  410MOL0     H55335   8.397  10.668   7.648 -0.5899  0.7068  0.0378
  410MOL0     H55336   8.150   9.441   6.685 -0.4596  2.6463  0.0086
  410MOL0     H55337   8.045   9.238   6.771 -0.0763  0.9082  1.7838
  410MOL0     H55338   7.863   8.987   6.915 -0.3430 -0.1026  0.4973
  410MOL0     H55339   7.757   8.859   7.102  0.9851  2.5012 -0.3012
  410MOL0     H55340   7.635   8.702   7.231 -1.5254 -2.7472  0.8277
  410MOL0     H55341   7.518   8.840   7.207 -1.0402 -0.2411  0.9753
  410MOL0     H55342   7.328   8.687   7.223  0.0878  1.1138 -1.7221
  410MOL0     H55343   7.410   8.709   7.372 -2.5641 -1.1698 -0.4346
  410MOL0     H55344   7.526   8.477   7.335 -0.8035  0.5996  0.5724
  410MOL0     H55345   7.437   8.469   7.179  1.2570  1.0655 -0.3197
  410MOL0     H55346   7.333   8.345   7.363 -0.1328  0.1698  0.1238
  410MOL0     H55347   7.225   8.470   7.284 -0.3006  2.0975  1.1934
  410MOL0     H55348   7.242   8.606   7.698  0.5314  1.4786 -0.7208
  410MOL0     H55349   7.453   8.721   6.825  0.2815  2.2312 -3.8810
  410MOL0     H55350   7.541   8.856   6.650 -1.1668 -1.6969  0.2571
  411MOL0     O55351   3.659   5.867   5.209  0.8931  0.9458 -0.5554
  411MOL0     C55352   3.703   5.754   5.256  0.4304 -0.6088  0.4445
  411MOL0     O55353   3.628   5.659   5.319  0.9732 -0.7810  0.4080
  411MOL0     C55354   3.492   5.682   5.319  0.3362  0.3656 -0.1709
  411MOL0     C55355   3.418   5.645   5.216  0.1288 -1.3301  0.7372
  411MOL0     C55356   3.285   5.677   5.210  0.0693  0.1641  0.3171
  411MOL0     C55357   3.216   5.736   5.320  0.2640 -0.0682  0.5067
  411MOL0     O55358   3.083   5.755   5.311  0.5072 -0.4845  0.1624
  411MOL0     C55359   3.020   5.811   5.427 -0.3086 -0.3933 -0.0825
  411MOL0     C55360   2.868   5.788   5.406 -0.6599 -0.5245  0.7031
  411MOL0     C55361   2.806   5.917   5.360 -0.0439 -0.5773  0.2182
  411MOL0     C55362   2.811   6.039   5.463 -0.6781  0.8897  0.3328
  411MOL0     C55363   2.700   6.128   5.418  0.7588  0.1742  0.4228
  411MOL0     C55364   2.731   6.269   5.474 -0.7397 -0.3701 -0.4489
  411MOL0     C55365   2.598   6.348   5.490 -0.5974  0.3688  0.9233
  411MOL0     C55366   2.538   6.397   5.359  0.7518 -0.1527  0.0136
  411MOL0     N55367   2.473   6.292   5.281 -0.6193 -0.5050  0.3313
  411MOL0     C55368   2.361   6.225   5.318  1.0208  0.4636  0.4451
  411MOL0     C55369   2.353   6.132   5.222 -0.0248 -0.3498  0.1708
  411MOL0     C55370   2.249   6.031   5.189  0.3031 -0.2089  1.4086
  411MOL0     C55371   2.237   5.902   5.273  0.3179 -0.1856 -0.0356
  411MOL0     C55372   2.357   5.810   5.274 -0.7232  0.1157  0.3042
  411MOL0     C55373   2.391   5.773   5.125 -0.0132  0.3093 -0.1092
  411MOL0     O55374   2.278   5.712   5.066  0.8676  1.6029  0.0991
  411MOL0     C55375   2.295   5.620   4.961  0.1586  0.3765  0.3361
  411MOL0     C55376   2.201   5.532   4.926 -0.0144  0.2932 -0.1854
  411MOL0     C55377   2.224   5.430   4.839 -0.2391 -0.5701  0.1213
  411MOL0     C55378   2.106   5.337   4.786  0.8738  0.2286  0.6440
  411MOL0     C55379   2.350   5.402   4.793 -0.0214  0.1490  0.5716
  411MOL0     C55380   2.372   5.274   4.713  0.6006 -0.3836 -0.7330
  411MOL0     O55381   2.426   5.164   4.782  0.5504  0.5266 -1.0281
  411MOL0     C55382   2.447   5.058   4.697 -0.7756  0.0026  0.6960
  411MOL0     C55383   2.365   4.949   4.690 -0.0604  0.3019  0.0555
  411MOL0     C55384   2.402   4.840   4.608  0.0527 -0.3613 -0.1535
  411MOL0     C55385   2.512   4.836   4.527 -0.3280 -0.8458 -0.0526
  411MOL0     O55386   2.546   4.736   4.435 -0.3493  0.5435 -0.5270
  411MOL0     C55387   2.442   4.703   4.337  0.2005 -0.1045 -0.8904
  411MOL0     C55388   2.327   4.601   4.372  0.0154 -1.2899  0.9641
  411MOL0     C55389   2.277   4.527   4.250  0.3089 -0.4430  0.0156
  411MOL0     C55390   2.181   4.610   4.170  1.2948  0.2236 -0.0469
  411MOL0     C55391   2.144   4.564   4.030 -0.6970  0.0613  1.1723
  411MOL0     C55392   2.015   4.640   3.970  0.8391  0.7202 -0.2685
  411MOL0     C55393   1.983   4.587   3.836 -0.4301 -0.6877  0.8873
  411MOL0     C55394   1.876   4.652   3.760 -0.2317  0.2555 -0.3524
  411MOL0    Cl55395   1.724   4.668   3.860  0.3153  0.0341  0.4524
  411MOL0     C55396   2.602   4.941   4.536 -0.0393  0.0764 -0.0256
  411MOL0     C55397   2.567   5.053   4.621 -0.8440  0.2657  0.2278
  411MOL0     O55398   2.351   5.277   4.590 -0.2373  0.1799 -0.5919
  411MOL0     C55399   2.448   5.503   4.805 -0.7357  0.7345  0.4436
  411MOL0     C55400   2.420   5.614   4.891  1.3460 -0.4983 -0.5341
  411MOL0     N55401   2.465   6.138   5.133 -0.1310  0.3158  0.1000
  411MOL0     N55402   2.530   6.241   5.165 -0.2834 -0.0741  0.0334
  411MOL0     C55403   3.301   5.780   5.428  1.1054  0.0327 -0.9575
  411MOL0     C55404   3.430   5.753   5.429 -0.9480  0.7789 -0.2281
  411MOL0     C55405   3.852   5.730   5.246  1.2021 -0.1642 -1.3848
  411MOL0     C55406   3.942   5.830   5.216  0.2821 -0.3429  0.3345
  411MOL0     C55407   4.082   5.807   5.214 -0.5559  0.3405  0.7709
  411MOL0     C55408   4.139   5.678   5.223  0.7376 -0.0356  0.8202
  411MOL0     O55409   4.271   5.635   5.233  0.1002 -0.9225 -0.0057
  411MOL0     C55410   4.351   5.738   5.184 -0.9412 -0.4111  0.2710
  411MOL0     C55411   4.496   5.694   5.189 -0.2317 -0.2642 -0.4972
  411MOL0     C55412   4.520   5.561   5.108  0.2338 -0.3392  1.2691
  411MOL0     C55413   4.499   5.576   4.953  0.1732 -1.2222 -0.2403
  411MOL0     C55414   4.516   5.453   4.871 -0.6643  0.2708 -0.4779
  411MOL0     C55415   4.528   5.358   4.804 -0.3325 -0.1749  1.5302
  411MOL0     C55416   4.046   5.582   5.240 -0.3186  0.4033 -0.4560
  411MOL0     C55417   3.902   5.605   5.253 -0.3898  0.3929 -0.9063
  411MOL0     H55418   3.469   5.593   5.135  2.2593  2.7416 -0.8588
  411MOL0     H55419   3.233   5.641   5.122  2.2837 -0.6890 -0.7132
  411MOL0     H55420   3.035   5.740   5.508 -2.1249 -0.2087  0.4768
  411MOL0     H55421   3.061   5.910   5.449  0.2018 -1.1510  2.7719
  411MOL0     H55422   2.858   5.706   5.334  2.9062 -0.1748 -0.4270
  411MOL0     H55423   2.823   5.749   5.497  0.8005 -0.0650  1.6632
  411MOL0     H55424   2.864   5.922   5.267  0.8159 -5.3077  0.2484
  411MOL0     H55425   2.703   5.887   5.341  0.1794 -0.9599 -0.4188
  411MOL0     H55426   2.788   5.996   5.560 -3.3313 -2.0755 -1.4131
  411MOL0     H55427   2.905   6.096   5.469 -0.8656  1.0557  2.0393
  411MOL0     H55428   2.699   6.140   5.309 -2.3557 -0.2887  0.3281
  411MOL0     H55429   2.602   6.087   5.441  0.0001  2.2032  1.0792
  411MOL0     H55430   2.779   6.258   5.572 -1.3669  1.2246  0.0718
  411MOL0     H55431   2.799   6.312   5.400 -0.9120 -1.1703 -1.0834
  411MOL0     H55432   2.528   6.285   5.545 -1.5572 -1.1207 -1.8093
  411MOL0     H55433   2.625   6.442   5.540  2.2419 -0.3786  0.9613
  411MOL0     H55434   2.610   6.450   5.297  1.4401  0.4046  1.2456
  411MOL0     H55435   2.454   6.457   5.399 -0.0908 -2.5800  2.1893
  411MOL0     H55436   2.282   6.234   5.392 -0.0032  2.6840 -0.8032
  411MOL0     H55437   2.152   6.080   5.203  1.3055  2.4313 -0.1607
  411MOL0     H55438   2.246   6.002   5.084 -0.6417  1.4119  0.9524
  411MOL0     H55439   2.149   5.847   5.239 -1.4922  0.4894  3.1408
  411MOL0     H55440   2.224   5.921   5.380 -0.4838  0.2580 -0.2034
  411MOL0     H55441   2.330   5.720   5.330 -2.9213 -0.1400 -1.0522
  411MOL0     H55442   2.447   5.844   5.325 -1.6385  0.0629  2.0278
  411MOL0     H55443   2.474   5.701   5.129 -1.5744 -1.5378  0.2926
  411MOL0     H55444   2.417   5.859   5.063  1.8384 -0.1959 -0.0990
  411MOL0     H55445   2.106   5.553   4.975 -1.4243 -2.1570 -1.6663
  411MOL0     H55446   2.140   5.234   4.803  2.9420  1.1378  2.4274
  411MOL0     H55447   2.015   5.362   4.840 -0.4254  0.5036 -1.5283
  411MOL0     H55448   2.081   5.352   4.680 -0.5879 -1.8422  0.6331
  411MOL0     H55449   2.280   4.965   4.756  0.7247  6.1369  0.1884
  411MOL0     H55450   2.334   4.757   4.592 -0.8362  0.2978  0.1588
  411MOL0     H55451   2.401   4.799   4.304 -1.8992 -1.4441 -2.3603
  411MOL0     H55452   2.499   4.671   4.250  0.9685 -2.4391  0.3834
  411MOL0     H55453   2.377   4.524   4.432 -1.7719 -3.0378  0.3412
  411MOL0     H55454   2.249   4.650   4.432  1.3005  2.8370 -0.4098
  411MOL0     H55455   2.227   4.436   4.285 -2.8904  0.8239 -0.9376
  411MOL0     H55456   2.364   4.490   4.195  1.3928 -0.7642  1.8278
  411MOL0     H55457   2.090   4.623   4.228  1.1354 -0.9941  0.0139
  411MOL0     H55458   2.229   4.708   4.174  1.0427  0.3326  4.2941
  411MOL0     H55459   2.121   4.457   4.029  0.4151 -0.2043  2.3349
  411MOL0     H55460   2.225   4.575   3.958 -1.1499 -1.6595  0.3553
  411MOL0     H55461   1.929   4.619   4.034  2.1088  0.5679  1.4612
  411MOL0     H55462   2.047   4.744   3.981  0.9406  0.7237 -0.5865
  411MOL0     H55463   1.967   4.479   3.845  3.2591 -1.2132  3.4101
  411MOL0     H55464   2.071   4.604   3.773 -1.7688  0.1279 -0.8385
  411MOL0     H55465   1.859   4.600   3.665 -1.2035 -2.5394  1.2181
  411MOL0     H55466   1.900   4.756   3.737 -1.7252  0.7046  0.0616
  411MOL0     H55467   2.686   4.940   4.468  0.0058 -1.7845  0.0021
  411MOL0     H55468   2.644   5.130   4.627 -0.2163 -0.2508 -0.8056
  411MOL0     H55469   2.545   5.504   4.756 -1.4881 -0.3050 -1.1447
  411MOL0     H55470   2.499   5.685   4.911  0.7411 -0.9135  4.6475
  411MOL0     H55471   3.258   5.823   5.518 -0.1777 -2.9592 -0.0290
  411MOL0     H55472   3.499   5.786   5.507  0.8986  0.3194 -1.5857
  411MOL0     H55473   3.918   5.936   5.213  0.4774 -0.1741  2.7953
  411MOL0     H55474   4.160   5.878   5.191  0.9692 -0.6724  2.5067
  411MOL0     H55475   4.313   5.769   5.086  1.6956  1.0448 -0.3819
  411MOL0     H55476   4.358   5.828   5.246  0.6133  1.2940 -2.1882
  411MOL0     H55477   4.516   5.671   5.294 -0.7472  1.1369 -0.0678
  411MOL0     H55478   4.559   5.772   5.146 -0.4427 -0.5024 -1.2488
  411MOL0     H55479   4.445   5.485   5.134 -1.1664  0.8043  0.7121
  411MOL0     H55480   4.620   5.527   5.135  0.5895 -0.3881 -0.0700
  411MOL0     H55481   4.572   5.643   4.905 -0.6727  2.0248  2.5988
  411MOL0     H55482   4.398   5.611   4.933 -0.4012  0.2606  4.1188
  411MOL0     H55483   4.528   5.277   4.734  2.9561  0.9113  0.0892
  411MOL0     H55484   4.083   5.482   5.263  0.7479  0.7802 -0.4746
  411MOL0     H55485   3.838   5.520   5.271  2.3645 -1.6319 -0.0199
  412MOL0     O55486   3.386   0.202   3.046  0.1304 -0.1173  0.5819
  412MOL0     C55487   3.447   0.289   3.101  0.3349  0.0373 -0.0589
  412MOL0     O55488   3.531   0.262   3.197  0.1025  0.5509 -0.3148
  412MOL0     C55489   3.534   0.151   3.280  0.2802  0.8464  0.3369
  412MOL0     C55490   3.654   0.116   3.335  0.8647  0.9737  0.2767
  412MOL0     C55491   3.648   0.027   3.450 -0.1318 -0.4218 -1.0168
  412MOL0     C55492   3.533  -0.024   3.498 -0.5109  0.3150 -0.4952
  412MOL0     O55493   3.511  -0.112   3.602 -0.1511  0.1904 -0.6728
  412MOL0     C55494   3.622  -0.194   3.641  0.2377 -0.7683 -0.0047
  412MOL0     C55495   3.581  -0.307   3.735  0.7270 -1.0200  0.2444
  412MOL0     C55496   3.507  -0.415   3.661 -1.0550 -0.8342  1.0034
  412MOL0     C55497   3.495  -0.544   3.734  0.0845  0.2070 -0.0829
  412MOL0     C55498   3.414  -0.630   3.630 -0.7017  0.3929 -0.1780
  412MOL0     C55499   3.330  -0.725   3.706  0.2475 -0.0652  0.1428
  412MOL0     C55500   3.399  -0.844   3.787 -0.1516 -0.2941  0.1253
  412MOL0     C55501   3.318  -0.967   3.797  0.2818 -0.8186 -0.1459
  412MOL0     N55502   3.384  -1.066   3.888  1.1535 -0.3317  0.3526
  412MOL0     C55503   3.498  -1.132   3.861  0.5868  1.2142 -0.6056
  412MOL0     C55504   3.522  -1.188   3.981 -0.5230 -0.6627 -0.7770
  412MOL0     C55505   3.636  -1.288   3.993  0.2135  0.2535 -0.0689
  412MOL0     C55506   3.741  -1.235   4.084 -0.3368  0.7297 -0.3712
  412MOL0     C55507   3.852  -1.340   4.113  0.2067  0.5312 -0.7670
  412MOL0     C55508   3.914  -1.303   4.246  0.0045 -0.6794  0.0733
  412MOL0     O55509   4.019  -1.386   4.295 -0.5616  0.4612 -1.1069
  412MOL0     C55510   4.031  -1.398   4.435  0.0464 -2.0417 -1.1495
  412MOL0     C55511   4.127  -1.490   4.488  0.5108 -0.1309 -0.4139
  412MOL0     C55512   4.181  -1.472   4.621  1.1598  0.0433 -0.8020
  412MOL0     C55513   4.300  -1.557   4.662  0.9028  0.2185 -0.2254
  412MOL0     C55514   4.127  -1.373   4.703  1.4231  0.1511  0.0684
  412MOL0     C55515   4.158  -1.348   4.842 -1.2486  0.4032 -0.9502
  412MOL0     O55516   4.229  -1.235   4.876 -0.7322  0.2556 -0.5002
  412MOL0     C55517   4.325  -1.191   4.784  1.0448  0.5302 -0.7109
  412MOL0     C55518   4.294  -1.114   4.678 -0.7186 -1.0207  0.2496
  412MOL0     C55519   4.397  -1.078   4.586  0.2528 -0.4375  0.4471
  412MOL0     C55520   4.531  -1.112   4.613  0.0696  0.0073  0.1868
  412MOL0     O55521   4.624  -1.070   4.519  0.5171  0.7630 -0.8273
  412MOL0     C55522   4.625  -1.131   4.395  0.1022 -0.6064  1.2522
  412MOL0     C55523   4.771  -1.152   4.347  0.0619  0.1641  0.0549
  412MOL0     C55524   4.869  -1.030   4.376  1.1061  0.6984 -0.7821
  412MOL0     C55525   4.875  -0.929   4.263 -0.2966 -0.2033 -0.5103
  412MOL0     C55526   4.950  -0.801   4.311 -0.9072 -0.1330 -0.2570
  412MOL0     C55527   5.037  -0.746   4.194  0.0540  0.3315 -0.0177
  412MOL0     C55528   5.137  -0.645   4.236  0.7156  0.1574  0.1169
  412MOL0     C55529   5.196  -0.565   4.116  0.4721  0.1219  0.6994
  412MOL0    Cl55530   5.068  -0.467   4.040  0.3333 -0.6376 -0.2511
  412MOL0     C55531   4.560  -1.193   4.721  0.5457 -0.5804 -0.5114
  412MOL0     C55532   4.455  -1.233   4.806 -0.7740 -0.2187 -0.1966
  412MOL0     O55533   4.112  -1.423   4.925  0.4936 -0.5473 -0.3307
  412MOL0     C55534   4.019  -1.296   4.655 -0.3406  0.3999 -0.0764
  412MOL0     C55535   3.961  -1.313   4.529  0.0239  0.1767  0.0739
  412MOL0     N55536   3.430  -1.164   4.074  1.2501  0.1701  0.7319
  412MOL0     N55537   3.342  -1.088   4.010 -1.1187 -0.1652  0.7762
  412MOL0     C55538   3.416   0.013   3.429  0.0721  0.4801 -0.2265
  412MOL0     C55539   3.415   0.104   3.328 -0.1059  0.1215 -0.4638
  412MOL0     C55540   3.433   0.432   3.058 -0.0373  0.2067 -0.1214
  412MOL0     C55541   3.524   0.533   3.116 -0.4482  0.2522  0.4020
  412MOL0     C55542   3.525   0.671   3.074  0.2588 -0.0646  0.3120
  412MOL0     C55543   3.433   0.713   2.978  0.3305 -0.3274 -1.0158
  412MOL0     O55544   3.416   0.843   2.948  0.2935 -0.0693 -0.4716
  412MOL0     C55545   3.537   0.929   2.956  0.0442 -0.1914 -0.9191
  412MOL0     C55546   3.542   1.045   2.863 -0.0608 -0.5559  0.2851
  412MOL0     C55547   3.555   1.189   2.923  0.2206  0.0554  0.4245
  412MOL0     C55548   3.559   1.292   2.819 -0.1557 -0.6155  0.4866
  412MOL0     C55549   3.543   1.431   2.872  0.0288 -0.2382  0.4404
  412MOL0     C55550   3.526   1.546   2.922  0.5027  0.0526 -0.4761
  412MOL0     C55551   3.346   0.617   2.921 -0.0760 -0.2559  0.0583
  412MOL0     C55552   3.340   0.489   2.962 -0.5844  0.9540  0.4608
  412MOL0     H55553   3.747   0.163   3.307  1.8564  0.3240  2.2693
  412MOL0     H55554   3.739   0.004   3.504 -0.5317  0.8946  0.2665
  412MOL0     H55555   3.676  -0.233   3.554 -1.5091 -2.8499 -0.2506
  412MOL0     H55556   3.693  -0.130   3.693 -0.0235 -1.0542  0.7109
  412MOL0     H55557   3.677  -0.347   3.769  2.3504  0.3460 -2.3763
  412MOL0     H55558   3.514  -0.287   3.819 -3.2208  1.5222 -3.1389
  412MOL0     H55559   3.411  -0.371   3.632  0.5229 -0.4389 -4.7368
  412MOL0     H55560   3.547  -0.422   3.560 -3.3711 -0.8179  0.0157
  412MOL0     H55561   3.593  -0.591   3.753  0.2077  0.1097 -0.9318
  412MOL0     H55562   3.431  -0.539   3.823 -0.9374 -1.8935 -0.6326
  412MOL0     H55563   3.352  -0.575   3.559 -0.7264 -2.1109 -2.2670
  412MOL0     H55564   3.485  -0.685   3.567  0.0466  2.0718 -0.8402
  412MOL0     H55565   3.266  -0.678   3.781  1.2441 -1.0150  1.6281
  412MOL0     H55566   3.267  -0.766   3.626  2.2589 -0.7665 -1.1530
  412MOL0     H55567   3.496  -0.863   3.740 -0.2506  3.8805 -2.2379
  412MOL0     H55568   3.419  -0.805   3.888 -0.2901  0.3208 -0.0803
  412MOL0     H55569   3.298  -1.008   3.697 -0.3443  1.3277 -0.9740
  412MOL0     H55570   3.220  -0.942   3.840  0.8752 -1.4973  1.6724
  412MOL0     H55571   3.553  -1.153   3.771  0.4379  1.8941 -0.8623
  412MOL0     H55572   3.585  -1.374   4.038 -1.2399 -0.0832 -2.2072
  412MOL0     H55573   3.674  -1.324   3.897  0.4825 -0.4024  0.2769
  412MOL0     H55574   3.691  -1.215   4.180 -2.2560 -0.4703 -1.0476
  412MOL0     H55575   3.793  -1.146   4.050  1.8233  0.6449  2.4147
  412MOL0     H55576   3.919  -1.333   4.027 -1.9086 -1.2359 -2.7006
  412MOL0     H55577   3.812  -1.441   4.118  1.3466  0.0279 -1.4965
  412MOL0     H55578   3.828  -1.293   4.312  2.0942 -0.7180  2.9612
  412MOL0     H55579   3.953  -1.202   4.238  1.9110 -1.3827 -0.0178
  412MOL0     H55580   4.160  -1.566   4.418  1.4222  2.6714 -3.2727
  412MOL0     H55581   4.273  -1.618   4.749 -0.8879  0.2949 -0.6750
  412MOL0     H55582   4.316  -1.632   4.583 -1.8785  2.1037 -2.8181
  412MOL0     H55583   4.390  -1.496   4.674  2.7577 -2.4406  0.3809
  412MOL0     H55584   4.193  -1.093   4.645 -0.5963 -3.3030 -1.8846
  412MOL0     H55585   4.359  -1.008   4.511 -1.3376  0.8223  2.3090
  412MOL0     H55586   4.568  -1.223   4.378  0.7580 -0.6049 -1.4505
  412MOL0     H55587   4.576  -1.058   4.329  0.0013 -0.1880  1.7811
  412MOL0     H55588   4.807  -1.246   4.389 -1.0544 -0.9516 -1.3642
  412MOL0     H55589   4.771  -1.181   4.241  1.1205  1.0150 -0.1974
  412MOL0     H55590   4.973  -1.057   4.399  0.5722 -0.8084  0.0025
  412MOL0     H55591   4.842  -0.984   4.472  2.9581 -1.2583  0.7898
  412MOL0     H55592   4.922  -0.967   4.173 -0.2044  1.5756 -1.2622
  412MOL0     H55593   4.775  -0.904   4.225 -0.7588 -1.6028 -0.2791
  412MOL0     H55594   5.021  -0.827   4.391 -0.4533 -0.1324 -0.6563
  412MOL0     H55595   4.900  -0.716   4.359  4.0736  3.7059 -0.9924
  412MOL0     H55596   5.089  -0.832   4.150 -0.5056 -0.3624  0.6571
  412MOL0     H55597   4.963  -0.705   4.125  0.2511  0.7996  0.0477
  412MOL0     H55598   5.217  -0.698   4.287  1.9077  3.4369  1.9741
  412MOL0     H55599   5.098  -0.580   4.315  1.1950  2.4920 -1.4734
  412MOL0     H55600   5.249  -0.626   4.042  1.4362  0.1431  1.3619
  412MOL0     H55601   5.268  -0.488   4.144  2.4030 -0.1368 -2.8805
  412MOL0     H55602   4.657  -1.240   4.715 -0.4813 -2.6549 -4.7531
  412MOL0     H55603   4.480  -1.282   4.900 -2.2622 -0.9469 -0.1516
  412MOL0     H55604   3.958  -1.234   4.720  0.2764  0.6959  0.2220
  412MOL0     H55605   3.877  -1.250   4.504  0.6184  0.5093 -1.2053
  412MOL0     H55606   3.320  -0.024   3.465  1.9854 -1.4617  3.4030
  412MOL0     H55607   3.322   0.129   3.277  0.4708 -1.2429 -2.3115
  412MOL0     H55608   3.597   0.508   3.193 -1.3481  1.3116  1.6458
  412MOL0     H55609   3.576   0.744   3.136  1.4664  0.8323 -1.6233
  412MOL0     H55610   3.554   0.981   3.051 -0.1566  4.6059 -3.2184
  412MOL0     H55611   3.624   0.865   2.940 -1.0420 -1.6275 -1.2647
  412MOL0     H55612   3.462   1.031   2.790  0.2459 -0.1897 -0.1290
  412MOL0     H55613   3.629   1.029   2.799 -0.0503 -1.9348  0.6188
  412MOL0     H55614   3.642   1.199   2.988  0.3734  0.3110  0.1838
  412MOL0     H55615   3.474   1.192   2.997  1.2028 -2.7454  1.7473
  412MOL0     H55616   3.477   1.265   2.752 -1.4189  0.5478  1.4902
  412MOL0     H55617   3.658   1.287   2.774  0.3572  1.2699  1.2974
  412MOL0     H55618   3.524   1.642   2.969 -2.6163 -0.5566  0.9265
  412MOL0     H55619   3.273   0.662   2.855  3.2054  3.6312 -1.3287
  412MOL0     H55620   3.270   0.418   2.920  0.7807  0.0210 -0.3193
  413MOL0     O55621   3.608   7.693  11.230  0.0250 -0.0288  0.5944
  413MOL0     C55622   3.565   7.586  11.269 -0.1631  0.1809 -0.1118
  413MOL0     O55623   3.609   7.460  11.229 -0.0803  0.4068 -0.1648
  413MOL0     C55624   3.698   7.444  11.124 -0.5093  0.7910 -0.9238
  413MOL0     C55625   3.758   7.305  11.110 -0.1103 -0.5228 -0.1789
  413MOL0     C55626   3.831   7.272  11.000 -0.1255 -0.0610 -0.3583
  413MOL0     C55627   3.863   7.366  10.908 -1.4683  0.5643  0.1306
  413MOL0     O55628   3.948   7.362  10.802  0.3450 -0.0701  0.2178
  413MOL0     C55629   4.013   7.239  10.784 -0.4080  0.4780 -0.3621
  413MOL0     C55630   4.106   7.246  10.663 -0.3518  0.3418 -0.5197
  413MOL0     C55631   4.226   7.331  10.690  0.0196  0.3791  0.0232
  413MOL0     C55632   4.316   7.333  10.568 -0.8669  0.2504 -1.5125
  413MOL0     C55633   4.448   7.419  10.609 -0.2145  0.4724  0.5562
  413MOL0     C55634   4.573   7.369  10.531  0.3272  0.7500 -0.1047
  413MOL0     C55635   4.574   7.375  10.386  0.3603 -0.9748  0.0066
  413MOL0     C55636   4.658   7.267  10.317 -0.7807  0.0474  0.9417
  413MOL0     N55637   4.677   7.307  10.181  0.5660  0.5653 -0.1976
  413MOL0     C55638   4.606   7.262  10.076  0.8242  0.8690 -0.8133
  413MOL0     C55639   4.635   7.347   9.977 -0.1560 -0.0192 -0.0624
  413MOL0     C55640   4.571   7.363   9.836 -0.0273 -0.5952 -0.4236
  413MOL0     C55641   4.622   7.256   9.739 -0.0272  0.1881 -0.0985
  413MOL0     C55642   4.538   7.131   9.745  0.7286  0.3164 -0.1550
  413MOL0     C55643   4.574   7.044   9.614 -0.2733 -0.2556 -0.2237
  413MOL0     O55644   4.480   7.083   9.509  0.3215  0.4198 -0.5037
  413MOL0     C55645   4.510   7.074   9.376  0.8540  0.3493  0.2407
  413MOL0     C55646   4.394   7.113   9.306 -0.2338 -0.3340 -0.3952
  413MOL0     C55647   4.395   7.122   9.166  0.5282  0.2859 -0.2443
  413MOL0     C55648   4.269   7.181   9.101  0.7437  0.5691 -0.6550
  413MOL0     C55649   4.516   7.092   9.102 -0.8615 -0.2207  0.5297
  413MOL0     C55650   4.542   7.111   8.950 -0.1247  0.6477  0.7573
  413MOL0     O55651   4.439   7.070   8.880  0.2177 -0.6370  0.0159
  413MOL0     C55652   4.445   7.089   8.739 -0.2105 -0.3020  1.0931
  413MOL0     C55653   4.398   6.990   8.661 -0.5151 -0.0443  0.2119
  413MOL0     C55654   4.397   6.995   8.519  0.6742  0.7377  0.1175
  413MOL0     C55655   4.470   7.095   8.455  0.0984  0.5087 -0.0368
  413MOL0     O55656   4.489   7.117   8.324  0.2029  0.5532  0.2066
  413MOL0     C55657   4.434   7.023   8.233 -0.7241 -0.5421 -0.1269
  413MOL0     C55658   4.526   6.899   8.228 -0.6731  0.5175 -0.1576
  413MOL0     C55659   4.552   6.827   8.086  1.1804 -1.5156  0.5861
  413MOL0     C55660   4.629   6.933   7.987 -0.1359 -1.3988  0.1670
  413MOL0     C55661   4.644   6.885   7.844  0.1761  0.1024  0.4793
  413MOL0     C55662   4.756   6.780   7.818 -0.6629 -0.2234 -0.0092
  413MOL0     C55663   4.756   6.725   7.671  0.4958 -0.0621  0.6077
  413MOL0     C55664   4.781   6.830   7.571 -0.5784  0.1164 -0.2852
  413MOL0    Cl55665   4.789   6.769   7.399 -0.1407  0.2067 -0.2236
  413MOL0     C55666   4.532   7.196   8.533  0.0608 -0.0261 -0.1089
  413MOL0     C55667   4.521   7.190   8.674  0.0094  0.3031  0.1306
  413MOL0     O55668   4.660   7.116   8.901  0.4200  0.3363  0.0551
  413MOL0     C55669   4.632   7.063   9.180 -0.3925 -0.5371  0.7747
  413MOL0     C55670   4.629   7.047   9.318  0.2747 -0.2590  0.7954
  413MOL0     N55671   4.729   7.442  10.018 -0.0306  1.1431  0.1175
  413MOL0     N55672   4.755   7.415  10.141  0.5586 -0.1972  1.1712
  413MOL0     C55673   3.815   7.495  10.924  0.9569 -0.2274  0.5852
  413MOL0     C55674   3.738   7.537  11.023 -0.2550  0.1579 -1.3255
  413MOL0     C55675   3.469   7.601  11.378 -0.3692 -0.3824  0.2442
  413MOL0     C55676   3.461   7.717  11.456 -0.2344 -0.1585  1.2323
  413MOL0     C55677   3.353   7.729  11.539  0.2467 -0.8740  0.0459
  413MOL0     C55678   3.255   7.632  11.559 -0.1474 -0.3141  0.2575
  413MOL0     O55679   3.143   7.640  11.635  0.4070 -0.0426  0.1069
  413MOL0     C55680   3.123   7.749  11.722 -0.4135  0.6365  0.2927
  413MOL0     C55681   3.197   7.724  11.862 -0.2257 -0.1951  0.5954
  413MOL0     C55682   3.201   7.580  11.919 -0.4239  0.8620  0.0751
  413MOL0     C55683   3.084   7.471  11.887 -0.7897 -0.5695  0.3860
  413MOL0     C55684   3.115   7.339  11.950  0.5694  0.2265 -0.4094
  413MOL0     C55685   3.125   7.237  12.024  0.0351 -0.9104  0.6245
  413MOL0     C55686   3.267   7.514  11.488 -0.2983  0.7078  0.6751
  413MOL0     C55687   3.375   7.495  11.403 -0.7419 -0.2486 -0.1782
  413MOL0     H55688   3.733   7.227  11.181  1.0398 -0.7644 -0.0125
  413MOL0     H55689   3.863   7.170  10.987  0.9047 -0.1684  2.5120
  413MOL0     H55690   4.078   7.208  10.867 -0.7486  0.3626 -0.1325
  413MOL0     H55691   3.944   7.156  10.768 -0.8811  0.8528 -0.2807
  413MOL0     H55692   4.136   7.143  10.643 -0.6418 -0.1195  1.2467
  413MOL0     H55693   4.054   7.286  10.575 -0.2766 -0.1233 -0.7749
  413MOL0     H55694   4.195   7.433  10.714  0.0510  0.9233 -2.0567
  413MOL0     H55695   4.285   7.286  10.771  0.5406 -2.7789 -1.9506
  413MOL0     H55696   4.353   7.234  10.540 -0.2794 -0.4499  1.3653
  413MOL0     H55697   4.281   7.381  10.476 -1.8408 -0.8171 -1.7240
  413MOL0     H55698   4.432   7.524  10.583  0.2067  0.9614  2.1390
  413MOL0     H55699   4.466   7.413  10.717 -1.1715  1.2563  0.7818
  413MOL0     H55700   4.655   7.422  10.580 -0.2235  0.5143  1.1229
  413MOL0     H55701   4.568   7.260  10.545 -1.6286  0.0162 -4.6367
  413MOL0     H55702   4.470   7.383  10.353 -0.8119  0.9780  3.5654
  413MOL0     H55703   4.620   7.474  10.375  0.5358 -0.5700  3.3141
  413MOL0     H55704   4.608   7.170  10.329 -1.4065  0.2595  0.2090
  413MOL0     H55705   4.757   7.268  10.362  2.1391  1.6327 -4.5232
  413MOL0     H55706   4.519   7.197  10.084  0.9849  0.7848  0.6880
  413MOL0     H55707   4.462   7.359   9.843 -0.2071  1.4651 -1.3041
  413MOL0     H55708   4.598   7.456   9.785  0.7191 -1.8413 -2.4327
  413MOL0     H55709   4.720   7.235   9.780 -0.2656  1.0350  0.9507
  413MOL0     H55710   4.642   7.294   9.638  2.7490 -1.8198 -0.4220
  413MOL0     H55711   4.431   7.151   9.742  0.2168 -2.0013  0.2689
  413MOL0     H55712   4.548   7.068   9.835 -2.9550 -2.2347 -1.3254
  413MOL0     H55713   4.551   6.942   9.648  1.7792 -0.0167  2.2614
  413MOL0     H55714   4.679   7.063   9.588 -0.1142  1.4090  1.4576
  413MOL0     H55715   4.298   7.117   9.357  0.4804 -4.0899  1.6335
  413MOL0     H55716   4.244   7.113   9.019 -2.0491  2.5466 -1.5858
  413MOL0     H55717   4.183   7.170   9.167  2.0123  3.0044  1.5893
  413MOL0     H55718   4.288   7.283   9.069  0.2411  0.7198 -0.4801
  413MOL0     H55719   4.337   6.913   8.708 -2.6317  0.8846 -0.8711
  413MOL0     H55720   4.348   6.918   8.460  1.8308  2.1679 -2.8619
  413MOL0     H55721   4.333   7.001   8.271 -1.3060  1.3922 -0.4793
  413MOL0     H55722   4.419   7.072   8.137 -1.5927  2.1978  1.3101
  413MOL0     H55723   4.628   6.916   8.264  0.6490  0.9432 -3.6854
  413MOL0     H55724   4.488   6.822   8.296 -0.1061 -1.5145 -2.0310
  413MOL0     H55725   4.458   6.788   8.046  0.0819  0.7655  0.7489
  413MOL0     H55726   4.621   6.743   8.092  2.9693 -0.5675 -3.1932
  413MOL0     H55727   4.571   7.026   7.988  1.0315 -0.5856 -2.0162
  413MOL0     H55728   4.729   6.950   8.029 -0.9877  0.6468  1.5336
  413MOL0     H55729   4.676   6.979   7.798 -1.9160  1.3990  1.5421
  413MOL0     H55730   4.547   6.843   7.817 -0.6651  0.6812  2.4119
  413MOL0     H55731   4.857   6.820   7.836 -1.1573  1.7139 -1.2498
  413MOL0     H55732   4.748   6.690   7.880 -3.0187 -0.3234 -0.3910
  413MOL0     H55733   4.662   6.673   7.654  1.4600 -0.6585 -4.4563
  413MOL0     H55734   4.838   6.653   7.671  0.4511 -0.1128  0.9133
  413MOL0     H55735   4.880   6.875   7.583 -0.8812  0.2414  2.0374
  413MOL0     H55736   4.704   6.904   7.593 -0.7073  0.2611 -1.1672
  413MOL0     H55737   4.577   7.276   8.475  1.0369 -0.4429  0.0566
  413MOL0     H55738   4.561   7.270   8.736  1.5199 -0.8472  0.7003
  413MOL0     H55739   4.723   7.046   9.123 -2.5776 -1.0215 -2.8685
  413MOL0     H55740   4.716   7.002   9.364  0.4712 -1.4978 -0.6897
  413MOL0     H55741   3.838   7.566  10.845 -1.2493 -0.5682 -0.4380
  413MOL0     H55742   3.715   7.643  11.028  3.7269  1.1958 -1.2017
  413MOL0     H55743   3.533   7.798  11.443 -0.2652 -0.2670  0.2647
  413MOL0     H55744   3.339   7.828  11.581 -0.6822 -0.9566 -0.0524
  413MOL0     H55745   3.155   7.848  11.688 -4.4940  2.0259 -0.1225
  413MOL0     H55746   3.018   7.777  11.734  0.0849  3.1223 -0.5277
  413MOL0     H55747   3.159   7.793  11.938 -0.5574  0.1882  0.0857
  413MOL0     H55748   3.298   7.763  11.848  0.6816 -2.0582  1.6479
  413MOL0     H55749   3.212   7.578  12.028 -4.5699  2.0707  0.7017
  413MOL0     H55750   3.294   7.537  11.883 -0.9349  0.6178 -0.9782
  413MOL0     H55751   3.069   7.460  11.779  0.7904  2.6776 -0.2707
  413MOL0     H55752   2.991   7.513  11.927 -0.6412 -0.0487  0.1973
  413MOL0     H55753   3.121   7.136  12.062  0.9178 -1.3153 -0.3097
  413MOL0     H55754   3.191   7.436  11.493 -0.1921  0.6547  1.6331
  413MOL0     H55755   3.388   7.401  11.352  1.1670  1.5994 -3.3825
  414MOL0     O55756   0.314  11.386   2.682  0.5198 -0.0807 -0.3332
  414MOL0     C55757   0.362  11.284   2.636  0.1737 -0.8570  0.0555
  414MOL0     O55758   0.487  11.243   2.651  0.2520 -0.0871 -0.1254
  414MOL0     C55759   0.592  11.322   2.690 -0.3439 -0.4439 -0.2895
  414MOL0     C55760   0.594  11.385   2.816 -0.2069  0.7553  0.1569
  414MOL0     C55761   0.713  11.441   2.863 -0.2076 -0.6622  0.1417
  414MOL0     C55762   0.835  11.448   2.789 -0.4377 -0.0687  0.1493
  414MOL0     O55763   0.958  11.474   2.855 -0.3478  0.9325  0.1271
  414MOL0     C55764   0.985  11.414   2.987 -0.7151  0.3963  0.8707
  414MOL0     C55765   1.110  11.491   3.021  0.9689  0.4932 -0.6248
  414MOL0     C55766   1.174  11.469   3.160  0.3887 -0.6828 -0.0796
  414MOL0     C55767   1.179  11.329   3.186 -0.0131 -0.3157  0.8776
  414MOL0     C55768   1.276  11.286   3.305  0.3719 -0.4642  0.9978
  414MOL0     C55769   1.234  11.345   3.443  0.3624  0.0191 -0.0257
  414MOL0     C55770   1.120  11.276   3.520 -0.3775  0.1316  0.6217
  414MOL0     C55771   1.069  11.363   3.639 -0.2299  0.0156 -0.1153
  414MOL0     N55772   1.006  11.289   3.750 -0.2477 -0.0181 -0.3847
  414MOL0     C55773   0.902  11.203   3.733  0.4606  0.1459  0.0330
  414MOL0     C55774   0.878  11.149   3.858  0.3410  0.2756 -0.6051
  414MOL0     C55775   0.764  11.064   3.904  1.5579  0.2792  0.3893
  414MOL0     C55776   0.670  11.150   3.995  0.3852 -1.0460  0.4505
  414MOL0     C55777   0.557  11.215   3.917 -0.0629 -0.6283  0.1773
  414MOL0     C55778   0.464  11.295   4.012  0.3413  0.2316  0.0618
  414MOL0     O55779   0.478  11.427   3.974 -0.1295  0.1109  0.3953
  414MOL0     C55780   0.556  11.500   4.055  0.8173  0.8785 -0.7043
  414MOL0     C55781   0.693  11.501   4.017  0.3696  1.6109  1.1945
  414MOL0     C55782   0.780  11.576   4.093 -0.9680 -0.1548  0.4119
  414MOL0     C55783   0.917  11.596   4.014  0.1570 -0.0403 -1.0264
  414MOL0     C55784   0.741  11.654   4.208 -0.1414  0.9320 -0.5665
  414MOL0     C55785   0.836  11.734   4.289 -0.2225  0.0083  0.7335
  414MOL0     O55786   0.966  11.722   4.265  0.5336  0.4470 -0.5164
  414MOL0     C55787   1.053  11.822   4.298 -0.3009  0.2255  0.6806
  414MOL0     C55788   1.021  11.960   4.302  0.6290  0.1924 -0.7026
  414MOL0     C55789   1.128  12.050   4.320 -1.1576  0.1611  0.7539
  414MOL0     C55790   1.268  12.016   4.302  0.6854 -0.2493  0.0860
  414MOL0     O55791   1.377  12.106   4.301  1.0472  0.0585  0.1089
  414MOL0     C55792   1.343  12.228   4.233  0.6792 -0.2063  0.3317
  414MOL0     C55793   1.465  12.312   4.224  0.1113 -0.6146 -0.8249
  414MOL0     C55794   1.423  12.434   4.149 -0.3397 -0.5297  0.0658
  414MOL0     C55795   1.540  12.533   4.148  0.5716  0.4473  0.2883
  414MOL0     C55796   1.492  12.666   4.087 -0.2728 -0.7136  0.7524
  414MOL0     C55797   1.589  12.779   4.126 -0.0481 -1.7626  0.0788
  414MOL0     C55798   1.540  12.918   4.073  0.7372  0.8294 -0.5725
  414MOL0     C55799   1.627  13.032   4.114  0.2512 -0.0069  0.4835
  414MOL0    Cl55800   1.792  13.014   4.049  0.0840 -0.2206  0.0707
  414MOL0     C55801   1.296  11.883   4.297 -0.2876 -0.5600 -0.1053
  414MOL0     C55802   1.196  11.790   4.302 -0.7218 -0.5502 -0.5190
  414MOL0     O55803   0.784  11.819   4.359 -0.4943 -0.5663 -0.7284
  414MOL0     C55804   0.600  11.643   4.246  0.0348 -0.2565  0.5930
  414MOL0     C55805   0.513  11.563   4.169  0.9538  0.0829  0.4194
  414MOL0     N55806   0.976  11.201   3.943 -0.5165 -0.0196 -0.1938
  414MOL0     N55807   1.057  11.279   3.881 -0.1140 -0.8978  0.9045
  414MOL0     C55808   0.833  11.391   2.655 -0.0843 -0.1293 -0.3434
  414MOL0     C55809   0.707  11.333   2.609 -0.0104 -1.2059  1.0160
  414MOL0     C55810   0.262  11.197   2.570  0.3053  0.3191  0.4434
  414MOL0     C55811   0.127  11.235   2.553  0.4452  0.7303 -1.0765
  414MOL0     C55812   0.031  11.149   2.496 -0.7554 -0.3202  0.0006
  414MOL0     C55813   0.078  11.021   2.448 -0.4035 -0.3947 -0.2498
  414MOL0     O55814  -0.011  10.940   2.387  0.1460 -0.1078  0.4488
  414MOL0     C55815  -0.038  10.998   2.254 -0.5036  0.1431 -0.3882
  414MOL0     C55816  -0.157  11.099   2.240 -0.6206  0.1634 -0.0707
  414MOL0     C55817  -0.221  11.108   2.098  0.0745  0.8065 -0.4421
  414MOL0     C55818  -0.292  10.983   2.051 -0.4379 -1.0784 -0.2976
  414MOL0     C55819  -0.398  10.913   2.121 -0.4540 -0.7495  1.1832
  414MOL0     C55820  -0.477  10.856   2.176  0.2250  1.7017  0.4933
  414MOL0     C55821   0.215  10.997   2.448  0.6402  0.6569 -0.4452
  414MOL0     C55822   0.307  11.074   2.517  0.8853 -0.4804 -0.6714
  414MOL0     H55823   0.509  11.376   2.883 -0.1345 -3.0088 -0.0774
  414MOL0     H55824   0.705  11.493   2.957 -0.8707 -0.3478 -0.0774
  414MOL0     H55825   0.915  11.448   3.064 -1.7075 -2.2497  1.2438
  414MOL0     H55826   0.973  11.306   2.979 -2.8038  0.7167 -3.2246
  414MOL0     H55827   1.179  11.460   2.942  0.5917 -0.0972 -0.7296
  414MOL0     H55828   1.095  11.598   3.003  1.3898  0.4135 -1.5052
  414MOL0     H55829   1.277  11.505   3.163 -0.1071  0.9142 -0.9949
  414MOL0     H55830   1.140  11.524   3.248  4.4078  0.6023  0.8857
  414MOL0     H55831   1.074  11.306   3.207 -1.2725  3.1295 -0.8391
  414MOL0     H55832   1.208  11.280   3.093 -0.1620 -0.7580  1.0596
  414MOL0     H55833   1.267  11.178   3.319 -0.0423 -0.3840  1.4059
  414MOL0     H55834   1.380  11.306   3.280 -0.3791  1.1773 -1.1329
  414MOL0     H55835   1.321  11.353   3.508  1.7290  1.5060 -1.9186
  414MOL0     H55836   1.213  11.450   3.420  2.3238  0.2426 -0.9607
  414MOL0     H55837   1.036  11.268   3.450 -0.0293 -3.1370  0.4161
  414MOL0     H55838   1.141  11.174   3.554  0.0069 -0.9532 -2.4996
  414MOL0     H55839   0.996  11.434   3.598  1.2777  1.2373 -0.7373
  414MOL0     H55840   1.155  11.417   3.679  0.7238 -0.1477 -1.8397
  414MOL0     H55841   0.849  11.179   3.642  1.1265  2.6476 -1.1044
  414MOL0     H55842   0.718  11.035   3.809  1.9601  0.1709  0.2248
  414MOL0     H55843   0.795  10.971   3.952  1.6191  0.6762  1.1330
  414MOL0     H55844   0.723  11.228   4.050 -1.0593  2.8971 -3.2111
  414MOL0     H55845   0.620  11.085   4.068 -1.0453  0.1061  0.5572
  414MOL0     H55846   0.497  11.139   3.866  0.8929 -1.1741 -0.1758
  414MOL0     H55847   0.597  11.279   3.838 -1.5865 -1.9714 -1.7669
  414MOL0     H55848   0.509  11.275   4.110 -0.1166 -0.4272  0.1492
  414MOL0     H55849   0.363  11.252   4.011  1.6989 -3.3185 -0.4137
  414MOL0     H55850   0.730  11.442   3.933  4.1067  0.8888  3.1020
  414MOL0     H55851   0.925  11.528   3.929  4.6904  0.9184 -1.6771
  414MOL0     H55852   0.932  11.699   3.980 -1.9653  0.9625  0.8542
  414MOL0     H55853   1.001  11.568   4.079 -0.0409 -0.7184 -1.0588
  414MOL0     H55854   0.925  12.009   4.297 -0.2250 -1.2100  0.9434
  414MOL0     H55855   1.085  12.150   4.320  0.5334  1.0552 -3.2674
  414MOL0     H55856   1.306  12.207   4.133  0.6609 -0.9036  0.4821
  414MOL0     H55857   1.275  12.285   4.297  2.0262 -0.3343  1.9632
  414MOL0     H55858   1.495  12.334   4.327 -0.8319 -0.0678 -0.6558
  414MOL0     H55859   1.533  12.256   4.159  2.2360  1.2103 -0.3315
  414MOL0     H55860   1.334  12.483   4.189  0.4878 -0.4351  1.8659
  414MOL0     H55861   1.410  12.390   4.049 -1.6781  0.4431 -0.2161
  414MOL0     H55862   1.564  12.541   4.254 -1.2566 -1.6017  0.9466
  414MOL0     H55863   1.634  12.498   4.104  0.6712 -0.7257  1.3690
  414MOL0     H55864   1.395  12.700   4.122 -1.9877 -3.0031 -1.4270
  414MOL0     H55865   1.485  12.658   3.978  1.8438 -0.4153  0.5397
  414MOL0     H55866   1.601  12.799   4.233  2.7900 -1.1100 -0.2908
  414MOL0     H55867   1.686  12.762   4.079 -0.1818 -1.8650 -0.1616
  414MOL0     H55868   1.436  12.930   4.105  0.6337  0.6186 -0.8160
  414MOL0     H55869   1.540  12.907   3.964  2.6733  0.3655 -0.5590
  414MOL0     H55870   1.629  13.038   4.223  1.8254 -2.2465  0.6488
  414MOL0     H55871   1.583  13.119   4.064  0.1856 -1.1572 -1.5709
  414MOL0     H55872   1.399  11.849   4.292  0.3050  1.3429 -2.8534
  414MOL0     H55873   1.222  11.685   4.286  0.8424  0.0404 -2.2297
  414MOL0     H55874   0.562  11.698   4.331 -1.4598 -1.6833  0.9102
  414MOL0     H55875   0.409  11.555   4.199  0.5700  2.8254  0.0182
  414MOL0     H55876   0.928  11.375   2.604  0.3532  0.0585  0.4009
  414MOL0     H55877   0.705  11.289   2.509  0.0875 -0.8240  0.8445
  414MOL0     H55878   0.097  11.333   2.590 -2.7866 -0.3620 -0.5454
  414MOL0     H55879  -0.071  11.184   2.501 -0.7525 -0.4976  1.4662
  414MOL0     H55880   0.056  11.034   2.213  1.4015  3.0904  5.4228
  414MOL0     H55881  -0.066  10.913   2.191  1.3796 -1.3318  0.6476
  414MOL0     H55882  -0.119  11.193   2.281  1.7494 -0.4380 -0.7490
  414MOL0     H55883  -0.232  11.069   2.314 -2.2841 -0.8284 -2.0551
  414MOL0     H55884  -0.153  11.140   2.019  2.1575 -1.0338  0.5026
  414MOL0     H55885  -0.302  11.179   2.120 -0.2567 -0.3180  2.3742
  414MOL0     H55886  -0.211  10.913   2.030  2.2440  0.9564  2.3439
  414MOL0     H55887  -0.340  11.023   1.962  3.4191  2.5328 -1.1174
  414MOL0     H55888  -0.570  10.829   2.223 -0.3986  2.5848 -0.2108
  414MOL0     H55889   0.251  10.903   2.407 -0.5241 -0.7708  1.6009
  414MOL0     H55890   0.407  11.034   2.528  1.6340  1.5074  0.1776
  415MOL0     O55891   7.322   7.563   8.654 -0.3647 -0.4671  0.0086
  415MOL0     C55892   7.319   7.440   8.645  0.0563 -0.1345  0.1306
  415MOL0     O55893   7.411   7.352   8.690 -0.7038 -0.3505  0.8536
  415MOL0     C55894   7.528   7.420   8.735  0.1260  0.8604 -0.8948
  415MOL0     C55895   7.627   7.479   8.646  0.6590  0.1044  0.1914
  415MOL0     C55896   7.729   7.554   8.690 -0.1975  0.7429 -0.3118
  415MOL0     C55897   7.757   7.568   8.827 -0.7344 -0.3726  0.1185
  415MOL0     O55898   7.873   7.650   8.856  0.2276  0.4682  0.0939
  415MOL0     C55899   7.944   7.624   8.984  0.4672 -0.2116 -0.3339
  415MOL0     C55900   8.042   7.739   8.990  0.1712 -0.0091 -0.3622
  415MOL0     C55901   8.098   7.744   9.131 -0.8316  0.7792 -0.0978
  415MOL0     C55902   8.224   7.657   9.145  0.1227 -0.7028 -0.4350
  415MOL0     C55903   8.272   7.688   9.296 -1.2314 -0.0888 -0.7465
  415MOL0     C55904   8.220   7.589   9.400 -0.4848  0.2093 -0.7886
  415MOL0     C55905   8.247   7.641   9.548  0.1069  0.9004 -0.0052
  415MOL0     C55906   8.128   7.602   9.637 -0.1853  0.8978 -0.5568
  415MOL0     N55907   8.119   7.453   9.659 -0.1753 -0.1711  0.6414
  415MOL0     C55908   8.228   7.379   9.672  0.1815  0.0849  0.0039
  415MOL0     C55909   8.190   7.262   9.736 -0.5973 -0.8925  0.1484
  415MOL0     C55910   8.305   7.184   9.797  0.3271 -0.6008  0.1579
  415MOL0     C55911   8.270   7.157   9.944  0.2997 -0.4543 -1.2535
  415MOL0     C55912   8.359   7.054  10.021 -0.7002  0.9899 -0.4606
  415MOL0     C55913   8.307   6.999  10.149  0.5585  0.6244  0.4685
  415MOL0     O55914   8.384   6.928  10.239 -0.1770  0.2503 -0.4126
  415MOL0     C55915   8.446   6.816  10.196  0.4273 -0.0231 -0.4424
  415MOL0     C55916   8.557   6.771  10.260  0.1494 -0.5736  0.9346
  415MOL0     C55917   8.627   6.657  10.224  0.5653  0.4153 -0.2685
  415MOL0     C55918   8.743   6.624  10.306 -0.3700  0.2887  0.4871
  415MOL0     C55919   8.578   6.582  10.113 -0.6611  0.6584 -0.8112
  415MOL0     C55920   8.656   6.464  10.049  0.2602  0.4740 -0.0290
  415MOL0     O55921   8.639   6.449   9.913 -0.0101  0.5333 -0.2570
  415MOL0     C55922   8.710   6.347   9.853  0.4133  0.2188  0.3302
  415MOL0     C55923   8.660   6.220   9.876  0.3721  0.0654 -0.2416
  415MOL0     C55924   8.709   6.117   9.797  0.9586  0.1129 -0.4728
  415MOL0     C55925   8.826   6.130   9.713  0.1715 -0.4371 -0.8020
  415MOL0     O55926   8.859   6.013   9.641 -0.2258  0.0403 -0.0669
  415MOL0     C55927   8.941   6.023   9.521 -0.0099  0.3390  0.0238
  415MOL0     C55928   9.013   5.892   9.489  0.3606 -1.1587  0.6175
  415MOL0     C55929   8.918   5.772   9.460 -0.8232  0.3883 -0.4158
  415MOL0     C55930   8.887   5.761   9.306  0.0620 -0.2610 -0.1869
  415MOL0     C55931   8.795   5.648   9.267  0.8745 -0.7202 -0.1598
  415MOL0     C55932   8.850   5.501   9.286  0.1740  0.4419 -0.6613
  415MOL0     C55933   8.737   5.390   9.249 -0.6553 -0.2600 -0.4713
  415MOL0     C55934   8.766   5.245   9.296  0.2807  0.2677 -0.3552
  415MOL0    Cl55935   8.835   5.253   9.467 -0.0994  0.1065  0.0901
  415MOL0     C55936   8.878   6.260   9.697 -0.2300 -0.0143  0.2270
  415MOL0     C55937   8.823   6.367   9.772  0.2674 -0.7585  0.0438
  415MOL0     O55938   8.725   6.389  10.114 -0.6498  0.3912 -0.4658
  415MOL0     C55939   8.459   6.621  10.051 -0.9273  0.6931  0.1535
  415MOL0     C55940   8.390   6.727  10.092  0.0710 -0.1185  0.5591
  415MOL0     N55941   8.052   7.272   9.757  0.4834 -1.1198  0.2828
  415MOL0     N55942   8.011   7.390   9.707 -0.1468 -0.7563  0.8309
  415MOL0     C55943   7.674   7.501   8.917 -0.8282  0.5178 -0.1253
  415MOL0     C55944   7.558   7.430   8.868  0.5834  0.1778 -0.6752
  415MOL0     C55945   7.207   7.383   8.568  0.3664 -0.0743  0.8611
  415MOL0     C55946   7.179   7.244   8.575  0.3701  0.7416  0.2789
  415MOL0     C55947   7.057   7.193   8.513  0.3642  0.0771  0.8433
  415MOL0     C55948   6.959   7.279   8.462 -0.4268 -0.1345  0.6369
  415MOL0     O55949   6.840   7.225   8.427 -0.5991 -0.3417  0.5995
  415MOL0     C55950   6.731   7.313   8.392  0.7859  0.2004 -0.1005
  415MOL0     C55951   6.601   7.234   8.353  0.2571  0.9039  0.3599
  415MOL0     C55952   6.566   7.120   8.450  0.5254 -0.6476 -0.2489
  415MOL0     C55953   6.432   7.057   8.420 -0.2985 -0.0816  0.1372
  415MOL0     C55954   6.317   7.146   8.450 -0.3566 -0.6379 -0.7209
  415MOL0     C55955   6.215   7.193   8.495  0.0912  1.2604  1.1143
  415MOL0     C55956   6.989   7.417   8.457  0.5419  0.5278 -0.4148
  415MOL0     C55957   7.106   7.469   8.516 -0.6168  0.5042  0.4388
  415MOL0     H55958   7.613   7.443   8.544 -0.9126 -1.2958  0.8454
  415MOL0     H55959   7.794   7.590   8.610  3.3732  0.1293  2.0787
  415MOL0     H55960   7.876   7.628   9.070  1.4556  1.6321  0.4209
  415MOL0     H55961   7.979   7.521   8.975 -1.1994 -0.7428 -1.1756
  415MOL0     H55962   8.130   7.734   8.925  0.8909  4.8709 -0.1721
  415MOL0     H55963   7.984   7.830   8.972 -2.0566 -0.6769  2.6707
  415MOL0     H55964   8.138   7.844   9.150 -0.3286 -0.0939  4.9841
  415MOL0     H55965   8.028   7.716   9.211  0.7779 -0.7768  0.8386
  415MOL0     H55966   8.188   7.556   9.128 -4.3511  0.9366 -2.4037
  415MOL0     H55967   8.303   7.680   9.074 -0.7967  0.3598 -1.1648
  415MOL0     H55968   8.381   7.690   9.292 -1.1733  2.7894  0.5210
  415MOL0     H55969   8.232   7.782   9.333 -2.3685 -1.9427  3.3388
  415MOL0     H55970   8.112   7.594   9.389 -0.5307 -0.6050 -0.7415
  415MOL0     H55971   8.242   7.482   9.391  1.3439  0.2566  1.7927
  415MOL0     H55972   8.346   7.616   9.588  0.1387  2.3683  0.9316
  415MOL0     H55973   8.233   7.750   9.555 -2.4022  0.5593  1.3416
  415MOL0     H55974   8.037   7.643   9.592 -1.5651 -0.4537  0.8794
  415MOL0     H55975   8.139   7.652   9.734 -2.1967  1.8449 -0.7682
  415MOL0     H55976   8.327   7.414   9.645 -0.9235  3.9506  0.3049
  415MOL0     H55977   8.313   7.095   9.733 -0.6850 -0.6534  0.0891
  415MOL0     H55978   8.393   7.249   9.796 -1.2095  1.6074  1.2077
  415MOL0     H55979   8.176   7.103   9.953  1.8576 -3.0929  0.3655
  415MOL0     H55980   8.269   7.251   9.999 -1.6193  1.0866 -3.6940
  415MOL0     H55981   8.454   7.104  10.043  1.5882 -0.7293 -5.0445
  415MOL0     H55982   8.396   6.971   9.960  4.0832  0.9104  2.0456
  415MOL0     H55983   8.219   6.939  10.123  1.8649 -0.6398 -1.2454
  415MOL0     H55984   8.270   7.084  10.208 -1.3069  1.2631 -1.4852
  415MOL0     H55985   8.593   6.848  10.327 -0.7311 -0.2324  1.0315
  415MOL0     H55986   8.758   6.677  10.400 -2.0720 -3.6366  3.2828
  415MOL0     H55987   8.758   6.520  10.337  0.8169  0.1812 -0.3941
  415MOL0     H55988   8.828   6.639  10.239 -1.0542 -1.0518 -0.7422
  415MOL0     H55989   8.576   6.215   9.945  0.0395  1.7388 -0.4967
  415MOL0     H55990   8.665   6.019   9.812  0.4676  0.6039  1.5271
  415MOL0     H55991   8.885   6.053   9.432  1.0439  0.5155 -0.5958
  415MOL0     H55992   9.026   6.089   9.544 -0.5942  1.0385  0.2257
  415MOL0     H55993   9.090   5.909   9.414 -2.0855 -0.8804 -2.0336
  415MOL0     H55994   9.064   5.880   9.584  1.7675  0.7809  0.1532
  415MOL0     H55995   8.825   5.776   9.518  0.0015 -0.7920  1.0473
  415MOL0     H55996   8.975   5.689   9.503  1.0951  0.5591 -2.4634
  415MOL0     H55997   8.844   5.857   9.278 -0.4935 -0.9676 -1.8287
  415MOL0     H55998   8.985   5.742   9.262 -0.4184 -0.0594 -1.3687
  415MOL0     H55999   8.756   5.650   9.164 -2.9331  0.2424  1.1399
  415MOL0     H56000   8.698   5.648   9.317  0.2694  2.5348 -1.1200
  415MOL0     H56001   8.940   5.475   9.229 -2.7183 -1.9706 -4.6690
  415MOL0     H56002   8.878   5.495   9.391 -2.5588  1.1090  0.2055
  415MOL0     H56003   8.707   5.408   9.145  1.4332 -2.0117 -1.4606
  415MOL0     H56004   8.645   5.400   9.308 -2.2857 -1.1213 -2.6834
  415MOL0     H56005   8.841   5.205   9.227  0.5106  1.2275 -0.6886
  415MOL0     H56006   8.672   5.190   9.293 -0.1400  1.0040 -1.1543
  415MOL0     H56007   8.963   6.276   9.631  2.7806 -0.7585  3.5853
  415MOL0     H56008   8.867   6.465   9.758  1.1272 -1.0719  0.5294
  415MOL0     H56009   8.433   6.563   9.963 -0.0718  1.0394 -0.3357
  415MOL0     H56010   8.303   6.776  10.050  0.6324 -0.0415 -0.5564
  415MOL0     H56011   7.671   7.516   9.025 -3.1605  1.8407 -0.2839
  415MOL0     H56012   7.502   7.385   8.949  0.6985 -2.1276 -1.8037
  415MOL0     H56013   7.238   7.170   8.627 -3.5257 -3.3863 -0.5803
  415MOL0     H56014   7.036   7.086   8.519  1.1220 -0.2326 -1.1220
  415MOL0     H56015   6.700   7.369   8.481  0.6340 -1.0001  0.6164
  415MOL0     H56016   6.752   7.393   8.321 -2.0957 -0.1446 -1.5004
  415MOL0     H56017   6.620   7.196   8.253 -0.6879 -0.6548  0.7427
  415MOL0     H56018   6.518   7.305   8.343 -0.7433 -0.4818 -2.0159
  415MOL0     H56019   6.560   7.146   8.557  1.1320 -1.1892 -0.0761
  415MOL0     H56020   6.642   7.043   8.438 -0.5584 -1.4713 -2.1074
  415MOL0     H56021   6.427   6.963   8.476  1.3861  1.5918  3.3831
  415MOL0     H56022   6.429   7.036   8.312 -0.2178  0.4167  0.0329
  415MOL0     H56023   6.132   7.209   8.561  0.8528  3.0171  1.6976
  415MOL0     H56024   6.904   7.480   8.436 -1.1783 -1.6635 -0.3848
  415MOL0     H56025   7.105   7.578   8.520 -1.1288  0.4800  1.2180
  416MOL0     O56026   8.469   7.478   5.543  0.0295 -0.1793  1.0582
  416MOL0     C56027   8.535   7.556   5.476  0.9519  0.0344  0.0264
  416MOL0     O56028   8.487   7.633   5.377 -0.0166 -0.4695  0.2228
  416MOL0     C56029   8.356   7.671   5.367 -0.2300 -0.1996  1.0097
  416MOL0     C56030   8.346   7.757   5.255 -0.4836 -0.0724  0.1998
  416MOL0     C56031   8.229   7.818   5.225 -0.4966  0.9430  0.4860
  416MOL0     C56032   8.111   7.787   5.302  0.8439 -0.0941  0.8861
  416MOL0     O56033   7.998   7.857   5.263  0.1342 -0.0774 -0.8513
  416MOL0     C56034   7.868   7.824   5.310 -1.3863  0.1651 -0.1071
  416MOL0     C56035   7.761   7.902   5.259  0.6429  0.0538  0.1383
  416MOL0     C56036   7.766   7.908   5.103 -0.3833 -0.6563 -0.2553
  416MOL0     C56037   7.626   7.959   5.061  1.2083 -0.3460  2.0472
  416MOL0     C56038   7.613   7.954   4.913  0.4273  0.3145  0.4988
  416MOL0     C56039   7.483   8.027   4.869  0.3876 -0.0033  0.4544
  416MOL0     C56040   7.473   8.030   4.719  0.5127  0.2321  0.1282
  416MOL0     C56041   7.487   7.899   4.637  0.1059 -0.2000 -0.1214
  416MOL0     N56042   7.397   7.794   4.674 -0.3516 -0.3980 -0.9499
  416MOL0     C56043   7.260   7.798   4.649 -0.9795  0.2338 -0.0320
  416MOL0     C56044   7.219   7.677   4.693 -0.1454  0.4552  0.3309
  416MOL0     C56045   7.080   7.615   4.695 -0.6652 -0.2340  0.4239
  416MOL0     C56046   6.980   7.706   4.762  0.2703  0.1641 -0.7186
  416MOL0     C56047   6.836   7.676   4.728 -0.8055  0.6270  0.8088
  416MOL0     C56048   6.742   7.746   4.821  0.1550  0.0316  0.1294
  416MOL0     O56049   6.761   7.892   4.809 -0.4472  0.6501 -0.6599
  416MOL0     C56050   6.681   7.974   4.732 -1.0196 -0.9829 -0.3930
  416MOL0     C56051   6.585   7.929   4.645  0.0989 -0.2782 -0.7597
  416MOL0     C56052   6.500   8.016   4.587 -0.0244 -0.0712  0.7957
  416MOL0     C56053   6.406   7.945   4.496 -0.0126  0.3048  0.1657
  416MOL0     C56054   6.502   8.158   4.617  0.5327  0.7087 -1.0119
  416MOL0     C56055   6.412   8.263   4.570  0.5972  0.5158  0.1308
  416MOL0     O56056   6.301   8.221   4.519  0.0390  0.3263  0.1371
  416MOL0     C56057   6.188   8.305   4.530 -0.5407  0.0437  0.3859
  416MOL0     C56058   6.181   8.423   4.454  0.1407 -0.2981 -0.7704
  416MOL0     C56059   6.064   8.495   4.442 -0.3959 -0.6494 -0.8359
  416MOL0     C56060   5.941   8.449   4.494 -0.2487  0.4538  0.4640
  416MOL0     O56061   5.818   8.503   4.493  0.4894  0.8267  0.1805
  416MOL0     C56062   5.805   8.643   4.514 -0.6450  0.1877 -0.5237
  416MOL0     C56063   5.666   8.678   4.579 -1.1597 -0.1849  1.0589
  416MOL0     C56064   5.551   8.610   4.507  0.6360 -0.8279  0.6414
  416MOL0     C56065   5.531   8.671   4.368  0.3548 -0.2359  0.4794
  416MOL0     C56066   5.415   8.599   4.285 -0.8059 -1.1003 -0.4860
  416MOL0     C56067   5.421   8.630   4.139  0.0471 -0.5707 -0.4419
  416MOL0     C56068   5.388   8.772   4.105 -0.1542  0.0615  0.6732
  416MOL0     C56069   5.378   8.797   3.961  0.3129  0.6022  0.3619
  416MOL0    Cl56070   5.325   8.969   3.922  0.1290  0.1956  0.1310
  416MOL0     C56071   5.949   8.317   4.558  0.5160 -0.0489 -0.4563
  416MOL0     C56072   6.068   8.250   4.564  0.4758 -0.0618 -1.1270
  416MOL0     O56073   6.444   8.378   4.570  0.2623 -0.6201  0.2555
  416MOL0     C56074   6.599   8.198   4.715  0.3766  0.2062  0.1939
  416MOL0     C56075   6.687   8.108   4.768 -0.4246  0.8011  0.7354
  416MOL0     N56076   7.332   7.601   4.737 -0.1019  0.1017 -0.3334
  416MOL0     N56077   7.434   7.677   4.714 -0.4532  0.0745 -0.3349
  416MOL0     C56078   8.115   7.705   5.414 -0.4095 -0.1528 -0.1000
  416MOL0     C56079   8.239   7.648   5.448  0.0154  0.2627  0.5197
  416MOL0     C56080   8.683   7.555   5.495  0.5856 -0.6983  0.0399
  416MOL0     C56081   8.731   7.468   5.587 -0.3027 -0.1158  0.4247
  416MOL0     C56082   8.873   7.455   5.595  0.2000 -0.0429  0.0152
  416MOL0     C56083   8.956   7.526   5.510 -0.2754 -0.4569 -0.1234
  416MOL0     O56084   9.091   7.521   5.525  0.3747  0.4859 -1.1767
  416MOL0     C56085   9.150   7.393   5.485  0.2039 -0.0947  0.2178
  416MOL0     C56086   9.128   7.361   5.335  0.5091 -0.0285 -0.1348
  416MOL0     C56087   9.221   7.459   5.252 -0.8396 -0.7426  0.2705
  416MOL0     C56088   9.378   7.443   5.290  1.1199 -0.4431 -0.3685
  416MOL0     C56089   9.454   7.510   5.179  0.2153 -0.7075 -0.3031
  416MOL0     C56090   9.521   7.518   5.076  0.0136 -0.4509 -0.1713
  416MOL0     C56091   8.903   7.613   5.419 -0.0283 -0.0235  0.9747
  416MOL0     C56092   8.767   7.630   5.416  0.0475  0.3017 -1.1442
  416MOL0     H56093   8.434   7.788   5.200  1.0093 -0.5401  2.2182
  416MOL0     H56094   8.210   7.875   5.134 -0.6814  1.1700  0.6639
  416MOL0     H56095   7.840   7.721   5.285 -1.7505  0.3254 -0.3610
  416MOL0     H56096   7.863   7.819   5.420  1.0808 -1.2137  0.0043
  416MOL0     H56097   7.670   7.852   5.292  0.4763  0.4315  0.2468
  416MOL0     H56098   7.773   8.002   5.302 -0.1351 -0.3228  1.2701
  416MOL0     H56099   7.837   7.981   5.062 -2.5181  0.1428 -2.8262
  416MOL0     H56100   7.788   7.807   5.067  1.8599 -0.1203 -0.5192
  416MOL0     H56101   7.536   7.909   5.096 -0.0456 -2.5700 -3.3421
  416MOL0     H56102   7.615   8.066   5.079  1.1123  0.6882 -2.8192
  416MOL0     H56103   7.694   8.005   4.860 -1.1333  2.1937 -0.1961
  416MOL0     H56104   7.609   7.847   4.889  0.0301  0.1068  1.4290
  416MOL0     H56105   7.400   7.968   4.909 -1.1893  1.9392  0.1879
  416MOL0     H56106   7.473   8.130   4.902  2.8173  1.2418 -2.2414
  416MOL0     H56107   7.379   8.075   4.688  1.2991  1.0502 -1.1869
  416MOL0     H56108   7.545   8.100   4.675  1.1861 -0.7472 -0.3755
  416MOL0     H56109   7.589   7.860   4.638 -0.5384 -1.9615  0.2747
  416MOL0     H56110   7.474   7.919   4.531 -0.7222 -2.8165 -0.5872
  416MOL0     H56111   7.202   7.882   4.613 -3.0126 -1.3508 -0.6393
  416MOL0     H56112   7.053   7.616   4.589  1.1194  0.7094 -0.0663
  416MOL0     H56113   7.084   7.516   4.742 -1.8966  0.8940  3.0745
  416MOL0     H56114   6.989   7.808   4.724  0.5950 -0.2181 -1.7145
  416MOL0     H56115   7.004   7.707   4.869  2.0893 -3.0880 -0.9408
  416MOL0     H56116   6.823   7.569   4.714  0.4021  0.6095 -0.3951
  416MOL0     H56117   6.818   7.705   4.624 -1.6232 -3.8444 -0.5103
  416MOL0     H56118   6.764   7.734   4.927  1.6161 -2.8299 -0.4148
  416MOL0     H56119   6.641   7.705   4.813  0.6399 -1.7977  2.3692
  416MOL0     H56120   6.585   7.825   4.614  0.4495 -0.1834 -1.0887
  416MOL0     H56121   6.463   7.863   4.449 -0.6961  1.2586 -2.4866
  416MOL0     H56122   6.327   7.888   4.546 -1.7177  0.1324 -2.5126
  416MOL0     H56123   6.359   7.995   4.411  1.8044  0.5703 -0.7437
  416MOL0     H56124   6.265   8.467   4.401 -0.2867  1.7757  0.1788
  416MOL0     H56125   6.061   8.592   4.393 -1.7550  0.3542  1.1110
  416MOL0     H56126   5.876   8.666   4.593 -3.1320 -2.2972  2.7042
  416MOL0     H56127   5.832   8.716   4.437  0.1632  4.6391  3.5047
  416MOL0     H56128   5.662   8.644   4.683 -2.0357 -2.2898  0.3956
  416MOL0     H56129   5.662   8.787   4.584 -1.2899 -0.1708  0.6647
  416MOL0     H56130   5.459   8.632   4.561 -0.7843  3.1849 -2.9079
  416MOL0     H56131   5.569   8.502   4.497  0.7789 -0.8077  0.6810
  416MOL0     H56132   5.515   8.779   4.369 -2.8679 -0.6288  0.3027
  416MOL0     H56133   5.623   8.656   4.310  0.9040  1.4647  0.8776
  416MOL0     H56134   5.319   8.638   4.320 -0.6306 -1.1911  0.0961
  416MOL0     H56135   5.422   8.491   4.304  1.0698 -1.0760 -0.8415
  416MOL0     H56136   5.522   8.607   4.107  0.3952  1.2361 -0.7545
  416MOL0     H56137   5.353   8.564   4.084  0.7452 -0.8253 -0.9986
  416MOL0     H56138   5.469   8.840   4.134  0.4042  0.8785 -2.4721
  416MOL0     H56139   5.290   8.804   4.142  0.6405  3.2230  0.3030
  416MOL0     H56140   5.322   8.720   3.907  1.9234  0.5422 -1.3359
  416MOL0     H56141   5.477   8.784   3.917 -0.8929 -0.8087 -2.1743
  416MOL0     H56142   5.860   8.273   4.603  1.5274 -0.5661  1.0956
  416MOL0     H56143   6.077   8.150   4.603  1.5411 -0.6104 -2.6815
  416MOL0     H56144   6.606   8.299   4.753 -0.5096 -0.7127  3.0502
  416MOL0     H56145   6.759   8.132   4.845  0.0801 -0.5509  0.7055
  416MOL0     H56146   8.029   7.689   5.477  1.1963  0.9851  2.5398
  416MOL0     H56147   8.241   7.586   5.538  2.7722 -0.3643  0.1417
  416MOL0     H56148   8.667   7.408   5.650  0.1424 -0.0789  0.9225
  416MOL0     H56149   8.926   7.390   5.664  1.0784 -0.2574 -0.8299
  416MOL0     H56150   9.258   7.393   5.501 -0.0990  2.5594  3.3053
  416MOL0     H56151   9.111   7.307   5.540 -1.3288 -0.3925 -1.2395
  416MOL0     H56152   9.024   7.388   5.315  0.3655 -0.8147 -0.4927
  416MOL0     H56153   9.141   7.256   5.307 -1.2197 -0.0367 -1.0459
  416MOL0     H56154   9.188   7.560   5.277  0.1636 -0.3805  0.1486
  416MOL0     H56155   9.209   7.446   5.144  1.3543 -1.1431  0.0374
  416MOL0     H56156   9.409   7.338   5.294  1.0663 -0.5037 -1.3059
  416MOL0     H56157   9.384   7.506   5.379 -1.7602  3.7619 -2.7593
  416MOL0     H56158   9.588   7.539   4.995 -1.2924 -0.9547 -1.4257
  416MOL0     H56159   8.965   7.677   5.357 -2.4769  0.2708 -1.3407
  416MOL0     H56160   8.739   7.707   5.345  5.5315 -0.1851 -4.3909
  417MOL0     O56161   6.004   1.872   4.778 -0.2706 -0.2701 -0.9186
  417MOL0     C56162   6.124   1.853   4.760 -0.6319 -0.4819 -0.5053
  417MOL0     O56163   6.176   1.731   4.754 -0.3386 -0.2966  0.5581
  417MOL0     C56164   6.094   1.630   4.718 -0.5043  0.3532  0.7933
  417MOL0     C56165   6.118   1.511   4.788 -0.5663  0.2720  0.0423
  417MOL0     C56166   6.046   1.393   4.772  0.6442 -0.0614  0.1292
  417MOL0     C56167   5.956   1.386   4.665 -0.0343 -0.8580  0.3301
  417MOL0     O56168   5.900   1.266   4.649 -0.2256  0.2242  0.0006
  417MOL0     C56169   5.887   1.225   4.511 -0.4582  1.2287  0.5019
  417MOL0     C56170   6.013   1.196   4.437 -0.4179  0.1811  0.7296
  417MOL0     C56171   5.985   1.125   4.301  1.2573 -0.7044 -0.5076
  417MOL0     C56172   6.115   1.088   4.240  0.3068  0.9474 -0.3581
  417MOL0     C56173   6.204   1.206   4.185  0.2498 -0.2191 -1.3615
  417MOL0     C56174   6.334   1.214   4.273  0.2275  0.0968 -1.3384
  417MOL0     C56175   6.434   1.321   4.219 -1.1292 -0.3414 -0.3684
  417MOL0     C56176   6.507   1.255   4.097 -0.7193 -0.4355  0.4551
  417MOL0     N56177   6.592   1.364   4.041  0.6865 -0.4470  0.7110
  417MOL0     C56178   6.729   1.381   4.072 -0.1081 -0.8945 -0.0077
  417MOL0     C56179   6.759   1.505   4.003  0.5596  0.1155  0.3170
  417MOL0     C56180   6.894   1.564   4.031 -0.6077  0.1136  0.4711
  417MOL0     C56181   6.920   1.593   4.174 -0.3151  0.1921 -1.0398
  417MOL0     C56182   7.067   1.640   4.188 -0.1046 -0.0784  0.7248
  417MOL0     C56183   7.109   1.648   4.341 -0.1983  0.8235  0.5716
  417MOL0     O56184   7.089   1.779   4.400 -0.8425 -0.1906  0.0711
  417MOL0     C56185   7.199   1.864   4.421  0.3411 -0.9799 -0.0440
  417MOL0     C56186   7.198   1.941   4.538  0.0732 -0.0230 -0.8076
  417MOL0     C56187   7.286   2.049   4.578  0.4198  0.4297  0.2708
  417MOL0     C56188   7.260   2.128   4.700  0.5978 -0.1740 -0.1490
  417MOL0     C56189   7.388   2.074   4.484  0.1793  0.6488  0.0924
  417MOL0     C56190   7.508   2.161   4.508  0.2770  0.5973 -0.3988
  417MOL0     O56191   7.624   2.110   4.454  0.5123 -0.5068  0.1128
  417MOL0     C56192   7.742   2.150   4.513 -0.2232  0.1137  0.0108
  417MOL0     C56193   7.817   2.051   4.577 -0.0382 -0.1420  0.5184
  417MOL0     C56194   7.947   2.075   4.620 -0.6075 -0.0375 -0.2096
  417MOL0     C56195   8.005   2.195   4.599 -0.0424  0.0786  0.7852
  417MOL0     O56196   8.140   2.210   4.615  0.1488 -0.3077  0.3205
  417MOL0     C56197   8.218   2.148   4.724  0.0739 -0.6552  1.4398
  417MOL0     C56198   8.352   2.222   4.713 -0.4929 -0.5513  0.2633
  417MOL0     C56199   8.472   2.144   4.783  0.7407  0.2041 -0.1073
  417MOL0     C56200   8.581   2.237   4.825 -0.2840 -0.6417  0.4357
  417MOL0     C56201   8.577   2.288   4.964  0.5066  0.0372 -0.4924
  417MOL0     C56202   8.700   2.378   4.982 -0.7614  0.0977  0.1907
  417MOL0     C56203   8.710   2.426   5.124  0.0855  0.4147 -0.3786
  417MOL0     C56204   8.729   2.316   5.226 -0.7603 -0.8118 -0.4984
  417MOL0    Cl56205   8.890   2.225   5.214  0.1022  0.2581 -0.2379
  417MOL0     C56206   7.934   2.304   4.552  1.0658  0.5955  0.7997
  417MOL0     C56207   7.798   2.275   4.513 -0.6772 -0.1643 -0.5353
  417MOL0     O56208   7.494   2.256   4.580 -0.2406 -0.2975 -0.4340
  417MOL0     C56209   7.392   1.992   4.365 -0.0418 -0.1573 -0.0996
  417MOL0     C56210   7.296   1.889   4.331 -1.1082 -0.5308  0.4170
  417MOL0     N56211   6.645   1.543   3.925  0.2122  0.1020 -0.7271
  417MOL0     N56212   6.557   1.459   3.946  0.2185  0.4876 -0.1759
  417MOL0     C56213   5.949   1.499   4.574 -0.2121  1.2614 -1.3324
  417MOL0     C56214   6.008   1.624   4.610 -0.2434  0.1606 -0.1073
  417MOL0     C56215   6.214   1.963   4.778  0.3402 -0.4340  0.3002
  417MOL0     C56216   6.352   1.954   4.785 -0.2641  0.3197 -0.6181
  417MOL0     C56217   6.429   2.069   4.801 -0.3619  0.3518  0.0151
  417MOL0     C56218   6.378   2.194   4.798  0.3044 -0.2497  0.1471
  417MOL0     O56219   6.474   2.294   4.812 -0.2008  0.8279 -0.9639
  417MOL0     C56220   6.446   2.433   4.790  0.2058  0.3490 -1.2298
  417MOL0     C56221   6.565   2.516   4.815 -1.7782 -0.3188 -0.0289
  417MOL0     C56222   6.539   2.664   4.795  0.1087 -0.0344  0.4318
  417MOL0     C56223   6.512   2.734   4.936  0.2836  0.3441  0.9789
  417MOL0     C56224   6.429   2.848   4.904  0.4395  0.0647  0.2462
  417MOL0     C56225   6.365   2.943   4.873 -0.8666 -0.2139 -0.4376
  417MOL0     C56226   6.238   2.208   4.791 -0.6326 -0.5763  0.1250
  417MOL0     C56227   6.165   2.097   4.789  0.1480 -0.7554 -0.1064
  417MOL0     H56228   6.180   1.531   4.875  0.9952  2.9804 -1.5637
  417MOL0     H56229   6.060   1.317   4.848  3.2437 -1.5002 -1.6243
  417MOL0     H56230   5.843   1.125   4.513  1.2306  0.4369  0.6255
  417MOL0     H56231   5.843   1.295   4.440  0.7159  1.9007  0.4049
  417MOL0     H56232   6.069   1.288   4.418  0.3905 -0.6430 -1.1546
  417MOL0     H56233   6.077   1.139   4.505 -1.0524  1.0842  2.1415
  417MOL0     H56234   5.920   1.037   4.314  2.2225 -1.1057  2.2289
  417MOL0     H56235   5.936   1.198   4.236  1.9368 -0.6108 -0.9130
  417MOL0     H56236   6.173   1.022   4.305  0.4858 -0.1653 -1.6036
  417MOL0     H56237   6.086   1.030   4.152 -0.3430 -0.1221  0.5362
  417MOL0     H56238   6.233   1.183   4.082 -0.9107  4.4324 -2.9247
  417MOL0     H56239   6.141   1.295   4.183  1.5124  0.7858  0.5804
  417MOL0     H56240   6.305   1.240   4.376 -1.6034 -1.8157 -1.3055
  417MOL0     H56241   6.381   1.115   4.278  1.2291  0.5440  3.8033
  417MOL0     H56242   6.382   1.410   4.182 -0.0592  1.5588  2.3727
  417MOL0     H56243   6.504   1.364   4.291 -1.2048  0.9788 -1.0521
  417MOL0     H56244   6.448   1.242   4.005  3.6705  2.1447 -3.1670
  417MOL0     H56245   6.571   1.169   4.120  0.1480  0.3612  1.0921
  417MOL0     H56246   6.797   1.327   4.136 -0.0464 -2.7955 -1.5863
  417MOL0     H56247   6.968   1.496   3.988 -0.0676  0.5167  0.7625
  417MOL0     H56248   6.904   1.652   3.966  1.6373  0.2167  0.8835
  417MOL0     H56249   6.887   1.509   4.236 -0.6380  0.1031 -1.3279
  417MOL0     H56250   6.848   1.671   4.199  0.8362  0.9276  0.1230
  417MOL0     H56251   7.085   1.731   4.130  1.5400 -1.1373 -0.5249
  417MOL0     H56252   7.123   1.560   4.138 -1.7485  0.1400 -1.6481
  417MOL0     H56253   7.204   1.595   4.353 -1.0804 -1.2135 -0.7871
  417MOL0     H56254   7.047   1.583   4.404 -0.4223  0.8005  0.3301
  417MOL0     H56255   7.133   1.906   4.617 -0.4803  1.7853 -0.4267
  417MOL0     H56256   7.327   2.080   4.773 -1.1267 -3.8471 -0.7137
  417MOL0     H56257   7.278   2.234   4.684 -2.2854  0.5197  0.5921
  417MOL0     H56258   7.156   2.123   4.735 -0.3128  2.0222 -2.3166
  417MOL0     H56259   7.762   1.957   4.574 -0.5720  0.1816  0.1614
  417MOL0     H56260   8.006   1.995   4.663  0.4871  0.4854 -0.6791
  417MOL0     H56261   8.168   2.165   4.820  1.6391 -0.3018  2.2114
  417MOL0     H56262   8.228   2.041   4.707  0.7311 -0.4686  0.6182
  417MOL0     H56263   8.375   2.247   4.609  2.6371  0.6695  1.1399
  417MOL0     H56264   8.340   2.316   4.768 -1.0147  0.8393 -2.1001
  417MOL0     H56265   8.502   2.059   4.720 -0.2731 -1.5805  1.7020
  417MOL0     H56266   8.450   2.100   4.881  4.2928  1.0786  1.2440
  417MOL0     H56267   8.670   2.173   4.823  0.3136  0.1503  0.9261
  417MOL0     H56268   8.584   2.316   4.749 -1.5607 -0.8440  0.1524
  417MOL0     H56269   8.584   2.202   5.031  1.4250  0.3970 -0.1184
  417MOL0     H56270   8.487   2.346   4.989  1.0305  0.6173  0.0679
  417MOL0     H56271   8.794   2.329   4.956  1.0657  2.2231  2.2919
  417MOL0     H56272   8.696   2.464   4.914 -2.2746 -0.6063 -0.6644
  417MOL0     H56273   8.615   2.477   5.141 -0.7994 -1.0288 -0.8813
  417MOL0     H56274   8.803   2.483   5.136 -1.0413  2.0793  0.9144
  417MOL0     H56275   8.651   2.240   5.231 -1.0533 -0.4098  2.9170
  417MOL0     H56276   8.725   2.364   5.324  2.3726  0.1965 -0.7482
  417MOL0     H56277   7.982   2.401   4.558 -1.9774  2.1454  2.3305
  417MOL0     H56278   7.733   2.347   4.465  1.8807  1.6143 -1.5401
  417MOL0     H56279   7.467   2.006   4.288  0.9786 -3.9240  0.0089
  417MOL0     H56280   7.304   1.837   4.236  1.1534  0.8911 -0.2784
  417MOL0     H56281   5.880   1.486   4.492  0.3051 -2.5788 -1.3323
  417MOL0     H56282   5.988   1.712   4.550 -0.0139 -0.2074 -0.7331
  417MOL0     H56283   6.395   1.854   4.785 -1.6451 -0.3004  0.3865
  417MOL0     H56284   6.535   2.052   4.818 -0.4308  0.2064  0.3080
  417MOL0     H56285   6.409   2.442   4.687  1.0288  1.8357 -1.4338
  417MOL0     H56286   6.354   2.460   4.841 -0.3251 -1.0777 -1.4171
  417MOL0     H56287   6.631   2.489   4.731 -3.3110  1.3323 -1.8770
  417MOL0     H56288   6.614   2.490   4.909 -0.9378 -1.4457 -0.7538
  417MOL0     H56289   6.465   2.668   4.715 -1.1257  0.0466  1.5579
  417MOL0     H56290   6.625   2.717   4.753 -0.4844 -0.3406 -1.2582
  417MOL0     H56291   6.611   2.766   4.971  0.2520  1.5637 -0.0170
  417MOL0     H56292   6.474   2.666   5.014  0.1784  1.4366  1.9034
  417MOL0     H56293   6.302   3.029   4.865 -3.7942 -2.2904 -1.6270
  417MOL0     H56294   6.178   2.298   4.779  0.1595 -0.2797 -2.0914
  417MOL0     H56295   6.059   2.115   4.800  0.3998  0.4687  0.5053
  418MOL0     O56296  10.714   1.978  10.576  0.4454 -0.5644 -0.8108
  418MOL0     C56297  10.622   1.947  10.649 -0.3435  0.1815 -0.0192
  418MOL0     O56298  10.484   1.980  10.629 -0.1328  0.2957 -0.1990
  418MOL0     C56299  10.445   2.054  10.523 -0.2084 -0.4210  0.0056
  418MOL0     C56300  10.511   2.045  10.398 -0.1288  0.2819  0.0497
  418MOL0     C56301  10.456   2.110  10.289  0.0750  0.2493 -0.6681
  418MOL0     C56302  10.345   2.193  10.304  0.4364 -1.0078  0.6911
  418MOL0     O56303  10.313   2.266  10.190  0.5183 -0.1354 -0.3164
  418MOL0     C56304  10.245   2.389  10.188 -0.6833 -0.0596  0.3345
  418MOL0     C56305  10.087   2.387  10.182  0.9070  0.9560 -0.0650
  418MOL0     C56306  10.034   2.292  10.065 -0.0976  0.4709 -0.1280
  418MOL0     C56307  10.020   2.364   9.924  0.2722  0.6362 -0.5215
  418MOL0     C56308   9.888   2.447   9.923  0.6086  0.3451 -0.4353
  418MOL0     C56309   9.863   2.546   9.811  0.2178  0.3700 -0.9054
  418MOL0     C56310   9.722   2.617   9.825 -0.3050  0.2101  0.7553
  418MOL0     C56311   9.696   2.721   9.712 -0.2877 -0.0249 -0.0311
  418MOL0     N56312   9.768   2.841   9.733 -0.3152 -1.0988 -0.7560
  418MOL0     C56313   9.733   2.929   9.828  0.5205  0.0472  0.6038
  418MOL0     C56314   9.827   3.029   9.831 -1.4053  0.3724  0.5789
  418MOL0     C56315   9.839   3.130   9.941 -0.1322  0.0187 -0.5247
  418MOL0     C56316   9.986   3.166   9.991 -0.0114  0.1457 -0.1172
  418MOL0     C56317  10.059   3.042  10.043 -0.2677 -0.2403 -0.3806
  418MOL0     C56318  10.208   3.084  10.065  0.5110  0.2491 -0.7216
  418MOL0     O56319  10.212   3.193  10.152  0.4182 -0.1556  0.3023
  418MOL0     C56320  10.251   3.164  10.285 -0.8599 -1.2966 -0.1639
  418MOL0     C56321  10.159   3.145  10.378  0.5888 -0.6830  0.2577
  418MOL0     C56322  10.180   3.110  10.510  0.5939  0.2954  0.2456
  418MOL0     C56323  10.074   3.085  10.610 -0.8013  0.1624  0.1830
  418MOL0     C56324  10.317   3.091  10.549  0.3681  0.8358 -0.7896
  418MOL0     C56325  10.359   3.058  10.681 -0.2356 -0.5816 -0.2142
  418MOL0     O56326  10.473   2.973  10.680  0.7574  0.4974  0.3997
  418MOL0     C56327  10.540   2.967  10.794  0.6622  0.7601  0.4991
  418MOL0     C56328  10.676   3.011  10.793  0.0773  0.1759  0.2794
  418MOL0     C56329  10.750   3.004  10.912 -0.3404  1.0867 -0.5395
  418MOL0     C56330  10.691   2.963  11.031 -0.7073 -0.3526 -0.3451
  418MOL0     O56331  10.761   2.969  11.152  0.6162  0.2394  0.2204
  418MOL0     C56332  10.687   2.967  11.268  0.1704  0.9122 -0.3591
  418MOL0     C56333  10.784   2.972  11.384 -0.3224  0.6998 -0.6845
  418MOL0     C56334  10.724   3.047  11.502  0.0654  1.7735  0.4712
  418MOL0     C56335  10.822   3.044  11.624 -0.0770  1.8131  0.2140
  418MOL0     C56336  10.906   3.171  11.649 -0.1219  0.4880  0.1899
  418MOL0     C56337  11.012   3.166  11.763  0.2827  0.2385  0.3520
  418MOL0     C56338  11.141   3.101  11.733 -1.1749 -0.2624 -0.2295
  418MOL0     C56339  11.240   3.190  11.658 -0.6810  0.7317  0.3537
  418MOL0    Cl56340  11.374   3.084  11.595 -0.2604 -0.3085 -0.2588
  418MOL0     C56341  10.570   2.900  11.020  0.2069  0.1121  0.5454
  418MOL0     C56342  10.491   2.902  10.907  0.6827  0.2878  0.4487
  418MOL0     O56343  10.306   3.113  10.775 -0.0220 -0.0988  0.1347
  418MOL0     C56344  10.417   3.118  10.451 -0.7386 -0.8976  0.3847
  418MOL0     C56345  10.385   3.152  10.320  0.1936 -1.1944  0.3493
  418MOL0     N56346   9.913   3.006   9.720 -0.4450 -0.1871 -0.1311
  418MOL0     N56347   9.870   2.897   9.661  0.6152 -0.9855  0.7163
  418MOL0     C56348  10.289   2.212  10.428  0.2765 -0.2890 -0.1110
  418MOL0     C56349  10.331   2.134  10.537 -0.9356 -0.0859 -0.3296
  418MOL0     C56350  10.656   1.863  10.766  0.2907 -0.4378  0.4495
  418MOL0     C56351  10.771   1.788  10.758 -0.2078  0.7331  0.6148
  418MOL0     C56352  10.812   1.725  10.877 -0.7531 -0.4850  0.6095
  418MOL0     C56353  10.736   1.730  10.990 -0.2515  0.8258 -0.3851
  418MOL0     O56354  10.777   1.661  11.100 -0.0848 -0.5035 -0.0847
  418MOL0     C56355  10.746   1.715  11.236 -0.2235  0.1726 -0.6279
  418MOL0     C56356  10.796   1.633  11.354  0.6156  1.9846 -0.0477
  418MOL0     C56357  10.769   1.483  11.322  0.0008  0.3868 -0.4176
  418MOL0     C56358  10.802   1.389  11.436 -0.3509 -0.2481  0.0951
  418MOL0     C56359  10.730   1.259  11.424 -0.1395  0.0526  0.3088
  418MOL0     C56360  10.680   1.160  11.411 -0.2041  0.1975 -1.3854
  418MOL0     C56361  10.610   1.798  10.991 -1.0319  0.4862 -0.3604
  418MOL0     C56362  10.577   1.869  10.874 -0.5341 -0.2589  0.8391
  418MOL0     H56363  10.599   1.983  10.385 -1.7633 -2.3590  0.7105
  418MOL0     H56364  10.498   2.113  10.189  1.4022 -1.8240 -0.2335
  418MOL0     H56365  10.282   2.443  10.275  1.5305  0.7479 -1.0248
  418MOL0     H56366  10.275   2.447  10.100 -1.9157  1.6651  0.9952
  418MOL0     H56367  10.061   2.336  10.275  1.3299  1.3646  0.2750
  418MOL0     H56368  10.035   2.482  10.168 -1.1053 -0.0965 -0.0926
  418MOL0     H56369  10.111   2.216  10.051  0.0265  0.0569  2.4019
  418MOL0     H56370   9.941   2.242  10.093  0.9085 -0.6167  1.4041
  418MOL0     H56371  10.104   2.432   9.906 -0.2470  1.2127 -0.7941
  418MOL0     H56372  10.023   2.300   9.835  0.3988  2.2322 -1.7292
  418MOL0     H56373   9.801   2.381   9.913  1.0933 -0.0721 -2.4086
  418MOL0     H56374   9.877   2.493  10.021  0.1776 -0.4148 -0.1156
  418MOL0     H56375   9.947   2.616   9.819  0.1744  0.3636 -0.3943
  418MOL0     H56376   9.854   2.495   9.714 -1.4976 -3.2705  0.9770
  418MOL0     H56377   9.656   2.532   9.808 -0.4020  0.7245 -1.9499
  418MOL0     H56378   9.710   2.651   9.928 -1.9368 -3.8275  2.1003
  418MOL0     H56379   9.590   2.742   9.696 -0.5045  1.2431  2.5546
  418MOL0     H56380   9.729   2.675   9.618 -0.4011 -2.0592  0.8635
  418MOL0     H56381   9.665   2.916   9.912 -0.5717 -1.0776 -0.4114
  418MOL0     H56382   9.787   3.218   9.904 -0.0108  0.3434  0.0530
  418MOL0     H56383   9.782   3.107  10.031  1.6065 -2.8676 -0.0234
  418MOL0     H56384   9.980   3.240  10.071  3.1038  0.1337  0.2769
  418MOL0     H56385  10.042   3.207   9.906 -2.0896 -0.2608 -1.7622
  418MOL0     H56386  10.043   2.959   9.973 -0.7908  0.2301 -0.8290
  418MOL0     H56387  10.013   3.002  10.134 -2.9953 -1.0532 -1.9876
  418MOL0     H56388  10.253   3.114   9.970  2.2996 -4.2643 -1.5008
  418MOL0     H56389  10.263   3.001  10.107 -2.8809 -0.4531  2.9523
  418MOL0     H56390  10.056   3.167  10.351 -0.0829 -1.7248  1.8118
  418MOL0     H56391   9.982   3.088  10.551 -1.1914  2.7050  0.7869
  418MOL0     H56392  10.087   2.984  10.649 -0.8482 -0.1168 -0.5149
  418MOL0     H56393  10.064   3.158  10.691 -1.6673 -0.8033  0.9869
  418MOL0     H56394  10.717   3.064  10.708  0.7460 -1.5260 -0.5042
  418MOL0     H56395  10.852   3.041  10.917  0.5863 -1.4259  1.6624
  418MOL0     H56396  10.613   3.046  11.285 -0.8524 -0.4590  2.0402
  418MOL0     H56397  10.626   2.877  11.278  0.2214  0.9892  0.8349
  418MOL0     H56398  10.818   2.871  11.410 -1.5704  0.0594 -1.4483
  418MOL0     H56399  10.871   3.030  11.350 -1.5206  1.3676 -2.7856
  418MOL0     H56400  10.634   2.988  11.525 -0.0764  1.4813 -0.7788
  418MOL0     H56401  10.697   3.153  11.491 -2.1317  1.4211  1.7748
  418MOL0     H56402  10.749   3.033  11.705  0.6569 -1.2956  0.5680
  418MOL0     H56403  10.881   2.953  11.634 -0.4611  1.6747  1.3227
  418MOL0     H56404  10.843   3.253  11.682  1.1428  0.7364  2.1922
  418MOL0     H56405  10.951   3.187  11.550 -1.8008  2.1656 -0.3392
  418MOL0     H56406  11.025   3.268  11.802 -0.1215  0.1313  0.7814
  418MOL0     H56407  10.952   3.107  11.832 -1.2908  2.0051  0.5886
  418MOL0     H56408  11.130   3.018  11.663  1.5577 -0.0641 -0.9795
  418MOL0     H56409  11.177   3.070  11.832 -0.9777 -0.6527 -0.4221
  418MOL0     H56410  11.278   3.264  11.730  0.5962  1.4257 -0.9707
  418MOL0     H56411  11.195   3.245  11.575  5.1633  4.3348 -1.0390
  418MOL0     H56412  10.538   2.828  11.095  3.0887 -0.1600  1.6629
  418MOL0     H56413  10.398   2.850  10.885  0.7098  0.0139  0.9554
  418MOL0     H56414  10.517   3.113  10.492 -0.2810  0.9369 -0.4186
  418MOL0     H56415  10.464   3.169  10.248 -1.7818  0.3948 -1.5769
  418MOL0     H56416  10.205   2.279  10.438  1.3509  0.9551  0.8322
  418MOL0     H56417  10.278   2.141  10.631 -2.0345 -0.6629 -0.8916
  418MOL0     H56418  10.838   1.787  10.672  4.0154 -1.2489  3.5818
  418MOL0     H56419  10.908   1.676  10.871  0.6605  2.0433  1.1523
  418MOL0     H56420  10.800   1.810  11.238  1.1882 -0.5157 -2.5748
  418MOL0     H56421  10.639   1.729  11.247  0.0191  1.3803  0.4058
  418MOL0     H56422  10.751   1.667  11.448  3.5028 -0.1430  2.2936
  418MOL0     H56423  10.904   1.644  11.353  0.9006 -0.2380 -1.1332
  418MOL0     H56424  10.836   1.452  11.242  2.1127  0.2745  1.2961
  418MOL0     H56425  10.665   1.479  11.289  0.2996  0.8553 -1.4479
  418MOL0     H56426  10.768   1.428  11.532  2.4312 -0.1211  1.1028
  418MOL0     H56427  10.910   1.379  11.452  0.1156  0.5926 -2.1808
  418MOL0     H56428  10.626   1.069  11.425 -0.0711  0.4411  1.2941
  418MOL0     H56429  10.540   1.798  11.074 -2.5905 -1.0387 -1.5948
  418MOL0     H56430  10.482   1.921  10.864 -0.4183  0.1477  1.7771
  419MOL0     O56431   2.336   7.860   5.077 -0.1811  0.0609  0.7866
  419MOL0     C56432   2.392   7.878   4.965  0.7470  0.2912  0.9764
  419MOL0     O56433   2.419   8.002   4.917 -0.4309  0.4268 -0.0304
  419MOL0     C56434   2.392   8.108   5.001  0.6880  0.4780  0.0557
  419MOL0     C56435   2.494   8.174   5.069  0.1081 -0.8434  0.6852
  419MOL0     C56436   2.480   8.277   5.160  0.6075  0.3238 -0.3105
  419MOL0     C56437   2.353   8.323   5.191 -0.1716  0.9942 -0.5560
  419MOL0     O56438   2.356   8.432   5.281  0.0595  0.4740  0.5220
  419MOL0     C56439   2.226   8.495   5.293 -0.8734  0.5379  0.1835
  419MOL0     C56440   2.222   8.604   5.380  0.4658  0.0976  0.1218
  419MOL0     C56441   2.085   8.676   5.379  0.0873  0.0309  0.4859
  419MOL0     C56442   2.053   8.743   5.510 -0.6325  0.5101 -1.4065
  419MOL0     C56443   1.941   8.848   5.504 -0.4068 -0.0030  0.1288
  419MOL0     C56444   1.922   8.927   5.645  0.0036  0.4212  1.1519
  419MOL0     C56445   2.040   9.013   5.692 -0.1023  0.6829 -0.0573
  419MOL0     C56446   2.071   9.123   5.599  0.3332  0.9777 -0.4880
  419MOL0     N56447   1.964   9.226   5.584  0.5520 -0.3010 -0.5664
  419MOL0     C56448   1.969   9.331   5.503  0.1939  0.9048  0.2879
  419MOL0     C56449   1.863   9.415   5.524 -0.1921  0.3376 -0.0697
  419MOL0     C56450   1.846   9.546   5.464 -0.7866  0.1394 -0.3314
  419MOL0     C56451   1.762   9.547   5.341 -0.0271 -0.5795 -0.4347
  419MOL0     C56452   1.622   9.506   5.368  0.7082  0.4320  0.7856
  419MOL0     C56453   1.516   9.538   5.261  0.0897 -0.2191 -0.6904
  419MOL0     O56454   1.517   9.429   5.164  0.3664 -0.0206 -0.5522
  419MOL0     C56455   1.403   9.388   5.101 -0.6928 -0.1471 -0.2519
  419MOL0     C56456   1.286   9.462   5.091 -0.5747  0.2041  0.4336
  419MOL0     C56457   1.178   9.419   5.014 -0.4672 -0.1569 -0.7919
  419MOL0     C56458   1.082   9.531   4.967 -1.3201  0.7604  0.7195
  419MOL0     C56459   1.186   9.284   4.960  0.2815  0.4262 -0.3126
  419MOL0     C56460   1.083   9.233   4.861  0.6635 -0.0498 -0.0334
  419MOL0     O56461   0.978   9.306   4.816 -0.1508  0.3622 -0.2138
  419MOL0     C56462   0.858   9.249   4.801 -0.7217 -0.7314  0.4223
  419MOL0     C56463   0.770   9.301   4.701  0.1584 -0.0551 -0.2260
  419MOL0     C56464   0.640   9.240   4.681 -0.5572 -1.0129  0.2143
  419MOL0     C56465   0.613   9.121   4.743  0.1451  0.7836  0.0922
  419MOL0     O56466   0.495   9.057   4.719 -0.5365  0.0549 -0.0760
  419MOL0     C56467   0.450   9.041   4.584 -0.8283 -0.5951  0.0549
  419MOL0     C56468   0.485   8.897   4.531 -0.2065 -0.7665 -0.2244
  419MOL0     C56469   0.627   8.856   4.525 -0.0096 -0.6793 -1.3247
  419MOL0     C56470   0.642   8.718   4.454  0.7361 -0.4679 -0.1930
  419MOL0     C56471   0.785   8.670   4.436 -0.3091 -0.1544 -0.2091
  419MOL0     C56472   0.789   8.545   4.353 -0.0775  0.0095  1.0779
  419MOL0     C56473   0.931   8.491   4.353  0.1478  0.5809  0.0054
  419MOL0     C56474   0.934   8.355   4.296 -0.4033  0.1086 -0.6012
  419MOL0    Cl56475   0.896   8.365   4.117 -0.0301  0.3554 -0.4482
  419MOL0     C56476   0.692   9.069   4.840 -0.3130 -0.2424 -0.5110
  419MOL0     C56477   0.814   9.136   4.879 -0.6278 -0.0118  0.2749
  419MOL0     O56478   1.102   9.110   4.842 -0.5745 -0.8568  0.5679
  419MOL0     C56479   1.294   9.193   4.993 -0.5115 -0.9855  0.6930
  419MOL0     C56480   1.403   9.253   5.057  0.1916 -0.3595  0.5125
  419MOL0     N56481   1.798   9.358   5.631 -0.0019  0.2621  0.4152
  419MOL0     N56482   1.843   9.242   5.655  0.4837  0.5353 -0.2460
  419MOL0     C56483   2.244   8.257   5.126  0.0251 -0.6472  0.4284
  419MOL0     C56484   2.260   8.154   5.038 -0.9990  0.5501  0.5801
  419MOL0     C56485   2.436   7.765   4.882 -0.4878  0.8753 -0.6416
  419MOL0     C56486   2.465   7.767   4.743  0.8040 -0.4437  0.3675
  419MOL0     C56487   2.503   7.654   4.673  0.2556 -0.1575  0.7424
  419MOL0     C56488   2.527   7.536   4.746 -0.3789 -0.1173 -0.3283
  419MOL0     O56489   2.561   7.407   4.706 -0.1381  0.7749  0.5479
  419MOL0     C56490   2.575   7.387   4.559 -0.6173  1.3938  0.0096
  419MOL0     C56491   2.720   7.405   4.510 -0.0897 -0.3753  0.5630
  419MOL0     C56492   2.733   7.353   4.366 -0.0323 -0.2549 -0.3704
  419MOL0     C56493   2.679   7.446   4.262 -1.1890  0.6579  0.7607
  419MOL0     C56494   2.731   7.396   4.134 -0.4039  0.3918 -0.6651
  419MOL0     C56495   2.780   7.347   4.035 -0.7429  0.6812  0.0063
  419MOL0     C56496   2.487   7.530   4.880 -0.2171  0.0220  0.5052
  419MOL0     C56497   2.441   7.645   4.948 -0.1006  0.9629 -0.9187
  419MOL0     H56498   2.593   8.148   5.035  0.3412  2.9656 -2.1406
  419MOL0     H56499   2.567   8.326   5.203 -1.3171  3.3687  0.4284
  419MOL0     H56500   2.198   8.526   5.192 -1.9117 -0.7484  0.0496
  419MOL0     H56501   2.155   8.418   5.325  1.3883 -2.1487 -0.9010
  419MOL0     H56502   2.231   8.565   5.481  1.3066  2.1786  0.9157
  419MOL0     H56503   2.298   8.676   5.347  0.6640 -0.3481 -0.4115
  419MOL0     H56504   2.091   8.752   5.301  2.4599 -1.0652 -0.5158
  419MOL0     H56505   2.008   8.602   5.355 -1.4943  1.3921  1.1686
  419MOL0     H56506   2.033   8.656   5.573 -0.0388  0.0860 -1.7914
  419MOL0     H56507   2.144   8.791   5.549  0.7723 -2.5946 -0.4895
  419MOL0     H56508   1.973   8.916   5.425 -0.5261 -0.0444  0.0438
  419MOL0     H56509   1.845   8.810   5.467  0.9876 -2.3077 -1.3932
  419MOL0     H56510   1.835   8.992   5.633 -0.6899 -0.7808 -0.7488
  419MOL0     H56511   1.906   8.854   5.724  1.0708 -1.1267  0.0063
  419MOL0     H56512   2.031   9.055   5.793  2.5994  1.1201  0.0885
  419MOL0     H56513   2.118   8.939   5.711  0.2732  1.5457  2.1307
  419MOL0     H56514   2.091   9.082   5.500  3.2897  1.5261 -0.1893
  419MOL0     H56515   2.170   9.167   5.612  1.1902 -0.9905 -0.0398
  419MOL0     H56516   2.045   9.350   5.428 -1.6575  4.4569 -0.8711
  419MOL0     H56517   1.797   9.608   5.539  1.7938  1.3123  0.5242
  419MOL0     H56518   1.950   9.573   5.441 -0.0479 -2.6215 -0.5649
  419MOL0     H56519   1.821   9.484   5.274  1.2834  0.5201 -0.3554
  419MOL0     H56520   1.750   9.648   5.300  0.8837  0.5118  1.8101
  419MOL0     H56521   1.580   9.534   5.465 -1.2121 -0.7812  0.3504
  419MOL0     H56522   1.639   9.398   5.375  1.1766  0.4275 -0.3077
  419MOL0     H56523   1.524   9.626   5.197 -2.2229  0.3352 -0.3069
  419MOL0     H56524   1.422   9.551   5.316  0.7492 -1.1436  0.7260
  419MOL0     H56525   1.284   9.563   5.133  2.6771  1.2221 -1.4980
  419MOL0     H56526   1.093   9.537   4.858  0.4883  0.0735  0.8194
  419MOL0     H56527   0.977   9.506   4.982 -0.8880 -1.9421 -0.1070
  419MOL0     H56528   1.102   9.628   5.014 -0.1711  1.4754 -1.1334
  419MOL0     H56529   0.791   9.394   4.649 -0.2268  1.5076  2.2597
  419MOL0     H56530   0.572   9.297   4.619  0.2520 -3.4965 -3.3108
  419MOL0     H56531   0.341   9.053   4.583 -1.0902 -2.2360 -2.8050
  419MOL0     H56532   0.503   9.106   4.514  0.3311 -1.1881  0.3614
  419MOL0     H56533   0.442   8.829   4.605 -1.8155  1.7368  1.2498
  419MOL0     H56534   0.442   8.883   4.431 -0.3668 -2.1187  0.0102
  419MOL0     H56535   0.657   8.838   4.629 -3.0981  1.0820  0.0198
  419MOL0     H56536   0.686   8.936   4.480 -2.8842  0.1174 -4.0036
  419MOL0     H56537   0.582   8.637   4.497 -3.5861  2.9290  1.0013
  419MOL0     H56538   0.599   8.727   4.353  1.6997 -3.4650 -0.9594
  419MOL0     H56539   0.833   8.639   4.529 -0.7342  0.8677  0.3688
  419MOL0     H56540   0.847   8.743   4.382 -0.8675 -0.3659 -1.1667
  419MOL0     H56541   0.717   8.464   4.371  1.6357 -2.5114 -2.3284
  419MOL0     H56542   0.764   8.585   4.254  0.5161  0.7269  1.2101
  419MOL0     H56543   0.948   8.462   4.457 -2.6296 -3.8598 -0.5147
  419MOL0     H56544   1.005   8.553   4.301  0.5105 -0.6957 -1.0559
  419MOL0     H56545   0.869   8.288   4.353 -1.3876  2.5887  1.3919
  419MOL0     H56546   1.035   8.314   4.308 -0.4375  0.5530  1.5955
  419MOL0     H56547   0.669   8.980   4.896 -3.1658  0.6005 -0.2055
  419MOL0     H56548   0.883   9.088   4.947 -1.8440 -0.3755  1.2932
  419MOL0     H56549   1.313   9.092   4.957 -2.5294 -1.1385 -0.1029
  419MOL0     H56550   1.490   9.191   5.075  0.1550 -1.0855 -1.5617
  419MOL0     H56551   2.143   8.281   5.158  1.2149  0.6859  3.5791
  419MOL0     H56552   2.170   8.114   4.992  0.6331 -1.4019 -1.1424
  419MOL0     H56553   2.456   7.855   4.680  0.4943 -0.7598 -0.0299
  419MOL0     H56554   2.523   7.656   4.567  1.1774 -0.7268  0.8862
  419MOL0     H56555   2.543   7.289   4.524  2.0265  0.2949  0.4207
  419MOL0     H56556   2.522   7.462   4.498 -0.0696  2.0595  0.3325
  419MOL0     H56557   2.794   7.354   4.572  0.5693 -0.2994 -0.1395
  419MOL0     H56558   2.743   7.511   4.496 -1.0368  0.1823  2.8532
  419MOL0     H56559   2.690   7.252   4.363  1.5224 -1.1584  2.8947
  419MOL0     H56560   2.838   7.342   4.340  0.4142  1.1434  0.7016
  419MOL0     H56561   2.724   7.546   4.270  1.0612 -0.1237 -1.0385
  419MOL0     H56562   2.571   7.459   4.256 -1.0825  1.4671  0.4372
  419MOL0     H56563   2.835   7.310   3.950 -3.1499  0.2497 -1.4637
  419MOL0     H56564   2.499   7.434   4.928  1.4611 -1.2547 -2.2240
  419MOL0     H56565   2.407   7.638   5.051 -1.6065 -2.3471 -1.5005
  420MOL0     O56566   8.897   1.071   5.016 -0.4171 -0.4597 -0.6178
  420MOL0     C56567   8.907   1.036   5.128 -0.0465  0.9471 -0.4315
  420MOL0     O56568   8.806   0.975   5.197 -0.1712 -0.0073  0.1684
  420MOL0     C56569   8.685   0.951   5.136 -0.9611  1.3040  0.3502
  420MOL0     C56570   8.605   1.062   5.120 -0.1503 -0.2417  0.5386
  420MOL0     C56571   8.484   1.050   5.038 -0.7488  0.4106  0.1678
  420MOL0     C56572   8.446   0.923   4.991 -0.7602  0.2937 -0.3331
  420MOL0     O56573   8.328   0.909   4.928  0.1807  0.2587  0.2010
  420MOL0     C56574   8.199   0.958   4.984  0.1744  0.5919 -0.1204
  420MOL0     C56575   8.164   0.856   5.090  0.6570 -0.2305  0.0044
  420MOL0     C56576   8.015   0.870   5.112  0.0565 -0.6350  0.2485
  420MOL0     C56577   7.948   0.777   5.210  0.8191  0.2999 -0.2055
  420MOL0     C56578   7.798   0.786   5.218  0.7050  0.3641 -0.6819
  420MOL0     C56579   7.746   0.701   5.328 -0.8179 -1.0007 -0.3177
  420MOL0     C56580   7.595   0.740   5.346 -0.2329 -0.4928 -0.3167
  420MOL0     C56581   7.540   0.705   5.490 -0.2028 -0.1056 -0.0529
  420MOL0     N56582   7.563   0.565   5.526  0.6210  0.1058 -0.4385
  420MOL0     C56583   7.678   0.498   5.551  0.1100 -0.0711  0.8474
  420MOL0     C56584   7.649   0.373   5.553 -0.8429  0.2421  0.1903
  420MOL0     C56585   7.745   0.255   5.563 -1.5240 -0.2139 -0.9653
  420MOL0     C56586   7.850   0.253   5.454 -0.6637 -0.5347  0.2171
  420MOL0     C56587   7.783   0.230   5.318  0.1624  0.3017  0.6829
  420MOL0     C56588   7.879   0.248   5.198  0.5963 -0.7980 -0.3573
  420MOL0     O56589   7.987   0.152   5.192  0.3589 -0.3272  0.2364
  420MOL0     C56590   7.961   0.024   5.159 -0.1618  0.6941  0.2204
  420MOL0     C56591   8.057  -0.065   5.174 -1.3244  0.6746  0.5046
  420MOL0     C56592   8.046  -0.202   5.132  0.2692  0.1599  1.3332
  420MOL0     C56593   8.170  -0.286   5.164 -0.1090  0.4456  0.2044
  420MOL0     C56594   7.933  -0.246   5.063  0.9490  0.3381  0.2730
  420MOL0     C56595   7.914  -0.390   5.022  0.3935  0.3648  0.1577
  420MOL0     O56596   7.818  -0.416   4.926  0.5611 -0.6185 -0.1122
  420MOL0     C56597   7.804  -0.546   4.883 -0.3828 -0.0223  0.3463
  420MOL0     C56598   7.744  -0.643   4.973 -1.1650  0.0885 -0.2667
  420MOL0     C56599   7.719  -0.771   4.935 -0.1712 -0.6098  0.1948
  420MOL0     C56600   7.765  -0.820   4.816 -0.0758  0.8302  0.5024
  420MOL0     O56601   7.767  -0.957   4.791 -0.2704 -0.2161 -1.0650
  420MOL0     C56602   7.650  -1.034   4.805  0.7776 -0.0962  0.7506
  420MOL0     C56603   7.638  -1.126   4.928  0.5257 -0.2769  0.2165
  420MOL0     C56604   7.507  -1.196   4.916 -0.3285  0.2139 -0.7376
  420MOL0     C56605   7.485  -1.292   5.041 -0.4799  0.1435  0.7805
  420MOL0     C56606   7.350  -1.356   5.057  0.3847 -0.5164  0.1812
  420MOL0     C56607   7.304  -1.417   4.923 -0.0322 -0.4281  0.6605
  420MOL0     C56608   7.174  -1.492   4.945  0.7381 -0.3968 -0.5906
  420MOL0     C56609   7.056  -1.411   4.995  0.1556 -0.2454 -0.5189
  420MOL0    Cl56610   7.017  -1.288   4.883 -0.1114  0.2718 -0.3429
  420MOL0     C56611   7.843  -0.735   4.734 -0.5501 -0.2306  0.3567
  420MOL0     C56612   7.861  -0.593   4.760 -0.0315  0.3540 -0.2997
  420MOL0     O56613   7.972  -0.487   5.076 -0.0053 -0.1918  0.0118
  420MOL0     C56614   7.826  -0.149   5.042 -0.5594  1.0909  0.3748
  420MOL0     C56615   7.846  -0.022   5.091 -0.1067  0.6057  0.2214
  420MOL0     N56616   7.516   0.358   5.545 -0.5790  0.0715 -0.0806
  420MOL0     N56617   7.466   0.471   5.532  0.6122 -0.0173  0.1515
  420MOL0     C56618   8.528   0.810   5.020 -0.1109 -0.5303  0.2084
  420MOL0     C56619   8.648   0.822   5.091 -0.3480 -1.1929 -0.1659
  420MOL0     C56620   9.037   1.047   5.188 -0.4405  0.3476 -0.5280
  420MOL0     C56621   9.151   1.078   5.115  0.2713  0.7691 -0.4508
  420MOL0     C56622   9.277   1.094   5.179  0.1261 -0.1736  0.3682
  420MOL0     C56623   9.292   1.063   5.313  0.5063  0.0838 -0.0082
  420MOL0     O56624   9.409   1.050   5.387 -0.2792  0.2805  0.3484
  420MOL0     C56625   9.498   1.168   5.403 -0.3228 -0.7955 -0.7841
  420MOL0     C56626   9.633   1.149   5.338  0.5763 -0.2151  0.3703
  420MOL0     C56627   9.709   1.281   5.327  0.1783 -0.0957 -0.0382
  420MOL0     C56628   9.633   1.395   5.274  0.2000 -0.0322 -0.4666
  420MOL0     C56629   9.571   1.362   5.134 -0.1330 -1.3608 -0.7292
  420MOL0     C56630   9.525   1.343   5.024  0.2024 -0.3593 -0.1468
  420MOL0     C56631   9.182   1.026   5.390  0.2781  0.5434  0.3879
  420MOL0     C56632   9.060   1.014   5.332 -0.0618  0.0217  0.0590
  420MOL0     H56633   8.642   1.154   5.162 -1.9278 -0.4181  2.6404
  420MOL0     H56634   8.424   1.137   5.014 -0.7096  0.2304 -0.6354
  420MOL0     H56635   8.195   1.062   5.018 -2.4214 -0.0500  1.9369
  420MOL0     H56636   8.120   0.949   4.908 -0.8726  1.7634  0.7876
  420MOL0     H56637   8.197   0.758   5.056  1.3477  0.5500 -1.6881
  420MOL0     H56638   8.217   0.883   5.183  0.2295  0.6190  0.0069
  420MOL0     H56639   8.011   0.973   5.147  2.1755  0.0086 -1.2324
  420MOL0     H56640   7.969   0.864   5.013  1.2156 -2.8899 -0.2325
  420MOL0     H56641   7.971   0.678   5.168 -2.3808  0.2782 -2.2770
  420MOL0     H56642   7.998   0.773   5.307  2.2308 -2.4798 -0.9420
  420MOL0     H56643   7.771   0.890   5.235  2.5346  0.6918  0.4600
  420MOL0     H56644   7.755   0.746   5.125  0.1797  0.2679 -0.4021
  420MOL0     H56645   7.770   0.599   5.296  1.2166 -0.4685 -0.6558
  420MOL0     H56646   7.799   0.734   5.417 -4.8110  0.6388  1.7204
  420MOL0     H56647   7.571   0.843   5.319  1.5276 -0.2084 -0.9561
  420MOL0     H56648   7.543   0.682   5.270 -0.0037 -0.1610 -0.7307
  420MOL0     H56649   7.432   0.718   5.495 -0.2326  0.8588 -2.1565
  420MOL0     H56650   7.592   0.755   5.573 -1.7395  2.1078 -0.3450
  420MOL0     H56651   7.771   0.552   5.566  1.0152 -1.4217  0.2794
  420MOL0     H56652   7.794   0.255   5.661  1.3673  0.8764 -2.2889
  420MOL0     H56653   7.693   0.159   5.567  0.8435 -1.6179  3.7419
  420MOL0     H56654   7.932   0.181   5.459  0.4485  0.4203 -2.5803
  420MOL0     H56655   7.900   0.350   5.447 -0.8218 -0.5128 -0.6158
  420MOL0     H56656   7.706   0.307   5.304 -1.4855 -1.5971 -1.4706
  420MOL0     H56657   7.738   0.131   5.319  1.4384 -0.3509 -1.2483
  420MOL0     H56658   7.936   0.340   5.212  2.7124 -2.1031  0.0238
  420MOL0     H56659   7.823   0.274   5.107  3.0135  2.0448 -1.1961
  420MOL0     H56660   8.138  -0.035   5.240 -2.3110 -2.9865  3.7452
  420MOL0     H56661   8.262  -0.227   5.179 -0.0909  0.0724  1.7389
  420MOL0     H56662   8.143  -0.344   5.253 -4.4352  1.4630 -0.2566
  420MOL0     H56663   8.195  -0.358   5.085  2.5223 -0.1341  1.4470
  420MOL0     H56664   7.708  -0.611   5.070 -1.0708  2.6499 -0.9980
  420MOL0     H56665   7.676  -0.843   5.004  0.1569 -1.1670 -0.1828
  420MOL0     H56666   7.557  -0.977   4.802  0.9763  0.2145  0.4229
  420MOL0     H56667   7.655  -1.102   4.719 -0.9857 -2.6133  2.4860
  420MOL0     H56668   7.729  -1.187   4.926  0.1285 -0.8661 -0.2567
  420MOL0     H56669   7.634  -1.069   5.021 -0.4095 -0.3267  0.2130
  420MOL0     H56670   7.504  -1.259   4.827 -2.8750  0.7324 -1.0964
  420MOL0     H56671   7.436  -1.113   4.915  0.2943  0.8931  1.8537
  420MOL0     H56672   7.556  -1.376   5.038 -0.1619  0.3873  1.3702
  420MOL0     H56673   7.509  -1.237   5.132 -1.6826 -0.4170  1.4657
  420MOL0     H56674   7.282  -1.276   5.086  1.7743  1.3765 -1.4964
  420MOL0     H56675   7.342  -1.425   5.142  2.5428  3.0384  3.5682
  420MOL0     H56676   7.288  -1.339   4.848 -3.1210 -1.1022  0.4931
  420MOL0     H56677   7.382  -1.486   4.890 -0.2184  0.8733 -3.0147
  420MOL0     H56678   7.186  -1.573   5.017 -0.0227  0.0532  0.0454
  420MOL0     H56679   7.149  -1.543   4.851 -1.7271 -0.7431  0.1945
  420MOL0     H56680   7.077  -1.369   5.094 -2.6122 -2.5538  1.2116
  420MOL0     H56681   6.961  -1.465   5.005 -0.6851  1.2950  0.0628
  420MOL0     H56682   7.879  -0.778   4.641 -2.1282 -0.8550  0.0114
  420MOL0     H56683   7.924  -0.527   4.702 -1.3751 -0.2197 -2.5522
  420MOL0     H56684   7.738  -0.175   4.983  0.6638  0.1089 -1.0860
  420MOL0     H56685   7.773   0.057   5.076  0.0459  0.6268 -0.4871
  420MOL0     H56686   8.502   0.712   4.983 -1.1013  0.9298 -3.4117
  420MOL0     H56687   8.714   0.739   5.114  4.6685  1.6031 -2.7368
  420MOL0     H56688   9.144   1.100   5.009 -2.2422  1.6455 -0.1671
  420MOL0     H56689   9.362   1.121   5.117  0.5693 -1.5155  0.3643
  420MOL0     H56690   9.441   1.258   5.375  2.0481  0.6847 -1.1586
  420MOL0     H56691   9.512   1.169   5.512 -4.1195 -2.7156 -0.1192
  420MOL0     H56692   9.624   1.104   5.239 -2.3379 -2.1628  1.4041
  420MOL0     H56693   9.694   1.083   5.401  0.4329 -2.6191 -1.8466
  420MOL0     H56694   9.801   1.272   5.269 -1.1107  2.5843 -2.7487
  420MOL0     H56695   9.741   1.306   5.429  1.1168 -0.8004 -0.1438
  420MOL0     H56696   9.703   1.479   5.269 -0.4508  0.6315  1.0518
  420MOL0     H56697   9.554   1.427   5.342  1.8415  0.4401  1.2860
  420MOL0     H56698   9.490   1.319   4.926  2.9773  1.5241 -1.7407
  420MOL0     H56699   9.202   0.993   5.491  0.1907  0.5519  0.4081
  420MOL0     H56700   8.978   0.966   5.383 -0.7781 -0.2606 -1.3029
  421MOL0     O56701   3.145   3.127   8.939  0.3398  0.6868 -0.1380
  421MOL0     C56702   3.185   3.022   8.979 -0.1260  0.3478  0.2988
  421MOL0     O56703   3.106   2.908   9.006  0.1599 -0.2489  0.3977
  421MOL0     C56704   2.981   2.906   8.952  0.6411  0.5558 -0.4706
  421MOL0     C56705   2.866   2.900   9.035 -0.2471 -0.1691  0.1198
  421MOL0     C56706   2.732   2.930   8.997 -0.6844 -0.6950 -0.3733
  421MOL0     C56707   2.722   2.949   8.861 -0.4646  0.1251  0.4145
  421MOL0     O56708   2.595   2.961   8.813  0.0888 -0.0020  0.9924
  421MOL0     C56709   2.567   3.093   8.770 -0.1322  0.3608  1.0453
  421MOL0     C56710   2.438   3.126   8.839 -0.6430  0.7120  0.1533
  421MOL0     C56711   2.403   3.274   8.847 -0.4024 -0.5138 -0.3911
  421MOL0     C56712   2.472   3.349   8.971 -0.2470 -1.7347 -0.9430
  421MOL0     C56713   2.404   3.478   9.015 -1.0342 -0.0211 -0.0897
  421MOL0     C56714   2.379   3.563   8.891  0.0945  1.0331  0.7357
  421MOL0     C56715   2.339   3.713   8.903  0.4691  0.2229 -0.2712
  421MOL0     C56716   2.426   3.793   9.001 -0.7697 -0.3602 -0.8056
  421MOL0     N56717   2.571   3.791   8.967 -0.4910 -0.1530 -0.0434
  421MOL0     C56718   2.664   3.697   9.011  0.8969 -0.2000 -0.1930
  421MOL0     C56719   2.782   3.741   8.962 -0.5582  0.7549 -0.2803
  421MOL0     C56720   2.924   3.688   8.978 -0.1410 -0.8427 -0.2104
  421MOL0     C56721   2.932   3.560   8.899  1.7747  0.3744  0.4612
  421MOL0     C56722   3.071   3.503   8.891 -0.2488  0.4404  0.2463
  421MOL0     C56723   3.075   3.384   8.799  0.1649 -0.5932 -0.1821
  421MOL0     O56724   3.055   3.443   8.666 -0.5338  0.1716  0.1459
  421MOL0     C56725   2.974   3.372   8.585 -0.4351  0.5657  0.1523
  421MOL0     C56726   2.865   3.445   8.537  0.4216 -0.0139 -1.0078
  421MOL0     C56727   2.761   3.374   8.469  0.0585  0.7139 -0.1894
  421MOL0     C56728   2.642   3.463   8.428  0.3914 -0.4599 -0.5554
  421MOL0     C56729   2.785   3.238   8.419  0.5783 -0.2572 -0.7919
  421MOL0     C56730   2.678   3.168   8.344 -0.5982  0.0675 -0.5167
  421MOL0     O56731   2.727   3.079   8.254 -0.4285  0.6923  0.2188
  421MOL0     C56732   2.635   2.997   8.192  0.1182  0.1373  0.1676
  421MOL0     C56733   2.676   2.867   8.179  0.1106  0.6664 -0.1080
  421MOL0     C56734   2.602   2.773   8.106 -0.1920 -1.6924  0.7802
  421MOL0     C56735   2.488   2.814   8.034  0.8085 -1.3705  0.1088
  421MOL0     O56736   2.422   2.738   7.944  0.2484  0.5435 -0.5031
  421MOL0     C56737   2.374   2.772   7.820  0.8558 -0.5130 -0.6954
  421MOL0     C56738   2.328   2.640   7.753  0.5113  1.1467  0.4650
  421MOL0     C56739   2.280   2.670   7.609 -0.3375  0.3892  0.6059
  421MOL0     C56740   2.193   2.561   7.542  0.2889  0.3499 -1.2731
  421MOL0     C56741   2.134   2.595   7.402  0.1781 -1.2675  0.7199
  421MOL0     C56742   2.013   2.695   7.396 -0.5587 -0.2110 -0.0868
  421MOL0     C56743   1.884   2.665   7.474  0.3878  0.1043 -0.0461
  421MOL0     C56744   1.766   2.762   7.457 -0.5343 -0.2061  0.4890
  421MOL0    Cl56745   1.620   2.695   7.552 -0.4616 -0.0301 -0.0111
  421MOL0     C56746   2.444   2.947   8.067  0.0874 -0.1728  0.5547
  421MOL0     C56747   2.516   3.041   8.142  0.2390 -0.5780 -0.8093
  421MOL0     O56748   2.559   3.186   8.383  0.1954 -0.2476  0.7275
  421MOL0     C56749   2.909   3.180   8.448 -0.3247  0.2873 -0.8638
  421MOL0     C56750   2.995   3.240   8.541  0.0301 -1.3102  1.1095
  421MOL0     N56751   2.754   3.851   8.879 -0.6113  0.0027  0.1722
  421MOL0     N56752   2.631   3.884   8.889  0.2957  0.1491  0.0732
  421MOL0     C56753   2.836   2.942   8.770 -0.0555 -0.5752  0.5756
  421MOL0     C56754   2.965   2.941   8.814 -0.5456 -0.2235  0.7402
  421MOL0     C56755   3.318   3.022   9.044  0.3589  0.4009  0.0284
  421MOL0     C56756   3.401   2.903   9.062  0.6031 -0.4071 -0.7436
  421MOL0     C56757   3.523   2.919   9.118 -0.0177 -0.7083 -0.3075
  421MOL0     C56758   3.586   3.049   9.147  0.6517  1.0738  0.6685
  421MOL0     O56759   3.709   3.042   9.207 -0.0061 -0.0160 -0.1234
  421MOL0     C56760   3.765   3.159   9.269 -0.2966 -0.1529  0.1148
  421MOL0     C56761   3.850   3.231   9.171  0.0392 -0.4520 -0.1912
  421MOL0     C56762   3.913   3.364   9.213  0.6453  1.1407  0.1834
  421MOL0     C56763   4.016   3.431   9.117 -0.0550  0.3383  0.0681
  421MOL0     C56764   4.134   3.345   9.109  0.9803  0.8130  0.4010
  421MOL0     C56765   4.235   3.284   9.113 -0.6767  0.3559 -0.6179
  421MOL0     C56766   3.503   3.158   9.127 -0.5943 -1.2445  0.2473
  421MOL0     C56767   3.373   3.149   9.072 -0.4889  0.0316 -0.1201
  421MOL0     H56768   2.882   2.872   9.139  0.1419 -2.7704 -0.5651
  421MOL0     H56769   2.653   2.933   9.070 -2.2341  1.0120 -2.0243
  421MOL0     H56770   2.640   3.170   8.796  0.6934 -0.1885  0.4221
  421MOL0     H56771   2.572   3.092   8.661 -0.4720  2.5682  0.9686
  421MOL0     H56772   2.357   3.064   8.797 -1.3966  0.7357  1.5231
  421MOL0     H56773   2.435   3.094   8.943 -0.8772  1.6005  0.4252
  421MOL0     H56774   2.419   3.325   8.752  2.5097  1.8269  1.1592
  421MOL0     H56775   2.299   3.294   8.874 -0.4221  0.1380 -0.9258
  421MOL0     H56776   2.502   3.295   9.061  2.1914  0.3057 -0.3896
  421MOL0     H56777   2.570   3.374   8.929 -1.2555 -2.1811 -3.7741
  421MOL0     H56778   2.316   3.443   9.069  0.3301 -0.4174  1.9761
  421MOL0     H56779   2.463   3.531   9.090  0.8691  0.8632 -2.0977
  421MOL0     H56780   2.469   3.558   8.829 -0.6446 -0.3577 -0.2853
  421MOL0     H56781   2.299   3.519   8.830 -0.9584  1.7482  1.5665
  421MOL0     H56782   2.324   3.759   8.805  1.9468 -2.9991 -2.1753
  421MOL0     H56783   2.239   3.712   8.947 -0.6297  0.3225 -2.6136
  421MOL0     H56784   2.408   3.767   9.106 -5.5269  2.9696 -0.4478
  421MOL0     H56785   2.397   3.898   8.987  2.4569  0.9725  1.3154
  421MOL0     H56786   2.656   3.621   9.088  2.0225  0.0444  0.1788
  421MOL0     H56787   2.976   3.766   8.922 -0.8269 -0.8984 -0.9490
  421MOL0     H56788   2.947   3.688   9.085  0.2957  1.2109 -0.2678
  421MOL0     H56789   2.898   3.585   8.798 -0.7176  1.8115  1.5524
  421MOL0     H56790   2.861   3.488   8.942  1.7407  1.0639  1.5972
  421MOL0     H56791   3.083   3.460   8.991 -1.1305  0.1200  0.2220
  421MOL0     H56792   3.154   3.572   8.871  0.8089 -0.0711  2.4885
  421MOL0     H56793   2.995   3.315   8.828  1.2902 -1.5162  0.8666
  421MOL0     H56794   3.171   3.331   8.805 -0.0219 -1.2546 -2.0576
  421MOL0     H56795   2.864   3.547   8.572 -0.3526 -0.5032  0.4788
  421MOL0     H56796   2.646   3.564   8.469  2.4320 -0.7227  0.0366
  421MOL0     H56797   2.631   3.457   8.319  0.8493 -3.2098 -0.5318
  421MOL0     H56798   2.552   3.418   8.470  0.5884 -1.7546 -1.4414
  421MOL0     H56799   2.763   2.838   8.237 -0.5121 -0.6626  0.1977
  421MOL0     H56800   2.642   2.678   8.072 -1.8725 -2.0889 -0.1956
  421MOL0     H56801   2.295   2.847   7.830 -0.8820 -2.4379  0.8822
  421MOL0     H56802   2.455   2.824   7.769 -0.9423  1.2151 -1.9780
  421MOL0     H56803   2.417   2.577   7.744 -0.9047 -0.9174  0.1227
  421MOL0     H56804   2.251   2.581   7.804  0.6964 -1.6936 -2.2022
  421MOL0     H56805   2.375   2.691   7.560 -0.4804  0.0632  0.1863
  421MOL0     H56806   2.216   2.758   7.606 -2.3411 -0.9981  0.8276
  421MOL0     H56807   2.261   2.476   7.530  0.1081  0.2871 -1.8987
  421MOL0     H56808   2.116   2.527   7.612 -3.2553  1.7076 -4.1801
  421MOL0     H56809   2.103   2.497   7.363 -0.6502 -1.5849  2.0851
  421MOL0     H56810   2.207   2.633   7.331 -1.1009  2.3549  1.1336
  421MOL0     H56811   2.054   2.794   7.417 -0.1581 -0.4703  0.3591
  421MOL0     H56812   1.976   2.698   7.292 -1.6830  1.1129  0.3203
  421MOL0     H56813   1.899   2.643   7.580 -1.9957 -2.6888 -0.1344
  421MOL0     H56814   1.848   2.565   7.446 -0.8405  0.6192 -0.3597
  421MOL0     H56815   1.746   2.780   7.351  0.1823  1.7946  0.6539
  421MOL0     H56816   1.787   2.862   7.495 -0.0416  0.5930 -1.7093
  421MOL0     H56817   2.362   2.988   8.008  1.4789  2.1704  0.1368
  421MOL0     H56818   2.481   3.143   8.155 -3.1361 -1.8574  1.6636
  421MOL0     H56819   2.930   3.080   8.413 -1.9359  0.0881 -1.3463
  421MOL0     H56820   3.087   3.193   8.573 -1.1140 -3.3810  1.4838
  421MOL0     H56821   2.827   2.945   8.662  1.7390  5.3138  0.2239
  421MOL0     H56822   3.053   2.955   8.752 -1.1582  1.7001  0.2356
  421MOL0     H56823   3.362   2.804   9.045 -3.2822  0.5513  1.3701
  421MOL0     H56824   3.567   2.827   9.158  0.7207 -0.6271 -0.9084
  421MOL0     H56825   3.696   3.233   9.311  0.5432  1.0391 -0.5492
  421MOL0     H56826   3.827   3.136   9.356  2.3343  3.2819 -0.6291
  421MOL0     H56827   3.794   3.258   9.080  1.3277 -0.4471 -1.0128
  421MOL0     H56828   3.929   3.161   9.142  1.4494  0.9881  0.0097
  421MOL0     H56829   3.964   3.352   9.309 -0.7782 -2.0282  0.6527
  421MOL0     H56830   3.831   3.437   9.220 -0.7683 -0.1236 -2.0969
  421MOL0     H56831   4.031   3.533   9.154  0.8234  0.1923  0.1436
  421MOL0     H56832   3.969   3.429   9.019 -2.7014  1.8041  1.2047
  421MOL0     H56833   4.318   3.215   9.112 -2.4063 -1.8802  0.5677
  421MOL0     H56834   3.550   3.246   9.168  2.7743 -0.5532 -4.3306
  421MOL0     H56835   3.321   3.241   9.049  0.1025  1.3417  3.2975
  422MOL0     O56836   7.550   0.863   4.683 -0.4191 -0.5969 -0.0856
  422MOL0     C56837   7.670   0.892   4.665  0.3533 -0.2488  0.2508
  422MOL0     O56838   7.752   0.843   4.578  0.3540 -0.5319 -0.3647
  422MOL0     C56839   7.712   0.753   4.483 -0.8560  0.2327  0.7332
  422MOL0     C56840   7.787   0.638   4.468 -0.7475  0.7220  0.5909
  422MOL0     C56841   7.756   0.550   4.356  0.4714 -0.6253 -0.4309
  422MOL0     C56842   7.634   0.560   4.289 -0.0496 -0.3214  1.1731
  422MOL0     O56843   7.617   0.471   4.191 -0.1003 -0.0845 -0.1324
  422MOL0     C56844   7.486   0.436   4.143  0.1988 -0.4552  0.4565
  422MOL0     C56845   7.463   0.487   4.000  0.3349 -0.2590 -0.3239
  422MOL0     C56846   7.531   0.393   3.897 -0.5487 -0.0705 -0.3335
  422MOL0     C56847   7.599   0.467   3.772  0.1848 -0.1372 -0.6766
  422MOL0     C56848   7.620   0.362   3.655 -0.0698  0.1322  0.7626
  422MOL0     C56849   7.730   0.411   3.562  0.6705  0.0319 -0.2896
  422MOL0     C56850   7.684   0.538   3.485 -0.4428 -0.1416  0.7867
  422MOL0     C56851   7.612   0.531   3.348 -0.5734  0.1447 -0.5553
  422MOL0     N56852   7.483   0.458   3.371 -0.0249 -0.0068 -0.1353
  422MOL0     C56853   7.369   0.502   3.435 -1.0548 -1.4045  0.2922
  422MOL0     C56854   7.293   0.387   3.454  0.6225 -0.7093  1.0158
  422MOL0     C56855   7.154   0.372   3.517 -0.4254  0.1354 -0.2919
  422MOL0     C56856   7.048   0.446   3.442  0.4055 -0.0012  0.1240
  422MOL0     C56857   6.900   0.413   3.483  0.4108  0.7580 -0.2040
  422MOL0     C56858   6.850   0.297   3.402 -0.6285 -0.7605  0.5614
  422MOL0     O56859   6.716   0.266   3.422  0.7742  0.6534  0.1422
  422MOL0     C56860   6.669   0.137   3.394 -0.4173 -0.5901 -0.3858
  422MOL0     C56861   6.719   0.051   3.295  0.1807 -0.8751  0.9530
  422MOL0     C56862   6.662  -0.066   3.274  0.2454 -1.1642  0.6183
  422MOL0     C56863   6.724  -0.145   3.166 -0.1746 -0.2450 -1.1377
  422MOL0     C56864   6.558  -0.121   3.351  0.6185 -0.2893 -0.0661
  422MOL0     C56865   6.501  -0.252   3.334 -0.0939  0.7601 -0.5772
  422MOL0     O56866   6.366  -0.256   3.329  0.2147 -0.2248 -0.3741
  422MOL0     C56867   6.292  -0.375   3.312 -0.9091  0.1278  0.0633
  422MOL0     C56868   6.198  -0.375   3.213 -0.2978 -0.1226 -0.3616
  422MOL0     C56869   6.123  -0.485   3.174 -0.2821  0.5450 -0.3576
  422MOL0     C56870   6.149  -0.609   3.238  0.4984 -0.3336  0.1207
  422MOL0     O56871   6.084  -0.723   3.196 -0.2985  0.3561  0.0361
  422MOL0     C56872   6.142  -0.850   3.220 -0.2072 -0.5997  0.2620
  422MOL0     C56873   6.066  -0.960   3.146 -0.3860  0.0188 -0.9432
  422MOL0     C56874   6.124  -1.098   3.172  0.7567  0.1271 -0.2181
  422MOL0     C56875   6.052  -1.194   3.083  0.5475 -0.1598  0.3058
  422MOL0     C56876   6.102  -1.338   3.093 -0.4757 -1.0705  0.0080
  422MOL0     C56877   6.257  -1.353   3.060 -0.3341  0.1974  0.3168
  422MOL0     C56878   6.300  -1.503   3.041 -0.9499 -0.7995  0.0111
  422MOL0     C56879   6.211  -1.587   2.951 -0.3602 -0.3274 -0.1107
  422MOL0    Cl56880   6.286  -1.745   2.904  0.1388  0.5091  0.0819
  422MOL0     C56881   6.242  -0.610   3.346  0.2409 -0.2584  0.2212
  422MOL0     C56882   6.311  -0.495   3.375 -0.5285 -0.1606 -0.3987
  422MOL0     O56883   6.572  -0.352   3.311  0.5854 -0.0846  0.3560
  422MOL0     C56884   6.516  -0.035   3.452 -0.2514  0.5195  0.2855
  422MOL0     C56885   6.561   0.095   3.469 -0.6575 -0.4781  0.7160
  422MOL0     N56886   7.348   0.291   3.377  0.0690  0.8047 -0.5536
  422MOL0     N56887   7.464   0.328   3.335  0.5821  0.3186  0.0904
  422MOL0     C56888   7.554   0.676   4.313  0.4778 -0.5873  0.1060
  422MOL0     C56889   7.601   0.773   4.397  0.3620  0.1790  0.5081
  422MOL0     C56890   7.718   1.005   4.752  1.4502 -0.1614 -0.1885
  422MOL0     C56891   7.846   1.061   4.733  0.5077 -0.1758  0.1631
  422MOL0     C56892   7.908   1.140   4.825 -0.2732 -0.6960  0.2822
  422MOL0     C56893   7.844   1.167   4.939  0.2353  0.4514  0.1898
  422MOL0     O56894   7.911   1.242   5.029  0.0209  0.5010  0.2639
  422MOL0     C56895   7.856   1.296   5.145  0.7710 -0.4475  0.4812
  422MOL0     C56896   7.767   1.414   5.114  0.5692 -0.3422  0.2153
  422MOL0     C56897   7.810   1.511   5.009  0.4510  0.5237 -0.4492
  422MOL0     C56898   7.944   1.582   5.032 -0.2559 -0.3384  0.1852
  422MOL0     C56899   7.954   1.637   5.166 -1.1770  0.4637 -0.5392
  422MOL0     C56900   7.995   1.682   5.271  0.0350  0.0333 -0.9807
  422MOL0     C56901   7.711   1.127   4.954  0.7786 -0.9290 -1.1145
  422MOL0     C56902   7.645   1.048   4.862  1.2488 -0.3267  0.6128
  422MOL0     H56903   7.870   0.618   4.536 -0.7416 -1.1237  0.1160
  422MOL0     H56904   7.818   0.469   4.319  0.2261 -0.0533 -2.2162
  422MOL0     H56905   7.482   0.328   4.128  3.5016 -0.7092  0.7797
  422MOL0     H56906   7.402   0.459   4.209 -0.7909  1.0585 -1.2258
  422MOL0     H56907   7.357   0.498   3.977  0.5689  0.5543 -1.0630
  422MOL0     H56908   7.508   0.587   3.998  2.7705 -1.2858 -1.6531
  422MOL0     H56909   7.599   0.324   3.946  1.5181  2.1830  0.1655
  422MOL0     H56910   7.448   0.334   3.856 -0.3192 -2.0937  1.9339
  422MOL0     H56911   7.537   0.553   3.743  0.7664  0.3810 -0.3983
  422MOL0     H56912   7.696   0.512   3.793 -0.4164  1.5825 -1.3559
  422MOL0     H56913   7.635   0.259   3.689 -0.3935 -0.4755 -0.8195
  422MOL0     H56914   7.531   0.350   3.592  2.6720  0.2043 -3.5604
  422MOL0     H56915   7.825   0.418   3.617 -0.5572  1.0152  1.8079
  422MOL0     H56916   7.754   0.333   3.488  0.5927  0.4490 -0.7641
  422MOL0     H56917   7.624   0.601   3.552  0.2035  0.7730  0.5328
  422MOL0     H56918   7.773   0.597   3.459 -2.0515  1.8607 -0.4416
  422MOL0     H56919   7.677   0.485   3.273  0.5533 -1.4559  1.3059
  422MOL0     H56920   7.599   0.635   3.317 -1.7499 -0.7031 -3.1744
  422MOL0     H56921   7.347   0.603   3.468 -0.1748 -2.0401  3.0685
  422MOL0     H56922   7.132   0.267   3.540  2.3304 -0.8609 -1.6994
  422MOL0     H56923   7.152   0.422   3.614 -2.6599  0.0810 -0.2564
  422MOL0     H56924   7.062   0.453   3.333  2.0627  0.6069  0.3532
  422MOL0     H56925   7.050   0.554   3.460  1.4002  1.0583 -4.8022
  422MOL0     H56926   6.835   0.498   3.464 -0.1600  0.2845 -0.3878
  422MOL0     H56927   6.898   0.394   3.591 -3.5997 -0.0758 -0.2863
  422MOL0     H56928   6.912   0.209   3.421  1.6728 -0.1483 -3.0336
  422MOL0     H56929   6.851   0.312   3.293 -1.1169  1.4034  0.8012
  422MOL0     H56930   6.809   0.070   3.237 -0.8842  0.0318 -0.4758
  422MOL0     H56931   6.650  -0.208   3.116 -1.5245  0.4154 -0.0465
  422MOL0     H56932   6.780  -0.081   3.097 -0.0681  1.6462  0.6030
  422MOL0     H56933   6.805  -0.199   3.217  1.6132  1.8783 -1.5510
  422MOL0     H56934   6.183  -0.282   3.158  3.8418  0.2676 -1.1728
  422MOL0     H56935   6.044  -0.471   3.101 -2.6642  2.0950  2.3242
  422MOL0     H56936   6.246  -0.855   3.187  0.3609  1.7118  1.4733
  422MOL0     H56937   6.150  -0.858   3.329  1.1797  3.4111  0.6238
  422MOL0     H56938   5.962  -0.953   3.179  0.4546  0.5608  1.8077
  422MOL0     H56939   6.071  -0.940   3.038 -0.0602  1.3771 -0.6929
  422MOL0     H56940   6.110  -1.128   3.276  0.7416 -3.3249 -1.1004
  422MOL0     H56941   6.232  -1.103   3.156  1.6534  0.3285  4.3729
  422MOL0     H56942   5.945  -1.188   3.105  1.0557 -1.2189  3.7077
  422MOL0     H56943   6.068  -1.162   2.980 -1.0393 -2.9694 -0.9375
  422MOL0     H56944   6.040  -1.377   3.012  1.6979  1.3805 -3.0696
  422MOL0     H56945   6.088  -1.385   3.191  2.6541 -2.1579  0.0318
  422MOL0     H56946   6.270  -1.298   2.967 -2.1552 -0.5306 -0.4163
  422MOL0     H56947   6.324  -1.315   3.138  0.0254  0.0770  0.0672
  422MOL0     H56948   6.317  -1.559   3.133 -1.3132  1.5372  1.5713
  422MOL0     H56949   6.391  -1.492   2.982 -1.1816 -1.8983 -0.5805
  422MOL0     H56950   6.184  -1.530   2.861 -3.1565 -1.5321 -0.1651
  422MOL0     H56951   6.114  -1.609   2.997 -0.9027  3.9567  1.2418
  422MOL0     H56952   6.262  -0.695   3.410 -1.0673 -0.7540  0.0042
  422MOL0     H56953   6.402  -0.493   3.433 -0.5630  0.4875 -0.3590
  422MOL0     H56954   6.442  -0.084   3.515  1.0645 -2.7410 -0.5167
  422MOL0     H56955   6.523   0.163   3.544 -0.2281  0.4935  0.0750
  422MOL0     H56956   7.464   0.692   4.254  1.6770 -1.9264 -2.2657
  422MOL0     H56957   7.542   0.863   4.407  1.3562  0.7366  1.5776
  422MOL0     H56958   7.904   1.043   4.643 -0.4077 -1.1729 -0.2460
  422MOL0     H56959   8.004   1.183   4.799  0.4682 -3.5459 -2.2502
  422MOL0     H56960   7.808   1.214   5.199 -4.1976 -0.9669 -3.8649
  422MOL0     H56961   7.942   1.336   5.199 -0.4066  1.0245  1.3623
  422MOL0     H56962   7.754   1.469   5.207 -1.5910  1.4707 -1.0583
  422MOL0     H56963   7.664   1.381   5.093  0.0952  0.1771  1.6030
  422MOL0     H56964   7.733   1.588   5.002  1.3309  1.5384  0.5106
  422MOL0     H56965   7.800   1.471   4.908  0.8645 -1.1009  0.1337
  422MOL0     H56966   7.956   1.661   4.957  0.3690 -2.7713 -2.4682
  422MOL0     H56967   8.030   1.515   5.028  1.7727  2.0642  0.4691
  422MOL0     H56968   8.014   1.713   5.372  1.8067 -0.4632 -1.1293
  422MOL0     H56969   7.660   1.155   5.046  3.9909  3.4108 -0.3407
  422MOL0     H56970   7.540   1.020   4.869  1.4424 -1.5100 -0.7551
  423MOL0     O56971  10.859   1.747   0.363 -0.8359  0.0475  0.2262
  423MOL0     C56972  10.873   1.799   0.258  0.5498 -0.6708 -0.1543
  423MOL0     O56973  10.946   1.745   0.157  0.8373  0.0732  0.2476
  423MOL0     C56974  11.018   1.631   0.163 -0.1047 -0.3234  0.2229
  423MOL0     C56975  11.112   1.620   0.057  0.2319  0.0967  0.2377
  423MOL0     C56976  11.203   1.510   0.045 -0.2240  0.4291  1.0253
  423MOL0     C56977  11.211   1.416   0.145  0.2440  0.3773 -0.1869
  423MOL0     O56978  11.302   1.313   0.132  0.1965  0.0632 -0.0449
  423MOL0     C56979  11.346   1.247   0.260 -0.2747 -0.8070  0.8274
  423MOL0     C56980  11.463   1.146   0.225  0.0307  0.5752  1.2245
  423MOL0     C56981  11.450   1.041   0.113 -0.8883  0.7687  0.0596
  423MOL0     C56982  11.582   0.956   0.117 -1.3424  0.1962  0.4992
  423MOL0     C56983  11.610   0.883  -0.016  0.1786  0.0318 -1.0623
  423MOL0     C56984  11.700   0.770  -0.034 -0.3386 -1.0510  0.2710
  423MOL0     C56985  11.751   0.743  -0.178  0.5142 -0.0776 -0.7065
  423MOL0     C56986  11.850   0.630  -0.180  0.0479  0.3457  0.0506
  423MOL0     N56987  11.890   0.581  -0.308  0.8521  0.3918  0.2466
  423MOL0     C56988  11.797   0.533  -0.398  0.0560 -0.4853 -0.0096
  423MOL0     C56989  11.855   0.485  -0.508 -0.1057 -0.7698  0.3855
  423MOL0     C56990  11.788   0.439  -0.635 -0.0665 -0.6929 -0.0251
  423MOL0     C56991  11.772   0.286  -0.651  0.3326 -1.1763 -0.2822
  423MOL0     C56992  11.890   0.195  -0.595  0.4029  0.0184 -0.4412
  423MOL0     C56993  11.892   0.050  -0.637 -0.3440  0.2165  0.5587
  423MOL0     O56994  11.865   0.038  -0.771  0.2700  0.2468  0.2634
  423MOL0     C56995  11.787  -0.061  -0.811  1.4740  0.0717  0.1788
  423MOL0     C56996  11.775  -0.182  -0.740  0.3781  0.6607 -0.5160
  423MOL0     C56997  11.682  -0.280  -0.786  0.2088  0.7003 -0.4463
  423MOL0     C56998  11.682  -0.424  -0.716 -0.3899  0.3682  0.2340
  423MOL0     C56999  11.595  -0.259  -0.896 -0.6120 -0.5032  0.0824
  423MOL0     C57000  11.503  -0.356  -0.942  0.3376  0.4371  0.5094
  423MOL0     O57001  11.478  -0.376  -1.080 -0.8847  0.2682  0.1809
  423MOL0     C57002  11.403  -0.483  -1.119  0.3238  0.6987  0.3544
  423MOL0     C57003  11.317  -0.459  -1.228 -0.2924 -0.1291  0.0402
  423MOL0     C57004  11.228  -0.554  -1.262  0.3750 -0.2868  0.5169
  423MOL0     C57005  11.236  -0.693  -1.225 -0.5676  0.0699 -0.8225
  423MOL0     O57006  11.156  -0.794  -1.268  0.5594  0.2645 -0.9288
  423MOL0     C57007  11.063  -0.842  -1.172  0.5348  0.3824  0.3893
  423MOL0     C57008  10.958  -0.938  -1.237 -0.3249  0.6601 -0.0189
  423MOL0     C57009  10.848  -0.878  -1.320  1.0358  0.1124 -0.5416
  423MOL0     C57010  10.732  -0.959  -1.354 -0.4241  0.4227  0.0936
  423MOL0     C57011  10.628  -0.942  -1.232  0.3837  0.2963  0.0420
  423MOL0     C57012  10.507  -1.017  -1.275  0.5086  0.5799  0.4556
  423MOL0     C57013  10.395  -1.020  -1.158  0.1277 -0.8335 -0.5467
  423MOL0     C57014  10.261  -1.036  -1.214  0.3051 -0.9407  0.4175
  423MOL0    Cl57015  10.206  -0.880  -1.288  0.0458 -0.0988  0.1849
  423MOL0     C57016  11.329  -0.721  -1.119 -0.6779 -1.1831  0.2283
  423MOL0     C57017  11.413  -0.617  -1.061  0.1654  1.1992  0.0022
  423MOL0     O57018  11.431  -0.406  -0.851 -0.4185 -0.0222  0.0894
  423MOL0     C57019  11.612  -0.140  -0.975 -1.2555  0.5082 -0.2519
  423MOL0     C57020  11.710  -0.042  -0.930  0.7583 -0.6775 -0.2133
  423MOL0     N57021  11.991   0.509  -0.494 -0.5748 -0.5380  0.4466
  423MOL0     N57022  12.008   0.556  -0.365  0.1783 -0.1205  0.5913
  423MOL0     C57023  11.121   1.425   0.249  0.2478  0.9299  0.3017
  423MOL0     C57024  11.028   1.531   0.264  0.7898 -1.3596 -0.8619
  423MOL0     C57025  10.787   1.924   0.223 -0.4381  0.3630  0.0932
  423MOL0     C57026  10.833   2.014   0.133  1.3433 -0.3339 -0.5649
  423MOL0     C57027  10.742   2.120   0.092 -0.9538  0.0496 -0.2174
  423MOL0     C57028  10.612   2.139   0.144  0.2045  0.0926  0.4682
  423MOL0     O57029  10.513   2.223   0.098  0.4852 -0.7937 -0.0030
  423MOL0     C57030  10.553   2.344   0.024 -0.3458  0.1804  0.3939
  423MOL0     C57031  10.443   2.461   0.016  0.3112  1.1417  0.2433
  423MOL0     C57032  10.347   2.446  -0.105 -0.5170 -0.2359  0.3345
  423MOL0     C57033  10.238   2.547  -0.102  0.2190  0.4258 -0.6800
  423MOL0     C57034  10.270   2.686  -0.120 -0.1354 -0.0553  0.0106
  423MOL0     C57035  10.283   2.809  -0.128 -0.0398 -0.2604 -0.8518
  423MOL0     C57036  10.572   2.047   0.239  0.5532  0.1897  0.3087
  423MOL0     C57037  10.652   1.942   0.275 -0.1593 -0.3446 -1.2717
  423MOL0     H57038  11.126   1.705  -0.009 -0.3638  1.6638  2.0439
  423MOL0     H57039  11.269   1.496  -0.039 -1.1868  1.0030  0.1499
  423MOL0     H57040  11.387   1.321   0.329  2.5584 -0.6430 -0.8512
  423MOL0     H57041  11.260   1.199   0.306 -1.1291  0.8350  0.9859
  423MOL0     H57042  11.555   1.198   0.197  0.0332  0.5237  1.1375
  423MOL0     H57043  11.492   1.097   0.319  1.3534  1.3224  1.2336
  423MOL0     H57044  11.368   0.968   0.118 -1.1180  1.0512  0.4904
  423MOL0     H57045  11.447   1.099   0.020 -2.0786 -0.2698 -0.5966
  423MOL0     H57046  11.665   1.027   0.126 -0.0547 -1.1684 -0.1558
  423MOL0     H57047  11.587   0.883   0.198  1.5868  0.8574  1.0555
  423MOL0     H57048  11.514   0.849  -0.057  0.0510 -1.9063  0.6888
  423MOL0     H57049  11.654   0.962  -0.079  1.0174  0.9830  0.6523
  423MOL0     H57050  11.786   0.789   0.031 -1.1524  2.0106  0.6260
  423MOL0     H57051  11.659   0.673  -0.005  0.5308 -2.2828 -2.2537
  423MOL0     H57052  11.663   0.721  -0.239 -2.4319  1.5858  2.5480
  423MOL0     H57053  11.786   0.833  -0.228 -1.3590  1.5292  0.6995
  423MOL0     H57054  11.798   0.550  -0.126  1.0099 -0.4799 -0.2244
  423MOL0     H57055  11.933   0.673  -0.123  0.0450  0.3691  0.0372
  423MOL0     H57056  11.694   0.508  -0.374  0.9965 -3.3880  1.4519
  423MOL0     H57057  11.694   0.494  -0.630  0.2941 -0.1781  2.0285
  423MOL0     H57058  11.836   0.473  -0.727  3.0188 -3.6504  0.2718
  423MOL0     H57059  11.761   0.273  -0.759  2.1210 -0.4399 -0.5695
  423MOL0     H57060  11.679   0.261  -0.597  0.6856  1.1441  1.5436
  423MOL0     H57061  11.886   0.204  -0.486  2.0569 -0.9955 -0.2709
  423MOL0     H57062  11.982   0.247  -0.623  1.3811 -1.3387  0.1637
  423MOL0     H57063  11.812   0.007  -0.576 -0.4555  3.5348  3.0453
  423MOL0     H57064  11.988   0.011  -0.604  0.9771  2.4756 -0.3916
  423MOL0     H57065  11.827  -0.209  -0.648  0.0609  0.0819 -0.4976
  423MOL0     H57066  11.649  -0.516  -0.765 -0.6048 -0.5350  1.9600
  423MOL0     H57067  11.789  -0.440  -0.697 -0.0215 -0.0445 -1.9779
  423MOL0     H57068  11.630  -0.428  -0.619  0.1665 -0.1341  0.5205
  423MOL0     H57069  11.328  -0.359  -1.269  2.7832  0.5591  2.2647
  423MOL0     H57070  11.150  -0.521  -1.329  1.7770 -0.5042 -1.3067
  423MOL0     H57071  11.115  -0.899  -1.096  1.6625  0.3640 -0.3755
  423MOL0     H57072  11.002  -0.763  -1.126  0.7162 -1.2961  3.7577
  423MOL0     H57073  11.019  -1.000  -1.304  3.1084  2.8836  0.7741
  423MOL0     H57074  10.915  -0.992  -1.153  3.5203 -1.6571  0.7249
  423MOL0     H57075  10.894  -0.842  -1.413 -3.5635  2.4911 -2.2424
  423MOL0     H57076  10.822  -0.789  -1.261  1.7116 -0.2977  0.3741
  423MOL0     H57077  10.693  -0.915  -1.446 -2.8251 -1.0212  0.3380
  423MOL0     H57078  10.770  -1.060  -1.372  1.7890  1.3820 -0.9934
  423MOL0     H57079  10.599  -0.840  -1.205  2.5249  1.3027 -1.1890
  423MOL0     H57080  10.663  -0.985  -1.137 -1.6939  0.7921  1.0809
  423MOL0     H57081  10.476  -0.969  -1.368  2.5786 -0.5352 -0.9065
  423MOL0     H57082  10.538  -1.121  -1.288 -0.9999 -0.7765  5.3787
  423MOL0     H57083  10.396  -0.921  -1.112  2.2905 -0.9815 -0.1934
  423MOL0     H57084  10.422  -1.097  -1.085 -0.5561 -1.3170 -0.7929
  423MOL0     H57085  10.191  -1.052  -1.131  2.4958  0.2541  2.6358
  423MOL0     H57086  10.269  -1.119  -1.284 -0.8627 -3.6726  3.2993
  423MOL0     H57087  11.336  -0.818  -1.072  3.2651 -0.4523  1.4652
  423MOL0     H57088  11.476  -0.634  -0.975 -0.0102  0.5049  0.0052
  423MOL0     H57089  11.552  -0.128  -1.065 -1.4332  2.1439  0.0593
  423MOL0     H57090  11.719   0.054  -0.980  0.2130  0.1736  1.2709
  423MOL0     H57091  11.105   1.342   0.317  0.7183 -0.6263 -1.4011
  423MOL0     H57092  10.957   1.532   0.346  1.6532 -2.7627 -0.0561
  423MOL0     H57093  10.928   2.017   0.080  1.0511  3.7007 -1.2193
  423MOL0     H57094  10.802   2.171   0.018  0.2633 -2.6612 -1.2265
  423MOL0     H57095  10.637   2.382   0.083 -0.6752  0.5862  0.6073
  423MOL0     H57096  10.591   2.309  -0.073  2.0908 -4.6860  2.7693
  423MOL0     H57097  10.495   2.556   0.004  2.0173  0.1983 -0.1845
  423MOL0     H57098  10.388   2.459   0.110  1.2946  0.2188  0.8277
  423MOL0     H57099  10.303   2.345  -0.103 -0.7280 -0.3143 -2.8252
  423MOL0     H57100  10.403   2.437  -0.199 -0.3665 -1.5581  0.5209
  423MOL0     H57101  10.172   2.537  -0.016  0.0100 -0.3338 -0.9182
  423MOL0     H57102  10.169   2.539  -0.186 -1.0107  2.6271  0.0539
  423MOL0     H57103  10.298   2.913  -0.151  0.2886  0.3453  1.7886
  423MOL0     H57104  10.471   2.057   0.277 -0.0688 -0.8377 -0.9902
  423MOL0     H57105  10.611   1.871   0.346  1.3423  0.6610  0.7271
  424MOL0     O57106   9.380  10.758   4.641 -0.3292  0.0252  0.2431
  424MOL0     C57107   9.370  10.775   4.519 -1.1014  0.0526  0.0263
  424MOL0     O57108   9.462  10.732   4.419 -0.0807  1.0206 -0.0675
  424MOL0     C57109   9.581  10.685   4.470 -1.0392  0.4069 -0.6659
  424MOL0     C57110   9.691  10.731   4.400  0.2560 -0.4111 -0.2792
  424MOL0     C57111   9.821  10.671   4.417 -0.9420 -0.0462 -0.5562
  424MOL0     C57112   9.841  10.571   4.512  0.0244  0.2836  0.4340
  424MOL0     O57113   9.971  10.521   4.530 -0.2728 -0.0911  0.0455
  424MOL0     C57114   9.995  10.451   4.657  0.3359  0.8039 -0.5881
  424MOL0     C57115   9.991  10.546   4.777 -0.5373  0.5303  0.8481
  424MOL0     C57116  10.106  10.655   4.765  0.3378  0.3070 -0.0303
  424MOL0     C57117  10.246  10.604   4.741  0.1985  0.4676  0.3910
  424MOL0     C57118  10.293  10.504   4.852  0.3571  0.4117 -0.2651
  424MOL0     C57119  10.405  10.417   4.800 -0.0050  1.2861 -0.0621
  424MOL0     C57120  10.483  10.344   4.914 -0.3234 -0.9180  0.0595
  424MOL0     C57121  10.601  10.254   4.865 -0.4569 -0.2022  0.2744
  424MOL0     N57122  10.682  10.324   4.757  0.4650 -0.2349  0.1124
  424MOL0     C57123  10.731  10.448   4.765 -0.1088 -0.0845 -0.8427
  424MOL0     C57124  10.780  10.478   4.641  0.6156  0.7139 -0.2254
  424MOL0     C57125  10.832  10.604   4.576 -0.2101  0.0891 -0.2693
  424MOL0     C57126  10.744  10.733   4.588 -0.2803 -0.0816 -0.8837
  424MOL0     C57127  10.598  10.711   4.532 -0.7490 -0.3657  0.6860
  424MOL0     C57128  10.593  10.710   4.376 -0.0555  0.4068 -0.3876
  424MOL0     O57129  10.458  10.669   4.338 -0.2811 -0.3997 -0.8345
  424MOL0     C57130  10.418  10.540   4.360  0.0138  1.4480 -0.2807
  424MOL0     C57131  10.506  10.428   4.365  0.5140  0.5972  0.5519
  424MOL0     C57132  10.449  10.291   4.386  0.1020  0.4838  0.3725
  424MOL0     C57133  10.538  10.172   4.384 -0.4127 -0.1759 -0.1066
  424MOL0     C57134  10.313  10.269   4.412 -0.7090 -0.3141  1.1738
  424MOL0     C57135  10.233  10.143   4.429  0.2789  0.1806 -0.4205
  424MOL0     O57136  10.280  10.014   4.377 -0.5512 -1.1559 -0.6580
  424MOL0     C57137  10.210   9.898   4.388 -0.0130  0.9739 -0.1950
  424MOL0     C57138  10.070   9.884   4.394  0.9024  0.4413 -0.1435
  424MOL0     C57139  10.006   9.763   4.413  0.5028 -0.8854 -0.4162
  424MOL0     C57140  10.082   9.651   4.432  0.0388 -0.4254  0.0927
  424MOL0     O57141  10.015   9.538   4.472  0.2183 -0.1985 -0.2915
  424MOL0     C57142  10.060   9.416   4.426  0.1380 -0.2642  0.4661
  424MOL0     C57143   9.949   9.320   4.371  0.2991  0.0976 -0.0249
  424MOL0     C57144   9.872   9.381   4.243  0.6396  0.4376  0.1226
  424MOL0     C57145   9.720   9.407   4.249  0.6096 -0.3501 -0.9164
  424MOL0     C57146   9.650   9.285   4.260 -0.3623 -0.2881 -0.4631
  424MOL0     C57147   9.561   9.268   4.376  0.4490  0.4780 -0.1986
  424MOL0     C57148   9.504   9.121   4.383 -0.0041  0.3968  0.0160
  424MOL0     C57149   9.407   9.090   4.508 -0.3666 -0.5320 -0.3623
  424MOL0    Cl57150   9.279   9.218   4.511 -0.2584 -0.1881  0.4029
  424MOL0     C57151  10.222   9.665   4.436  0.3149  0.0900 -0.0285
  424MOL0     C57152  10.289   9.784   4.414 -0.2645 -0.7004 -0.2801
  424MOL0     O57153  10.121  10.159   4.488 -1.0157 -0.0910  0.4752
  424MOL0     C57154  10.241  10.390   4.419 -0.0353  0.3086  0.1288
  424MOL0     C57155  10.281  10.519   4.387 -1.0821  0.1684  0.6691
  424MOL0     N57156  10.770  10.358   4.574 -0.2039  0.4857 -0.2264
  424MOL0     N57157  10.711  10.269   4.641 -0.2195 -0.3788  0.4241
  424MOL0     C57158   9.729  10.533   4.579  0.1195 -0.0403  0.2588
  424MOL0     C57159   9.603  10.586   4.559  0.4143  0.5183 -1.3497
  424MOL0     C57160   9.248  10.840   4.473 -0.5403 -0.2655  0.2889
  424MOL0     C57161   9.225  10.839   4.333 -0.1480  0.3491 -0.2987
  424MOL0     C57162   9.107  10.894   4.268 -0.4485  1.1065 -0.9004
  424MOL0     C57163   9.007  10.936   4.356  0.2166  0.2641 -0.2184
  424MOL0     O57164   8.881  10.962   4.306  0.4765  0.0479  0.1091
  424MOL0     C57165   8.843  10.981   4.162 -0.1486 -0.1851 -0.2076
  424MOL0     C57166   8.834  10.844   4.078 -0.1027 -0.6365 -0.4193
  424MOL0     C57167   8.688  10.800   4.071 -0.2471  0.6100  0.4456
  424MOL0     C57168   8.696  10.645   4.050  0.6930 -0.0891 -0.1724
  424MOL0     C57169   8.785  10.602   3.945  0.8207  0.1490 -1.0462
  424MOL0     C57170   8.850  10.559   3.858 -0.1522 -0.9626 -0.5129
  424MOL0     C57171   9.028  10.949   4.494  0.2797  0.1953 -0.3400
  424MOL0     C57172   9.144  10.894   4.553 -0.1788 -0.9524  0.7863
  424MOL0     H57173   9.693  10.793   4.311  3.9844  0.3724  0.1760
  424MOL0     H57174   9.908  10.691   4.355  0.6086  3.8437  2.4398
  424MOL0     H57175   9.933  10.361   4.667  4.3613 -1.9588  3.1754
  424MOL0     H57176  10.097  10.413   4.664 -0.3382 -1.0298  0.0202
  424MOL0     H57177   9.895  10.596   4.791 -1.5952 -1.4966  1.3627
  424MOL0     H57178  10.001  10.490   4.871 -1.4728  0.1420  0.7314
  424MOL0     H57179  10.076  10.735   4.697 -1.9939  0.0810  0.6429
  424MOL0     H57180  10.095  10.703   4.862  0.9818  1.2592 -0.4132
  424MOL0     H57181  10.245  10.557   4.642  0.6624  0.4452  0.3958
  424MOL0     H57182  10.314  10.689   4.745 -0.5951  1.2864 -2.0039
  424MOL0     H57183  10.312  10.553   4.948 -0.9232 -0.2984  0.3813
  424MOL0     H57184  10.206  10.439   4.867  0.8442 -0.5108 -1.2910
  424MOL0     H57185  10.364  10.348   4.726  2.3534  0.8648 -1.0731
  424MOL0     H57186  10.485  10.476   4.755 -0.9935  1.2323 -1.9980
  424MOL0     H57187  10.512  10.414   4.993 -2.8826  0.0321  0.2356
  424MOL0     H57188  10.414  10.284   4.973  0.1062 -1.8654 -0.3881
  424MOL0     H57189  10.568  10.152   4.846  1.4842 -1.1360  1.6925
  424MOL0     H57190  10.666  10.239   4.951  0.0049 -2.2210 -0.3858
  424MOL0     H57191  10.725  10.516   4.850  2.5584 -0.3139 -0.3817
  424MOL0     H57192  10.930  10.619   4.623 -0.2428 -3.9764  1.5098
  424MOL0     H57193  10.852  10.589   4.470 -1.7754 -0.5905 -0.5055
  424MOL0     H57194  10.787  10.815   4.529 -2.0453 -0.0373 -2.2186
  424MOL0     H57195  10.745  10.751   4.695 -1.9150  3.1949 -1.2928
  424MOL0     H57196  10.538  10.787   4.582  0.7970 -0.1633  2.3438
  424MOL0     H57197  10.557  10.615   4.564 -0.2967 -0.6469  0.4324
  424MOL0     H57198  10.663  10.635   4.337 -1.1983 -0.1614 -1.4182
  424MOL0     H57199  10.619  10.805   4.330  0.4494 -0.3441 -1.7002
  424MOL0     H57200  10.610  10.437   4.334  0.7170 -2.3012  0.1359
  424MOL0     H57201  10.517  10.104   4.301  1.7837  0.9575 -1.7027
  424MOL0     H57202  10.644  10.200   4.382 -0.9810  2.2395  0.5761
  424MOL0     H57203  10.517  10.113   4.473 -1.7597  0.9801  0.3744
  424MOL0     H57204  10.010   9.974   4.381  0.3873 -0.0674 -1.4266
  424MOL0     H57205   9.900   9.741   4.415  0.2830 -0.0053 -1.7362
  424MOL0     H57206  10.128   9.425   4.341 -2.2783 -0.5527 -1.6372
  424MOL0     H57207  10.117   9.370   4.507  0.5041 -2.4549 -0.9353
  424MOL0     H57208  10.006   9.235   4.333  2.0363  0.5565  1.3754
  424MOL0     H57209   9.877   9.297   4.450 -0.2971 -2.2945 -1.1810
  424MOL0     H57210   9.894   9.316   4.157 -3.3244  0.8510 -1.4368
  424MOL0     H57211   9.922   9.475   4.217  1.3395  0.3396  1.0738
  424MOL0     H57212   9.701   9.463   4.341 -1.7947 -0.1469 -1.4514
  424MOL0     H57213   9.693   9.460   4.156  1.7615 -2.6905 -2.6815
  424MOL0     H57214   9.721   9.201   4.265 -1.7787 -1.4516  1.2937
  424MOL0     H57215   9.584   9.284   4.173 -5.1409 -1.1718  2.8218
  424MOL0     H57216   9.618   9.282   4.469  0.8091  1.2958 -0.5325
  424MOL0     H57217   9.476   9.336   4.361  0.7997  0.9412 -0.0988
  424MOL0     H57218   9.584   9.047   4.394 -0.2142 -0.1001 -1.5878
  424MOL0     H57219   9.453   9.097   4.289 -2.0284  1.8619  0.6539
  424MOL0     H57220   9.465   9.099   4.600  1.4297 -0.3196 -1.4825
  424MOL0     H57221   9.358   8.993   4.505 -2.5765  0.5135 -0.5170
  424MOL0     H57222  10.283   9.578   4.457 -1.1172 -0.6726  1.1200
  424MOL0     H57223  10.397   9.788   4.411 -0.1929 -2.2214 -1.6681
  424MOL0     H57224  10.134  10.386   4.433  0.2117  0.9881  2.7630
  424MOL0     H57225  10.208  10.600   4.391 -2.7495 -1.2002 -0.5445
  424MOL0     H57226   9.729  10.454   4.654  1.5984 -0.4947 -0.1860
  424MOL0     H57227   9.523  10.536   4.613  1.5947  0.2912  0.2675
  424MOL0     H57228   9.293  10.787   4.267 -1.6644 -2.0391 -0.1173
  424MOL0     H57229   9.097  10.888   4.160 -2.4783  2.3976 -0.8376
  424MOL0     H57230   8.744  11.028   4.166  0.7891  1.7956  2.1172
  424MOL0     H57231   8.908  11.050   4.107 -0.7438  0.5485 -0.0074
  424MOL0     H57232   8.884  10.767   4.137 -0.8922 -0.8595 -0.0294
  424MOL0     H57233   8.884  10.870   3.984  0.2485  1.9273  0.3864
  424MOL0     H57234   8.655  10.859   3.985  0.4830  3.1867  1.8086
  424MOL0     H57235   8.617  10.835   4.146  1.5472 -0.4344  2.7742
  424MOL0     H57236   8.598  10.605   4.022  2.3965 -2.0029 -4.2723
  424MOL0     H57237   8.725  10.599   4.144  0.4065 -1.7133 -0.8361
  424MOL0     H57238   8.920  10.516   3.790  0.1287 -0.2446 -0.6874
  424MOL0     H57239   8.951  10.993   4.556  0.4771  1.8674 -1.2113
  424MOL0     H57240   9.137  10.894   4.661 -0.0367 -0.7290  0.7962
  425MOL0     O57241   0.847   0.369   7.945 -0.1902 -0.5534  0.0540
  425MOL0     C57242   0.901   0.309   8.036 -0.8861 -0.9905 -0.6697
  425MOL0     O57243   1.036   0.314   8.065  0.5519 -0.1880 -0.7013
  425MOL0     C57244   1.125   0.372   7.978  0.7793  0.5994  0.5179
  425MOL0     C57245   1.131   0.354   7.833  0.5983  0.3198 -0.0006
  425MOL0     C57246   1.215   0.423   7.754 -0.1980  0.6359 -0.6461
  425MOL0     C57247   1.319   0.510   7.798 -0.9780 -0.6700  0.2124
  425MOL0     O57248   1.424   0.567   7.715  0.1545  0.1992  0.0113
  425MOL0     C57249   1.439   0.524   7.574  0.8993  0.7197  0.5400
  425MOL0     C57250   1.358   0.616   7.474 -0.0154  0.0827 -0.0746
  425MOL0     C57251   1.351   0.545   7.340 -0.4173  0.6117  0.2477
  425MOL0     C57252   1.479   0.536   7.258  0.8056  0.1077 -0.4753
  425MOL0     C57253   1.469   0.507   7.110  0.5721  0.1552  0.0288
  425MOL0     C57254   1.384   0.600   7.024 -0.5479 -0.1717  0.6326
  425MOL0     C57255   1.398   0.578   6.866  0.2225 -0.9589 -0.9076
  425MOL0     C57256   1.471   0.693   6.799 -0.6558  1.0606 -0.7318
  425MOL0     N57257   1.455   0.657   6.655  0.2217 -0.4330  0.5324
  425MOL0     C57258   1.345   0.695   6.580  1.4481 -0.8590 -0.1604
  425MOL0     C57259   1.384   0.681   6.454  0.3567 -0.4623 -0.1133
  425MOL0     C57260   1.280   0.714   6.343 -0.1994  0.1623  0.2135
  425MOL0     C57261   1.319   0.640   6.217 -0.5852  0.1381  0.0330
  425MOL0     C57262   1.301   0.482   6.220  0.6252  0.1396  0.8530
  425MOL0     C57263   1.349   0.392   6.097  0.7847  0.3961 -0.2613
  425MOL0     O57264   1.234   0.338   6.029  0.1951  0.1336 -0.3209
  425MOL0     C57265   1.199   0.210   6.071 -0.9106  0.1783 -0.3072
  425MOL0     C57266   1.190   0.117   5.968  0.7990  0.0444 -0.8599
  425MOL0     C57267   1.161  -0.020   5.988 -0.1057  0.3555 -0.7980
  425MOL0     C57268   1.149  -0.107   5.871  0.3089 -0.2861 -0.9510
  425MOL0     C57269   1.126  -0.059   6.125  0.1477 -1.3953 -0.2269
  425MOL0     C57270   1.086  -0.193   6.166 -0.1433 -0.6501 -0.6032
  425MOL0     O57271   1.102  -0.216   6.301  0.4853 -0.2949 -0.0157
  425MOL0     C57272   1.141  -0.348   6.343  1.0734 -0.0421  0.0708
  425MOL0     C57273   1.082  -0.399   6.464 -0.0616 -0.5801 -0.1142
  425MOL0     C57274   1.094  -0.532   6.498  0.8873  0.4325  0.1606
  425MOL0     C57275   1.165  -0.624   6.425  0.7711 -1.0136 -0.3871
  425MOL0     O57276   1.173  -0.760   6.454  0.6431  0.4689 -0.4950
  425MOL0     C57277   1.049  -0.833   6.438 -0.0193  1.5371 -0.4926
  425MOL0     C57278   1.035  -0.856   6.283 -0.0795 -0.2561  0.3630
  425MOL0     C57279   0.996  -1.002   6.243 -0.5129 -0.4616 -0.2313
  425MOL0     C57280   0.991  -1.021   6.089 -0.5877 -0.1384  0.5110
  425MOL0     C57281   0.874  -0.943   6.020  0.3999 -0.1561  0.6027
  425MOL0     C57282   0.860  -0.996   5.885  0.3430  0.6725  0.4833
  425MOL0     C57283   0.805  -1.145   5.867  0.3835 -0.1358 -0.9055
  425MOL0     C57284   0.914  -1.237   5.814 -0.4606 -0.0996  0.4060
  425MOL0    Cl57285   0.862  -1.408   5.809 -0.0881 -0.4642  0.4185
  425MOL0     C57286   1.217  -0.581   6.306 -0.1723 -0.6790  0.6800
  425MOL0     C57287   1.206  -0.450   6.263 -0.1151 -0.5044 -0.2911
  425MOL0     O57288   1.034  -0.271   6.085 -0.1551  0.1832 -0.3961
  425MOL0     C57289   1.145   0.037   6.229  0.3425 -0.1339 -0.5837
  425MOL0     C57290   1.177   0.168   6.203 -0.1787 -1.3031  0.2433
  425MOL0     N57291   1.523   0.637   6.449 -0.2401 -0.1300  0.2776
  425MOL0     N57292   1.554   0.606   6.574  0.0163 -0.8547 -0.0312
  425MOL0     C57293   1.314   0.530   7.934 -0.0660  0.1727  0.4303
  425MOL0     C57294   1.213   0.475   8.021 -0.6070  0.5527 -0.8566
  425MOL0     C57295   0.816   0.224   8.116 -0.4336 -0.1320 -0.0235
  425MOL0     C57296   0.857   0.095   8.136 -0.7049 -0.4605 -0.1365
  425MOL0     C57297   0.780   0.022   8.226 -0.3452  0.6751  0.2633
  425MOL0     C57298   0.677   0.082   8.297 -0.0119 -0.2777 -0.9710
  425MOL0     O57299   0.595  -0.004   8.379  0.2156 -0.4304 -0.4977
  425MOL0     C57300   0.459   0.029   8.428 -0.0369 -1.0825 -0.2007
  425MOL0     C57301   0.361  -0.006   8.317 -0.7584 -0.2015 -0.5341
  425MOL0     C57302   0.214   0.014   8.353  0.8555 -0.2524  0.5665
  425MOL0     C57303   0.176  -0.082   8.468 -0.9499 -0.2864 -0.4389
  425MOL0     C57304   0.040  -0.117   8.476 -0.6077  0.3999 -0.5043
  425MOL0     C57305  -0.077  -0.124   8.489 -0.0645 -0.6692 -0.4084
  425MOL0     C57306   0.636   0.213   8.265  0.1663 -0.0345  0.0275
  425MOL0     C57307   0.705   0.287   8.176  0.3820  0.5294  0.1030
  425MOL0     H57308   1.062   0.281   7.792  1.6231 -1.3583  1.0849
  425MOL0     H57309   1.220   0.414   7.646 -1.3820  4.2409 -1.1236
  425MOL0     H57310   1.541   0.554   7.549  0.4185  2.3460  0.4369
  425MOL0     H57311   1.425   0.415   7.569 -0.2780  0.7581  2.0777
  425MOL0     H57312   1.257   0.632   7.512 -0.3224  0.2848 -0.9654
  425MOL0     H57313   1.409   0.712   7.467 -2.0035  1.0667 -2.4618
  425MOL0     H57314   1.289   0.456   7.348  2.1503 -1.1704  1.9873
  425MOL0     H57315   1.285   0.615   7.288  0.0963  0.4308 -0.6683
  425MOL0     H57316   1.529   0.633   7.264  1.2780 -0.0720 -1.3266
  425MOL0     H57317   1.544   0.464   7.309  2.3611 -0.1569 -2.6910
  425MOL0     H57318   1.572   0.500   7.073 -0.2790 -2.3313 -2.1656
  425MOL0     H57319   1.454   0.401   7.088  1.1275  0.0316  0.2233
  425MOL0     H57320   1.278   0.587   7.050 -0.1626  0.0855  2.4587
  425MOL0     H57321   1.423   0.700   7.046 -0.1182 -0.6278  2.0561
  425MOL0     H57322   1.446   0.482   6.846 -1.2177 -1.2778 -3.1925
  425MOL0     H57323   1.295   0.573   6.830 -0.3898  1.3746  0.3063
  425MOL0     H57324   1.575   0.708   6.829 -1.4440  2.7184  1.3734
  425MOL0     H57325   1.420   0.784   6.832  1.6030  1.9412  0.5550
  425MOL0     H57326   1.252   0.737   6.617  2.2254 -0.0704  0.9420
  425MOL0     H57327   1.185   0.662   6.361 -0.5021 -0.5150 -2.7588
  425MOL0     H57328   1.275   0.821   6.324  3.1367  0.8346  2.4070
  425MOL0     H57329   1.425   0.646   6.189 -0.1271 -3.9915  0.3141
  425MOL0     H57330   1.259   0.678   6.134 -1.3351  0.3497  0.6733
  425MOL0     H57331   1.194   0.464   6.238  0.4891 -1.4931 -1.2238
  425MOL0     H57332   1.344   0.443   6.313  1.6086  0.0440  0.3675
  425MOL0     H57333   1.408   0.304   6.126  2.4953  0.1368 -3.9149
  425MOL0     H57334   1.413   0.445   6.025  0.4944  0.1929 -0.6715
  425MOL0     H57335   1.202   0.148   5.865 -3.3261  0.5236 -1.3664
  425MOL0     H57336   1.228  -0.182   5.883  0.7487  0.4606  1.7306
  425MOL0     H57337   1.055  -0.162   5.878  0.2611 -0.0104  1.6210
  425MOL0     H57338   1.174  -0.056   5.778  0.7486 -2.4384 -2.0577
  425MOL0     H57339   1.034  -0.322   6.524  1.2790 -0.8096  1.3067
  425MOL0     H57340   1.062  -0.558   6.599  1.7697  2.8557  1.1249
  425MOL0     H57341   1.057  -0.930   6.488 -0.7854 -0.1899 -3.4679
  425MOL0     H57342   0.965  -0.777   6.480  1.8345  2.6437  1.9273
  425MOL0     H57343   0.974  -0.776   6.241  0.8386 -0.6043 -1.7852
  425MOL0     H57344   1.139  -0.851   6.250 -1.2852 -1.1579 -4.3928
  425MOL0     H57345   0.909  -1.035   6.301 -0.4901  0.5004  0.3582
  425MOL0     H57346   1.084  -1.059   6.277 -0.0972  0.4443  0.2399
  425MOL0     H57347   1.091  -1.001   6.050 -0.3704 -1.4710  0.3434
  425MOL0     H57348   0.969  -1.127   6.077 -1.8894  0.1642  0.0158
  425MOL0     H57349   0.900  -0.839   5.999 -0.0009  0.5172  3.1306
  425MOL0     H57350   0.785  -0.945   6.084  0.9065  0.4959  1.3415
  425MOL0     H57351   0.779  -0.941   5.836  1.0165 -1.6381 -3.6745
  425MOL0     H57352   0.956  -0.977   5.838  0.1608  1.9393  0.6056
  425MOL0     H57353   0.723  -1.140   5.795 -0.4285  1.3869  0.0684
  425MOL0     H57354   0.766  -1.171   5.966 -0.5600  2.0874 -0.6282
  425MOL0     H57355   1.001  -1.225   5.879  0.5141 -2.1071 -0.4556
  425MOL0     H57356   0.940  -1.198   5.716 -2.9367  3.9153  1.1091
  425MOL0     H57357   1.281  -0.640   6.242  2.3298 -1.2241  3.4942
  425MOL0     H57358   1.247  -0.417   6.168  0.5576  2.9714  1.0378
  425MOL0     H57359   1.126   0.017   6.334  1.1824 -0.7554 -0.5436
  425MOL0     H57360   1.203   0.244   6.276 -0.4029 -0.4165 -0.5804
  425MOL0     H57361   1.396   0.589   7.975  2.4224 -0.9925 -2.4877
  425MOL0     H57362   1.238   0.487   8.126  1.4723 -0.9793 -1.1171
  425MOL0     H57363   0.936   0.050   8.077  0.5396  1.2002  0.1814
  425MOL0     H57364   0.812  -0.079   8.247 -0.8043  0.2637 -0.9552
  425MOL0     H57365   0.440  -0.030   8.518 -1.3495 -2.5035 -1.3636
  425MOL0     H57366   0.449   0.132   8.466  1.1069 -2.2187  3.6893
  425MOL0     H57367   0.370  -0.114   8.298  0.0589 -0.7025  2.2564
  425MOL0     H57368   0.402   0.049   8.231  0.9192 -1.6952 -0.7636
  425MOL0     H57369   0.155  -0.007   8.263 -0.2273  1.6190  0.7770
  425MOL0     H57370   0.186   0.117   8.377  0.2149 -0.4678  0.7788
  425MOL0     H57371   0.210  -0.028   8.557  3.4015  1.6154 -2.9856
  425MOL0     H57372   0.229  -0.178   8.475 -2.0828 -0.9911 -1.2243
  425MOL0     H57373  -0.183  -0.112   8.505  0.3993  1.4771  1.8201
  425MOL0     H57374   0.542   0.253   8.303 -0.8255 -1.8700 -0.3468
  425MOL0     H57375   0.679   0.388   8.149 -0.7623  0.5787  1.3112
  426MOL0     O57376   8.824  11.245   9.368  0.0100  0.3354 -0.1339
  426MOL0     C57377   8.792  11.360   9.400  0.2717  0.3877 -0.1170
  426MOL0     O57378   8.865  11.446   9.489 -0.8717 -0.1783  0.7106
  426MOL0     C57379   8.972  11.400   9.561  0.0951  0.2482 -0.4090
  426MOL0     C57380   9.069  11.492   9.581 -0.7640 -0.1895 -1.1270
  426MOL0     C57381   9.184  11.455   9.662  0.4394  0.1657  0.4224
  426MOL0     C57382   9.196  11.325   9.716 -0.1998 -0.1534  0.1652
  426MOL0     O57383   9.305  11.283   9.795  0.4431  0.2579  0.7199
  426MOL0     C57384   9.406  11.367   9.843 -0.4669  0.6118  0.2014
  426MOL0     C57385   9.505  11.382   9.731 -0.3250  0.5500  0.2959
  426MOL0     C57386   9.625  11.458   9.789 -0.2767 -0.5569  0.1241
  426MOL0     C57387   9.739  11.453   9.694 -0.7222 -0.3469  0.2814
  426MOL0     C57388   9.861  11.513   9.767  0.0975 -0.3368 -0.3218
  426MOL0     C57389   9.845  11.672   9.780  0.2539 -0.4313  0.6978
  426MOL0     C57390   9.992  11.733   9.783 -0.2243 -0.8507 -0.0988
  426MOL0     C57391  10.002  11.887   9.826  0.0037 -0.0197 -0.2355
  426MOL0     N57392  10.145  11.932   9.850  0.6742  0.4061  0.3370
  426MOL0     C57393  10.258  11.933   9.769  0.3646  0.2445 -0.0662
  426MOL0     C57394  10.354  12.006   9.829 -0.1092  0.5962  0.2405
  426MOL0     C57395  10.488  12.040   9.773 -0.3611  0.3806  0.8816
  426MOL0     C57396  10.547  12.178   9.814  0.7095  0.7710 -1.3524
  426MOL0     C57397  10.652  12.228   9.701 -0.3522 -0.1130  0.7256
  426MOL0     C57398  10.712  12.359   9.742 -0.3316 -0.0671 -0.6765
  426MOL0     O57399  10.825  12.375   9.661  0.6821  0.4908 -0.5842
  426MOL0     C57400  10.958  12.397   9.698  0.2864 -0.4687 -0.2128
  426MOL0     C57401  11.052  12.405   9.601  0.9404 -1.0209  0.9386
  426MOL0     C57402  11.189  12.421   9.623  0.1570  0.5440  1.4344
  426MOL0     C57403  11.279  12.415   9.505 -0.6480  0.2101  0.0527
  426MOL0     C57404  11.240  12.418   9.747  0.4592  0.9072 -0.8772
  426MOL0     C57405  11.382  12.441   9.788 -0.2632  0.6608  0.1218
  426MOL0     O57406  11.413  12.387   9.906  0.9786 -1.0312 -0.5679
  426MOL0     C57407  11.528  12.432   9.946  0.3937  0.1292 -0.2424
  426MOL0     C57408  11.548  12.564  10.004  0.4627  0.1702  0.8248
  426MOL0     C57409  11.670  12.589  10.054 -0.3347 -0.5703  1.4554
  426MOL0     C57410  11.769  12.491  10.072 -0.0544  0.4442 -0.2551
  426MOL0     O57411  11.896  12.520  10.127  0.7664 -0.2406  0.4769
  426MOL0     C57412  11.952  12.648  10.128  0.3714 -0.5476 -0.0578
  426MOL0     C57413  12.087  12.644  10.205 -1.0133  0.7463  0.7981
  426MOL0     C57414  12.067  12.562  10.329  0.0732 -0.4536  0.7453
  426MOL0     C57415  12.107  12.637  10.458  0.7332  0.3220  0.0738
  426MOL0     C57416  12.216  12.562  10.527  0.1087 -0.2311  0.3073
  426MOL0     C57417  12.243  12.623  10.660 -0.0597  0.3392 -0.4949
  426MOL0     C57418  12.262  12.769  10.668 -0.2722 -0.6939 -0.9644
  426MOL0     C57419  12.339  12.811  10.793 -0.4648 -0.1403 -0.1646
  426MOL0    Cl57420  12.499  12.727  10.792  0.4904  0.2727  0.5077
  426MOL0     C57421  11.748  12.364  10.023 -0.0515  0.2551 -0.3712
  426MOL0     C57422  11.637  12.341   9.951  0.3876 -0.0579 -0.4264
  426MOL0     O57423  11.456  12.499   9.722  0.1658 -0.2813 -0.7073
  426MOL0     C57424  11.143  12.406   9.850  0.9167  1.0936 -0.1050
  426MOL0     C57425  11.007  12.398   9.826  0.0766  0.6524 -0.2221
  426MOL0     N57426  10.300  12.054   9.951  0.0796 -0.4066  0.3019
  426MOL0     N57427  10.176  12.007   9.960  0.5029 -0.2385 -0.0610
  426MOL0     C57428   9.111  11.230   9.669  0.2994  0.4800  0.4094
  426MOL0     C57429   8.995  11.271   9.599 -0.4198  1.0848  0.7870
  426MOL0     C57430   8.671  11.430   9.337 -0.0369  1.6650  0.3259
  426MOL0     C57431   8.673  11.571   9.345  0.0247  0.4769 -0.4196
  426MOL0     C57432   8.576  11.639   9.278  0.0765 -0.3447 -0.3877
  426MOL0     C57433   8.481  11.582   9.204  0.2378  0.7604 -0.0092
  426MOL0     O57434   8.380  11.655   9.157 -0.0084  0.5492 -0.3781
  426MOL0     C57435   8.264  11.588   9.113 -0.1412  0.1970  0.3065
  426MOL0     C57436   8.155  11.696   9.100  0.1595  0.5749 -0.5235
  426MOL0     C57437   8.183  11.798   8.992 -0.1876  0.5289  0.1937
  426MOL0     C57438   8.057  11.870   8.945  0.4759 -0.1184 -0.2703
  426MOL0     C57439   7.978  11.939   9.055 -0.4055 -1.1897 -0.6704
  426MOL0     C57440   7.937  11.998   9.154 -0.3231 -0.1789 -0.7439
  426MOL0     C57441   8.492  11.439   9.182 -0.0166 -0.1346 -0.2581
  426MOL0     C57442   8.575  11.366   9.264  1.0504  0.2571  0.2263
  426MOL0     H57443   9.056  11.592   9.542 -3.5482 -1.2080 -3.1925
  426MOL0     H57444   9.255  11.535   9.680  0.2059  1.0731 -2.2740
  426MOL0     H57445   9.364  11.465   9.869  1.5463  2.0795 -1.6226
  426MOL0     H57446   9.435  11.318   9.936  2.1118  0.6386 -0.5085
  426MOL0     H57447   9.540  11.283   9.701  0.6704  0.9776 -0.0111
  426MOL0     H57448   9.450  11.423   9.645 -0.8548 -1.0530 -0.1643
  426MOL0     H57449   9.594  11.562   9.804  0.1583 -0.5017  0.6794
  426MOL0     H57450   9.651  11.416   9.886  2.5203  0.0496 -0.2673
  426MOL0     H57451   9.745  11.347   9.668 -0.8964 -1.2116  3.4057
  426MOL0     H57452   9.701  11.505   9.605  1.9636  0.1338 -0.6528
  426MOL0     H57453   9.865  11.481   9.872 -1.5164  1.3524  0.3192
  426MOL0     H57454   9.951  11.489   9.711  0.7931 -0.3046  0.7488
  426MOL0     H57455   9.794  11.719   9.695 -0.4513  1.3483  2.0648
  426MOL0     H57456   9.793  11.701   9.872 -0.4794 -0.4765  0.3097
  426MOL0     H57457  10.052  11.671   9.850 -0.1171 -1.2785 -0.5951
  426MOL0     H57458  10.032  11.734   9.682  0.5175 -0.3044  0.1925
  426MOL0     H57459   9.953  11.915   9.920  2.8514  3.0332  0.5160
  426MOL0     H57460   9.968  11.949   9.742  1.0636 -0.5026 -1.0420
  426MOL0     H57461  10.269  11.886   9.672 -1.3924  0.7473 -0.5457
  426MOL0     H57462  10.566  11.971   9.805  0.3329  0.9850  0.5067
  426MOL0     H57463  10.487  12.033   9.664 -1.9123 -0.9628  0.9395
  426MOL0     H57464  10.618  12.159   9.895  1.4273 -0.4495 -2.2217
  426MOL0     H57465  10.470  12.249   9.842  1.0773  0.3037  1.0263
  426MOL0     H57466  10.606  12.254   9.606  0.9908  0.3381  0.1610
  426MOL0     H57467  10.726  12.149   9.686 -1.2029 -0.9608  0.9490
  426MOL0     H57468  10.741  12.371   9.847  1.2072  0.5857 -1.1475
  426MOL0     H57469  10.639  12.439   9.723  1.1878  1.4806 -0.3096
  426MOL0     H57470  11.029  12.390   9.496  1.0488  1.2012  0.5546
  426MOL0     H57471  11.233  12.354   9.426 -0.0848  0.0370 -0.1452
  426MOL0     H57472  11.308  12.513   9.467  3.7013  1.0367  4.6081
  426MOL0     H57473  11.367  12.363   9.542 -1.7021 -1.9219 -0.2533
  426MOL0     H57474  11.466  12.634   9.996  1.3564  1.9130  4.4896
  426MOL0     H57475  11.682  12.693  10.083 -0.1852  0.2842 -1.4204
  426MOL0     H57476  11.963  12.685  10.025 -0.1836  1.3401  0.5296
  426MOL0     H57477  11.893  12.727  10.174  1.4964  0.2071  0.1365
  426MOL0     H57478  12.159  12.587  10.145 -2.0023  1.0915 -0.7586
  426MOL0     H57479  12.132  12.742  10.226 -1.4846  0.8503  1.3249
  426MOL0     H57480  12.115  12.464  10.318  0.3778 -0.1150 -1.3352
  426MOL0     H57481  11.963  12.533  10.344 -0.3633  1.2861  1.2317
  426MOL0     H57482  12.123  12.744  10.443 -2.8522  1.0586  0.4497
  426MOL0     H57483  12.023  12.627  10.528  1.9322  3.4455  2.2092
  426MOL0     H57484  12.309  12.581  10.472  1.1753  1.1750  2.4338
  426MOL0     H57485  12.196  12.455  10.541  0.0270 -0.2719 -0.1280
  426MOL0     H57486  12.175  12.576  10.732  2.4899 -2.4631  0.2959
  426MOL0     H57487  12.332  12.572  10.697 -2.6756 -3.6913  1.0722
  426MOL0     H57488  12.163  12.809  10.688  0.9896  1.4158  1.6445
  426MOL0     H57489  12.311  12.805  10.576  3.2996 -1.6753  0.3714
  426MOL0     H57490  12.295  12.781  10.889 -0.2760  1.3573  0.4071
  426MOL0     H57491  12.351  12.919  10.805  1.8737 -0.6484  3.6586
  426MOL0     H57492  11.820  12.285  10.037 -1.1212 -0.6129  0.3733
  426MOL0     H57493  11.612  12.240   9.919 -3.8696  0.4914  0.5560
  426MOL0     H57494  11.173  12.387   9.952 -0.1419  1.8930  0.3613
  426MOL0     H57495  10.943  12.382   9.912  1.8073  0.2692  1.0515
  426MOL0     H57496   9.123  11.126   9.700  0.6032  0.9517  1.9750
  426MOL0     H57497   8.931  11.190   9.566  1.2160  1.0876 -2.8835
  426MOL0     H57498   8.737  11.640   9.398 -1.3285  2.1504 -0.8429
  426MOL0     H57499   8.567  11.746   9.296 -3.0687  0.2373 -4.2385
  426MOL0     H57500   8.277  11.527   9.023  0.8762  1.2531 -0.2927
  426MOL0     H57501   8.229  11.514   9.186 -1.8037 -1.2345 -1.7883
  426MOL0     H57502   8.149  11.760   9.188 -2.7725  0.8007 -0.7771
  426MOL0     H57503   8.060  11.641   9.093 -0.2471  1.1984  0.0053
  426MOL0     H57504   8.218  11.747   8.902 -1.7686 -0.7754  0.2950
  426MOL0     H57505   8.258  11.868   9.032 -0.2545  2.0580 -2.1451
  426MOL0     H57506   7.985  11.796   8.910 -0.5067  0.5168  0.3561
  426MOL0     H57507   8.093  11.940   8.868  0.9175  0.0128  0.0504
  426MOL0     H57508   7.895  12.030   9.247  3.3802  2.2756  0.3008
  426MOL0     H57509   8.420  11.389   9.118 -1.5046  1.6234 -0.0553
  426MOL0     H57510   8.565  11.258   9.253 -0.8394 -0.0006  3.2223
  427MOL0     O57511   5.269   4.762  11.450  0.4289  0.2759  0.4601
  427MOL0     C57512   5.261   4.678  11.362 -0.5098  0.8200  0.5284
  427MOL0     O57513   5.177   4.665  11.267  0.6402 -0.0684 -0.2738
  427MOL0     C57514   5.089   4.761  11.226 -0.0616 -1.2572  0.1927
  427MOL0     C57515   4.981   4.804  11.300  0.0646 -0.0967  0.0708
  427MOL0     C57516   4.899   4.909  11.245 -0.1433  0.1875 -0.3016
  427MOL0     C57517   4.920   4.960  11.117  1.0811  0.0520 -0.2538
  427MOL0     O57518   4.839   5.061  11.070  0.6787 -0.2346  1.2373
  427MOL0     C57519   4.777   5.033  10.941 -0.3018  0.6959 -0.0949
  427MOL0     C57520   4.633   5.071  10.937  0.9999 -0.0733 -0.2471
  427MOL0     C57521   4.557   5.013  10.822  0.8802 -0.0993 -0.6776
  427MOL0     C57522   4.419   5.062  10.850  1.1682 -0.7080  0.7927
  427MOL0     C57523   4.322   5.042  10.728 -0.5850 -0.5674 -1.1671
  427MOL0     C57524   4.178   5.109  10.754  0.9494  0.1805 -0.2379
  427MOL0     C57525   4.079   5.074  10.644 -0.0231 -0.2625  0.9359
  427MOL0     C57526   4.048   4.918  10.642 -0.2128 -0.2349  0.1413
  427MOL0     N57527   3.910   4.888  10.664  1.0112 -0.4794  1.3696
  427MOL0     C57528   3.864   4.890  10.788 -0.4738  0.1776 -0.5987
  427MOL0     C57529   3.729   4.898  10.766 -0.4591 -1.0268 -0.4688
  427MOL0     C57530   3.627   4.884  10.869 -0.7033  0.4018 -0.2234
  427MOL0     C57531   3.621   4.734  10.911  0.1621 -1.0626  0.9359
  427MOL0     C57532   3.526   4.705  11.036 -0.0450 -0.2922  0.8124
  427MOL0     C57533   3.500   4.559  11.051 -0.2905  0.0808  0.1623
  427MOL0     O57534   3.406   4.532  11.152  0.1094 -0.7445  0.0623
  427MOL0     C57535   3.442   4.515  11.279 -1.3848 -0.5236 -0.9972
  427MOL0     C57536   3.561   4.560  11.346  0.1220 -0.4723  0.5047
  427MOL0     C57537   3.584   4.534  11.483  0.5864 -0.1352  0.7091
  427MOL0     C57538   3.719   4.590  11.532 -0.1835  0.0668 -1.3085
  427MOL0     C57539   3.483   4.475  11.560  0.1157 -0.7344 -0.5070
  427MOL0     C57540   3.496   4.439  11.697 -0.0954 -0.5670  0.1618
  427MOL0     O57541   3.421   4.339  11.735 -0.0370 -0.1512 -0.2109
  427MOL0     C57542   3.399   4.311  11.863  0.6167  0.5022  0.0767
  427MOL0     C57543   3.497   4.250  11.940 -0.8882  0.3577  1.3707
  427MOL0     C57544   3.462   4.209  12.070 -0.2890 -0.4243  0.0242
  427MOL0     C57545   3.338   4.238  12.123 -0.5564 -0.0518  0.2973
  427MOL0     O57546   3.317   4.191  12.248  0.2665 -0.6343 -0.3992
  427MOL0     C57547   3.303   4.043  12.247 -0.2824 -0.2685 -0.1418
  427MOL0     C57548   3.218   3.993  12.368  0.1272 -0.7996 -0.0621
  427MOL0     C57549   3.072   4.022  12.344  0.1210  0.0103 -0.1206
  427MOL0     C57550   3.001   4.066  12.473 -0.4236  0.1929 -0.2929
  427MOL0     C57551   2.880   4.157  12.459 -0.6692  0.1580 -0.3096
  427MOL0     C57552   2.830   4.210  12.592  0.4222 -0.0105 -0.4091
  427MOL0     C57553   2.697   4.284  12.577  0.0469  0.6174 -0.1137
  427MOL0     C57554   2.669   4.377  12.686  0.0491  0.3833 -0.4760
  427MOL0    Cl57555   2.527   4.474  12.641 -0.1684 -0.1464  0.0673
  427MOL0     C57556   3.244   4.309  12.047 -0.3254  0.3507  0.2161
  427MOL0     C57557   3.266   4.335  11.908  0.1368  0.7147  0.4401
  427MOL0     O57558   3.570   4.502  11.761  0.2108  0.1819 -0.0061
  427MOL0     C57559   3.363   4.441  11.498  0.1001 -0.1777  0.2829
  427MOL0     C57560   3.336   4.463  11.362  0.0846 -0.1629  0.2581
  427MOL0     N57561   3.704   4.898  10.634  0.2680  0.0757  0.3253
  427MOL0     N57562   3.816   4.909  10.567  0.3572  0.0007  0.3480
  427MOL0     C57563   5.027   4.908  11.037 -0.2967  0.4574 -0.9348
  427MOL0     C57564   5.109   4.814  11.097  0.0233 -0.4865  0.1096
  427MOL0     C57565   5.372   4.583  11.368  0.4556  0.0354 -0.1837
  427MOL0     C57566   5.356   4.465  11.283 -0.3424 -0.2876 -0.3624
  427MOL0     C57567   5.462   4.382  11.273 -0.6375 -0.3621 -0.7050
  427MOL0     C57568   5.586   4.420  11.323  0.5878  0.7486  0.4044
  427MOL0     O57569   5.694   4.338  11.315 -0.5584  0.2664 -0.8669
  427MOL0     C57570   5.707   4.244  11.207 -0.5797  0.0561 -0.3796
  427MOL0     C57571   5.727   4.307  11.068 -0.1437 -0.5368 -0.0826
  427MOL0     C57572   5.769   4.217  10.952 -0.2826  0.2041 -0.1463
  427MOL0     C57573   5.680   4.098  10.933  0.2216  1.0767  0.0822
  427MOL0     C57574   5.534   4.124  10.907  0.4320 -1.0180  0.0653
  427MOL0     C57575   5.417   4.153  10.885  0.7486 -0.1564  0.4689
  427MOL0     C57576   5.599   4.530  11.407  0.3039 -0.4786  0.1719
  427MOL0     C57577   5.491   4.619  11.433  0.5584 -0.6164 -0.0852
  427MOL0     H57578   4.958   4.761  11.396  1.4742  0.1529  0.5402
  427MOL0     H57579   4.843   4.970  11.315 -0.4310 -0.1142 -0.2657
  427MOL0     H57580   4.826   5.099  10.869 -0.7397  0.6406 -0.4448
  427MOL0     H57581   4.799   4.934  10.900  6.0019  1.8815 -0.5296
  427MOL0     H57582   4.585   5.041  11.031 -0.9214  0.2743 -1.0735
  427MOL0     H57583   4.623   5.179  10.937  2.7390  0.1110 -0.5172
  427MOL0     H57584   4.607   5.041  10.728  1.4895 -0.5752 -0.5057
  427MOL0     H57585   4.549   4.904  10.812 -0.5979  0.1293 -2.4036
  427MOL0     H57586   4.388   4.996  10.932  0.8895 -0.5270  0.8341
  427MOL0     H57587   4.414   5.158  10.903 -2.5364 -2.5167  4.3013
  427MOL0     H57588   4.357   5.095  10.639 -1.1239 -0.2216 -1.1766
  427MOL0     H57589   4.304   4.934  10.718 -0.1391 -1.0115  1.9086
  427MOL0     H57590   4.131   5.092  10.851 -0.7763  0.3618 -0.9903
  427MOL0     H57591   4.190   5.217  10.752 -3.6286  0.9056  0.5583
  427MOL0     H57592   3.983   5.125  10.661  0.7463  2.4579 -1.9376
  427MOL0     H57593   4.121   5.092  10.545 -0.9189 -0.2088  0.5548
  427MOL0     H57594   4.115   4.877  10.718  1.9141  3.4523  0.5237
  427MOL0     H57595   4.079   4.885  10.543  1.1068 -1.0506  0.8057
  427MOL0     H57596   3.914   4.874  10.884 -2.8951 -1.9835  0.4306
  427MOL0     H57597   3.663   4.954  10.945 -1.2353  3.0452 -2.2466
  427MOL0     H57598   3.530   4.921  10.834 -0.6214  2.7716  1.7988
  427MOL0     H57599   3.721   4.695  10.930  1.0559  0.5939 -0.1327
  427MOL0     H57600   3.577   4.686  10.823  0.2237  1.3842 -0.5032
  427MOL0     H57601   3.426   4.749  11.023 -1.3487 -3.1659  0.1948
  427MOL0     H57602   3.577   4.744  11.124  1.5095  0.7232 -0.4768
  427MOL0     H57603   3.595   4.513  11.080  1.5774  2.2462 -2.1141
  427MOL0     H57604   3.471   4.515  10.955 -1.5119 -2.5366  1.6258
  427MOL0     H57605   3.644   4.595  11.285 -1.9275 -0.3271 -2.4431
  427MOL0     H57606   3.764   4.499  11.571 -0.5573 -0.4284 -2.0088
  427MOL0     H57607   3.786   4.623  11.451  2.1922 -0.0793  0.4685
  427MOL0     H57608   3.701   4.673  11.601  0.0772  1.8335 -3.2484
  427MOL0     H57609   3.596   4.249  11.895 -0.7846 -0.6742  1.5825
  427MOL0     H57610   3.526   4.139  12.123  1.3694  0.8527 -0.1910
  427MOL0     H57611   3.261   3.989  12.161 -1.1473 -3.9938  2.3848
  427MOL0     H57612   3.405   4.007  12.262 -0.3650 -2.0973 -3.0038
  427MOL0     H57613   3.232   3.887  12.392 -0.8805 -1.0140 -0.3939
  427MOL0     H57614   3.255   4.058  12.448  3.0668 -0.9941 -1.1298
  427MOL0     H57615   3.031   3.932  12.297 -2.6871 -0.7878  3.4600
  427MOL0     H57616   3.071   4.114  12.285 -0.9842 -0.2008 -0.4450
  427MOL0     H57617   2.970   3.974  12.523  0.4340 -0.2539 -0.5708
  427MOL0     H57618   3.071   4.113  12.543 -2.5772 -0.2550  2.3262
  427MOL0     H57619   2.794   4.107  12.414 -0.5295 -1.1809  0.8660
  427MOL0     H57620   2.915   4.243  12.400  2.2572 -0.8381 -0.2067
  427MOL0     H57621   2.823   4.132  12.668 -1.6185  2.1198  1.7591
  427MOL0     H57622   2.899   4.283  12.636  1.7822 -1.1706 -0.5285
  427MOL0     H57623   2.614   4.213  12.569 -1.1760  1.9166  0.6283
  427MOL0     H57624   2.700   4.338  12.482 -0.8879 -0.2571 -0.6640
  427MOL0     H57625   2.751   4.446  12.708  1.3322 -1.0045 -0.7472
  427MOL0     H57626   2.660   4.320  12.779 -3.2137  1.9567  0.3059
  427MOL0     H57627   3.147   4.336  12.087 -1.0924 -1.4658 -0.2881
  427MOL0     H57628   3.206   4.399  11.845 -1.6904 -1.5361 -0.2540
  427MOL0     H57629   3.278   4.405  11.556 -0.5581  0.0821 -0.5102
  427MOL0     H57630   3.240   4.429  11.322 -0.7111  1.0244  1.0757
  427MOL0     H57631   5.040   4.939  10.934 -0.2412 -1.5397 -1.5753
  427MOL0     H57632   5.193   4.769  11.046  0.6054 -1.2415  1.6656
  427MOL0     H57633   5.261   4.442  11.235 -1.6663  2.4198  0.7096
  427MOL0     H57634   5.455   4.289  11.218  0.9492 -0.8592 -0.1078
  427MOL0     H57635   5.803   4.192  11.219 -0.9342 -0.1838  1.9106
  427MOL0     H57636   5.621   4.177  11.200 -0.9697  0.5516 -0.3895
  427MOL0     H57637   5.791   4.394  11.087 -0.8372 -0.5317  2.5203
  427MOL0     H57638   5.629   4.350  11.044 -0.1749 -0.8781 -0.5723
  427MOL0     H57639   5.875   4.190  10.957  1.0765  4.0277 -2.8439
  427MOL0     H57640   5.768   4.289  10.869 -3.2050  1.9981  1.3032
  427MOL0     H57641   5.679   4.026  11.016 -1.5093  0.3734 -0.4981
  427MOL0     H57642   5.715   4.043  10.846  0.1563 -0.8778  1.2194
  427MOL0     H57643   5.313   4.178  10.881  0.9247  1.8893  4.1498
  427MOL0     H57644   5.684   4.545  11.473 -0.4334  1.1855  0.8003
  427MOL0     H57645   5.486   4.691  11.515 -1.6322 -0.8466  0.0315
  428MOL0     O57646   6.476   7.166   3.391  0.0925 -0.5730 -0.0677
  428MOL0     C57647   6.418   7.156   3.278  0.4784  0.4191 -1.1820
  428MOL0     O57648   6.440   7.238   3.168 -0.7942  0.4185 -0.2216
  428MOL0     C57649   6.519   7.350   3.187 -1.0387  0.4366  0.2944
  428MOL0     C57650   6.502   7.445   3.292  0.2055  0.3228 -0.6139
  428MOL0     C57651   6.562   7.570   3.284  0.2676  0.1930  0.3361
  428MOL0     C57652   6.649   7.589   3.179  0.0261  0.1532  1.3079
  428MOL0     O57653   6.720   7.699   3.184  0.4013  0.1842  0.5074
  428MOL0     C57654   6.717   7.792   3.068 -0.3643  0.9560 -1.0452
  428MOL0     C57655   6.784   7.927   3.107  0.2879 -0.3611  0.4337
  428MOL0     C57656   6.935   7.895   3.121 -0.8372 -0.9888  0.1883
  428MOL0     C57657   7.000   8.016   3.201  0.2868 -0.0454 -0.4773
  428MOL0     C57658   7.154   8.005   3.232  0.5544  0.2671 -0.3195
  428MOL0     C57659   7.184   7.886   3.322  0.0353  0.8417  0.6268
  428MOL0     C57660   7.328   7.898   3.391 -0.0155  0.1406  0.3867
  428MOL0     C57661   7.350   8.028   3.464 -1.1428 -0.1175  0.6058
  428MOL0     N57662   7.234   8.046   3.563  0.2491 -0.4963 -0.1968
  428MOL0     C57663   7.138   8.146   3.575  0.1343  0.3766  0.2740
  428MOL0     C57664   7.086   8.135   3.692  0.4655  0.1592  0.0454
  428MOL0     C57665   6.965   8.202   3.743 -0.4084  0.9372 -0.0651
  428MOL0     C57666   6.983   8.282   3.863  0.0917  0.1488 -0.0965
  428MOL0     C57667   7.039   8.413   3.848 -0.4431 -0.6317  0.7299
  428MOL0     C57668   7.094   8.459   3.984  0.0049 -0.1205 -0.6886
  428MOL0     O57669   7.006   8.434   4.093 -0.3266 -0.6578 -0.7713
  428MOL0     C57670   6.888   8.514   4.120  0.4186 -0.5548  0.4980
  428MOL0     C57671   6.844   8.632   4.053 -0.6166  0.1868 -0.9871
  428MOL0     C57672   6.735   8.704   4.100 -1.0142 -1.1971  0.1207
  428MOL0     C57673   6.721   8.839   4.036  0.3944  0.8061 -0.5497
  428MOL0     C57674   6.656   8.655   4.205 -0.8988 -0.8505 -0.7206
  428MOL0     C57675   6.537   8.727   4.262  0.2469  0.4359 -1.0961
  428MOL0     O57676   6.522   8.734   4.412 -0.2911  0.3565  0.0837
  428MOL0     C57677   6.400   8.796   4.450 -0.8573  0.2241  0.9238
  428MOL0     C57678   6.362   8.928   4.413 -0.5595 -0.1134  0.3849
  428MOL0     C57679   6.244   8.983   4.457 -0.7196  0.2578  0.4492
  428MOL0     C57680   6.158   8.915   4.540 -0.1860 -0.0412 -0.8608
  428MOL0     O57681   6.041   8.964   4.590  0.2162 -0.1245  1.0308
  428MOL0     C57682   5.959   9.033   4.494 -0.4373  0.0716  0.6536
  428MOL0     C57683   5.819   9.056   4.545  0.0025 -0.2942 -0.1294
  428MOL0     C57684   5.796   9.041   4.693  0.4761  0.4607 -0.9538
  428MOL0     C57685   5.655   9.099   4.732  0.0999  0.3885  0.4589
  428MOL0     C57686   5.637   9.096   4.889  0.0717 -0.4495 -0.1898
  428MOL0     C57687   5.487   9.136   4.916 -0.2273  0.5546  0.7767
  428MOL0     C57688   5.460   9.203   5.045  0.1985 -0.6705 -0.3974
  428MOL0     C57689   5.511   9.338   5.040 -0.3442 -0.7729  1.5314
  428MOL0    Cl57690   5.457   9.434   5.174  0.6313  0.2585 -0.3163
  428MOL0     C57691   6.200   8.792   4.589 -0.1345 -0.4914 -0.1766
  428MOL0     C57692   6.322   8.734   4.545 -0.3330  0.5386  1.0050
  428MOL0     O57693   6.455   8.762   4.180 -0.5662  0.3598 -0.1683
  428MOL0     C57694   6.690   8.543   4.273 -0.0108  0.6347  0.3184
  428MOL0     C57695   6.810   8.478   4.230  0.3019 -0.0490  0.8758
  428MOL0     N57696   7.148   8.038   3.760  0.1731  0.4687 -0.7390
  428MOL0     N57697   7.242   7.982   3.684 -0.1333  0.3074 -0.0791
  428MOL0     C57698   6.672   7.505   3.072  0.7667  0.7874 -1.2114
  428MOL0     C57699   6.600   7.383   3.074  0.2917  0.1069  0.1630
  428MOL0     C57700   6.317   7.050   3.264 -0.1235 -0.0743 -0.3381
  428MOL0     C57701   6.230   7.035   3.141  0.6255  0.1067 -0.7576
  428MOL0     C57702   6.150   6.917   3.135 -0.0799 -0.5797  0.2742
  428MOL0     C57703   6.129   6.831   3.240 -0.4243 -0.3332 -0.5308
  428MOL0     O57704   6.053   6.730   3.231 -0.0007  0.5345 -0.3273
  428MOL0     C57705   5.933   6.717   3.308  0.4982  0.2129 -0.5875
  428MOL0     C57706   5.829   6.641   3.241 -0.6177 -0.2953 -0.8020
  428MOL0     C57707   5.796   6.676   3.092  0.2369  0.0214  0.6711
  428MOL0     C57708   5.779   6.822   3.071 -0.0508  0.0807  0.5710
  428MOL0     C57709   5.653   6.860   3.129  0.5826 -0.9618  0.3948
  428MOL0     C57710   5.544   6.888   3.177 -0.0577 -0.3785 -0.1119
  428MOL0     C57711   6.209   6.854   3.355  0.2288  0.1028 -0.0593
  428MOL0     C57712   6.303   6.955   3.367  0.5011  0.1240  0.1830
  428MOL0     H57713   6.439   7.435   3.380  1.4008  3.1964  0.6889
  428MOL0     H57714   6.530   7.652   3.347 -1.9480 -1.2472  1.2245
  428MOL0     H57715   6.778   7.749   2.988 -1.8319 -3.8654  0.1454
  428MOL0     H57716   6.623   7.812   3.017 -1.6316 -0.3178  0.6629
  428MOL0     H57717   6.765   7.997   3.025 -2.8686 -0.9497  0.5366
  428MOL0     H57718   6.762   7.961   3.209 -0.5964 -1.1144  0.5063
  428MOL0     H57719   6.922   7.807   3.185 -2.8564 -0.2949  0.8184
  428MOL0     H57720   6.984   7.869   3.027 -1.8754 -1.5409 -0.2139
  428MOL0     H57721   6.986   8.104   3.138  1.4890  0.0566 -0.6376
  428MOL0     H57722   6.951   8.044   3.295  1.0537 -0.8545  0.1940
  428MOL0     H57723   7.206   7.987   3.137 -0.6887 -0.6426 -0.8565
  428MOL0     H57724   7.193   8.102   3.264  0.1350 -0.2683  2.0427
  428MOL0     H57725   7.110   7.881   3.403 -1.3111 -1.0620 -0.6302
  428MOL0     H57726   7.173   7.801   3.254 -0.9364  0.7349  0.8933
  428MOL0     H57727   7.340   7.816   3.463  0.9674 -0.4931 -0.4774
  428MOL0     H57728   7.412   7.884   3.323 -0.3661  1.2225 -0.2906
  428MOL0     H57729   7.356   8.106   3.387 -0.5891 -1.8912 -1.2185
  428MOL0     H57730   7.450   8.025   3.508 -0.4508  1.2904 -0.7433
  428MOL0     H57731   7.092   8.201   3.493 -0.9561 -2.0348 -0.8486
  428MOL0     H57732   6.927   8.264   3.660  2.2012 -1.9667 -3.7515
  428MOL0     H57733   6.895   8.120   3.762  0.9992 -0.4503 -0.7172
  428MOL0     H57734   7.043   8.237   3.944  0.0209  2.6618  1.4751
  428MOL0     H57735   6.884   8.304   3.903  0.2790 -1.6558  1.5159
  428MOL0     H57736   6.962   8.490   3.841 -0.8426 -1.1537 -3.3786
  428MOL0     H57737   7.117   8.425   3.772 -2.4385 -0.2585 -1.3821
  428MOL0     H57738   7.130   8.562   3.992  0.3680 -0.3429  0.6995
  428MOL0     H57739   7.181   8.395   3.998  0.4304  0.4451 -0.7319
  428MOL0     H57740   6.905   8.685   3.981  0.5834  0.2340  0.0277
  428MOL0     H57741   6.770   8.911   4.102 -1.6573  2.1048 -0.3414
  428MOL0     H57742   6.770   8.834   3.939  0.6386 -1.2250 -0.3760
  428MOL0     H57743   6.615   8.860   4.020  0.4462  0.3071 -1.5957
  428MOL0     H57744   6.417   8.995   4.347 -1.3121 -0.3125 -0.4599
  428MOL0     H57745   6.226   9.088   4.432  0.5197  0.0118 -1.7310
  428MOL0     H57746   6.009   9.126   4.466  1.5255 -1.0116  0.4126
  428MOL0     H57747   5.949   8.974   4.402  1.9899 -1.2195  1.1251
  428MOL0     H57748   5.788   9.156   4.511 -2.8118 -2.1463 -3.7320
  428MOL0     H57749   5.751   8.986   4.496  0.0166  1.4506 -2.8453
  428MOL0     H57750   5.879   9.088   4.747 -0.9328  0.9737  0.8893
  428MOL0     H57751   5.810   8.937   4.723  0.9124  0.3627 -1.4905
  428MOL0     H57752   5.636   9.198   4.689 -1.8305  0.5489  1.6067
  428MOL0     H57753   5.581   9.030   4.691  0.4708  1.5473 -2.3970
  428MOL0     H57754   5.709   9.171   4.924  1.5797 -1.4260 -1.0493
  428MOL0     H57755   5.666   8.998   4.931 -1.6120 -1.8160 -2.0501
  428MOL0     H57756   5.458   9.190   4.825  1.1489 -0.7464 -0.4747
  428MOL0     H57757   5.430   9.044   4.906 -0.4472  0.9777 -3.8689
  428MOL0     H57758   5.509   9.156   5.131 -2.5177  0.5445  1.9949
  428MOL0     H57759   5.357   9.208   5.083  0.0916 -1.2470 -0.6054
  428MOL0     H57760   5.502   9.389   4.944  4.6518  0.4580  1.4398
  428MOL0     H57761   5.620   9.332   5.049 -0.1095 -2.0187 -1.0878
  428MOL0     H57762   6.138   8.740   4.661  1.7331  0.2136  2.0635
  428MOL0     H57763   6.355   8.635   4.576 -0.9354 -0.4528 -1.2475
  428MOL0     H57764   6.636   8.494   4.353  2.2849 -0.8549  1.0826
  428MOL0     H57765   6.845   8.390   4.283  3.2107 -0.6201 -1.7063
  428MOL0     H57766   6.742   7.528   2.992  0.2544 -0.4639 -2.0611
  428MOL0     H57767   6.604   7.303   3.001 -1.2524 -0.8800  1.1164
  428MOL0     H57768   6.247   7.103   3.059 -0.7528  1.5892  0.1313
  428MOL0     H57769   6.127   6.877   3.037  1.0164  0.0336 -0.2461
  428MOL0     H57770   5.969   6.678   3.403  1.4519  1.3265 -0.4687
  428MOL0     H57771   5.899   6.820   3.323  0.4528  0.2848 -1.1527
  428MOL0     H57772   5.736   6.645   3.298 -1.0379 -1.4710 -1.3792
  428MOL0     H57773   5.868   6.539   3.248 -3.0446 -1.1694  1.3708
  428MOL0     H57774   5.703   6.621   3.073 -0.1623  0.3188  1.6751
  428MOL0     H57775   5.887   6.647   3.040  1.7938  1.0374  2.7165
  428MOL0     H57776   5.771   6.845   2.964  1.1538  3.5147  1.0865
  428MOL0     H57777   5.861   6.879   3.116 -2.0258  1.0455  3.2096
  428MOL0     H57778   5.441   6.907   3.199 -0.1016 -0.2855 -0.3915
  428MOL0     H57779   6.202   6.780   3.435 -1.4908 -1.1126 -1.2750
  428MOL0     H57780   6.359   6.968   3.459  1.7123  1.4257 -0.7116
  429MOL0     O57781   9.643   8.140   2.476  0.0143 -0.1983  0.0985
  429MOL0     C57782   9.699   8.249   2.456  0.3223  0.0341 -0.2405
  429MOL0     O57783   9.761   8.282   2.334  0.0099 -0.0749 -0.2132
  429MOL0     C57784   9.769   8.204   2.222  0.9981  0.2525 -0.3269
  429MOL0     C57785   9.893   8.157   2.173  0.4055 -0.5209  0.0988
  429MOL0     C57786   9.896   8.101   2.042  0.3546  0.2441 -0.5124
  429MOL0     C57787   9.780   8.092   1.969 -0.0403 -0.1945 -0.1564
  429MOL0     O57788   9.801   8.072   1.836 -0.2210 -0.2391 -0.5898
  429MOL0     C57789   9.688   8.012   1.779 -0.2161 -0.5868 -0.1791
  429MOL0     C57790   9.714   7.987   1.633 -0.0122 -0.1600 -0.5408
  429MOL0     C57791   9.807   8.108   1.570  0.0743  0.3789  0.0293
  429MOL0     C57792   9.830   8.093   1.429 -0.6347  0.0496 -0.5594
  429MOL0     C57793   9.921   8.197   1.362  0.1208 -0.4328 -0.2484
  429MOL0     C57794   9.940   8.170   1.224 -0.6378  0.5460  0.7361
  429MOL0     C57795  10.028   8.276   1.151  0.3141  0.7060  0.9037
  429MOL0     C57796  10.051   8.253   1.003  0.5176 -0.6883  0.3602
  429MOL0     N57797   9.937   8.197   0.929  0.5855 -0.2904 -0.1035
  429MOL0     C57798   9.906   8.065   0.905 -0.7246  1.5404 -0.2795
  429MOL0     C57799   9.782   8.070   0.841 -0.2583 -0.5116  0.5830
  429MOL0     C57800   9.701   7.964   0.778  0.5684  0.6041  0.2921
  429MOL0     C57801   9.594   7.917   0.875 -0.7180  0.3422 -0.9121
  429MOL0     C57802   9.636   7.902   1.022  0.3628  0.3687 -0.1490
  429MOL0     C57803   9.512   7.850   1.109  0.1349  0.8834 -0.2981
  429MOL0     O57804   9.560   7.793   1.229  0.3021  0.2867  0.5604
  429MOL0     C57805   9.486   7.786   1.347 -0.4562 -0.2909 -0.3446
  429MOL0     C57806   9.363   7.836   1.370 -0.2401 -0.6685 -0.4260
  429MOL0     C57807   9.306   7.831   1.499 -0.0934 -0.0677 -0.2437
  429MOL0     C57808   9.174   7.908   1.514 -0.3053 -0.5181  1.0563
  429MOL0     C57809   9.377   7.778   1.607  0.6890 -1.4766  0.3198
  429MOL0     C57810   9.340   7.793   1.754 -0.4767  0.0798 -0.3249
  429MOL0     O57811   9.237   7.878   1.794  0.4231  0.1528  1.3828
  429MOL0     C57812   9.231   7.933   1.916  0.0594  0.8924 -0.0687
  429MOL0     C57813   9.274   8.062   1.942 -0.2766 -0.6371 -0.5523
  429MOL0     C57814   9.253   8.119   2.064  0.2356 -0.2302  0.1815
  429MOL0     C57815   9.192   8.045   2.168 -0.1566 -0.1757 -1.2919
  429MOL0     O57816   9.179   8.097   2.296 -0.5212 -0.6119 -0.5489
  429MOL0     C57817   9.279   8.059   2.390  0.1200 -0.5896 -0.5801
  429MOL0     C57818   9.241   8.112   2.522  0.0108 -0.1083  0.4310
  429MOL0     C57819   9.251   8.261   2.527  0.0852 -0.3690 -0.0920
  429MOL0     C57820   9.249   8.317   2.665 -0.7432 -0.6934 -0.5251
  429MOL0     C57821   9.305   8.463   2.653  0.0556  0.2620  0.3187
  429MOL0     C57822   9.240   8.566   2.739  0.4074  0.0921  0.7391
  429MOL0     C57823   9.216   8.514   2.882 -0.3850 -0.4791  0.7187
  429MOL0     C57824   9.155   8.615   2.975  0.2372 -0.1490  0.3399
  429MOL0    Cl57825   9.120   8.553   3.139  0.1931 -0.1917  0.4891
  429MOL0     C57826   9.156   7.910   2.144  0.7552  0.0092 -0.3282
  429MOL0     C57827   9.171   7.861   2.022  0.1578 -0.5681  1.5806
  429MOL0     O57828   9.412   7.734   1.826 -0.9507 -1.0488  0.2498
  429MOL0     C57829   9.497   7.713   1.572 -0.1250  0.1587 -0.7245
  429MOL0     C57830   9.548   7.715   1.446 -0.6038  0.2892  0.3865
  429MOL0     N57831   9.741   8.205   0.842  0.6148  0.3539 -0.6136
  429MOL0     N57832   9.827   8.272   0.906  0.3644 -1.1417  0.3283
  429MOL0     C57833   9.659   8.133   2.025 -0.1231 -0.0947 -0.2774
  429MOL0     C57834   9.650   8.188   2.147  0.4491  0.4242 -0.3520
  429MOL0     C57835   9.697   8.350   2.561  0.4204 -0.5685  0.4732
  429MOL0     C57836   9.730   8.480   2.523  0.8615  0.3672 -0.4566
  429MOL0     C57837   9.735   8.579   2.622  0.6361  1.1713  0.9279
  429MOL0     C57838   9.689   8.551   2.746 -0.1702 -0.4604  0.2247
  429MOL0     O57839   9.670   8.642   2.844  0.0181  0.0439  0.7739
  429MOL0     C57840   9.590   8.756   2.817  0.4594 -0.3625 -0.1816
  429MOL0     C57841   9.522   8.796   2.951 -0.2395 -0.5757 -0.1348
  429MOL0     C57842   9.629   8.806   3.062  0.0123  0.4559  0.2572
  429MOL0     C57843   9.738   8.905   3.035  0.3110 -1.1343  0.1893
  429MOL0     C57844   9.684   9.040   3.023 -0.0300 -0.0608 -0.3280
  429MOL0     C57845   9.647   9.152   3.015  0.2449  0.0150  0.6946
  429MOL0     C57846   9.651   8.419   2.787  0.1653 -0.4233  0.0504
  429MOL0     C57847   9.667   8.314   2.697  0.6145  0.3826  0.3842
  429MOL0     H57848   9.984   8.159   2.233 -0.2765  1.0270  1.1286
  429MOL0     H57849   9.994   8.068   2.007  0.8254 -0.0224  0.9843
  429MOL0     H57850   9.664   7.916   1.826  1.7222 -1.0982 -0.1493
  429MOL0     H57851   9.602   8.079   1.770  1.0204  0.8280 -2.3583
  429MOL0     H57852   9.772   7.894   1.634 -1.0944 -0.8387 -0.2468
  429MOL0     H57853   9.618   7.969   1.585 -0.4100 -5.0353  1.5078
  429MOL0     H57854   9.773   8.209   1.598 -2.0856 -0.3857  0.3031
  429MOL0     H57855   9.905   8.107   1.618 -1.0420  2.4197  2.6183
  429MOL0     H57856   9.868   7.992   1.411  0.0431  0.0145  0.9244
  429MOL0     H57857   9.734   8.089   1.378 -0.1559  0.3219 -1.5218
  429MOL0     H57858   9.868   8.292   1.372 -2.4512 -1.8191  0.0016
  429MOL0     H57859  10.020   8.199   1.409  0.8637  2.7559 -1.7588
  429MOL0     H57860  10.000   8.079   1.211 -0.6558  0.9348 -3.0876
  429MOL0     H57861   9.848   8.153   1.168 -0.3360  0.9708  0.0977
  429MOL0     H57862   9.986   8.375   1.171  0.2898  0.8996 -0.0648
  429MOL0     H57863  10.131   8.283   1.187  2.2261 -0.4126 -3.6053
  429MOL0     H57864  10.137   8.186   0.998  0.9822 -0.2086  1.5866
  429MOL0     H57865  10.057   8.351   0.953 -2.6105 -0.7652 -0.4254
  429MOL0     H57866   9.966   7.974   0.909 -2.0590  0.3855 -3.2018
  429MOL0     H57867   9.663   7.996   0.681  0.0385 -2.3965 -0.6169
  429MOL0     H57868   9.773   7.883   0.763  0.8877  1.2424 -1.9153
  429MOL0     H57869   9.551   7.827   0.831  3.2564 -2.0977 -0.2815
  429MOL0     H57870   9.509   7.986   0.882 -1.2362 -0.2290 -1.4139
  429MOL0     H57871   9.667   7.993   1.076 -1.6099  0.9193  0.1084
  429MOL0     H57872   9.718   7.829   1.020 -0.8787 -1.0892  0.0607
  429MOL0     H57873   9.444   7.783   1.056 -1.1027  1.9232 -0.0771
  429MOL0     H57874   9.451   7.939   1.127  0.2943  1.1686 -1.1499
  429MOL0     H57875   9.308   7.892   1.296 -3.4056  0.7256  2.7129
  429MOL0     H57876   9.213   8.007   1.539  1.6756 -1.0257  0.1742
  429MOL0     H57877   9.120   7.905   1.419 -3.6900  1.2998  2.7397
  429MOL0     H57878   9.107   7.863   1.587 -0.7714 -1.5749  0.0029
  429MOL0     H57879   9.329   8.130   1.878 -3.7571  2.7850 -0.3062
  429MOL0     H57880   9.286   8.220   2.085 -1.1509 -0.2479  2.8773
  429MOL0     H57881   9.289   7.954   2.417  0.7793  0.2930  3.1364
  429MOL0     H57882   9.377   8.091   2.352  0.6225 -0.8156  0.4762
  429MOL0     H57883   9.135   8.087   2.539 -0.4872  0.5390 -1.4599
  429MOL0     H57884   9.291   8.053   2.599 -1.6134 -1.1632  0.7354
  429MOL0     H57885   9.159   8.299   2.481 -0.9696  0.3766  2.4222
  429MOL0     H57886   9.343   8.288   2.475  1.6428 -1.9882  1.6500
  429MOL0     H57887   9.141   8.318   2.686 -1.0087 -1.2469 -1.7784
  429MOL0     H57888   9.301   8.250   2.734 -0.9121 -0.7526 -0.4525
  429MOL0     H57889   9.289   8.496   2.550  0.3489  0.3475  0.2996
  429MOL0     H57890   9.414   8.466   2.665  0.0565  2.5383  0.0975
  429MOL0     H57891   9.288   8.663   2.736  1.4114 -0.1996  3.8028
  429MOL0     H57892   9.138   8.582   2.703  0.2531 -0.6862  0.8109
  429MOL0     H57893   9.299   8.462   2.931  0.4546 -1.6873 -1.8193
  429MOL0     H57894   9.140   8.437   2.868  0.1430 -0.5110 -2.9874
  429MOL0     H57895   9.060   8.656   2.939  1.4258  2.3479 -0.1539
  429MOL0     H57896   9.221   8.702   2.980 -0.5401  0.5268 -0.7480
  429MOL0     H57897   9.094   7.879   2.227  0.9060  4.1369  1.6019
  429MOL0     H57898   9.126   7.768   1.989 -1.9091  1.1777 -0.9469
  429MOL0     H57899   9.564   7.669   1.646 -2.3136  0.7044  1.7267
  429MOL0     H57900   9.649   7.681   1.426  0.5868  4.0437 -0.8274
  429MOL0     H57901   9.562   8.123   1.977  0.1070  1.0763 -1.0282
  429MOL0     H57902   9.560   8.229   2.191  1.0193  1.5783 -0.1958
  429MOL0     H57903   9.745   8.501   2.418 -0.8215 -0.9659 -1.0193
  429MOL0     H57904   9.768   8.680   2.600 -2.2385  1.5042 -2.7567
  429MOL0     H57905   9.662   8.832   2.783  2.0390 -0.7947  1.9866
  429MOL0     H57906   9.510   8.733   2.746 -0.6471 -2.2777  1.6090
  429MOL0     H57907   9.459   8.712   2.981  1.8699 -1.9232  0.6982
  429MOL0     H57908   9.453   8.878   2.972 -0.4822 -2.0536  7.5223
  429MOL0     H57909   9.671   8.708   3.090 -0.6136 -0.0246 -0.4626
  429MOL0     H57910   9.573   8.840   3.150 -0.5637  4.4039 -1.4701
  429MOL0     H57911   9.791   8.874   2.945 -1.2751 -2.8618 -0.2165
  429MOL0     H57912   9.815   8.909   3.112  1.6588  0.5871 -1.1514
  429MOL0     H57913   9.625   9.254   2.992 -2.3553 -0.8478 -1.0649
  429MOL0     H57914   9.618   8.403   2.889  2.1822  0.0382  0.8140
  429MOL0     H57915   9.642   8.210   2.711 -3.6834  1.0766 -0.6994
  430MOL0     O57916   7.618   9.265   0.123 -0.0913  0.2971 -0.0746
  430MOL0     C57917   7.718   9.234   0.057  0.3226 -1.4557  0.2160
  430MOL0     O57918   7.806   9.132   0.083 -0.3450 -0.0540 -0.1190
  430MOL0     C57919   7.836   9.085   0.209 -0.0666  0.0535 -0.8195
  430MOL0     C57920   7.870   8.951   0.207  0.6647 -0.5863 -0.0231
  430MOL0     C57921   7.894   8.882   0.328  1.8244  0.0644  0.6560
  430MOL0     C57922   7.875   8.942   0.448 -0.0722 -0.8982 -0.1621
  430MOL0     O57923   7.897   8.864   0.565 -0.3813  0.3972  0.3991
  430MOL0     C57924   7.986   8.928   0.656 -0.2709  0.0133 -0.0157
  430MOL0     C57925   8.126   8.944   0.604  0.2416  1.4407  1.3315
  430MOL0     C57926   8.196   8.811   0.586 -0.3443  0.4376  0.2874
  430MOL0     C57927   8.328   8.825   0.510  0.4779 -0.0233  0.3385
  430MOL0     C57928   8.395   8.683   0.469  0.8374  0.0940 -0.2184
  430MOL0     C57929   8.490   8.614   0.566 -0.5364 -0.6412 -0.5239
  430MOL0     C57930   8.426   8.578   0.701  0.3224  0.3147 -0.6758
  430MOL0     C57931   8.530   8.509   0.792  0.0495 -0.0303  0.1809
  430MOL0     N57932   8.642   8.590   0.808  1.0003 -0.7316 -0.4030
  430MOL0     C57933   8.657   8.675   0.919 -0.3877 -0.7878 -0.2871
  430MOL0     C57934   8.784   8.721   0.910  0.7591  0.3408 -0.1929
  430MOL0     C57935   8.862   8.816   1.000 -0.4344 -1.1892 -0.1216
  430MOL0     C57936   8.934   8.736   1.118 -0.5586  0.1019 -0.0208
  430MOL0     C57937   8.970   8.828   1.228 -0.2772 -0.3279 -0.6638
  430MOL0     C57938   9.007   8.772   1.372  0.7175 -0.1370 -0.1209
  430MOL0     O57939   8.912   8.691   1.433 -0.1978  0.3213  0.6808
  430MOL0     C57940   8.932   8.659   1.568 -0.1461  0.0593 -0.1204
  430MOL0     C57941   8.825   8.619   1.642 -0.3189  0.0845  0.0534
  430MOL0     C57942   8.832   8.608   1.784 -0.2025 -0.3309  0.1172
  430MOL0     C57943   8.715   8.530   1.844  0.1545  0.2292 -0.4805
  430MOL0     C57944   8.944   8.648   1.855 -0.1374  0.3485 -0.3155
  430MOL0     C57945   8.962   8.620   2.005 -0.5313 -0.7899  0.2209
  430MOL0     O57946   8.847   8.598   2.074 -0.0416  0.5418  0.4220
  430MOL0     C57947   8.853   8.516   2.183 -0.7818 -0.3089  0.7479
  430MOL0     C57948   8.790   8.550   2.303  0.3687 -0.7813  0.0171
  430MOL0     C57949   8.794   8.472   2.408  0.0157  0.3768 -0.6318
  430MOL0     C57950   8.847   8.344   2.407 -0.7143  0.0698  0.2854
  430MOL0     O57951   8.860   8.275   2.527  0.2959 -0.5013 -0.1866
  430MOL0     C57952   8.848   8.133   2.537  0.0642 -0.1379  0.5388
  430MOL0     C57953   8.705   8.076   2.499  0.1462 -0.6610  0.5693
  430MOL0     C57954   8.594   8.173   2.552 -0.6162 -0.2734 -0.9709
  430MOL0     C57955   8.457   8.094   2.551 -0.4155 -0.2398 -0.5025
  430MOL0     C57956   8.329   8.166   2.585 -0.5677 -0.2152  0.6480
  430MOL0     C57957   8.206   8.072   2.573 -0.5774  0.3220  0.2463
  430MOL0     C57958   8.086   8.123   2.659  0.0332  1.4184  0.0816
  430MOL0     C57959   7.999   7.999   2.713  0.0292  0.7168 -0.5661
  430MOL0    Cl57960   7.865   8.049   2.806  0.6142 -0.2925 -0.0361
  430MOL0     C57961   8.890   8.298   2.285 -0.7085  0.7381  0.2442
  430MOL0     C57962   8.907   8.386   2.176  0.2837  0.6032  0.5881
  430MOL0     O57963   9.078   8.609   2.049  0.1273 -0.5829 -0.4364
  430MOL0     C57964   9.057   8.681   1.781 -1.4756 -1.4099  0.0480
  430MOL0     C57965   9.053   8.685   1.638 -0.3701  0.9813 -0.6118
  430MOL0     N57966   8.851   8.642   0.822  0.1177 -0.0966  0.1942
  430MOL0     N57967   8.763   8.567   0.762  0.3827 -0.8212 -0.2954
  430MOL0     C57968   7.830   9.074   0.461 -0.9285  0.6058  1.1961
  430MOL0     C57969   7.818   9.148   0.340 -0.3395  0.4703  0.2426
  430MOL0     C57970   7.745   9.314  -0.071 -0.4128  0.1898  0.1383
  430MOL0     C57971   7.665   9.426  -0.098 -0.1813 -0.2398  0.6329
  430MOL0     C57972   7.703   9.499  -0.214  0.7215 -0.4624 -0.5180
  430MOL0     C57973   7.803   9.455  -0.303 -0.2549  0.3382 -0.2437
  430MOL0     O57974   7.836   9.541  -0.405  0.6901  0.4981  0.7256
  430MOL0     C57975   7.977   9.557  -0.444  0.2288 -1.4106 -0.5894
  430MOL0     C57976   7.973   9.599  -0.598  0.4496 -0.4782 -0.1310
  430MOL0     C57977   7.923   9.737  -0.607 -0.0216  0.7271 -0.1940
  430MOL0     C57978   7.885   9.784  -0.748  0.2854  0.3126  0.3719
  430MOL0     C57979   7.840   9.921  -0.753  1.9197  0.6922 -0.7259
  430MOL0     C57980   7.784  10.029  -0.749  0.8559  0.4624  0.0043
  430MOL0     C57981   7.867   9.337  -0.277 -0.0233 -0.3138  0.1492
  430MOL0     C57982   7.847   9.272  -0.157  0.4665 -0.5938  0.5612
  430MOL0     H57983   7.881   8.905   0.109  0.0466 -1.1308  0.1477
  430MOL0     H57984   7.930   8.779   0.324 -0.1977 -0.8328  2.8310
  430MOL0     H57985   7.936   9.020   0.688 -1.3445 -0.4186 -0.3954
  430MOL0     H57986   7.990   8.867   0.747 -1.9063  1.3966  1.0423
  430MOL0     H57987   8.130   8.978   0.501 -1.8341 -1.9874 -0.0407
  430MOL0     H57988   8.176   9.008   0.678  2.2986 -1.1753  2.3663
  430MOL0     H57989   8.221   8.782   0.688 -0.2098  2.1078  0.7623
  430MOL0     H57990   8.131   8.733   0.546  1.6775 -0.9749 -0.3477
  430MOL0     H57991   8.315   8.877   0.415  2.0652 -1.2822 -0.6302
  430MOL0     H57992   8.398   8.886   0.568  0.7601  0.8134 -0.8402
  430MOL0     H57993   8.308   8.617   0.458 -0.7658  0.8580  5.2911
  430MOL0     H57994   8.451   8.692   0.375 -2.3686 -1.8702 -2.5595
  430MOL0     H57995   8.546   8.535   0.514 -1.2873 -2.3331  1.0960
  430MOL0     H57996   8.566   8.691   0.579  1.2982 -2.1798 -1.5124
  430MOL0     H57997   8.386   8.665   0.754 -0.4092 -0.3665 -0.0827
  430MOL0     H57998   8.343   8.510   0.683  1.4692 -0.4692 -3.4966
  430MOL0     H57999   8.562   8.417   0.743  1.0165  1.7592 -2.8467
  430MOL0     H58000   8.481   8.496   0.889  1.1988  3.0291  1.3108
  430MOL0     H58001   8.578   8.694   0.991  1.3945 -0.4074  1.6847
  430MOL0     H58002   8.956   8.851   0.956  0.1936 -0.0068  2.0244
  430MOL0     H58003   8.806   8.901   1.039  3.6426  0.8779  1.9137
  430MOL0     H58004   9.020   8.686   1.072 -1.6315 -1.7300 -0.1073
  430MOL0     H58005   8.865   8.657   1.149 -1.4168  1.2582  1.1541
  430MOL0     H58006   8.887   8.898   1.238  0.3077  0.3370 -0.3356
  430MOL0     H58007   9.047   8.901   1.200 -1.3404  1.3016  0.4777
  430MOL0     H58008   9.024   8.867   1.424  0.7851  0.2656 -0.8750
  430MOL0     H58009   9.098   8.712   1.358  0.0793 -1.6239  1.6051
  430MOL0     H58010   8.739   8.593   1.580  2.1621 -1.3843 -3.0702
  430MOL0     H58011   8.644   8.590   1.903  0.3045 -0.2109  0.1572
  430MOL0     H58012   8.665   8.469   1.769 -1.1795 -0.4920  0.9275
  430MOL0     H58013   8.753   8.449   1.907  3.4553 -0.6118 -3.3168
  430MOL0     H58014   8.744   8.646   2.323 -2.2237 -1.6463 -1.4181
  430MOL0     H58015   8.738   8.506   2.495 -0.1836 -3.2724  0.8594
  430MOL0     H58016   8.916   8.087   2.466  1.0240  1.8124  0.1170
  430MOL0     H58017   8.890   8.110   2.635  2.1616  3.7348  0.7556
  430MOL0     H58018   8.705   8.071   2.390  2.0978  2.6398  0.2862
  430MOL0     H58019   8.699   7.974   2.538  1.2201 -1.0626 -0.2731
  430MOL0     H58020   8.584   8.254   2.478  1.3356 -1.8586 -3.1397
  430MOL0     H58021   8.606   8.210   2.654 -0.0027  1.7037 -1.7093
  430MOL0     H58022   8.438   8.050   2.453 -2.8455  1.6902 -1.0234
  430MOL0     H58023   8.461   8.018   2.630 -0.7537  1.8946  1.6892
  430MOL0     H58024   8.308   8.250   2.519  2.0438 -1.1841 -1.6378
  430MOL0     H58025   8.340   8.201   2.688 -2.6863  2.6835 -0.0040
  430MOL0     H58026   8.188   8.046   2.469 -1.6369 -1.8981  0.9086
  430MOL0     H58027   8.248   7.981   2.618  0.5043  2.0223  3.0035
  430MOL0     H58028   8.030   8.201   2.607 -1.3403  0.5040  0.1468
  430MOL0     H58029   8.129   8.171   2.747  2.1835  1.5186 -0.9549
  430MOL0     H58030   8.068   7.951   2.782 -0.3741 -2.3598 -2.1485
  430MOL0     H58031   7.974   7.930   2.632 -0.5801  1.1008 -0.7111
  430MOL0     H58032   8.932   8.198   2.294 -4.1124 -1.0354 -1.3904
  430MOL0     H58033   8.949   8.338   2.088 -1.2080 -2.7137  1.4865
  430MOL0     H58034   9.155   8.707   1.820 -0.4240  0.2588 -3.3003
  430MOL0     H58035   9.147   8.702   1.587 -0.3311  1.5460 -0.3614
  430MOL0     H58036   7.819   9.124   0.557  1.6068  4.1175 -0.0973
  430MOL0     H58037   7.780   9.249   0.347  3.8769  2.2106  0.9588
  430MOL0     H58038   7.603   9.472  -0.022  0.8223  1.1456  0.6584
  430MOL0     H58039   7.639   9.583  -0.237  5.1114  2.8591 -2.0462
  430MOL0     H58040   8.010   9.642  -0.384 -1.2610 -1.7630  0.8066
  430MOL0     H58041   8.045   9.475  -0.421  1.2939 -0.3860  0.0007
  430MOL0     H58042   7.905   9.533  -0.652  1.3032  0.5149 -2.5896
  430MOL0     H58043   8.071   9.586  -0.645 -0.6872 -3.0219 -2.0583
  430MOL0     H58044   8.004   9.797  -0.564  1.1617 -0.9023 -0.0661
  430MOL0     H58045   7.837   9.762  -0.543 -0.5077 -1.4149  0.0692
  430MOL0     H58046   7.818   9.713  -0.798 -3.2522  4.0319 -0.7427
  430MOL0     H58047   7.978   9.778  -0.804 -1.1659  0.1751 -2.2039
  430MOL0     H58048   7.730  10.120  -0.736  1.0486  0.9258 -2.1641
  430MOL0     H58049   7.943   9.292  -0.340  0.6571 -0.9597  1.3926
  430MOL0     H58050   7.911   9.186  -0.139  0.1839 -1.9245 -3.6277
  431MOL0     O58051  11.108   9.890   6.719 -0.5665  0.0506 -0.5808
  431MOL0     C58052  11.096   9.935   6.602  0.6851 -1.0283  0.4261
  431MOL0     O58053  11.122  10.065   6.565 -0.0553  0.0977 -0.0578
  431MOL0     C58054  11.167  10.151   6.658 -0.3793  0.0942  0.1565
  431MOL0     C58055  11.099  10.205   6.760  1.3137 -0.3110  0.4771
  431MOL0     C58056  11.147  10.298   6.844  0.0599  0.5646 -0.4392
  431MOL0     C58057  11.275  10.352   6.835  0.2236  0.0948  0.6405
  431MOL0     O58058  11.352  10.450   6.896  0.4964 -0.3480 -0.2685
  431MOL0     C58059  11.291  10.532   6.994 -0.1998 -0.4007 -0.5993
  431MOL0     C58060  11.399  10.625   7.040 -0.2798  0.0988  0.7016
  431MOL0     C58061  11.470  10.703   6.923  0.3545  0.0753 -0.7265
  431MOL0     C58062  11.602  10.765   6.979 -0.1388  0.1736  0.6458
  431MOL0     C58063  11.673  10.832   6.870 -0.9697  0.1909  0.6677
  431MOL0     C58064  11.762  10.726   6.795  0.7300 -0.2491  0.1341
  431MOL0     C58065  11.840  10.782   6.680 -0.6897 -0.2695 -0.2246
  431MOL0     C58066  11.927  10.668   6.632 -0.1190  0.2812 -0.1506
  431MOL0     N58067  12.023  10.723   6.528 -0.4331  1.0468  0.4902
  431MOL0     C58068  11.980  10.753   6.400 -0.2617  0.0550  0.6915
  431MOL0     C58069  12.100  10.780   6.329  0.2983 -0.0666 -0.2521
  431MOL0     C58070  12.113  10.828   6.189 -0.0947  0.0746 -1.0046
  431MOL0     C58071  11.981  10.835   6.118 -0.6558 -0.6933  0.8054
  431MOL0     C58072  11.994  10.838   5.967  0.1125 -0.0954  0.2704
  431MOL0     C58073  11.853  10.879   5.897 -0.7646 -0.9642 -0.1626
  431MOL0     O58074  11.878  10.934   5.768 -0.0445 -0.2274 -0.5226
  431MOL0     C58075  11.901  10.853   5.658 -0.4683  0.2496 -0.1477
  431MOL0     C58076  11.878  10.719   5.653  0.1952 -0.1418  0.3386
  431MOL0     C58077  11.891  10.636   5.543  0.5451  0.5136 -0.7415
  431MOL0     C58078  11.866  10.491   5.567  0.1971  0.3373  0.4899
  431MOL0     C58079  11.912  10.694   5.419 -0.0209 -1.8952 -0.3917
  431MOL0     C58080  11.922  10.629   5.287  0.0081  0.8596  0.1572
  431MOL0     O58081  11.860  10.498   5.274 -1.1627 -0.6826  0.7096
  431MOL0     C58082  11.903  10.425   5.170 -0.5598  0.6599  0.6258
  431MOL0     C58083  11.953  10.289   5.183  0.6559 -0.4086  0.6050
  431MOL0     C58084  11.994  10.218   5.070 -0.8389  0.8170 -0.0113
  431MOL0     C58085  11.965  10.272   4.946  0.4471  0.0686 -0.1881
  431MOL0     O58086  12.018  10.196   4.843  0.2567 -0.1443  0.3794
  431MOL0     C58087  12.097  10.269   4.739 -0.1889  0.2054  0.0057
  431MOL0     C58088  12.142  10.175   4.623  0.5625  0.3839 -0.2866
  431MOL0     C58089  12.016  10.110   4.563  1.1545 -0.1092 -0.3042
  431MOL0     C58090  12.059  10.030   4.442  0.1510 -0.6716 -0.8240
  431MOL0     C58091  11.940   9.940   4.390 -0.9760  0.0100 -0.3845
  431MOL0     C58092  11.981   9.870   4.258  0.5844  0.6047  0.3831
  431MOL0     C58093  11.890   9.758   4.218 -0.4862  0.2255  0.3188
  431MOL0     C58094  11.749   9.799   4.155 -0.4871 -0.1381 -0.5332
  431MOL0    Cl58095  11.734   9.647   4.061 -0.3489  0.3284 -0.3732
  431MOL0     C58096  11.897  10.390   4.936  0.9252 -0.0150  0.5079
  431MOL0     C58097  11.873  10.473   5.042  0.2572  0.2188  1.0461
  431MOL0     O58098  11.988  10.686   5.201 -0.5782 -0.1242 -0.8694
  431MOL0     C58099  11.929  10.842   5.423  0.2810  0.3387 -0.1578
  431MOL0     C58100  11.936  10.917   5.536  0.6127  0.6947 -0.0874
  431MOL0     N58101  12.204  10.745   6.409 -0.1412 -0.0682  0.4136
  431MOL0     N58102  12.161  10.707   6.523  0.2656 -0.7047 -0.8502
  431MOL0     C58103  11.344  10.288   6.732  0.3938  0.0182  0.7468
  431MOL0     C58104  11.302  10.175   6.651 -0.3318 -0.3806 -0.9344
  431MOL0     C58105  11.030   9.859   6.492 -0.5424  0.6737 -0.3626
  431MOL0     C58106  11.006   9.715   6.519  0.9948 -0.0483  0.4184
  431MOL0     C58107  10.934   9.644   6.418 -0.8167  0.5783 -0.2833
  431MOL0     C58108  10.911   9.696   6.294 -0.0431  0.9643 -0.4013
  431MOL0     O58109  10.848   9.607   6.200 -0.6273  0.0561 -0.1907
  431MOL0     C58110  10.759   9.671   6.103  1.0459  0.8073 -0.0076
  431MOL0     C58111  10.612   9.657   6.155 -0.3840  0.9601  0.3770
  431MOL0     C58112  10.506   9.612   6.042 -0.1599 -0.2660 -0.2042
  431MOL0     C58113  10.367   9.581   6.112  0.0070  0.4944  0.4119
  431MOL0     C58114  10.248   9.567   6.021  0.3666 -0.4477 -0.5876
  431MOL0     C58115  10.155   9.581   5.954 -0.1727  0.2827 -0.0482
  431MOL0     C58116  10.952   9.829   6.273  0.9418 -0.0392  0.5198
  431MOL0     C58117  11.002   9.910   6.371  0.0727 -0.1904  0.2165
  431MOL0     H58118  11.006  10.157   6.790 -0.6500  2.5106 -0.6623
  431MOL0     H58119  11.075  10.329   6.919 -0.0158 -1.2470  0.2921
  431MOL0     H58120  11.214  10.597   6.950 -0.0477  0.1159 -0.1177
  431MOL0     H58121  11.241  10.478   7.075  0.3652  0.9160  0.6794
  431MOL0     H58122  11.351  10.704   7.098  2.1919  0.8077  1.9280
  431MOL0     H58123  11.466  10.569   7.107 -2.0424 -1.9270  0.8742
  431MOL0     H58124  11.489  10.641   6.834 -0.6511  2.4546 -2.6939
  431MOL0     H58125  11.409  10.784   6.883 -1.2990 -1.5880 -1.7625
  431MOL0     H58126  11.586  10.832   7.064  2.2548  3.0972 -1.0147
  431MOL0     H58127  11.659  10.682   7.021 -0.3820 -1.0581 -1.3226
  431MOL0     H58128  11.604  10.888   6.806 -0.9859  1.3209  1.6272
  431MOL0     H58129  11.738  10.902   6.922  2.0580 -0.7218 -1.6442
  431MOL0     H58130  11.838  10.689   6.865  2.5272  0.4707 -1.3564
  431MOL0     H58131  11.693  10.649   6.760  0.8476  0.2552 -1.2869
  431MOL0     H58132  11.777  10.802   6.593  0.6380 -0.5200 -1.2827
  431MOL0     H58133  11.897  10.872   6.706  1.1854 -0.1815 -3.9270
  431MOL0     H58134  11.875  10.578   6.595  1.3178  0.3964 -2.6951
  431MOL0     H58135  11.995  10.648   6.715  0.8410  2.8387 -0.2286
  431MOL0     H58136  11.877  10.764   6.369  0.9328 -0.0821 -4.2669
  431MOL0     H58137  12.163  10.926   6.190 -0.5012  0.2838 -0.5573
  431MOL0     H58138  12.172  10.753   6.136  2.1911  1.2595 -0.2408
  431MOL0     H58139  11.913  10.914   6.153  0.3537  0.3682  0.4184
  431MOL0     H58140  11.944  10.733   6.131  2.4202 -2.4433 -2.3527
  431MOL0     H58141  12.032  10.742   5.931  2.0717  0.3794  0.9077
  431MOL0     H58142  12.070  10.915   5.948  0.5209 -0.5263  0.1301
  431MOL0     H58143  11.809  10.958   5.958  4.4299  1.0772  1.4617
  431MOL0     H58144  11.783  10.794   5.898  0.7106 -2.2300  1.6883
  431MOL0     H58145  11.813  10.682   5.732 -1.9042  3.0112  0.2615
  431MOL0     H58146  11.872  10.465   5.673  2.7785  1.9552  0.8160
  431MOL0     H58147  11.764  10.473   5.530  1.7259 -4.1269 -2.4038
  431MOL0     H58148  11.938  10.433   5.508 -1.4674 -1.8948  0.5115
  431MOL0     H58149  11.940  10.252   5.284 -1.2593  1.3717  1.0963
  431MOL0     H58150  12.059  10.132   5.078 -3.0100 -0.9272 -0.2601
  431MOL0     H58151  12.038  10.355   4.707  0.0393  0.0563 -0.8641
  431MOL0     H58152  12.192  10.302   4.783 -1.4660  0.2588  2.8975
  431MOL0     H58153  12.190  10.238   4.547  1.7529 -1.2574 -0.9705
  431MOL0     H58154  12.218  10.102   4.651 -0.9996 -1.2057 -0.0301
  431MOL0     H58155  11.951  10.186   4.518  0.6224  1.2300  2.4807
  431MOL0     H58156  11.970  10.048   4.640 -1.2334  0.0182 -1.5302
  431MOL0     H58157  12.072  10.101   4.360  0.6577  1.4276  0.9829
  431MOL0     H58158  12.150   9.973   4.465 -1.0022 -0.8653  4.4121
  431MOL0     H58159  11.842   9.987   4.381 -0.1249  1.8228 -0.6884
  431MOL0     H58160  11.931   9.858   4.462 -0.7926 -0.3925 -0.8104
  431MOL0     H58161  11.969   9.940   4.175 -0.8982 -1.5620 -1.3246
  431MOL0     H58162  12.087   9.844   4.262 -0.0900 -2.7539 -0.9113
  431MOL0     H58163  11.873   9.680   4.293 -0.8912 -3.0774 -2.9074
  431MOL0     H58164  11.941   9.703   4.139 -0.5615 -2.2486  1.8783
  431MOL0     H58165  11.753   9.896   4.105 -0.7722  0.7063  1.0211
  431MOL0     H58166  11.669   9.815   4.228  0.5890  0.0156  0.6447
  431MOL0     H58167  11.860  10.423   4.840 -1.3955  0.9121  1.6560
  431MOL0     H58168  11.824  10.567   5.019 -3.1373 -2.0375 -1.9175
  431MOL0     H58169  11.938  10.898   5.330  3.0975 -0.6428 -0.5655
  431MOL0     H58170  11.946  11.025   5.542  1.4992  0.6508 -0.7243
  431MOL0     H58171  11.445  10.328   6.720 -0.3810  1.4942 -1.4416
  431MOL0     H58172  11.374  10.121   6.591  2.5210 -0.7318  2.5000
  431MOL0     H58173  11.025   9.654   6.606  1.0964  0.0473  0.4632
  431MOL0     H58174  10.902   9.540   6.428 -0.6430  0.5869  0.4289
  431MOL0     H58175  10.781   9.778   6.097 -4.0221  2.0697 -0.2523
  431MOL0     H58176  10.766   9.630   6.002  1.8164  0.6644  0.0960
  431MOL0     H58177  10.570   9.747   6.201  0.5462  1.7796 -0.3257
  431MOL0     H58178  10.619   9.570   6.222 -4.6220 -0.1637 -0.3655
  431MOL0     H58179  10.544   9.524   5.990  0.1320  1.0622 -2.3438
  431MOL0     H58180  10.483   9.689   5.968 -0.0970 -1.7563 -1.8431
  431MOL0     H58181  10.345   9.659   6.185 -2.7944 -0.0907  0.3265
  431MOL0     H58182  10.373   9.495   6.180  3.4973  0.5915  0.3919
  431MOL0     H58183  10.074   9.601   5.886 -0.3746 -2.9126 -0.9060
  431MOL0     H58184  10.945   9.865   6.171  0.0379 -1.2066  0.1466
  431MOL0     H58185  11.030  10.010   6.339  2.4053 -1.4103 -1.8827
  432MOL0     O58186   0.258  11.000   4.146  0.3192 -0.2804 -0.3833
  432MOL0     C58187   0.208  11.109   4.180 -0.0173 -0.7403 -0.2535
  432MOL0     O58188   0.105  11.168   4.116  0.5016 -0.0521 -0.3583
  432MOL0     C58189   0.055  11.109   3.996 -0.3258 -0.6456 -0.2176
  432MOL0     C58190  -0.042  11.007   3.991  0.8730 -0.8206  0.9945
  432MOL0     C58191  -0.110  10.979   3.869  0.8253 -0.3979  0.0547
  432MOL0     C58192  -0.073  11.044   3.751 -0.8541 -0.3876 -0.0124
  432MOL0     O58193  -0.122  11.018   3.621 -0.2951 -0.4118  0.1089
  432MOL0     C58194  -0.171  10.891   3.603 -0.3673 -0.0153  1.0369
  432MOL0     C58195  -0.321  10.899   3.640 -0.5694 -0.5556 -0.2850
  432MOL0     C58196  -0.413  10.923   3.519 -0.5639 -0.0686 -0.3285
  432MOL0     C58197  -0.556  10.970   3.558 -0.1141  0.3745  0.0602
  432MOL0     C58198  -0.637  10.960   3.439  0.2718 -0.1625  0.1245
  432MOL0     C58199  -0.760  11.047   3.446  0.5540 -1.1393  0.4482
  432MOL0     C58200  -0.822  11.080   3.307 -0.5097 -0.8723 -0.4747
  432MOL0     C58201  -0.880  10.963   3.229 -0.2247 -0.4827 -1.4035
  432MOL0     N58202  -0.924  10.992   3.096 -0.3280  0.2962  0.6489
  432MOL0     C58203  -0.882  11.090   3.007 -0.4518  0.8897 -0.4697
  432MOL0     C58204  -0.986  11.095   2.923 -0.3361 -1.0412 -0.7093
  432MOL0     C58205  -1.001  11.196   2.810  0.5124  0.0088  0.7995
  432MOL0     C58206  -0.991  11.118   2.679  0.7753  0.6742 -0.0753
  432MOL0     C58207  -0.847  11.105   2.629  0.8953 -0.7465 -0.6423
  432MOL0     C58208  -0.831  10.983   2.537 -0.2286 -0.4328  0.1101
  432MOL0     O58209  -0.898  11.013   2.414  0.5549  0.3032 -0.2236
  432MOL0     C58210  -0.933  10.911   2.333 -0.2466 -0.6113  0.7872
  432MOL0     C58211  -0.879  10.785   2.346  0.2966 -0.9499 -0.3844
  432MOL0     C58212  -0.914  10.679   2.267  0.3586  1.6019 -0.4162
  432MOL0     C58213  -0.851  10.548   2.310  0.8264 -0.3005  0.5107
  432MOL0     C58214  -1.013  10.694   2.169 -0.4105  0.9218  0.1676
  432MOL0     C58215  -1.071  10.582   2.085  0.7351 -0.1686 -0.7027
  432MOL0     O58216  -1.015  10.456   2.097 -0.3783  0.0228  0.0793
  432MOL0     C58217  -1.034  10.368   1.994  0.2861 -0.5219  0.3288
  432MOL0     C58218  -1.030  10.236   2.028  0.4552 -0.7305 -0.8874
  432MOL0     C58219  -1.040  10.133   1.928 -0.6574  0.0738 -0.0835
  432MOL0     C58220  -1.072  10.165   1.797 -0.1136  0.2225 -0.5017
  432MOL0     O58221  -1.092  10.076   1.690 -0.2959 -0.7087 -0.1559
  432MOL0     C58222  -0.986   9.969   1.687 -0.1907 -0.6287 -0.0049
  432MOL0     C58223  -1.003   9.874   1.572  0.7313 -0.9725  0.7613
  432MOL0     C58224  -0.935   9.936   1.444  0.4570 -0.7711  0.0027
  432MOL0     C58225  -0.964   9.826   1.345  0.7357 -0.3434 -0.2479
  432MOL0     C58226  -0.939   9.863   1.205 -0.4520 -0.1305 -0.5348
  432MOL0     C58227  -0.953   9.747   1.109  0.6907  0.5880 -0.5563
  432MOL0     C58228  -0.948   9.786   0.966  0.3627 -0.2790 -0.4710
  432MOL0     C58229  -1.008   9.684   0.871 -0.0066  0.8572  0.2601
  432MOL0    Cl58230  -1.187   9.697   0.866 -0.3807  0.1898  0.8480
  432MOL0     C58231  -1.075  10.301   1.770  1.0979  0.8534  0.3491
  432MOL0     C58232  -1.051  10.401   1.859  0.4347 -0.2682 -0.6848
  432MOL0     O58233  -1.176  10.601   2.022 -0.1145 -0.0525 -0.6318
  432MOL0     C58234  -1.060  10.825   2.155 -0.7620 -0.4646  0.1071
  432MOL0     C58235  -1.026  10.930   2.236  0.6005  0.3165 -0.3498
  432MOL0     N58236  -1.069  10.989   2.935  0.8167 -0.1103 -0.0205
  432MOL0     N58237  -1.035  10.925   3.044  0.0119  0.7955  0.1711
  432MOL0     C58238   0.013  11.151   3.764 -0.5839  0.3247  0.1080
  432MOL0     C58239   0.082  11.184   3.882 -0.0763 -0.3985 -0.6139
  432MOL0     C58240   0.270  11.175   4.300  0.5122 -0.0883 -0.6548
  432MOL0     C58241   0.187  11.246   4.377  0.9074 -0.1535  0.8636
  432MOL0     C58242   0.234  11.328   4.473 -0.2826 -0.0010 -0.2922
  432MOL0     C58243   0.371  11.329   4.510  0.3152 -0.1163  0.5555
  432MOL0     O58244   0.426  11.407   4.608  0.2678  0.1620 -0.3608
  432MOL0     C58245   0.340  11.475   4.700 -0.5313 -0.1131  1.7828
  432MOL0     C58246   0.282  11.599   4.637  0.1922 -0.1211 -0.2899
  432MOL0     C58247   0.377  11.674   4.541 -0.8726  0.7883 -1.0481
  432MOL0     C58248   0.292  11.786   4.483 -0.0954 -0.2545 -0.1622
  432MOL0     C58249   0.204  11.737   4.375  0.0079  0.0906 -0.3308
  432MOL0     C58250   0.110  11.720   4.304  1.0019 -0.0535  0.8823
  432MOL0     C58251   0.454  11.243   4.442  0.5755 -0.6954 -0.5333
  432MOL0     C58252   0.408  11.173   4.335 -0.0605  0.1925 -0.0904
  432MOL0     H58253  -0.062  10.943   4.076  0.6414 -2.6678 -0.3776
  432MOL0     H58254  -0.173  10.891   3.869  4.3080 -3.1525 -1.6563
  432MOL0     H58255  -0.171  10.869   3.496  1.4418  0.5706  0.8778
  432MOL0     H58256  -0.120  10.820   3.669 -0.1786  0.3553  1.2935
  432MOL0     H58257  -0.352  10.802   3.681 -2.4553  0.3437  0.5834
  432MOL0     H58258  -0.339  10.978   3.713 -0.6175 -1.2052  0.4188
  432MOL0     H58259  -0.379  11.001   3.451 -0.5407 -0.8837 -1.2752
  432MOL0     H58260  -0.412  10.829   3.464 -1.4371  0.4387 -1.2360
  432MOL0     H58261  -0.595  10.898   3.631 -0.3462  1.3497  0.9190
  432MOL0     H58262  -0.552  11.071   3.599 -0.5724 -0.2322  1.6695
  432MOL0     H58263  -0.580  10.979   3.348  0.0883 -0.0297  0.0354
  432MOL0     H58264  -0.673  10.860   3.413 -2.5209  0.6667  0.4621
  432MOL0     H58265  -0.841  11.010   3.509 -0.7096  2.2962  1.0607
  432MOL0     H58266  -0.738  11.136   3.506 -0.1700 -2.3396  2.5773
  432MOL0     H58267  -0.904  11.150   3.327 -1.1001 -2.1843  2.2142
  432MOL0     H58268  -0.751  11.133   3.243 -1.4941 -0.3555 -1.1629
  432MOL0     H58269  -0.964  10.920   3.284  0.8417  1.0742  1.6809
  432MOL0     H58270  -0.812  10.878   3.235 -2.2827 -2.1298  3.0369
  432MOL0     H58271  -0.798  11.158   3.013  1.4526 -1.3445 -0.2496
  432MOL0     H58272  -1.099  11.242   2.824  0.2884 -0.3064  0.2829
  432MOL0     H58273  -0.921  11.270   2.818 -0.3764  1.2427 -1.0382
  432MOL0     H58274  -1.044  11.182   2.607 -0.0780 -2.0645 -2.0600
  432MOL0     H58275  -1.046  11.023   2.676 -2.4200  2.4104 -2.9199
  432MOL0     H58276  -0.785  11.108   2.719  1.0525 -2.8515 -0.6214
  432MOL0     H58277  -0.816  11.197   2.578  1.8707 -1.4462 -1.3717
  432MOL0     H58278  -0.880  10.902   2.592 -1.2257  0.4589  0.5755
  432MOL0     H58279  -0.724  10.958   2.536  0.0300 -0.5279  5.3938
  432MOL0     H58280  -0.800  10.770   2.418  1.7901  1.3923 -1.4196
  432MOL0     H58281  -0.784  10.547   2.396 -1.6596  0.5267  2.5735
  432MOL0     H58282  -0.941  10.493   2.339 -1.7670  2.1128 -2.2140
  432MOL0     H58283  -0.800  10.500   2.226 -0.4665 -0.1175 -0.3981
  432MOL0     H58284  -1.021  10.216   2.135 -0.3640 -0.0085 -0.6688
  432MOL0     H58285  -1.038  10.026   1.944  4.5267 -0.3737 -1.8510
  432MOL0     H58286  -0.887  10.015   1.691  0.5608 -2.1395 -0.4748
  432MOL0     H58287  -0.996   9.906   1.775  0.5388  2.1435  2.2092
  432MOL0     H58288  -0.954   9.780   1.599  0.8444 -2.3075 -3.3155
  432MOL0     H58289  -1.107   9.866   1.538  0.4444 -0.8043  1.5818
  432MOL0     H58290  -0.826   9.944   1.452  0.4369 -0.0835 -0.3773
  432MOL0     H58291  -0.973  10.032   1.409 -1.7679 -1.1351  1.2149
  432MOL0     H58292  -0.906   9.740   1.379 -1.4761 -2.6612 -1.8835
  432MOL0     H58293  -1.072   9.806   1.344  0.9187 -1.4967 -2.3542
  432MOL0     H58294  -0.839   9.906   1.190  0.4425 -2.2243 -0.9159
  432MOL0     H58295  -1.005   9.942   1.168 -0.9275 -0.6597 -0.8306
  432MOL0     H58296  -0.868   9.680   1.120  0.6883  0.4339 -1.4018
  432MOL0     H58297  -1.046   9.692   1.130  0.5947 -0.3139 -3.0134
  432MOL0     H58298  -0.843   9.810   0.944  0.0046  1.2780 -0.6058
  432MOL0     H58299  -0.992   9.885   0.947 -1.3101 -0.8809  0.0705
  432MOL0     H58300  -0.981   9.588   0.916  2.7512  0.3915 -2.0607
  432MOL0     H58301  -0.960   9.701   0.774 -0.7108  2.0072  0.0868
  432MOL0     H58302  -1.098  10.327   1.667 -0.8763  1.2497  0.8480
  432MOL0     H58303  -1.042  10.507   1.834 -1.4556 -0.1202 -0.9139
  432MOL0     H58304  -1.126  10.838   2.070  1.3959  3.0695 -1.2302
  432MOL0     H58305  -1.078  11.023   2.220  0.5018  0.4929  0.8914
  432MOL0     H58306   0.041  11.199   3.671  1.8759 -2.7370 -0.9161
  432MOL0     H58307   0.144  11.273   3.880  1.3003 -1.3100  0.4689
  432MOL0     H58308   0.080  11.240   4.359  1.1410  1.5494 -1.4613
  432MOL0     H58309   0.161  11.382   4.533 -1.8421 -2.5984  0.3600
  432MOL0     H58310   0.266  11.403   4.734  0.6176 -2.8195 -1.0093
  432MOL0     H58311   0.406  11.507   4.781  0.4214 -0.0613  1.0102
  432MOL0     H58312   0.241  11.655   4.721 -0.8115 -1.6356  0.2864
  432MOL0     H58313   0.191  11.566   4.586  1.4506 -2.1949 -1.3351
  432MOL0     H58314   0.419  11.614   4.460  1.3807 -0.5136  0.9493
  432MOL0     H58315   0.463  11.713   4.596 -1.0390 -0.1406 -0.0982
  432MOL0     H58316   0.353  11.868   4.442  0.9005  1.0271  3.4228
  432MOL0     H58317   0.224  11.827   4.558  1.1297  1.1229  0.2592
  432MOL0     H58318   0.017  11.712   4.251  1.6816  0.4995 -0.4171
  432MOL0     H58319   0.560  11.238   4.466  1.2192  3.0408 -1.9556
  432MOL0     H58320   0.479  11.117   4.275 -0.8662 -0.1192 -0.7708
  433MOL0     O58321   5.878   6.977  10.542 -0.3000 -0.0037 -0.1568
  433MOL0     C58322   5.762   6.993  10.515 -0.0530 -0.3597 -0.3850
  433MOL0     O58323   5.712   7.103  10.463  0.4998 -0.4759 -0.3417
  433MOL0     C58324   5.789   7.211  10.421  0.3313 -0.3174  0.0058
  433MOL0     C58325   5.930   7.211  10.389 -0.3346  0.3853 -0.3360
  433MOL0     C58326   5.986   7.321  10.321 -1.1298 -0.3196 -0.2564
  433MOL0     C58327   5.927   7.446  10.311 -0.0463  0.0428  0.3319
  433MOL0     O58328   5.997   7.549  10.254 -0.4111  0.3281 -0.3216
  433MOL0     C58329   6.003   7.663  10.337  0.3245 -0.8052  0.3121
  433MOL0     C58330   6.084   7.779  10.268  0.6710 -0.2513  0.9945
  433MOL0     C58331   6.114   7.878  10.377 -0.0841 -0.5562 -0.4708
  433MOL0     C58332   6.227   7.979  10.328  0.5597 -0.0772 -0.2789
  433MOL0     C58333   6.260   8.080  10.443  0.7376  0.1723  0.2890
  433MOL0     C58334   6.327   8.015  10.563 -0.5421  0.0136  1.4336
  433MOL0     C58335   6.374   8.112  10.665 -0.2857  1.0345 -0.0303
  433MOL0     C58336   6.445   8.039  10.776 -0.4510 -0.0719 -0.1126
  433MOL0     N58337   6.478   8.141  10.893  0.3668  0.6465  0.0968
  433MOL0     C58338   6.421   8.124  11.012 -0.3516  0.3268 -0.7592
  433MOL0     C58339   6.502   8.190  11.097  0.0247  0.4892 -0.9673
  433MOL0     C58340   6.499   8.190  11.247 -0.2971  0.5705 -0.4055
  433MOL0     C58341   6.529   8.053  11.311 -0.5574 -0.1660  0.0672
  433MOL0     C58342   6.401   7.959  11.302 -1.1611 -1.3570  0.2785
  433MOL0     C58343   6.435   7.820  11.326 -0.4197 -0.4695  1.1771
  433MOL0     O58344   6.513   7.749  11.227  0.1200  0.3015  0.8253
  433MOL0     C58345   6.474   7.750  11.093 -0.5306 -0.1888  0.0609
  433MOL0     C58346   6.342   7.734  11.041  0.3288  0.1365 -0.2577
  433MOL0     C58347   6.319   7.725  10.897  0.4275  0.5593 -1.1347
  433MOL0     C58348   6.176   7.727  10.848  0.2991  0.3975 -0.2043
  433MOL0     C58349   6.426   7.706  10.807  0.9773  0.5116 -0.0773
  433MOL0     C58350   6.410   7.664  10.669 -0.8745 -0.0871  0.5429
  433MOL0     O58351   6.530   7.686  10.598  0.0115  0.1170 -0.0906
  433MOL0     C58352   6.525   7.665  10.462  0.2797 -0.5758  0.3904
  433MOL0     C58353   6.563   7.762  10.370 -0.5178  0.3702 -0.9811
  433MOL0     C58354   6.554   7.732  10.237 -0.4086  0.3031  0.2651
  433MOL0     C58355   6.493   7.614  10.192 -0.6230 -0.2098  0.2082
  433MOL0     O58356   6.480   7.594  10.052 -0.4854 -0.1579 -0.5880
  433MOL0     C58357   6.343   7.546  10.021 -0.2025  0.1449 -0.3349
  433MOL0     C58358   6.332   7.559   9.866  0.1489  0.1026 -0.5735
  433MOL0     C58359   6.433   7.461   9.793 -0.5935  0.8543 -0.0822
  433MOL0     C58360   6.396   7.444   9.638  0.1917 -0.7398  0.0627
  433MOL0     C58361   6.498   7.364   9.567  1.3760  0.6024 -0.2818
  433MOL0     C58362   6.632   7.425   9.543 -0.7713 -0.0908  0.7606
  433MOL0     C58363   6.736   7.314   9.517  0.4384 -0.5627  0.7194
  433MOL0     C58364   6.880   7.367   9.521  0.1231 -0.3304  0.2758
  433MOL0    Cl58365   6.992   7.240   9.473  0.3038 -0.0659  0.4334
  433MOL0     C58366   6.473   7.510  10.279  0.2976  0.6184 -0.5108
  433MOL0     C58367   6.490   7.539  10.408 -0.7126 -0.0974 -0.0521
  433MOL0     O58368   6.311   7.616  10.627  0.1854 -0.1850 -0.2610
  433MOL0     C58369   6.559   7.729  10.859 -0.5729 -0.0875 -0.2139
  433MOL0     C58370   6.569   7.753  10.997  0.1935  0.1969 -0.5755
  433MOL0     N58371   6.606   8.247  11.029 -1.0514 -0.6307  0.0655
  433MOL0     N58372   6.580   8.229  10.901  0.5838 -0.6285  0.3138
  433MOL0     C58373   5.791   7.445  10.352  0.3364 -0.2929  0.2677
  433MOL0     C58374   5.721   7.335  10.414 -0.2156  0.5018 -0.1595
  433MOL0     C58375   5.665   6.896  10.576  0.1768  0.1016 -0.6396
  433MOL0     C58376   5.535   6.918  10.620 -0.2198  0.0573 -0.9076
  433MOL0     C58377   5.448   6.824  10.675 -0.1508 -0.4439 -0.1581
  433MOL0     C58378   5.495   6.694  10.685  0.0686 -0.7791  0.8339
  433MOL0     O58379   5.421   6.585  10.730  0.2763 -0.1891  0.0302
  433MOL0     C58380   5.301   6.605  10.803 -1.2504 -0.3225  0.0877
  433MOL0     C58381   5.205   6.480  10.812 -0.9965 -0.3588 -0.2747
  433MOL0     C58382   5.235   6.400  10.936 -0.2335 -0.1440 -0.5145
  433MOL0     C58383   5.195   6.255  10.921  0.3923  0.0229 -0.0554
  433MOL0     C58384   5.058   6.240  10.860 -0.7461  0.3291 -0.2874
  433MOL0     C58385   4.941   6.222  10.826 -0.5648 -0.1895  0.5221
  433MOL0     C58386   5.624   6.666  10.648  0.7692  0.2529  0.0489
  433MOL0     C58387   5.710   6.766  10.594 -0.0519 -0.2275  0.8160
  433MOL0     H58388   5.998   7.128  10.377  1.9132  2.1008 -0.1906
  433MOL0     H58389   6.085   7.302  10.283  0.5955 -3.7839  4.9249
  433MOL0     H58390   5.903   7.700  10.360  0.8177 -0.7664  2.6252
  433MOL0     H58391   6.055   7.635  10.429  0.6890 -0.6476  0.1552
  433MOL0     H58392   6.174   7.749  10.212  0.3424 -0.7830  0.7428
  433MOL0     H58393   6.025   7.839  10.199  1.7975 -0.9532 -0.6468
  433MOL0     H58394   6.033   7.937  10.420  1.1792 -0.5417  2.0841
  433MOL0     H58395   6.161   7.814  10.453  0.1779 -0.5900 -0.6620
  433MOL0     H58396   6.322   7.932  10.298  1.7029  1.6319  0.5137
  433MOL0     H58397   6.196   8.034  10.239  0.2743 -0.9047 -0.7063
  433MOL0     H58398   6.337   8.140  10.394  0.4963 -0.2838 -0.6787
  433MOL0     H58399   6.168   8.134  10.469  0.6428 -0.8693  2.3039
  433MOL0     H58400   6.271   7.930  10.603  0.5646 -1.3956  0.1018
  433MOL0     H58401   6.420   7.970  10.528  1.0196  3.0129  1.3568
  433MOL0     H58402   6.436   8.189  10.617  3.7383 -0.4086  2.3083
  433MOL0     H58403   6.284   8.155  10.709 -2.1930 -2.8447  0.2763
  433MOL0     H58404   6.539   7.996  10.740 -0.0881  0.4354  0.2067
  433MOL0     H58405   6.383   7.955  10.807 -1.7545  1.9270  3.2360
  433MOL0     H58406   6.332   8.066  11.033  0.0379  0.0735  0.2628
  433MOL0     H58407   6.564   8.270  11.283  0.0815  1.3741 -2.6929
  433MOL0     H58408   6.395   8.204  11.280 -0.3100 -3.3612  1.8843
  433MOL0     H58409   6.563   8.078  11.412 -3.7524  1.9814  0.7683
  433MOL0     H58410   6.608   8.007  11.251  0.1056  0.3508  0.5339
  433MOL0     H58411   6.363   7.973  11.200  1.6648  1.7746 -0.5271
  433MOL0     H58412   6.328   7.999  11.373  0.3673 -0.7510  1.5553
  433MOL0     H58413   6.339   7.767  11.328 -3.3908  4.3239  1.4897
  433MOL0     H58414   6.496   7.814  11.416  2.7310  1.8243 -0.6104
  433MOL0     H58415   6.263   7.737  11.116 -0.2243 -2.7300 -0.6219
  433MOL0     H58416   6.102   7.745  10.926 -1.7009 -1.7613 -1.4550
  433MOL0     H58417   6.166   7.797  10.765 -1.0256  0.1255 -0.2937
  433MOL0     H58418   6.144   7.624  10.829 -0.5091  0.1256  2.2951
  433MOL0     H58419   6.598   7.861  10.397 -2.4967  0.4997  1.5831
  433MOL0     H58420   6.573   7.811  10.166  0.8466  0.0136  0.2622
  433MOL0     H58421   6.330   7.444  10.061  0.8108  0.7366  1.6627
  433MOL0     H58422   6.278   7.620  10.069  2.0804  1.8252  0.3563
  433MOL0     H58423   6.230   7.541   9.832  0.0762  1.6801 -1.3160
  433MOL0     H58424   6.360   7.661   9.835  0.3407 -0.6494 -3.1391
  433MOL0     H58425   6.435   7.360   9.833 -1.4948  1.3039  1.1573
  433MOL0     H58426   6.531   7.509   9.796 -1.0604  1.7994  0.8997
  433MOL0     H58427   6.306   7.383   9.641  0.4661 -1.1537 -0.0747
  433MOL0     H58428   6.391   7.546   9.598 -0.9798 -1.5652 -2.0149
  433MOL0     H58429   6.464   7.339   9.466 -2.5187 -0.6890  1.1944
  433MOL0     H58430   6.515   7.263   9.605 -0.6605 -0.0130 -0.9247
  433MOL0     H58431   6.621   7.497   9.460  0.2859 -0.7961 -0.0224
  433MOL0     H58432   6.675   7.486   9.623  2.6168  0.6717 -1.3781
  433MOL0     H58433   6.726   7.255   9.426  1.1255 -1.6420  1.3338
  433MOL0     H58434   6.737   7.249   9.605  0.4281  0.2956  1.3707
  433MOL0     H58435   6.908   7.400   9.621  2.3619 -2.2769  0.3995
  433MOL0     H58436   6.880   7.457   9.459 -2.4949 -0.1691  0.4365
  433MOL0     H58437   6.426   7.414  10.255  0.9355  0.3700 -0.7931
  433MOL0     H58438   6.487   7.459  10.481  2.3813 -1.4098 -1.2231
  433MOL0     H58439   6.650   7.727  10.800 -0.4328  2.1825 -0.1724
  433MOL0     H58440   6.664   7.775  11.045  0.9361  1.0083 -2.3448
  433MOL0     H58441   5.750   7.544  10.334  2.4598 -0.0023 -4.3650
  433MOL0     H58442   5.618   7.343  10.448 -0.2450 -3.0414  1.0536
  433MOL0     H58443   5.474   7.007  10.606 -3.3978 -1.8863 -0.4287
  433MOL0     H58444   5.347   6.857  10.695  0.2282  1.1129 -0.6784
  433MOL0     H58445   5.334   6.633  10.904 -1.3289 -3.5561  1.1136
  433MOL0     H58446   5.243   6.687  10.759 -1.7708 -0.7805 -0.1021
  433MOL0     H58447   5.214   6.417  10.723  1.1747 -0.2792 -0.1693
  433MOL0     H58448   5.099   6.504  10.828 -0.0947  3.0147  1.5016
  433MOL0     H58449   5.180   6.435  11.024  0.7802  1.9331 -0.6419
  433MOL0     H58450   5.342   6.407  10.959 -0.5872  4.2519  0.6873
  433MOL0     H58451   5.200   6.200  11.016  1.8732  0.2472  0.0099
  433MOL0     H58452   5.269   6.203  10.861  0.6854  0.3537  0.0192
  433MOL0     H58453   4.843   6.218  10.783  0.0347  0.5991 -0.9943
  433MOL0     H58454   5.656   6.562  10.653  0.1793  0.1328  1.9363
  433MOL0     H58455   5.810   6.727  10.581 -1.0143 -2.3704 -0.6573
  434MOL0     O58456   5.698   6.325   5.624  0.3676  0.0781  0.7579
  434MOL0     C58457   5.807   6.299   5.569  0.8438 -0.3866  0.1199
  434MOL0     O58458   5.885   6.389   5.495 -0.2529 -0.4724  0.4291
  434MOL0     C58459   5.845   6.517   5.495  0.3973  0.1006 -0.5286
  434MOL0     C58460   5.865   6.591   5.617 -0.5884  0.5897  0.7496
  434MOL0     C58461   5.850   6.730   5.622  0.1784  0.8555  0.2815
  434MOL0     C58462   5.810   6.789   5.503 -0.3997 -0.6845  0.0755
  434MOL0     O58463   5.787   6.933   5.487 -0.6315  0.0282 -0.2557
  434MOL0     C58464   5.807   7.021   5.604 -0.0847  0.5928  0.0941
  434MOL0     C58465   5.751   7.152   5.557 -0.4303 -0.1228  0.0380
  434MOL0     C58466   5.778   7.263   5.659 -0.3808 -0.3528 -0.2129
  434MOL0     C58467   5.914   7.295   5.684 -0.2711  0.1817  0.8928
  434MOL0     C58468   5.939   7.428   5.758 -0.4996 -0.0971  0.4428
  434MOL0     C58469   5.858   7.429   5.900  0.1450  0.3781  0.6902
  434MOL0     C58470   5.884   7.562   5.993 -0.4423  0.1085  0.8808
  434MOL0     C58471   5.925   7.693   5.922  1.1980  0.7457  0.1292
  434MOL0     N58472   6.055   7.692   5.861  0.2826 -0.2644  0.2508
  434MOL0     C58473   6.098   7.697   5.730  0.5209  0.4577 -0.2963
  434MOL0     C58474   6.240   7.690   5.731  0.3889 -0.2848 -0.7000
  434MOL0     C58475   6.337   7.709   5.617 -0.5914  0.4700 -0.2086
  434MOL0     C58476   6.285   7.668   5.484  0.0869 -0.8077 -0.8263
  434MOL0     C58477   6.392   7.678   5.381 -0.4949 -0.6148 -0.5108
  434MOL0     C58478   6.434   7.814   5.334  1.1734  0.8257 -0.3947
  434MOL0     O58479   6.548   7.799   5.254 -0.1561  0.1783  0.1141
  434MOL0     C58480   6.621   7.910   5.222 -0.5801 -0.5086  0.4520
  434MOL0     C58481   6.604   8.043   5.260  0.7233 -0.4530  0.1495
  434MOL0     C58482   6.688   8.150   5.223 -0.3419 -0.6207 -0.7961
  434MOL0     C58483   6.655   8.290   5.268 -0.4522 -0.2968 -0.2727
  434MOL0     C58484   6.807   8.115   5.148 -1.1014  0.2733 -0.3848
  434MOL0     C58485   6.916   8.213   5.104 -0.2052  0.6154  0.2922
  434MOL0     O58486   7.006   8.172   5.005  0.1448  0.2361 -0.5252
  434MOL0     C58487   7.110   8.240   4.962  0.0803  0.2534  0.6171
  434MOL0     C58488   7.193   8.310   5.047  0.0427 -0.2570  0.2549
  434MOL0     C58489   7.292   8.396   4.992  0.5296  0.0331 -0.4957
  434MOL0     C58490   7.307   8.403   4.854 -0.1881 -0.6336 -0.0971
  434MOL0     O58491   7.408   8.469   4.796 -0.2860 -0.5401 -0.0853
  434MOL0     C58492   7.514   8.533   4.873  0.2263 -0.9156 -0.5705
  434MOL0     C58493   7.627   8.586   4.782  0.3769 -0.5087  1.2542
  434MOL0     C58494   7.710   8.687   4.859 -0.5347 -0.6014 -0.8995
  434MOL0     C58495   7.828   8.746   4.778 -0.2436  0.1560 -0.4675
  434MOL0     C58496   7.903   8.848   4.860 -0.0161  0.1203 -0.3379
  434MOL0     C58497   7.997   8.933   4.780 -0.3171 -1.0168 -0.0488
  434MOL0     C58498   8.041   9.062   4.860  0.0860  0.9032 -0.9160
  434MOL0     C58499   7.974   9.190   4.796 -0.4709 -0.4706 -0.0744
  434MOL0    Cl58500   8.040   9.247   4.634  0.1939  0.4915 -0.2898
  434MOL0     C58501   7.211   8.338   4.773 -0.5343  0.7048  0.6333
  434MOL0     C58502   7.114   8.253   4.821  0.5027 -0.7674  0.1780
  434MOL0     O58503   6.922   8.320   5.160  0.5935 -0.4070  0.1079
  434MOL0     C58504   6.830   7.977   5.130 -0.2548 -0.6383  0.0975
  434MOL0     C58505   6.738   7.881   5.156 -0.7834 -0.2491 -0.5004
  434MOL0     N58506   6.278   7.679   5.859  0.2363 -0.3942  0.0904
  434MOL0     N58507   6.169   7.685   5.938  0.0966  0.2782 -0.0356
  434MOL0     C58508   5.791   6.711   5.381 -0.7156  0.3624 -0.6663
  434MOL0     C58509   5.810   6.579   5.372 -1.0722 -0.1233 -0.6744
  434MOL0     C58510   5.857   6.164   5.580  0.1840 -0.7379  0.0182
  434MOL0     C58511   5.985   6.135   5.539 -0.5958 -0.8634  0.9036
  434MOL0     C58512   6.045   6.011   5.537 -0.0290 -0.4310 -0.8593
  434MOL0     C58513   5.963   5.902   5.573  0.5252 -0.0730  1.2632
  434MOL0     O58514   6.014   5.774   5.559  0.5207 -0.9062 -0.0745
  434MOL0     C58515   5.937   5.653   5.561 -1.1090 -0.7339 -0.0202
  434MOL0     C58516   5.913   5.607   5.705  0.6409 -0.2547 -0.5474
  434MOL0     C58517   6.031   5.558   5.783  0.0801 -0.3632 -0.2627
  434MOL0     C58518   6.074   5.412   5.751  0.2907 -0.4016 -0.5389
  434MOL0     C58519   5.989   5.304   5.807  0.0300  0.3029  0.7528
  434MOL0     C58520   5.903   5.232   5.856  0.5703 -0.2113 -0.1772
  434MOL0     C58521   5.838   5.926   5.627 -0.1954  0.0965 -0.6477
  434MOL0     C58522   5.784   6.053   5.637 -0.3625 -0.5771 -0.4707
  434MOL0     H58523   5.882   6.542   5.712  0.8169  0.0722  0.2592
  434MOL0     H58524   5.871   6.768   5.721  4.1338 -0.3246  0.0667
  434MOL0     H58525   5.763   6.972   5.692 -0.0511 -1.0053 -0.7371
  434MOL0     H58526   5.915   7.024   5.621  0.3410  2.8487 -2.4906
  434MOL0     H58527   5.813   7.173   5.469  5.6306 -1.9438  3.2683
  434MOL0     H58528   5.644   7.148   5.538 -0.3571  1.9837 -1.1332
  434MOL0     H58529   5.726   7.349   5.615 -0.3039 -0.6676 -0.9180
  434MOL0     H58530   5.732   7.234   5.754  1.6681 -1.5263  0.4698
  434MOL0     H58531   5.958   7.211   5.739 -0.5142 -0.3849  0.2375
  434MOL0     H58532   5.961   7.308   5.586  0.6080 -0.7506  1.1633
  434MOL0     H58533   6.042   7.452   5.784 -0.5792 -0.9387  1.6336
  434MOL0     H58534   5.890   7.505   5.699 -1.4908  0.2751  1.7034
  434MOL0     H58535   5.750   7.421   5.888 -0.0280  2.3681  0.5965
  434MOL0     H58536   5.892   7.341   5.957  1.7219  1.3860  1.3770
  434MOL0     H58537   5.791   7.573   6.050  0.7872 -1.1636  3.3124
  434MOL0     H58538   5.956   7.534   6.070 -0.0812 -4.2290 -0.7186
  434MOL0     H58539   5.925   7.778   5.990  0.9850  0.6793  0.2132
  434MOL0     H58540   5.860   7.708   5.835  2.9547  0.0498 -1.3658
  434MOL0     H58541   6.043   7.699   5.637 -1.5579 -3.5253  0.6071
  434MOL0     H58542   6.366   7.814   5.607  2.2865 -0.2799 -0.5169
  434MOL0     H58543   6.430   7.659   5.646 -0.3495  1.9848  1.8722
  434MOL0     H58544   6.197   7.729   5.461 -0.3368  0.0839  2.6297
  434MOL0     H58545   6.246   7.566   5.476  0.5479 -1.2883  2.0751
  434MOL0     H58546   6.348   7.632   5.293 -2.5780  0.9813 -0.3652
  434MOL0     H58547   6.483   7.620   5.404  0.4329  1.0348  0.1838
  434MOL0     H58548   6.466   7.877   5.417  1.4448  1.0497 -0.6683
  434MOL0     H58549   6.354   7.852   5.270 -0.7890  1.9206  2.5160
  434MOL0     H58550   6.520   8.077   5.321  1.0686  0.8235 -0.0554
  434MOL0     H58551   6.724   8.347   5.330 -1.4569  1.8387 -1.0026
  434MOL0     H58552   6.638   8.356   5.182 -1.6869  1.7156  1.4337
  434MOL0     H58553   6.559   8.292   5.320 -0.9211 -2.5937 -0.9303
  434MOL0     H58554   7.197   8.290   5.154  1.4444  0.1513  0.2959
  434MOL0     H58555   7.361   8.446   5.059 -0.5823  1.1809 -0.1607
  434MOL0     H58556   7.465   8.622   4.914 -0.5509 -0.3086 -2.6738
  434MOL0     H58557   7.565   8.469   4.945  3.4570 -2.3928 -3.8682
  434MOL0     H58558   7.678   8.501   4.736 -0.1303 -0.7897  1.1963
  434MOL0     H58559   7.590   8.641   4.695  1.9491 -1.6335 -0.1814
  434MOL0     H58560   7.756   8.650   4.951 -0.8558  1.4028  0.1131
  434MOL0     H58561   7.642   8.768   4.885 -2.3909 -2.2612 -0.3682
  434MOL0     H58562   7.889   8.664   4.738 -0.7024  1.2711 -3.7081
  434MOL0     H58563   7.786   8.788   4.687 -2.1384  0.4916  0.5145
  434MOL0     H58564   7.956   8.807   4.946 -1.5727  3.3208  2.3435
  434MOL0     H58565   7.834   8.917   4.909 -1.1649 -0.6713 -0.7722
  434MOL0     H58566   8.091   8.894   4.739  0.7369  3.8430 -3.1189
  434MOL0     H58567   7.939   8.970   4.696 -2.4857 -0.3691  1.6409
  434MOL0     H58568   8.150   9.070   4.855  0.5918 -1.8502  2.0190
  434MOL0     H58569   7.999   9.061   4.961  1.2587  2.8277 -0.3705
  434MOL0     H58570   7.993   9.267   4.872 -1.0530 -2.2319  1.9465
  434MOL0     H58571   7.866   9.183   4.784 -0.2729 -1.0085 -1.8026
  434MOL0     H58572   7.206   8.353   4.666 -3.5095 -1.8173  0.2811
  434MOL0     H58573   7.060   8.187   4.754 -0.9559 -0.3511  0.8998
  434MOL0     H58574   6.923   7.949   5.082  0.5725  0.1369  1.1872
  434MOL0     H58575   6.755   7.781   5.117 -1.7637 -1.4777  1.9901
  434MOL0     H58576   5.754   6.757   5.290 -1.7928 -0.0504 -0.4637
  434MOL0     H58577   5.792   6.521   5.281 -1.2769  0.4403 -1.0000
  434MOL0     H58578   6.036   6.219   5.493 -0.4456 -1.3406  0.1561
  434MOL0     H58579   6.142   5.999   5.489 -0.5309  0.5740 -2.1817
  434MOL0     H58580   5.845   5.655   5.502  1.5500 -1.3763 -4.6224
  434MOL0     H58581   5.988   5.576   5.502  0.2441  1.2313 -1.5072
  434MOL0     H58582   5.844   5.522   5.709 -1.8268  1.5872  4.2474
  434MOL0     H58583   5.858   5.686   5.757 -0.6325 -1.0471 -0.6458
  434MOL0     H58584   5.996   5.568   5.886 -2.4332 -2.0043 -0.8913
  434MOL0     H58585   6.118   5.624   5.772 -0.4511  0.2759 -0.7705
  434MOL0     H58586   6.172   5.418   5.800  0.2743  0.0433 -0.5540
  434MOL0     H58587   6.093   5.400   5.644  1.2885 -1.7395 -0.2452
  434MOL0     H58588   5.831   5.157   5.882  1.4904 -2.0921 -2.5716
  434MOL0     H58589   5.780   5.837   5.648 -1.2051  0.1010 -3.0314
  434MOL0     H58590   5.684   6.068   5.676 -0.0151  2.1268 -0.4844
  435MOL0     O58591  11.152   6.611   4.774  0.4831 -0.2293 -0.2968
  435MOL0     C58592  11.040   6.645   4.824  1.1442 -0.1643 -0.5722
  435MOL0     O58593  10.922   6.568   4.813 -0.6586 -0.0798  0.2770
  435MOL0     C58594  10.924   6.437   4.772  0.8328 -0.5155  0.2383
  435MOL0     C58595  10.814   6.365   4.817 -0.1202  0.2441 -0.5537
  435MOL0     C58596  10.780   6.227   4.789 -0.0273 -0.0060  0.7294
  435MOL0     C58597  10.866   6.164   4.699  0.3940  0.2585 -0.0841
  435MOL0     O58598  10.837   6.036   4.660  0.8765  0.5311 -0.3695
  435MOL0     C58599  10.859   5.936   4.762  0.2397 -0.3138  0.3903
  435MOL0     C58600  11.005   5.910   4.809  0.7684 -0.0819 -0.3082
  435MOL0     C58601  11.020   5.782   4.882  0.5872  0.8487 -0.0583
  435MOL0     C58602  11.156   5.768   4.968 -0.0575 -0.7047 -0.6514
  435MOL0     C58603  11.206   5.625   4.944  0.1807  0.4452  0.0543
  435MOL0     C58604  11.137   5.526   5.027 -0.5180  1.2775 -0.2551
  435MOL0     C58605  11.171   5.539   5.177  1.3439  0.2683  0.4394
  435MOL0     C58606  11.145   5.400   5.238  0.7369  0.4324  0.3799
  435MOL0     N58607  11.183   5.401   5.377 -0.7822 -0.0789  0.1859
  435MOL0     C58608  11.292   5.321   5.421 -0.4246 -1.2195 -0.7077
  435MOL0     C58609  11.293   5.348   5.555 -0.7875  1.3099  0.4684
  435MOL0     C58610  11.389   5.298   5.653 -0.1590  0.0828  0.6405
  435MOL0     C58611  11.530   5.279   5.597  0.5231  0.5111 -0.9474
  435MOL0     C58612  11.620   5.307   5.724 -0.6906 -0.1978  0.4489
  435MOL0     C58613  11.657   5.178   5.806  0.1396  0.6969  0.7371
  435MOL0     O58614  11.750   5.189   5.912 -0.4060 -0.3768 -0.3532
  435MOL0     C58615  11.878   5.152   5.892  0.1357 -0.1248 -0.5201
  435MOL0     C58616  11.943   5.126   6.016  0.4683 -0.9358 -0.0195
  435MOL0     C58617  12.083   5.103   6.008  0.2812  0.5794  0.8237
  435MOL0     C58618  12.138   5.087   6.142 -0.0315  0.5690 -0.7712
  435MOL0     C58619  12.154   5.089   5.887 -0.3762 -0.4796 -0.2851
  435MOL0     C58620  12.298   5.056   5.874 -0.2197 -0.7221 -1.0725
  435MOL0     O58621  12.335   5.005   5.750  0.2176  0.2983 -0.2052
  435MOL0     C58622  12.462   4.959   5.742 -1.2640 -1.0409  0.6443
  435MOL0     C58623  12.565   5.053   5.707 -0.4387  0.2756  0.3442
  435MOL0     C58624  12.691   5.001   5.694 -1.3062 -0.8235  0.0252
  435MOL0     C58625  12.725   4.869   5.721 -1.0023 -0.3072 -0.2849
  435MOL0     O58626  12.849   4.813   5.709  0.6394 -0.9206 -0.1603
  435MOL0     C58627  12.962   4.901   5.682 -0.9339 -0.3378  0.1871
  435MOL0     C58628  13.094   4.817   5.666  0.6767 -0.6639  0.1141
  435MOL0     C58629  13.121   4.764   5.812  0.2414 -0.5759  0.3150
  435MOL0     C58630  13.248   4.683   5.817 -0.7091  0.0572  0.8419
  435MOL0     C58631  13.272   4.596   5.942  0.2783 -0.5644  0.4741
  435MOL0     C58632  13.399   4.519   5.937 -0.1057 -0.0881 -0.7381
  435MOL0     C58633  13.387   4.416   6.047  0.0364  0.8877 -0.4489
  435MOL0     C58634  13.514   4.330   6.057  0.7223 -0.0509 -0.5224
  435MOL0    Cl58635  13.475   4.180   6.137 -0.2913  0.0294 -0.0764
  435MOL0     C58636  12.619   4.782   5.756 -0.4571  0.2989 -0.5548
  435MOL0     C58637  12.488   4.827   5.767 -0.2647  0.4250 -0.2598
  435MOL0     O58638  12.375   5.087   5.960 -0.2025 -0.4236 -0.2747
  435MOL0     C58639  12.081   5.114   5.767  0.1104  0.0529  0.1560
  435MOL0     C58640  11.950   5.154   5.767  0.4311  0.6940 -0.4498
  435MOL0     N58641  11.190   5.439   5.576 -1.1841 -0.9477  0.1354
  435MOL0     N58642  11.124   5.468   5.472 -0.5203  0.1774 -0.5981
  435MOL0     C58643  10.988   6.227   4.664 -0.8556 -0.0733 -0.3446
  435MOL0     C58644  11.009   6.368   4.681 -0.3087  0.1789 -0.9439
  435MOL0     C58645  11.028   6.772   4.877  0.7542 -0.3810  0.3148
  435MOL0     C58646  11.124   6.872   4.847  0.1363 -0.1952  1.1336
  435MOL0     C58647  11.118   7.005   4.903  0.6314 -0.1368 -1.0484
  435MOL0     C58648  11.014   7.035   4.995 -0.0002  0.2518 -0.7622
  435MOL0     O58649  11.003   7.158   5.049 -0.0077 -0.1290  0.3277
  435MOL0     C58650  10.977   7.149   5.188  0.3393 -0.2051  0.6707
  435MOL0     C58651  11.052   7.271   5.250 -0.0553 -0.2352  0.4749
  435MOL0     C58652  11.011   7.299   5.388  0.3980  0.0992 -0.1028
  435MOL0     C58653  10.860   7.316   5.419 -0.1883  0.6771 -0.3221
  435MOL0     C58654  10.831   7.396   5.538 -1.1728 -0.6531  0.3472
  435MOL0     C58655  10.802   7.477   5.625 -0.6855 -0.7571 -0.2186
  435MOL0     C58656  10.924   6.939   5.022  0.8123  0.5918  0.3485
  435MOL0     C58657  10.925   6.810   4.965  0.5987  1.1783 -0.5433
  435MOL0     H58658  10.744   6.428   4.872  0.0535 -2.1513  2.7341
  435MOL0     H58659  10.682   6.197   4.825 -1.5925  2.5826 -1.1032
  435MOL0     H58660  10.793   5.953   4.848  0.0535 -0.7089  0.3278
  435MOL0     H58661  10.826   5.843   4.716  0.9244 -0.7768  0.8027
  435MOL0     H58662  11.070   5.901   4.722  1.5254  0.8556  0.1381
  435MOL0     H58663  11.027   5.995   4.874  0.5084 -0.2368 -0.0171
  435MOL0     H58664  10.939   5.752   4.948 -1.2773  0.4425 -2.3969
  435MOL0     H58665  11.028   5.712   4.798 -0.4567  1.3768 -0.6199
  435MOL0     H58666  11.233   5.841   4.939  0.5601 -0.2404  1.9260
  435MOL0     H58667  11.134   5.786   5.073  0.3899  0.8758 -0.8040
  435MOL0     H58668  11.195   5.596   4.839  1.9198  0.3834 -0.1409
  435MOL0     H58669  11.315   5.628   4.959  0.4193  1.6881 -1.5731
  435MOL0     H58670  11.028   5.525   5.015 -0.6828  0.9506  1.1950
  435MOL0     H58671  11.170   5.426   4.997  1.4871  1.0139  2.4732
  435MOL0     H58672  11.267   5.584   5.204  1.8320 -1.4595  1.8309
  435MOL0     H58673  11.098   5.606   5.221 -1.3560  0.7415 -4.0957
  435MOL0     H58674  11.199   5.323   5.182 -1.8907 -1.0681 -0.2676
  435MOL0     H58675  11.039   5.386   5.217  0.4923  0.1288  1.7524
  435MOL0     H58676  11.373   5.276   5.366  0.6710  2.8505 -2.8503
  435MOL0     H58677  11.383   5.365   5.739  1.5540  1.5038 -0.2746
  435MOL0     H58678  11.353   5.200   5.687 -0.7171 -0.2970 -0.9422
  435MOL0     H58679  11.555   5.356   5.523 -3.9563  0.1874 -3.1094
  435MOL0     H58680  11.538   5.179   5.552 -0.7711 -0.7426  1.4435
  435MOL0     H58681  11.590   5.391   5.787  2.4343  2.5317 -1.3850
  435MOL0     H58682  11.713   5.352   5.688 -1.8332  0.1682 -2.2968
  435MOL0     H58683  11.684   5.108   5.727 -1.9926  1.2997 -0.6363
  435MOL0     H58684  11.562   5.135   5.840 -1.2432  1.2624 -2.0559
  435MOL0     H58685  11.886   5.144   6.106  1.9154 -0.8372  0.9122
  435MOL0     H58686  12.170   4.986   6.169 -0.2762  0.5185 -0.6629
  435MOL0     H58687  12.224   5.153   6.151  1.7784 -1.8729  1.0631
  435MOL0     H58688  12.062   5.118   6.215 -1.1168  0.5145 -1.8536
  435MOL0     H58689  12.524   5.153   5.694 -0.5202 -0.1580 -4.8877
  435MOL0     H58690  12.765   5.081   5.688 -0.1899 -1.8320 -0.0510
  435MOL0     H58691  12.949   4.955   5.588  1.1924 -0.2260 -0.0839
  435MOL0     H58692  12.968   4.975   5.762 -0.4544  1.1411 -1.1738
  435MOL0     H58693  13.081   4.746   5.584 -0.8021  0.8467 -1.0438
  435MOL0     H58694  13.170   4.895   5.650  0.3777  0.6997  4.1471
  435MOL0     H58695  13.042   4.698   5.848 -1.2749  2.2726  2.6709
  435MOL0     H58696  13.124   4.840   5.891 -0.2200 -0.2219 -0.0074
  435MOL0     H58697  13.240   4.616   5.731  0.0857  1.0993 -0.0626
  435MOL0     H58698  13.338   4.744   5.804  0.6966 -1.7733  1.5454
  435MOL0     H58699  13.186   4.529   5.948 -0.5833  0.4826  0.2522
  435MOL0     H58700  13.268   4.660   6.031 -0.2740  0.7736 -0.4808
  435MOL0     H58701  13.397   4.466   5.841 -0.6052 -1.6890  0.1195
  435MOL0     H58702  13.493   4.573   5.950  0.4090 -0.9876 -0.6006
  435MOL0     H58703  13.306   4.348   6.018 -1.4262  1.3158  2.2714
  435MOL0     H58704  13.382   4.468   6.143  3.5130  0.6938 -0.0633
  435MOL0     H58705  13.605   4.374   6.098 -0.5605 -0.5675  3.3400
  435MOL0     H58706  13.526   4.293   5.955  0.7105 -4.4242  0.8628
  435MOL0     H58707  12.629   4.676   5.775 -0.7686  0.1952 -0.9513
  435MOL0     H58708  12.405   4.762   5.792 -0.0164 -0.2807 -1.2432
  435MOL0     H58709  12.136   5.128   5.675  3.4604  0.9595  2.1460
  435MOL0     H58710  11.893   5.198   5.685 -2.6041 -1.0802  0.5474
  435MOL0     H58711  11.064   6.182   4.601  0.2226  2.7056 -1.1914
  435MOL0     H58712  11.090   6.415   4.626  0.7879 -1.8784 -1.2121
  435MOL0     H58713  11.211   6.854   4.784  0.6249  0.0025  1.7453
  435MOL0     H58714  11.190   7.082   4.876  0.4887  0.9104  1.3029
  435MOL0     H58715  10.869   7.154   5.200 -0.1692  0.7710 -3.0423
  435MOL0     H58716  11.019   7.057   5.230 -1.4442 -1.2392  0.2727
  435MOL0     H58717  11.032   7.361   5.190  0.6741  1.8314  3.1635
  435MOL0     H58718  11.155   7.252   5.220 -0.6258  0.1093 -1.9822
  435MOL0     H58719  11.055   7.394   5.421 -2.0109  1.5075 -0.6441
  435MOL0     H58720  11.046   7.208   5.437 -2.9092 -2.5527 -2.1894
  435MOL0     H58721  10.800   7.225   5.428 -1.5992  1.6313  0.1942
  435MOL0     H58722  10.820   7.363   5.329  1.1782  0.4017 -1.1138
  435MOL0     H58723  10.770   7.556   5.690  5.6191  1.3865  1.0419
  435MOL0     H58724  10.847   6.963   5.094 -1.7636 -1.4541 -1.5331
  435MOL0     H58725  10.851   6.737   4.994  1.8912  0.2876  0.6620
  436MOL0     O58726  10.677   9.630   0.359  0.3368 -0.3226  0.0950
  436MOL0     C58727  10.792   9.652   0.321  0.5050 -1.0362  0.5549
  436MOL0     O58728  10.896   9.689   0.398 -0.2224 -0.4799 -0.3469
  436MOL0     C58729  10.902   9.688   0.538 -0.0185 -0.4446 -0.8043
  436MOL0     C58730  10.966   9.795   0.607 -0.6428 -0.1265 -0.6430
  436MOL0     C58731  10.982   9.781   0.748  1.3066  0.0580  0.2194
  436MOL0     C58732  10.936   9.667   0.808  0.3143  0.0350 -0.6146
  436MOL0     O58733  10.949   9.636   0.942  0.2640  0.4772 -0.5288
  436MOL0     C58734  11.039   9.710   1.024 -0.0649  0.0957  0.4854
  436MOL0     C58735  10.942   9.820   1.075  0.3441 -0.7542 -1.3084
  436MOL0     C58736  11.005   9.926   1.166 -0.8542  0.6191  0.1437
  436MOL0     C58737  10.924  10.012   1.250  0.2474  0.9699 -0.7590
  436MOL0     C58738  10.994  10.128   1.326  0.4757 -0.3146  0.9380
  436MOL0     C58739  11.126  10.085   1.376 -0.1181  0.4038 -0.0813
  436MOL0     C58740  11.205  10.187   1.475 -0.3154  0.3582  0.3551
  436MOL0     C58741  11.294  10.105   1.562  0.2187  0.6685 -0.6686
  436MOL0     N58742  11.413  10.037   1.510  0.2719 -0.1983  0.1240
  436MOL0     C58743  11.478  10.089   1.405 -0.0753  0.8238 -0.2772
  436MOL0     C58744  11.563   9.987   1.356 -0.5046 -0.3155 -0.0801
  436MOL0     C58745  11.664   9.989   1.242  0.3673 -0.0382  0.4312
  436MOL0     C58746  11.611   9.933   1.098  0.5334  0.4760 -0.0013
  436MOL0     C58747  11.486   9.984   1.029 -0.0739  0.7903 -0.4451
  436MOL0     C58748  11.477  10.135   1.010 -0.6581 -0.3698 -0.7556
  436MOL0     O58749  11.347  10.194   1.019  0.5021  0.5416 -0.3036
  436MOL0     C58750  11.249  10.161   0.930  0.3130 -0.0071  0.8567
  436MOL0     C58751  11.123  10.207   0.966 -0.0509 -0.8641 -0.3867
  436MOL0     C58752  11.012  10.195   0.892  0.2548 -0.4087  0.1031
  436MOL0     C58753  10.886  10.268   0.940 -0.3478 -0.0520 -0.0962
  436MOL0     C58754  11.027  10.141   0.763  0.8506  0.3706  0.2803
  436MOL0     C58755  10.911  10.129   0.672 -0.2719  0.3363 -0.3214
  436MOL0     O58756  10.783  10.092   0.732  0.3585  0.3519  0.5562
  436MOL0     C58757  10.678  10.066   0.656 -0.0284  0.1899  0.6364
  436MOL0     C58758  10.683  10.014   0.526  0.1502  0.7348 -0.4684
  436MOL0     C58759  10.560   9.992   0.471  0.4639 -0.2866  0.2779
  436MOL0     C58760  10.436  10.021   0.529  0.8904 -0.2809 -0.1257
  436MOL0     O58761  10.323  10.003   0.453 -0.9051  0.2531  0.3841
  436MOL0     C58762  10.229   9.914   0.507  0.1233 -0.0036 -0.2212
  436MOL0     C58763  10.296   9.777   0.513  0.0699  0.2318  0.7825
  436MOL0     C58764  10.335   9.732   0.363 -0.1310  0.4262 -0.2547
  436MOL0     C58765  10.274   9.601   0.321  0.5904  1.2404  0.5231
  436MOL0     C58766  10.326   9.561   0.176  0.5374  0.6265  0.5718
  436MOL0     C58767  10.235   9.465   0.108 -0.1149  0.1439 -0.2530
  436MOL0     C58768  10.288   9.448  -0.033  0.3663  0.6651  0.2879
  436MOL0     C58769  10.371   9.311  -0.051  0.3592 -1.2680  0.8507
  436MOL0    Cl58770  10.472   9.312  -0.200  0.6910  0.1101 -0.1165
  436MOL0     C58771  10.437  10.069   0.653  0.7797 -0.5009 -0.2744
  436MOL0     C58772  10.557  10.092   0.719  0.1946  0.0372  0.0553
  436MOL0     O58773  10.930  10.163   0.559 -0.0429 -0.4151  0.2525
  436MOL0     C58774  11.157  10.096   0.719  0.6335 -0.7291 -0.1383
  436MOL0     C58775  11.268  10.105   0.806  0.2864 -0.1279 -0.5678
  436MOL0     N58776  11.547   9.882   1.446 -0.2710 -0.1646 -0.3158
  436MOL0     N58777  11.457   9.910   1.534  0.0270 -0.6182 -0.4137
  436MOL0     C58778  10.858   9.573   0.744  0.6323  0.1875 -0.0587
  436MOL0     C58779  10.854   9.585   0.609 -0.5627 -0.1531 -0.4414
  436MOL0     C58780  10.818   9.635   0.177  0.1235  0.1578 -0.1197
  436MOL0     C58781  10.939   9.593   0.141  0.0698 -0.0505  0.9269
  436MOL0     C58782  10.968   9.571   0.004  0.1700 -0.1898  0.7676
  436MOL0     C58783  10.864   9.575  -0.088  0.2919  0.4499  0.0231
  436MOL0     O58784  10.891   9.547  -0.216  0.3508 -0.0260 -0.5574
  436MOL0     C58785  10.797   9.572  -0.322  0.1063 -0.3369  0.4600
  436MOL0     C58786  10.863   9.551  -0.454 -0.1262  0.5650  0.5937
  436MOL0     C58787  10.958   9.666  -0.478 -0.5015  0.0573  0.4170
  436MOL0     C58788  11.000   9.682  -0.625  0.3281 -0.2352 -0.5986
  436MOL0     C58789  10.897   9.718  -0.726 -0.6376 -0.4159  0.8753
  436MOL0     C58790  10.830   9.762  -0.818 -0.2944  0.7845  0.6403
  436MOL0     C58791  10.738   9.609  -0.045  1.3899  0.2373  0.7911
  436MOL0     C58792  10.715   9.646   0.085  0.2493 -0.5929 -0.1465
  436MOL0     H58793  11.015   9.881   0.562 -1.7827  0.9452  0.0961
  436MOL0     H58794  11.033   9.859   0.804 -0.0114 -1.5674  3.9817
  436MOL0     H58795  11.077   9.642   1.100 -0.3614 -1.9724 -1.1005
  436MOL0     H58796  11.123   9.754   0.969  2.5159 -0.9469  3.3399
  436MOL0     H58797  10.897   9.878   0.995  1.1306 -1.2553 -2.1329
  436MOL0     H58798  10.862   9.772   1.132  2.0601 -2.3709 -0.1106
  436MOL0     H58799  11.066   9.866   1.233 -0.7877 -2.1942 -2.2313
  436MOL0     H58800  11.059   9.991   1.095 -0.4775 -0.9023 -1.0228
  436MOL0     H58801  10.847  10.044   1.179  0.7269 -0.8319 -2.1487
  436MOL0     H58802  10.870   9.944   1.316  0.4171 -0.2642 -1.8577
  436MOL0     H58803  11.023  10.217   1.268 -1.2329  1.1335  2.2119
  436MOL0     H58804  10.931  10.165   1.407  0.9332  1.3640  0.5732
  436MOL0     H58805  11.113   9.990   1.430  0.2801  1.6897  2.4135
  436MOL0     H58806  11.203  10.071   1.299  0.2525 -1.2959  0.5532
  436MOL0     H58807  11.259  10.262   1.418 -2.7658  2.1400  0.2086
  436MOL0     H58808  11.132  10.229   1.546  0.0900 -0.5319  1.3347
  436MOL0     H58809  11.221  10.035   1.604 -1.0641  1.7621 -0.9862
  436MOL0     H58810  11.323  10.168   1.646  3.0107 -0.1340 -0.9133
  436MOL0     H58811  11.454  10.188   1.367 -0.7929  1.3007  1.3145
  436MOL0     H58812  11.692  10.093   1.221 -1.3389  0.7780  1.8961
  436MOL0     H58813  11.748   9.923   1.269  0.4961 -0.2880 -0.5408
  436MOL0     H58814  11.587   9.829   1.122  2.7338 -0.3290 -1.0418
  436MOL0     H58815  11.689   9.938   1.022  0.2931  1.2893 -0.2135
  436MOL0     H58816  11.398   9.949   1.084 -0.8071  4.3873  0.9236
  436MOL0     H58817  11.486   9.935   0.931  3.1691  0.2341 -0.2950
  436MOL0     H58818  11.534  10.158   0.919  1.7497  1.0793  0.9707
  436MOL0     H58819  11.537  10.193   1.081  0.0384  0.4581 -1.9742
  436MOL0     H58820  11.118  10.273   1.053  1.4722 -1.9972  0.6317
  436MOL0     H58821  10.916  10.336   1.020 -0.0505  2.7910 -2.4279
  436MOL0     H58822  10.838  10.313   0.852 -2.7462  2.0833  2.1656
  436MOL0     H58823  10.820  10.197   0.990 -2.2243  2.5469  1.3675
  436MOL0     H58824  10.781   9.985   0.490  0.7428  0.4729  1.2770
  436MOL0     H58825  10.544   9.963   0.368  1.9734 -2.1282  0.5111
  436MOL0     H58826  10.207   9.948   0.608  3.6100  0.0647  0.6565
  436MOL0     H58827  10.134   9.909   0.454 -0.3530 -0.1959  0.6369
  436MOL0     H58828  10.385   9.781   0.577 -0.0304  2.5421  0.8586
  436MOL0     H58829  10.228   9.701   0.552 -2.1773  1.7648  0.0599
  436MOL0     H58830  10.443   9.718   0.366  0.2664  0.6525 -5.4263
  436MOL0     H58831  10.320   9.806   0.284 -0.2032  1.5854  0.8128
  436MOL0     H58832  10.297   9.524   0.394  0.6673  0.1742 -0.5884
  436MOL0     H58833  10.166   9.614   0.323 -0.0838 -3.0212  0.4077
  436MOL0     H58834  10.429   9.523   0.176 -0.2971 -1.7861 -0.9262
  436MOL0     H58835  10.319   9.651   0.115  2.4945 -0.7641 -1.9067
  436MOL0     H58836  10.230   9.369   0.159  2.0436 -0.6056 -1.3695
  436MOL0     H58837  10.132   9.503   0.106 -0.9011 -1.9260 -1.2220
  436MOL0     H58838  10.363   9.526  -0.049 -0.1713  1.3205  0.9032
  436MOL0     H58839  10.205   9.466  -0.103  0.3652 -1.2211 -0.2652
  436MOL0     H58840  10.296   9.232  -0.062  0.4679 -1.4169  1.1684
  436MOL0     H58841  10.433   9.309   0.040  1.9702  0.5413 -0.1381
  436MOL0     H58842  10.342  10.095   0.699  0.1487 -1.1184 -1.1745
  436MOL0     H58843  10.551  10.126   0.822  0.6619 -0.8587  0.3866
  436MOL0     H58844  11.160  10.064   0.616  3.4029 -0.3929 -0.2330
  436MOL0     H58845  11.364  10.081   0.760 -0.4491 -0.0643 -2.2119
  436MOL0     H58846  10.819   9.488   0.797 -0.0288  0.4278 -0.1502
  436MOL0     H58847  10.825   9.496   0.553 -0.0851 -0.6037  0.0140
  436MOL0     H58848  11.006   9.570   0.224  1.0784  0.0217  0.1506
  436MOL0     H58849  11.066   9.548  -0.036 -1.2946 -3.9093 -1.0714
  436MOL0     H58850  10.723   9.493  -0.307 -2.8986  2.5723  2.5729
  436MOL0     H58851  10.743   9.667  -0.324  2.8904  1.3742  1.4721
  436MOL0     H58852  10.784   9.543  -0.530  0.2739 -0.5726  0.2746
  436MOL0     H58853  10.915   9.455  -0.460 -1.8166 -0.3078 -1.7428
  436MOL0     H58854  11.052   9.640  -0.429  1.9598 -1.3866 -4.4257
  436MOL0     H58855  10.913   9.760  -0.445  1.2339 -0.0735  3.5861
  436MOL0     H58856  11.065   9.598  -0.653  1.4180  1.5525 -3.7974
  436MOL0     H58857  11.071   9.764  -0.634  0.5203 -0.4853 -1.3866
  436MOL0     H58858  10.787   9.805  -0.906  3.3524 -1.2940 -2.4910
  436MOL0     H58859  10.648   9.604  -0.105  0.1644 -1.3817  2.6720
  436MOL0     H58860  10.616   9.675   0.119  0.0018  0.6146 -1.7751
  437MOL0     O58861   4.872   0.624   9.449  0.0722  0.3943  0.5944
  437MOL0     C58862   4.915   0.744   9.431  0.5127 -0.2733 -0.0239
  437MOL0     O58863   5.042   0.782   9.428 -0.6347 -0.5344 -0.1116
  437MOL0     C58864   5.149   0.695   9.413 -0.3304 -0.2590  0.1432
  437MOL0     C58865   5.263   0.739   9.466  0.4754 -0.8056 -1.0075
  437MOL0     C58866   5.380   0.660   9.456 -0.4803 -0.4392  0.1194
  437MOL0     C58867   5.385   0.544   9.379  0.0051 -1.1204  0.3404
  437MOL0     O58868   5.505   0.485   9.359  0.5557 -0.4618 -0.0024
  437MOL0     C58869   5.507   0.364   9.268  0.2654 -0.3372 -0.4855
  437MOL0     C58870   5.652   0.326   9.263  0.1421 -0.6941  0.2076
  437MOL0     C58871   5.730   0.437   9.196  1.1460  0.1198  0.2568
  437MOL0     C58872   5.874   0.449   9.246 -0.7736  0.8055 -0.4432
  437MOL0     C58873   5.946   0.575   9.204  1.0460  0.7064  0.8483
  437MOL0     C58874   6.074   0.544   9.125  0.9360  0.0765  0.5049
  437MOL0     C58875   6.193   0.489   9.202  0.1122  0.5077 -0.1229
  437MOL0     C58876   6.308   0.461   9.103  0.2212 -0.1962  0.3253
  437MOL0     N58877   6.421   0.382   9.153 -0.1487  0.2115  0.2815
  437MOL0     C58878   6.453   0.265   9.077  0.8700  0.2547  0.1558
  437MOL0     C58879   6.589   0.254   9.075 -0.5553  0.8378 -1.2898
  437MOL0     C58880   6.651   0.162   8.976 -0.3360  0.3493 -0.1177
  437MOL0     C58881   6.689   0.224   8.838 -0.0115  1.0272 -0.9866
  437MOL0     C58882   6.796   0.160   8.760 -0.8444 -0.3787 -0.8055
  437MOL0     C58883   6.811   0.208   8.617  0.3543 -0.0996 -0.2555
  437MOL0     O58884   6.935   0.167   8.561  0.2763  0.1603 -0.3369
  437MOL0     C58885   6.960   0.045   8.508 -0.0282  0.4541  0.8639
  437MOL0     C58886   7.090   0.020   8.476 -0.3047  0.5889 -0.1732
  437MOL0     C58887   7.139  -0.097   8.408  0.5094  0.4693 -0.9111
  437MOL0     C58888   7.287  -0.108   8.386 -0.6283  0.6028  0.3382
  437MOL0     C58889   7.045  -0.200   8.378  0.2703 -0.1814  0.0158
  437MOL0     C58890   7.082  -0.328   8.311  0.4502 -0.2068 -0.5855
  437MOL0     O58891   6.964  -0.398   8.262  0.2876 -0.7816  0.1344
  437MOL0     C58892   6.963  -0.521   8.203 -0.1734  0.2939 -0.5914
  437MOL0     C58893   6.842  -0.568   8.150  0.7250 -0.2864 -0.0042
  437MOL0     C58894   6.830  -0.689   8.074  0.0614  0.2175 -0.4487
  437MOL0     C58895   6.949  -0.759   8.040  0.0280 -0.1861 -0.2311
  437MOL0     O58896   6.948  -0.873   7.971 -0.4766  0.0584  0.4035
  437MOL0     C58897   7.015  -0.872   7.844  0.1666  1.2913  0.1200
  437MOL0     C58898   6.990  -0.996   7.762 -0.0673 -0.3374  0.9355
  437MOL0     C58899   7.097  -0.994   7.649  0.3236  0.5714  0.6773
  437MOL0     C58900   7.112  -1.128   7.567 -0.6932 -0.5223 -0.1539
  437MOL0     C58901   7.235  -1.153   7.479  0.2545  0.0028  1.0847
  437MOL0     C58902   7.212  -1.277   7.393  0.3060  0.0500 -0.3665
  437MOL0     C58903   7.351  -1.332   7.336  0.4251  0.2918 -1.1056
  437MOL0     C58904   7.444  -1.218   7.276  0.1761  0.8394  0.2145
  437MOL0    Cl58905   7.627  -1.259   7.270 -0.4338  0.1267  0.6565
  437MOL0     C58906   7.075  -0.720   8.107  0.5282  0.4370  0.5855
  437MOL0     C58907   7.076  -0.610   8.191  1.0417 -0.2058  0.3421
  437MOL0     O58908   7.197  -0.371   8.294 -0.2706 -0.1089 -0.0789
  437MOL0     C58909   6.912  -0.166   8.406  0.6368  1.1357  1.2817
  437MOL0     C58910   6.863  -0.043   8.465 -1.2696  0.1016 -0.0484
  437MOL0     N58911   6.635   0.359   9.140  0.0136 -0.6891 -0.6265
  437MOL0     N58912   6.541   0.435   9.188  1.0084  0.3933  0.4844
  437MOL0     C58913   5.263   0.502   9.328  0.4427 -0.3527  0.1483
  437MOL0     C58914   5.145   0.576   9.334  0.5079 -0.8823 -0.5430
  437MOL0     C58915   4.815   0.848   9.451  0.6417  0.1397 -1.2041
  437MOL0     C58916   4.679   0.815   9.474 -0.0973 -0.2855 -1.2973
  437MOL0     C58917   4.582   0.912   9.497 -0.6002  0.1009  0.5475
  437MOL0     C58918   4.610   1.043   9.486  0.0427  0.9148 -0.9574
  437MOL0     O58919   4.523   1.128   9.543 -0.2268 -0.0458  0.4125
  437MOL0     C58920   4.532   1.274   9.505 -0.2453  0.4855  0.1894
  437MOL0     C58921   4.400   1.344   9.528 -0.2876  0.7013 -0.8211
  437MOL0     C58922   4.274   1.260   9.478 -0.0201 -1.1662 -0.0603
  437MOL0     C58923   4.131   1.338   9.499 -0.6580 -0.8612 -0.3733
  437MOL0     C58924   4.104   1.358   9.643 -0.1481  0.1455 -0.2008
  437MOL0     C58925   4.076   1.357   9.760 -0.3243 -0.4510 -0.1024
  437MOL0     C58926   4.742   1.082   9.471 -0.4743  0.6217 -0.1048
  437MOL0     C58927   4.846   0.987   9.446  0.0429 -0.6550 -1.1069
  437MOL0     H58928   5.253   0.824   9.533 -1.2132 -0.2601 -1.8840
  437MOL0     H58929   5.470   0.695   9.505  0.2476  2.0087 -2.6364
  437MOL0     H58930   5.450   0.274   9.293  1.5158 -1.1609 -0.4499
  437MOL0     H58931   5.466   0.401   9.174 -0.2085  1.3006  0.3358
  437MOL0     H58932   5.694   0.308   9.363  0.1173 -4.2067 -0.2957
  437MOL0     H58933   5.661   0.235   9.203  2.2857 -0.8033  0.6179
  437MOL0     H58934   5.731   0.414   9.089  1.7412  0.5144  0.1721
  437MOL0     H58935   5.674   0.531   9.199  0.7903 -0.0212 -1.2146
  437MOL0     H58936   5.892   0.442   9.353  3.8644  4.4906 -0.6055
  437MOL0     H58937   5.925   0.361   9.206 -2.2397 -1.2565  1.9965
  437MOL0     H58938   5.884   0.633   9.135  1.2970 -0.4469 -0.3852
  437MOL0     H58939   5.956   0.638   9.293  3.4406  0.4437  0.8245
  437MOL0     H58940   6.050   0.476   9.043  2.1706 -1.3808  1.3121
  437MOL0     H58941   6.109   0.640   9.086 -1.9442  0.3613 -1.7697
  437MOL0     H58942   6.228   0.566   9.271 -0.4438  0.5247  0.1454
  437MOL0     H58943   6.175   0.396   9.257 -0.5778  2.2791  2.8376
  437MOL0     H58944   6.340   0.557   9.062  0.1411 -0.3695 -0.1431
  437MOL0     H58945   6.262   0.397   9.028 -0.6711  0.9418 -0.1313
  437MOL0     H58946   6.384   0.207   9.017  0.2088  0.1642  0.9840
  437MOL0     H58947   6.751   0.131   9.007  0.6594  1.1438 -2.2891
  437MOL0     H58948   6.589   0.073   8.958  2.5937 -1.6118 -1.2294
  437MOL0     H58949   6.733   0.320   8.868 -1.6355  1.6473 -0.4400
  437MOL0     H58950   6.605   0.245   8.771  0.3430 -2.6384 -2.7996
  437MOL0     H58951   6.779   0.052   8.756 -0.2324 -0.5677  0.8373
  437MOL0     H58952   6.894   0.183   8.802 -0.4432 -0.6334 -1.5893
  437MOL0     H58953   6.811   0.317   8.613 -3.0313  0.2520  3.5035
  437MOL0     H58954   6.733   0.168   8.553 -0.0795  1.4139 -0.7047
  437MOL0     H58955   7.161   0.090   8.519  2.1959 -1.5687 -0.4621
  437MOL0     H58956   7.340  -0.178   8.452 -1.5341 -1.7582 -1.3388
  437MOL0     H58957   7.314  -0.147   8.288 -0.0046 -4.7230  2.3201
  437MOL0     H58958   7.328  -0.007   8.399  1.7217 -0.5523  3.3910
  437MOL0     H58959   6.754  -0.509   8.173  1.0955  0.3420 -0.1998
  437MOL0     H58960   6.731  -0.719   8.042 -0.9198  3.3072 -0.7178
  437MOL0     H58961   6.982  -0.783   7.790  1.4723  0.3199 -2.4364
  437MOL0     H58962   7.124  -0.860   7.848  0.6930 -2.0246 -1.1551
  437MOL0     H58963   7.002  -1.090   7.817 -1.7980  0.4406  2.7352
  437MOL0     H58964   6.888  -1.001   7.724  0.8067 -3.3858 -1.4040
  437MOL0     H58965   7.198  -0.991   7.691  1.4868  1.0259 -1.9582
  437MOL0     H58966   7.083  -0.917   7.572 -1.9462 -0.0252  0.4472
  437MOL0     H58967   7.123  -1.212   7.636  0.6870 -1.9229 -1.9589
  437MOL0     H58968   7.024  -1.158   7.510 -1.1725 -0.3180  0.4746
  437MOL0     H58969   7.315  -1.176   7.550  1.3883  0.0989 -0.1196
  437MOL0     H58970   7.248  -1.058   7.425 -0.0860  1.7759  3.9141
  437MOL0     H58971   7.164  -1.365   7.437  1.2102 -1.2781 -1.8930
  437MOL0     H58972   7.146  -1.247   7.312  0.9173  0.1192 -0.8491
  437MOL0     H58973   7.319  -1.404   7.260  1.3037 -1.6303  0.2770
  437MOL0     H58974   7.415  -1.378   7.411  0.9042  0.0234 -1.6809
  437MOL0     H58975   7.435  -1.136   7.348 -0.6671  0.7651  0.2071
  437MOL0     H58976   7.404  -1.190   7.178  0.4152 -1.9175 -0.7604
  437MOL0     H58977   7.162  -0.782   8.090  0.4445 -0.4569  3.0941
  437MOL0     H58978   7.172  -0.578   8.231  0.4540  3.9366 -1.1043
  437MOL0     H58979   6.833  -0.240   8.398  1.1390  0.7926 -4.6700
  437MOL0     H58980   6.757  -0.034   8.486 -1.2269  2.7653 -0.5585
  437MOL0     H58981   5.266   0.409   9.272 -0.6217  0.6319 -1.6773
  437MOL0     H58982   5.055   0.537   9.287 -1.7887  1.5610  1.5257
  437MOL0     H58983   4.651   0.710   9.476 -1.3735  0.0477 -1.3003
  437MOL0     H58984   4.478   0.884   9.510 -0.6314  0.4081  0.9613
  437MOL0     H58985   4.610   1.327   9.561  1.0255 -0.7655 -0.3536
  437MOL0     H58986   4.551   1.286   9.398 -3.2382  2.7777 -0.2253
  437MOL0     H58987   4.396   1.440   9.476 -2.5638 -0.9340 -3.9632
  437MOL0     H58988   4.393   1.357   9.637 -0.6679  0.8218 -0.8597
  437MOL0     H58989   4.275   1.163   9.529  0.2029 -0.5245  1.2113
  437MOL0     H58990   4.297   1.230   9.375  3.0156 -3.4215  1.1158
  437MOL0     H58991   4.053   1.273   9.460 -1.4967 -1.4110  2.0589
  437MOL0     H58992   4.118   1.439   9.457 -2.7563  0.6871  3.5019
  437MOL0     H58993   4.073   1.359   9.867  1.6836  3.5205  0.0782
  437MOL0     H58994   4.769   1.187   9.465 -2.6468  1.2947  0.9116
  437MOL0     H58995   4.949   1.020   9.443 -0.1382 -0.0617 -1.0478
  438MOL0     O58996   3.039   0.221   8.563 -0.9386  0.7188 -0.7624
  438MOL0     C58997   2.948   0.180   8.638 -0.4064  0.6835 -0.4181
  438MOL0     O58998   2.847   0.099   8.603  0.3261 -1.0563 -0.4142
  438MOL0     C58999   2.817   0.090   8.470  0.7003 -0.9348  0.2007
  438MOL0     C59000   2.814  -0.036   8.407  0.5077 -0.3493  0.1372
  438MOL0     C59001   2.789  -0.050   8.270 -0.5757  0.8640 -0.2841
  438MOL0     C59002   2.756   0.055   8.190 -0.9245  0.5204  1.0452
  438MOL0     O59003   2.726   0.025   8.054  0.0031  0.2173  0.3447
  438MOL0     C59004   2.673   0.134   7.977 -0.2079 -0.3669  0.0418
  438MOL0     C59005   2.530   0.177   8.028  0.4529  0.6347  0.6248
  438MOL0     C59006   2.494   0.312   7.966 -0.2501 -1.2667  0.0119
  438MOL0     C59007   2.400   0.389   8.046 -0.4241  0.3201 -0.3414
  438MOL0     C59008   2.353   0.518   7.967 -0.5788  1.1058  0.0700
  438MOL0     C59009   2.239   0.498   7.875 -0.0700 -0.4469  1.1379
  438MOL0     C59010   2.228   0.626   7.783  0.3958 -0.6202  0.0602
  438MOL0     C59011   2.229   0.759   7.853 -0.3041  0.6820 -0.4600
  438MOL0     N59012   2.352   0.842   7.840  0.7994 -0.0957  0.5529
  438MOL0     C59013   2.423   0.871   7.729 -0.6276  0.8301  0.2425
  438MOL0     C59014   2.513   0.964   7.764 -0.0076  0.3275  0.6903
  438MOL0     C59015   2.596   1.025   7.659 -0.4022  0.1738  0.2628
  438MOL0     C59016   2.513   1.107   7.550 -0.5460  0.0987  0.7346
  438MOL0     C59017   2.447   1.233   7.608  1.2270 -0.2720 -0.3840
  438MOL0     C59018   2.318   1.261   7.530 -0.9206  0.7970 -0.1962
  438MOL0     O59019   2.261   1.384   7.565 -0.0743  0.0426  0.3002
  438MOL0     C59020   2.128   1.390   7.544 -0.1763  1.3726 -0.7040
  438MOL0     C59021   2.071   1.419   7.425  0.0919  0.2025 -0.0605
  438MOL0     C59022   1.930   1.424   7.404 -0.2359 -0.1585  0.1842
  438MOL0     C59023   1.889   1.451   7.268 -0.0589  0.0179 -0.0931
  438MOL0     C59024   1.838   1.401   7.511 -1.0628  0.8363 -0.7416
  438MOL0     C59025   1.689   1.404   7.501  0.4122  0.4163 -0.7623
  438MOL0     O59026   1.625   1.407   7.619  0.5187  0.2480  0.7395
  438MOL0     C59027   1.490   1.414   7.625  0.5025  0.8579  0.2605
  438MOL0     C59028   1.407   1.518   7.595  0.4625 -0.6044  0.5541
  438MOL0     C59029   1.273   1.520   7.635 -0.9207  0.1922 -0.1164
  438MOL0     C59030   1.216   1.398   7.663  0.1281 -0.2019 -1.2433
  438MOL0     O59031   1.081   1.376   7.677 -0.7558 -0.1229 -0.4414
  438MOL0     C59032   1.003   1.411   7.570  0.3480 -0.4806  0.4364
  438MOL0     C59033   1.018   1.301   7.464  0.6242 -0.0177 -0.5818
  438MOL0     C59034   0.955   1.339   7.334 -0.3600  0.4878  0.6165
  438MOL0     C59035   0.853   1.441   7.334  0.2747 -0.1731  0.1246
  438MOL0     C59036   0.764   1.460   7.206 -0.7848 -0.5371  1.0609
  438MOL0     C59037   0.667   1.565   7.244 -0.0645 -0.3910  0.2917
  438MOL0     C59038   0.720   1.701   7.235 -0.3982 -1.0788  0.1265
  438MOL0     C59039   0.609   1.799   7.263 -0.5101 -0.5478  0.8969
  438MOL0    Cl59040   0.563   1.786   7.434  0.4089  0.0684  0.4135
  438MOL0     C59041   1.298   1.292   7.697 -0.7959 -0.0378  0.1406
  438MOL0     C59042   1.434   1.303   7.689 -0.2725  0.1957 -0.7427
  438MOL0     O59043   1.636   1.389   7.391 -0.5297 -0.1571 -0.3537
  438MOL0     C59044   1.899   1.364   7.633  1.2197 -0.0288  0.4574
  438MOL0     C59045   2.039   1.356   7.653 -0.0691 -0.9714 -0.9404
  438MOL0     N59046   2.484   1.006   7.895 -0.0068 -0.1672 -1.2363
  438MOL0     N59047   2.388   0.928   7.943  0.2510 -0.0079 -0.1309
  438MOL0     C59048   2.757   0.187   8.249 -1.0541  0.5226 -0.4001
  438MOL0     C59049   2.780   0.201   8.392 -1.5428  0.3790  0.3012
  438MOL0     C59050   2.961   0.225   8.775  0.5005  0.5631 -0.5467
  438MOL0     C59051   2.855   0.205   8.874  0.3508 -0.5611  0.0179
  438MOL0     C59052   2.877   0.252   9.009 -0.1187 -0.5710  0.1866
  438MOL0     C59053   2.995   0.323   9.046  0.6583 -0.4723 -0.2793
  438MOL0     O59054   2.996   0.391   9.165  0.7327 -0.1280 -0.3910
  438MOL0     C59055   3.116   0.400   9.235 -0.0948 -0.0028  0.4950
  438MOL0     C59056   3.173   0.254   9.273 -0.5404 -0.4824 -0.1921
  438MOL0     C59057   3.058   0.192   9.358  0.7849  0.4499 -0.1244
  438MOL0     C59058   3.092   0.084   9.448  0.1356  0.0436  0.0818
  438MOL0     C59059   3.195   0.120   9.552  0.6986 -0.3719 -0.0893
  438MOL0     C59060   3.264   0.148   9.643 -0.5899 -0.3351  0.1250
  438MOL0     C59061   3.094   0.342   8.949  0.1637  0.9032  0.6309
  438MOL0     C59062   3.079   0.295   8.816  0.0123 -0.2454 -0.6149
  438MOL0     H59063   2.836  -0.125   8.465 -2.6905 -0.6672  1.0435
  438MOL0     H59064   2.800  -0.155   8.246  0.2381  0.9466 -0.3027
  438MOL0     H59065   2.737   0.223   7.983  0.2296 -0.4744 -2.1173
  438MOL0     H59066   2.669   0.089   7.877 -2.1241 -3.3958  1.3353
  438MOL0     H59067   2.464   0.095   7.998  0.0533  1.2637 -0.2678
  438MOL0     H59068   2.534   0.191   8.136 -0.0174 -1.5105  0.9652
  438MOL0     H59069   2.580   0.378   7.954 -2.9998  2.5981 -0.3839
  438MOL0     H59070   2.434   0.291   7.877 -2.8105  0.7577  1.1142
  438MOL0     H59071   2.310   0.328   8.061  0.9685 -1.3739  1.6672
  438MOL0     H59072   2.448   0.427   8.137 -0.8373  0.8820 -0.3493
  438MOL0     H59073   2.328   0.584   8.051  0.6476  2.8988 -0.9336
  438MOL0     H59074   2.437   0.573   7.925  0.3738 -0.5431 -0.2655
  438MOL0     H59075   2.256   0.407   7.816 -0.1997  0.5565 -0.5178
  438MOL0     H59076   2.147   0.497   7.934  0.2592  1.2516  1.7187
  438MOL0     H59077   2.300   0.622   7.701  0.6695  0.5461  0.2323
  438MOL0     H59078   2.133   0.616   7.731  0.7185  0.7808 -0.8627
  438MOL0     H59079   2.205   0.732   7.956  0.3700  0.5570 -0.3295
  438MOL0     H59080   2.149   0.824   7.815  0.1528  0.4817 -1.8386
  438MOL0     H59081   2.400   0.824   7.634 -0.1310 -0.2376  0.6354
  438MOL0     H59082   2.681   1.081   7.700  2.6801 -4.5290  0.9772
  438MOL0     H59083   2.638   0.945   7.598 -1.1652 -0.7619  0.9466
  438MOL0     H59084   2.433   1.043   7.514  0.6998 -0.0179 -2.0966
  438MOL0     H59085   2.568   1.150   7.466  1.2058  2.7995  3.0539
  438MOL0     H59086   2.509   1.323   7.600  0.3597  0.4971  1.1740
  438MOL0     H59087   2.430   1.224   7.715  1.6197 -2.4870 -0.4709
  438MOL0     H59088   2.252   1.181   7.566  0.5502 -0.5268 -0.3651
  438MOL0     H59089   2.326   1.270   7.422 -0.9862 -0.5294 -0.3279
  438MOL0     H59090   2.130   1.443   7.337 -1.2283  0.0463 -1.0292
  438MOL0     H59091   1.975   1.458   7.200  4.4106 -2.6743  4.5674
  438MOL0     H59092   1.832   1.365   7.231 -2.2894  0.2798  2.3889
  438MOL0     H59093   1.828   1.542   7.272 -2.2000 -1.3634  3.6691
  438MOL0     H59094   1.444   1.601   7.536  2.5849 -3.2019 -2.1502
  438MOL0     H59095   1.207   1.606   7.637 -0.5913  0.4474  1.9903
  438MOL0     H59096   0.898   1.424   7.598  0.2884  3.3230 -0.9609
  438MOL0     H59097   1.035   1.511   7.539  1.3573 -1.3804 -1.6124
  438MOL0     H59098   1.122   1.275   7.444  0.4591 -1.6870  0.5395
  438MOL0     H59099   0.970   1.207   7.495 -0.5409  0.4593 -0.8639
  438MOL0     H59100   0.919   1.249   7.282 -0.0743 -1.1476  3.0678
  438MOL0     H59101   1.040   1.370   7.273 -0.8567  0.4540 -0.1110
  438MOL0     H59102   0.792   1.416   7.421  1.5382  0.4149  1.2201
  438MOL0     H59103   0.892   1.541   7.356  1.1915  0.0371 -2.1551
  438MOL0     H59104   0.717   1.368   7.169  1.3365 -1.0577 -0.5749
  438MOL0     H59105   0.830   1.495   7.126 -2.5651 -0.0202 -0.2496
  438MOL0     H59106   0.587   1.569   7.170  0.9467  1.6531 -0.7601
  438MOL0     H59107   0.624   1.544   7.342 -2.9188  0.2481 -0.7286
  438MOL0     H59108   0.751   1.716   7.131  2.5531  1.5934  1.2339
  438MOL0     H59109   0.805   1.723   7.300  1.4894  3.2269 -3.2826
  438MOL0     H59110   0.522   1.799   7.196 -1.4255 -0.3617  2.0588
  438MOL0     H59111   0.650   1.899   7.245  0.1233 -0.2434  3.6511
  438MOL0     H59112   1.246   1.201   7.726 -1.5376  0.4796  0.4775
  438MOL0     H59113   1.506   1.227   7.716  0.4734  0.6590 -1.3543
  438MOL0     H59114   1.829   1.344   7.713  0.4774  0.9395  0.0667
  438MOL0     H59115   2.084   1.328   7.748  1.0714 -1.8162 -1.7006
  438MOL0     H59116   2.729   0.272   8.188  0.5597  0.4074 -1.3550
  438MOL0     H59117   2.776   0.306   8.417 -1.0590  0.5105 -0.1486
  438MOL0     H59118   2.769   0.149   8.841  1.4616 -1.6284 -1.2078
  438MOL0     H59119   2.792   0.253   9.076  2.7856  4.1975  4.4944
  438MOL0     H59120   3.198   0.456   9.188  0.7834 -0.4376  1.4759
  438MOL0     H59121   3.106   0.449   9.332  0.1271 -0.4093  0.7199
  438MOL0     H59122   3.256   0.262   9.343 -0.7251  0.6160 -0.0893
  438MOL0     H59123   3.188   0.195   9.182 -0.8995 -1.4909  0.3887
  438MOL0     H59124   2.980   0.162   9.288 -0.9173  2.0385  0.9711
  438MOL0     H59125   3.002   0.271   9.408  2.0218  1.1883  0.1452
  438MOL0     H59126   3.115   0.001   9.381 -0.7512  2.3816 -3.3210
  438MOL0     H59127   2.999   0.050   9.495  0.4862  0.6121  1.2247
  438MOL0     H59128   3.327   0.166   9.728 -0.2459 -2.4349  0.3683
  438MOL0     H59129   3.179   0.405   8.973  2.1037 -0.8371 -1.2213
  438MOL0     H59130   3.166   0.327   8.759  0.3832 -1.6594 -0.8868
  439MOL0     O59131   5.360   7.089   2.858 -0.7864 -0.0187  0.0288
  439MOL0     C59132   5.239   7.126   2.841 -0.5241  0.5672  0.8793
  439MOL0     O59133   5.130   7.038   2.837 -0.2344  0.0500 -0.0926
  439MOL0     C59134   5.151   6.906   2.849 -0.3827  0.6630 -0.0815
  439MOL0     C59135   5.099   6.839   2.956  0.1063  0.1515 -0.2052
  439MOL0     C59136   5.130   6.702   2.985 -0.0001 -0.0799  0.6215
  439MOL0     C59137   5.220   6.637   2.890  0.3892  0.7590  0.6853
  439MOL0     O59138   5.285   6.519   2.904  0.6547  0.6207  0.6774
  439MOL0     C59139   5.282   6.463   3.035  0.4474 -0.2067 -0.5713
  439MOL0     C59140   5.405   6.393   3.086 -0.4759  0.0100  0.3592
  439MOL0     C59141   5.430   6.270   2.997 -0.7526 -0.8400 -0.0587
  439MOL0     C59142   5.540   6.176   3.045  0.2063  0.5762 -0.7410
  439MOL0     C59143   5.561   6.040   2.971  0.7997 -0.3231 -0.4298
  439MOL0     C59144   5.623   5.926   3.043 -0.0217 -0.2108  0.3581
  439MOL0     C59145   5.534   5.858   3.144  0.1193  0.4309  0.3179
  439MOL0     C59146   5.474   5.725   3.095  0.4738 -0.4723  0.3114
  439MOL0     N59147   5.363   5.679   3.188 -0.2938 -0.9360 -0.1841
  439MOL0     C59148   5.378   5.676   3.322  0.9071 -0.0663  1.3277
  439MOL0     C59149   5.256   5.638   3.364 -0.5537  0.3055 -0.2689
  439MOL0     C59150   5.190   5.638   3.495  0.2980  0.4891 -0.9119
  439MOL0     C59151   5.263   5.520   3.573  0.2657  0.1149 -0.1001
  439MOL0     C59152   5.205   5.503   3.717  0.3437 -0.3311  0.4924
  439MOL0     C59153   5.148   5.361   3.725  0.2827  0.8051 -0.9021
  439MOL0     O59154   5.142   5.311   3.866  0.1187 -0.2226  0.4263
  439MOL0     C59155   5.262   5.300   3.936  0.1648  0.1808 -0.0922
  439MOL0     C59156   5.262   5.308   4.077  0.0039 -0.4386 -1.1694
  439MOL0     C59157   5.381   5.317   4.156  0.5129  0.1851  0.2196
  439MOL0     C59158   5.377   5.343   4.302 -0.0468 -0.2233 -0.1756
  439MOL0     C59159   5.502   5.291   4.083  0.7718 -0.7376 -0.5512
  439MOL0     C59160   5.623   5.292   4.152 -0.8759  0.0642 -0.9253
  439MOL0     O59161   5.699   5.406   4.122 -0.3562  0.7170 -0.5453
  439MOL0     C59162   5.822   5.431   4.181  0.2977  0.0135 -0.9508
  439MOL0     C59163   5.905   5.522   4.113 -0.0148  1.1787 -0.8955
  439MOL0     C59164   6.034   5.553   4.158  0.4123 -0.4342 -0.3893
  439MOL0     C59165   6.088   5.481   4.262 -0.4132 -0.2465 -0.3697
  439MOL0     O59166   6.222   5.509   4.296  1.1670 -0.2661 -0.2063
  439MOL0     C59167   6.263   5.468   4.429 -0.1039  0.0086  0.0550
  439MOL0     C59168   6.388   5.546   4.472  0.0061 -0.0366 -0.2813
  439MOL0     C59169   6.508   5.525   4.375  1.0090  0.0863  0.7163
  439MOL0     C59170   6.610   5.626   4.420  0.8379 -0.1063  0.3832
  439MOL0     C59171   6.722   5.653   4.317 -0.0684 -0.2249  1.3040
  439MOL0     C59172   6.794   5.522   4.271 -0.7383  0.3762 -0.8129
  439MOL0     C59173   6.948   5.532   4.226  0.7865 -0.4815 -1.5038
  439MOL0     C59174   7.034   5.632   4.288  0.8679  0.5605 -0.9155
  439MOL0    Cl59175   7.191   5.656   4.217 -0.2233 -0.1651  0.8995
  439MOL0     C59176   6.013   5.385   4.334 -0.0004 -0.5854 -0.7610
  439MOL0     C59177   5.881   5.368   4.299  0.0190  0.4021  1.1759
  439MOL0     O59178   5.662   5.187   4.208 -0.5544 -0.0977 -0.2779
  439MOL0     C59179   5.509   5.288   3.948  1.1529  0.1706 -0.0419
  439MOL0     C59180   5.389   5.294   3.871 -0.4134 -0.6790  0.5141
  439MOL0     N59181   5.175   5.636   3.255 -0.0038  0.8914  1.2429
  439MOL0     N59182   5.236   5.663   3.143  0.2174  0.2686 -0.5476
  439MOL0     C59183   5.267   6.710   2.781 -0.9000 -1.2495  0.9884
  439MOL0     C59184   5.232   6.844   2.762 -0.8748  0.7457 -0.0964
  439MOL0     C59185   5.218   7.273   2.808  0.4304 -0.2090 -0.3162
  439MOL0     C59186   5.326   7.368   2.815  0.2737  0.2926 -0.2165
  439MOL0     C59187   5.308   7.504   2.787  0.7589 -0.8603 -0.2165
  439MOL0     C59188   5.184   7.544   2.766  1.0421 -0.3291  0.6292
  439MOL0     O59189   5.153   7.675   2.740 -0.2571  1.0886 -0.5501
  439MOL0     C59190   5.262   7.760   2.703  0.8315 -1.6543  0.8743
  439MOL0     C59191   5.204   7.892   2.645  0.1656  0.1918  0.5208
  439MOL0     C59192   5.312   7.976   2.572 -0.0774 -0.9208 -0.5951
  439MOL0     C59193   5.268   7.995   2.424 -0.3317 -0.4842  0.5959
  439MOL0     C59194   5.276   7.859   2.355  0.0924  0.3132  1.1979
  439MOL0     C59195   5.273   7.749   2.302  1.1085  0.0691 -0.1769
  439MOL0     C59196   5.072   7.455   2.751 -1.2430  0.1149 -0.3065
  439MOL0     C59197   5.091   7.316   2.763 -0.3182  0.1465  0.9397
  439MOL0     H59198   5.053   6.888   3.040 -2.2067 -3.2375  0.6876
  439MOL0     H59199   5.100   6.653   3.077 -4.0869  1.1826  0.1386
  439MOL0     H59200   5.264   6.524   3.124 -0.0693  1.0537 -1.5196
  439MOL0     H59201   5.198   6.394   3.032  0.9897 -0.8823 -0.4818
  439MOL0     H59202   5.487   6.465   3.073 -2.3487  1.6862 -4.6534
  439MOL0     H59203   5.402   6.364   3.192  1.6228 -2.3984 -0.1481
  439MOL0     H59204   5.337   6.216   2.980  0.1594 -1.5689 -3.5537
  439MOL0     H59205   5.433   6.313   2.896  1.2968 -1.7131 -0.4257
  439MOL0     H59206   5.636   6.227   3.055 -0.4525  1.8566 -0.6662
  439MOL0     H59207   5.507   6.144   3.144 -1.8337  0.3971 -1.4203
  439MOL0     H59208   5.462   6.002   2.942  1.7658 -4.5825  1.0995
  439MOL0     H59209   5.614   6.062   2.878 -1.0566  0.5180 -1.3391
  439MOL0     H59210   5.662   5.865   2.961  0.3848  1.0682 -0.4376
  439MOL0     H59211   5.720   5.961   3.080 -0.9777  3.5890 -0.3515
  439MOL0     H59212   5.606   5.832   3.222 -0.4073 -1.1301  0.3307
  439MOL0     H59213   5.461   5.933   3.176  1.6078  3.0703 -2.0429
  439MOL0     H59214   5.540   5.638   3.096 -0.3778 -1.2565 -2.5111
  439MOL0     H59215   5.438   5.732   2.992  0.9640 -1.5173  0.0485
  439MOL0     H59216   5.474   5.710   3.361  1.5121  0.4652 -0.5310
  439MOL0     H59217   5.208   5.722   3.563 -0.1497 -0.6762  0.7293
  439MOL0     H59218   5.081   5.624   3.499 -0.5814  4.8072 -3.4152
  439MOL0     H59219   5.366   5.550   3.595 -0.0722  0.1820  1.5746
  439MOL0     H59220   5.275   5.429   3.515  0.5262  0.8293 -1.1984
  439MOL0     H59221   5.126   5.576   3.735  0.1042 -0.6107  0.5912
  439MOL0     H59222   5.278   5.530   3.794 -1.4188  2.8027  1.2320
  439MOL0     H59223   5.200   5.284   3.666 -3.4971 -2.3672 -0.5337
  439MOL0     H59224   5.044   5.357   3.690 -0.2512  0.2344  0.6605
  439MOL0     H59225   5.163   5.304   4.122  0.8254 -2.5991  0.6074
  439MOL0     H59226   5.271   5.358   4.329 -0.8134 -2.6833 -1.5621
  439MOL0     H59227   5.401   5.259   4.367 -2.7995 -1.2032 -0.2928
  439MOL0     H59228   5.438   5.429   4.333 -0.2033 -0.6804  1.4803
  439MOL0     H59229   5.870   5.557   4.016 -1.2084  1.1874 -0.4707
  439MOL0     H59230   6.106   5.618   4.110  3.1874 -1.5772  1.9231
  439MOL0     H59231   6.183   5.510   4.491 -1.7236  2.4037 -3.3200
  439MOL0     H59232   6.287   5.361   4.431  1.2714  0.2409 -1.8728
  439MOL0     H59233   6.359   5.652   4.473  4.0995  1.2816 -0.3632
  439MOL0     H59234   6.423   5.515   4.570 -2.4494  1.2484  1.0908
  439MOL0     H59235   6.475   5.545   4.273 -0.8911 -2.2019  0.7929
  439MOL0     H59236   6.555   5.428   4.392  3.2271  1.3602  2.3111
  439MOL0     H59237   6.557   5.721   4.435  1.8869  0.6132 -0.2330
  439MOL0     H59238   6.665   5.620   4.515  2.6000  1.8089 -0.4243
  439MOL0     H59239   6.796   5.719   4.362  1.9234  0.0470 -2.0228
  439MOL0     H59240   6.686   5.710   4.231  1.8011  0.8132  1.1739
  439MOL0     H59241   6.787   5.460   4.360 -0.3561  1.2936 -0.1259
  439MOL0     H59242   6.737   5.461   4.201  0.7384 -0.7256 -1.1077
  439MOL0     H59243   6.947   5.569   4.123 -0.0563  2.1111 -0.6440
  439MOL0     H59244   6.991   5.431   4.235 -0.4840 -1.1630 -2.7474
  439MOL0     H59245   7.032   5.600   4.393 -4.0118  0.2309 -0.8722
  439MOL0     H59246   6.976   5.724   4.278 -0.9368 -0.5079 -0.7343
  439MOL0     H59247   6.042   5.313   4.410  0.2119 -0.3960 -0.6604
  439MOL0     H59248   5.818   5.293   4.347 -2.1445  0.9018 -0.6843
  439MOL0     H59249   5.602   5.258   3.901 -0.7720 -0.7117 -3.6906
  439MOL0     H59250   5.415   5.273   3.768 -1.7541 -0.7235  0.1764
  439MOL0     H59251   5.326   6.667   2.701 -1.9188  2.4186 -2.0557
  439MOL0     H59252   5.276   6.916   2.693  1.0492 -1.3654 -1.2379
  439MOL0     H59253   5.422   7.329   2.848 -0.2627  1.0130  2.4635
  439MOL0     H59254   5.394   7.569   2.798 -0.2450  0.7448 -1.3723
  439MOL0     H59255   5.328   7.781   2.788  0.4237 -1.8550  1.2438
  439MOL0     H59256   5.331   7.718   2.629  1.2616 -1.0022  0.9004
  439MOL0     H59257   5.158   7.947   2.727  1.0731  1.0224  0.4902
  439MOL0     H59258   5.128   7.863   2.572 -0.0202 -0.7523  1.0698
  439MOL0     H59259   5.413   7.939   2.588  0.2836  0.6022  0.9436
  439MOL0     H59260   5.312   8.076   2.618 -2.4109 -0.7001 -0.9540
  439MOL0     H59261   5.341   8.066   2.385 -0.3672  1.2205  3.3831
  439MOL0     H59262   5.168   8.039   2.419 -0.6731 -0.9085  2.7144
  439MOL0     H59263   5.270   7.660   2.243 -2.0657  0.0401 -0.1337
  439MOL0     H59264   4.973   7.493   2.727  0.6144  3.3090 -4.2073
  439MOL0     H59265   4.999   7.259   2.755 -1.1275  1.6819 -1.9556
  440MOL0     O59266   8.994   0.514   7.159  0.1038 -0.3893 -0.2068
  440MOL0     C59267   9.089   0.522   7.083 -1.0148 -0.9002 -0.1295
  440MOL0     O59268   9.136   0.426   7.005 -0.3546 -0.0005 -0.0954
  440MOL0     C59269   9.079   0.305   7.005 -1.5792  0.8529  0.8572
  440MOL0     C59270   9.112   0.202   7.100 -0.1230 -0.5036 -0.0974
  440MOL0     C59271   9.058   0.073   7.084 -0.0776 -0.0368 -1.1355
  440MOL0     C59272   8.960   0.053   6.985  0.3223 -0.0769 -0.2851
  440MOL0     O59273   8.900  -0.071   6.971  0.0197  0.1225 -0.2134
  440MOL0     C59274   8.756  -0.085   6.965 -0.6621 -0.1645 -1.0702
  440MOL0     C59275   8.714  -0.224   6.900 -0.2902 -0.2812  0.1740
  440MOL0     C59276   8.745  -0.231   6.750  0.5987 -0.7266  0.5424
  440MOL0     C59277   8.650  -0.338   6.693  0.0332 -0.7149  0.8239
  440MOL0     C59278   8.517  -0.282   6.631  0.1275  0.2188  0.3730
  440MOL0     C59279   8.416  -0.228   6.737 -0.5879 -0.3408  0.3507
  440MOL0     C59280   8.281  -0.200   6.671 -0.3319 -0.3524 -0.8507
  440MOL0     C59281   8.206  -0.321   6.615 -0.1363  1.1322  0.0950
  440MOL0     N59282   8.195  -0.407   6.731  0.8104  0.3900  0.5545
  440MOL0     C59283   8.274  -0.524   6.757 -1.0637 -0.2435 -0.7692
  440MOL0     C59284   8.198  -0.590   6.853  0.9134  0.1744  0.7041
  440MOL0     C59285   8.223  -0.710   6.937 -0.0088  0.5872 -0.6243
  440MOL0     C59286   8.238  -0.836   6.845 -0.0054  0.5756  0.3355
  440MOL0     C59287   8.318  -0.948   6.918 -0.4782 -0.3029 -0.1689
  440MOL0     C59288   8.347  -1.062   6.826  0.1339  0.1443  0.0579
  440MOL0     O59289   8.218  -1.110   6.766 -0.1034  0.0760 -0.1462
  440MOL0     C59290   8.228  -1.190   6.651 -0.1718  0.6194 -0.1276
  440MOL0     C59291   8.119  -1.216   6.576 -0.2502  0.4601  0.3718
  440MOL0     C59292   8.114  -1.308   6.479  0.1486  0.3143 -0.3394
  440MOL0     C59293   7.976  -1.354   6.424  0.6795 -0.7927  0.2109
  440MOL0     C59294   8.232  -1.379   6.437 -0.4370 -0.1534  0.4439
  440MOL0     C59295   8.238  -1.497   6.343 -1.5302 -0.1704 -0.7227
  440MOL0     O59296   8.127  -1.552   6.314  0.0608  0.0858 -0.0273
  440MOL0     C59297   8.103  -1.655   6.226 -0.4343  0.1485  0.2535
  440MOL0     C59298   8.199  -1.733   6.155  0.0255 -0.4054 -0.3199
  440MOL0     C59299   8.169  -1.850   6.082  0.1033 -0.4301 -0.5481
  440MOL0     C59300   8.035  -1.885   6.074  0.1724  0.4515  0.1715
  440MOL0     O59301   7.993  -1.998   6.003  0.6055 -0.7072 -0.5928
  440MOL0     C59302   8.066  -2.118   6.039  0.3934 -0.3901  0.3831
  440MOL0     C59303   8.016  -2.167   6.176 -0.9871 -0.3974  0.8130
  440MOL0     C59304   8.103  -2.278   6.225  0.2368 -0.2367  0.2969
  440MOL0     C59305   8.247  -2.243   6.277 -0.1739 -0.1418  0.5395
  440MOL0     C59306   8.273  -2.335   6.401 -0.0387 -0.9780  0.2486
  440MOL0     C59307   8.378  -2.268   6.497 -0.9971  0.2486 -0.3079
  440MOL0     C59308   8.373  -2.326   6.635  0.4026  0.9535 -0.0578
  440MOL0     C59309   8.503  -2.288   6.706 -0.2078 -0.0285  0.0597
  440MOL0    Cl59310   8.496  -2.114   6.750  0.0624 -0.1424 -0.2762
  440MOL0     C59311   7.931  -1.807   6.148 -0.0575 -0.1323 -0.1517
  440MOL0     C59312   7.967  -1.695   6.226  0.4926  0.6286  0.8916
  440MOL0     O59313   8.349  -1.543   6.319 -0.3378  0.0290 -0.0065
  440MOL0     C59314   8.346  -1.341   6.506  0.3932  0.1174 -0.4290
  440MOL0     C59315   8.345  -1.252   6.613 -0.3593  0.0070 -0.4424
  440MOL0     N59316   8.077  -0.519   6.884  0.0052  0.6423  1.1349
  440MOL0     N59317   8.074  -0.420   6.798 -0.1703 -1.0358  0.3593
  440MOL0     C59318   8.922   0.151   6.898 -0.8873  0.2917 -0.1649
  440MOL0     C59319   8.992   0.276   6.902 -0.0726 -0.6098  0.2650
  440MOL0     C59320   9.142   0.660   7.057  0.6601  0.5483 -0.7096
  440MOL0     C59321   9.269   0.676   7.008  0.0526  0.4159 -0.6489
  440MOL0     C59322   9.311   0.800   6.963  0.0172  0.3131  0.2940
  440MOL0     C59323   9.229   0.917   6.972 -0.6903 -0.4288 -0.0718
  440MOL0     O59324   9.308   1.028   6.948  0.6456 -0.6058 -1.2416
  440MOL0     C59325   9.280   1.145   7.018  0.2462  0.1432  0.0358
  440MOL0     C59326   9.292   1.268   6.935 -0.2885  0.4523  0.3115
  440MOL0     C59327   9.252   1.241   6.785  0.7519 -0.2830  0.4279
  440MOL0     C59328   9.256   1.374   6.702 -0.1472  0.6270  0.7677
  440MOL0     C59329   9.392   1.437   6.708  0.5814 -1.0862  0.4147
  440MOL0     C59330   9.504   1.478   6.717 -0.4529  0.0967  0.3179
  440MOL0     C59331   9.102   0.901   7.037 -0.4882 -0.1831 -0.8179
  440MOL0     C59332   9.057   0.777   7.075 -0.0355 -0.6018  0.4664
  440MOL0     H59333   9.180   0.227   7.180 -2.5064  0.3829  1.7598
  440MOL0     H59334   9.091  -0.005   7.153  4.8355  3.7448  1.4786
  440MOL0     H59335   8.709  -0.082   7.063  2.0669 -2.2332  0.4605
  440MOL0     H59336   8.704  -0.004   6.914  2.7436  3.6986  1.0193
  440MOL0     H59337   8.746  -0.318   6.946  0.5160  0.8792  2.1427
  440MOL0     H59338   8.605  -0.226   6.911 -0.3384 -2.0389 -0.4713
  440MOL0     H59339   8.723  -0.136   6.701 -2.6817 -0.1040  2.9179
  440MOL0     H59340   8.853  -0.247   6.751  1.2839  2.5052  4.9164
  440MOL0     H59341   8.708  -0.385   6.613  2.1865  1.1016  1.2252
  440MOL0     H59342   8.628  -0.416   6.766 -0.4618  0.1454  1.6206
  440MOL0     H59343   8.538  -0.206   6.555  3.9076 -1.0143  0.0008
  440MOL0     H59344   8.467  -0.364   6.577 -2.5110  2.9335 -1.6710
  440MOL0     H59345   8.403  -0.307   6.811 -1.2753 -0.0220  0.5791
  440MOL0     H59346   8.453  -0.133   6.778 -0.8474  0.5504 -1.4007
  440MOL0     H59347   8.219  -0.154   6.749  1.8530  1.3877 -0.0227
  440MOL0     H59348   8.303  -0.118   6.602 -1.0731  0.9720  0.4212
  440MOL0     H59349   8.262  -0.365   6.532  1.0494  1.6113  0.6076
  440MOL0     H59350   8.113  -0.281   6.575 -1.4348  1.8274  3.4817
  440MOL0     H59351   8.363  -0.556   6.704 -0.2408  1.3592 -0.4118
  440MOL0     H59352   8.315  -0.694   6.994 -0.4904 -0.5589  0.5107
  440MOL0     H59353   8.144  -0.734   7.009  0.0896 -2.3899 -1.3822
  440MOL0     H59354   8.279  -0.809   6.747  1.5651 -2.1991  0.1281
  440MOL0     H59355   8.140  -0.877   6.820  0.4874  0.4208 -1.4573
  440MOL0     H59356   8.269  -0.977   7.011  1.6762 -2.1384  0.4549
  440MOL0     H59357   8.420  -0.913   6.934 -0.0608 -1.0972 -1.0339
  440MOL0     H59358   8.403  -1.136   6.883 -1.8924 -1.8745 -0.4551
  440MOL0     H59359   8.408  -1.018   6.747  0.5658 -0.0209  0.2941
  440MOL0     H59360   8.024  -1.173   6.608 -0.2432 -1.2874  3.0466
  440MOL0     H59361   7.902  -1.284   6.464  0.6766  0.3834 -1.7593
  440MOL0     H59362   7.963  -1.340   6.317 -4.5902  3.0732  0.9543
  440MOL0     H59363   7.952  -1.458   6.446 -1.0703 -1.1436 -2.8579
  440MOL0     H59364   8.303  -1.709   6.170  0.2269 -1.5490  0.1589
  440MOL0     H59365   8.245  -1.916   6.042 -0.1931 -0.7809 -0.5339
  440MOL0     H59366   8.032  -2.192   5.966  3.0127  0.4119 -1.8407
  440MOL0     H59367   8.175  -2.109   6.034  0.5461 -2.3170 -0.9570
  440MOL0     H59368   8.024  -2.088   6.252  1.6811  3.0508 -2.6618
  440MOL0     H59369   7.910  -2.192   6.172 -0.4141 -2.8932 -1.1488
  440MOL0     H59370   8.107  -2.339   6.134 -0.0749  1.3717 -0.8356
  440MOL0     H59371   8.042  -2.344   6.288  0.4196 -1.5566 -0.8644
  440MOL0     H59372   8.329  -2.244   6.205 -2.6156  0.1988 -2.4718
  440MOL0     H59373   8.239  -2.142   6.319 -1.4020 -0.2137  0.5314
  440MOL0     H59374   8.307  -2.427   6.352  1.2895 -0.5270  0.2825
  440MOL0     H59375   8.179  -2.344   6.456 -0.5585 -2.5912 -0.8531
  440MOL0     H59376   8.476  -2.279   6.450 -0.3099  3.5896  0.0619
  440MOL0     H59377   8.356  -2.161   6.508 -0.5130  0.4273 -1.0303
  440MOL0     H59378   8.351  -2.432   6.622 -0.0404  1.0373 -0.0046
  440MOL0     H59379   8.286  -2.283   6.685 -0.5259 -0.3238 -0.5119
  440MOL0     H59380   8.584  -2.285   6.633 -0.9541  2.8763 -0.7761
  440MOL0     H59381   8.525  -2.355   6.790 -0.4539  0.0052  0.1530
  440MOL0     H59382   7.830  -1.844   6.157 -0.5746  1.6078  2.2083
  440MOL0     H59383   7.898  -1.636   6.285  1.0760  0.3633  1.8573
  440MOL0     H59384   8.444  -1.379   6.482  2.0174  1.8637  2.8185
  440MOL0     H59385   8.444  -1.236   6.655 -0.4121  2.6078 -1.1526
  440MOL0     H59386   8.851   0.135   6.817  0.9885  0.1564 -1.8408
  440MOL0     H59387   8.960   0.353   6.833 -0.8576 -1.5471 -0.4431
  440MOL0     H59388   9.326   0.588   6.981  0.4374  0.7789 -1.0503
  440MOL0     H59389   9.396   0.825   6.900 -0.3986  2.4994  0.5343
  440MOL0     H59390   9.182   1.131   7.065  1.1756  1.2193  2.4374
  440MOL0     H59391   9.353   1.156   7.098  0.0659  1.7654  0.0115
  440MOL0     H59392   9.394   1.306   6.944 -0.6057  1.3927 -0.0249
  440MOL0     H59393   9.221   1.338   6.980 -0.4679  2.4971 -2.8072
  440MOL0     H59394   9.145   1.218   6.781  0.8026 -0.2868 -1.3779
  440MOL0     H59395   9.320   1.161   6.754 -0.0870 -2.3905  3.5641
  440MOL0     H59396   9.176   1.437   6.741 -2.3931 -1.4979 -0.1128
  440MOL0     H59397   9.229   1.346   6.600 -3.8207  0.0594  1.7686
  440MOL0     H59398   9.596   1.527   6.742 -0.5797  1.0440 -0.9650
  440MOL0     H59399   9.033   0.983   7.056 -1.3687 -1.2430  0.7460
  440MOL0     H59400   8.960   0.755   7.119 -0.3633 -0.2442 -0.0709
  441MOL0     O59401   6.291   4.687   9.353  0.0655 -0.4099  0.1203
  441MOL0     C59402   6.201   4.764   9.358  0.2873 -0.0314 -0.4934
  441MOL0     O59403   6.090   4.777   9.276  0.5362  0.2086  0.8294
  441MOL0     C59404   6.068   4.687   9.171  0.0493  0.4969  0.2254
  441MOL0     C59405   6.150   4.570   9.136 -0.5127 -0.2936  0.0472
  441MOL0     C59406   6.116   4.494   9.026  0.6321 -0.3855  0.6431
  441MOL0     C59407   6.016   4.533   8.929 -0.4250  0.8124  1.0675
  441MOL0     O59408   6.010   4.465   8.804 -0.1189  0.3627  0.6790
  441MOL0     C59409   5.905   4.477   8.711  0.6155  0.2887  0.5359
  441MOL0     C59410   5.775   4.396   8.725 -0.7993 -0.3994 -0.6575
  441MOL0     C59411   5.809   4.245   8.724  0.2163 -0.5248 -0.9929
  441MOL0     C59412   5.683   4.149   8.743 -0.6322  0.0143  1.2229
  441MOL0     C59413   5.622   4.143   8.883 -1.1854 -0.5005  0.3276
  441MOL0     C59414   5.495   4.062   8.883 -0.3492 -0.4249  0.9789
  441MOL0     C59415   5.423   4.088   9.013  0.1907 -0.8929 -0.4064
  441MOL0     C59416   5.383   3.961   9.084  0.0620 -0.2487  0.1905
  441MOL0     N59417   5.289   3.980   9.195 -0.4007  0.0452 -0.7161
  441MOL0     C59418   5.154   4.008   9.192  1.4956  1.1156  0.4699
  441MOL0     C59419   5.105   3.988   9.315  0.4488 -0.5063 -0.6522
  441MOL0     C59420   4.974   4.031   9.369 -0.7326  0.4018  0.1190
  441MOL0     C59421   4.859   4.004   9.273 -0.1440  0.0740  0.5249
  441MOL0     C59422   4.724   4.017   9.336 -1.1598 -0.7058 -0.3351
  441MOL0     C59423   4.607   3.964   9.248  0.7268  1.2502 -0.4801
  441MOL0     O59424   4.491   4.029   9.296  0.6333 -0.4440  0.4903
  441MOL0     C59425   4.373   3.990   9.251  0.5970  0.2673  0.5157
  441MOL0     C59426   4.276   4.086   9.261 -1.0288 -0.4320 -0.8451
  441MOL0     C59427   4.136   4.071   9.228  0.7962 -0.3893  0.2031
  441MOL0     C59428   4.041   4.184   9.255 -0.2222 -0.7554 -0.2123
  441MOL0     C59429   4.091   3.947   9.175  0.1065 -0.4774 -0.8591
  441MOL0     C59430   3.947   3.915   9.148 -0.0529 -0.2872 -0.9124
  441MOL0     O59431   3.843   4.010   9.146 -0.8405 -0.0723 -0.0161
  441MOL0     C59432   3.718   3.978   9.102 -0.6121 -0.4523 -0.4844
  441MOL0     C59433   3.614   4.037   9.164  0.8540 -0.1739  0.0073
  441MOL0     C59434   3.487   4.044   9.124 -0.1043  0.3576  0.2299
  441MOL0     C59435   3.461   3.981   9.007  0.2889  0.0558  1.1464
  441MOL0     O59436   3.335   3.981   8.953 -0.1919  0.0690 -0.1453
  441MOL0     C59437   3.323   4.054   8.837  0.4166  0.2265  0.7322
  441MOL0     C59438   3.182   4.073   8.802  0.3993  0.3532  0.1564
  441MOL0     C59439   3.112   4.179   8.884 -1.0932 -0.6267 -1.1328
  441MOL0     C59440   3.153   4.321   8.843  0.2190  0.3651 -0.4149
  441MOL0     C59441   3.127   4.439   8.945  0.1078 -0.1453 -0.9781
  441MOL0     C59442   2.978   4.423   8.999 -0.4491  0.2114  0.7325
  441MOL0     C59443   2.918   4.547   9.049 -1.7931  0.7142 -0.1760
  441MOL0     C59444   3.010   4.612   9.149  1.7025  0.5955  0.9716
  441MOL0    Cl59445   3.088   4.495   9.256  0.0202 -0.3944 -0.3219
  441MOL0     C59446   3.556   3.907   8.942  0.5053 -0.5179  0.2613
  441MOL0     C59447   3.690   3.913   8.982  0.6442  0.0638  0.3429
  441MOL0     O59448   3.926   3.795   9.130 -0.2771 -0.0634 -0.2114
  441MOL0     C59449   4.197   3.853   9.162 -0.4712  0.2779 -0.3403
  441MOL0     C59450   4.335   3.876   9.187  0.4361 -0.4518 -0.1575
  441MOL0     N59451   5.208   3.933   9.392  0.0245  0.5991  0.3689
  441MOL0     N59452   5.306   3.923   9.320 -0.7045  0.2198  0.4341
  441MOL0     C59453   5.936   4.648   8.962  0.0674 -0.1308  0.3736
  441MOL0     C59454   5.959   4.723   9.079 -0.6450  1.2157 -0.2141
  441MOL0     C59455   6.195   4.845   9.486  0.0515  0.8751  0.0952
  441MOL0     C59456   6.293   4.837   9.576 -1.2734  0.3323 -0.7864
  441MOL0     C59457   6.297   4.918   9.694  0.2398 -0.1633  0.4519
  441MOL0     C59458   6.197   5.003   9.727 -0.5406 -0.0099  0.2997
  441MOL0     O59459   6.211   5.086   9.836 -0.9880 -0.1919  0.7308
  441MOL0     C59460   6.115   5.196   9.854 -1.1960 -0.0524 -0.2094
  441MOL0     C59461   6.179   5.300   9.755 -0.4546 -0.4568 -0.7115
  441MOL0     C59462   6.140   5.439   9.785  0.2791  0.1134 -0.3032
  441MOL0     C59463   6.219   5.521   9.692  0.2182 -0.6952  0.0941
  441MOL0     C59464   6.201   5.667   9.700  0.0911  0.6108  0.3228
  441MOL0     C59465   6.188   5.789   9.702  0.0752 -0.2231  0.3195
  441MOL0     C59466   6.086   5.006   9.631  0.6274  0.3332 -1.1468
  441MOL0     C59467   6.098   4.940   9.510  0.1203 -1.0482  0.1097
  441MOL0     H59468   6.239   4.534   9.185  0.1178 -1.0169 -1.5431
  441MOL0     H59469   6.175   4.403   9.016 -0.3997 -1.0886  0.6714
  441MOL0     H59470   5.871   4.581   8.704  1.5162  0.5929  0.4504
  441MOL0     H59471   5.946   4.451   8.612  4.1238 -6.2040  3.1184
  441MOL0     H59472   5.723   4.419   8.819  1.2085 -1.6943  0.8389
  441MOL0     H59473   5.707   4.414   8.641 -0.5953 -1.6053 -1.0997
  441MOL0     H59474   5.867   4.230   8.633 -0.1275  1.0131 -1.5052
  441MOL0     H59475   5.885   4.231   8.802  2.5591  1.4962 -2.7728
  441MOL0     H59476   5.605   4.170   8.670 -2.5715 -1.5044  2.7625
  441MOL0     H59477   5.720   4.051   8.712  1.8940  1.7343 -1.8455
  441MOL0     H59478   5.701   4.116   8.953 -3.0283  0.9945  3.1570
  441MOL0     H59479   5.586   4.244   8.906 -1.9533 -0.4219 -1.1032
  441MOL0     H59480   5.434   4.094   8.798 -2.0443 -2.0768  1.5072
  441MOL0     H59481   5.514   3.956   8.869  1.5958 -0.1144  1.0265
  441MOL0     H59482   5.487   4.143   9.082 -0.1857  0.7816 -1.3422
  441MOL0     H59483   5.331   4.145   8.997  0.1614 -0.5400  0.9508
  441MOL0     H59484   5.475   3.908   9.110  0.6870  1.2035  1.1139
  441MOL0     H59485   5.336   3.896   9.011  4.2006 -1.9563 -1.2568
  441MOL0     H59486   5.094   4.059   9.117 -2.6026  1.0323  3.3881
  441MOL0     H59487   4.948   3.969   9.455  1.9779  2.1015  2.3219
  441MOL0     H59488   4.970   4.136   9.397 -3.4689  0.2421  0.5948
  441MOL0     H59489   4.878   3.912   9.216  1.6825  2.2487 -2.6855
  441MOL0     H59490   4.855   4.073   9.188 -2.7866 -1.5128 -0.7611
  441MOL0     H59491   4.708   4.124   9.350 -3.4571 -1.1463  0.8662
  441MOL0     H59492   4.732   3.964   9.431  0.1236  1.5322  0.8892
  441MOL0     H59493   4.610   3.858   9.274 -0.9622  1.5322  1.0657
  441MOL0     H59494   4.618   3.990   9.142 -2.5630  1.9304 -0.7651
  441MOL0     H59495   4.315   4.185   9.279 -0.7211 -0.8096  0.6967
  441MOL0     H59496   4.108   4.261   9.294  1.0833 -2.8772  1.9670
  441MOL0     H59497   3.984   4.209   9.165 -2.3598 -0.6444  1.1206
  441MOL0     H59498   3.967   4.156   9.330 -0.3297  0.7705  0.2835
  441MOL0     H59499   3.628   4.094   9.256 -1.1982 -1.6970  1.3490
  441MOL0     H59500   3.414   4.103   9.179  0.3669  1.0690  0.1173
  441MOL0     H59501   3.376   4.150   8.845  0.4021  0.5907 -2.2924
  441MOL0     H59502   3.367   3.995   8.756 -1.1906 -2.6812  1.8459
  441MOL0     H59503   3.170   4.097   8.696 -1.3348  1.3342  0.5296
  441MOL0     H59504   3.134   3.974   8.808  0.4426  0.3683  0.8261
  441MOL0     H59505   3.108   4.167   8.993 -1.9836 -1.1553 -1.2131
  441MOL0     H59506   3.006   4.173   8.857 -0.6105 -1.7053 -2.8786
  441MOL0     H59507   3.255   4.328   8.804  0.7186 -2.5634  0.0904
  441MOL0     H59508   3.088   4.338   8.757  2.1315  0.3773 -1.9044
  441MOL0     H59509   3.133   4.537   8.896 -2.9387 -0.2992 -1.9209
  441MOL0     H59510   3.204   4.428   9.021  1.4762  0.4278 -2.2246
  441MOL0     H59511   2.911   4.383   8.922  0.2499 -1.6916  1.0586
  441MOL0     H59512   2.983   4.351   9.082  1.7318 -1.0884 -0.4290
  441MOL0     H59513   2.819   4.525   9.091 -1.9127  2.3627  0.4866
  441MOL0     H59514   2.885   4.610   8.967 -5.4386 -0.5127  0.1585
  441MOL0     H59515   2.966   4.691   9.210 -0.0919  0.2132  0.2386
  441MOL0     H59516   3.087   4.653   9.082  2.1381 -1.5274  0.1019
  441MOL0     H59517   3.517   3.839   8.867  0.9427 -2.1205  1.4388
  441MOL0     H59518   3.767   3.870   8.919  0.5004 -1.7572  1.3190
  441MOL0     H59519   4.164   3.759   9.118 -1.6288 -0.2889  1.5722
  441MOL0     H59520   4.409   3.800   9.165 -0.7294 -1.4605 -0.6649
  441MOL0     H59521   5.859   4.687   8.897 -0.2544  0.6936  1.2220
  441MOL0     H59522   5.894   4.805   9.109 -1.1307  0.6118  0.4169
  441MOL0     H59523   6.373   4.765   9.562 -1.7414 -0.3633  0.0081
  441MOL0     H59524   6.377   4.921   9.767 -0.6540 -0.4100  1.4574
  441MOL0     H59525   6.011   5.164   9.840 -0.7284 -2.1857  0.7233
  441MOL0     H59526   6.121   5.222   9.960 -0.9765 -1.7834  0.2353
  441MOL0     H59527   6.143   5.273   9.655  0.2587  1.1286 -1.4303
  441MOL0     H59528   6.288   5.296   9.757 -0.4468 -0.1820 -0.6265
  441MOL0     H59529   6.174   5.459   9.887  0.3654 -2.2774  0.1947
  441MOL0     H59530   6.031   5.454   9.778  0.5000  1.0094 -2.9282
  441MOL0     H59531   6.201   5.494   9.588  1.0070  0.6550 -0.4161
  441MOL0     H59532   6.324   5.507   9.717  1.0048  3.8254  0.1686
  441MOL0     H59533   6.181   5.896   9.708 -1.8769 -0.1744 -1.7247
  441MOL0     H59534   5.999   5.065   9.657 -0.5465 -2.3131  1.5709
  441MOL0     H59535   6.023   4.963   9.435  0.0923  3.3888  1.2134
  442MOL0     O59536   9.481   4.228   6.874 -0.2531 -0.7188 -0.0925
  442MOL0     C59537   9.440   4.166   6.971  0.0815  0.3600 -0.5144
  442MOL0     O59538   9.318   4.123   6.998  0.1825  0.3966  0.4063
  442MOL0     C59539   9.204   4.166   6.933 -0.0856 -0.8357 -0.3489
  442MOL0     C59540   9.190   4.279   6.850  0.6601  0.6955  0.7553
  442MOL0     C59541   9.055   4.312   6.799 -0.5104 -0.5337 -0.2007
  442MOL0     C59542   8.945   4.231   6.840  0.9869  0.1995 -0.5123
  442MOL0     O59543   8.816   4.253   6.797 -0.0558 -0.1568 -0.3723
  442MOL0     C59544   8.765   4.383   6.753 -0.1084 -0.1687  0.2996
  442MOL0     C59545   8.611   4.394   6.758  0.1257 -0.2638  0.9845
  442MOL0     C59546   8.553   4.306   6.870 -0.6279 -0.8577  0.2640
  442MOL0     C59547   8.406   4.340   6.891 -0.0274  0.1133 -0.1738
  442MOL0     C59548   8.377   4.443   7.005  0.3315 -0.1266  0.3163
  442MOL0     C59549   8.414   4.392   7.144 -0.1693  0.4423 -0.1583
  442MOL0     C59550   8.402   4.484   7.257  1.1187 -0.2839 -0.4327
  442MOL0     C59551   8.265   4.548   7.309 -0.1656  0.0155  0.2673
  442MOL0     N59552   8.164   4.446   7.340  0.5326  0.0294 -0.4530
  442MOL0     C59553   8.163   4.381   7.455  0.0546  0.1930 -0.1664
  442MOL0     C59554   8.038   4.325   7.457 -0.3749  0.7290 -0.6499
  442MOL0     C59555   7.987   4.256   7.582  1.1386 -0.2282  0.6230
  442MOL0     C59556   7.843   4.209   7.568  0.1958  0.0610  0.0343
  442MOL0     C59557   7.834   4.076   7.664 -0.2004  1.6292 -0.8264
  442MOL0     C59558   7.692   4.042   7.715 -0.0736  0.2894  0.3323
  442MOL0     O59559   7.610   3.990   7.608  0.5797 -0.3505 -0.0265
  442MOL0     C59560   7.638   3.871   7.542  0.4200  0.4641  1.1947
  442MOL0     C59561   7.716   3.770   7.598 -0.3418  1.3520  0.6104
  442MOL0     C59562   7.751   3.646   7.534  0.3031 -0.0175  0.5705
  442MOL0     C59563   7.844   3.550   7.607  0.0358  0.2868 -0.1999
  442MOL0     C59564   7.697   3.623   7.404 -0.5522  0.2817  0.4742
  442MOL0     C59565   7.729   3.508   7.308 -0.4381  1.2282 -0.5656
  442MOL0     O59566   7.650   3.490   7.196  0.1858 -0.5371  0.3461
  442MOL0     C59567   7.702   3.386   7.113 -0.6683  0.1966  0.0118
  442MOL0     C59568   7.791   3.407   7.003  0.5492 -0.0069 -0.1934
  442MOL0     C59569   7.840   3.309   6.919 -0.3761  0.4242 -0.0464
  442MOL0     C59570   7.820   3.180   6.976  0.7073  1.1145  0.3194
  442MOL0     O59571   7.877   3.070   6.917  0.4616  0.6549  0.7366
  442MOL0     C59572   7.860   3.066   6.767 -0.8201 -0.7322  0.3594
  442MOL0     C59573   7.790   2.949   6.707  0.6005 -0.0872 -0.5637
  442MOL0     C59574   7.760   2.964   6.559  0.3705  0.3712  0.4195
  442MOL0     C59575   7.697   2.846   6.494  0.1912  0.6252 -0.6028
  442MOL0     C59576   7.733   2.818   6.350 -1.2095  0.0611  0.7320
  442MOL0     C59577   7.705   2.943   6.267  1.2049  0.4040 -0.7983
  442MOL0     C59578   7.731   2.919   6.117 -0.1768  0.5809 -0.6834
  442MOL0     C59579   7.627   3.004   6.037  0.9568  0.6336  0.0922
  442MOL0    Cl59580   7.650   2.971   5.867 -0.3523 -0.3508  0.1302
  442MOL0     C59581   7.725   3.155   7.078 -0.0019  0.2688  0.5726
  442MOL0     C59582   7.669   3.255   7.146  0.4330  0.5390 -0.0298
  442MOL0     O59583   7.814   3.424   7.344  0.3389  0.9735  0.2007
  442MOL0     C59584   7.620   3.728   7.343  0.7193 -0.0584  0.6019
  442MOL0     C59585   7.590   3.846   7.411 -0.3615 -0.3592 -0.1614
  442MOL0     N59586   7.975   4.355   7.347  0.2334 -0.2574 -0.1756
  442MOL0     N59587   8.044   4.434   7.282  0.4721 -0.6295 -0.0950
  442MOL0     C59588   8.965   4.124   6.926  0.7384  0.9319  0.5018
  442MOL0     C59589   9.093   4.091   6.967  0.7012  0.1385 -0.3200
  442MOL0     C59590   9.547   4.109   7.069  0.6244  0.1752  0.2206
  442MOL0     C59591   9.679   4.074   7.021 -0.3517 -1.0675 -0.0781
  442MOL0     C59592   9.764   4.008   7.101  0.6495  0.0468  0.4479
  442MOL0     C59593   9.726   3.964   7.232  0.6404 -0.5689  0.3752
  442MOL0     O59594   9.821   3.892   7.301  0.1398  0.1187  0.3424
  442MOL0     C59595   9.808   3.901   7.446  0.2475 -0.1967  0.0047
  442MOL0     C59596   9.957   3.879   7.480 -0.2161 -0.5184 -0.4382
  442MOL0     C59597  10.000   3.727   7.466 -0.4671  0.5894 -0.1778
  442MOL0     C59598  10.150   3.727   7.458  0.0464  0.0811  0.2573
  442MOL0     C59599  10.195   3.590   7.454  0.2612 -0.7754  0.3585
  442MOL0     C59600  10.227   3.472   7.458 -0.1486  0.3116  0.0564
  442MOL0     C59601   9.598   4.004   7.279 -0.8278  0.2692 -0.2906
  442MOL0     C59602   9.511   4.085   7.200 -0.2679 -0.5395  0.7375
  442MOL0     H59603   9.279   4.335   6.823  1.7536 -1.6286 -0.8150
  442MOL0     H59604   9.052   4.397   6.731  0.9652 -0.1717  0.1649
  442MOL0     H59605   8.811   4.460   6.816  2.2889 -0.1931 -1.2875
  442MOL0     H59606   8.804   4.412   6.655 -0.0284 -0.6935  0.1759
  442MOL0     H59607   8.591   4.501   6.767  1.3753  0.0816  0.0191
  442MOL0     H59608   8.567   4.351   6.667  0.0654  1.2957  0.2439
  442MOL0     H59609   8.569   4.201   6.845  1.0725 -0.8161  1.0124
  442MOL0     H59610   8.614   4.328   6.959 -2.0103 -0.4393  1.1359
  442MOL0     H59611   8.359   4.380   6.801 -2.6053 -0.5380  0.7919
  442MOL0     H59612   8.351   4.252   6.925  0.2724 -0.5327 -1.3087
  442MOL0     H59613   8.430   4.537   6.987  0.7750 -0.0062  2.0794
  442MOL0     H59614   8.274   4.480   7.011 -0.1100 -1.5912  2.7834
  442MOL0     H59615   8.348   4.314   7.184  4.2113 -2.2215  2.8649
  442MOL0     H59616   8.517   4.358   7.160 -0.5621 -0.4847  0.4734
  442MOL0     H59617   8.441   4.436   7.348 -2.3310 -1.6175  0.5179
  442MOL0     H59618   8.459   4.573   7.231  1.3611 -0.5753 -0.8968
  442MOL0     H59619   8.235   4.630   7.243 -3.7107 -0.8100  0.6268
  442MOL0     H59620   8.288   4.604   7.400 -3.6647 -0.1054  1.4114
  442MOL0     H59621   8.241   4.373   7.530 -0.9717 -0.3147  0.8784
  442MOL0     H59622   8.051   4.169   7.600  0.4304 -0.6191  1.2897
  442MOL0     H59623   7.990   4.327   7.665 -1.1298 -0.7914  1.2392
  442MOL0     H59624   7.822   4.171   7.468  0.5363 -2.5887  0.8815
  442MOL0     H59625   7.779   4.294   7.593  0.9585 -0.3960  4.3362
  442MOL0     H59626   7.877   4.090   7.764 -3.6766  1.1088  0.9090
  442MOL0     H59627   7.880   3.986   7.622 -0.5459  2.7303 -3.7818
  442MOL0     H59628   7.633   4.130   7.744 -0.8385  0.6037 -1.9382
  442MOL0     H59629   7.706   3.981   7.804 -0.4822  1.1072  0.9703
  442MOL0     H59630   7.751   3.789   7.699  1.8242 -0.7835  0.3326
  442MOL0     H59631   7.931   3.530   7.542  1.9339  2.5693  1.4462
  442MOL0     H59632   7.891   3.599   7.693 -1.8897 -0.9476  1.6421
  442MOL0     H59633   7.782   3.462   7.627 -1.5029  0.9367 -1.8484
  442MOL0     H59634   7.822   3.508   6.978 -0.9099 -0.0669 -2.4752
  442MOL0     H59635   7.911   3.328   6.839  0.7456  1.8273  1.2184
  442MOL0     H59636   7.829   3.165   6.734  3.3222  0.4233 -0.6100
  442MOL0     H59637   7.959   3.054   6.722 -0.6118 -1.7533  1.0401
  442MOL0     H59638   7.850   2.860   6.726  2.5100  1.4543  0.9872
  442MOL0     H59639   7.694   2.934   6.757  0.6565 -1.4785 -0.8332
  442MOL0     H59640   7.854   2.980   6.505 -0.1477  0.0821 -0.6096
  442MOL0     H59641   7.703   3.056   6.541  1.4644  1.2344  1.2776
  442MOL0     H59642   7.729   2.755   6.546  0.1932  0.2247 -1.2927
  442MOL0     H59643   7.590   2.863   6.504  0.1797 -0.1998  1.0087
  442MOL0     H59644   7.667   2.737   6.318 -0.7054  0.1587 -0.6233
  442MOL0     H59645   7.837   2.789   6.335 -1.4974  0.1069 -1.8649
  442MOL0     H59646   7.604   2.974   6.294  1.9663  2.0830  0.2781
  442MOL0     H59647   7.768   3.029   6.294  2.9877 -0.9863 -0.3508
  442MOL0     H59648   7.725   2.811   6.104 -1.5506  0.5625 -0.1058
  442MOL0     H59649   7.835   2.943   6.092  0.3559 -2.7799 -2.1799
  442MOL0     H59650   7.644   3.109   6.059  2.0359  0.0460  2.3947
  442MOL0     H59651   7.527   2.971   6.070  1.2296  2.6398  3.3568
  442MOL0     H59652   7.705   3.052   7.107 -0.1826  0.8339  2.6195
  442MOL0     H59653   7.600   3.235   7.226  0.0915  2.7210  0.2937
  442MOL0     H59654   7.599   3.717   7.237  1.8241  0.3195  0.3322
  442MOL0     H59655   7.532   3.922   7.359 -0.0716 -0.0019  0.0347
  442MOL0     H59656   8.876   4.066   6.949 -0.5681  2.4606 -0.4829
  442MOL0     H59657   9.093   3.999   7.024  2.5758 -0.2769 -0.9304
  442MOL0     H59658   9.697   4.077   6.914  0.5326 -1.1049  0.0642
  442MOL0     H59659   9.864   3.973   7.076  1.8462  3.3213  0.1699
  442MOL0     H59660   9.782   3.997   7.491  0.4060 -1.3146  2.6663
  442MOL0     H59661   9.745   3.819   7.482  0.2329  0.6585  2.0578
  442MOL0     H59662  10.002   3.913   7.574 -0.9728 -0.4762 -0.0799
  442MOL0     H59663  10.016   3.943   7.414 -0.7379 -1.6345 -2.0550
  442MOL0     H59664   9.970   3.684   7.370  2.2811 -2.1559  0.0501
  442MOL0     H59665   9.964   3.658   7.543 -2.9223 -2.7150 -3.8835
  442MOL0     H59666  10.199   3.782   7.539  0.7465  1.0332 -0.7924
  442MOL0     H59667  10.175   3.768   7.360 -1.8206 -0.1136 -0.3366
  442MOL0     H59668  10.255   3.371   7.480 -1.6827 -0.1407  0.0272
  442MOL0     H59669   9.562   3.966   7.374 -1.5248  1.8992  0.1497
  442MOL0     H59670   9.412   4.114   7.235 -0.2651 -1.0327  1.1621
  443MOL0     O59671   3.719   4.774   6.533  0.8090 -0.8088 -0.2509
  443MOL0     C59672   3.836   4.743   6.562  0.4235 -0.6555  0.1918
  443MOL0     O59673   3.878   4.715   6.687  0.6773  0.2307  0.1429
  443MOL0     C59674   3.801   4.726   6.800 -0.1667 -0.2190  0.7696
  443MOL0     C59675   3.871   4.735   6.920  0.7391  0.6380  0.3615
  443MOL0     C59676   3.815   4.738   7.045  0.2342  0.2603  0.2552
  443MOL0     C59677   3.672   4.717   7.049  0.1732 -0.3870 -0.7650
  443MOL0     O59678   3.611   4.735   7.173 -0.0298 -0.2192  0.2888
  443MOL0     C59679   3.504   4.833   7.160 -0.0220  0.0344  0.4893
  443MOL0     C59680   3.454   4.867   7.298  0.8347  0.2244 -0.2823
  443MOL0     C59681   3.353   4.769   7.348  0.1748 -0.1599  0.6664
  443MOL0     C59682   3.358   4.745   7.502  0.2364 -0.0306 -0.5006
  443MOL0     C59683   3.241   4.645   7.537 -0.1550 -0.4158  1.1677
  443MOL0     C59684   3.251   4.607   7.685  0.6579 -0.0591 -0.3395
  443MOL0     C59685   3.150   4.514   7.740  0.0181 -0.3989  0.6307
  443MOL0     C59686   3.147   4.481   7.894  0.2675  0.7444  0.4553
  443MOL0     N59687   3.037   4.391   7.926 -0.0060  0.0113  0.4913
  443MOL0     C59688   2.955   4.385   8.035  0.3535  0.6082 -0.6675
  443MOL0     C59689   2.856   4.300   8.022  0.1966  0.8953 -0.0968
  443MOL0     C59690   2.751   4.250   8.109 -0.7985  1.3702 -0.7061
  443MOL0     C59691   2.718   4.321   8.235  0.2179 -0.4978  0.0748
  443MOL0     C59692   2.608   4.424   8.202  0.2501  0.3430 -0.0429
  443MOL0     C59693   2.641   4.567   8.248 -0.0077  1.3192 -0.1034
  443MOL0     O59694   2.748   4.620   8.174  0.5291 -0.6764 -0.5210
  443MOL0     C59695   2.786   4.749   8.203  0.1515  0.4453 -0.3099
  443MOL0     C59696   2.762   4.840   8.100 -0.4553 -0.1481 -0.1256
  443MOL0     C59697   2.807   4.975   8.107  0.2883 -0.2414  0.3907
  443MOL0     C59698   2.767   5.064   7.991 -0.1853  0.9012 -0.5515
  443MOL0     C59699   2.891   5.017   8.219 -0.4028  0.3469 -0.4567
  443MOL0     C59700   2.933   5.158   8.246 -0.0816  0.6521  0.1129
  443MOL0     O59701   3.009   5.169   8.359  0.5883 -0.5371  0.2759
  443MOL0     C59702   3.061   5.295   8.383  0.3663 -0.2918  1.1011
  443MOL0     C59703   2.999   5.389   8.463  0.8404 -0.5131  0.0015
  443MOL0     C59704   3.066   5.509   8.496  0.6102  0.4343 -0.1923
  443MOL0     C59705   3.202   5.524   8.469  0.0742  0.4820 -0.6841
  443MOL0     O59706   3.251   5.641   8.521  0.0200  0.0208  0.1912
  443MOL0     C59707   3.380   5.686   8.480  0.5496 -0.5962  0.1164
  443MOL0     C59708   3.498   5.624   8.565  0.8753 -0.3789  0.3211
  443MOL0     C59709   3.646   5.669   8.531 -0.3706  0.7479  0.2485
  443MOL0     C59710   3.742   5.582   8.608 -0.0593  0.6831 -0.2247
  443MOL0     C59711   3.812   5.656   8.718  0.4915 -0.8692  0.4211
  443MOL0     C59712   3.903   5.561   8.809  0.7520  0.0815  0.8339
  443MOL0     C59713   3.943   5.627   8.940 -0.4226 -0.0855  0.3424
  443MOL0     C59714   4.018   5.547   9.039 -0.0653 -0.6220  0.0359
  443MOL0    Cl59715   3.902   5.499   9.166  0.0833  0.2472 -0.2851
  443MOL0     C59716   3.267   5.435   8.387  0.3805 -0.3782  0.6246
  443MOL0     C59717   3.192   5.321   8.351 -0.2378 -0.0743  1.1635
  443MOL0     O59718   2.880   5.249   8.185 -0.6066 -0.1737 -0.4300
  443MOL0     C59719   2.925   4.921   8.316  0.5466  0.1556  0.2001
  443MOL0     C59720   2.874   4.791   8.303  0.0784  0.0633 -0.6084
  443MOL0     N59721   2.893   4.237   7.905 -0.7370  0.3569  0.8750
  443MOL0     N59722   3.002   4.288   7.855  0.8727 -0.0638 -0.0450
  443MOL0     C59723   3.598   4.702   6.927 -0.0509  0.7795 -0.5029
  443MOL0     C59724   3.666   4.705   6.796  0.0365 -0.1631 -0.3940
  443MOL0     C59725   3.927   4.702   6.462  0.7365 -0.7084  0.2453
  443MOL0     C59726   4.054   4.651   6.495 -0.1886  0.3286 -0.9691
  443MOL0     C59727   4.141   4.604   6.400  1.3299 -0.4062  0.2620
  443MOL0     C59728   4.121   4.622   6.261 -1.0118 -0.2197  0.3544
  443MOL0     O59729   4.216   4.582   6.177  0.5157 -0.5409 -0.5733
  443MOL0     C59730   4.176   4.515   6.061  1.4538 -0.0234 -0.3811
  443MOL0     C59731   4.285   4.442   5.983  0.0333  0.1825  0.7440
  443MOL0     C59732   4.224   4.367   5.856  0.7283  0.0065 -0.3742
  443MOL0     C59733   4.315   4.371   5.735  0.2574  0.7218 -0.1707
  443MOL0     C59734   4.410   4.264   5.765  0.5406 -0.7699 -0.1165
  443MOL0     C59735   4.486   4.175   5.786  0.0638  0.6727 -0.4459
  443MOL0     C59736   3.994   4.675   6.223 -0.1029  0.1797 -0.0795
  443MOL0     C59737   3.898   4.699   6.323  0.4945 -0.0620  0.0976
  443MOL0     H59738   3.978   4.745   6.932  0.8404 -0.3713  0.4196
  443MOL0     H59739   3.863   4.747   7.142 -0.9861 -1.0393  1.0296
  443MOL0     H59740   3.537   4.922   7.106 -0.9087 -0.8509 -1.6087
  443MOL0     H59741   3.426   4.775   7.110  1.5461 -2.6579  0.9984
  443MOL0     H59742   3.533   4.875   7.373  2.1566 -1.9635 -1.3516
  443MOL0     H59743   3.412   4.968   7.299 -1.5362 -0.6900  0.4824
  443MOL0     H59744   3.255   4.817   7.335 -0.6666 -1.8659  0.3999
  443MOL0     H59745   3.355   4.676   7.291 -0.4622  0.6610 -0.7338
  443MOL0     H59746   3.458   4.713   7.532  0.3788 -0.9537 -1.8832
  443MOL0     H59747   3.337   4.837   7.558 -1.7763 -0.2920 -0.7575
  443MOL0     H59748   3.149   4.699   7.511  0.9325  1.1774  0.4979
  443MOL0     H59749   3.245   4.551   7.481 -3.2701 -0.5518  0.9833
  443MOL0     H59750   3.351   4.570   7.710  1.4332  0.8841 -1.9063
  443MOL0     H59751   3.232   4.688   7.755 -1.3349 -0.1086 -0.7533
  443MOL0     H59752   3.055   4.564   7.720 -0.2766 -0.7285  1.1903
  443MOL0     H59753   3.180   4.423   7.686  3.8688 -0.5366  2.6240
  443MOL0     H59754   3.148   4.574   7.953  0.9912  2.2671 -1.8039
  443MOL0     H59755   3.240   4.428   7.915  0.2478 -0.1720 -1.5824
  443MOL0     H59756   2.960   4.459   8.115  1.7321  1.0644 -1.1422
  443MOL0     H59757   2.670   4.228   8.040  1.3687  1.9605 -3.6814
  443MOL0     H59758   2.789   4.151   8.134 -1.2576  1.2394 -0.5199
  443MOL0     H59759   2.797   4.381   8.282 -2.8338  2.3999  1.9799
  443MOL0     H59760   2.686   4.250   8.311  1.3899 -0.6053  0.4874
  443MOL0     H59761   2.513   4.399   8.250 -1.0995  1.5534 -1.9359
  443MOL0     H59762   2.589   4.411   8.095 -1.8246 -1.2554  0.4610
  443MOL0     H59763   2.672   4.572   8.353  0.6677  3.5417 -0.3761
  443MOL0     H59764   2.562   4.640   8.231  1.3333  2.6755 -0.6819
  443MOL0     H59765   2.693   4.821   8.018 -3.7690 -1.7162  2.8131
  443MOL0     H59766   2.838   5.144   7.971  1.1629  0.3257  1.5824
  443MOL0     H59767   2.755   5.014   7.895  1.6335  0.4550 -0.5765
  443MOL0     H59768   2.678   5.120   8.022  0.0214  0.0515  1.8123
  443MOL0     H59769   2.897   5.361   8.487  0.8651 -0.6022  0.0022
  443MOL0     H59770   3.008   5.567   8.567  1.4269 -1.7086  2.3820
  443MOL0     H59771   3.390   5.665   8.373  0.3730  2.0608 -0.5019
  443MOL0     H59772   3.388   5.795   8.478  1.0476 -0.6350 -0.1212
  443MOL0     H59773   3.476   5.646   8.670  0.9925 -1.5112  0.6007
  443MOL0     H59774   3.494   5.515   8.553  1.3525 -0.1921 -1.9776
  443MOL0     H59775   3.668   5.776   8.542  3.1121  0.3435 -1.5690
  443MOL0     H59776   3.669   5.659   8.424  2.5972 -1.0025  0.9394
  443MOL0     H59777   3.698   5.489   8.645  1.3393  1.4820  4.0103
  443MOL0     H59778   3.824   5.548   8.544 -0.5945  0.7253 -0.9459
  443MOL0     H59779   3.741   5.707   8.785  1.2346  1.5041 -0.4987
  443MOL0     H59780   3.875   5.732   8.671 -3.0061  1.3982 -0.9907
  443MOL0     H59781   3.855   5.465   8.834  0.3363 -0.1655 -0.7673
  443MOL0     H59782   3.990   5.530   8.750 -2.1213  0.9015 -4.4413
  443MOL0     H59783   3.853   5.670   8.985 -0.2439  0.0376  0.5757
  443MOL0     H59784   4.008   5.707   8.904 -3.1986  3.2391  2.0915
  443MOL0     H59785   4.103   5.606   9.076  0.9357 -0.1278 -2.7520
  443MOL0     H59786   4.072   5.460   8.999  0.8717  0.8063 -1.9630
  443MOL0     H59787   3.368   5.439   8.347 -0.7785  1.2641 -2.4390
  443MOL0     H59788   3.254   5.257   8.288  1.1393  0.3798  2.0182
  443MOL0     H59789   2.982   4.943   8.406 -0.4150 -0.1641  0.9018
  443MOL0     H59790   2.919   4.726   8.378 -0.3182 -0.7447 -1.0618
  443MOL0     H59791   3.496   4.667   6.938  0.2592 -0.0450 -0.1304
  443MOL0     H59792   3.614   4.674   6.706 -1.2999  2.4573 -0.6233
  443MOL0     H59793   4.064   4.643   6.603  0.1980 -1.5745 -1.1172
  443MOL0     H59794   4.232   4.559   6.438  0.7027 -0.1471  2.1822
  443MOL0     H59795   4.100   4.443   6.094  0.1747 -0.8285 -4.5265
  443MOL0     H59796   4.128   4.593   6.002 -2.8561  0.1179  2.8574
  443MOL0     H59797   4.339   4.383   6.058  2.9123  1.2905 -0.3214
  443MOL0     H59798   4.358   4.516   5.949  2.6867 -1.6582  2.0568
  443MOL0     H59799   4.136   4.420   5.820  0.5722 -0.3738 -0.5574
  443MOL0     H59800   4.200   4.261   5.869  2.2630 -0.1990  1.2329
  443MOL0     H59801   4.373   4.460   5.709  1.5806  0.3547  1.3220
  443MOL0     H59802   4.256   4.345   5.647  0.4863 -0.4595  0.0028
  443MOL0     H59803   4.558   4.104   5.821 -0.5511  0.4851  0.4813
  443MOL0     H59804   3.963   4.680   6.120 -2.7984  0.3547  0.6639
  443MOL0     H59805   3.798   4.720   6.286  0.5258 -0.8154 -0.4353
  444MOL0     O59806  10.368   6.191   7.020  0.3047  0.3776 -0.8616
  444MOL0     C59807  10.331   6.108   7.105 -0.6932  0.2081 -0.1828
  444MOL0     O59808  10.324   5.969   7.088  0.9641 -0.3940  0.0217
  444MOL0     C59809  10.340   5.908   6.971 -0.3084  0.0561 -0.4603
  444MOL0     C59810  10.310   5.970   6.849  0.9070  0.8027 -1.2083
  444MOL0     C59811  10.335   5.897   6.729  0.2643  0.2772 -0.5702
  444MOL0     C59812  10.373   5.761   6.735  0.4483  0.1220  1.3049
  444MOL0     O59813  10.392   5.700   6.611 -0.2355  0.3234 -0.0209
  444MOL0     C59814  10.460   5.572   6.599 -1.2491 -0.2382 -0.6894
  444MOL0     C59815  10.522   5.574   6.463 -0.3078  0.2920 -0.2194
  444MOL0     C59816  10.415   5.523   6.371 -0.5081 -0.0415  1.1450
  444MOL0     C59817  10.484   5.499   6.230 -0.3733  0.9489  0.6053
  444MOL0     C59818  10.379   5.485   6.114 -0.1976 -0.2735  0.0419
  444MOL0     C59819  10.315   5.354   6.103 -0.0614 -0.4971 -0.4399
  444MOL0     C59820  10.219   5.359   5.978 -0.1229  0.7121  0.3363
  444MOL0     C59821  10.123   5.239   5.987 -1.2004 -0.8246 -0.0450
  444MOL0     N59822  10.182   5.121   5.923 -0.1765 -0.0874 -0.2195
  444MOL0     C59823  10.285   5.048   5.965 -0.3572  0.6041 -0.4682
  444MOL0     C59824  10.308   4.948   5.873 -0.3842 -0.3747 -0.2491
  444MOL0     C59825  10.410   4.832   5.872  0.6064 -0.2013  0.1344
  444MOL0     C59826  10.536   4.884   5.799 -0.5312  1.0299 -0.2320
  444MOL0     C59827  10.509   4.907   5.655  0.1158 -0.1568  0.0958
  444MOL0     C59828  10.421   4.809   5.575  0.1074 -0.3611  0.2940
  444MOL0     O59829  10.471   4.676   5.604  0.4751 -0.3329  0.1644
  444MOL0     C59830  10.590   4.636   5.549 -0.1232  0.5648  0.0886
  444MOL0     C59831  10.634   4.516   5.587 -0.9461  0.2137  0.1580
  444MOL0     C59832  10.754   4.453   5.542 -0.1636  0.4647  0.0016
  444MOL0     C59833  10.783   4.301   5.576  0.0143  0.0828  0.4775
  444MOL0     C59834  10.833   4.529   5.458  0.2705 -0.1735  0.4109
  444MOL0     C59835  10.969   4.481   5.405  0.5651  0.3803  0.3387
  444MOL0     O59836  11.050   4.570   5.352  0.7636 -0.5605  1.3910
  444MOL0     C59837  11.185   4.557   5.370 -0.7770 -0.6912 -0.4335
  444MOL0     C59838  11.263   4.580   5.253  1.0890  0.1977 -0.0616
  444MOL0     C59839  11.396   4.583   5.256 -0.9750  0.1882 -0.7469
  444MOL0     C59840  11.458   4.574   5.386  0.0696 -0.0998  0.1668
  444MOL0     O59841  11.598   4.558   5.385 -0.6462  1.0093 -0.5213
  444MOL0     C59842  11.632   4.416   5.385 -0.6893 -0.8387 -0.1768
  444MOL0     C59843  11.688   4.385   5.529 -0.3232  1.2199  0.2084
  444MOL0     C59844  11.773   4.249   5.539 -0.5812 -1.0317 -0.0675
  444MOL0     C59845  11.700   4.115   5.503  0.0426 -1.0809 -0.3653
  444MOL0     C59846  11.607   4.056   5.616  1.0362  0.3207  0.2781
  444MOL0     C59847  11.611   3.905   5.631 -0.3574  0.4451 -0.4229
  444MOL0     C59848  11.557   3.831   5.508 -0.6924  1.1355 -1.4515
  444MOL0     C59849  11.604   3.687   5.500  1.0846  0.2782 -0.4033
  444MOL0    Cl59850  11.530   3.623   5.354  0.2348  0.6102  0.1187
  444MOL0     C59851  11.382   4.551   5.499  1.4474 -0.3286 -0.1294
  444MOL0     C59852  11.247   4.546   5.503 -1.0675  0.2118  0.4132
  444MOL0     O59853  11.000   4.365   5.420 -0.5804 -0.3840 -0.5837
  444MOL0     C59854  10.793   4.655   5.413 -0.3904 -0.8216 -0.2728
  444MOL0     C59855  10.677   4.707   5.468  0.7130 -0.1219  0.3261
  444MOL0     N59856  10.221   4.968   5.772  0.7092  0.4304 -0.8732
  444MOL0     N59857  10.137   5.060   5.806  0.3230  0.4686  0.0016
  444MOL0     C59858  10.395   5.702   6.859  0.0241 -0.3980 -0.2260
  444MOL0     C59859  10.376   5.776   6.980 -0.0243 -0.3414 -0.1095
  444MOL0     C59860  10.307   6.157   7.246  0.0594  0.4442 -0.3693
  444MOL0     C59861  10.273   6.067   7.354  0.2815  0.5874  0.1471
  444MOL0     C59862  10.250   6.115   7.485 -0.1627 -0.7691  0.2835
  444MOL0     C59863  10.250   6.251   7.502 -0.5017  0.3976  0.4218
  444MOL0     O59864  10.212   6.296   7.625 -0.2334 -0.0319  0.9700
  444MOL0     C59865  10.168   6.427   7.650 -0.5389  0.6392 -0.0373
  444MOL0     C59866  10.038   6.445   7.571 -0.7791  0.2174 -0.1568
  444MOL0     C59867   9.946   6.564   7.607 -0.0067 -0.5255  0.2849
  444MOL0     C59868   9.818   6.579   7.522  0.4030 -0.3111 -0.3475
  444MOL0     C59869   9.742   6.457   7.536 -0.0058 -0.1850  0.7048
  444MOL0     C59870   9.669   6.364   7.535  0.5378 -0.6858 -0.4578
  444MOL0     C59871  10.292   6.334   7.396  0.0454  0.4148 -0.8210
  444MOL0     C59872  10.322   6.287   7.269 -0.2144 -0.5718  0.3181
  444MOL0     H59873  10.258   6.065   6.847  0.0955  0.8839  5.2699
  444MOL0     H59874  10.297   5.952   6.644  0.8428 -0.4238 -1.2986
  444MOL0     H59875  10.546   5.575   6.667  2.3075  2.3802 -4.7753
  444MOL0     H59876  10.402   5.481   6.618 -1.4388 -0.6238 -2.8394
  444MOL0     H59877  10.566   5.671   6.438  1.5811  0.6701  3.8453
  444MOL0     H59878  10.594   5.494   6.449 -1.3250 -0.2919 -2.5568
  444MOL0     H59879  10.376   5.425   6.401 -4.6083 -0.1129 -3.2465
  444MOL0     H59880  10.323   5.582   6.363 -2.1688 -2.7070 -1.4811
  444MOL0     H59881  10.532   5.592   6.197 -1.0173  1.9937  2.4252
  444MOL0     H59882  10.560   5.421   6.228 -1.7643 -0.4180  0.0033
  444MOL0     H59883  10.299   5.558   6.125  1.4938  1.4668  1.5685
  444MOL0     H59884  10.420   5.537   6.026 -1.3267  1.3751  0.4531
  444MOL0     H59885  10.397   5.282   6.093 -0.9537 -1.1932 -5.5543
  444MOL0     H59886  10.262   5.324   6.194  0.5699 -1.0457 -0.2404
  444MOL0     H59887  10.160   5.452   5.975 -1.0625  0.1122 -2.7934
  444MOL0     H59888  10.272   5.362   5.883  0.4117  0.9906  0.6382
  444MOL0     H59889  10.025   5.268   5.948 -0.1287  0.5751 -1.8450
  444MOL0     H59890  10.104   5.205   6.089  0.4756  0.0413  0.5955
  444MOL0     H59891  10.333   5.070   6.059 -0.2205 -3.1891  0.5023
  444MOL0     H59892  10.446   4.796   5.969  1.8643  0.9340  0.1131
  444MOL0     H59893  10.361   4.754   5.812  2.0670 -0.4589 -0.7556
  444MOL0     H59894  10.619   4.815   5.815  2.2259  3.2313 -3.6706
  444MOL0     H59895  10.574   4.978   5.840 -2.1907  0.9956  1.5382
  444MOL0     H59896  10.603   4.922   5.602  0.6716 -1.0174  0.8165
  444MOL0     H59897  10.451   5.000   5.646  2.4702  1.5101  1.1512
  444MOL0     H59898  10.421   4.838   5.469 -0.1911  0.7388  0.5871
  444MOL0     H59899  10.317   4.804   5.606  0.2966  0.8810  1.1647
  444MOL0     H59900  10.564   4.459   5.648  0.9929  0.3231  2.6396
  444MOL0     H59901  10.821   4.242   5.492 -0.3932 -0.4374  0.6572
  444MOL0     H59902  10.869   4.290   5.643 -0.3750  0.0393  0.9745
  444MOL0     H59903  10.700   4.249   5.623 -0.3408  1.1584  1.0807
  444MOL0     H59904  11.209   4.600   5.161  2.8323 -0.0718 -1.1978
  444MOL0     H59905  11.463   4.589   5.170  1.0010 -0.0665  0.7101
  444MOL0     H59906  11.549   4.354   5.349 -0.7570 -0.4167 -0.7482
  444MOL0     H59907  11.716   4.399   5.318 -1.1428 -4.7988 -0.0182
  444MOL0     H59908  11.753   4.463   5.568 -0.0992  1.4255 -0.5462
  444MOL0     H59909  11.601   4.372   5.593 -1.2357  2.9868 -0.6225
  444MOL0     H59910  11.808   4.248   5.642 -1.7823  0.1691  0.3920
  444MOL0     H59911  11.862   4.267   5.478  2.8786 -1.3875  4.3981
  444MOL0     H59912  11.656   4.118   5.403  1.2870 -4.6283 -1.1510
  444MOL0     H59913  11.781   4.043   5.492 -1.4339 -3.2584  1.8848
  444MOL0     H59914  11.501   4.084   5.615  0.7474 -0.7266 -0.0151
  444MOL0     H59915  11.636   4.102   5.711  0.4912 -2.4489  1.9123
  444MOL0     H59916  11.719   3.894   5.632 -0.2197 -0.6097  4.9511
  444MOL0     H59917  11.566   3.863   5.722 -1.2849  1.9078 -0.1678
  444MOL0     H59918  11.574   3.888   5.416  2.3411  0.2977 -1.5102
  444MOL0     H59919  11.450   3.815   5.524 -0.2044 -0.1604  0.9488
  444MOL0     H59920  11.573   3.637   5.592  1.5808 -2.4410 -1.6091
  444MOL0     H59921  11.711   3.668   5.484  1.0684 -2.7789  2.2739
  444MOL0     H59922  11.430   4.536   5.595 -1.7880 -3.2797  1.2738
  444MOL0     H59923  11.195   4.527   5.596 -0.5610 -2.3083  0.2512
  444MOL0     H59924  10.851   4.714   5.342 -1.5148 -0.6272 -1.0664
  444MOL0     H59925  10.647   4.805   5.432  0.3527 -0.1682  0.4926
  444MOL0     H59926  10.424   5.597   6.860  2.4597  0.1256  3.4552
  444MOL0     H59927  10.388   5.738   7.082 -2.2237  0.4800  0.5151
  444MOL0     H59928  10.251   5.966   7.322  0.6070  1.7598 -4.6552
  444MOL0     H59929  10.222   6.048   7.565  2.0300 -0.1669  1.6274
  444MOL0     H59930  10.148   6.438   7.757  1.2373  3.1807  0.1426
  444MOL0     H59931  10.246   6.502   7.631 -0.0924  0.6446  1.6963
  444MOL0     H59932   9.986   6.348   7.566 -2.3207  1.0349 -0.6921
  444MOL0     H59933  10.069   6.467   7.469  0.4378  1.1030  0.3836
  444MOL0     H59934  10.004   6.656   7.600 -2.9536  1.6094  1.7795
  444MOL0     H59935   9.922   6.582   7.712  2.0930 -0.2696  0.7631
  444MOL0     H59936   9.831   6.602   7.416 -0.5708 -0.3499 -0.4835
  444MOL0     H59937   9.757   6.664   7.554 -2.0353 -1.2263 -2.2558
  444MOL0     H59938   9.585   6.297   7.533  1.3098 -2.0466  3.5820
  444MOL0     H59939  10.306   6.437   7.427 -0.1838 -0.1581  1.3316
  444MOL0     H59940  10.360   6.362   7.201 -2.7227 -0.7351 -1.4170
  445MOL0     O59941   8.998   0.677   6.585 -0.2418  0.0047 -0.1968
  445MOL0     C59942   8.904   0.758   6.597 -0.0837  0.2507 -0.1960
  445MOL0     O59943   8.772   0.727   6.636 -0.7373 -0.0119  0.4885
  445MOL0     C59944   8.750   0.610   6.692 -0.5130  0.1474 -0.8627
  445MOL0     C59945   8.663   0.519   6.629 -0.1240  0.0483  0.3565
  445MOL0     C59946   8.617   0.409   6.698  0.7731 -0.3819 -1.0414
  445MOL0     C59947   8.658   0.394   6.832 -0.0245  0.2432  0.8480
  445MOL0     O59948   8.619   0.278   6.889  0.3025 -0.0576 -0.4137
  445MOL0     C59949   8.631   0.257   7.036  0.1446 -0.7173  0.0075
  445MOL0     C59950   8.502   0.193   7.078 -0.7081  0.1037 -0.4254
  445MOL0     C59951   8.509   0.114   7.202 -0.8511  0.1996 -0.7134
  445MOL0     C59952   8.566   0.175   7.325  0.8586 -0.2535  0.7411
  445MOL0     C59953   8.556   0.073   7.439 -0.5470  0.0879 -0.1940
  445MOL0     C59954   8.680   0.058   7.525 -0.4882  0.1543  1.9075
  445MOL0     C59955   8.656  -0.033   7.644  0.3825 -0.2286 -0.0025
  445MOL0     C59956   8.783  -0.036   7.736 -0.0697  0.0010  1.0729
  445MOL0     N59957   8.898  -0.088   7.666  1.1254  0.8697 -0.0779
  445MOL0     C59958   9.003  -0.010   7.632 -1.0607  0.4109 -0.1363
  445MOL0     C59959   9.102  -0.096   7.618 -0.2691 -0.4034  0.2096
  445MOL0     C59960   9.250  -0.069   7.605 -0.8304  0.6499  0.3821
  445MOL0     C59961   9.320  -0.119   7.728  0.4683  0.3960 -0.0383
  445MOL0     C59962   9.286  -0.047   7.858 -1.1893  0.7890  0.0869
  445MOL0     C59963   9.341   0.096   7.856  0.0468 -0.0392 -0.0748
  445MOL0     O59964   9.298   0.170   7.972  0.2188  0.5387  0.2520
  445MOL0     C59965   9.164   0.207   7.976  0.2641  0.2628 -0.5867
  445MOL0     C59966   9.072   0.257   7.875  0.5044  0.7413 -0.6919
  445MOL0     C59967   8.943   0.297   7.906 -0.3308 -1.0796  0.7790
  445MOL0     C59968   8.878   0.368   7.787  0.5113  0.4861  0.7021
  445MOL0     C59969   8.888   0.283   8.033  0.3572 -0.7998 -0.7712
  445MOL0     C59970   8.746   0.299   8.069 -0.0856  0.2523 -0.1432
  445MOL0     O59971   8.713   0.328   8.195 -0.0344  1.1528 -0.5900
  445MOL0     C59972   8.589   0.308   8.247  0.4910 -1.1122  0.2816
  445MOL0     C59973   8.558   0.374   8.370  0.1964  0.4423 -0.7660
  445MOL0     C59974   8.431   0.348   8.419  0.0770 -0.8556 -0.6790
  445MOL0     C59975   8.342   0.261   8.366 -0.1330 -0.4141  0.4268
  445MOL0     O59976   8.223   0.226   8.425 -0.0426 -0.1032  0.0434
  445MOL0     C59977   8.204   0.095   8.470 -0.3691 -1.0763  0.8668
  445MOL0     C59978   8.080   0.084   8.563  0.3933  0.5816 -0.2426
  445MOL0     C59979   7.952   0.161   8.493  0.4155 -0.5289  0.1584
  445MOL0     C59980   7.829   0.131   8.570 -0.1349  0.3916 -0.5902
  445MOL0     C59981   7.697   0.194   8.511 -0.6853  0.2565 -0.0216
  445MOL0     C59982   7.692   0.348   8.500  0.2026  0.5472 -0.1357
  445MOL0     C59983   7.625   0.399   8.631 -0.8084 -1.2066 -0.1184
  445MOL0     C59984   7.700   0.379   8.759 -0.5450  0.2148 -0.7215
  445MOL0    Cl59985   7.648   0.503   8.873 -0.3437 -0.0416 -0.4860
  445MOL0     C59986   8.373   0.197   8.247  0.0785 -0.4830  0.2118
  445MOL0     C59987   8.497   0.223   8.192  0.3083 -0.7002  0.6909
  445MOL0     O59988   8.669   0.278   7.973  0.9922 -0.7042 -1.3474
  445MOL0     C59989   8.981   0.238   8.126 -1.1248 -0.0604  0.3114
  445MOL0     C59990   9.107   0.205   8.098 -0.4095  1.0783 -0.0372
  445MOL0     N59991   9.057  -0.218   7.650  0.3223  0.4614 -0.8870
  445MOL0     N59992   8.929  -0.217   7.669  0.2142  0.9470  0.0343
  445MOL0     C59993   8.746   0.488   6.896 -0.6665 -0.5702 -0.3014
  445MOL0     C59994   8.795   0.598   6.820 -0.0204 -0.0729 -0.3484
  445MOL0     C59995   8.928   0.900   6.561 -0.1010 -0.2293  0.6398
  445MOL0     C59996   8.824   0.986   6.516 -0.2280  0.1753 -0.5618
  445MOL0     C59997   8.836   1.112   6.465  0.1162 -0.0499  0.2567
  445MOL0     C59998   8.964   1.170   6.462 -0.3812  0.0620  0.4724
  445MOL0     O59999   8.990   1.293   6.407 -0.2398  1.0171  0.4042
  445MOL0     C60000   8.895   1.374   6.331  1.0454 -0.6449  0.9641
  445MOL0     C60001   8.965   1.514   6.303  0.8667  0.3697 -0.0179
  445MOL0     C60002   9.005   1.581   6.439  0.5495  0.2822  0.1372
  445MOL0     C60003   9.024   1.734   6.405 -0.2074  0.0551  0.2229
  445MOL0     C60004   9.072   1.810   6.517 -0.5780 -0.6657 -0.0567
  445MOL0     C60005   9.115   1.898   6.589  0.3458 -0.2880 -0.2316
  445MOL0     C60006   9.071   1.095   6.511  0.4219  0.3013  0.2062
  445MOL0     C60007   9.053   0.960   6.547 -0.4989 -0.7580 -1.2343
  445MOL0     H60008   8.624   0.549   6.533 -1.4736  0.4179  0.9890
  445MOL0     H60009   8.551   0.347   6.638 -0.3882 -1.0790  0.8611
  445MOL0     H60010   8.721   0.203   7.067  0.0045 -0.1594  1.4845
  445MOL0     H60011   8.627   0.356   7.082  1.7948  0.2445 -1.8326
  445MOL0     H60012   8.429   0.272   7.097  1.0708  1.3805  1.5293
  445MOL0     H60013   8.460   0.130   6.999  0.7461 -2.8716  1.0389
  445MOL0     H60014   8.409   0.078   7.229 -0.0851 -1.8179 -0.3408
  445MOL0     H60015   8.571   0.027   7.178 -0.0836  0.7080 -0.6033
  445MOL0     H60016   8.672   0.197   7.309  0.5383  1.3571  0.6463
  445MOL0     H60017   8.514   0.264   7.362 -2.2310 -2.3396  1.8074
  445MOL0     H60018   8.474   0.090   7.511  1.5040 -1.2044  2.6346
  445MOL0     H60019   8.546  -0.023   7.388  2.5853 -0.6984  0.5022
  445MOL0     H60020   8.758   0.007   7.467  1.1307  1.8830  2.4944
  445MOL0     H60021   8.706   0.157   7.563 -2.4450  0.4393  2.6114
  445MOL0     H60022   8.582   0.015   7.708  0.1649  3.3721 -2.6045
  445MOL0     H60023   8.605  -0.126   7.618 -1.7773  0.7159  0.6877
  445MOL0     H60024   8.762  -0.096   7.825  2.2163 -2.0227  0.3658
  445MOL0     H60025   8.801   0.067   7.768  0.4485  0.3906 -0.3786
  445MOL0     H60026   9.023   0.096   7.631  3.5687 -0.2811 -2.3455
  445MOL0     H60027   9.288  -0.137   7.528  1.9313  2.2874  0.1349
  445MOL0     H60028   9.287   0.033   7.588 -0.1435  0.2489 -0.6119
  445MOL0     H60029   9.426  -0.124   7.701  0.0711 -0.6741 -1.5892
  445MOL0     H60030   9.297  -0.225   7.741  0.3837  0.6538  2.1537
  445MOL0     H60031   9.340  -0.093   7.941  0.8299  0.7070 -1.2124
  445MOL0     H60032   9.179  -0.038   7.882 -0.7929 -0.3174  2.6667
  445MOL0     H60033   9.317   0.149   7.763 -2.1446 -0.4015  0.2299
  445MOL0     H60034   9.449   0.096   7.868 -0.1367  0.8936  1.9883
  445MOL0     H60035   9.105   0.267   7.772  1.3466 -1.1420 -0.6473
  445MOL0     H60036   8.813   0.303   7.727  0.2012  2.0586 -0.7245
  445MOL0     H60037   8.812   0.450   7.815 -0.8958 -0.0131 -0.9875
  445MOL0     H60038   8.950   0.396   7.709  0.1979 -0.8301 -0.0980
  445MOL0     H60039   8.627   0.441   8.418  3.4683 -2.8576 -0.4108
  445MOL0     H60040   8.398   0.403   8.507  0.6137 -0.9547 -0.4088
  445MOL0     H60041   8.199   0.030   8.383  0.3530  0.4804 -0.3957
  445MOL0     H60042   8.294   0.071   8.527 -0.3809 -0.2474  1.2562
  445MOL0     H60043   8.036  -0.015   8.581 -0.1443  0.9133  0.2759
  445MOL0     H60044   8.100   0.122   8.663 -1.2400  1.3985 -0.1982
  445MOL0     H60045   7.960   0.119   8.393  0.7954  0.8001 -0.3853
  445MOL0     H60046   7.971   0.268   8.480 -0.2860 -0.4100  0.0527
  445MOL0     H60047   7.825   0.023   8.588  1.6113  0.7887  3.3554
  445MOL0     H60048   7.847   0.160   8.674 -3.5099 -2.0947  0.8815
  445MOL0     H60049   7.609   0.155   8.562 -3.3474 -0.0563 -4.3737
  445MOL0     H60050   7.689   0.161   8.407 -0.1392 -1.3921  0.4179
  445MOL0     H60051   7.790   0.396   8.487  0.5714  0.0999  0.8885
  445MOL0     H60052   7.630   0.372   8.413 -1.0297  4.0320  1.5445
  445MOL0     H60053   7.520   0.370   8.639 -1.6209  0.9567 -2.0726
  445MOL0     H60054   7.617   0.507   8.613 -2.0830 -1.4324 -0.9763
  445MOL0     H60055   7.808   0.392   8.748 -0.7245  2.5425 -0.2814
  445MOL0     H60056   7.681   0.279   8.798 -1.0495 -0.8967 -3.5683
  445MOL0     H60057   8.300   0.129   8.204  1.2764 -3.6338  2.7233
  445MOL0     H60058   8.518   0.173   8.097 -0.8373 -0.2998  0.2132
  445MOL0     H60059   8.965   0.231   8.233 -0.7031 -1.1256  0.3174
  445MOL0     H60060   9.174   0.160   8.171  1.5991  0.2775 -2.2373
  445MOL0     H60061   8.777   0.474   6.999  0.3207  3.4089  0.1133
  445MOL0     H60062   8.855   0.673   6.870 -0.2621 -0.9325  1.3090
  445MOL0     H60063   8.726   0.939   6.514  0.2601 -0.9764 -3.9456
  445MOL0     H60064   8.761   1.172   6.415  0.2205 -0.3172 -0.2245
  445MOL0     H60065   8.857   1.320   6.244  0.9436 -2.2420  1.9656
  445MOL0     H60066   8.809   1.391   6.397  1.0448  1.4043  0.5117
  445MOL0     H60067   8.900   1.578   6.242 -0.9601 -0.8145  0.6098
  445MOL0     H60068   9.059   1.490   6.254  1.8802  1.7299  1.1750
  445MOL0     H60069   9.104   1.551   6.475  1.6840  2.9371 -0.5124
  445MOL0     H60070   8.926   1.565   6.513 -1.7108  1.8559 -1.7678
  445MOL0     H60071   8.929   1.775   6.367  1.2948  1.4875 -2.2366
  445MOL0     H60072   9.095   1.737   6.322  1.7704  1.9320  1.8704
  445MOL0     H60073   9.145   1.986   6.642  1.2151 -1.1801  0.8056
  445MOL0     H60074   9.166   1.143   6.533  0.0308  0.3907  1.8327
  445MOL0     H60075   9.142   0.904   6.574 -0.8074  0.5956  3.4739
  446MOL0     O60076   5.498   4.582   6.939  0.5754  0.1418  0.6692
  446MOL0     C60077   5.446   4.508   7.024 -0.0483 -1.1692  0.0701
  446MOL0     O60078   5.351   4.416   6.994 -0.0378 -0.4813 -0.5203
  446MOL0     C60079   5.303   4.410   6.868  0.3528 -0.1246  0.2983
  446MOL0     C60080   5.313   4.291   6.796 -0.0042  0.3263  0.6810
  446MOL0     C60081   5.265   4.274   6.668 -0.6944 -0.3685  0.2281
  446MOL0     C60082   5.192   4.376   6.604 -0.5307  0.5082 -0.7596
  446MOL0     O60083   5.139   4.353   6.475 -0.2351  1.1886 -0.0030
  446MOL0     C60084   5.105   4.476   6.401  0.2380 -0.1641  0.5827
  446MOL0     C60085   5.098   4.463   6.249  0.1265  0.2027 -0.1538
  446MOL0     C60086   5.240   4.446   6.186 -0.8259  0.4877 -0.0774
  446MOL0     C60087   5.212   4.419   6.033  0.7027 -1.2808 -0.1021
  446MOL0     C60088   5.337   4.364   5.963  0.2594  0.1382  0.1512
  446MOL0     C60089   5.386   4.446   5.841 -0.1240 -0.6678  1.1828
  446MOL0     C60090   5.507   4.404   5.769  1.4253 -0.4683 -0.0201
  446MOL0     C60091   5.585   4.525   5.715  0.0178  0.0802  0.0152
  446MOL0     N60092   5.721   4.485   5.646  0.5825 -0.2255 -0.4905
  446MOL0     C60093   5.824   4.417   5.705  0.0041 -0.0486  2.1506
  446MOL0     C60094   5.899   4.385   5.589  0.9742  0.2216  0.0764
  446MOL0     C60095   6.022   4.295   5.584  0.1270  0.3035 -0.2240
  446MOL0     C60096   5.976   4.145   5.587  0.5331 -0.5258  0.0970
  446MOL0     C60097   5.890   4.105   5.715  0.2896  0.8980 -0.1881
  446MOL0     C60098   5.895   3.949   5.744  0.1680 -0.1561  0.3020
  446MOL0     O60099   5.794   3.875   5.667  0.0257 -0.4163  0.1929
  446MOL0     C60100   5.795   3.869   5.531  0.4331  0.8901  0.3745
  446MOL0     C60101   5.913   3.860   5.466 -0.6014  0.0105  0.3803
  446MOL0     C60102   5.911   3.850   5.323 -0.0628  0.1376 -0.2446
  446MOL0     C60103   6.046   3.806   5.271 -0.0588 -0.4788  0.7235
  446MOL0     C60104   5.793   3.865   5.249 -1.0241  0.2926 -0.2912
  446MOL0     C60105   5.780   3.875   5.104 -0.2099  0.3143  0.0354
  446MOL0     O60106   5.652   3.910   5.052  0.7134  0.7351  0.0970
  446MOL0     C60107   5.638   3.907   4.908  0.6905  0.1010 -0.2092
  446MOL0     C60108   5.697   3.816   4.816 -0.3843 -0.5068 -0.7354
  446MOL0     C60109   5.650   3.808   4.687  0.0215 -0.1075 -0.0743
  446MOL0     C60110   5.590   3.923   4.632 -0.2880 -0.0059  0.4650
  446MOL0     O60111   5.547   3.943   4.497  0.7019 -0.1092 -0.5146
  446MOL0     C60112   5.591   3.857   4.401 -0.0700  0.2443 -0.4524
  446MOL0     C60113   5.562   3.932   4.262 -0.7951  0.3568  0.3687
  446MOL0     C60114   5.604   3.861   4.138 -0.1696  0.0771 -1.2273
  446MOL0     C60115   5.562   3.947   4.016 -0.0447  0.7188  0.5867
  446MOL0     C60116   5.609   3.880   3.884  0.5880 -0.5039 -0.6900
  446MOL0     C60117   5.540   3.740   3.862  0.3443  0.3882  0.4721
  446MOL0     C60118   5.528   3.689   3.716 -0.0484 -0.0124  0.5715
  446MOL0     C60119   5.505   3.798   3.609  0.2290 -0.4833 -0.3857
  446MOL0    Cl60120   5.501   3.734   3.439 -0.2730 -0.1003  0.3189
  446MOL0     C60121   5.548   4.016   4.714  0.6490  0.2580 -0.1244
  446MOL0     C60122   5.573   4.013   4.857  0.0710 -0.4086  0.6982
  446MOL0     O60123   5.884   3.857   5.034  0.7106 -0.0141 -0.8445
  446MOL0     C60124   5.675   3.861   5.316 -0.0289  0.1462 -0.1550
  446MOL0     C60125   5.680   3.862   5.458  0.5327 -0.2153  0.0844
  446MOL0     N60126   5.838   4.424   5.474  0.0293 -0.0758  0.0118
  446MOL0     N60127   5.730   4.484   5.514  0.0323 -0.8717  1.0454
  446MOL0     C60128   5.155   4.487   6.678 -0.4589 -0.1897  0.5521
  446MOL0     C60129   5.225   4.503   6.802  0.1518 -0.4466 -0.5909
  446MOL0     C60130   5.485   4.514   7.168 -0.6939  0.4314 -0.0037
  446MOL0     C60131   5.438   4.416   7.264  0.0655  1.4989  0.3199
  446MOL0     C60132   5.474   4.428   7.399 -0.8366  0.1175  0.1279
  446MOL0     C60133   5.550   4.534   7.446  0.4356  0.7436 -0.3728
  446MOL0     O60134   5.567   4.552   7.583  0.0509 -0.1182  0.7404
  446MOL0     C60135   5.674   4.461   7.635  0.8128 -0.2935  0.7301
  446MOL0     C60136   5.772   4.556   7.710  0.2303  0.4705 -0.7301
  446MOL0     C60137   5.712   4.635   7.830 -0.1018 -0.0346 -0.1869
  446MOL0     C60138   5.796   4.750   7.884 -0.1047 -0.1474  0.9177
  446MOL0     C60139   5.919   4.675   7.932  0.6334 -0.9806  0.7866
  446MOL0     C60140   6.027   4.634   7.958 -0.1745 -0.5639 -1.0356
  446MOL0     C60141   5.602   4.622   7.354  0.6681  0.3384  0.0729
  446MOL0     C60142   5.575   4.610   7.216 -0.8022 -0.3634  0.7555
  446MOL0     H60143   5.365   4.208   6.842 -1.4655 -0.5144  0.8637
  446MOL0     H60144   5.284   4.181   6.615 -1.5029 -0.3585 -0.1031
  446MOL0     H60145   5.002   4.502   6.427 -0.6436 -1.8406 -1.0264
  446MOL0     H60146   5.163   4.563   6.433  0.0590  0.0691  0.2799
  446MOL0     H60147   5.021   4.389   6.226  1.5573 -2.0228  1.6421
  446MOL0     H60148   5.060   4.560   6.218  1.6363  0.3027 -1.8078
  446MOL0     H60149   5.307   4.533   6.195  1.4347 -0.9600 -1.7865
  446MOL0     H60150   5.290   4.357   6.224  1.6225  1.5949 -0.4852
  446MOL0     H60151   5.132   4.346   6.018  1.1400 -1.6183 -0.8673
  446MOL0     H60152   5.176   4.509   5.983 -0.7172 -1.7162  0.0985
  446MOL0     H60153   5.420   4.358   6.033  1.3412 -3.0399 -1.2123
  446MOL0     H60154   5.320   4.257   5.945  2.5354 -1.2723  4.8329
  446MOL0     H60155   5.299   4.440   5.775  2.3105  1.9139 -2.6421
  446MOL0     H60156   5.387   4.548   5.882 -1.5184  0.2327 -0.8573
  446MOL0     H60157   5.575   4.349   5.836  0.1482 -4.1984 -1.5270
  446MOL0     H60158   5.486   4.332   5.689  3.5245  0.0187 -1.1049
  446MOL0     H60159   5.595   4.585   5.806 -4.3028  0.1684  0.6682
  446MOL0     H60160   5.515   4.578   5.650 -2.6861 -0.9337  1.9026
  446MOL0     H60161   5.843   4.400   5.811  0.6739 -1.5814  1.8164
  446MOL0     H60162   6.097   4.315   5.507  0.6804 -0.3826  0.1353
  446MOL0     H60163   6.064   4.304   5.684  0.8282 -1.8136 -0.2816
  446MOL0     H60164   6.068   4.087   5.579  0.4278 -0.5921 -0.7255
  446MOL0     H60165   5.913   4.131   5.499 -2.6223 -3.2770  2.4967
  446MOL0     H60166   5.784   4.131   5.707  0.1941  0.4416 -0.4400
  446MOL0     H60167   5.925   4.152   5.808  0.3091 -0.7199  0.6631
  446MOL0     H60168   5.862   3.940   5.848  2.8384 -2.6457  1.0992
  446MOL0     H60169   5.998   3.916   5.724  2.2166  5.8416 -1.0757
  446MOL0     H60170   6.009   3.867   5.516 -0.5847  2.1022  0.1423
  446MOL0     H60171   6.120   3.769   5.342  2.1024  2.1520  0.0317
  446MOL0     H60172   6.034   3.739   5.186  2.2876 -1.8891  1.4264
  446MOL0     H60173   6.088   3.897   5.227 -0.1092 -1.2058 -0.8939
  446MOL0     H60174   5.758   3.737   4.859 -1.6364 -0.7678  0.6584
  446MOL0     H60175   5.680   3.725   4.624  1.0959  0.3218 -0.1573
  446MOL0     H60176   5.698   3.840   4.418 -0.1858  0.8224  1.0110
  446MOL0     H60177   5.543   3.759   4.410 -0.6191  0.5266 -0.2606
  446MOL0     H60178   5.460   3.970   4.247 -0.1682  1.2018 -2.2283
  446MOL0     H60179   5.629   4.017   4.274 -0.9349  0.4554  0.4575
  446MOL0     H60180   5.553   3.764   4.146 -0.0197  0.0320 -0.7797
  446MOL0     H60181   5.713   3.854   4.136  0.2237  3.1750  1.4063
  446MOL0     H60182   5.452   3.947   4.018 -0.1695 -1.2793 -1.8945
  446MOL0     H60183   5.611   4.045   4.022  2.0373 -0.0289 -2.0878
  446MOL0     H60184   5.716   3.873   3.904  0.8198 -1.8007 -2.1786
  446MOL0     H60185   5.592   3.948   3.800  0.6254 -2.0013 -1.9544
  446MOL0     H60186   5.595   3.669   3.924  2.2122 -0.2279 -1.7477
  446MOL0     H60187   5.434   3.753   3.888  0.3261 -2.5740  2.4269
  446MOL0     H60188   5.448   3.615   3.709 -1.4147  1.4294  0.2209
  446MOL0     H60189   5.627   3.646   3.702 -0.4280 -0.3243 -1.4578
  446MOL0     H60190   5.585   3.872   3.619  2.0284 -2.0695 -2.1512
  446MOL0     H60191   5.408   3.847   3.619  0.9063  0.8477  0.0081
  446MOL0     H60192   5.499   4.104   4.674  3.0149  0.8310 -1.9514
  446MOL0     H60193   5.534   4.093   4.919 -2.3476 -0.2172 -0.9093
  446MOL0     H60194   5.583   3.863   5.259  0.3677 -0.5412 -0.8346
  446MOL0     H60195   5.585   3.871   5.510  0.1186  0.4147 -0.7518
  446MOL0     H60196   5.085   4.570   6.667 -0.8719  0.0558  4.0073
  446MOL0     H60197   5.215   4.602   6.846  1.0243 -0.8986  0.6941
  446MOL0     H60198   5.383   4.329   7.230  0.1647  1.3809  0.4612
  446MOL0     H60199   5.450   4.351   7.472 -3.0680 -0.7483 -1.3922
  446MOL0     H60200   5.629   4.389   7.703 -1.0412  0.0483 -0.0529
  446MOL0     H60201   5.736   4.419   7.555  2.2907  2.3998  0.3325
  446MOL0     H60202   5.818   4.618   7.633 -3.4590  1.9918 -1.9495
  446MOL0     H60203   5.839   4.482   7.755 -1.2375 -2.0400 -2.4118
  446MOL0     H60204   5.686   4.565   7.910  2.5275 -1.3412 -0.3794
  446MOL0     H60205   5.619   4.687   7.804 -0.4884 -1.5434 -2.0887
  446MOL0     H60206   5.742   4.795   7.968 -1.1314  0.8105 -0.2087
  446MOL0     H60207   5.812   4.820   7.802  1.2797 -0.2495  1.0843
  446MOL0     H60208   6.124   4.602   7.989 -0.5303  1.8326  3.5549
  446MOL0     H60209   5.665   4.698   7.399  0.8234 -2.1818  4.7465
  446MOL0     H60210   5.620   4.673   7.140 -0.0515 -2.3951 -0.5772
  447MOL0     O60211   1.346   2.133   9.017 -0.0235  0.0620 -0.4846
  447MOL0     C60212   1.277   2.116   9.121 -0.1896  0.2153  0.1380
  447MOL0     O60213   1.276   2.001   9.202  0.1238  0.5573 -0.5027
  447MOL0     C60214   1.364   1.890   9.172  0.5897 -0.2871  0.7685
  447MOL0     C60215   1.487   1.878   9.233  0.8394 -0.0237  0.8492
  447MOL0     C60216   1.563   1.763   9.218  1.1896  0.3460 -0.1586
  447MOL0     C60217   1.515   1.654   9.137  0.3824  0.7475  0.0598
  447MOL0     O60218   1.602   1.547   9.160  0.2934 -0.3883  0.0886
  447MOL0     C60219   1.649   1.469   9.048  0.0161  0.2774  1.1116
  447MOL0     C60220   1.794   1.440   9.067 -0.4685 -0.0688 -0.4353
  447MOL0     C60221   1.828   1.308   9.123  0.3168 -0.0588 -0.3331
  447MOL0     C60222   1.983   1.288   9.153 -0.5235 -0.5967  1.1767
  447MOL0     C60223   2.007   1.178   9.251 -0.4188  0.1251  0.9164
  447MOL0     C60224   2.157   1.175   9.278  0.7420 -0.8793 -0.4857
  447MOL0     C60225   2.201   1.039   9.338 -0.9738 -0.0840  0.3006
  447MOL0     C60226   2.363   1.030   9.320  0.4772 -0.4294  0.4298
  447MOL0     N60227   2.405   0.891   9.359  0.4924 -0.4198 -0.6404
  447MOL0     C60228   2.530   0.849   9.357 -0.2835 -0.0297 -0.0750
  447MOL0     C60229   2.534   0.734   9.419 -0.6057 -1.4899 -0.7040
  447MOL0     C60230   2.645   0.643   9.453 -0.0700  0.1114  0.0712
  447MOL0     C60231   2.774   0.723   9.496  0.0627 -0.6321  0.1534
  447MOL0     C60232   2.742   0.812   9.620 -1.3246  0.4463 -0.1559
  447MOL0     C60233   2.694   0.738   9.744 -0.4404  0.1222 -0.0310
  447MOL0     O60234   2.549   0.721   9.744 -0.0429  0.3624 -0.0462
  447MOL0     C60235   2.481   0.659   9.847  0.6345 -0.4350  0.6351
  447MOL0     C60236   2.341   0.640   9.830 -0.4029 -0.1502 -0.6726
  447MOL0     C60237   2.263   0.580   9.926  0.3681 -0.9262 -1.5592
  447MOL0     C60238   2.116   0.585   9.915  0.4568 -1.6547  0.3927
  447MOL0     C60239   2.324   0.530  10.048 -0.3098  0.5488 -0.7500
  447MOL0     C60240   2.251   0.470  10.172 -0.6988  0.2423  0.0692
  447MOL0     O60241   2.326   0.456  10.288 -0.3028  0.2812  0.7978
  447MOL0     C60242   2.266   0.385  10.393 -0.2156  0.1022 -0.2150
  447MOL0     C60243   2.271   0.248  10.415  0.0620 -0.7648  0.5095
  447MOL0     C60244   2.193   0.193  10.511  0.0871 -0.3005 -0.1361
  447MOL0     C60245   2.124   0.274  10.602  0.6655  0.7420 -0.1706
  447MOL0     O60246   2.038   0.222  10.700  0.1674 -0.2315 -0.1598
  447MOL0     C60247   2.008   0.074  10.683  0.5794 -0.6228  0.1681
  447MOL0     C60248   1.917   0.022  10.784 -0.1680 -0.5658  0.1861
  447MOL0     C60249   1.777   0.087  10.762  0.4343  0.1014  0.1654
  447MOL0     C60250   1.696   0.059  10.897 -0.9137 -0.8465 -0.0213
  447MOL0     C60251   1.549   0.050  10.864  0.2646  0.1606 -0.1160
  447MOL0     C60252   1.463   0.042  10.992 -0.4365 -0.8051 -0.1345
  447MOL0     C60253   1.428  -0.095  11.054  0.5139  0.3448 -1.0154
  447MOL0     C60254   1.346  -0.078  11.187  0.1410  0.0553 -0.0786
  447MOL0    Cl60255   1.181  -0.034  11.138  0.1413 -0.3158 -0.4787
  447MOL0     C60256   2.121   0.414  10.589  0.2046  0.0495  0.9065
  447MOL0     C60257   2.199   0.468  10.484  0.0963  0.7446  0.5431
  447MOL0     O60258   2.136   0.431  10.164 -0.1780  0.0895 -0.5880
  447MOL0     C60259   2.469   0.550  10.069  0.1907 -0.1753  0.8063
  447MOL0     C60260   2.544   0.611   9.973  0.2700  0.1121  0.3140
  447MOL0     N60261   2.414   0.693   9.460  0.0549 -0.6498  0.3315
  447MOL0     N60262   2.332   0.790   9.411  1.3059  0.8583 -0.6887
  447MOL0     C60263   1.388   1.664   9.076  0.4177  0.9893  1.1681
  447MOL0     C60264   1.315   1.783   9.089  0.1137 -0.2099  0.5780
  447MOL0     C60265   1.179   2.228   9.162 -0.0391  0.1196  0.1215
  447MOL0     C60266   1.072   2.211   9.253  0.3917  0.3464 -0.1890
  447MOL0     C60267   0.986   2.310   9.291 -0.1377  0.3249 -0.0183
  447MOL0     C60268   0.990   2.436   9.229 -0.1073 -0.9380  0.3726
  447MOL0     O60269   0.914   2.545   9.273  0.8389  0.6238 -0.5815
  447MOL0     C60270   0.953   2.574   9.410 -0.2683  0.2967 -0.2331
  447MOL0     C60271   0.860   2.685   9.470 -0.6391  0.2777  0.0143
  447MOL0     C60272   0.728   2.608   9.523  0.6483  0.5529  0.6489
  447MOL0     C60273   0.617   2.708   9.557 -2.0191  0.2160  0.2404
  447MOL0     C60274   0.562   2.769   9.435  0.2532  0.6904  0.6507
  447MOL0     C60275   0.513   2.812   9.327  0.2057 -0.3884  0.6714
  447MOL0     C60276   1.086   2.456   9.131 -0.6442  0.6676 -0.3010
  447MOL0     C60277   1.179   2.352   9.096  0.9775 -0.2101  0.1959
  447MOL0     H60278   1.522   1.953   9.304  2.8978  0.9262 -1.0383
  447MOL0     H60279   1.648   1.753   9.284 -0.9948  0.8353  2.9259
  447MOL0     H60280   1.578   1.386   9.040  1.0973 -0.6476  0.9225
  447MOL0     H60281   1.644   1.529   8.957 -1.3984 -0.6366  0.5490
  447MOL0     H60282   1.843   1.446   8.969 -0.4430 -2.6938 -0.6654
  447MOL0     H60283   1.842   1.516   9.130 -0.0033 -1.3194  0.7527
  447MOL0     H60284   1.773   1.294   9.217  0.1368  2.2304 -0.0436
  447MOL0     H60285   1.793   1.227   9.058  1.3431 -3.4250  2.9441
  447MOL0     H60286   2.031   1.275   9.056  0.1325  1.5204  1.1557
  447MOL0     H60287   2.021   1.382   9.194  0.4341 -0.1397 -0.6433
  447MOL0     H60288   1.957   1.190   9.348  0.9801  1.6900  1.4894
  447MOL0     H60289   1.969   1.091   9.197 -1.7555  1.0291  0.3424
  447MOL0     H60290   2.211   1.189   9.184  2.1494  1.0084  0.5169
  447MOL0     H60291   2.193   1.255   9.344  0.6876 -0.6155 -0.7732
  447MOL0     H60292   2.181   1.041   9.446 -1.8486  1.6055  0.1331
  447MOL0     H60293   2.149   0.954   9.292  1.4456 -0.5650 -1.7649
  447MOL0     H60294   2.415   1.101   9.385  1.3482 -0.1944 -0.5003
  447MOL0     H60295   2.402   1.046   9.219 -1.6608  0.7277 -0.2892
  447MOL0     H60296   2.611   0.900   9.306 -1.6927  0.8193 -1.5549
  447MOL0     H60297   2.603   0.576   9.529 -2.5494 -0.6760 -1.8410
  447MOL0     H60298   2.658   0.575   9.368 -1.7117  1.8166 -1.6428
  447MOL0     H60299   2.810   0.791   9.418  0.0439  0.0355  0.7133
  447MOL0     H60300   2.851   0.651   9.526  0.2872  0.0864  1.3599
  447MOL0     H60301   2.675   0.896   9.595 -0.7067  1.0401  0.1418
  447MOL0     H60302   2.837   0.862   9.644 -0.1774 -1.0330 -1.4381
  447MOL0     H60303   2.717   0.796   9.834 -0.9964 -1.1953  1.0067
  447MOL0     H60304   2.742   0.641   9.760  1.1150  1.0060  0.8303
  447MOL0     H60305   2.289   0.670   9.739  1.2969  0.7563 -1.3898
  447MOL0     H60306   2.070   0.496   9.959 -0.8736 -0.5740  1.2712
  447MOL0     H60307   2.057   0.665   9.959 -0.5188 -1.2289 -1.5650
  447MOL0     H60308   2.092   0.574   9.809 -0.5916  1.4253  0.2355
  447MOL0     H60309   2.323   0.186  10.342 -0.4367 -1.6599  0.9045
  447MOL0     H60310   2.189   0.085  10.499 -0.1626 -0.2222 -0.8280
  447MOL0     H60311   1.953   0.046  10.593 -0.8526 -0.8645  1.0916
  447MOL0     H60312   2.104   0.022  10.691  0.1793 -1.9156 -2.2991
  447MOL0     H60313   1.907  -0.086  10.770  0.2939 -0.6558  0.5300
  447MOL0     H60314   1.947   0.045  10.887 -2.4873  2.4230  0.3217
  447MOL0     H60315   1.736   0.030  10.679  0.6373  1.7832 -1.1425
  447MOL0     H60316   1.769   0.193  10.736 -1.6093 -0.3247 -1.1095
  447MOL0     H60317   1.718  -0.035  10.949 -2.0791 -0.4846  1.1917
  447MOL0     H60318   1.720   0.136  10.971  4.0855 -1.9212 -0.1937
  447MOL0     H60319   1.519  -0.024  10.789 -3.1309  2.9432 -1.8528
  447MOL0     H60320   1.534   0.151  10.825  2.5804  0.4613 -0.3286
  447MOL0     H60321   1.524   0.099  11.063 -1.0796 -1.0325  0.6194
  447MOL0     H60322   1.369   0.096  10.972  0.2462  0.2894 -0.4692
  447MOL0     H60323   1.522  -0.136  11.092 -1.8321 -2.2406  2.7951
  447MOL0     H60324   1.383  -0.163  10.981  1.0582 -1.1261 -0.0336
  447MOL0     H60325   1.393   0.001  11.247  0.5553  0.4778 -0.9384
  447MOL0     H60326   1.358  -0.169  11.247  0.6010 -0.2504 -0.6140
  447MOL0     H60327   2.056   0.465  10.660  1.0982  1.0041  1.0621
  447MOL0     H60328   2.187   0.570  10.447  0.7209  0.0717 -1.6623
  447MOL0     H60329   2.509   0.520  10.166 -3.1730  3.2376  3.5813
  447MOL0     H60330   2.651   0.606   9.989  0.3719 -2.9422 -0.7928
  447MOL0     H60331   1.358   1.585   9.008  2.8741  2.4765 -1.9190
  447MOL0     H60332   1.222   1.798   9.034  1.6321 -2.1485 -2.7942
  447MOL0     H60333   1.082   2.119   9.310 -1.2766 -0.3914 -1.0318
  447MOL0     H60334   0.920   2.302   9.377  1.9656  1.1002  1.7746
  447MOL0     H60335   0.968   2.490   9.479 -1.8683  1.7899  2.0900
  447MOL0     H60336   1.057   2.605   9.412 -0.3375  1.3380  5.3943
  447MOL0     H60337   0.847   2.769   9.402 -1.8274  0.0425 -0.0690
  447MOL0     H60338   0.905   2.726   9.561 -1.0361 -0.9662  0.8004
  447MOL0     H60339   0.754   2.539   9.603 -0.1173 -2.6291 -1.6587
  447MOL0     H60340   0.693   2.540   9.445  1.8003 -0.1188  0.6903
  447MOL0     H60341   0.682   2.780   9.607  1.7871 -1.5835 -1.6793
  447MOL0     H60342   0.548   2.678   9.636  2.0548 -1.0487  3.7338
  447MOL0     H60343   0.463   2.828   9.233 -1.8995  0.4338  1.8662
  447MOL0     H60344   1.109   2.550   9.082  3.8370 -0.2292 -0.3434
  447MOL0     H60345   1.258   2.373   9.025 -3.1871  1.2189 -4.5407
  448MOL0     O60346  10.325  10.480   5.409 -1.0409 -0.0617 -0.9425
  448MOL0     C60347  10.204  10.482   5.392  0.8435 -0.3964 -0.0128
  448MOL0     O60348  10.112  10.402   5.449  0.6356 -0.3749 -0.5020
  448MOL0     C60349  10.155  10.326   5.561 -0.7363  0.5157 -0.3709
  448MOL0     C60350  10.240  10.388   5.663 -0.1448 -0.0532 -0.0143
  448MOL0     C60351  10.264  10.329   5.783  0.1771 -0.6155 -0.4413
  448MOL0     C60352  10.214  10.196   5.799  0.2234  0.4513  0.3433
  448MOL0     O60353  10.218  10.150   5.926 -0.8214 -0.1850 -0.4649
  448MOL0     C60354  10.157  10.022   5.952  0.3437 -0.4654  0.1254
  448MOL0     C60355  10.209   9.973   6.090 -0.9707  0.3989  0.0957
  448MOL0     C60356  10.198  10.080   6.203  0.1509 -0.4674 -0.4136
  448MOL0     C60357  10.257  10.037   6.350  0.6561  0.7817 -0.2965
  448MOL0     C60358  10.220  10.147   6.446 -0.0463 -0.0485  0.3055
  448MOL0     C60359  10.339  10.252   6.455  0.3706  0.0924 -0.5201
  448MOL0     C60360  10.364  10.298   6.603 -0.7234  0.9991  0.4162
  448MOL0     C60361  10.245  10.386   6.636 -0.3356 -0.1638 -0.4321
  448MOL0     N60362  10.193  10.346   6.769 -0.4082  0.3662 -0.0238
  448MOL0     C60363  10.273  10.351   6.881  0.6550  0.3852  0.0029
  448MOL0     C60364  10.210  10.282   6.974  0.9033  0.0382  0.0270
  448MOL0     C60365  10.262  10.246   7.112 -0.4602 -0.3442  0.2746
  448MOL0     C60366  10.314  10.383   7.175 -0.3827 -0.4580  0.1704
  448MOL0     C60367  10.320  10.374   7.325 -0.4962  0.0325 -0.4201
  448MOL0     C60368  10.354  10.517   7.393  0.0157  0.2453 -0.1160
  448MOL0     O60369  10.470  10.566   7.325 -0.9491 -0.5313 -0.3642
  448MOL0     C60370  10.506  10.700   7.325 -0.4560  1.0684 -0.9059
  448MOL0     C60371  10.474  10.796   7.422 -0.5975 -0.0633 -0.2228
  448MOL0     C60372  10.544  10.923   7.420 -0.1461  0.7868 -0.1796
  448MOL0     C60373  10.516  11.026   7.525 -0.2259 -0.2306 -0.1649
  448MOL0     C60374  10.616  10.951   7.302 -0.5561  0.8610 -0.3151
  448MOL0     C60375  10.682  11.084   7.262  1.0630  0.7748 -0.6128
  448MOL0     O60376  10.802  11.076   7.187  0.0381  0.1824 -0.1283
  448MOL0     C60377  10.862  11.198   7.166 -0.0758  0.2890  0.6656
  448MOL0     C60378  10.807  11.306   7.090 -0.5227  0.6312 -0.1242
  448MOL0     C60379  10.895  11.411   7.061 -0.0831 -0.3838  0.2902
  448MOL0     C60380  11.021  11.427   7.108  0.0394  0.2974  0.9190
  448MOL0     O60381  11.082  11.545   7.077 -0.0411 -0.1644  0.1079
  448MOL0     C60382  11.213  11.580   7.129 -0.0627 -0.1115  0.1159
  448MOL0     C60383  11.279  11.693   7.055  0.1207  0.0825 -1.0497
  448MOL0     C60384  11.292  11.669   6.909 -0.8442 -0.1805 -0.1390
  448MOL0     C60385  11.167  11.713   6.834  0.6448 -0.0070 -1.8724
  448MOL0     C60386  11.208  11.710   6.684  0.5528  0.8412 -0.1705
  448MOL0     C60387  11.076  11.741   6.597 -1.2120 -0.6270 -0.3893
  448MOL0     C60388  11.018  11.881   6.612 -0.3908  1.2356 -0.1132
  448MOL0     C60389  11.102  11.977   6.511  0.6575  0.0503 -0.0303
  448MOL0    Cl60390  11.061  12.144   6.540 -0.6910  0.1969 -0.1926
  448MOL0     C60391  11.074  11.317   7.175 -0.0887 -0.3630  0.7558
  448MOL0     C60392  10.990  11.206   7.198  0.7740 -0.6461  0.5575
  448MOL0     O60393  10.626  11.184   7.298 -0.2284 -0.5822  0.3496
  448MOL0     C60394  10.645  10.849   7.207 -0.0048 -0.4753  0.6217
  448MOL0     C60395  10.588  10.730   7.215 -0.1521  1.2511 -0.8519
  448MOL0     N60396  10.087  10.241   6.924  0.0247  0.1335 -0.1610
  448MOL0     N60397  10.086  10.266   6.796  0.2083  0.5826  0.3763
  448MOL0     C60398  10.157  10.129   5.695  0.9706 -0.3098  0.2206
  448MOL0     C60399  10.136  10.185   5.572  0.7703 -0.6052  0.4888
  448MOL0     C60400  10.154  10.576   5.288  0.4652  0.3926  0.3255
  448MOL0     C60401  10.248  10.646   5.203 -0.0827 -0.5180  0.1045
  448MOL0     C60402  10.201  10.751   5.119  0.8903 -0.1427 -0.0870
  448MOL0     C60403  10.060  10.764   5.106 -0.1730 -0.5737  1.1238
  448MOL0     O60404   9.999  10.866   5.029 -0.3614  0.0478  0.5798
  448MOL0     C60405  10.072  10.986   5.013 -0.3629 -0.1045  0.5989
  448MOL0     C60406  10.133  10.988   4.874  0.8742 -0.6886  0.4614
  448MOL0     C60407  10.041  11.003   4.755 -0.5035  0.1586  0.1179
  448MOL0     C60408  10.120  11.021   4.622 -0.5787 -0.3823  0.2467
  448MOL0     C60409  10.197  11.149   4.619  0.3542  0.0990 -0.4419
  448MOL0     C60410  10.262  11.248   4.595  0.2613 -0.5169 -0.2913
  448MOL0     C60411   9.972  10.680   5.173 -0.2796 -0.4869 -0.6284
  448MOL0     C60412  10.018  10.590   5.266  0.2020  1.3322  0.2027
  448MOL0     H60413  10.283  10.487   5.649  1.0659 -0.6575 -0.8052
  448MOL0     H60414  10.317  10.372   5.868  3.9068 -0.7087 -2.4802
  448MOL0     H60415  10.048  10.032   5.951 -0.0424 -3.7475  0.2528
  448MOL0     H60416  10.182   9.943   5.881 -2.0185 -2.7887  1.7102
  448MOL0     H60417  10.157   9.881   6.117 -1.2060  0.1762 -1.0629
  448MOL0     H60418  10.312   9.940   6.073 -0.0119  1.7344  2.7958
  448MOL0     H60419  10.258  10.168   6.176 -3.2907  2.6754  1.3305
  448MOL0     H60420  10.093  10.110   6.210  0.7828  1.5270  1.7100
  448MOL0     H60421  10.203   9.946   6.378  1.2016 -0.0569 -1.8321
  448MOL0     H60422  10.361  10.006   6.354  0.2923 -0.5177 -0.4453
  448MOL0     H60423  10.126  10.196   6.420  1.0132  2.2802  0.6123
  448MOL0     H60424  10.207  10.093   6.540  1.1684  1.4161  1.3705
  448MOL0     H60425  10.431  10.194   6.445 -0.1755 -0.9516  0.2334
  448MOL0     H60426  10.328  10.341   6.393  1.1540  0.4058 -0.2198
  448MOL0     H60427  10.372  10.212   6.670 -1.7860  0.2057 -0.4294
  448MOL0     H60428  10.462  10.345   6.610  1.2550 -2.9972  2.7481
  448MOL0     H60429  10.174  10.393   6.553  0.3817 -3.4319 -1.5122
  448MOL0     H60430  10.287  10.486   6.641  0.2864 -0.4340 -0.1838
  448MOL0     H60431  10.368  10.404   6.879  1.8384 -1.6359 -0.9004
  448MOL0     H60432  10.180  10.194   7.162  0.8330 -2.1915  0.5637
  448MOL0     H60433  10.346  10.176   7.117 -1.0967 -1.6029 -3.5146
  448MOL0     H60434  10.243  10.464   7.156 -0.0376  0.5150  2.7062
  448MOL0     H60435  10.412  10.403   7.129 -0.1804  2.2989  1.6125
  448MOL0     H60436  10.389  10.300   7.366 -2.2574 -1.5887 -0.2779
  448MOL0     H60437  10.226  10.338   7.368 -0.3354 -0.7531 -0.7041
  448MOL0     H60438  10.372  10.507   7.500 -0.2622 -1.1636 -0.1768
  448MOL0     H60439  10.271  10.585   7.370 -2.0788 -2.7171 -2.1298
  448MOL0     H60440  10.401  10.775   7.499  0.4780  0.8323  1.1044
  448MOL0     H60441  10.431  11.092   7.508 -2.4400 -2.5418  1.2340
  448MOL0     H60442  10.500  10.965   7.614  3.4286 -2.5766 -0.9167
  448MOL0     H60443  10.607  11.087   7.523 -1.8368  2.2902 -0.5913
  448MOL0     H60444  10.711  11.289   7.043 -0.8337 -1.5833  1.1808
  448MOL0     H60445  10.846  11.477   6.990  1.0046  0.9634  0.7495
  448MOL0     H60446  11.209  11.610   7.234  2.7911  0.3737  0.1767
  448MOL0     H60447  11.276  11.490   7.129 -3.1854 -2.5148 -2.4666
  448MOL0     H60448  11.219  11.784   7.063 -2.4520 -1.5069 -1.3148
  448MOL0     H60449  11.374  11.717   7.104 -0.7703  3.5442 -0.7549
  448MOL0     H60450  11.307  11.562   6.892  0.1448  0.2103 -1.9720
  448MOL0     H60451  11.377  11.724   6.869  0.5417 -0.3049  2.4081
  448MOL0     H60452  11.077  11.655   6.853 -1.2116  2.7798 -1.5139
  448MOL0     H60453  11.129  11.813   6.856  1.9997 -0.0460  1.1232
  448MOL0     H60454  11.232  11.606   6.664  1.4442  0.8564  0.7848
  448MOL0     H60455  11.292  11.774   6.653  0.2732  1.3846  0.1713
  448MOL0     H60456  11.090  11.712   6.492 -0.1889 -1.3011 -0.0804
  448MOL0     H60457  10.993  11.678   6.632 -0.8381 -0.0068  1.7303
  448MOL0     H60458  11.036  11.924   6.711 -2.4685 -0.1719  0.9553
  448MOL0     H60459  10.910  11.878   6.596 -0.2724 -1.3720 -0.8691
  448MOL0     H60460  11.073  11.948   6.410  1.8691 -2.1586  0.1885
  448MOL0     H60461  11.206  11.949   6.530  0.6242  0.8684  1.4983
  448MOL0     H60462  11.179  11.319   7.199  0.3263  2.1428 -0.8287
  448MOL0     H60463  11.039  11.134   7.263  0.5281 -0.1962  1.2578
  448MOL0     H60464  10.720  10.872   7.133 -0.8269 -0.3971 -0.2083
  448MOL0     H60465  10.621  10.653   7.147 -0.1279  0.0150  0.5038
  448MOL0     H60466  10.103  10.034   5.697 -1.6655  0.8167 -4.3139
  448MOL0     H60467  10.086  10.136   5.489  1.0583  0.5147 -0.3681
  448MOL0     H60468  10.356  10.638   5.206 -0.0164  0.1324  4.2877
  448MOL0     H60469  10.273  10.815   5.068  0.1896  1.3976  0.7913
  448MOL0     H60470   9.999  11.067   5.018  1.1568  1.4074 -0.4497
  448MOL0     H60471  10.153  11.006   5.083  0.4411 -4.5982  1.2518
  448MOL0     H60472  10.181  10.892   4.854  0.3165 -0.5077 -2.1098
  448MOL0     H60473  10.207  11.068   4.870  1.3481 -0.9042 -6.0160
  448MOL0     H60474   9.971  11.087   4.762 -2.8032 -1.8031  2.6568
  448MOL0     H60475   9.976  10.914   4.750  0.5391 -0.6004 -0.3944
  448MOL0     H60476  10.042  11.021   4.544 -2.2086  1.2027  1.7661
  448MOL0     H60477  10.181  10.934   4.598  0.2681  0.2573  0.0140
  448MOL0     H60478  10.328  11.330   4.579 -0.1254 -0.4364 -1.5970
  448MOL0     H60479   9.864  10.688   5.158  0.1209  2.5182 -2.9336
  448MOL0     H60480   9.945  10.531   5.321  1.9257 -0.8917  0.2950
  449MOL0     O60481   2.908   6.364  11.048  0.9872  0.3837  0.0532
  449MOL0     C60482   2.785   6.343  11.053 -0.5571  0.6453 -0.1616
  449MOL0     O60483   2.726   6.216  11.064 -0.5720 -0.5796  0.0527
  449MOL0     C60484   2.805   6.114  11.087 -0.3202  0.6693 -0.7916
  449MOL0     C60485   2.833   6.061  11.211  0.4744 -0.7899  0.3274
  449MOL0     C60486   2.920   5.951  11.234 -0.2302 -0.7207  1.4969
  449MOL0     C60487   2.976   5.888  11.114  0.4197  1.1339 -0.2963
  449MOL0     O60488   3.061   5.779  11.121  0.2718  0.1744 -0.9182
  449MOL0     C60489   3.181   5.808  11.190 -0.1384  0.3867 -0.0908
  449MOL0     C60490   3.292   5.846  11.095  1.3463  0.3838 -0.7047
  449MOL0     C60491   3.421   5.852  11.172  0.7136  0.6220  0.2291
  449MOL0     C60492   3.530   5.878  11.066  0.8414  0.4126 -0.2437
  449MOL0     C60493   3.669   5.901  11.118 -0.1992  0.2462  0.5098
  449MOL0     C60494   3.727   5.779  11.190  0.1097  0.4365  0.5825
  449MOL0     C60495   3.876   5.794  11.238  0.4620  1.3165  0.5477
  449MOL0     C60496   3.887   5.877  11.374  0.3632 -0.1649 -0.2048
  449MOL0     N60497   4.020   5.874  11.434  0.8441 -0.9381 -0.0570
  449MOL0     C60498   4.093   5.767  11.472 -0.4743  0.1328 -0.7653
  449MOL0     C60499   4.207   5.828  11.515  1.0429  0.3597  0.9768
  449MOL0     C60500   4.323   5.746  11.550 -0.1112  0.2041 -0.3962
  449MOL0     C60501   4.458   5.802  11.498  0.3842  0.9728  0.0886
  449MOL0     C60502   4.575   5.769  11.583  0.1824 -0.3964  0.2686
  449MOL0     C60503   4.702   5.839  11.536 -0.2351  0.0911  0.4582
  449MOL0     O60504   4.732   5.942  11.623 -0.5061  0.6999  0.5390
  449MOL0     C60505   4.835   6.035  11.586 -0.0778 -0.5376 -0.4841
  449MOL0     C60506   4.937   6.022  11.493 -0.0458 -0.4037  0.1994
  449MOL0     C60507   5.032   6.125  11.460 -0.1185  0.1814  0.0378
  449MOL0     C60508   5.162   6.092  11.391 -0.8378  0.0217  0.7066
  449MOL0     C60509   5.012   6.260  11.509  0.0920  0.7585  0.5764
  449MOL0     C60510   5.115   6.364  11.495  0.4122 -0.2185  0.1013
  449MOL0     O60511   5.225   6.368  11.575  0.2598  0.4047 -0.1271
  449MOL0     C60512   5.239   6.290  11.685 -0.0909 -0.2402  0.3357
  449MOL0     C60513   5.337   6.196  11.689  0.4900 -0.2665  0.4512
  449MOL0     C60514   5.355   6.120  11.801  0.5531  0.4193 -0.6314
  449MOL0     C60515   5.268   6.138  11.917 -0.0602 -0.7205  0.9661
  449MOL0     O60516   5.276   6.069  12.036 -0.7634  0.1272  0.3390
  449MOL0     C60517   5.356   6.147  12.133  0.8414 -0.3897 -1.0899
  449MOL0     C60518   5.510   6.115  12.109 -0.0711 -0.1749 -0.2701
  449MOL0     C60519   5.524   5.957  12.132 -0.4134  0.4594  0.3123
  449MOL0     C60520   5.663   5.917  12.132 -0.0196  0.2228 -0.2883
  449MOL0     C60521   5.690   5.768  12.132  0.4328 -0.7481 -0.7425
  449MOL0     C60522   5.838   5.753  12.145  1.3054  0.0219 -0.3157
  449MOL0     C60523   5.885   5.609  12.119  0.2666  0.1095  0.1104
  449MOL0     C60524   5.830   5.511  12.212 -0.7066 -0.4293  0.4025
  449MOL0    Cl60525   5.847   5.562  12.387 -0.5292 -0.2985 -0.1329
  449MOL0     C60526   5.179   6.244  11.916  0.6153 -0.9454  0.8041
  449MOL0     C60527   5.160   6.319  11.799  0.0251  0.3693  0.8115
  449MOL0     O60528   5.089   6.447  11.411 -0.2591  0.5222  0.4672
  449MOL0     C60529   4.895   6.280  11.588  0.3846 -0.6936  0.3578
  449MOL0     C60530   4.818   6.164  11.633  0.2579 -1.1844 -0.0846
  449MOL0     N60531   4.207   5.961  11.493 -0.7451 -0.0289 -0.0713
  449MOL0     N60532   4.094   5.987  11.445 -0.0877 -0.6979 -0.3218
  449MOL0     C60533   2.949   5.944  10.986  0.4647  0.3994  0.0325
  449MOL0     C60534   2.870   6.058  10.977  0.2036 -0.4727 -0.4509
  449MOL0     C60535   2.687   6.458  11.004 -0.8866  0.3559 -0.1016
  449MOL0     C60536   2.738   6.585  11.001  0.0417 -0.6921 -0.2576
  449MOL0     C60537   2.645   6.689  10.993 -0.8232  0.5287 -0.4825
  449MOL0     C60538   2.508   6.667  10.978  0.5610  1.2802  1.0441
  449MOL0     O60539   2.436   6.784  10.964 -0.6870  0.7620 -0.3422
  449MOL0     C60540   2.296   6.763  10.986 -0.3320 -0.8485 -0.4029
  449MOL0     C60541   2.223   6.872  11.048 -0.3952  0.5909 -0.5906
  449MOL0     C60542   2.214   6.870  11.203 -0.7100 -0.3789  0.1012
  449MOL0     C60543   2.180   7.010  11.251 -0.6741  1.1177  1.0576
  449MOL0     C60544   2.047   7.056  11.207 -0.5191  0.1320 -0.0695
  449MOL0     C60545   1.933   7.083  11.182 -0.3604 -0.2777  0.5061
  449MOL0     C60546   2.459   6.535  10.985 -0.3783 -0.5175 -0.0869
  449MOL0     C60547   2.548   6.430  10.988 -0.0925 -0.6675  0.5304
  449MOL0     H60548   2.800   6.097  11.308  2.9149 -1.2684  1.4215
  449MOL0     H60549   2.940   5.917  11.335 -0.2395  2.4055  2.6689
  449MOL0     H60550   3.174   5.884  11.268 -3.3296  1.1469 -0.9739
  449MOL0     H60551   3.207   5.716  11.244 -0.6990  1.0000  1.2964
  449MOL0     H60552   3.299   5.769  11.017  0.3686 -0.1478 -0.2926
  449MOL0     H60553   3.265   5.944  11.055 -0.9097  1.4834  3.0208
  449MOL0     H60554   3.427   5.935  11.242 -0.0975  0.7400  0.1617
  449MOL0     H60555   3.437   5.762  11.234  0.1895  0.7014  0.4829
  449MOL0     H60556   3.523   5.798  10.992  0.8519 -1.6240  1.8572
  449MOL0     H60557   3.500   5.969  11.014 -1.8964 -0.2511 -0.0337
  449MOL0     H60558   3.749   5.914  11.045 -0.4176  1.9274  0.5339
  449MOL0     H60559   3.660   5.993  11.175  1.8365 -0.2710  1.7478
  449MOL0     H60560   3.660   5.758  11.274  0.6281  0.2159  0.9446
  449MOL0     H60561   3.718   5.691  11.127  1.6536  2.0505 -2.0628
  449MOL0     H60562   3.920   5.695  11.248  3.1666  2.3103 -0.7153
  449MOL0     H60563   3.937   5.839  11.159  4.7225 -3.9177  0.2935
  449MOL0     H60564   3.822   5.831  11.449 -0.4633  2.8883  1.0764
  449MOL0     H60565   3.840   5.975  11.361  2.5358  0.7703 -1.5234
  449MOL0     H60566   4.056   5.665  11.462 -1.4773  0.2635  1.1201
  449MOL0     H60567   4.333   5.734  11.659  0.6923 -2.5192 -0.7022
  449MOL0     H60568   4.305   5.648  11.506  1.7341  0.7010 -2.4288
  449MOL0     H60569   4.454   5.910  11.483  1.3204  1.0089  0.0758
  449MOL0     H60570   4.476   5.749  11.404  1.8601 -0.6024  1.2028
  449MOL0     H60571   4.593   5.661  11.582  1.2874 -0.2227  0.6117
  449MOL0     H60572   4.555   5.794  11.688 -2.3372  1.8297 -0.6305
  449MOL0     H60573   4.701   5.864  11.430  0.7349 -1.6306  0.0028
  449MOL0     H60574   4.782   5.764  11.537 -0.5326 -0.3136 -1.6066
  449MOL0     H60575   4.931   5.921  11.454 -1.0775  0.5174 -2.2559
  449MOL0     H60576   5.167   5.987  11.362 -0.2139  0.5060 -1.0657
  449MOL0     H60577   5.180   6.153  11.302  2.0049 -2.8670 -0.8890
  449MOL0     H60578   5.239   6.102  11.468 -0.5251  2.3790  0.1518
  449MOL0     H60579   5.408   6.195  11.607  0.0932  0.6003  0.0918
  449MOL0     H60580   5.424   6.037  11.810 -1.8554 -2.0500 -2.9348
  449MOL0     H60581   5.337   6.255  12.125  0.5378 -0.3091  0.3579
  449MOL0     H60582   5.329   6.109  12.232 -2.5080  2.3921 -0.7363
  449MOL0     H60583   5.541   6.135  12.006 -0.9737 -1.3771 -0.8012
  449MOL0     H60584   5.572   6.164  12.184  3.8825 -2.8225 -1.5078
  449MOL0     H60585   5.478   5.925  12.038 -3.3992  0.3395  1.7110
  449MOL0     H60586   5.457   5.907  12.202 -0.2885 -0.1994 -0.0314
  449MOL0     H60587   5.723   5.960  12.051  0.6424  2.0414  1.0866
  449MOL0     H60588   5.702   5.967  12.221  2.4263 -1.7202 -0.1762
  449MOL0     H60589   5.650   5.716  12.045 -0.4235  2.0711 -2.1424
  449MOL0     H60590   5.642   5.728  12.222  1.5291  0.2772  0.3400
  449MOL0     H60591   5.880   5.820  12.069 -0.2310  2.0940  0.5748
  449MOL0     H60592   5.873   5.794  12.240 -1.1278 -0.4233  0.8506
  449MOL0     H60593   5.995   5.608  12.115  0.3583 -0.1965 -6.0715
  449MOL0     H60594   5.855   5.578  12.019  1.9025 -0.5540 -0.2136
  449MOL0     H60595   5.876   5.417  12.180  1.2005 -0.1370  2.0386
  449MOL0     H60596   5.722   5.502  12.196 -0.6734 -2.2514  0.9073
  449MOL0     H60597   5.114   6.264  12.000  1.4150 -0.9205  1.4290
  449MOL0     H60598   5.073   6.382  11.791  0.2441  0.7060  1.0677
  449MOL0     H60599   4.885   6.383  11.621  2.6911 -0.2874 -0.0243
  449MOL0     H60600   4.738   6.192  11.701  2.2828  1.1755  1.4734
  449MOL0     H60601   2.989   5.898  10.896  1.1186 -1.8638  1.3960
  449MOL0     H60602   2.857   6.103  10.879 -0.3486 -0.3709 -0.3331
  449MOL0     H60603   2.842   6.607  11.018 -0.8671  3.0973  1.3603
  449MOL0     H60604   2.665   6.796  11.000  0.7832  0.1569  1.3895
  449MOL0     H60605   2.264   6.751  10.883  1.6281  3.0879 -1.6760
  449MOL0     H60606   2.264   6.682  11.052  2.7682  1.0020  3.8440
  449MOL0     H60607   2.119   6.853  11.022  0.6976 -5.4856 -1.8827
  449MOL0     H60608   2.261   6.969  11.013 -2.2670 -0.1855 -5.6043
  449MOL0     H60609   2.309   6.841  11.249 -1.0024  1.2913  1.8842
  449MOL0     H60610   2.136   6.797  11.225  0.4906 -1.3337  1.3783
  449MOL0     H60611   2.259   7.080  11.224  1.9641 -1.4996  1.5528
  449MOL0     H60612   2.181   7.007  11.360  4.0026 -0.6967  1.1857
  449MOL0     H60613   1.830   7.103  11.160 -1.0396  1.3267  4.4010
  449MOL0     H60614   2.353   6.513  10.982 -0.1765 -2.3705  2.5034
  449MOL0     H60615   2.520   6.326  10.990  0.8488 -0.9302  0.3581
  450MOL0     O60616   5.249   5.147   6.927 -0.5776 -0.0532 -1.3187
  450MOL0     C60617   5.304   5.036   6.921  0.4323  0.3799 -0.5478
  450MOL0     O60618   5.343   4.953   7.032 -0.5525  0.1480  0.3046
  450MOL0     C60619   5.305   4.980   7.157 -0.3952 -0.9088  0.5266
  450MOL0     C60620   5.393   4.956   7.268  0.2167  0.9078  0.5778
  450MOL0     C60621   5.355   4.986   7.401 -0.1218  0.6304  0.8088
  450MOL0     C60622   5.222   5.029   7.425 -0.8996 -0.0678 -0.4414
  450MOL0     O60623   5.179   5.025   7.555 -0.0034 -0.6351 -0.0803
  450MOL0     C60624   5.070   5.081   7.619 -0.5528  0.7661  0.3924
  450MOL0     C60625   5.062   5.000   7.758 -0.4243 -0.7866 -0.0138
  450MOL0     C60626   4.927   4.921   7.761 -0.2113 -0.4295  0.5710
  450MOL0     C60627   4.815   5.000   7.825  0.4971  0.2975 -0.1163
  450MOL0     C60628   4.675   4.924   7.844  0.0254  0.2212  0.3096
  450MOL0     C60629   4.552   5.020   7.873  0.2139 -0.1623  0.4954
  450MOL0     C60630   4.415   4.948   7.891 -0.1753 -0.1616 -0.8155
  450MOL0     C60631   4.348   4.927   7.755 -0.0628 -0.1039  0.3890
  450MOL0     N60632   4.216   4.852   7.767 -0.1241 -0.2561  0.2311
  450MOL0     C60633   4.201   4.725   7.797  0.1046  1.0733  0.0040
  450MOL0     C60634   4.070   4.700   7.823 -0.8816 -0.5295  0.0133
  450MOL0     C60635   4.006   4.575   7.872  0.5046  0.8403 -1.0500
  450MOL0     C60636   4.018   4.461   7.775 -0.4615 -0.0259 -0.3176
  450MOL0     C60637   3.911   4.362   7.820  0.4057  0.8150 -0.0709
  450MOL0     C60638   3.904   4.234   7.724 -0.1165 -0.2318 -0.0786
  450MOL0     O60639   4.026   4.145   7.743 -0.7169  0.8145 -0.3622
  450MOL0     C60640   4.138   4.145   7.657  0.6453  1.1393 -1.5987
  450MOL0     C60641   4.153   4.217   7.541 -0.1458  0.1144  0.2696
  450MOL0     C60642   4.270   4.188   7.466 -0.3501  0.3458 -0.8399
  450MOL0     C60643   4.294   4.270   7.346  0.1329 -0.7229  0.2951
  450MOL0     C60644   4.365   4.095   7.504  1.2897 -0.2196  0.7828
  450MOL0     C60645   4.479   4.049   7.417  1.2253 -0.0347  0.0787
  450MOL0     O60646   4.575   4.138   7.380 -0.4026  0.3527  0.0698
  450MOL0     C60647   4.694   4.114   7.319 -0.0353  0.8389 -0.6359
  450MOL0     C60648   4.763   4.225   7.281  0.2461  0.7629 -0.3988
  450MOL0     C60649   4.873   4.214   7.202 -0.5055  0.6361 -0.0440
  450MOL0     C60650   4.916   4.083   7.160  0.0426  0.8759 -1.0954
  450MOL0     O60651   5.008   4.054   7.065  0.1222 -0.2665  0.3403
  450MOL0     C60652   5.132   4.141   7.056  0.2663  0.1849  0.4813
  450MOL0     C60653   5.256   4.061   7.042  1.5869 -0.5548 -0.0358
  450MOL0     C60654   5.268   3.949   7.143 -1.1070  1.0756 -0.6669
  450MOL0     C60655   5.316   4.010   7.281  0.3552 -0.3294  0.3213
  450MOL0     C60656   5.314   3.912   7.393  0.3553  0.3235  0.1734
  450MOL0     C60657   5.441   3.820   7.415  0.0410  0.2127 -0.5264
  450MOL0     C60658   5.419   3.732   7.534 -0.3269  0.2030  0.0014
  450MOL0     C60659   5.513   3.612   7.556 -0.0245  0.0280  0.3285
  450MOL0    Cl60660   5.462   3.534   7.708 -0.0694 -0.0121 -0.0745
  450MOL0     C60661   4.859   3.962   7.214  0.1753  0.0919  0.9853
  450MOL0     C60662   4.751   3.989   7.292  0.1357 -0.2705  0.2781
  450MOL0     O60663   4.467   3.933   7.379 -0.5944 -1.1026  0.3443
  450MOL0     C60664   4.338   4.019   7.617  0.0045  0.4577 -0.0383
  450MOL0     C60665   4.229   4.046   7.697 -0.1623 -0.2994  0.0674
  450MOL0     N60666   4.010   4.817   7.802  0.5562 -0.3158 -0.3203
  450MOL0     N60667   4.090   4.910   7.763 -0.8644 -0.4203  0.2602
  450MOL0     C60668   5.129   5.050   7.316  0.3067  0.0462 -0.5177
  450MOL0     C60669   5.172   5.025   7.184  0.6488  0.3749  0.0165
  450MOL0     C60670   5.383   5.006   6.796  0.0134 -0.5613 -0.3157
  450MOL0     C60671   5.442   4.886   6.774  0.5626 -0.3962 -0.4618
  450MOL0     C60672   5.520   4.865   6.657 -0.2329  0.5295  0.3880
  450MOL0     C60673   5.530   4.955   6.554 -1.2364 -0.2930 -0.7982
  450MOL0     O60674   5.597   4.937   6.441  0.3762  0.4201  0.3787
  450MOL0     C60675   5.683   4.819   6.429  0.7812 -0.1860  0.5126
  450MOL0     C60676   5.749   4.823   6.296  0.6216  0.5035  0.2738
  450MOL0     C60677   5.652   4.825   6.179  0.6573 -0.3325 -0.3561
  450MOL0     C60678   5.586   4.686   6.153 -0.0014  0.1763  0.3188
  450MOL0     C60679   5.685   4.580   6.142 -0.6781  0.5780  0.3852
  450MOL0     C60680   5.768   4.495   6.135 -0.6879  0.6315  0.6111
  450MOL0     C60681   5.477   5.081   6.577  0.5091 -0.6485  0.6787
  450MOL0     C60682   5.408   5.105   6.696 -0.0576  0.3778 -0.5115
  450MOL0     H60683   5.487   4.905   7.247 -0.7334 -1.1116  0.9754
  450MOL0     H60684   5.411   4.925   7.471 -0.4809  1.2347  1.6300
  450MOL0     H60685   5.087   5.183   7.657  3.9396 -0.8387  3.6150
  450MOL0     H60686   4.980   5.068   7.559  0.8790  0.1797 -1.7381
  450MOL0     H60687   5.151   4.942   7.782  0.7767  2.5632  5.0982
  450MOL0     H60688   5.061   5.073   7.839 -0.6708 -1.1865  0.3444
  450MOL0     H60689   4.906   4.891   7.658  4.9262 -1.9999 -0.2970
  450MOL0     H60690   4.928   4.829   7.819 -2.2347 -0.4405  0.6586
  450MOL0     H60691   4.837   5.025   7.929  1.1808 -1.3413  0.1602
  450MOL0     H60692   4.799   5.090   7.764  0.5839  0.4667  0.1126
  450MOL0     H60693   4.647   4.867   7.755 -2.0120 -0.5682  1.4056
  450MOL0     H60694   4.684   4.851   7.925 -2.0364  0.6319  0.9462
  450MOL0     H60695   4.556   5.078   7.965 -0.5268  0.9544 -0.1518
  450MOL0     H60696   4.548   5.084   7.784  0.8478 -0.2964  0.3641
  450MOL0     H60697   4.441   4.854   7.942  0.2418  0.1825 -0.3793
  450MOL0     H60698   4.351   5.002   7.962  0.2970  1.8390 -1.8462
  450MOL0     H60699   4.424   4.874   7.697  0.0847 -0.6731  1.0904
  450MOL0     H60700   4.324   5.029   7.724 -0.3620  0.7772  3.1957
  450MOL0     H60701   4.281   4.652   7.808 -1.9772 -1.1225  1.5690
  450MOL0     H60702   4.051   4.551   7.969 -0.7119  0.5589 -0.5334
  450MOL0     H60703   3.899   4.589   7.890  0.5674 -0.8401  1.0158
  450MOL0     H60704   4.118   4.418   7.784 -0.2236  0.9167  3.1030
  450MOL0     H60705   4.002   4.496   7.673 -0.7427 -2.7788 -1.2850
  450MOL0     H60706   3.811   4.405   7.829 -0.5086 -1.1333 -0.2347
  450MOL0     H60707   3.926   4.320   7.920  0.1848 -0.3802 -0.5126
  450MOL0     H60708   3.897   4.263   7.619  1.2325 -3.6534 -1.2689
  450MOL0     H60709   3.817   4.174   7.750 -0.1544 -0.4726 -0.7441
  450MOL0     H60710   4.079   4.288   7.503  1.4501  1.5807 -0.2342
  450MOL0     H60711   4.399   4.295   7.326  0.3596 -2.9014 -1.6853
  450MOL0     H60712   4.255   4.210   7.263 -0.8684  0.3451 -0.0240
  450MOL0     H60713   4.247   4.367   7.363 -0.2098 -0.7149 -0.6815
  450MOL0     H60714   4.712   4.319   7.300 -1.1757 -0.3915  1.9244
  450MOL0     H60715   4.912   4.311   7.173  0.5092  0.5798  1.0579
  450MOL0     H60716   5.116   4.195   6.962 -1.2173 -0.5957  0.2518
  450MOL0     H60717   5.144   4.222   7.128  0.0236  1.6188 -1.0499
  450MOL0     H60718   5.275   4.030   6.939 -1.3721 -4.3052  0.3282
  450MOL0     H60719   5.339   4.127   7.069  1.7429  0.2314 -2.2647
  450MOL0     H60720   5.339   3.873   7.110  0.3203  2.3859 -0.6835
  450MOL0     H60721   5.171   3.899   7.154 -1.6549  2.2863  0.3180
  450MOL0     H60722   5.421   4.042   7.271  0.3908 -1.0261 -2.3724
  450MOL0     H60723   5.253   4.095   7.307  2.9464  1.6570  0.5687
  450MOL0     H60724   5.224   3.853   7.375 -1.2700  3.0894 -1.4543
  450MOL0     H60725   5.306   3.974   7.483 -0.6108  2.7954 -1.5105
  450MOL0     H60726   5.447   3.763   7.321 -0.7789 -0.3146 -0.2632
  450MOL0     H60727   5.526   3.888   7.430 -0.8256  1.0709  0.5806
  450MOL0     H60728   5.320   3.684   7.533 -0.7993  1.0736  1.5389
  450MOL0     H60729   5.417   3.802   7.618 -3.7655 -1.3906  1.4251
  450MOL0     H60730   5.612   3.656   7.570 -1.2881  3.7544 -1.1109
  450MOL0     H60731   5.523   3.535   7.479  2.5834 -0.9557  1.5432
  450MOL0     H60732   4.886   3.859   7.191  0.0199  0.2591  0.0294
  450MOL0     H60733   4.701   3.900   7.329 -2.8777  1.3668  0.5091
  450MOL0     H60734   4.395   3.933   7.652 -0.2556  0.9744  1.7414
  450MOL0     H60735   4.210   4.000   7.793 -1.9466 -0.3086 -0.2557
  450MOL0     H60736   5.026   5.078   7.336  0.4910  2.7168 -2.7654
  450MOL0     H60737   5.097   5.029   7.106 -0.2451  0.6748  0.8749
  450MOL0     H60738   5.439   4.809   6.850  0.1317  2.2365  2.4152
  450MOL0     H60739   5.568   4.768   6.644  0.0405  0.9523 -2.6249
  450MOL0     H60740   5.760   4.812   6.505  0.8861 -0.2045  0.4049
  450MOL0     H60741   5.625   4.726   6.432  0.9707 -0.3186  0.1837
  450MOL0     H60742   5.827   4.747   6.285  0.5100  0.3243  0.7541
  450MOL0     H60743   5.800   4.919   6.279 -1.6887  1.5275 -1.5742
  450MOL0     H60744   5.713   4.848   6.091  0.1023  3.8070  0.1383
  450MOL0     H60745   5.582   4.909   6.191  1.4976  0.4040 -0.5100
  450MOL0     H60746   5.535   4.689   6.056  2.1441  0.9848 -0.8516
  450MOL0     H60747   5.517   4.667   6.236 -0.6375  2.1911  0.2968
  450MOL0     H60748   5.835   4.411   6.139 -0.3021  0.9797  1.7466
  450MOL0     H60749   5.477   5.151   6.494 -1.2500  0.3152  1.4370
  450MOL0     H60750   5.361   5.199   6.723  0.6595  0.9588 -1.2247
  451MOL0     O60751   6.110   3.449   5.137  0.2715 -0.9677  0.0814
  451MOL0     C60752   6.211   3.401   5.084  0.3410 -0.7340  0.2114
  451MOL0     O60753   6.237   3.268   5.059 -0.5022 -0.1171  0.3573
  451MOL0     C60754   6.135   3.180   5.092  0.5578 -0.3236 -0.0568
  451MOL0     C60755   6.092   3.171   5.225 -0.0937 -1.1111 -0.1841
  451MOL0     C60756   5.996   3.076   5.264 -1.1018 -0.3139  0.2544
  451MOL0     C60757   5.929   3.007   5.164 -0.6804 -0.5530  0.4003
  451MOL0     O60758   5.818   2.932   5.166  0.4006  0.7276 -0.2004
  451MOL0     C60759   5.710   2.970   5.248 -0.1870  0.4807 -0.4444
  451MOL0     C60760   5.585   2.905   5.195  0.0868 -0.2577  0.3843
  451MOL0     C60761   5.445   2.948   5.251  0.4387  0.7192 -0.5481
  451MOL0     C60762   5.389   3.081   5.187 -0.7372 -0.7466  0.4545
  451MOL0     C60763   5.241   3.095   5.216 -0.2075  0.1432  0.2382
  451MOL0     C60764   5.214   3.155   5.354  0.4945 -0.5876 -0.8405
  451MOL0     C60765   5.060   3.198   5.374 -0.4464  0.3035  0.7182
  451MOL0     C60766   4.997   3.129   5.498  0.4931  1.2675  0.2292
  451MOL0     N60767   5.000   2.975   5.492  0.2507  0.7893 -0.2453
  451MOL0     C60768   4.951   2.885   5.584  0.2341 -0.3262  0.4536
  451MOL0     C60769   4.949   2.758   5.524 -0.2306 -0.4754 -0.5762
  451MOL0     C60770   4.891   2.627   5.586 -0.0405 -0.3810  0.3556
  451MOL0     C60771   4.897   2.507   5.490 -0.0567  0.8550  0.6868
  451MOL0     C60772   5.031   2.431   5.486 -0.4494  1.2452 -0.2264
  451MOL0     C60773   5.163   2.507   5.475 -0.4044  0.5979  0.6807
  451MOL0     O60774   5.268   2.413   5.469  0.2622  0.0751 -0.0080
  451MOL0     C60775   5.389   2.467   5.452 -0.1449 -1.0627 -1.1406
  451MOL0     C60776   5.486   2.384   5.403 -0.2470 -0.2129  0.3556
  451MOL0     C60777   5.620   2.413   5.403 -0.7713 -0.1133  0.9445
  451MOL0     C60778   5.698   2.320   5.320  0.0197 -0.3642  0.2402
  451MOL0     C60779   5.672   2.539   5.445 -0.2576 -0.2976  0.7829
  451MOL0     C60780   5.820   2.572   5.454 -0.4442  0.1887  0.7115
  451MOL0     O60781   5.860   2.695   5.487  0.7706 -0.7703 -0.2268
  451MOL0     C60782   5.989   2.725   5.456  0.8630 -0.3491 -0.7772
  451MOL0     C60783   6.063   2.784   5.557 -0.3425  0.4572  0.2674
  451MOL0     C60784   6.196   2.822   5.528  0.1332  0.3647 -0.0278
  451MOL0     C60785   6.251   2.827   5.400  0.2496 -0.5490  0.6234
  451MOL0     O60786   6.376   2.865   5.372 -0.5940  0.2049  0.4588
  451MOL0     C60787   6.407   2.925   5.241 -0.6035 -0.5821  0.4261
  451MOL0     C60788   6.547   2.971   5.253  0.6471  0.7883  0.7007
  451MOL0     C60789   6.562   3.086   5.345  0.4455  0.7365 -0.0367
  451MOL0     C60790   6.473   3.211   5.307 -1.2973  0.1776  0.8233
  451MOL0     C60791   6.534   3.337   5.373  0.1330 -0.0444 -0.6551
  451MOL0     C60792   6.448   3.464   5.329  0.1101  0.2009  0.0931
  451MOL0     C60793   6.499   3.587   5.409  1.9329 -1.1745 -0.3410
  451MOL0     C60794   6.461   3.588   5.554  0.2365 -0.7723  0.4239
  451MOL0    Cl60795   6.288   3.557   5.593 -0.1077 -0.0207 -0.1423
  451MOL0     C60796   6.165   2.777   5.295  0.6265  0.6606 -0.3016
  451MOL0     C60797   6.036   2.722   5.322  0.4313 -0.0453 -0.2955
  451MOL0     O60798   5.896   2.475   5.439  0.7435  0.3376  0.3896
  451MOL0     C60799   5.572   2.633   5.491  0.3892  0.2390 -0.6965
  451MOL0     C60800   5.434   2.592   5.503  0.2620  0.2861 -0.2358
  451MOL0     N60801   4.990   2.779   5.396 -0.3649  0.6003  0.5776
  451MOL0     N60802   5.030   2.903   5.374  0.1399 -0.1449 -0.3357
  451MOL0     C60803   5.977   3.014   5.033  0.4938  0.9722 -0.0838
  451MOL0     C60804   6.076   3.099   4.994 -0.0190 -0.1833  0.3196
  451MOL0     C60805   6.307   3.505   5.010  0.1134  0.2530 -0.9187
  451MOL0     C60806   6.288   3.645   5.019  0.0713  0.1660  0.7731
  451MOL0     C60807   6.380   3.735   4.972  0.3288  0.9805  1.4661
  451MOL0     C60808   6.506   3.683   4.929  0.3438  0.2575 -0.1475
  451MOL0     O60809   6.612   3.755   4.881  0.3681 -1.1483  0.3560
  451MOL0     C60810   6.588   3.880   4.815  0.7518 -0.4767  0.2096
  451MOL0     C60811   6.720   3.923   4.731 -0.1296  0.0081 -0.0206
  451MOL0     C60812   6.847   3.952   4.823  0.5462  0.1741 -0.0307
  451MOL0     C60813   6.981   3.943   4.750  0.0128  0.1831 -0.0352
  451MOL0     C60814   6.995   4.041   4.643 -0.1392 -0.8656 -0.2872
  451MOL0     C60815   6.999   4.141   4.573 -0.6829  0.6682  0.3343
  451MOL0     C60816   6.530   3.550   4.931  0.0979  0.2492  0.6386
  451MOL0     C60817   6.430   3.449   4.966 -0.2574 -0.2890  0.2322
  451MOL0     H60818   6.141   3.235   5.298  0.6555 -1.4333 -0.3964
  451MOL0     H60819   5.984   3.041   5.366 -0.7192  1.0108  0.7802
  451MOL0     H60820   5.725   2.931   5.349 -0.8484  0.7371 -0.2393
  451MOL0     H60821   5.691   3.078   5.260 -2.7764  0.1313 -0.8587
  451MOL0     H60822   5.574   2.948   5.095  0.0969  0.1284  0.5464
  451MOL0     H60823   5.599   2.797   5.185 -0.2857 -0.1526 -1.6171
  451MOL0     H60824   5.380   2.867   5.217  1.8063 -0.1015 -1.2872
  451MOL0     H60825   5.452   2.952   5.361  1.8450  1.5331 -0.6546
  451MOL0     H60826   5.441   3.171   5.221  0.4777 -0.7512 -1.2535
  451MOL0     H60827   5.404   3.064   5.079 -3.1531  0.0959 -0.0689
  451MOL0     H60828   5.194   3.159   5.141  3.6432  1.6645 -1.1367
  451MOL0     H60829   5.196   2.995   5.211  1.4484 -0.7943  2.4312
  451MOL0     H60830   5.243   3.094   5.439 -1.6478  1.0585  1.2088
  451MOL0     H60831   5.269   3.248   5.370  0.9007 -0.6180 -1.9785
  451MOL0     H60832   5.041   3.305   5.387 -3.9591  0.2466 -2.3337
  451MOL0     H60833   5.000   3.196   5.282 -0.3289  1.7586  0.5869
  451MOL0     H60834   4.903   3.171   5.533  0.3389  0.7322  0.4810
  451MOL0     H60835   5.070   3.158   5.574  0.0043 -3.5855  2.9759
  451MOL0     H60836   4.900   2.921   5.673 -0.2266 -3.3973  1.5450
  451MOL0     H60837   4.956   2.589   5.666  1.2885 -1.8249 -1.3385
  451MOL0     H60838   4.796   2.648   5.636  0.4125  2.0065  0.3222
  451MOL0     H60839   4.878   2.543   5.388 -0.3056 -0.4692  0.2425
  451MOL0     H60840   4.814   2.438   5.503  0.5047  0.1989  0.8880
  451MOL0     H60841   5.031   2.358   5.405  1.1687  1.2511 -0.2608
  451MOL0     H60842   5.034   2.356   5.567 -3.7114 -1.4184 -2.2823
  451MOL0     H60843   5.177   2.575   5.559  0.0642  4.5464 -2.2846
  451MOL0     H60844   5.150   2.577   5.392  0.5547  3.8612  3.1023
  451MOL0     H60845   5.454   2.283   5.381 -2.5705 -0.1046  2.6771
  451MOL0     H60846   5.634   2.263   5.253 -2.0508 -0.7999  2.4297
  451MOL0     H60847   5.785   2.365   5.271  0.4972 -0.5849  0.8651
  451MOL0     H60848   5.743   2.242   5.383  3.6756 -1.6608 -3.4739
  451MOL0     H60849   6.033   2.803   5.660 -0.1374 -0.9812  0.6110
  451MOL0     H60850   6.252   2.865   5.611 -2.4606 -2.2033  3.3544
  451MOL0     H60851   6.392   2.855   5.158  0.6100  0.4660 -0.7352
  451MOL0     H60852   6.341   3.008   5.214  0.2385 -0.7617 -2.5830
  451MOL0     H60853   6.613   2.888   5.280 -0.8443 -0.5607  0.3136
  451MOL0     H60854   6.583   2.983   5.150  4.6305 -2.0028  1.5307
  451MOL0     H60855   6.662   3.130   5.357  0.1945  2.1644 -2.4671
  451MOL0     H60856   6.532   3.060   5.446 -0.3114  0.3274 -0.3625
  451MOL0     H60857   6.463   3.222   5.198  0.2583 -1.4846  0.4780
  451MOL0     H60858   6.369   3.200   5.340 -2.3787 -2.5996 -2.8891
  451MOL0     H60859   6.636   3.354   5.338  0.3156  0.1158 -0.0600
  451MOL0     H60860   6.531   3.322   5.481  1.1152 -1.5796 -0.7955
  451MOL0     H60861   6.466   3.485   5.224  2.3554 -1.7548  0.0093
  451MOL0     H60862   6.341   3.448   5.342 -0.1878  3.6093  4.4629
  451MOL0     H60863   6.455   3.679   5.368 -1.0893 -2.9354 -1.3247
  451MOL0     H60864   6.606   3.580   5.388  2.3418 -1.7739  1.7299
  451MOL0     H60865   6.493   3.682   5.600 -0.8158  0.2686 -0.8957
  451MOL0     H60866   6.511   3.502   5.600 -2.0654 -4.7938 -3.7262
  451MOL0     H60867   6.196   2.789   5.191  0.0796  0.4423 -0.4928
  451MOL0     H60868   5.959   2.710   5.247 -0.2500 -0.2626  0.4164
  451MOL0     H60869   5.604   2.725   5.538  0.3555 -1.5512  3.2243
  451MOL0     H60870   5.381   2.646   5.580 -1.7527 -2.4555  0.4561
  451MOL0     H60871   5.909   2.982   4.955 -0.7528  0.9814  0.9727
  451MOL0     H60872   6.102   3.112   4.889 -0.2774 -3.0932 -0.1896
  451MOL0     H60873   6.190   3.672   5.056 -0.1581 -1.6273  1.6065
  451MOL0     H60874   6.354   3.841   4.976  0.0414  1.0574 -1.1236
  451MOL0     H60875   6.503   3.872   4.746  1.1923  1.9627 -0.7224
  451MOL0     H60876   6.570   3.958   4.890  0.8654  2.7805 -2.8732
  451MOL0     H60877   6.697   4.005   4.663  0.4671  0.7008  0.6012
  451MOL0     H60878   6.742   3.833   4.673 -0.3142  1.4404 -2.4456
  451MOL0     H60879   6.841   3.877   4.903  2.8203 -1.6897 -1.4657
  451MOL0     H60880   6.832   4.052   4.863  1.3128  0.0963  0.4910
  451MOL0     H60881   6.979   3.843   4.706  0.2029 -1.3441  3.1718
  451MOL0     H60882   7.068   3.954   4.815 -0.1605 -0.2572  0.2775
  451MOL0     H60883   7.005   4.223   4.505  0.8037  0.4198  0.1496
  451MOL0     H60884   6.628   3.531   4.888  1.2716  3.3400  1.6258
  451MOL0     H60885   6.464   3.346   4.975 -2.8763 -1.3284 -0.6132
  452MOL0     O60886   4.582   2.840   6.927 -0.3575  0.3149 -0.3400
  452MOL0     C60887   4.573   2.715   6.933  0.4877 -0.9449  0.5823
  452MOL0     O60888   4.674   2.629   6.920  0.1113  0.5966  1.0584
  452MOL0     C60889   4.808   2.676   6.923 -0.3268  0.3437  0.5537
  452MOL0     C60890   4.860   2.708   7.044 -0.8383  0.0130 -0.4313
  452MOL0     C60891   4.977   2.777   7.051 -0.4197  0.6053 -0.2525
  452MOL0     C60892   5.061   2.800   6.935  0.1649  0.1743  0.1684
  452MOL0     O60893   5.176   2.875   6.953  0.6187  0.4034 -0.2589
  452MOL0     C60894   5.260   2.886   6.834  0.2984 -0.2309  1.0704
  452MOL0     C60895   5.393   2.946   6.875  0.4032  0.1189 -0.4317
  452MOL0     C60896   5.379   3.095   6.888  0.0871  0.1225  0.0237
  452MOL0     C60897   5.518   3.158   6.928  0.4245  0.6480  0.3040
  452MOL0     C60898   5.515   3.302   6.932  0.4339  0.7209  0.8659
  452MOL0     C60899   5.653   3.352   6.896  0.3750 -0.0653 -0.3388
  452MOL0     C60900   5.768   3.301   6.984 -0.0211 -0.8581  0.3868
  452MOL0     C60901   5.730   3.338   7.127  0.5577 -0.5189  0.3882
  452MOL0     N60902   5.830   3.303   7.219  0.1279 -0.3181  0.8590
  452MOL0     C60903   5.960   3.346   7.211  0.0177  0.2352  0.6654
  452MOL0     C60904   6.022   3.278   7.306 -0.3820  0.4256 -0.1042
  452MOL0     C60905   6.162   3.273   7.362  0.1274 -0.3414 -1.5488
  452MOL0     C60906   6.262   3.269   7.252  0.6958  1.3279 -0.2298
  452MOL0     C60907   6.395   3.235   7.320 -0.6776  0.4380  0.6948
  452MOL0     C60908   6.503   3.219   7.212  0.6671 -0.0173 -0.4602
  452MOL0     O60909   6.639   3.256   7.250 -0.6672  0.5613 -0.1479
  452MOL0     C60910   6.658   3.388   7.224 -0.2583 -0.9992 -0.2247
  452MOL0     C60911   6.711   3.437   7.107 -0.0522  0.8492  0.1541
  452MOL0     C60912   6.731   3.568   7.075  0.8094  0.9514 -0.8197
  452MOL0     C60913   6.787   3.596   6.936 -0.3040 -0.0463  1.0408
  452MOL0     C60914   6.705   3.669   7.175  0.7259  0.5857  0.4324
  452MOL0     C60915   6.735   3.807   7.144  0.5462 -0.6684  0.6553
  452MOL0     O60916   6.688   3.856   7.026 -0.0732  0.1984  0.5900
  452MOL0     C60917   6.681   3.987   7.000  0.2224 -0.2932 -0.1225
  452MOL0     C60918   6.742   4.024   6.883 -0.5250  0.1315  1.0268
  452MOL0     C60919   6.737   4.154   6.838  1.0763  0.6724  0.5330
  452MOL0     C60920   6.665   4.247   6.910  0.4682 -0.3480  0.2323
  452MOL0     O60921   6.666   4.381   6.865 -0.0448 -0.0786  0.3323
  452MOL0     C60922   6.666   4.481   6.969  0.0979  1.0189  0.8716
  452MOL0     C60923   6.661   4.621   6.906  0.4195 -0.6830  0.1179
  452MOL0     C60924   6.796   4.690   6.913  0.9132  0.2881 -0.8590
  452MOL0     C60925   6.789   4.840   6.919 -0.6102  0.1661 -0.6955
  452MOL0     C60926   6.935   4.903   6.928  0.1562 -0.8507  0.8152
  452MOL0     C60927   6.945   5.053   6.920  1.0752 -0.2245  0.1249
  452MOL0     C60928   7.082   5.105   6.876 -1.1875  0.7561 -0.2966
  452MOL0     C60929   7.095   5.251   6.833 -0.4572 -0.2894 -0.1211
  452MOL0    Cl60930   7.020   5.282   6.670 -0.4318  0.4849 -0.1572
  452MOL0     C60931   6.585   4.207   7.016 -0.7416  0.6098  0.0940
  452MOL0     C60932   6.594   4.078   7.067 -0.4105  0.1846  0.1173
  452MOL0     O60933   6.772   3.881   7.229  0.3765  1.0379  0.6766
  452MOL0     C60934   6.655   3.614   7.298 -0.8844  0.1525  0.9227
  452MOL0     C60935   6.630   3.483   7.319  0.7465  0.3037  0.6752
  452MOL0     N60936   5.930   3.197   7.371  0.3679 -0.2567 -0.2295
  452MOL0     N60937   5.813   3.219   7.323 -0.8656 -1.1125  0.0910
  452MOL0     C60938   5.010   2.761   6.816 -0.2866  0.0388 -0.3075
  452MOL0     C60939   4.881   2.701   6.803 -0.4154 -0.4998 -0.1054
  452MOL0     C60940   4.449   2.661   6.985  0.1020 -0.2990 -0.7609
  452MOL0     C60941   4.325   2.708   6.942  1.0956 -0.0829  1.1790
  452MOL0     C60942   4.208   2.666   7.012 -0.5978 -0.1373 -0.6012
  452MOL0     C60943   4.215   2.581   7.127  0.3624  0.6909  0.1318
  452MOL0     O60944   4.109   2.526   7.201  0.1612  0.1131  0.5159
  452MOL0     C60945   3.986   2.498   7.132  0.4635 -0.5364  0.4963
  452MOL0     C60946   3.888   2.488   7.249 -0.0585 -0.0428 -0.5456
  452MOL0     C60947   3.826   2.633   7.293  0.0638  0.6388  1.0056
  452MOL0     C60948   3.734   2.634   7.406  0.9963  0.6929  0.1453
  452MOL0     C60949   3.769   2.569   7.530  0.9364  0.5595  0.1389
  452MOL0     C60950   3.801   2.506   7.627 -0.3962 -0.7552 -0.4259
  452MOL0     C60951   4.343   2.537   7.170  0.1620 -1.0770 -0.2361
  452MOL0     C60952   4.458   2.578   7.103  0.0168 -0.1122  0.6941
  452MOL0     H60953   4.802   2.685   7.133 -0.2713  0.2877  0.0155
  452MOL0     H60954   5.013   2.798   7.151 -0.5544  0.7512 -0.2343
  452MOL0     H60955   5.287   2.795   6.780 -1.1163  1.8758 -3.7150
  452MOL0     H60956   5.205   2.949   6.764 -2.1730 -3.4057 -0.1152
  452MOL0     H60957   5.421   2.900   6.971 -1.8158  3.4936  2.0737
  452MOL0     H60958   5.467   2.917   6.800 -0.1174 -1.8378 -0.2280
  452MOL0     H60959   5.331   3.136   6.799 -0.4988 -0.9134 -0.1536
  452MOL0     H60960   5.308   3.111   6.970 -2.5866 -1.4591 -1.8369
  452MOL0     H60961   5.546   3.112   7.023  1.2444  0.0524 -0.2070
  452MOL0     H60962   5.586   3.126   6.849  0.2864  1.4237 -0.1355
  452MOL0     H60963   5.452   3.339   6.851  0.7198  0.7677  0.6648
  452MOL0     H60964   5.470   3.350   7.020 -3.2888  0.0082 -0.4306
  452MOL0     H60965   5.675   3.323   6.793 -1.2240  3.6652 -1.9128
  452MOL0     H60966   5.643   3.460   6.888  2.8440  0.2142 -0.5565
  452MOL0     H60967   5.784   3.195   6.963 -3.3854 -1.3803  0.0247
  452MOL0     H60968   5.861   3.357   6.968  0.4438 -1.9735 -1.0847
  452MOL0     H60969   5.636   3.290   7.154  1.3412 -3.5369 -1.7433
  452MOL0     H60970   5.713   3.446   7.114 -0.0838 -0.5502  0.9239
  452MOL0     H60971   6.000   3.407   7.130 -0.8900  2.8584  2.0912
  452MOL0     H60972   6.187   3.360   7.424 -0.1139 -0.0165 -1.9054
  452MOL0     H60973   6.171   3.182   7.423  4.3648 -2.3159 -4.5600
  452MOL0     H60974   6.258   3.365   7.201  2.8921  1.0296 -1.0296
  452MOL0     H60975   6.235   3.187   7.185 -0.8980  0.8890  0.8526
  452MOL0     H60976   6.391   3.144   7.381 -0.8230  1.9518  3.1065
  452MOL0     H60977   6.409   3.319   7.388 -1.0111  1.2171 -0.1762
  452MOL0     H60978   6.475   3.280   7.126 -1.7289 -0.5396 -0.1305
  452MOL0     H60979   6.491   3.115   7.180 -3.9701  0.4784 -1.0155
  452MOL0     H60980   6.718   3.361   7.029  0.9002  0.4485  0.6080
  452MOL0     H60981   6.714   3.613   6.857  0.2163  1.3222  0.8110
  452MOL0     H60982   6.861   3.676   6.946 -0.7409  0.7324 -1.4137
  452MOL0     H60983   6.841   3.510   6.897  1.1428  0.7861  1.1125
  452MOL0     H60984   6.786   3.942   6.827  0.4267  2.1264 -1.3614
  452MOL0     H60985   6.785   4.193   6.749 -1.0061  1.8185 -0.1619
  452MOL0     H60986   6.569   4.476   7.020 -0.8850 -2.6710 -0.9690
  452MOL0     H60987   6.747   4.468   7.040  2.5796 -2.2099 -2.1839
  452MOL0     H60988   6.632   4.604   6.802 -1.1887 -0.1501  0.4579
  452MOL0     H60989   6.587   4.687   6.951 -0.0637  0.7328 -2.5777
  452MOL0     H60990   6.859   4.640   6.839  1.2447 -3.6469  1.7751
  452MOL0     H60991   6.831   4.661   7.012 -4.2471 -2.0321  0.6791
  452MOL0     H60992   6.753   4.885   6.826  2.2690  1.8037 -1.1130
  452MOL0     H60993   6.726   4.871   7.003  2.0534  2.9659  0.4624
  452MOL0     H60994   6.988   4.865   6.840 -2.0657 -1.4641 -0.3212
  452MOL0     H60995   6.996   4.879   7.017  0.3575  1.2392  1.2848
  452MOL0     H60996   6.867   5.074   6.846  0.7074  0.4854  0.6902
  452MOL0     H60997   6.922   5.101   7.016  2.2932  0.3344  0.1550
  452MOL0     H60998   7.120   5.042   6.795  0.4375 -1.5522  2.0870
  452MOL0     H60999   7.151   5.082   6.958 -1.2294  1.3484 -0.0845
  452MOL0     H61000   7.199   5.283   6.839 -0.0772 -1.2828 -1.0245
  452MOL0     H61001   7.034   5.316   6.897 -2.5799  0.5086 -2.7662
  452MOL0     H61002   6.505   4.267   7.058  2.0113  5.2455 -0.5250
  452MOL0     H61003   6.537   4.045   7.153 -0.2537 -2.1208 -0.5804
  452MOL0     H61004   6.629   3.675   7.384 -1.8316  0.0123  0.7448
  452MOL0     H61005   6.597   3.446   7.416  2.2512 -1.9259  0.4111
  452MOL0     H61006   5.056   2.792   6.723 -1.0101  0.0176 -0.6803
  452MOL0     H61007   4.834   2.681   6.707  0.6628 -4.0532 -0.0112
  452MOL0     H61008   4.304   2.765   6.853 -0.7063 -1.8525  0.3822
  452MOL0     H61009   4.115   2.708   6.976 -0.5581  1.0099  0.5756
  452MOL0     H61010   3.960   2.583   7.068  1.4086  1.6735  2.8873
  452MOL0     H61011   3.988   2.408   7.070 -2.8840 -0.1529 -0.3874
  452MOL0     H61012   3.929   2.443   7.339 -0.0478 -3.3427 -2.0369
  452MOL0     H61013   3.809   2.420   7.213  0.3965 -0.6229 -0.4672
  452MOL0     H61014   3.771   2.668   7.205 -0.0312 -1.4229  0.1985
  452MOL0     H61015   3.910   2.700   7.316  0.3159  0.8942 -0.5537
  452MOL0     H61016   3.649   2.578   7.367  3.1153 -2.5335 -0.1885
  452MOL0     H61017   3.714   2.741   7.424 -1.1866  0.1461  1.4799
  452MOL0     H61018   3.838   2.441   7.703  2.2935  0.9811 -0.1049
  452MOL0     H61019   4.351   2.465   7.252  1.5450  1.5265  2.0545
  452MOL0     H61020   4.558   2.556   7.138  0.0428  1.0294  1.3899
  453MOL0     O61021   9.635   3.792   1.418 -0.0246  0.8280 -0.1356
  453MOL0     C61022   9.585   3.709   1.338  0.2358 -0.2044 -0.3791
  453MOL0     O61023   9.460   3.729   1.281 -0.4000  0.0077  0.5804
  453MOL0     C61024   9.390   3.836   1.312  0.2758  0.0990  0.6760
  453MOL0     C61025   9.421   3.951   1.247  0.3373 -0.5976  1.4389
  453MOL0     C61026   9.340   4.057   1.262 -0.6302  0.5280  0.5970
  453MOL0     C61027   9.222   4.062   1.334  0.7316 -0.1196  1.0764
  453MOL0     O61028   9.139   4.162   1.365  0.0331 -0.1151  0.4756
  453MOL0     C61029   9.162   4.272   1.282 -0.2745  0.0040  0.4519
  453MOL0     C61030   9.061   4.379   1.341 -0.0458  0.2889 -0.2220
  453MOL0     C61031   9.063   4.521   1.276 -0.6667 -0.6911 -0.0375
  453MOL0     C61032   8.964   4.540   1.154 -0.2230 -0.1516 -0.7537
  453MOL0     C61033   8.974   4.681   1.087  0.1572 -0.1190 -0.2587
  453MOL0     C61034   9.072   4.681   0.959 -0.1399 -1.0865  0.4291
  453MOL0     C61035   9.061   4.828   0.913  0.4320  0.1035 -0.0061
  453MOL0     C61036   9.143   4.855   0.786 -0.2176  0.4283 -0.3210
  453MOL0     N61037   9.284   4.818   0.790 -0.7048  0.1226  1.1290
  453MOL0     C61038   9.376   4.913   0.801 -0.9713 -0.1980  0.7612
  453MOL0     C61039   9.496   4.850   0.790  0.9810  1.0672 -0.0156
  453MOL0     C61040   9.622   4.912   0.835 -0.7294  0.0153 -0.7805
  453MOL0     C61041   9.659   4.862   0.979 -0.6980  0.6902 -0.1195
  453MOL0     C61042   9.788   4.926   1.043  0.3629  0.5415  1.1433
  453MOL0     C61043   9.914   4.901   0.958 -0.3230 -0.7825 -0.5610
  453MOL0     O61044   9.938   5.012   0.871 -0.2560  0.1342 -0.0715
  453MOL0     C61045  10.059   5.018   0.809  0.6285  0.2547  0.9746
  453MOL0     C61046  10.106   5.149   0.773  0.4633 -0.0337  0.2404
  453MOL0     C61047  10.235   5.167   0.727 -0.3264  0.2082  0.0970
  453MOL0     C61048  10.274   5.302   0.677 -0.7830 -0.8205  0.1460
  453MOL0     C61049  10.325   5.058   0.733 -0.1253 -0.4598  0.6201
  453MOL0     C61050  10.462   5.065   0.685  0.2557  0.2507 -0.3692
  453MOL0     O61051  10.476   5.074   0.550  0.1688  0.4161  0.1908
  453MOL0     C61052  10.608   5.074   0.496 -0.4271  0.1096 -0.4231
  453MOL0     C61053  10.638   5.185   0.415 -0.2710  0.3747  0.2179
  453MOL0     C61054  10.759   5.201   0.356 -0.2488  0.2045  0.0102
  453MOL0     C61055  10.865   5.118   0.387 -0.0214 -0.5252  1.0286
  453MOL0     O61056  10.984   5.142   0.325  0.2918  0.6477 -0.0190
  453MOL0     C61057  11.078   5.033   0.336  1.3142  0.4844 -0.1729
  453MOL0     C61058  11.215   5.068   0.278 -0.0525  0.1495 -0.1754
  453MOL0     C61059  11.259   5.197   0.316  0.1416 -0.3651 -0.2948
  453MOL0     C61060  11.413   5.206   0.305  0.3347 -0.6219  0.0653
  453MOL0     C61061  11.440   5.352   0.268  0.6827  0.4915  0.6919
  453MOL0     C61062  11.572   5.362   0.207 -0.0274  1.2611 -0.3149
  453MOL0     C61063  11.605   5.515   0.183  0.5676 -0.2161  0.4537
  453MOL0     C61064  11.742   5.527   0.096 -0.9478  0.3819  0.0556
  453MOL0    Cl61065  11.887   5.448   0.193 -0.2452 -0.0458  0.0410
  453MOL0     C61066  10.833   4.999   0.456  0.5370 -0.4552  0.4472
  453MOL0     C61067  10.706   4.981   0.517 -0.8130  0.4355  0.2408
  453MOL0     O61068  10.556   5.064   0.762  0.1540  1.1907  0.8231
  453MOL0     C61069  10.285   4.932   0.762  0.4289 -0.2449 -0.5479
  453MOL0     C61070  10.156   4.911   0.812 -0.2736  0.0214 -0.7015
  453MOL0     N61071   9.470   4.721   0.738 -0.6124 -0.1978  0.3561
  453MOL0     N61072   9.343   4.707   0.742 -0.2815 -0.3609  0.1292
  453MOL0     C61073   9.193   3.946   1.410  0.7497 -0.8461 -0.1473
  453MOL0     C61074   9.271   3.829   1.398 -0.6540 -0.6930  0.3206
  453MOL0     C61075   9.654   3.584   1.318 -0.1330  0.6725  0.3704
  453MOL0     C61076   9.780   3.569   1.377  0.3229  0.7883  0.1363
  453MOL0     C61077   9.845   3.450   1.351 -0.6102  0.3085 -0.3342
  453MOL0     C61078   9.789   3.350   1.265 -0.7236  0.5515  0.9097
  453MOL0     O61079   9.857   3.250   1.206 -0.1574  0.9018 -0.3248
  453MOL0     C61080   9.986   3.224   1.271  0.3557 -0.6586  1.4315
  453MOL0     C61081  10.039   3.088   1.222 -0.4078 -0.3549 -0.3661
  453MOL0     C61082  10.040   3.068   1.069 -0.6111  0.7626  0.0323
  453MOL0     C61083  10.094   2.936   1.014 -0.0023  0.6894 -0.8498
  453MOL0     C61084  10.017   2.815   1.054 -0.4398 -1.0299 -0.2357
  453MOL0     C61085   9.962   2.712   1.072  0.0928  0.3584 -0.5381
  453MOL0     C61086   9.660   3.365   1.214 -1.1893 -0.5511  0.4148
  453MOL0     C61087   9.592   3.486   1.225  0.0470 -0.4934  0.0240
  453MOL0     H61088   9.495   3.953   1.168 -1.3718 -1.5348 -0.2782
  453MOL0     H61089   9.387   4.151   1.237  0.3786  0.0675  0.7346
  453MOL0     H61090   9.261   4.311   1.309 -0.7559 -0.1988  2.7356
  453MOL0     H61091   9.143   4.240   1.180 -0.0070 -4.2986  1.5697
  453MOL0     H61092   8.961   4.334   1.339  0.4662 -0.8402 -1.3961
  453MOL0     H61093   9.091   4.399   1.444  1.6499 -1.5363 -0.3086
  453MOL0     H61094   9.027   4.585   1.357  1.9928 -0.4855  1.0804
  453MOL0     H61095   9.159   4.550   1.231 -1.2443 -1.9373 -2.2128
  453MOL0     H61096   8.977   4.454   1.088  2.5045  1.2535 -2.1935
  453MOL0     H61097   8.863   4.539   1.198 -0.5329 -0.2443 -1.4527
  453MOL0     H61098   8.874   4.692   1.043  1.2220  1.5886 -2.4377
  453MOL0     H61099   8.995   4.758   1.163  1.6197 -0.9066  0.1746
  453MOL0     H61100   9.177   4.653   0.970  0.0702  0.2637  2.8057
  453MOL0     H61101   9.025   4.613   0.888  1.4455 -0.8624 -0.8874
  453MOL0     H61102   8.958   4.859   0.893 -0.9315 -1.7095  3.4276
  453MOL0     H61103   9.102   4.887   0.995  0.2724 -0.9757  0.8725
  453MOL0     H61104   9.135   4.960   0.759 -1.8460  0.0457 -1.5197
  453MOL0     H61105   9.088   4.795   0.713 -0.1300  0.8282 -0.7172
  453MOL0     H61106   9.352   5.015   0.830  0.3683  1.2794 -2.8219
  453MOL0     H61107   9.701   4.892   0.761  2.7299  3.1363  1.6731
  453MOL0     H61108   9.617   5.021   0.843  1.8437  0.0614  2.1501
  453MOL0     H61109   9.678   4.754   0.979 -2.7430  0.2717  1.9234
  453MOL0     H61110   9.576   4.881   1.047 -0.2950  1.5630  0.1487
  453MOL0     H61111   9.795   4.880   1.142  1.1937  1.4528  1.5330
  453MOL0     H61112   9.771   5.034   1.053 -0.7365  0.3640  1.3257
  453MOL0     H61113   9.890   4.810   0.901  1.3256 -0.9708 -1.0227
  453MOL0     H61114   9.993   4.869   1.026 -0.0849  0.1701 -0.3740
  453MOL0     H61115  10.047   5.239   0.791  1.9164  1.3799 -1.6616
  453MOL0     H61116  10.372   5.308   0.627 -0.1644  3.5516  1.4426
  453MOL0     H61117  10.207   5.346   0.602 -1.7942  1.4313  2.2501
  453MOL0     H61118  10.281   5.366   0.765  0.2381  1.5173 -1.5351
  453MOL0     H61119  10.571   5.266   0.390 -1.4798 -0.0750  1.8096
  453MOL0     H61120  10.773   5.271   0.274  0.3921 -1.2488 -1.1782
  453MOL0     H61121  11.100   5.000   0.438  0.3743  1.3668  0.3362
  453MOL0     H61122  11.042   4.947   0.279  0.6219 -0.0508  1.0462
  453MOL0     H61123  11.279   4.988   0.316 -1.7950 -0.7924  0.9283
  453MOL0     H61124  11.210   5.058   0.169 -0.8606  1.5478 -0.3037
  453MOL0     H61125  11.233   5.228   0.418  0.5335 -1.3930  0.1346
  453MOL0     H61126  11.215   5.268   0.246  0.4813 -0.8525 -1.0131
  453MOL0     H61127  11.468   5.175   0.394  1.4294  1.8971  0.3353
  453MOL0     H61128  11.456   5.154   0.219  2.0515  1.5493 -0.4697
  453MOL0     H61129  11.423   5.416   0.355  1.3593  0.9418  0.5115
  453MOL0     H61130  11.368   5.380   0.191 -0.0841  0.2505  1.3143
  453MOL0     H61131  11.649   5.326   0.275  0.9902 -0.4192 -2.2564
  453MOL0     H61132  11.585   5.315   0.110 -1.4976  2.9376 -1.3943
  453MOL0     H61133  11.625   5.571   0.275 -0.0782  0.0875  0.4118
  453MOL0     H61134  11.526   5.559   0.122  1.5767 -0.8605 -1.4207
  453MOL0     H61135  11.761   5.634   0.083  0.7496  0.6760  3.6585
  453MOL0     H61136  11.733   5.469   0.004  0.2580  0.6057 -0.2216
  453MOL0     H61137  10.903   4.916   0.462  1.1312 -0.5287 -4.1873
  453MOL0     H61138  10.698   4.894   0.582 -0.3175 -0.8191 -1.3347
  453MOL0     H61139  10.360   4.853   0.756  0.3655 -0.2371 -1.9338
  453MOL0     H61140  10.138   4.809   0.847  2.2330 -0.1102  0.3837
  453MOL0     H61141   9.101   3.945   1.468  1.3254  3.7905  1.2783
  453MOL0     H61142   9.257   3.738   1.455  3.9534 -0.9507  1.4966
  453MOL0     H61143   9.827   3.644   1.439  1.6308  0.3322 -0.2822
  453MOL0     H61144   9.947   3.436   1.385  0.2507  2.1678 -1.9800
  453MOL0     H61145  10.053   3.307   1.248 -1.0959  0.1992  0.0807
  453MOL0     H61146   9.979   3.219   1.380 -0.3803 -0.1980  1.4124
  453MOL0     H61147   9.987   3.001   1.263 -0.5520  0.3627  1.0015
  453MOL0     H61148  10.143   3.076   1.255 -1.2229 -4.4159  1.3747
  453MOL0     H61149  10.099   3.150   1.028 -3.0274  3.2193  1.1771
  453MOL0     H61150   9.934   3.070   1.043 -0.8993  0.8951  1.1692
  453MOL0     H61151  10.192   2.923   1.061  0.0937 -1.1486 -1.4896
  453MOL0     H61152  10.122   2.936   0.908  3.9213 -2.9096 -0.0444
  453MOL0     H61153   9.917   2.619   1.101 -0.2967 -0.5244 -3.6831
  453MOL0     H61154   9.619   3.279   1.161  1.3621 -0.9597 -1.0464
  453MOL0     H61155   9.499   3.511   1.175 -0.6596 -0.6553  1.1978
  454MOL0     O61156   8.740   6.919   0.330 -0.4712 -0.0720 -0.1853
  454MOL0     C61157   8.617   6.898   0.338 -0.0912  0.1653 -0.3344
  454MOL0     O61158   8.548   6.778   0.296  0.1417 -0.5491 -0.4895
  454MOL0     C61159   8.602   6.666   0.241  0.0641  1.0756 -0.8495
  454MOL0     C61160   8.544   6.540   0.256  0.9271  0.0647  0.0019
  454MOL0     C61161   8.598   6.426   0.199  0.2288 -0.4902 -0.2651
  454MOL0     C61162   8.699   6.443   0.104  0.1085 -0.2497 -0.3025
  454MOL0     O61163   8.756   6.334   0.038  0.4683 -1.1628  0.5734
  454MOL0     C61164   8.670   6.220   0.014  1.2864 -0.3956  0.4234
  454MOL0     C61165   8.716   6.138  -0.105 -0.2180  0.1010  0.5579
  454MOL0     C61166   8.871   6.140  -0.125  1.0402 -0.3479 -0.2788
  454MOL0     C61167   8.913   6.033  -0.224 -0.1085  0.6062 -1.2118
  454MOL0     C61168   8.924   5.891  -0.154 -0.2829  0.2643 -0.2115
  454MOL0     C61169   8.959   5.782  -0.259  0.3223 -0.7450 -0.1761
  454MOL0     C61170   9.103   5.776  -0.317  0.1150 -0.7057  0.2163
  454MOL0     C61171   9.185   5.689  -0.223  0.1571  0.3061  0.3459
  454MOL0     N61172   9.322   5.676  -0.275 -0.5227  0.3466 -0.7446
  454MOL0     C61173   9.418   5.774  -0.270 -0.0877 -0.0132 -0.4197
  454MOL0     C61174   9.536   5.709  -0.294  1.0203 -0.1522 -0.8313
  454MOL0     C61175   9.672   5.767  -0.297  0.2230 -0.0305  0.5693
  454MOL0     C61176   9.725   5.802  -0.149  0.3790  0.4488  0.7994
  454MOL0     C61177   9.635   5.908  -0.093  0.7145 -1.0919  0.1489
  454MOL0     C61178   9.700   5.986   0.020  1.1583 -0.9961 -0.5329
  454MOL0     O61179   9.599   6.065   0.090  0.0260 -0.1507 -0.0349
  454MOL0     C61180   9.661   6.144   0.188  0.5477 -0.0591 -0.4570
  454MOL0     C61181   9.725   6.261   0.165  0.4867 -0.2028 -0.5434
  454MOL0     C61182   9.789   6.338   0.263  0.0008 -0.3297  0.5909
  454MOL0     C61183   9.858   6.468   0.216  0.4141  0.1172  0.0433
  454MOL0     C61184   9.782   6.305   0.399  0.3891 -0.3034 -0.1323
  454MOL0     C61185   9.830   6.390   0.513 -0.2002  0.6492 -0.2073
  454MOL0     O61186   9.789   6.360   0.640 -0.2358  0.2960 -0.3040
  454MOL0     C61187   9.880   6.350   0.737 -0.2661  0.6670 -1.0481
  454MOL0     C61188   9.993   6.283   0.746 -0.2368  0.1939 -0.4340
  454MOL0     C61189  10.075   6.263   0.859  0.1513 -0.0970 -0.2031
  454MOL0     C61190  10.035   6.315   0.974  0.2159 -0.3725 -0.0578
  454MOL0     O61191  10.115   6.289   1.089  0.9464 -0.4708 -0.7365
  454MOL0     C61192  10.144   6.399   1.183  0.0125 -0.0205 -0.1517
  454MOL0     C61193  10.210   6.517   1.126  0.2004 -0.7320  0.4696
  454MOL0     C61194  10.355   6.490   1.083 -0.2921 -0.2320 -0.2190
  454MOL0     C61195  10.461   6.560   1.172  0.3425  0.1744 -0.4163
  454MOL0     C61196  10.598   6.552   1.103 -0.5693 -0.5896 -0.0484
  454MOL0     C61197  10.700   6.553   1.217 -0.6479  0.4200  0.7992
  454MOL0     C61198  10.835   6.542   1.148 -0.5467  0.5631  0.6008
  454MOL0     C61199  10.941   6.531   1.263 -0.4445  0.7602  0.9059
  454MOL0    Cl61200  10.954   6.681   1.360  0.4948 -0.3973  0.4239
  454MOL0     C61201   9.923   6.400   0.972  0.0323 -0.8758 -1.0476
  454MOL0     C61202   9.845   6.413   0.854  1.1478 -0.5659 -0.7077
  454MOL0     O61203   9.923   6.466   0.479  0.7876  0.1075 -0.2517
  454MOL0     C61204   9.718   6.176   0.417 -0.5660  0.2620 -0.0034
  454MOL0     C61205   9.655   6.104   0.321  1.0171  0.5652 -0.0837
  454MOL0     N61206   9.509   5.582  -0.334  0.5692  0.1339 -0.3853
  454MOL0     N61207   9.378   5.561  -0.317  0.3577  0.8743  0.5201
  454MOL0     C61208   8.760   6.572   0.082 -0.0745 -0.2577  0.4576
  454MOL0     C61209   8.710   6.681   0.152 -0.2839  1.1909  0.2434
  454MOL0     C61210   8.515   7.000   0.395 -0.0569 -0.3042 -0.0815
  454MOL0     C61211   8.378   6.990   0.373 -1.5165 -0.1301 -0.3026
  454MOL0     C61212   8.301   7.097   0.407  0.4143  2.0086  0.2837
  454MOL0     C61213   8.341   7.211   0.473  0.8050 -0.3239  0.3793
  454MOL0     O61214   8.244   7.299   0.499 -0.1127  0.3444 -0.2642
  454MOL0     C61215   8.263   7.402   0.591 -0.2722 -0.7567 -0.5077
  454MOL0     C61216   8.147   7.495   0.585  0.9461 -0.1731  0.2785
  454MOL0     C61217   8.163   7.608   0.678 -0.4912  0.3877  0.1274
  454MOL0     C61218   8.245   7.733   0.626  0.5414  0.3481 -0.2959
  454MOL0     C61219   8.174   7.795   0.516  0.7949 -0.0937  0.1098
  454MOL0     C61220   8.092   7.845   0.436  0.3489 -0.1371 -0.2201
  454MOL0     C61221   8.469   7.211   0.517 -0.7075  0.5584  0.6459
  454MOL0     C61222   8.565   7.113   0.471  0.1418  0.2097  0.5798
  454MOL0     H61223   8.452   6.527   0.312 -0.6282 -2.6106 -2.8535
  454MOL0     H61224   8.540   6.335   0.192 -0.9801 -0.0102  2.1908
  454MOL0     H61225   8.681   6.156   0.102  0.0977 -0.0516  0.8361
  454MOL0     H61226   8.565   6.245  -0.002  0.9024 -1.7526  0.6775
  454MOL0     H61227   8.692   6.033  -0.087  0.0788 -0.5726 -2.4736
  454MOL0     H61228   8.660   6.149  -0.199 -0.6887 -2.7334  0.4203
  454MOL0     H61229   8.903   6.243  -0.143  2.4646 -0.3682  1.8195
  454MOL0     H61230   8.921   6.132  -0.029  0.0894 -2.4717  0.0857
  454MOL0     H61231   8.835   6.024  -0.301 -0.8109  0.6265 -0.5241
  454MOL0     H61232   9.004   6.067  -0.273 -0.5369  0.9018 -1.8182
  454MOL0     H61233   8.998   5.883  -0.075  2.1033 -2.5321 -2.5094
  454MOL0     H61234   8.831   5.863  -0.102 -0.1282 -1.4114 -0.7631
  454MOL0     H61235   8.943   5.685  -0.211 -0.3260 -1.1033 -1.1008
  454MOL0     H61236   8.887   5.789  -0.341 -0.8394 -0.0389  0.8708
  454MOL0     H61237   9.100   5.718  -0.410 -0.2867 -2.9133  1.5215
  454MOL0     H61238   9.149   5.871  -0.347  1.2111 -2.1320 -3.1885
  454MOL0     H61239   9.144   5.588  -0.212 -1.0232  0.9308  2.2903
  454MOL0     H61240   9.184   5.736  -0.124 -0.5747  1.0556 -0.0050
  454MOL0     H61241   9.396   5.877  -0.244 -1.1736 -0.3569  0.0709
  454MOL0     H61242   9.747   5.702  -0.344 -2.1728 -1.8079 -1.0345
  454MOL0     H61243   9.680   5.851  -0.366  0.8473  0.8321  1.6480
  454MOL0     H61244   9.831   5.824  -0.161  0.3960 -0.6219 -1.6669
  454MOL0     H61245   9.717   5.715  -0.083  1.9564  1.5412  2.5259
  454MOL0     H61246   9.554   5.854  -0.044  0.1650 -1.3136 -0.9631
  454MOL0     H61247   9.583   5.970  -0.167  0.0156 -1.3509  0.4229
  454MOL0     H61248   9.782   6.044  -0.024  1.4869  1.3142  2.7685
  454MOL0     H61249   9.748   5.918   0.091  2.2319  1.1049  0.8613
  454MOL0     H61250   9.729   6.288   0.060  0.2836  3.8924  0.3521
  454MOL0     H61251   9.829   6.555   0.275 -0.3105  0.5562 -0.9264
  454MOL0     H61252   9.965   6.447   0.216  0.2684 -1.3308  3.8146
  454MOL0     H61253   9.822   6.493   0.115 -0.9894  0.8391  0.6904
  454MOL0     H61254  10.021   6.247   0.647  1.9611  1.9799 -0.5710
  454MOL0     H61255  10.164   6.202   0.847 -2.6424 -4.2966 -2.3932
  454MOL0     H61256  10.053   6.429   1.237  0.3703  0.1876  0.3465
  454MOL0     H61257  10.211   6.365   1.263 -1.4546 -0.6474  0.8555
  454MOL0     H61258  10.143   6.553   1.047 -0.9823  0.1939  1.8486
  454MOL0     H61259  10.210   6.602   1.195  0.9415 -1.4948  1.4407
  454MOL0     H61260  10.365   6.512   0.976  2.7806 -3.4016 -0.7848
  454MOL0     H61261  10.383   6.385   1.091  1.6397  0.0425 -2.2036
  454MOL0     H61262  10.444   6.666   1.192  1.0960  0.0153  1.3021
  454MOL0     H61263  10.460   6.514   1.272  1.1252  3.4532  1.2476
  454MOL0     H61264  10.613   6.634   1.032  0.0390  0.7516  1.5750
  454MOL0     H61265  10.602   6.452   1.058  2.5329 -0.3735 -0.4310
  454MOL0     H61266  10.685   6.638   1.284 -0.0868  0.0598  1.3990
  454MOL0     H61267  10.684   6.457   1.266 -0.7628  0.8757  1.6673
  454MOL0     H61268  10.856   6.619   1.073 -0.1787  0.4814  0.6188
  454MOL0     H61269  10.846   6.456   1.081 -3.5021  1.3193 -1.0539
  454MOL0     H61270  11.035   6.486   1.228 -1.4054 -1.8837  1.4412
  454MOL0     H61271  10.907   6.453   1.332  2.1305 -1.4379 -0.1296
  454MOL0     H61272   9.893   6.433   1.071  2.1143 -2.5884  0.2541
  454MOL0     H61273   9.757   6.477   0.853  0.3298 -1.6425  0.4605
  454MOL0     H61274   9.695   6.132   0.514 -2.7421 -2.9655 -1.7608
  454MOL0     H61275   9.611   6.011   0.356  2.4232  0.9587  3.0275
  454MOL0     H61276   8.840   6.569   0.009  0.7536 -0.8999  1.3763
  454MOL0     H61277   8.748   6.777   0.119  0.5197  0.3311 -1.5164
  454MOL0     H61278   8.338   6.894   0.342  1.8452 -1.1902 -1.9091
  454MOL0     H61279   8.195   7.084   0.390  0.6352 -3.2165  1.3607
  454MOL0     H61280   8.275   7.367   0.694 -0.3427  1.1966  0.2142
  454MOL0     H61281   8.352   7.460   0.566 -0.0155 -1.3467 -0.9976
  454MOL0     H61282   8.059   7.442   0.623  0.4059  0.0729 -0.5966
  454MOL0     H61283   8.122   7.519   0.481 -0.6080  0.4081  0.7587
  454MOL0     H61284   8.207   7.559   0.766  3.9757  0.5821 -1.7259
  454MOL0     H61285   8.065   7.640   0.717 -0.7430  1.0354 -1.0016
  454MOL0     H61286   8.344   7.698   0.596 -0.2504 -1.2085 -1.2184
  454MOL0     H61287   8.263   7.813   0.699  0.1941  1.9876 -1.9057
  454MOL0     H61288   8.031   7.866   0.351 -1.8607 -0.7423  1.1283
  454MOL0     H61289   8.503   7.297   0.573 -0.4666  0.8981 -0.0086
  454MOL0     H61290   8.671   7.121   0.491 -0.3130  0.1297  3.3406
  455MOL0     O61291   3.761   2.308   7.882 -0.4420  0.2573  0.2670
  455MOL0     C61292   3.685   2.214   7.921  0.7571 -0.5131  0.4627
  455MOL0     O61293   3.714   2.131   8.017 -0.2159 -0.2929  0.0710
  455MOL0     C61294   3.836   2.142   8.068 -0.3990  0.2951 -0.0012
  455MOL0     C61295   3.835   2.127   8.209 -0.0211  0.5862 -0.3252
  455MOL0     C61296   3.954   2.125   8.289  1.0791 -0.1718  0.5697
  455MOL0     C61297   4.073   2.127   8.212 -0.4417  0.1476  0.2264
  455MOL0     O61298   4.189   2.113   8.271 -0.9252 -0.2551  0.7375
  455MOL0     C61299   4.209   2.000   8.362 -0.4814 -0.1926  0.0832
  455MOL0     C61300   4.350   2.003   8.420  0.7773  0.8451  0.6658
  455MOL0     C61301   4.365   2.115   8.533 -0.6355  1.0827 -0.0108
  455MOL0     C61302   4.512   2.099   8.588 -0.1511 -0.0310  0.5556
  455MOL0     C61303   4.545   2.204   8.699  0.2655  0.5295  0.0850
  455MOL0     C61304   4.697   2.208   8.729  0.7828 -0.1752  0.7947
  455MOL0     C61305   4.716   2.304   8.843  0.0986 -0.3954 -0.9032
  455MOL0     C61306   4.863   2.334   8.872  0.3157 -0.3039 -0.0490
  455MOL0     N61307   4.873   2.449   8.964  0.8012 -0.5702 -0.7728
  455MOL0     C61308   4.830   2.446   9.100 -0.1334  0.3136 -0.5273
  455MOL0     C61309   4.877   2.564   9.144  0.0253  0.4542 -0.7689
  455MOL0     C61310   4.843   2.628   9.282  0.2879 -0.0844 -0.7135
  455MOL0     C61311   4.968   2.613   9.365 -0.4238 -0.2683 -0.7421
  455MOL0     C61312   4.943   2.648   9.511 -0.0814 -0.4811 -0.2564
  455MOL0     C61313   5.038   2.566   9.602 -0.1433  0.1243 -0.2015
  455MOL0     O61314   5.163   2.636   9.621  0.5855  0.6846 -0.4636
  455MOL0     C61315   5.249   2.586   9.710  0.0204  0.6171  0.8160
  455MOL0     C61316   5.357   2.678   9.739  0.3332 -0.0076  0.3287
  455MOL0     C61317   5.460   2.658   9.835 -0.4955  0.0179  0.5637
  455MOL0     C61318   5.558   2.769   9.857  0.0361 -0.3978 -0.7218
  455MOL0     C61319   5.447   2.543   9.914  0.3442 -0.1677  0.0805
  455MOL0     C61320   5.542   2.509  10.022  0.0295 -0.2706  0.6876
  455MOL0     O61321   5.492   2.465  10.137  1.2643  0.0392 -0.5416
  455MOL0     C61322   5.575   2.464  10.249  0.7757 -0.3481  0.4558
  455MOL0     C61323   5.660   2.577  10.280  0.5234 -0.2730  0.6115
  455MOL0     C61324   5.744   2.559  10.383 -0.6186 -0.2310 -0.0183
  455MOL0     C61325   5.752   2.447  10.466 -0.3387 -0.9367 -0.2151
  455MOL0     O61326   5.857   2.458  10.564  0.6019  0.0717  0.4701
  455MOL0     C61327   5.885   2.338  10.640  0.7181 -0.2276  0.0882
  455MOL0     C61328   6.011   2.378  10.721 -0.4576  0.1160 -0.9631
  455MOL0     C61329   5.973   2.481  10.834 -0.2803 -0.5208 -0.9972
  455MOL0     C61330   5.962   2.407  10.969 -0.2742 -0.1907  0.2094
  455MOL0     C61331   6.100   2.383  11.052  0.2773 -0.3726  0.2572
  455MOL0     C61332   6.166   2.518  11.091 -0.8385 -0.3592 -0.8782
  455MOL0     C61333   6.283   2.505  11.192 -0.2842 -0.0295  1.6044
  455MOL0     C61334   6.338   2.654  11.208 -0.1288  0.4421 -0.2959
  455MOL0    Cl61335   6.477   2.622  11.324  0.3405  0.5499  0.2809
  455MOL0     C61336   5.669   2.350  10.434 -0.0542 -0.2732  0.2249
  455MOL0     C61337   5.571   2.361  10.333 -0.7141 -0.3238 -0.2729
  455MOL0     O61338   5.660   2.501   9.994  0.1306  0.6165  0.8240
  455MOL0     C61339   5.337   2.457   9.893  0.7658 -0.1870  0.8318
  455MOL0     C61340   5.240   2.474   9.789  0.1105 -0.0571 -0.1781
  455MOL0     N61341   4.935   2.635   9.045  0.4043 -0.5263 -0.0835
  455MOL0     N61342   4.942   2.567   8.939  0.2718 -0.1876  0.1621
  455MOL0     C61343   4.079   2.140   8.078  0.2928 -0.3682  0.9086
  455MOL0     C61344   3.960   2.133   8.005 -0.7168  0.6618  0.9025
  455MOL0     C61345   3.562   2.182   7.852  0.4940  0.5305 -0.6383
  455MOL0     C61346   3.516   2.264   7.745 -0.5990 -0.9309  0.5547
  455MOL0     C61347   3.394   2.226   7.676  0.2465  0.9089  0.2418
  455MOL0     C61348   3.317   2.117   7.707 -0.4970 -0.2075  0.2131
  455MOL0     O61349   3.198   2.090   7.651  0.1783 -0.2724  0.3127
  455MOL0     C61350   3.175   2.119   7.509  0.7533  0.2454 -1.4951
  455MOL0     C61351   3.077   2.030   7.435  0.3361  0.8601 -0.0142
  455MOL0     C61352   3.103   1.885   7.477 -0.2409 -0.8227  1.0885
  455MOL0     C61353   3.015   1.778   7.399  0.1305  0.1070 -1.2199
  455MOL0     C61354   3.074   1.648   7.444 -0.3453  0.1930 -0.1296
  455MOL0     C61355   3.124   1.541   7.484  0.2841  0.0793 -0.8393
  455MOL0     C61356   3.365   2.040   7.817 -0.8211 -0.6514 -0.0233
  455MOL0     C61357   3.476   2.077   7.890 -0.5569 -1.1780 -0.3763
  455MOL0     H61358   3.738   2.102   8.251  0.7462 -2.0337  0.0509
  455MOL0     H61359   3.945   2.118   8.396 -1.7460 -0.5066  0.3806
  455MOL0     H61360   4.133   1.983   8.439 -0.5266 -0.1484  0.0482
  455MOL0     H61361   4.212   1.908   8.303  2.8542  0.2040 -0.5501
  455MOL0     H61362   4.363   1.904   8.462 -3.1246  0.8651  2.3902
  455MOL0     H61363   4.423   2.018   8.340 -0.2621 -0.6811 -0.6241
  455MOL0     H61364   4.349   2.210   8.482 -0.4606  0.9544 -0.3081
  455MOL0     H61365   4.289   2.106   8.611 -3.8283  3.3792 -2.5980
  455MOL0     H61366   4.539   1.993   8.599 -2.0506 -0.6420 -0.1265
  455MOL0     H61367   4.571   2.126   8.500 -0.4799  2.8320  1.1329
  455MOL0     H61368   4.516   2.303   8.664 -0.3726  0.5189  0.5629
  455MOL0     H61369   4.495   2.193   8.796  3.1568  2.1542  1.9006
  455MOL0     H61370   4.724   2.103   8.743 -2.1488 -1.0733  0.4575
  455MOL0     H61371   4.743   2.246   8.638  0.5794 -4.1005 -1.1832
  455MOL0     H61372   4.672   2.403   8.829  0.3238  0.5708  3.5908
  455MOL0     H61373   4.667   2.261   8.931 -0.0783  1.1209 -0.2250
  455MOL0     H61374   4.918   2.355   8.780 -0.6172  0.8749 -0.3553
  455MOL0     H61375   4.895   2.237   8.912  1.9043 -0.0979 -0.7314
  455MOL0     H61376   4.776   2.369   9.155  1.3347 -0.0418  0.4881
  455MOL0     H61377   4.827   2.735   9.265 -1.8079 -0.3362 -0.5537
  455MOL0     H61378   4.760   2.578   9.332  1.9070 -1.1110  1.0792
  455MOL0     H61379   5.044   2.677   9.319  0.0584 -0.2256  0.0960
  455MOL0     H61380   4.997   2.508   9.362  0.4612 -0.0362 -0.4698
  455MOL0     H61381   4.838   2.630   9.536 -0.0816 -1.3011 -0.8161
  455MOL0     H61382   4.963   2.752   9.536  3.7302 -1.1113 -0.1346
  455MOL0     H61383   5.046   2.461   9.574 -3.4369 -0.2272 -0.2190
  455MOL0     H61384   4.993   2.569   9.702  0.6152 -0.3328  0.1605
  455MOL0     H61385   5.369   2.769   9.682  0.0990  0.8220  1.5821
  455MOL0     H61386   5.598   2.769   9.958  0.7316  0.5634 -0.9815
  455MOL0     H61387   5.640   2.774   9.785  1.4247 -1.9257  0.6778
  455MOL0     H61388   5.506   2.865   9.849  0.3262 -0.0075  1.4993
  455MOL0     H61389   5.651   2.673  10.230  2.6325  0.5588  1.7223
  455MOL0     H61390   5.820   2.636  10.397  2.1714 -2.4415 -1.7404
  455MOL0     H61391   5.803   2.299  10.700 -0.6618  1.8499 -0.3447
  455MOL0     H61392   5.915   2.252  10.579 -0.0036  0.5565 -1.4567
  455MOL0     H61393   6.070   2.297  10.765 -0.5660  1.6151  2.2459
  455MOL0     H61394   6.085   2.428  10.657  0.0043  0.0377 -0.5001
  455MOL0     H61395   5.884   2.535  10.802  1.4674  2.1477 -1.6676
  455MOL0     H61396   6.033   2.569  10.859 -2.0696  0.2134  0.9762
  455MOL0     H61397   5.902   2.478  11.026  0.8090  2.0607 -1.3068
  455MOL0     H61398   5.912   2.311  10.956 -2.2672  0.6047  1.6362
  455MOL0     H61399   6.160   2.324  10.983 -0.1220  0.9480 -1.2864
  455MOL0     H61400   6.078   2.325  11.142 -1.1959 -1.0881 -0.5281
  455MOL0     H61401   6.208   2.554  10.997 -1.7838  0.9087 -0.8358
  455MOL0     H61402   6.093   2.596  11.114 -0.0309  0.6527 -1.6823
  455MOL0     H61403   6.348   2.428  11.149 -0.4849 -0.5426  2.2110
  455MOL0     H61404   6.246   2.478  11.291 -1.7326  0.5161  1.2390
  455MOL0     H61405   6.263   2.720  11.251  1.5251  0.5144  2.7511
  455MOL0     H61406   6.375   2.678  11.108  0.1327 -1.0170 -0.5860
  455MOL0     H61407   5.663   2.262  10.498 -0.4650 -2.4615 -2.5987
  455MOL0     H61408   5.500   2.282  10.313  0.2418 -0.8137 -1.9525
  455MOL0     H61409   5.344   2.367   9.953  1.5361  0.0531  1.1198
  455MOL0     H61410   5.165   2.396   9.781 -0.1556  0.2269 -0.4865
  455MOL0     H61411   4.176   2.136   8.029  0.3546  0.4393  0.9509
  455MOL0     H61412   3.961   2.129   7.897 -0.6404  2.5408  0.8097
  455MOL0     H61413   3.560   2.362   7.729 -1.7841 -0.6322 -1.2043
  455MOL0     H61414   3.387   2.301   7.599  3.0004  2.5666  1.4600
  455MOL0     H61415   3.135   2.219   7.493  3.7241  1.6724 -0.8074
  455MOL0     H61416   3.273   2.115   7.460  2.5449 -2.4901  1.8950
  455MOL0     H61417   3.097   2.045   7.328  2.1083  3.0543  0.5537
  455MOL0     H61418   2.974   2.056   7.460 -0.2788  0.8315 -2.2483
  455MOL0     H61419   3.065   1.887   7.579  0.4082 -1.3749  1.3466
  455MOL0     H61420   3.211   1.871   7.477  0.2007  1.5307 -1.6697
  455MOL0     H61421   3.020   1.795   7.292  3.4578 -0.6466 -1.3249
  455MOL0     H61422   2.918   1.789   7.447  1.7664  0.8861  2.2878
  455MOL0     H61423   3.179   1.451   7.503  1.3608  1.3626  3.1808
  455MOL0     H61424   3.302   1.953   7.831  0.0497 -1.4877 -1.1235
  455MOL0     H61425   3.513   2.020   7.975 -2.2238  0.1710  1.3402
  456MOL0     O61426   8.734  10.585   2.148 -0.7341 -0.2998 -0.9507
  456MOL0     C61427   8.763  10.665   2.057 -0.4205 -0.3007 -0.5235
  456MOL0     O61428   8.883  10.714   2.022 -0.1791 -0.1866 -0.1052
  456MOL0     C61429   8.994  10.639   2.055  0.2310  0.3924 -0.2612
  456MOL0     C61430   9.010  10.501   2.039  0.5838  1.3426 -0.3079
  456MOL0     C61431   9.132  10.436   2.064  0.5036 -0.0949  0.1653
  456MOL0     C61432   9.237  10.509   2.120  0.2467  0.2512 -1.3592
  456MOL0     O61433   9.355  10.461   2.162  1.1291 -0.6226  0.0891
  456MOL0     C61434   9.432  10.349   2.109  0.0037 -1.0391 -0.6776
  456MOL0     C61435   9.515  10.289   2.219 -0.3825  0.6598  0.1736
  456MOL0     C61436   9.598  10.168   2.148  0.7823  0.6274 -0.2177
  456MOL0     C61437   9.712  10.122   2.244  0.3229  1.3123  0.7226
  456MOL0     C61438   9.827  10.046   2.172 -0.2815  1.6085  0.6064
  456MOL0     C61439   9.918   9.965   2.275  0.5750 -0.5195  0.0848
  456MOL0     C61440  10.006  10.058   2.362  0.0442  0.0291 -0.9975
  456MOL0     C61441  10.122  10.123   2.290 -0.3213  0.4446 -0.0935
  456MOL0     N61442  10.192  10.031   2.193 -0.1521  0.7393  0.0503
  456MOL0     C61443  10.168  10.012   2.065  0.7700  0.1328 -0.3261
  456MOL0     C61444  10.220   9.899   2.032 -0.1271  0.1219 -0.4266
  456MOL0     C61445  10.179   9.817   1.917  0.6024  0.2389  0.0886
  456MOL0     C61446  10.032   9.809   1.895  0.4846  0.3880 -0.0785
  456MOL0     C61447   9.993   9.870   1.764  0.1058  0.4157  0.5950
  456MOL0     C61448   9.994   9.777   1.648 -0.4896  0.0584  0.0127
  456MOL0     O61449  10.124   9.745   1.586  0.8345  0.2489  0.9495
  456MOL0     C61450  10.118   9.652   1.483 -0.1616 -0.0605  0.4185
  456MOL0     C61451  10.242   9.605   1.440  0.0999 -0.0264 -0.2363
  456MOL0     C61452  10.260   9.505   1.347 -0.8431  0.4904 -0.0117
  456MOL0     C61453  10.408   9.464   1.319  0.5625  0.2530 -0.3880
  456MOL0     C61454  10.156   9.473   1.262  1.2952  0.1045 -0.5802
  456MOL0     C61455  10.157   9.386   1.138  0.1743 -0.3430 -0.6935
  456MOL0     O61456  10.268   9.307   1.125 -0.0780 -0.4146 -0.3065
  456MOL0     C61457  10.299   9.246   1.003 -0.2386  0.4971  0.2840
  456MOL0     C61458  10.371   9.126   1.006  0.2844  0.2124  0.3630
  456MOL0     C61459  10.420   9.073   0.884  0.8065  0.5275  0.4229
  456MOL0     C61460  10.403   9.136   0.753  0.4098 -0.2427  0.5521
  456MOL0     O61461  10.457   9.073   0.641 -0.3521  0.3392 -0.2597
  456MOL0     C61462  10.446   9.148   0.516 -0.4640  0.1618  0.6193
  456MOL0     C61463  10.542   9.082   0.412 -1.0435  0.2035 -0.3747
  456MOL0     C61464  10.575   9.179   0.300  0.2242 -0.2016 -1.1465
  456MOL0     C61465  10.687   9.117   0.208 -0.6400  0.4998 -0.1731
  456MOL0     C61466  10.638   9.049   0.082 -0.1129 -0.6979 -1.5227
  456MOL0     C61467  10.746   9.044  -0.027  0.1531  0.0333 -0.2338
  456MOL0     C61468  10.798   9.174  -0.087 -0.0620  0.0706 -0.0093
  456MOL0     C61469  10.929   9.164  -0.166  0.2799 -0.1446 -0.6474
  456MOL0    Cl61470  10.892   9.041  -0.295 -0.2240 -0.0522 -0.0720
  456MOL0     C61471  10.324   9.256   0.759  0.7957 -0.7558  0.0833
  456MOL0     C61472  10.280   9.303   0.881  0.3484 -0.0681  0.5648
  456MOL0     O61473  10.065   9.400   1.057 -0.2013 -0.0906  0.3795
  456MOL0     C61474  10.023   9.532   1.293 -0.3180 -1.2746  0.2079
  456MOL0     C61475  10.000   9.605   1.406 -0.1465  0.3893 -0.7741
  456MOL0     N61476  10.311   9.863   2.132 -0.3797  0.1461 -0.5605
  456MOL0     N61477  10.292   9.949   2.233  0.0282 -0.2518  0.5498
  456MOL0     C61478   9.224  10.651   2.136 -0.1006  0.0660  0.2572
  456MOL0     C61479   9.102  10.716   2.111 -0.6832 -0.3017  0.7919
  456MOL0     C61480   8.648  10.739   1.999 -0.5020  0.1956  0.1138
  456MOL0     C61481   8.520  10.726   2.049 -0.9272  0.0590 -0.5214
  456MOL0     C61482   8.414  10.806   2.004 -0.0371  0.1084  0.3987
  456MOL0     C61483   8.430  10.908   1.922  0.1958 -0.7418  1.2554
  456MOL0     O61484   8.320  10.986   1.873 -0.2056  0.3142  0.2710
  456MOL0     C61485   8.354  11.108   1.795 -0.3339 -0.1173 -0.5235
  456MOL0     C61486   8.230  11.187   1.783  0.2899  0.0592  1.0307
  456MOL0     C61487   8.227  11.258   1.651 -0.2104  0.6330 -0.2064
  456MOL0     C61488   8.098  11.324   1.633  0.3131 -0.3977 -0.1312
  456MOL0     C61489   8.086  11.369   1.491 -0.1219  0.0549 -0.1812
  456MOL0     C61490   8.086  11.399   1.375  0.1061 -0.4840 -0.9173
  456MOL0     C61491   8.557  10.923   1.864 -0.0340  0.1653  0.2972
  456MOL0     C61492   8.657  10.839   1.901 -0.6751 -0.0280  0.3095
  456MOL0     H61493   8.930  10.440   1.998  2.8196 -0.6643 -1.9962
  456MOL0     H61494   9.155  10.333   2.037  0.0983 -0.4067  0.9709
  456MOL0     H61495   9.364  10.272   2.073 -0.9806  0.0200 -1.1232
  456MOL0     H61496   9.496  10.384   2.028  1.1369 -2.1885 -0.3238
  456MOL0     H61497   9.579  10.364   2.267 -0.9572  0.2007  1.7066
  456MOL0     H61498   9.451  10.241   2.293  0.5122  0.2083  0.6791
  456MOL0     H61499   9.536  10.083   2.115  0.8442  1.1961 -1.8975
  456MOL0     H61500   9.656  10.216   2.068  0.7653 -0.9958 -1.2720
  456MOL0     H61501   9.748  10.214   2.289 -2.4267  2.9246 -0.1598
  456MOL0     H61502   9.671  10.058   2.323  4.0036 -0.1872  1.6152
  456MOL0     H61503   9.780   9.964   2.118 -0.9781  0.5876  2.6629
  456MOL0     H61504   9.885  10.108   2.103 -2.1411  3.8398  0.9312
  456MOL0     H61505   9.862   9.893   2.335 -1.8236  0.4113 -0.9009
  456MOL0     H61506   9.987   9.909   2.211 -0.1253  1.0677 -2.1716
  456MOL0     H61507   9.941  10.132   2.409 -2.2133 -1.6408 -1.3323
  456MOL0     H61508  10.064   9.997   2.433  0.5837 -0.5690 -1.9323
  456MOL0     H61509  10.202  10.151   2.358  1.6970 -0.1077 -2.1158
  456MOL0     H61510  10.083  10.212   2.238  0.5509 -0.1666 -1.8697
  456MOL0     H61511  10.099  10.057   1.993  0.4238 -1.1246 -0.8055
  456MOL0     H61512  10.222   9.868   1.830  0.0144  0.5319 -0.0328
  456MOL0     H61513  10.209   9.712   1.914 -2.3178 -0.6572 -2.2790
  456MOL0     H61514   9.990   9.865   1.980  2.9396  1.3305  0.6207
  456MOL0     H61515   9.988   9.710   1.887  0.9494  0.3275 -2.9203
  456MOL0     H61516  10.054   9.955   1.732 -1.3447  1.4932  0.6355
  456MOL0     H61517   9.891   9.902   1.786 -1.0970 -1.6549 -1.5664
  456MOL0     H61518   9.931   9.825   1.573  0.7354  0.2187 -0.9471
  456MOL0     H61519   9.948   9.687   1.689  3.7034 -1.5274  1.7671
  456MOL0     H61520  10.325   9.660   1.485  0.2110  0.0979 -0.5935
  456MOL0     H61521  10.427   9.485   1.213 -1.1224 -6.1038 -2.3856
  456MOL0     H61522  10.484   9.523   1.371 -1.2432  1.3786  1.1142
  456MOL0     H61523  10.427   9.357   1.327 -0.5127 -0.2716 -3.5463
  456MOL0     H61524  10.400   9.080   1.100 -0.5131  0.3453  0.6833
  456MOL0     H61525  10.474   8.979   0.891  1.2600  0.7922  0.4295
  456MOL0     H61526  10.347   9.148   0.469  0.9264 -0.0619 -2.5603
  456MOL0     H61527  10.488   9.249   0.528  0.7673 -0.4198  1.4269
  456MOL0     H61528  10.632   9.051   0.467  0.1597  0.2619 -2.2056
  456MOL0     H61529  10.501   8.992   0.365 -2.3988  0.0656  1.0155
  456MOL0     H61530  10.622   9.265   0.348  1.4073 -1.4131 -0.0385
  456MOL0     H61531  10.480   9.212   0.257 -2.1070 -2.5205  1.8469
  456MOL0     H61532  10.738   9.207   0.173 -1.6756  0.4202 -2.0483
  456MOL0     H61533  10.749   9.048   0.265 -0.6502  1.9492  1.6924
  456MOL0     H61534  10.555   9.104   0.039 -0.7882 -1.9156 -1.8281
  456MOL0     H61535  10.612   8.947   0.111  0.1721 -0.9460 -2.1330
  456MOL0     H61536  10.829   8.994   0.023 -1.3500 -1.1705  1.1713
  456MOL0     H61537  10.708   8.988  -0.113 -0.4118 -1.0900  0.7179
  456MOL0     H61538  10.816   9.261  -0.022  0.8580  1.8081 -2.4265
  456MOL0     H61539  10.716   9.206  -0.152 -0.4281  0.9885  0.8587
  456MOL0     H61540  11.019   9.141  -0.108  0.3489  1.4777 -0.0920
  456MOL0     H61541  10.952   9.258  -0.217 -0.4760  1.0898  1.1980
  456MOL0     H61542  10.314   9.314   0.668 -2.4679 -4.3682 -2.1622
  456MOL0     H61543  10.235   9.401   0.873 -0.8028 -0.6149  0.1692
  456MOL0     H61544   9.950   9.511   1.216  0.5232 -0.8343 -0.7273
  456MOL0     H61545   9.900   9.646   1.420 -0.7400 -1.3701  0.5943
  456MOL0     H61546   9.309  10.694   2.186 -0.7285 -2.3868  3.8087
  456MOL0     H61547   9.092  10.824   2.106 -2.3460 -0.2757  2.9640
  456MOL0     H61548   8.490  10.651   2.122  1.3149  0.9563  1.4381
  456MOL0     H61549   8.315  10.769   2.030 -0.4221 -0.7123 -1.9791
  456MOL0     H61550   8.430  11.169   1.845  0.2144  0.7698 -2.3482
  456MOL0     H61551   8.401  11.073   1.702  1.7838  0.0592  0.4217
  456MOL0     H61552   8.221  11.257   1.866  0.0808 -0.4745  1.4644
  456MOL0     H61553   8.137  11.129   1.788 -2.5730  4.2366  1.2100
  456MOL0     H61554   8.241  11.182   1.574 -0.9351 -2.3141  2.3668
  456MOL0     H61555   8.301  11.337   1.660  2.1785 -1.6310  1.3546
  456MOL0     H61556   8.101  11.404   1.707  1.8219 -1.8231  1.4603
  456MOL0     H61557   8.009  11.265   1.657  0.2000  0.4345  1.7163
  456MOL0     H61558   8.086  11.431   1.272  1.6504  1.4484 -0.3858
  456MOL0     H61559   8.586  10.998   1.792  3.6497 -0.2168  1.2065
  456MOL0     H61560   8.746  10.862   1.842  0.2660 -4.0587 -0.1626
  457MOL0     O61561   8.732  11.471   4.253 -0.5165  1.3563 -0.2574
  457MOL0     C61562   8.790  11.519   4.354 -0.2515 -0.4397  0.2385
  457MOL0     O61563   8.745  11.627   4.427  0.3786 -0.3803  0.5140
  457MOL0     C61564   8.637  11.688   4.368  0.2155 -1.0330 -0.8361
  457MOL0     C61565   8.663  11.792   4.275 -0.3189  0.2728  0.0156
  457MOL0     C61566   8.550  11.850   4.221  0.3172 -0.3928  0.3997
  457MOL0     C61567   8.415  11.818   4.244 -0.6514  0.5720  0.2080
  457MOL0     O61568   8.314  11.879   4.182 -1.0376 -0.2661  0.2230
  457MOL0     C61569   8.275  11.985   4.263  0.3960  0.7912  0.4908
  457MOL0     C61570   8.150  12.055   4.213 -0.3523  0.7008  0.1411
  457MOL0     C61571   8.055  11.957   4.155  0.1751 -1.0870 -0.9895
  457MOL0     C61572   7.933  12.051   4.114 -1.1341 -0.2190  0.5588
  457MOL0     C61573   7.938  12.097   3.969  0.2911 -0.3113  0.2839
  457MOL0     C61574   7.850  12.218   3.938  0.5825  0.6311 -0.8280
  457MOL0     C61575   7.888  12.284   3.804 -0.8562  0.5612  0.0773
  457MOL0     C61576   7.808  12.405   3.761  0.5090 -0.0681 -0.2822
  457MOL0     N61577   7.672  12.370   3.737 -0.2434  0.5731  0.7241
  457MOL0     C61578   7.564  12.351   3.821  0.7754  0.1006  0.7383
  457MOL0     C61579   7.454  12.336   3.736  0.1697 -0.4805 -0.2086
  457MOL0     C61580   7.310  12.327   3.789 -0.6045 -0.4697 -0.1225
  457MOL0     C61581   7.235  12.189   3.767 -0.2765  0.5390  0.0719
  457MOL0     C61582   7.128  12.168   3.878 -0.0368  0.3011  0.2067
  457MOL0     C61583   7.005  12.253   3.890 -0.0014  0.7835  0.3563
  457MOL0     O61584   6.938  12.258   3.758  0.0423 -0.2173 -0.4300
  457MOL0     C61585   6.827  12.181   3.738 -0.0336 -0.4789  0.2398
  457MOL0     C61586   6.796  12.055   3.805 -0.4738  0.8563 -0.3137
  457MOL0     C61587   6.681  11.983   3.760  0.8354 -0.5136 -0.3396
  457MOL0     C61588   6.662  11.853   3.827 -0.1933  0.7399  0.7964
  457MOL0     C61589   6.600  12.029   3.654  0.4764  0.2474 -0.2411
  457MOL0     C61590   6.489  11.954   3.586  1.2279 -0.1972 -0.5530
  457MOL0     O61591   6.492  11.966   3.456  0.8203  0.3977 -0.3087
  457MOL0     C61592   6.403  11.917   3.365 -0.3665  0.2770 -0.2210
  457MOL0     C61593   6.446  11.852   3.249  0.0486 -0.2663  0.1874
  457MOL0     C61594   6.348  11.787   3.167  0.1375  0.3294  0.5880
  457MOL0     C61595   6.209  11.796   3.192  0.4881  0.2349  0.3189
  457MOL0     O61596   6.120  11.749   3.102  0.6022  0.5779 -0.5312
  457MOL0     C61597   6.028  11.652   3.149  0.2817  0.3075 -0.4219
  457MOL0     C61598   6.087  11.523   3.223 -1.1686 -0.9667  0.5503
  457MOL0     C61599   5.979  11.448   3.297 -0.0810 -0.0203  0.8494
  457MOL0     C61600   6.051  11.365   3.403  1.1487  0.3244 -0.1672
  457MOL0     C61601   5.995  11.406   3.540 -0.6701  0.1365  0.2748
  457MOL0     C61602   6.033  11.552   3.577  0.4312 -0.4930  0.1524
  457MOL0     C61603   5.942  11.616   3.687  0.5456  0.2816 -0.9769
  457MOL0     C61604   6.007  11.747   3.750 -0.3232  0.1104 -0.3256
  457MOL0    Cl61605   6.015  11.878   3.628  0.4530  0.8358 -0.3278
  457MOL0     C61606   6.164  11.856   3.315 -0.3962 -0.0670  0.2773
  457MOL0     C61607   6.260  11.925   3.398 -0.0998  0.1562 -0.1568
  457MOL0     O61608   6.420  11.876   3.653  0.1461  0.3720  0.6068
  457MOL0     C61609   6.634  12.147   3.589 -0.3572  0.4740 -0.3865
  457MOL0     C61610   6.750  12.212   3.626  0.4054  0.4973  1.6351
  457MOL0     N61611   7.499  12.326   3.608 -0.3072  0.0951 -0.1425
  457MOL0     N61612   7.622  12.345   3.606 -1.0263 -0.5908  0.0873
  457MOL0     C61613   8.399  11.710   4.329 -0.4951 -0.1282 -0.3213
  457MOL0     C61614   8.509  11.655   4.394 -0.7624  0.4671 -0.6272
  457MOL0     C61615   8.906  11.456   4.414 -0.4020 -0.4812  0.4375
  457MOL0     C61616   8.983  11.507   4.524  0.6790  0.1586  0.8718
  457MOL0     C61617   9.103  11.452   4.569 -0.3271 -0.1405 -0.0244
  457MOL0     C61618   9.143  11.330   4.517 -0.1872 -1.2532  0.7633
  457MOL0     O61619   9.250  11.259   4.563 -0.1462 -0.3025 -0.2061
  457MOL0     C61620   9.355  11.331   4.633  0.1574  1.0194  0.1719
  457MOL0     C61621   9.493  11.260   4.660 -0.6848  0.1547  0.6211
  457MOL0     C61622   9.502  11.114   4.618  0.6699 -0.2723 -0.1051
  457MOL0     C61623   9.632  11.049   4.641 -0.0565  0.4869 -0.3064
  457MOL0     C61624   9.739  11.117   4.563  0.1360 -0.4485  0.6010
  457MOL0     C61625   9.826  11.166   4.490  0.0268  0.1457  0.6670
  457MOL0     C61626   9.073  11.276   4.417 -0.1366 -0.4788  0.2803
  457MOL0     C61627   8.954  11.329   4.367 -0.8747  0.3960 -0.3714
  457MOL0     H61628   8.763  11.821   4.243 -1.2468  0.7467 -2.7605
  457MOL0     H61629   8.574  11.919   4.140  0.1085  0.0284  0.6949
  457MOL0     H61630   8.252  11.940   4.361  0.0960  1.7859  0.8911
  457MOL0     H61631   8.349  12.064   4.279  2.7979 -1.7659  3.2955
  457MOL0     H61632   8.109  12.115   4.295  0.6369  2.3733 -0.5262
  457MOL0     H61633   8.186  12.134   4.146  0.4869  3.4421  3.5388
  457MOL0     H61634   8.083  11.905   4.063  0.3731  1.8486 -2.7403
  457MOL0     H61635   8.026  11.880   4.226  0.2118 -2.5310 -2.4874
  457MOL0     H61636   7.841  11.992   4.110 -0.0552 -1.9713  0.4434
  457MOL0     H61637   7.915  12.123   4.194 -0.0331  0.6464  0.0506
  457MOL0     H61638   8.041  12.129   3.950 -0.7381  1.7812 -2.6008
  457MOL0     H61639   7.926  12.015   3.897  0.6543 -0.1032 -0.0230
  457MOL0     H61640   7.746  12.184   3.936  0.7624 -0.0369  0.3678
  457MOL0     H61641   7.854  12.283   4.025 -3.2071 -0.9430  0.7275
  457MOL0     H61642   7.990  12.324   3.814  0.4025 -2.5204  0.6303
  457MOL0     H61643   7.879  12.208   3.726  1.0434  0.9994 -0.6175
  457MOL0     H61644   7.851  12.442   3.667 -1.6398  1.8941 -0.5767
  457MOL0     H61645   7.814  12.484   3.836 -0.0194  0.2897 -0.6135
  457MOL0     H61646   7.571  12.335   3.928  1.1845  0.2503  0.7356
  457MOL0     H61647   7.316  12.352   3.895  0.7320  1.2631 -0.5616
  457MOL0     H61648   7.241  12.403   3.752 -0.9791 -0.2221  1.0300
  457MOL0     H61649   7.309  12.109   3.779 -2.8378 -1.9907 -0.1697
  457MOL0     H61650   7.190  12.196   3.668  1.4976  3.5136 -0.6638
  457MOL0     H61651   7.157  12.186   3.982 -4.0789 -1.3536  1.8480
  457MOL0     H61652   7.096  12.063   3.875 -0.6881  0.4614  1.0689
  457MOL0     H61653   7.032  12.355   3.920  1.9516  0.9822 -1.8028
  457MOL0     H61654   6.931  12.215   3.961 -0.8220  0.0341 -0.8624
  457MOL0     H61655   6.858  12.031   3.890 -2.0986 -0.8170  0.4754
  457MOL0     H61656   6.567  11.840   3.881 -1.0390 -0.0701 -0.8221
  457MOL0     H61657   6.667  11.779   3.747 -1.1852 -0.7212  2.0315
  457MOL0     H61658   6.744  11.847   3.899 -1.2838  0.6989  2.0811
  457MOL0     H61659   6.552  11.840   3.227  0.1201  1.2140 -0.3687
  457MOL0     H61660   6.369  11.740   3.071 -3.2216 -0.4099  0.0707
  457MOL0     H61661   5.962  11.694   3.226 -0.1215 -2.1211  0.6516
  457MOL0     H61662   5.965  11.621   3.065 -0.6014  2.2300 -0.5257
  457MOL0     H61663   6.130  11.456   3.149 -0.8120 -3.4330  2.8391
  457MOL0     H61664   6.163  11.548   3.297 -0.4992 -4.2784  1.1358
  457MOL0     H61665   5.933  11.367   3.238 -1.2646 -0.4687  2.3333
  457MOL0     H61666   5.901  11.507   3.346  0.2928 -0.5823  2.1742
  457MOL0     H61667   6.035  11.262   3.370 -0.5313  1.2856 -2.6811
  457MOL0     H61668   6.159  11.379   3.395  1.0472  0.6347 -1.1445
  457MOL0     H61669   6.027  11.341   3.622 -1.6340 -1.1745 -0.3562
  457MOL0     H61670   5.888  11.385   3.542 -1.2153  2.3308 -1.3191
  457MOL0     H61671   6.138  11.563   3.607  0.8338  0.0681 -1.3872
  457MOL0     H61672   6.020  11.627   3.499  2.5540 -0.9130 -0.6792
  457MOL0     H61673   5.916  11.546   3.767  0.1312  0.7519 -0.6965
  457MOL0     H61674   5.847  11.633   3.636 -1.6906 -2.9443  1.7116
  457MOL0     H61675   6.108  11.711   3.768 -1.3282 -4.1462 -2.0706
  457MOL0     H61676   5.946  11.776   3.836  0.3268 -0.4716  0.3431
  457MOL0     H61677   6.057  11.856   3.335 -0.2440  2.2971  1.4475
  457MOL0     H61678   6.234  11.992   3.479 -0.7335  0.0275 -0.2501
  457MOL0     H61679   6.578  12.196   3.510 -0.9725 -0.4989 -0.5721
  457MOL0     H61680   6.779  12.307   3.581  0.7377 -0.6564 -0.7637
  457MOL0     H61681   8.300  11.681   4.361  0.1827  0.4563  2.6152
  457MOL0     H61682   8.497  11.582   4.474  3.7462 -1.2969 -1.2682
  457MOL0     H61683   8.964  11.610   4.552 -1.3782 -0.7899  3.4268
  457MOL0     H61684   9.171  11.495   4.642 -0.0208 -3.4156  1.8398
  457MOL0     H61685   9.378  11.425   4.583 -1.0143  0.7118 -1.0126
  457MOL0     H61686   9.313  11.343   4.734  1.3105  0.4961  0.7251
  457MOL0     H61687   9.515  11.272   4.766  0.7470 -0.3800  0.4134
  457MOL0     H61688   9.580  11.313   4.619  0.2677 -1.8807 -0.1391
  457MOL0     H61689   9.484  11.109   4.510  2.0523 -2.3784 -0.2992
  457MOL0     H61690   9.429  11.054   4.674 -1.2845  2.4236  0.4364
  457MOL0     H61691   9.636  10.943   4.616 -0.5525  0.3543  0.1456
  457MOL0     H61692   9.646  11.057   4.749 -0.4079  0.1912 -0.2350
  457MOL0     H61693   9.905  11.200   4.426 -1.9016  0.1246 -1.8856
  457MOL0     H61694   9.109  11.183   4.373 -2.2225 -0.7480 -1.0440
  457MOL0     H61695   8.896  11.282   4.289 -1.1388  1.5631 -0.8969
  458MOL0     O61696   9.186   3.943  10.880  0.8733 -0.1746 -0.7402
  458MOL0     C61697   9.272   3.996  10.953  0.5751  0.4602  0.3359
  458MOL0     O61698   9.406   3.993  10.930 -0.1824  0.6256 -0.1817
  458MOL0     C61699   9.469   3.899  10.852 -0.6850  0.1292 -0.4321
  458MOL0     C61700   9.418   3.766  10.848  0.1426  0.0829  0.9492
  458MOL0     C61701   9.466   3.669  10.749 -0.1353  0.5855 -0.5835
  458MOL0     C61702   9.564   3.704  10.659 -0.0343 -0.4245  0.0451
  458MOL0     O61703   9.612   3.619  10.569  0.3488  0.2352  0.3956
  458MOL0     C61704   9.693   3.509  10.629 -0.7885 -0.6184  0.0193
  458MOL0     C61705   9.740   3.414  10.526 -0.6287 -0.7296 -0.0741
  458MOL0     C61706   9.860   3.442  10.439  0.5384  0.0777 -0.1965
  458MOL0     C61707   9.996   3.448  10.513 -0.2618  0.1006 -0.6254
  458MOL0     C61708  10.105   3.485  10.417 -0.1801  0.5223 -0.5704
  458MOL0     C61709  10.241   3.477  10.492  0.7178  0.0534  0.4581
  458MOL0     C61710  10.357   3.507  10.403 -0.0882  0.0223 -0.0916
  458MOL0     C61711  10.506   3.513  10.453 -0.2429  0.2864 -0.4511
  458MOL0     N61712  10.530   3.609  10.562  0.7716  0.2282 -0.1760
  458MOL0     C61713  10.468   3.605  10.687  0.1797 -0.4014  0.4000
  458MOL0     C61714  10.516   3.715  10.746 -1.1519 -0.8396 -0.4973
  458MOL0     C61715  10.464   3.787  10.863  0.7472 -0.6469 -0.1272
  458MOL0     C61716  10.550   3.797  10.983 -1.2345 -0.1349 -0.2497
  458MOL0     C61717  10.488   3.867  11.108 -0.6526  0.2668 -0.7289
  458MOL0     C61718  10.567   3.863  11.242  0.2616 -0.8450 -0.0827
  458MOL0     O61719  10.510   3.932  11.357 -0.4324  0.6655  0.1061
  458MOL0     C61720  10.399   3.879  11.418 -0.4724  0.1647  0.3252
  458MOL0     C61721  10.349   3.752  11.385 -0.4884 -0.0220 -0.1969
  458MOL0     C61722  10.239   3.696  11.438  1.1501  0.3711 -0.2925
  458MOL0     C61723  10.200   3.564  11.374 -0.3781  0.1031  0.2701
  458MOL0     C61724  10.167   3.769  11.544  0.1277 -0.7781  0.7821
  458MOL0     C61725  10.042   3.725  11.614 -0.9059  0.6871 -0.5638
  458MOL0     O61726   9.994   3.800  11.725 -0.3969 -0.1772  1.0665
  458MOL0     C61727   9.859   3.771  11.746 -0.0109  0.0632  0.0036
  458MOL0     C61728   9.760   3.822  11.661 -0.0530  0.2548 -0.1463
  458MOL0     C61729   9.625   3.798  11.693 -0.5270  0.1500 -0.0332
  458MOL0     C61730   9.587   3.720  11.799 -0.3151 -0.0164  0.2563
  458MOL0     O61731   9.452   3.712  11.838  0.0685  0.4669 -0.7203
  458MOL0     C61732   9.419   3.743  11.974 -0.2025  0.1141  0.6310
  458MOL0     C61733   9.402   3.889  11.994  0.1749 -0.8263 -0.7022
  458MOL0     C61734   9.401   3.917  12.143  0.5536 -0.7223 -0.9561
  458MOL0     C61735   9.368   4.068  12.171  0.2098  0.0321  0.3441
  458MOL0     C61736   9.402   4.104  12.318 -0.1904  0.3731 -0.1240
  458MOL0     C61737   9.371   4.251  12.345  0.0353  0.3411  0.5007
  458MOL0     C61738   9.407   4.288  12.488  0.8006  0.0995 -0.4490
  458MOL0     C61739   9.419   4.451  12.493  0.4377  0.3564 -1.4593
  458MOL0    Cl61740   9.451   4.507  12.658 -0.1485 -0.4249 -0.6635
  458MOL0     C61741   9.688   3.653  11.870 -0.3872  0.5116 -0.2706
  458MOL0     C61742   9.818   3.683  11.850  0.4988  0.4387 -0.3622
  458MOL0     O61743  10.002   3.612  11.583 -0.0312 -0.2859 -0.1756
  458MOL0     C61744  10.221   3.896  11.582  0.3756 -0.5806  0.5404
  458MOL0     C61745  10.339   3.950  11.524 -0.2830  0.0414  0.1346
  458MOL0     N61746  10.607   3.785  10.663  0.5878 -0.2523 -0.3634
  458MOL0     N61747  10.626   3.707  10.555  0.9357 -0.1785  0.7606
  458MOL0     C61748   9.589   3.839  10.652 -0.4809 -0.2370  0.6659
  458MOL0     C61749   9.544   3.937  10.741 -0.6054  1.0749  0.4152
  458MOL0     C61750   9.233   4.051  11.081 -0.5578 -1.1041 -0.2999
  458MOL0     C61751   9.325   4.112  11.174 -0.0518 -0.1911  0.5771
  458MOL0     C61752   9.297   4.155  11.299  0.0713 -0.0664  0.1662
  458MOL0     C61753   9.170   4.127  11.342 -0.3747  0.3560 -0.9064
  458MOL0     O61754   9.148   4.156  11.474  0.6397 -0.1499 -0.4164
  458MOL0     C61755   9.017   4.134  11.533 -0.6439  1.2646 -0.4401
  458MOL0     C61756   9.003   3.991  11.571  0.0910  0.9774 -0.2197
  458MOL0     C61757   9.135   3.944  11.644 -0.1528  1.1480  0.3351
  458MOL0     C61758   9.115   3.810  11.714 -0.6369 -0.2686  0.1066
  458MOL0     C61759   9.030   3.825  11.830  0.8092 -0.0767 -1.0656
  458MOL0     C61760   8.951   3.853  11.920  0.7522  0.5718  0.0192
  458MOL0     C61761   9.072   4.076  11.261  0.2835  0.5041  0.0530
  458MOL0     C61762   9.098   4.042  11.133 -0.0216  0.4759  0.3941
  458MOL0     H61763   9.333   3.731  10.906  0.6811 -2.2858  0.4396
  458MOL0     H61764   9.433   3.565  10.743  0.4365  0.4821 -3.6568
  458MOL0     H61765   9.776   3.546  10.691 -3.0661 -0.3247  3.1713
  458MOL0     H61766   9.630   3.453  10.699  0.2839 -0.5062  1.1233
  458MOL0     H61767   9.758   3.321  10.582  1.5757 -0.1415  0.2959
  458MOL0     H61768   9.649   3.383  10.474 -0.6776  2.3223 -2.0544
  458MOL0     H61769   9.856   3.365  10.361  1.8278 -1.8085  1.4935
  458MOL0     H61770   9.841   3.540  10.393 -0.6695  0.0022  0.0882
  458MOL0     H61771   9.987   3.520  10.595  1.0014  0.2815 -0.6266
  458MOL0     H61772  10.016   3.354  10.567 -0.0451  1.2377  1.3848
  458MOL0     H61773  10.109   3.409  10.339  1.7936 -0.8804  0.7735
  458MOL0     H61774  10.097   3.584  10.371  1.4384 -0.0808 -2.2842
  458MOL0     H61775  10.238   3.555  10.568  1.0281 -1.4269  2.0602
  458MOL0     H61776  10.259   3.384  10.547  2.3391 -0.3563 -0.7018
  458MOL0     H61777  10.347   3.441  10.316 -0.8727 -1.6620  1.2084
  458MOL0     H61778  10.342   3.598  10.344 -0.2005 -0.1674 -0.3635
  458MOL0     H61779  10.572   3.546  10.372  2.1434 -1.8278  0.4788
  458MOL0     H61780  10.521   3.412  10.493 -0.4475  0.2575 -0.4474
  458MOL0     H61781  10.382   3.544  10.712 -2.1001  1.1406 -2.9712
  458MOL0     H61782  10.421   3.887  10.859 -0.2987 -0.5284  5.6250
  458MOL0     H61783  10.374   3.730  10.888  1.1708 -1.3714 -0.2094
  458MOL0     H61784  10.636   3.860  10.959 -0.8315 -0.3423  0.6148
  458MOL0     H61785  10.565   3.690  11.000 -0.0600 -0.0447 -0.6157
  458MOL0     H61786  10.390   3.819  11.111 -0.4290 -0.1575 -0.0508
  458MOL0     H61787  10.464   3.970  11.083  0.0317  0.5331 -0.3044
  458MOL0     H61788  10.664   3.911  11.227 -0.9240  1.9010  0.4075
  458MOL0     H61789  10.593   3.758  11.258  1.6985 -0.7949 -1.8559
  458MOL0     H61790  10.395   3.688  11.310  0.4812 -1.2885  1.4131
  458MOL0     H61791  10.235   3.477  11.431  1.4453 -2.1976 -3.9497
  458MOL0     H61792  10.091   3.561  11.381 -0.2974  0.7746  4.2628
  458MOL0     H61793  10.225   3.545  11.270 -0.9741  1.0157 -0.0586
  458MOL0     H61794   9.795   3.873  11.571  4.7509 -0.9965  0.7381
  458MOL0     H61795   9.543   3.851  11.647 -0.5222  0.1161 -0.0820
  458MOL0     H61796   9.329   3.684  11.998 -1.9051  2.9211  1.5736
  458MOL0     H61797   9.486   3.718  12.056  1.2961  2.7732  0.3230
  458MOL0     H61798   9.493   3.939  11.959  0.0589 -0.1147 -0.0146
  458MOL0     H61799   9.311   3.925  11.944  1.1366  0.8447 -1.3605
  458MOL0     H61800   9.497   3.886  12.187 -0.5107 -0.6828  1.5789
  458MOL0     H61801   9.330   3.863  12.205 -0.5215 -0.3460 -1.8439
  458MOL0     H61802   9.418   4.143  12.109  0.3062  0.2789  0.7183
  458MOL0     H61803   9.262   4.082  12.147  0.9112  0.9563 -2.6420
  458MOL0     H61804   9.509   4.088  12.333 -0.0355  2.4775  1.6760
  458MOL0     H61805   9.338   4.041  12.380  1.3920 -1.6961 -0.4956
  458MOL0     H61806   9.430   4.308  12.273  0.5023  0.3002  0.8497
  458MOL0     H61807   9.264   4.269  12.326 -0.0522  0.0728  0.7209
  458MOL0     H61808   9.497   4.235  12.518 -0.1827 -1.2655  0.2126
  458MOL0     H61809   9.328   4.261  12.559  1.3359  1.8932  0.9079
  458MOL0     H61810   9.329   4.503  12.459  0.4051  0.1972 -1.6230
  458MOL0     H61811   9.505   4.487  12.435  0.5100  0.5474 -1.2360
  458MOL0     H61812   9.666   3.578  11.945 -2.8009  2.0078  0.6132
  458MOL0     H61813   9.889   3.639  11.919 -1.4814  1.5369  2.6031
  458MOL0     H61814  10.176   3.935  11.673 -0.9889 -4.1961  1.6288
  458MOL0     H61815  10.401   4.025  11.571 -0.4668 -1.1936  2.5039
  458MOL0     H61816   9.650   3.877  10.570  1.2167 -1.9469  1.0494
  458MOL0     H61817   9.570   4.043  10.740 -0.8297  1.1409  0.8368
  458MOL0     H61818   9.430   4.130  11.150  0.8974 -1.4140  3.3717
  458MOL0     H61819   9.383   4.194  11.352 -0.0254 -0.5827  0.7115
  458MOL0     H61820   9.012   4.198  11.622  1.7062 -0.0091  0.7117
  458MOL0     H61821   8.938   4.162  11.463 -2.2983  1.3028  1.3609
  458MOL0     H61822   8.990   3.931  11.480 -0.7954  1.2562 -0.2852
  458MOL0     H61823   8.914   3.985  11.635  1.2255 -2.6837  1.2770
  458MOL0     H61824   9.170   4.022  11.712 -0.0265  3.0063 -1.7685
  458MOL0     H61825   9.218   3.928  11.574  0.8420  0.6753  1.5826
  458MOL0     H61826   9.212   3.779  11.755  0.3937  1.2480 -1.0728
  458MOL0     H61827   9.074   3.741  11.639  1.5004 -0.8566 -0.6003
  458MOL0     H61828   8.888   3.882  12.002  0.6435 -0.7101  0.4212
  458MOL0     H61829   8.967   4.055  11.278 -0.0898  0.6719 -1.8380
  458MOL0     H61830   9.021   3.997  11.071  1.3439  0.7312 -1.5890
  459MOL0     O61831  10.433   5.247   5.555  0.0838  1.3399 -0.5089
  459MOL0     C61832  10.367   5.339   5.601 -0.3686  0.7105 -0.1947
  459MOL0     O61833  10.417   5.436   5.692 -0.0537  0.4975  0.5932
  459MOL0     C61834  10.534   5.414   5.753  0.1157  0.4381 -0.6844
  459MOL0     C61835  10.580   5.294   5.799  0.2652 -0.5658  0.1549
  459MOL0     C61836  10.697   5.281   5.870  0.2412  0.2700 -0.4167
  459MOL0     C61837  10.781   5.398   5.887  0.0967  0.2983  0.4409
  459MOL0     O61838  10.890   5.372   5.971 -0.0758 -0.3108  0.0493
  459MOL0     C61839  11.021   5.413   5.931  0.3089 -0.3070 -0.0088
  459MOL0     C61840  11.132   5.340   6.015  1.2606 -0.4943  0.5814
  459MOL0     C61841  11.244   5.429   6.026 -0.2109  0.9493 -0.5306
  459MOL0     C61842  11.362   5.344   6.070  0.2579 -0.2558  0.4157
  459MOL0     C61843  11.481   5.433   6.127 -0.3129 -1.0823  0.4159
  459MOL0     C61844  11.589   5.333   6.171 -0.0018  0.3826 -0.0233
  459MOL0     C61845  11.708   5.391   6.255  0.1348  0.6327  0.4043
  459MOL0     C61846  11.804   5.467   6.158 -0.2601  0.2730 -0.5654
  459MOL0     N61847  11.925   5.525   6.223  0.0404  0.0224  0.2562
  459MOL0     C61848  12.036   5.452   6.251 -0.1800 -0.7846  0.3870
  459MOL0     C61849  12.134   5.539   6.291  0.6042 -0.3327  0.7837
  459MOL0     C61850  12.271   5.518   6.336  0.3633 -0.1883 -0.1695
  459MOL0     C61851  12.363   5.526   6.216 -0.3553 -0.6320 -0.2761
  459MOL0     C61852  12.496   5.545   6.267 -0.7271  1.0998 -0.3443
  459MOL0     C61853  12.591   5.548   6.141 -0.4415 -0.1334  0.4070
  459MOL0     O61854  12.727   5.565   6.185  0.0761  0.9161  0.7810
  459MOL0     C61855  12.807   5.460   6.217  0.8034 -0.6287  0.0037
  459MOL0     C61856  12.777   5.324   6.204 -1.0552 -0.0352 -1.0930
  459MOL0     C61857  12.872   5.216   6.222 -0.4634  0.0318  0.1622
  459MOL0     C61858  12.817   5.076   6.215  0.3184  0.1212 -0.4576
  459MOL0     C61859  13.008   5.247   6.242 -0.3635 -0.4877 -1.2868
  459MOL0     C61860  13.122   5.148   6.268  1.1848 -0.6510  0.6115
  459MOL0     O61861  13.248   5.198   6.276  0.6865 -0.5802  0.8694
  459MOL0     C61862  13.347   5.111   6.296  0.2008  0.0695 -0.9957
  459MOL0     C61863  13.402   5.095   6.429 -0.5995  0.6081 -0.4291
  459MOL0     C61864  13.501   4.998   6.447 -0.2383  0.4904  0.0358
  459MOL0     C61865  13.545   4.911   6.348  0.1499 -0.0715  0.7146
  459MOL0     O61866  13.646   4.827   6.354  0.4266 -0.2122 -0.1983
  459MOL0     C61867  13.717   4.791   6.472 -0.8599 -0.4998  0.2210
  459MOL0     C61868  13.750   4.642   6.443 -1.2633  0.6970 -0.9059
  459MOL0     C61869  13.623   4.554   6.416  0.2154 -0.3089  0.3680
  459MOL0     C61870  13.615   4.429   6.498  0.9102 -0.6391 -0.2200
  459MOL0     C61871  13.566   4.479   6.633  0.5519  0.3707 -0.4761
  459MOL0     C61872  13.548   4.360   6.735 -0.4371  0.8003 -0.4118
  459MOL0     C61873  13.660   4.250   6.735  0.8675 -0.9044 -0.9021
  459MOL0     C61874  13.800   4.289   6.794  0.4350  0.3784  0.1540
  459MOL0    Cl61875  13.888   4.395   6.686  0.2170 -0.5517 -0.0223
  459MOL0     C61876  13.477   4.918   6.221 -0.0255  0.3926 -0.1570
  459MOL0     C61877  13.384   5.018   6.195  0.2980  0.3749 -0.3138
  459MOL0     O61878  13.083   5.029   6.273  0.4049 -0.0445 -0.4536
  459MOL0     C61879  13.036   5.390   6.258  0.4267 -0.7635 -0.1021
  459MOL0     C61880  12.943   5.494   6.248  0.1028 -0.3133 -0.7264
  459MOL0     N61881  12.068   5.665   6.273  0.1882  1.3187 -0.7810
  459MOL0     N61882  11.948   5.661   6.239  0.8449 -0.5526 -0.0605
  459MOL0     C61883  10.758   5.513   5.814 -0.0582 -0.2387 -0.6038
  459MOL0     C61884  10.628   5.524   5.755 -0.1553 -0.3388  0.5035
  459MOL0     C61885  10.233   5.360   5.554 -0.1986 -0.4202 -0.0149
  459MOL0     C61886  10.155   5.261   5.504 -0.4279  0.1013  0.0889
  459MOL0     C61887  10.022   5.280   5.475 -0.5819 -0.2213 -0.1126
  459MOL0     C61888   9.962   5.401   5.496  0.2193 -1.2219 -0.1552
  459MOL0     O61889   9.831   5.436   5.465  0.4121  0.6878 -0.9830
  459MOL0     C61890   9.731   5.347   5.411  0.3173  0.1124  0.2638
  459MOL0     C61891   9.765   5.307   5.265  0.6897 -1.1007  1.0709
  459MOL0     C61892   9.814   5.424   5.166 -0.0168 -0.1846 -0.1729
  459MOL0     C61893   9.893   5.345   5.060  0.9066  0.2658  0.3391
  459MOL0     C61894   9.910   5.425   4.935 -0.4163 -0.4168  0.4146
  459MOL0     C61895   9.917   5.486   4.825  0.8070  0.2271 -0.1729
  459MOL0     C61896  10.043   5.501   5.536  0.7625 -0.4920 -0.1418
  459MOL0     C61897  10.170   5.482   5.572  0.0720  0.3023 -0.5792
  459MOL0     H61898  10.513   5.208   5.802 -1.8297  0.8673 -1.7676
  459MOL0     H61899  10.719   5.185   5.915 -0.1335  0.0126 -0.7730
  459MOL0     H61900  11.026   5.384   5.825 -0.3117 -0.4102 -0.0154
  459MOL0     H61901  11.028   5.522   5.936  2.7051 -0.4549  1.7379
  459MOL0     H61902  11.097   5.320   6.117 -0.2495  1.3433  0.4908
  459MOL0     H61903  11.160   5.247   5.966 -1.5598 -2.4742  2.4101
  459MOL0     H61904  11.276   5.490   5.941  2.8385  1.5885  0.9239
  459MOL0     H61905  11.227   5.506   6.102 -1.4199 -1.6345  1.9635
  459MOL0     H61906  11.319   5.284   6.151 -1.3819 -0.6150 -0.6811
  459MOL0     H61907  11.392   5.273   5.992  1.0271  0.9603 -0.4388
  459MOL0     H61908  11.526   5.500   6.053  4.3631 -0.8089  3.1237
  459MOL0     H61909  11.447   5.493   6.212 -0.9887 -0.1247 -0.5012
  459MOL0     H61910  11.538   5.258   6.232 -0.4434  2.3635  2.1921
  459MOL0     H61911  11.623   5.276   6.084  2.6443  0.5228  0.8410
  459MOL0     H61912  11.665   5.455   6.332 -0.8344 -0.6629  0.9843
  459MOL0     H61913  11.765   5.310   6.303 -0.4663 -0.2311 -0.3134
  459MOL0     H61914  11.741   5.536   6.100 -1.4929 -2.5862 -2.9052
  459MOL0     H61915  11.835   5.394   6.083 -1.1804 -3.1927  2.1711
  459MOL0     H61916  12.052   5.345   6.259  1.5581 -0.4596  2.1817
  459MOL0     H61917  12.305   5.581   6.418  1.8685 -0.0659 -0.8409
  459MOL0     H61918  12.267   5.412   6.363  1.4081 -0.3557 -0.6223
  459MOL0     H61919  12.344   5.618   6.159 -1.7992  0.7669  2.2800
  459MOL0     H61920  12.365   5.431   6.162  1.0703 -0.7717 -0.0060
  459MOL0     H61921  12.514   5.453   6.324 -2.3562 -0.4211 -2.1724
  459MOL0     H61922  12.505   5.619   6.347  0.7073  0.6579 -0.0530
  459MOL0     H61923  12.569   5.634   6.077 -0.5662 -1.1577 -0.9478
  459MOL0     H61924  12.569   5.461   6.079 -2.3762 -1.0788  2.2717
  459MOL0     H61925  12.673   5.300   6.183 -0.8775 -1.6073 -0.3144
  459MOL0     H61926  12.817   5.034   6.315 -3.1594  0.2617 -0.2899
  459MOL0     H61927  12.714   5.083   6.179 -0.0747  0.9033  0.7618
  459MOL0     H61928  12.859   5.008   6.140  0.3543  0.0754 -0.3959
  459MOL0     H61929  13.370   5.168   6.502  0.8132  2.0151 -1.1701
  459MOL0     H61930  13.533   5.002   6.550 -1.1396  1.8126  0.2953
  459MOL0     H61931  13.806   4.850   6.494  0.9951 -2.7625 -0.8200
  459MOL0     H61932  13.648   4.793   6.557  0.7043 -0.5959  1.5358
  459MOL0     H61933  13.821   4.642   6.360  1.8957  1.3032  1.5385
  459MOL0     H61934  13.805   4.626   6.537  1.8047  0.7318 -2.5587
  459MOL0     H61935  13.629   4.524   6.311 -2.6347  2.4459 -0.7315
  459MOL0     H61936  13.533   4.616   6.413 -0.5032 -1.2532  1.4599
  459MOL0     H61937  13.544   4.359   6.453 -0.0721  1.6778 -2.5769
  459MOL0     H61938  13.708   4.376   6.477  0.6336 -0.1015 -3.3197
  459MOL0     H61939  13.472   4.536   6.627  0.4033  0.3240  1.1030
  459MOL0     H61940  13.639   4.549   6.674 -0.4760  2.0684 -1.4178
  459MOL0     H61941  13.544   4.394   6.839  1.4709 -0.7441  0.2197
  459MOL0     H61942  13.448   4.319   6.719 -0.3003 -0.4031  1.4772
  459MOL0     H61943  13.662   4.216   6.631 -2.8522 -1.7281 -0.8362
  459MOL0     H61944  13.632   4.163   6.794 -1.0761  0.4911  0.3589
  459MOL0     H61945  13.869   4.209   6.820  1.9988  1.5317 -0.2399
  459MOL0     H61946  13.783   4.350   6.883 -0.3398  2.3391 -1.2476
  459MOL0     H61947  13.500   4.845   6.143 -3.6162 -1.4183  0.2847
  459MOL0     H61948  13.335   5.025   6.099  0.2647  1.7483 -0.2132
  459MOL0     H61949  13.140   5.407   6.284  1.1832 -1.6495 -2.2618
  459MOL0     H61950  12.983   5.595   6.242  4.1865 -1.6753  0.1060
  459MOL0     H61951  10.824   5.599   5.809 -0.4877  0.1392  0.0770
  459MOL0     H61952  10.581   5.619   5.730  2.3982  0.7764 -0.3040
  459MOL0     H61953  10.188   5.158   5.498  0.1702  0.0405  3.1837
  459MOL0     H61954   9.972   5.191   5.439  1.1132 -2.2471  2.2463
  459MOL0     H61955   9.719   5.260   5.477  3.2348  1.1460  2.3894
  459MOL0     H61956   9.638   5.403   5.406 -1.2468 -2.4366 -1.5990
  459MOL0     H61957   9.675   5.264   5.221  0.2889  1.9729 -1.5431
  459MOL0     H61958   9.843   5.231   5.277  2.2449 -0.0301 -1.4256
  459MOL0     H61959   9.884   5.492   5.216 -1.5641  2.0003 -0.8092
  459MOL0     H61960   9.730   5.482   5.127  2.0590  2.4773 -1.0349
  459MOL0     H61961   9.836   5.261   5.019 -0.0565  0.8956  0.3604
  459MOL0     H61962   9.992   5.319   5.097  0.7589 -2.1025 -0.7214
  459MOL0     H61963   9.912   5.557   4.745  0.9967  2.4033  1.6605
  459MOL0     H61964   9.982   5.590   5.545  2.2799  0.8088 -1.7404
  459MOL0     H61965  10.216   5.551   5.642 -3.0009  1.6278  0.3000
  460MOL0     O61966   3.709   9.901   2.056 -0.2776  0.3681  0.0942
  460MOL0     C61967   3.611   9.859   1.995 -0.4147  0.6820 -0.4388
  460MOL0     O61968   3.497   9.819   2.046  0.1447  0.2873 -0.2535
  460MOL0     C61969   3.483   9.797   2.187 -0.5476 -0.6715  0.1648
  460MOL0     C61970   3.541   9.875   2.288  0.0793  0.3218 -0.1692
  460MOL0     C61971   3.537   9.836   2.425  0.0598  0.5917 -1.1184
  460MOL0     C61972   3.461   9.731   2.468  0.5426 -0.0973  0.4183
  460MOL0     O61973   3.443   9.702   2.599  0.1327 -0.9515 -0.0684
  460MOL0     C61974   3.466   9.801   2.698  0.0021 -0.0767 -0.3721
  460MOL0     C61975   3.358   9.904   2.710  0.6882  0.4457 -0.2281
  460MOL0     C61976   3.400  10.035   2.783 -0.2287 -0.1226  0.1392
  460MOL0     C61977   3.446  10.149   2.699  0.2070 -1.4714  0.8388
  460MOL0     C61978   3.525  10.259   2.767 -0.1521 -0.4321 -0.1687
  460MOL0     C61979   3.448  10.332   2.875  0.3578  0.8619 -0.1876
  460MOL0     C61980   3.325  10.417   2.838 -0.4182 -0.9847 -0.2463
  460MOL0     C61981   3.286  10.501   2.956  0.2997  0.5611  0.3963
  460MOL0     N61982   3.169  10.578   2.943  0.6501 -0.3830  0.3268
  460MOL0     C61983   3.041  10.541   2.985 -0.7623  0.2296  0.2744
  460MOL0     C61984   2.958  10.642   2.935 -0.7178 -0.4783  1.0172
  460MOL0     C61985   2.808  10.637   2.921 -0.0140  0.6340 -0.6142
  460MOL0     C61986   2.752  10.497   2.893 -0.0649  1.0611 -1.0318
  460MOL0     C61987   2.595  10.479   2.867 -0.8414  0.7000  0.5811
  460MOL0     C61988   2.535  10.514   2.724 -0.6934  0.1081 -0.0645
  460MOL0     O61989   2.590  10.415   2.647 -0.2347 -0.3542  0.8203
  460MOL0     C61990   2.523  10.386   2.530 -0.5074  0.3679  0.1027
  460MOL0     C61991   2.486  10.487   2.441  0.3982  0.3397 -0.8520
  460MOL0     C61992   2.421  10.468   2.321  1.4497  0.8561 -0.6476
  460MOL0     C61993   2.394  10.588   2.237 -0.6856  0.7922  0.1767
  460MOL0     C61994   2.401  10.333   2.279 -1.0973  0.9456 -0.0305
  460MOL0     C61995   2.326  10.294   2.156  0.0324 -0.2173 -0.3041
  460MOL0     O61996   2.325  10.161   2.120 -0.1926 -0.8878 -0.3158
  460MOL0     C61997   2.230  10.123   2.030 -0.1018  0.5501  0.5810
  460MOL0     C61998   2.099  10.095   2.044 -1.0181 -0.0669  0.2648
  460MOL0     C61999   2.018  10.047   1.940 -0.2681 -0.4911 -0.2801
  460MOL0     C62000   2.076  10.013   1.820 -0.5434  0.8579  0.5320
  460MOL0     O62001   1.995   9.969   1.712  0.0667 -0.7455 -0.4786
  460MOL0     C62002   2.035   9.985   1.576 -0.1518  0.3245 -0.8049
  460MOL0     C62003   1.910   9.951   1.497  0.3676  0.5102 -1.0112
  460MOL0     C62004   1.924   9.976   1.342 -0.2860 -0.4506 -0.0079
  460MOL0     C62005   2.063   9.949   1.292  0.0760 -0.6970 -0.7448
  460MOL0     C62006   2.070   9.951   1.139 -0.3380 -0.5472  0.2884
  460MOL0     C62007   2.017  10.079   1.068  0.7574  0.9584 -0.5120
  460MOL0     C62008   2.060  10.086   0.915 -0.4840 -0.2859  0.4610
  460MOL0     C62009   1.965  10.001   0.821  0.1830  1.2800 -0.4070
  460MOL0    Cl62010   1.825  10.108   0.770 -0.1540 -0.1663  0.3230
  460MOL0     C62011   2.208  10.049   1.800 -0.3190  0.7079  0.9196
  460MOL0     C62012   2.286  10.100   1.906 -0.6969  0.0913  0.3078
  460MOL0     O62013   2.247  10.378   2.108 -0.4719  0.2363 -0.4420
  460MOL0     C62014   2.450  10.230   2.364 -0.1540  0.3505 -0.0509
  460MOL0     C62015   2.506  10.255   2.485 -0.0917 -0.2925 -0.3794
  460MOL0     N62016   3.035  10.728   2.856  0.4110 -0.0812  0.1940
  460MOL0     N62017   3.155  10.682   2.865 -0.4305 -1.3275 -0.6181
  460MOL0     C62018   3.403   9.648   2.363  0.2469 -0.8151  0.6462
  460MOL0     C62019   3.413   9.685   2.229  0.8419 -0.5902 -0.2906
  460MOL0     C62020   3.622   9.845   1.845  0.4691 -0.8293  0.2545
  460MOL0     C62021   3.504   9.817   1.767 -0.3687 -0.2865 -0.3065
  460MOL0     C62022   3.514   9.788   1.633 -0.2480 -0.4407 -0.1158
  460MOL0     C62023   3.635   9.796   1.561 -0.5156 -1.3649  0.3009
  460MOL0     O62024   3.662   9.750   1.427  0.7170 -0.1866  0.5200
  460MOL0     C62025   3.549   9.709   1.350  0.6064  1.0002  0.5506
  460MOL0     C62026   3.467   9.819   1.294  0.1486 -0.2033  0.2501
  460MOL0     C62027   3.344   9.769   1.211  0.6641 -0.4554  0.7468
  460MOL0     C62028   3.238   9.680   1.274 -0.5273  0.1934 -1.1699
  460MOL0     C62029   3.141   9.764   1.350 -0.2282 -0.9382  0.0134
  460MOL0     C62030   3.048   9.817   1.415  0.3160 -0.1162  1.0533
  460MOL0     C62031   3.748   9.827   1.633 -0.0013  0.0081 -0.0368
  460MOL0     C62032   3.739   9.853   1.771  0.0980 -0.4280  0.4361
  460MOL0     H62033   3.588   9.968   2.258 -2.0998  1.9750  1.2326
  460MOL0     H62034   3.581   9.912   2.489 -0.2687 -0.3557  0.2591
  460MOL0     H62035   3.458   9.739   2.788  2.7963  0.5075  0.3913
  460MOL0     H62036   3.563   9.852   2.691 -0.7169  1.0980 -5.4283
  460MOL0     H62037   3.349   9.941   2.608  4.2647  1.0742 -0.4341
  460MOL0     H62038   3.269   9.847   2.740  0.7135 -1.4976 -3.3308
  460MOL0     H62039   3.321  10.068   2.852  1.2192  0.3567  1.6560
  460MOL0     H62040   3.491  10.010   2.840  1.4092  0.5260 -2.0744
  460MOL0     H62041   3.509  10.098   2.626 -2.3383 -4.0590  0.2962
  460MOL0     H62042   3.356  10.190   2.651  0.4479  0.9508  2.2556
  460MOL0     H62043   3.620  10.220   2.803  0.9322  1.4022 -0.8771
  460MOL0     H62044   3.543  10.338   2.693 -1.7156 -1.1211 -1.3546
  460MOL0     H62045   3.425  10.258   2.952 -0.3429 -0.6334 -1.7592
  460MOL0     H62046   3.518  10.398   2.926  0.9755 -2.4028  3.6045
  460MOL0     H62047   3.353  10.483   2.755 -0.6982  1.7407  1.6804
  460MOL0     H62048   3.237  10.364   2.799 -0.5387 -0.5444 -0.5806
  460MOL0     H62049   3.370  10.564   2.987  3.0697 -2.0137 -1.2935
  460MOL0     H62050   3.262  10.422   3.028  1.9030 -1.0862 -0.7721
  460MOL0     H62051   3.007  10.464   3.054  1.9437  0.4479  1.9862
  460MOL0     H62052   2.761  10.672   3.013  1.4149  1.6867 -0.2510
  460MOL0     H62053   2.773  10.690   2.832  1.7576  1.4854 -0.8554
  460MOL0     H62054   2.783  10.436   2.978 -0.4069  2.4953  0.1470
  460MOL0     H62055   2.802  10.475   2.798 -4.5052  1.4940 -3.7404
  460MOL0     H62056   2.545  10.545   2.939  2.8953  0.2600  3.9738
  460MOL0     H62057   2.569  10.377   2.897 -1.0618  1.4201  3.0728
  460MOL0     H62058   2.578  10.610   2.695  0.6899 -0.6814 -0.7229
  460MOL0     H62059   2.427  10.526   2.739 -0.8704 -0.0461 -1.1371
  460MOL0     H62060   2.499  10.590   2.472  1.5668 -0.6102  2.0889
  460MOL0     H62061   2.393  10.564   2.130 -0.2743  0.3947  0.2608
  460MOL0     H62062   2.292  10.621   2.261 -2.3292 -3.0363 -0.7888
  460MOL0     H62063   2.465  10.671   2.248 -0.5682  0.9637 -1.4843
  460MOL0     H62064   2.057  10.109   2.143 -0.0298 -0.6199  0.7742
  460MOL0     H62065   1.913  10.036   1.963 -0.6166  1.8766 -0.4209
  460MOL0     H62066   2.078  10.083   1.550  1.6549 -0.5507 -1.2981
  460MOL0     H62067   2.121   9.919   1.561 -1.7063 -1.6806 -1.2673
  460MOL0     H62068   1.875   9.851   1.526  1.1365  0.7916  1.1229
  460MOL0     H62069   1.824  10.012   1.526  1.6881  1.4236  1.3041
  460MOL0     H62070   1.895  10.078   1.317 -1.7083 -1.7006 -4.0839
  460MOL0     H62071   1.855   9.909   1.290  1.6722 -0.6410 -2.5529
  460MOL0     H62072   2.139  10.017   1.331 -0.7291 -0.2993  0.1869
  460MOL0     H62073   2.096   9.853   1.332 -0.9483 -1.5796 -1.9499
  460MOL0     H62074   2.018   9.864   1.098  3.0615 -0.7496 -4.3002
  460MOL0     H62075   2.176   9.938   1.116 -0.2119 -0.3089  0.7185
  460MOL0     H62076   1.907  10.086   1.065  0.6197 -0.7969 -0.1687
  460MOL0     H62077   2.060  10.158   1.130 -1.6319  2.3863 -0.5444
  460MOL0     H62078   2.164  10.054   0.903 -0.6170 -1.0805  1.3237
  460MOL0     H62079   2.059  10.190   0.881 -0.3776  0.0077  1.3474
  460MOL0     H62080   1.934   9.917   0.885  0.2297  0.1881 -1.7862
  460MOL0     H62081   2.008   9.961   0.729  2.1188  2.8100 -0.2200
  460MOL0     H62082   2.264  10.030   1.709 -1.0127 -1.3387  0.8675
  460MOL0     H62083   2.394  10.106   1.894 -1.0544  2.9053 -2.8572
  460MOL0     H62084   2.437  10.131   2.319 -1.5593 -0.1883  1.4433
  460MOL0     H62085   2.553  10.169   2.531  1.5447  0.2534 -0.9583
  460MOL0     H62086   3.344   9.560   2.388  1.0788 -1.5433  0.0595
  460MOL0     H62087   3.365   9.611   2.166  0.5077  1.4554 -2.5754
  460MOL0     H62088   3.407   9.804   1.814  0.0671  1.0722  1.0507
  460MOL0     H62089   3.420   9.774   1.580 -0.8131  0.6337  0.5653
  460MOL0     H62090   3.580   9.648   1.265 -1.4398  0.7512 -0.0613
  460MOL0     H62091   3.482   9.644   1.407 -1.8454  1.0450 -2.0646
  460MOL0     H62092   3.541   9.871   1.231  3.0037 -0.8553  2.8088
  460MOL0     H62093   3.432   9.888   1.371 -2.4209  1.4575 -2.2252
  460MOL0     H62094   3.372   9.739   1.109 -3.3734  2.7705 -1.6610
  460MOL0     H62095   3.285   9.860   1.194  2.2030  0.1790 -1.8507
  460MOL0     H62096   3.282   9.605   1.340  1.2675 -0.2783 -2.7831
  460MOL0     H62097   3.189   9.623   1.194 -2.6863 -4.0533  2.7182
  460MOL0     H62098   2.966   9.873   1.454 -0.1610  0.9126 -1.2571
  460MOL0     H62099   3.840   9.835   1.577 -0.5723  0.2233 -0.9752
  460MOL0     H62100   3.834   9.875   1.818 -1.0946  0.2597  2.6520
  461MOL0     O62101  10.130  10.677   1.240 -0.1853 -0.7730  0.3489
  461MOL0     C62102  10.171  10.580   1.307 -0.5294 -0.3546 -0.2020
  461MOL0     O62103  10.090  10.489   1.381 -0.0506  0.0501 -0.2678
  461MOL0     C62104   9.962  10.467   1.350 -0.2210  0.0409  0.2420
  461MOL0     C62105   9.857  10.508   1.426  0.7177  0.3783 -1.1312
  461MOL0     C62106   9.728  10.480   1.388 -0.0107 -0.0326 -0.4093
  461MOL0     C62107   9.697  10.421   1.265 -0.0790  0.2691 -0.1488
  461MOL0     O62108   9.562  10.409   1.231  0.0509 -0.1466  0.2212
  461MOL0     C62109   9.520  10.380   1.098  0.8929  0.6142  0.8477
  461MOL0     C62110   9.377  10.405   1.077  0.5594  0.1398  1.0605
  461MOL0     C62111   9.315  10.528   1.148  0.1397  0.6421  0.3709
  461MOL0     C62112   9.178  10.552   1.090 -0.2139  0.7340 -0.4436
  461MOL0     C62113   9.097  10.659   1.171  0.0724 -1.1850  0.1970
  461MOL0     C62114   8.956  10.672   1.121 -0.4186  0.1349  0.6245
  461MOL0     C62115   8.871  10.555   1.163  0.1592 -0.7851  0.0171
  461MOL0     C62116   8.741  10.578   1.086 -0.7233  0.8130 -0.3843
  461MOL0     N62117   8.643  10.478   1.131  0.8880 -1.0284  0.6178
  461MOL0     C62118   8.626  10.344   1.089 -0.0597 -0.2350  0.0561
  461MOL0     C62119   8.501  10.305   1.133 -0.1634  0.1302 -0.7858
  461MOL0     C62120   8.446  10.163   1.121  0.3554  0.0947 -0.4462
  461MOL0     C62121   8.310  10.145   1.187 -0.4059  0.8323 -0.5924
  461MOL0     C62122   8.275   9.995   1.183  0.3562  0.4465 -0.0448
  461MOL0     C62123   8.223   9.952   1.324  0.1067 -0.0805  1.0653
  461MOL0     O62124   8.150   9.828   1.333  0.2449 -0.5655 -0.3370
  461MOL0     C62125   8.210   9.715   1.395  0.2897  0.1864 -0.0470
  461MOL0     C62126   8.131   9.602   1.425 -0.3739 -0.2554  0.1600
  461MOL0     C62127   8.186   9.496   1.498 -0.0313 -0.4665 -0.4897
  461MOL0     C62128   8.095   9.381   1.535 -0.1668 -0.1184 -0.7641
  461MOL0     C62129   8.326   9.501   1.530 -0.2006 -1.1999 -0.4505
  461MOL0     C62130   8.401   9.393   1.606  0.8455  0.0242  0.6855
  461MOL0     O62131   8.359   9.262   1.591 -0.4340  0.1675 -0.3057
  461MOL0     C62132   8.434   9.171   1.663  0.7803  0.6680 -0.7288
  461MOL0     C62133   8.422   9.167   1.806 -0.8850  0.1781 -0.4446
  461MOL0     C62134   8.483   9.072   1.878 -0.4652 -0.1040 -0.3964
  461MOL0     C62135   8.581   8.984   1.820 -0.0147  0.2048  0.1924
  461MOL0     O62136   8.665   8.893   1.884 -0.4960 -0.1660 -0.6553
  461MOL0     C62137   8.708   8.918   2.022  0.2687 -0.1382 -0.0195
  461MOL0     C62138   8.827   9.023   2.018  0.0008  0.6599  0.0762
  461MOL0     C62139   8.951   8.958   1.955 -0.4642  0.6762  1.0427
  461MOL0     C62140   9.060   9.060   1.943  0.3305  0.4680 -0.9463
  461MOL0     C62141   9.207   9.014   1.897  0.8332  0.6057 -0.5173
  461MOL0     C62142   9.281   8.942   2.008  0.8958 -0.3708 -0.5354
  461MOL0     C62143   9.419   8.887   1.962  0.4269  0.3132  0.0651
  461MOL0     C62144   9.525   8.994   1.921 -1.0938  0.0396  0.3020
  461MOL0    Cl62145   9.555   9.098   2.069 -0.4769  0.5547 -0.3152
  461MOL0     C62146   8.603   9.001   1.682  0.8057  0.4772 -0.2861
  461MOL0     C62147   8.523   9.087   1.604  0.4043 -0.4616  0.4061
  461MOL0     O62148   8.496   9.425   1.663  0.3843 -0.2450  0.8068
  461MOL0     C62149   8.400   9.611   1.500  0.8571 -0.9624 -1.1075
  461MOL0     C62150   8.349   9.710   1.422  0.4775 -1.0348 -0.3465
  461MOL0     N62151   8.459  10.413   1.216  0.4864  0.2565 -0.1974
  461MOL0     N62152   8.528  10.510   1.204 -0.2922  0.2435 -0.0307
  461MOL0     C62153   9.808  10.371   1.195  1.1926 -0.2418  0.5080
  461MOL0     C62154   9.934  10.404   1.232  0.5476  0.0510 -0.1439
  461MOL0     C62155  10.322  10.566   1.317  1.3635  0.0732 -0.1842
  461MOL0     C62156  10.404  10.670   1.278  0.1096  0.4203 -0.1455
  461MOL0     C62157  10.538  10.676   1.311  0.0997 -0.7748  0.0053
  461MOL0     C62158  10.589  10.577   1.402 -0.7075  0.1568 -0.5309
  461MOL0     O62159  10.706  10.594   1.472  0.3265 -0.5195  0.3937
  461MOL0     C62160  10.795  10.703   1.429  0.5762  0.5935 -0.6734
  461MOL0     C62161  10.926  10.677   1.507 -0.9431 -0.3573 -0.3948
  461MOL0     C62162  11.051  10.658   1.410 -0.1874 -0.3317  0.1968
  461MOL0     C62163  11.057  10.512   1.367  0.1309 -0.1060 -0.1657
  461MOL0     C62164  11.165  10.487   1.269 -1.4921  0.4879  0.1857
  461MOL0     C62165  11.253  10.465   1.192 -0.8240 -0.0352 -0.0155
  461MOL0     C62166  10.507  10.472   1.434 -0.2675  0.1743  0.1275
  461MOL0     C62167  10.378  10.469   1.395  1.1415  0.6532 -1.3088
  461MOL0     H62168   9.871  10.543   1.527 -0.0164 -1.4612 -0.3307
  461MOL0     H62169   9.642  10.510   1.448 -1.6104 -2.3872 -1.3404
  461MOL0     H62170   9.584  10.447   1.040 -0.7094 -0.1461 -1.9779
  461MOL0     H62171   9.545  10.275   1.077 -1.2865  0.4394 -1.2978
  461MOL0     H62172   9.356  10.411   0.970  2.3532  2.5107  0.7798
  461MOL0     H62173   9.325  10.318   1.121  1.7598 -0.0090  2.2409
  461MOL0     H62174   9.319  10.519   1.257  2.2756 -1.4710  0.1999
  461MOL0     H62175   9.382  10.614   1.142  1.0085  0.1842  2.6100
  461MOL0     H62176   9.190  10.591   0.988  0.2627  2.4340  0.2432
  461MOL0     H62177   9.128  10.456   1.106  1.9687 -0.0782  2.1655
  461MOL0     H62178   9.103  10.646   1.280 -1.0424 -2.4920  0.1256
  461MOL0     H62179   9.140  10.758   1.155 -4.0350  0.8357  0.3172
  461MOL0     H62180   8.908  10.763   1.157  2.3741  1.0144  2.4115
  461MOL0     H62181   8.971  10.672   1.013  0.6421  1.9052  0.7377
  461MOL0     H62182   8.912  10.456   1.140  1.2111 -0.1468 -0.9501
  461MOL0     H62183   8.864  10.568   1.272  0.2629 -0.1822 -0.0453
  461MOL0     H62184   8.768  10.563   0.981  1.1065 -1.7709  0.3657
  461MOL0     H62185   8.696  10.676   1.107 -0.7107  1.0792 -1.5227
  461MOL0     H62186   8.704  10.293   1.032 -0.7483 -0.3171 -0.8355
  461MOL0     H62187   8.445  10.132   1.016  2.5458  1.9170 -1.0838
  461MOL0     H62188   8.521  10.098   1.169 -1.7417 -2.3577 -0.2554
  461MOL0     H62189   8.239  10.215   1.143  0.1714  0.5215 -2.0457
  461MOL0     H62190   8.317  10.174   1.292  0.5072  2.1498 -1.0029
  461MOL0     H62191   8.364   9.933   1.166 -0.5663 -0.6850 -0.9217
  461MOL0     H62192   8.206   9.976   1.100  0.4027  2.7321 -0.6827
  461MOL0     H62193   8.157  10.032   1.359 -1.0843 -0.0311 -1.1125
  461MOL0     H62194   8.298   9.956   1.403  2.6690  2.4081 -1.2681
  461MOL0     H62195   8.030   9.594   1.388  0.1494 -1.7118 -1.0439
  461MOL0     H62196   8.140   9.286   1.505  1.5376  0.2954  0.2951
  461MOL0     H62197   8.075   9.366   1.642  2.9388  2.5200  0.3648
  461MOL0     H62198   8.000   9.397   1.483  1.3673  3.2939 -2.8591
  461MOL0     H62199   8.350   9.228   1.859  1.4281  2.8742 -0.1856
  461MOL0     H62200   8.466   9.075   1.985 -0.1459 -2.2100 -0.2435
  461MOL0     H62201   8.623   8.962   2.075  1.5569 -0.2425  2.2296
  461MOL0     H62202   8.742   8.825   2.067 -1.6517 -0.8101  0.1217
  461MOL0     H62203   8.805   9.106   1.950  2.4961  0.1377 -1.5161
  461MOL0     H62204   8.841   9.071   2.115  2.0121  1.1792 -0.4329
  461MOL0     H62205   8.931   8.932   1.851 -0.3735  1.2746  0.8727
  461MOL0     H62206   8.983   8.871   2.012  1.1785  1.0609  0.7845
  461MOL0     H62207   9.027   9.129   1.865  0.3239  3.2352  1.3397
  461MOL0     H62208   9.061   9.127   2.029  2.2072 -1.9090  1.0583
  461MOL0     H62209   9.269   9.090   1.849 -0.1317  2.3040  0.8095
  461MOL0     H62210   9.183   8.950   1.811  0.4634 -0.3390  0.2673
  461MOL0     H62211   9.291   9.023   2.081 -0.7036  0.4978 -1.2267
  461MOL0     H62212   9.221   8.855   2.037  2.2118 -1.3456 -0.6316
  461MOL0     H62213   9.411   8.824   1.873  4.2889  1.4624 -1.2808
  461MOL0     H62214   9.447   8.817   2.041 -1.5660 -0.1177  0.4680
  461MOL0     H62215   9.506   9.052   1.830 -1.5343 -0.4621  0.0695
  461MOL0     H62216   9.618   8.937   1.915 -0.8231  0.4680  0.3880
  461MOL0     H62217   8.678   8.939   1.633 -0.7748  0.1909 -2.4658
  461MOL0     H62218   8.555   9.095   1.501 -0.4274  1.2325  0.2536
  461MOL0     H62219   8.499   9.633   1.540 -0.8802  0.8975  2.6825
  461MOL0     H62220   8.405   9.798   1.391  2.3250 -1.3753  1.7433
  461MOL0     H62221   9.799  10.329   1.096 -0.2843 -0.4754  0.7158
  461MOL0     H62222  10.011  10.353   1.176  0.6708  1.6100 -1.4744
  461MOL0     H62223  10.372  10.753   1.216  3.3761  0.0550 -2.6042
  461MOL0     H62224  10.588  10.768   1.283 -1.5184  0.9282  2.2924
  461MOL0     H62225  10.808  10.696   1.321  2.5665  0.6089 -0.4847
  461MOL0     H62226  10.765  10.799   1.472  1.1590 -0.5531  2.5927
  461MOL0     H62227  10.926  10.580   1.557  1.9707 -2.1021 -3.3429
  461MOL0     H62228  10.946  10.759   1.577  1.4561  0.2246 -1.6677
  461MOL0     H62229  11.141  10.655   1.472  0.7738  0.6956 -1.1124
  461MOL0     H62230  11.046  10.731   1.329  0.9592 -0.8045 -0.3190
  461MOL0     H62231  10.956  10.482   1.338 -0.1341  1.1005 -0.5745
  461MOL0     H62232  11.074  10.444   1.451 -1.6579  1.2512  1.3780
  461MOL0     H62233  11.339  10.453   1.130  0.1729  1.6186  0.9880
  461MOL0     H62234  10.542  10.405   1.513 -2.4758 -0.3579  0.7153
  461MOL0     H62235  10.318  10.387   1.433 -0.7392  2.3087 -0.4898
  462MOL0     O62236   8.332  11.307   8.390  0.2327 -1.1636 -0.4608
  462MOL0     C62237   8.367  11.208   8.319 -0.4470 -0.4498 -0.3502
  462MOL0     O62238   8.283  11.100   8.294 -0.9133  0.2177  0.2125
  462MOL0     C62239   8.153  11.082   8.354 -0.8222 -0.2796  0.5733
  462MOL0     C62240   8.068  11.179   8.406  0.3820  1.2389  0.5406
  462MOL0     C62241   7.950  11.148   8.474 -0.5634 -0.7044  0.4697
  462MOL0     C62242   7.910  11.011   8.485  0.3437 -0.5150 -0.1126
  462MOL0     O62243   7.796  10.996   8.545  0.3951 -0.1062 -0.6101
  462MOL0     C62244   7.771  10.874   8.616  0.4953  0.0643  0.1836
  462MOL0     C62245   7.674  10.889   8.739 -1.1111 -0.4433 -0.3043
  462MOL0     C62246   7.547  10.956   8.703 -0.5713 -0.0675 -0.2385
  462MOL0     C62247   7.463  10.879   8.604  0.0266 -0.1717 -0.3347
  462MOL0     C62248   7.338  10.957   8.566 -1.0156 -0.3484  0.4505
  462MOL0     C62249   7.246  10.972   8.684 -0.7651  0.3161  1.9018
  462MOL0     C62250   7.106  11.026   8.639 -0.2979 -0.1438 -0.2541
  462MOL0     C62251   6.989  11.003   8.736 -0.2805 -0.9720 -0.2900
  462MOL0     N62252   6.863  11.025   8.669  0.4702 -0.3368 -0.5376
  462MOL0     C62253   6.779  10.934   8.615 -0.0451  0.3906 -0.3920
  462MOL0     C62254   6.661  11.002   8.586 -0.6303 -0.8605  0.0751
  462MOL0     C62255   6.533  10.951   8.526  0.3459  0.3893 -0.2043
  462MOL0     C62256   6.546  10.915   8.379  0.5841  0.0073 -0.0384
  462MOL0     C62257   6.420  10.858   8.319  0.3523 -1.3860 -0.3306
  462MOL0     C62258   6.449  10.811   8.179 -0.1404  0.1969  0.8496
  462MOL0     O62259   6.478  10.904   8.079  0.0443 -0.4871 -0.3446
  462MOL0     C62260   6.384  10.984   8.015 -0.0100 -0.1467  1.2584
  462MOL0     C62261   6.248  10.998   8.050  0.2291  0.0201 -1.1509
  462MOL0     C62262   6.161  11.088   7.994  0.7088 -0.8358  0.0207
  462MOL0     C62263   6.025  11.124   8.054 -0.2199  0.6105  0.4127
  462MOL0     C62264   6.209  11.171   7.892 -0.5691  0.3447  0.1321
  462MOL0     C62265   6.137  11.283   7.824 -0.2977  0.1885 -0.2756
  462MOL0     O62266   6.126  11.268   7.686 -0.2175  0.2240 -0.1533
  462MOL0     C62267   6.078  11.358   7.590  0.1950  0.0920 -0.2341
  462MOL0     C62268   6.114  11.321   7.464 -0.5306 -0.9536  0.5052
  462MOL0     C62269   6.081  11.402   7.358 -0.4525  1.2483  0.4224
  462MOL0     C62270   6.024  11.519   7.385  0.6882 -1.1052 -0.3970
  462MOL0     O62271   5.996  11.613   7.287 -0.4555  1.0356  0.0733
  462MOL0     C62272   6.073  11.628   7.165 -0.2609  0.0777  0.5372
  462MOL0     C62273   6.211  11.688   7.203  0.1862 -0.7752 -0.2173
  462MOL0     C62274   6.197  11.848   7.232  0.5271  0.8576  0.6494
  462MOL0     C62275   6.313  11.903   7.312  0.3219  0.4253  1.2162
  462MOL0     C62276   6.309  12.054   7.313  0.0700 -0.2770 -0.2362
  462MOL0     C62277   6.417  12.131   7.387 -0.3615  0.8792 -0.5487
  462MOL0     C62278   6.408  12.283   7.367 -0.1045  0.2949  0.0705
  462MOL0     C62279   6.536  12.354   7.392 -1.2392 -0.3321 -0.5152
  462MOL0    Cl62280   6.557  12.343   7.558  0.1179 -0.0712  0.4517
  462MOL0     C62281   5.989  11.557   7.507  0.3394 -0.7311 -0.5912
  462MOL0     C62282   6.020  11.476   7.617  0.2160 -0.7434 -0.5843
  462MOL0     O62283   6.097  11.382   7.897 -1.1669  0.3956  0.3006
  462MOL0     C62284   6.343  11.156   7.849 -0.3008  0.3358  0.3291
  462MOL0     C62285   6.429  11.067   7.914  0.5258  0.0031 -0.5017
  462MOL0     N62286   6.669  11.129   8.637 -0.0615  0.0996 -0.3462
  462MOL0     N62287   6.792  11.138   8.674 -0.3506  0.1643 -0.3604
  462MOL0     C62288   7.994  10.916   8.428  0.6529  0.6956 -0.5054
  462MOL0     C62289   8.115  10.953   8.358  0.2995  0.9517  0.0986
  462MOL0     C62290   8.495  11.217   8.247  0.0022 -0.9404 -1.0276
  462MOL0     C62291   8.551  11.112   8.181 -0.4112  0.4153 -0.8465
  462MOL0     C62292   8.678  11.107   8.118  0.3171 -0.1835 -0.3484
  462MOL0     C62293   8.748  11.226   8.103  0.8457  0.4098  0.0172
  462MOL0     O62294   8.867  11.222   8.034  0.0805 -0.3272  0.5165
  462MOL0     C62295   8.980  11.305   8.072  0.6166 -0.0416  0.5532
  462MOL0     C62296   9.030  11.268   8.213 -1.0775 -0.3911  0.0466
  462MOL0     C62297   9.067  11.122   8.224 -0.0437  0.0697 -0.6889
  462MOL0     C62298   9.151  11.099   8.354 -0.3289 -0.0641  0.6212
  462MOL0     C62299   9.089  11.128   8.482  0.6955 -0.5817 -0.3945
  462MOL0     C62300   9.049  11.148   8.590  0.7816 -0.2727  0.5443
  462MOL0     C62301   8.695  11.346   8.165 -0.6062  0.2315 -0.6542
  462MOL0     C62302   8.572  11.342   8.245  0.0385 -0.5030  0.0152
  462MOL0     H62303   8.086  11.286   8.412  0.3052  1.2862 -0.0474
  462MOL0     H62304   7.903  11.226   8.532  1.0429  1.1616 -0.6144
  462MOL0     H62305   7.724  10.804   8.545  0.3911 -0.9346  1.2148
  462MOL0     H62306   7.861  10.826   8.655  0.4650 -1.5909 -1.6405
  462MOL0     H62307   7.650  10.786   8.767 -1.3796 -0.2143  0.3300
  462MOL0     H62308   7.722  10.930   8.829 -3.5702  3.0969 -0.3978
  462MOL0     H62309   7.489  10.970   8.795 -0.7520  1.3006 -0.5281
  462MOL0     H62310   7.568  11.059   8.672 -3.2461  0.9078  0.9240
  462MOL0     H62311   7.521  10.854   8.515  1.0161  1.0307 -0.0567
  462MOL0     H62312   7.444  10.781   8.649  1.2386 -0.5489 -0.6205
  462MOL0     H62313   7.370  11.053   8.522 -1.2490 -0.6843 -0.4775
  462MOL0     H62314   7.298  10.895   8.485  1.4614  1.6679 -2.5591
  462MOL0     H62315   7.244  10.872   8.727 -2.3669 -0.3673  0.3620
  462MOL0     H62316   7.276  11.039   8.765 -1.4635  1.9049  0.9014
  462MOL0     H62317   7.113  11.132   8.612  2.8565 -0.4221 -0.9344
  462MOL0     H62318   7.072  10.975   8.549  1.9218 -1.8108 -0.2351
  462MOL0     H62319   6.988  11.067   8.825 -3.1294 -1.3639  0.0367
  462MOL0     H62320   6.982  10.898   8.765 -2.9137 -0.3390  1.7378
  462MOL0     H62321   6.791  10.827   8.599  0.5886  0.7424 -2.6034
  462MOL0     H62322   6.497  10.859   8.574 -1.1203  1.1909  0.2786
  462MOL0     H62323   6.452  11.022   8.543 -0.2057 -0.3137  0.1942
  462MOL0     H62324   6.618  10.835   8.356  1.4496  0.0781  2.1577
  462MOL0     H62325   6.592  10.996   8.321 -1.0959 -0.1424 -1.6391
  462MOL0     H62326   6.336  10.927   8.312  1.2570 -0.2028  0.2079
  462MOL0     H62327   6.381  10.772   8.375 -0.0805 -0.5674  0.6428
  462MOL0     H62328   6.356  10.765   8.145 -0.4043  1.9008 -0.9062
  462MOL0     H62329   6.523  10.731   8.174 -0.7282 -0.2804 -1.1218
  462MOL0     H62330   6.187  10.956   8.130  1.2878 -0.2900 -0.4814
  462MOL0     H62331   6.033  11.214   8.115  2.8699 -1.0697  2.7215
  462MOL0     H62332   5.942  11.143   7.985 -0.6464  0.1076  0.7685
  462MOL0     H62333   5.984  11.043   8.116 -0.3737  0.5919  0.2887
  462MOL0     H62334   6.167  11.230   7.440  0.2615 -0.3967  0.1060
  462MOL0     H62335   6.110  11.376   7.256 -0.5019  2.1664  0.1671
  462MOL0     H62336   6.094  11.537   7.109 -2.0825  0.3255 -0.6136
  462MOL0     H62337   6.022  11.700   7.101 -2.2886  0.7138  2.7117
  462MOL0     H62338   6.256  11.633   7.286  2.8180  0.6456 -0.6201
  462MOL0     H62339   6.280  11.672   7.120  0.8272  0.0296  0.1497
  462MOL0     H62340   6.111  11.857   7.300  0.7259 -3.3384  1.7555
  462MOL0     H62341   6.165  11.895   7.139 -2.8741  0.6853  1.5757
  462MOL0     H62342   6.317  11.859   7.412  0.0601  2.3104  2.1068
  462MOL0     H62343   6.408  11.878   7.266  1.6410  1.4050  3.2663
  462MOL0     H62344   6.207  12.076   7.348 -0.8431  0.8319 -3.2861
  462MOL0     H62345   6.313  12.086   7.209  2.1441  3.3162  0.7748
  462MOL0     H62346   6.423  12.111   7.494  0.6671  1.3397 -0.5058
  462MOL0     H62347   6.507  12.087   7.343  0.4603  0.9930  0.9631
  462MOL0     H62348   6.324  12.324   7.423  0.8485  1.8490  0.4169
  462MOL0     H62349   6.390  12.292   7.259  1.6123 -0.1845 -0.2898
  462MOL0     H62350   6.520  12.458   7.360 -0.8984 -0.6133 -1.6591
  462MOL0     H62351   6.623  12.307   7.347  0.4713  1.0010  1.2320
  462MOL0     H62352   5.944  11.653   7.527  4.5831  1.1457  1.3455
  462MOL0     H62353   5.990  11.507   7.717 -0.1438  1.3989 -1.3015
  462MOL0     H62354   6.394  11.220   7.778 -1.6446  1.2890  0.1961
  462MOL0     H62355   6.533  11.063   7.882 -0.1075  0.4771 -2.8086
  462MOL0     H62356   7.958  10.814   8.421 -0.8363  0.9535  2.1797
  462MOL0     H62357   8.167  10.869   8.314 -1.4531 -0.8143  1.2235
  462MOL0     H62358   8.505  11.017   8.206 -0.6590  1.0550  1.3774
  462MOL0     H62359   8.717  11.009   8.091 -0.8878 -0.7992  0.0539
  462MOL0     H62360   9.061  11.307   7.998 -0.0408  1.1928 -0.1584
  462MOL0     H62361   8.943  11.407   8.062 -2.1473 -1.0575 -0.8655
  462MOL0     H62362   8.946  11.298   8.277 -0.3735  1.7372  0.0707
  462MOL0     H62363   9.113  11.336   8.233 -1.1911  0.2725 -1.5753
  462MOL0     H62364   9.114  11.099   8.127 -0.6406  1.0365 -1.2253
  462MOL0     H62365   8.972  11.067   8.228  0.0365 -0.0142  0.2892
  462MOL0     H62366   9.233  11.172   8.350 -0.6234  0.2402 -1.7755
  462MOL0     H62367   9.201  11.002   8.364  2.5222  1.3511  1.3274
  462MOL0     H62368   9.015  11.174   8.688  1.2416  4.1493 -0.2674
  462MOL0     H62369   8.751  11.439   8.158  3.5984 -2.0806 -1.2470
  462MOL0     H62370   8.533  11.434   8.288 -0.7453  0.2072 -2.0869
  463MOL0     O62371   3.867   6.208  10.041 -0.5015  0.8250 -0.6272
  463MOL0     C62372   3.850   6.101   9.973 -0.3998  0.2731 -0.2772
  463MOL0     O62373   3.938   5.995   9.985  0.4988 -0.2155  0.2227
  463MOL0     C62374   4.032   6.014  10.084 -0.3067  0.1664  0.2847
  463MOL0     C62375   4.161   6.052  10.052 -0.0976  0.2849 -0.3586
  463MOL0     C62376   4.252   6.068  10.158  0.7948 -0.0566  0.3852
  463MOL0     C62377   4.209   6.043  10.293 -0.4950 -0.4187  0.4163
  463MOL0     O62378   4.294   6.070  10.395  0.1297  0.1102 -0.1619
  463MOL0     C62379   4.279   6.035  10.525  0.3754 -0.1019 -0.0422
  463MOL0     C62380   4.407   6.039  10.599  0.3844 -1.8446 -0.4836
  463MOL0     C62381   4.524   5.976  10.531  0.0723  0.0252  0.2117
  463MOL0     C62382   4.660   5.988  10.618 -0.6074 -1.1785 -0.2347
  463MOL0     C62383   4.756   5.883  10.564 -0.4144  0.8447  0.7521
  463MOL0     C62384   4.784   5.892  10.412 -0.3904 -0.2829 -0.9399
  463MOL0     C62385   4.894   5.799  10.353 -0.0608  0.3939 -0.3100
  463MOL0     C62386   5.032   5.801  10.418 -0.8199 -1.4294 -0.5800
  463MOL0     N62387   5.100   5.935  10.420  0.2739 -1.2081  0.8094
  463MOL0     C62388   5.140   5.995  10.300 -0.8012 -0.0080  0.0807
  463MOL0     C62389   5.147   6.124  10.337  0.5223 -0.0498  0.1764
  463MOL0     C62390   5.164   6.236  10.242 -0.4879 -0.4567  0.0345
  463MOL0     C62391   5.309   6.292  10.239 -0.5420 -0.0724  0.5955
  463MOL0     C62392   5.356   6.382  10.365  0.5124 -0.2316  0.2861
  463MOL0     C62393   5.453   6.493  10.336 -0.0093 -0.0772  0.9523
  463MOL0     O62394   5.382   6.597  10.270 -0.4863 -0.4550 -0.2421
  463MOL0     C62395   5.450   6.711  10.223 -0.7316  0.2579  0.0223
  463MOL0     C62396   5.384   6.800  10.137 -0.6632  0.2906 -0.0168
  463MOL0     C62397   5.448   6.905  10.071  0.3561 -0.6750  0.5060
  463MOL0     C62398   5.359   6.989   9.991 -0.0568 -0.1862 -0.0177
  463MOL0     C62399   5.582   6.934  10.085 -0.6651 -0.0284 -0.1175
  463MOL0     C62400   5.665   7.044  10.021 -0.4313  0.1508 -0.2748
  463MOL0     O62401   5.604   7.141   9.956 -1.1003 -0.7079  0.2590
  463MOL0     C62402   5.679   7.243   9.910  0.8615  0.1580 -0.4839
  463MOL0     C62403   5.749   7.332   9.991  0.0506  0.3752 -1.0313
  463MOL0     C62404   5.825   7.438   9.948 -0.2652 -0.2937  0.3624
  463MOL0     C62405   5.846   7.450   9.808 -0.5388 -0.3827 -0.0876
  463MOL0     O62406   5.924   7.548   9.751  0.3562 -0.4574  0.2546
  463MOL0     C62407   5.974   7.651   9.834 -0.3698 -0.1350 -0.2025
  463MOL0     C62408   6.023   7.757   9.739 -0.4700 -0.2152 -0.4217
  463MOL0     C62409   6.082   7.888   9.815  0.2431 -0.5130  0.0197
  463MOL0     C62410   5.978   7.982   9.889 -0.4487 -0.3316  0.3804
  463MOL0     C62411   6.067   8.102   9.947 -0.6527  0.2282 -0.0135
  463MOL0     C62412   5.981   8.203  10.003 -0.1285 -0.6102  0.8454
  463MOL0     C62413   6.064   8.323  10.063  0.1265  1.2471  0.6859
  463MOL0     C62414   6.147   8.405   9.972  0.0134 -0.4716 -0.2532
  463MOL0    Cl62415   6.279   8.481  10.071  0.0472 -0.4998  0.0713
  463MOL0     C62416   5.759   7.367   9.732  0.9621  0.6560  0.0878
  463MOL0     C62417   5.678   7.260   9.770 -0.4079  0.4333  0.0405
  463MOL0     O62418   5.788   7.038  10.044 -0.2985 -0.0981 -0.1658
  463MOL0     C62419   5.648   6.842  10.174 -0.8799 -0.2380  0.0490
  463MOL0     C62420   5.590   6.732  10.241 -0.0279 -1.2530 -0.6246
  463MOL0     N62421   5.145   6.130  10.474  0.1297 -0.7831  0.5480
  463MOL0     N62422   5.109   6.023  10.522  0.0339  0.4846 -0.1230
  463MOL0     C62423   4.083   6.003  10.316  0.1681  0.0914  0.0766
  463MOL0     C62424   3.990   5.990  10.217 -0.7071  0.2751 -0.3655
  463MOL0     C62425   3.752   6.108   9.865 -0.2558  0.4314  1.0171
  463MOL0     C62426   3.696   6.234   9.831  0.0342  0.7098 -0.4923
  463MOL0     C62427   3.611   6.255   9.721 -0.6316  0.7571  0.3919
  463MOL0     C62428   3.577   6.148   9.644  0.2177  0.8511 -0.1803
  463MOL0     O62429   3.502   6.145   9.529 -0.0147 -0.3960  0.8455
  463MOL0     C62430   3.404   6.249   9.521  0.2352 -0.5815 -0.3065
  463MOL0     C62431   3.292   6.263   9.625  0.7140 -0.4735 -0.8146
  463MOL0     C62432   3.198   6.387   9.613  0.2979  0.2781 -0.4973
  463MOL0     C62433   3.264   6.502   9.693  0.9860  0.3299  0.4633
  463MOL0     C62434   3.351   6.481   9.809 -0.0060  0.4787  0.0760
  463MOL0     C62435   3.426   6.461   9.893  0.1650 -0.3673 -0.4909
  463MOL0     C62436   3.639   6.027   9.671 -0.5408  0.3045  0.2329
  463MOL0     C62437   3.730   6.005   9.773 -0.9124  0.7269  0.0347
  463MOL0     H62438   4.180   6.080   9.949 -0.2919  0.7318 -0.2778
  463MOL0     H62439   4.349   6.110  10.134 -0.7160  2.0068 -2.8536
  463MOL0     H62440   4.206   6.101  10.572  1.1422 -2.1081  4.4422
  463MOL0     H62441   4.248   5.930  10.527 -1.1466  0.2875 -1.1724
  463MOL0     H62442   4.427   6.145  10.618 -0.7662 -2.2725  4.4355
  463MOL0     H62443   4.399   5.986  10.694 -0.7030  0.2392  0.6717
  463MOL0     H62444   4.504   5.869  10.522  0.9275 -0.4578  3.0501
  463MOL0     H62445   4.535   6.024  10.433 -4.0573  4.2179  1.3923
  463MOL0     H62446   4.707   6.087  10.620 -1.1114 -0.5838 -5.3451
  463MOL0     H62447   4.636   5.963  10.722 -1.1731  3.2319  0.8939
  463MOL0     H62448   4.850   5.887  10.620 -0.5466 -0.4642  1.0880
  463MOL0     H62449   4.713   5.784  10.578 -1.5223  0.8845 -1.7116
  463MOL0     H62450   4.691   5.867  10.361  1.3624 -5.0223 -2.3356
  463MOL0     H62451   4.821   5.992  10.390 -0.2633  0.1467  0.9940
  463MOL0     H62452   4.861   5.695  10.352  0.9256  0.0738 -1.3514
  463MOL0     H62453   4.911   5.824  10.248  0.3653 -2.7404 -1.0817
  463MOL0     H62454   5.101   5.730  10.371  1.3759 -0.9515  1.6650
  463MOL0     H62455   5.027   5.770  10.523 -2.9679  2.1224  0.5380
  463MOL0     H62456   5.139   5.966  10.195  0.0758  1.6439 -0.4262
  463MOL0     H62457   5.137   6.207  10.140  0.7049 -1.6184  0.0259
  463MOL0     H62458   5.089   6.312  10.268  0.8475  0.1689  2.2679
  463MOL0     H62459   5.330   6.351  10.149 -0.7159 -0.1589  0.4985
  463MOL0     H62460   5.372   6.204  10.226 -0.6928 -0.2048  0.7570
  463MOL0     H62461   5.396   6.317  10.444 -0.0425 -0.4492  0.3969
  463MOL0     H62462   5.271   6.438  10.406 -0.1644 -1.8653  1.2316
  463MOL0     H62463   5.539   6.468  10.273 -0.1122 -1.7974  1.4383
  463MOL0     H62464   5.506   6.530  10.425 -1.2642  0.8935  1.3306
  463MOL0     H62465   5.277   6.791  10.150 -0.2986 -0.4793  3.3989
  463MOL0     H62466   5.263   6.947  10.023  1.4296 -2.1800  2.0997
  463MOL0     H62467   5.353   7.094  10.023  0.3424 -0.3506  0.6191
  463MOL0     H62468   5.368   6.981   9.883  0.7555 -3.4913  0.2036
  463MOL0     H62469   5.742   7.319  10.098  2.2685 -0.5773 -0.9325
  463MOL0     H62470   5.879   7.491  10.026  2.4582 -2.4196  0.0598
  463MOL0     H62471   5.888   7.684   9.894 -0.6121 -0.2592 -0.4752
  463MOL0     H62472   6.050   7.616   9.905 -0.7598 -2.7239 -0.9393
  463MOL0     H62473   6.114   7.733   9.683  0.5553  1.0967  0.5986
  463MOL0     H62474   5.937   7.788   9.679 -0.2804  2.2199  0.4380
  463MOL0     H62475   6.127   7.944   9.733  0.0898 -1.4378 -0.7187
  463MOL0     H62476   6.161   7.862   9.887  4.0099 -2.2717 -4.2658
  463MOL0     H62477   5.897   8.003   9.819 -1.0016 -2.0110  0.4655
  463MOL0     H62478   5.944   7.934   9.982 -0.9047  1.8141  1.3914
  463MOL0     H62479   6.135   8.146   9.873  0.9327 -1.1763  0.5488
  463MOL0     H62480   6.129   8.059  10.026 -2.4638  0.6155  1.6820
  463MOL0     H62481   5.916   8.254   9.931  2.7837  1.2596 -0.6163
  463MOL0     H62482   5.923   8.156  10.084  0.9654 -1.1325  1.3525
  463MOL0     H62483   6.137   8.286  10.136  1.6445  0.1080 -1.2853
  463MOL0     H62484   6.000   8.393  10.118  1.0552  6.0650 -3.4824
  463MOL0     H62485   6.082   8.487   9.940  2.4741  2.6481  2.1475
  463MOL0     H62486   6.186   8.354   9.884 -1.2598  1.2052 -1.8894
  463MOL0     H62487   5.758   7.406   9.631  1.2706  3.1473  0.9793
  463MOL0     H62488   5.607   7.207   9.708 -1.3167  0.2204  1.2270
  463MOL0     H62489   5.755   6.850  10.188 -1.0115 -0.5261  1.3903
  463MOL0     H62490   5.663   6.679  10.301  2.3248  2.4306  0.0834
  463MOL0     H62491   4.058   5.983  10.419 -2.0468 -1.2590 -0.6522
  463MOL0     H62492   3.887   5.962  10.237 -0.0405 -0.5657  2.3712
  463MOL0     H62493   3.728   6.327   9.876 -0.8212  0.7874 -0.0166
  463MOL0     H62494   3.578   6.355   9.695 -2.4602  0.6172  1.8981
  463MOL0     H62495   3.457   6.344   9.519  1.1020 -1.0559 -1.8072
  463MOL0     H62496   3.358   6.247   9.421 -1.7409  0.7595  0.5118
  463MOL0     H62497   3.352   6.253   9.715  1.1802 -2.5010 -1.2928
  463MOL0     H62498   3.230   6.174   9.604 -2.6108  1.8579 -1.7568
  463MOL0     H62499   3.096   6.366   9.649  0.5547  0.2590  0.2369
  463MOL0     H62500   3.183   6.416   9.509 -1.8584 -0.1910 -0.3679
  463MOL0     H62501   3.180   6.566   9.721 -1.0716 -2.2442  0.5634
  463MOL0     H62502   3.322   6.548   9.612 -0.9476  0.5795 -0.8309
  463MOL0     H62503   3.486   6.434   9.978  2.7978  3.0571 -1.0629
  463MOL0     H62504   3.624   5.948   9.598  0.0212 -1.2437  1.7301
  463MOL0     H62505   3.786   5.914   9.794 -0.8972  0.2718 -1.8779
  464MOL0     O62506   2.250   9.647   4.169 -0.5403  0.0604 -1.0502
  464MOL0     C62507   2.158   9.630   4.252  0.8721 -0.4312  1.0248
  464MOL0     O62508   2.156   9.581   4.377 -0.2586 -0.3449  0.6975
  464MOL0     C62509   2.275   9.551   4.433  0.7727 -0.1269  0.1131
  464MOL0     C62510   2.392   9.510   4.374 -0.3930  0.4118  0.6076
  464MOL0     C62511   2.507   9.463   4.450 -0.3358  0.6307 -0.3814
  464MOL0     C62512   2.492   9.462   4.593 -0.1808 -0.2546  0.1256
  464MOL0     O62513   2.589   9.414   4.677 -0.6453  0.2020 -0.4096
  464MOL0     C62514   2.727   9.385   4.635 -0.4371  0.3071  0.3452
  464MOL0     C62515   2.794   9.289   4.729 -0.3689 -0.0588 -0.3726
  464MOL0     C62516   2.693   9.175   4.771 -0.9297  0.1445  0.2411
  464MOL0     C62517   2.747   9.030   4.814  0.2095  0.2975  0.2467
  464MOL0     C62518   2.631   8.928   4.802 -0.3302  0.4713  0.0469
  464MOL0     C62519   2.662   8.796   4.881  0.3381  0.4877  0.0180
  464MOL0     C62520   2.647   8.809   5.031  0.8196  0.6356 -0.8659
  464MOL0     C62521   2.599   8.689   5.104 -0.5527 -0.1546 -0.0375
  464MOL0     N62522   2.709   8.586   5.075  0.7262 -0.3209 -0.6064
  464MOL0     C62523   2.691   8.489   4.982 -0.1609 -0.7125  0.0569
  464MOL0     C62524   2.809   8.422   4.998  0.8910  0.0671 -1.0292
  464MOL0     C62525   2.848   8.299   4.926 -0.2365  0.6600  1.3552
  464MOL0     C62526   2.941   8.332   4.812  1.1483  0.5089 -0.5276
  464MOL0     C62527   3.068   8.397   4.858  0.0726  0.1547  0.9702
  464MOL0     C62528   3.152   8.333   4.973  0.5189  0.0987  0.3985
  464MOL0     O62529   3.180   8.202   4.941 -0.4478  0.4569  0.2161
  464MOL0     C62530   3.246   8.127   5.030 -0.5133  0.2028 -0.8884
  464MOL0     C62531   3.342   8.183   5.114  0.9177 -0.8686  1.0267
  464MOL0     C62532   3.417   8.098   5.189 -0.2124  0.2877  0.4851
  464MOL0     C62533   3.531   8.157   5.262  0.0269  0.3588 -0.0585
  464MOL0     C62534   3.379   7.953   5.200  0.0479  0.2499 -0.6203
  464MOL0     C62535   3.442   7.860   5.288 -1.1826  0.2929  0.7795
  464MOL0     O62536   3.458   7.899   5.418  0.9891  0.4071  0.1486
  464MOL0     C62537   3.510   7.817   5.522  0.2107  0.3536  0.7657
  464MOL0     C62538   3.624   7.859   5.587 -0.2416 -0.7989 -0.4494
  464MOL0     C62539   3.675   7.780   5.697 -0.2302  0.3621 -0.2266
  464MOL0     C62540   3.618   7.655   5.738 -0.7495 -0.7177 -0.4089
  464MOL0     O62541   3.651   7.589   5.853  0.1091 -0.4643 -0.3159
  464MOL0     C62542   3.632   7.665   5.972 -0.3726  0.0798 -0.8873
  464MOL0     C62543   3.654   7.584   6.099 -0.6415 -1.3413 -1.1450
  464MOL0     C62544   3.784   7.502   6.097  0.5921 -0.9373 -0.2993
  464MOL0     C62545   3.768   7.389   6.203  0.1370  0.9414  0.5228
  464MOL0     C62546   3.776   7.432   6.348  0.2652  0.0741 -1.4686
  464MOL0     C62547   3.845   7.326   6.436  0.8986 -0.1784 -0.4693
  464MOL0     C62548   3.759   7.198   6.430 -0.0842  0.2344  0.7817
  464MOL0     C62549   3.805   7.077   6.509  0.2245  0.0200  0.8353
  464MOL0    Cl62550   3.958   7.085   6.593  0.0663  0.5433  0.2646
  464MOL0     C62551   3.511   7.609   5.657 -1.2071  0.5885  0.2427
  464MOL0     C62552   3.460   7.689   5.554 -0.5093  0.1487 -0.5647
  464MOL0     O62553   3.470   7.747   5.244  0.3525 -0.3077  0.1048
  464MOL0     C62554   3.261   7.910   5.122 -0.7143  0.6349 -0.3184
  464MOL0     C62555   3.204   7.996   5.034  1.3684 -0.5889  0.2094
  464MOL0     N62556   2.887   8.482   5.094 -0.2955 -0.4861  0.1364
  464MOL0     N62557   2.831   8.586   5.132 -0.7060  0.1430  0.7843
  464MOL0     C62558   2.383   9.518   4.653  0.0396 -0.3929  0.0203
  464MOL0     C62559   2.263   9.553   4.580 -0.2306 -0.4312  0.2346
  464MOL0     C62560   2.025   9.658   4.190 -0.2743 -0.0657  0.3575
  464MOL0     C62561   1.914   9.582   4.210 -0.1133  0.0287 -1.0484
  464MOL0     C62562   1.792   9.614   4.161  0.1758 -0.3091  0.8321
  464MOL0     C62563   1.770   9.726   4.081 -0.0033  0.2015 -0.7478
  464MOL0     O62564   1.646   9.746   4.036 -0.0371 -0.2681 -0.2084
  464MOL0     C62565   1.612   9.886   4.006 -0.2844 -0.2275 -0.2452
  464MOL0     C62566   1.458   9.892   3.976  0.4202  0.1903  0.6742
  464MOL0     C62567   1.436  10.037   3.941  0.1454  0.0011  0.4219
  464MOL0     C62568   1.292  10.084   3.961 -0.5341  0.2881 -0.2334
  464MOL0     C62569   1.231  10.061   4.096 -0.0501  1.1806  0.3169
  464MOL0     C62570   1.165  10.055   4.202 -0.5200  0.4873 -0.6584
  464MOL0     C62571   1.884   9.802   4.054  0.1040  0.0229 -0.8335
  464MOL0     C62572   2.013   9.771   4.100  0.3163  0.2391 -0.0812
  464MOL0     H62573   2.396   9.496   4.266 -5.7587  2.7734 -0.2064
  464MOL0     H62574   2.584   9.417   4.390  0.6071  2.1662 -0.3994
  464MOL0     H62575   2.739   9.320   4.548 -0.2915  1.9104 -0.8629
  464MOL0     H62576   2.788   9.474   4.618  2.1961 -1.5093 -0.2952
  464MOL0     H62577   2.890   9.245   4.699 -0.6937 -1.3488  0.3821
  464MOL0     H62578   2.800   9.337   4.827 -1.2591  0.0047 -0.3436
  464MOL0     H62579   2.630   9.206   4.855 -0.3234 -0.3249  0.8854
  464MOL0     H62580   2.635   9.154   4.681  1.1330 -0.4860 -1.0193
  464MOL0     H62581   2.831   8.989   4.758 -0.3542 -0.5252 -0.0207
  464MOL0     H62582   2.776   9.041   4.919  1.8550  2.1137 -0.3357
  464MOL0     H62583   2.545   8.975   4.851  0.6543 -0.5196  2.9366
  464MOL0     H62584   2.604   8.911   4.697  0.0336 -0.8657  0.1496
  464MOL0     H62585   2.591   8.723   4.841  1.6538 -1.1567  0.5872
  464MOL0     H62586   2.754   8.749   4.845 -0.5590 -0.9236 -0.5300
  464MOL0     H62587   2.729   8.849   5.092  0.8754  0.8953 -1.1093
  464MOL0     H62588   2.574   8.889   5.047  0.8983  0.5544 -0.0167
  464MOL0     H62589   2.498   8.652   5.090  0.2359 -1.9493 -1.2529
  464MOL0     H62590   2.604   8.719   5.209  0.0610 -3.3342  0.9460
  464MOL0     H62591   2.605   8.488   4.916 -0.9389  0.4080  1.0020
  464MOL0     H62592   2.907   8.233   4.990 -0.3664 -1.4954 -0.6103
  464MOL0     H62593   2.767   8.249   4.873  2.9024  1.1081 -4.7374
  464MOL0     H62594   2.899   8.400   4.738  0.5685 -1.4500 -2.0720
  464MOL0     H62595   2.968   8.240   4.759  1.5068 -0.1359  0.7273
  464MOL0     H62596   3.054   8.496   4.901  1.3653  1.1097 -0.6669
  464MOL0     H62597   3.141   8.415   4.778  0.2118 -1.4804  0.6810
  464MOL0     H62598   3.097   8.332   5.068  2.1664  0.8733  1.4155
  464MOL0     H62599   3.238   8.400   4.987 -0.3735  0.8199  3.2591
  464MOL0     H62600   3.375   8.286   5.106  0.6771 -0.8501  0.2586
  464MOL0     H62601   3.564   8.236   5.194 -2.6412 -0.2317 -2.1747
  464MOL0     H62602   3.509   8.199   5.361 -0.8487 -0.2098 -0.0047
  464MOL0     H62603   3.610   8.085   5.286 -1.6682 -0.4747  3.8478
  464MOL0     H62604   3.675   7.944   5.543  1.6064 -2.9712 -2.8100
  464MOL0     H62605   3.755   7.833   5.750  1.0989  0.2608 -2.0446
  464MOL0     H62606   3.711   7.741   5.971  0.5172 -0.8266 -2.0034
  464MOL0     H62607   3.528   7.699   5.968 -0.8313 -1.2588 -0.9257
  464MOL0     H62608   3.659   7.654   6.183 -2.3762 -2.0288 -0.4360
  464MOL0     H62609   3.563   7.525   6.110 -0.3933 -1.4086  0.9985
  464MOL0     H62610   3.865   7.572   6.121  0.8899 -1.9204  1.7469
  464MOL0     H62611   3.806   7.450   6.003  0.5644  0.0952 -0.8933
  464MOL0     H62612   3.671   7.337   6.194  0.5209  0.1074  1.0887
  464MOL0     H62613   3.851   7.321   6.181  1.5925  3.1608 -1.3795
  464MOL0     H62614   3.677   7.464   6.381  0.2385 -0.2582 -1.2148
  464MOL0     H62615   3.827   7.529   6.356  0.0689  0.2302 -2.0810
  464MOL0     H62616   3.944   7.313   6.392  1.1388 -3.5666  0.7833
  464MOL0     H62617   3.848   7.360   6.540 -1.5772  3.1758 -1.3063
  464MOL0     H62618   3.739   7.176   6.325  3.5828  2.7018 -0.6407
  464MOL0     H62619   3.670   7.243   6.475  3.0962  3.7765  4.3755
  464MOL0     H62620   3.807   6.988   6.445  1.5716  0.4959  0.1667
  464MOL0     H62621   3.722   7.069   6.580 -0.1486  0.6940  0.4763
  464MOL0     H62622   3.464   7.519   5.693 -2.3763  1.3992  0.8099
  464MOL0     H62623   3.369   7.655   5.506  0.8283 -0.0785 -3.1054
  464MOL0     H62624   3.227   7.807   5.134  1.0853  0.3136  3.6621
  464MOL0     H62625   3.127   7.966   4.964  0.3861  2.4072 -0.1422
  464MOL0     H62626   2.387   9.544   4.758  2.6059  1.2411 -0.4010
  464MOL0     H62627   2.183   9.599   4.636 -0.3971  1.0554 -1.1218
  464MOL0     H62628   1.917   9.498   4.279  3.4662  2.8109  2.7043
  464MOL0     H62629   1.716   9.538   4.169 -1.7523  1.6385  2.2279
  464MOL0     H62630   1.645   9.956   4.084  0.1804 -0.2559 -0.4186
  464MOL0     H62631   1.672   9.907   3.917  3.1476  0.5565  2.0706
  464MOL0     H62632   1.399   9.871   4.066  0.6806 -0.2175  0.7506
  464MOL0     H62633   1.429   9.822   3.897 -1.0537 -0.7737  2.0146
  464MOL0     H62634   1.470  10.080   3.847  3.0328  0.9819  1.8063
  464MOL0     H62635   1.510  10.097   3.994  0.0310  0.6741 -0.1695
  464MOL0     H62636   1.226  10.037   3.887  1.1751 -2.4431 -0.1394
  464MOL0     H62637   1.286  10.192   3.945 -0.5952  0.3895  0.4421
  464MOL0     H62638   1.116  10.062   4.296  1.4190 -1.4013  0.5794
  464MOL0     H62639   1.890   9.892   3.993  1.6276 -0.4964 -1.5105
  464MOL0     H62640   2.097   9.830   4.064  0.0368  2.0532  2.0494
  465MOL0     O62641   2.517   0.419   6.142  0.0449  0.1520 -0.1616
  465MOL0     C62642   2.434   0.339   6.181 -0.6928 -0.2407 -1.2007
  465MOL0     O62643   2.377   0.244   6.106 -0.4876  0.7020  0.1899
  465MOL0     C62644   2.400   0.240   5.972 -0.0555  0.5046 -0.3755
  465MOL0     C62645   2.522   0.259   5.906 -0.5493 -0.8623 -0.4859
  465MOL0     C62646   2.539   0.234   5.772 -0.0119 -0.2575  1.1248
  465MOL0     C62647   2.427   0.208   5.683  0.0492  0.1383  0.7483
  465MOL0     O62648   2.430   0.183   5.551 -0.2102 -0.3609  0.3916
  465MOL0     C62649   2.551   0.225   5.479  0.1818 -0.7423  0.4677
  465MOL0     C62650   2.544   0.187   5.325 -0.5524  0.1656 -1.1619
  465MOL0     C62651   2.654   0.275   5.258 -0.2455 -0.1438  0.2035
  465MOL0     C62652   2.659   0.275   5.099  0.8008 -0.2885  0.4076
  465MOL0     C62653   2.545   0.354   5.030 -0.3488 -0.5379 -1.2494
  465MOL0     C62654   2.561   0.334   4.880 -0.2755  0.7450 -0.5765
  465MOL0     C62655   2.441   0.400   4.812 -0.0350  0.9820 -0.5017
  465MOL0     C62656   2.450   0.370   4.664 -1.3001 -0.0389 -0.1523
  465MOL0     N62657   2.571   0.438   4.614 -0.6629  0.3369  0.3133
  465MOL0     C62658   2.686   0.385   4.564 -0.1572  0.5266 -0.1588
  465MOL0     C62659   2.756   0.483   4.510 -0.6948 -0.2705 -0.5105
  465MOL0     C62660   2.897   0.486   4.464 -0.8062 -0.8306  0.0676
  465MOL0     C62661   2.913   0.388   4.352  0.7504 -0.8420  0.8270
  465MOL0     C62662   3.043   0.386   4.282  0.4557 -0.3047  1.0736
  465MOL0     C62663   3.038   0.440   4.137 -0.7899 -0.0565 -0.2211
  465MOL0     O62664   2.972   0.568   4.148  0.1518 -0.9512  0.1793
  465MOL0     C62665   2.928   0.621   4.033 -0.7468 -0.3198  0.9950
  465MOL0     C62666   2.830   0.713   4.045 -0.0392 -0.2310  0.0127
  465MOL0     C62667   2.759   0.774   3.937  0.5997 -0.2776 -0.3977
  465MOL0     C62668   2.641   0.863   3.973  0.7351  0.4391  0.5050
  465MOL0     C62669   2.804   0.741   3.809 -0.9019 -1.2679 -0.9767
  465MOL0     C62670   2.749   0.816   3.692 -1.4993  0.9852  0.0091
  465MOL0     O62671   2.782   0.742   3.577 -0.0865  0.2708 -0.3872
  465MOL0     C62672   2.749   0.795   3.457  1.4988 -0.4225 -1.0383
  465MOL0     C62673   2.695   0.709   3.357 -0.3833 -0.8566  0.9360
  465MOL0     C62674   2.673   0.753   3.226  0.2365  0.9823  0.0484
  465MOL0     C62675   2.705   0.886   3.195  0.4615  0.5464  0.2089
  465MOL0     O62676   2.695   0.923   3.061  0.2645  0.3402 -0.1919
  465MOL0     C62677   2.616   1.036   3.038  0.4446 -0.8709  0.2374
  465MOL0     C62678   2.702   1.151   2.989  0.4426 -0.0652 -0.1363
  465MOL0     C62679   2.632   1.282   2.949 -0.4160 -0.2439 -0.0534
  465MOL0     C62680   2.743   1.366   2.881 -0.1485 -0.1089 -0.4165
  465MOL0     C62681   2.720   1.503   2.818 -0.2784 -0.3631 -0.6676
  465MOL0     C62682   2.704   1.513   2.664 -0.5874  0.4306  0.1538
  465MOL0     C62683   2.831   1.477   2.586  0.4383 -0.5891 -0.2038
  465MOL0     C62684   2.812   1.509   2.434  0.4658 -0.2734  0.1052
  465MOL0    Cl62685   2.839   1.355   2.334 -0.2756 -0.1588 -0.3544
  465MOL0     C62686   2.765   0.971   3.288  0.5493  1.4690 -0.2685
  465MOL0     C62687   2.780   0.926   3.418 -0.1618 -1.3201 -0.6613
  465MOL0     O62688   2.671   0.904   3.704  0.5169  0.4115  0.0301
  465MOL0     C62689   2.912   0.652   3.798  1.1288 -0.1766 -0.5368
  465MOL0     C62690   2.964   0.581   3.907 -0.2287 -0.1276  0.0747
  465MOL0     N62691   2.675   0.593   4.498 -0.2049 -0.1571  0.5438
  465MOL0     N62692   2.576   0.564   4.575  0.6422 -0.0734 -0.0632
  465MOL0     C62693   2.300   0.193   5.749 -0.9824 -0.5213  0.6779
  465MOL0     C62694   2.290   0.213   5.887  0.2026  1.5207  0.1182
  465MOL0     C62695   2.415   0.321   6.327 -0.5809  0.1311 -0.5403
  465MOL0     C62696   2.485   0.398   6.429 -0.3923 -0.7981  0.6421
  465MOL0     C62697   2.455   0.384   6.567  0.1602  0.8794  0.3195
  465MOL0     C62698   2.352   0.289   6.607 -0.3774  1.1672  0.0524
  465MOL0     O62699   2.344   0.283   6.741 -0.1700 -0.6782 -0.2931
  465MOL0     C62700   2.243   0.200   6.806  0.1897  0.3276  0.1548
  465MOL0     C62701   2.260   0.211   6.956 -0.2854 -0.4209  0.0318
  465MOL0     C62702   2.195   0.113   7.060 -0.0760  0.3388 -0.0774
  465MOL0     C62703   2.043   0.101   7.027 -0.8624 -0.1530 -1.0811
  465MOL0     C62704   1.972   0.223   7.047  0.1801 -0.2743  0.5571
  465MOL0     C62705   1.919   0.341   7.043 -0.5204 -0.3550  0.2100
  465MOL0     C62706   2.293   0.211   6.509 -0.5627  0.3489 -0.7009
  465MOL0     C62707   2.326   0.225   6.371 -0.5138  0.0123 -0.5533
  465MOL0     H62708   2.610   0.290   5.962 -0.6380 -5.2532  2.5567
  465MOL0     H62709   2.634   0.229   5.720 -1.7452 -1.4086 -2.1846
  465MOL0     H62710   2.571   0.331   5.496 -1.4156 -0.6114  1.8506
  465MOL0     H62711   2.641   0.179   5.521  0.8511  0.0446 -0.0752
  465MOL0     H62712   2.545   0.081   5.300  0.4587  0.1052 -0.9319
  465MOL0     H62713   2.448   0.221   5.286  0.5021  2.1885 -2.1880
  465MOL0     H62714   2.632   0.380   5.282 -1.7400  0.8451 -4.4483
  465MOL0     H62715   2.754   0.246   5.291  0.2396  0.8693 -0.3147
  465MOL0     H62716   2.755   0.319   5.069  0.8115  2.9649  4.3175
  465MOL0     H62717   2.656   0.175   5.056  0.1264  0.7480 -2.1200
  465MOL0     H62718   2.455   0.311   5.075  1.8331 -1.6523  2.5062
  465MOL0     H62719   2.540   0.459   5.060 -1.1505 -0.8674 -0.1411
  465MOL0     H62720   2.654   0.386   4.855 -1.0275  4.6321  3.4911
  465MOL0     H62721   2.572   0.227   4.860  0.0012  0.5969  0.3386
  465MOL0     H62722   2.348   0.353   4.844 -0.8936  1.1699 -2.5739
  465MOL0     H62723   2.444   0.506   4.841 -0.0384  0.5394  1.2427
  465MOL0     H62724   2.365   0.412   4.609 -2.1440 -2.6066 -0.9373
  465MOL0     H62725   2.448   0.265   4.634 -2.0599  0.4888 -2.1542
  465MOL0     H62726   2.723   0.283   4.575  1.3851  0.7693 -2.3813
  465MOL0     H62727   2.914   0.591   4.436  0.6980 -1.6171 -2.2175
  465MOL0     H62728   2.976   0.462   4.536 -0.1526 -1.4565 -0.8416
  465MOL0     H62729   2.832   0.404   4.280  1.7235 -3.4457 -0.9904
  465MOL0     H62730   2.886   0.289   4.389 -1.6128 -1.5631 -2.3826
  465MOL0     H62731   3.090   0.287   4.278  1.2212  0.0964 -1.9620
  465MOL0     H62732   3.113   0.450   4.336  2.9269 -2.8425  1.1226
  465MOL0     H62733   2.995   0.366   4.069  1.0445 -0.6963 -0.7729
  465MOL0     H62734   3.143   0.456   4.110  0.3533 -0.8673  3.1911
  465MOL0     H62735   2.811   0.747   4.146 -1.0892 -3.1085  0.8664
  465MOL0     H62736   2.622   0.873   4.080 -2.6979  1.1049 -0.0528
  465MOL0     H62737   2.666   0.966   3.946 -2.8932  1.5677  0.8674
  465MOL0     H62738   2.552   0.832   3.918  0.9695  2.3055 -1.0520
  465MOL0     H62739   2.681   0.604   3.381  0.6338 -1.2123  0.0356
  465MOL0     H62740   2.646   0.682   3.148 -0.5207  2.2706 -0.9132
  465MOL0     H62741   2.538   1.006   2.967  0.6030 -1.1592  0.1808
  465MOL0     H62742   2.569   1.075   3.128 -0.6525  1.3313 -1.1897
  465MOL0     H62743   2.784   1.171   3.058  2.8658 -3.9255 -1.5943
  465MOL0     H62744   2.748   1.119   2.896  1.2226 -2.1330  0.8948
  465MOL0     H62745   2.590   1.326   3.040 -4.4981 -1.3446 -1.1761
  465MOL0     H62746   2.559   1.266   2.869  1.1681  0.3224 -1.6941
  465MOL0     H62747   2.822   1.386   2.953  0.3719 -1.7729 -0.5016
  465MOL0     H62748   2.802   1.307   2.811  2.7908  1.1853  0.8375
  465MOL0     H62749   2.801   1.573   2.839 -0.8394  0.0262  0.2827
  465MOL0     H62750   2.633   1.550   2.866  0.9040  0.6235  0.5614
  465MOL0     H62751   2.628   1.445   2.625 -0.9344  0.9631 -0.1179
  465MOL0     H62752   2.681   1.615   2.630  0.5969 -0.2023 -2.9472
  465MOL0     H62753   2.844   1.368   2.589 -0.6262 -0.7851 -1.5302
  465MOL0     H62754   2.920   1.525   2.626 -0.3389 -1.8817  3.4901
  465MOL0     H62755   2.878   1.580   2.382 -0.1258 -0.4806 -0.9671
  465MOL0     H62756   2.706   1.530   2.420  0.0176 -1.7572  1.1127
  465MOL0     H62757   2.800   1.073   3.274  0.9265  1.1126 -2.1999
  465MOL0     H62758   2.832   0.985   3.492 -1.0108  0.1499 -1.1893
  465MOL0     H62759   2.949   0.620   3.702  0.0554  1.1184 -1.4202
  465MOL0     H62760   3.041   0.508   3.884  0.2030  0.1940  0.5006
  465MOL0     H62761   2.226   0.150   5.682  2.2810 -1.3332 -2.7686
  465MOL0     H62762   2.197   0.199   5.940 -0.0674 -3.2285 -1.0984
  465MOL0     H62763   2.551   0.478   6.396 -0.4584 -0.7756  0.5634
  465MOL0     H62764   2.499   0.444   6.646 -2.1678 -1.2001  3.3847
  465MOL0     H62765   2.143   0.232   6.777 -0.5412 -1.1094  0.9763
  465MOL0     H62766   2.268   0.102   6.763  1.8028  0.0404  1.6017
  465MOL0     H62767   2.230   0.312   6.985 -0.6753 -0.7296  0.7075
  465MOL0     H62768   2.367   0.205   6.978 -0.4031 -0.7323  0.5244
  465MOL0     H62769   2.208   0.162   7.156  2.1894  1.0923 -0.7041
  465MOL0     H62770   2.238   0.012   7.061 -0.7284  0.0457 -0.6594
  465MOL0     H62771   2.010   0.020   7.093  2.3322  0.9182  2.1484
  465MOL0     H62772   2.041   0.066   6.924  0.3927  0.1330 -1.2217
  465MOL0     H62773   1.887   0.443   7.049  2.6899  0.7102  2.8962
  465MOL0     H62774   2.216   0.139   6.532  0.9810 -1.0711  0.3035
  465MOL0     H62775   2.276   0.167   6.294  2.7690 -1.7889 -1.5144
  466MOL0     O62776   3.995   3.735   4.203  0.1283 -0.3787  0.2676
  466MOL0     C62777   4.069   3.832   4.187  0.2932  0.6374 -0.1565
  466MOL0     O62778   4.175   3.866   4.271  0.0897  0.9282  0.0938
  466MOL0     C62779   4.209   3.798   4.380 -0.2173  0.2062 -0.2015
  466MOL0     C62780   4.256   3.874   4.490  0.5924 -0.0929 -0.2773
  466MOL0     C62781   4.319   3.813   4.602  0.7149  0.1021  0.5204
  466MOL0     C62782   4.310   3.676   4.626 -1.4279  0.5083  0.1380
  466MOL0     O62783   4.378   3.625   4.738  0.2638  0.0346  1.3132
  466MOL0     C62784   4.280   3.577   4.832 -0.8886 -0.5128  0.6515
  466MOL0     C62785   4.357   3.501   4.935 -0.5411 -0.6846 -1.3111
  466MOL0     C62786   4.408   3.358   4.923  0.2234 -0.2800  0.7898
  466MOL0     C62787   4.355   3.275   4.817  0.1081 -0.5779  0.1889
  466MOL0     C62788   4.411   3.137   4.837  0.1787  0.6270  0.4981
  466MOL0     C62789   4.376   3.039   4.721 -0.6860  0.9904  0.1409
  466MOL0     C62790   4.247   2.957   4.735  0.3205 -0.3797  0.1449
  466MOL0     C62791   4.263   2.815   4.682 -0.1394  0.5885  0.0944
  466MOL0     N62792   4.363   2.718   4.734 -0.5829 -0.1626 -0.4226
  466MOL0     C62793   4.444   2.730   4.851 -0.6909 -1.1163 -0.3168
  466MOL0     C62794   4.508   2.625   4.872  0.5861 -0.2995  0.9584
  466MOL0     C62795   4.600   2.591   4.992  0.2788 -0.3759  0.2208
  466MOL0     C62796   4.690   2.467   4.967 -0.3727 -0.4966 -0.5108
  466MOL0     C62797   4.609   2.335   4.976 -0.5467  0.4241  0.2949
  466MOL0     C62798   4.705   2.220   5.000  0.3443 -0.3830 -0.0564
  466MOL0     O62799   4.727   2.219   5.140 -0.5615  0.4239 -0.5662
  466MOL0     C62800   4.807   2.119   5.194  0.2458  0.8082 -0.2975
  466MOL0     C62801   4.848   2.144   5.326  0.3430  0.1582  0.5250
  466MOL0     C62802   4.945   2.072   5.393  0.7590 -0.6021 -0.6120
  466MOL0     C62803   4.957   2.094   5.537  0.0143  0.7443  0.4597
  466MOL0     C62804   5.016   1.974   5.320  0.0824  0.4282  0.4875
  466MOL0     C62805   5.128   1.894   5.367 -0.5215  1.1765 -0.5471
  466MOL0     O62806   5.194   1.818   5.266 -0.2557 -0.4776 -0.3344
  466MOL0     C62807   5.245   1.698   5.300  0.1361 -0.5053  0.3677
  466MOL0     C62808   5.358   1.690   5.374 -1.2077  0.6390 -0.9045
  466MOL0     C62809   5.412   1.567   5.419 -0.4267  0.6265  0.9156
  466MOL0     C62810   5.355   1.439   5.391 -0.7669 -1.1704  0.4918
  466MOL0     O62811   5.396   1.314   5.427  0.3618  0.0036 -0.1489
  466MOL0     C62812   5.478   1.308   5.547  0.1288  0.2703  0.2962
  466MOL0     C62813   5.629   1.299   5.522 -0.4262  0.1959 -0.0563
  466MOL0     C62814   5.681   1.164   5.472 -0.4040 -0.0940 -0.7800
  466MOL0     C62815   5.807   1.189   5.388  0.0287 -1.1062 -0.9297
  466MOL0     C62816   5.878   1.068   5.354  0.7648 -1.4093 -0.0675
  466MOL0     C62817   6.007   1.098   5.280  0.4775 -0.4737  0.7982
  466MOL0     C62818   6.064   0.966   5.235  0.0759  1.0126  0.4348
  466MOL0     C62819   6.190   0.973   5.156  0.6693 -0.5533 -0.3709
  466MOL0    Cl62820   6.236   0.813   5.120 -0.3386  0.1407  0.2521
  466MOL0     C62821   5.247   1.455   5.299  0.8669 -0.3382 -0.8216
  466MOL0     C62822   5.187   1.577   5.260  0.0477  0.5911  0.4361
  466MOL0     O62823   5.161   1.889   5.484 -0.1472  0.8116 -0.4310
  466MOL0     C62824   4.977   1.952   5.187  0.7226  0.0485  0.1554
  466MOL0     C62825   4.870   2.019   5.123  0.1351 -0.7125  1.1003
  466MOL0     N62826   4.461   2.540   4.777  0.5704 -0.2274  0.8704
  466MOL0     N62827   4.382   2.590   4.689 -0.6724 -0.4919  0.0060
  466MOL0     C62828   4.255   3.600   4.524 -0.1770  0.8840  0.3003
  466MOL0     C62829   4.214   3.655   4.399  0.2370 -1.0822  0.0270
  466MOL0     C62830   4.036   3.913   4.069  0.2814 -0.1565  0.3011
  466MOL0     C62831   3.945   3.870   3.970 -0.0936  0.5417 -0.2564
  466MOL0     C62832   3.913   3.945   3.859  0.5379  0.3810 -0.6187
  466MOL0     C62833   3.960   4.074   3.858  1.0635  0.0338 -0.4345
  466MOL0     O62834   3.931   4.130   3.737  0.5074 -0.4218  0.9241
  466MOL0     C62835   3.958   4.275   3.733  0.4107  0.1486  0.1412
  466MOL0     C62836   3.892   4.304   3.596  0.1981 -1.2580  0.2890
  466MOL0     C62837   3.905   4.455   3.575  0.4203 -0.0188 -0.7574
  466MOL0     C62838   3.831   4.508   3.446 -1.6539  0.4076 -0.4832
  466MOL0     C62839   3.691   4.506   3.464  0.3978 -0.2575 -0.9369
  466MOL0     C62840   3.574   4.500   3.492  0.1699 -0.2981 -0.2458
  466MOL0     C62841   4.049   4.129   3.956  0.2660  0.7520  0.4028
  466MOL0     C62842   4.083   4.043   4.066  0.8339  0.7012  0.9451
  466MOL0     H62843   4.271   3.980   4.473 -0.3294 -0.0557 -0.9968
  466MOL0     H62844   4.365   3.880   4.675 -0.2394  0.2154  1.0269
  466MOL0     H62845   4.235   3.661   4.885 -0.8402 -0.6389  0.8958
  466MOL0     H62846   4.204   3.520   4.778  0.2799 -0.0445 -1.6557
  466MOL0     H62847   4.439   3.568   4.964 -2.7981  1.7440 -0.0764
  466MOL0     H62848   4.280   3.503   5.013  1.1017 -3.3232  0.5468
  466MOL0     H62849   4.515   3.368   4.903 -0.0352  0.3251 -0.3526
  466MOL0     H62850   4.408   3.297   5.014  3.1283 -1.1707  0.2923
  466MOL0     H62851   4.246   3.269   4.826 -0.1839  3.0175  0.3366
  466MOL0     H62852   4.385   3.312   4.719 -0.9072 -0.1246  0.0372
  466MOL0     H62853   4.520   3.151   4.838  0.0921  2.5377 -2.9503
  466MOL0     H62854   4.379   3.098   4.935  1.5567  0.8396  1.0596
  466MOL0     H62855   4.366   3.094   4.627  0.6541  3.0188  1.1056
  466MOL0     H62856   4.460   2.972   4.700  0.3008  2.7564 -1.8525
  466MOL0     H62857   4.219   2.947   4.840  1.9388 -2.2743  0.4632
  466MOL0     H62858   4.170   3.005   4.674  2.8652 -0.0654 -3.1093
  466MOL0     H62859   4.298   2.825   4.579  2.1329 -1.9220  0.5324
  466MOL0     H62860   4.165   2.765   4.675  0.7344 -1.3542  0.8775
  466MOL0     H62861   4.434   2.810   4.925  0.1944 -0.3620 -0.9830
  466MOL0     H62862   4.658   2.680   5.017 -0.5541  1.0606 -2.5590
  466MOL0     H62863   4.531   2.581   5.076 -2.5487  0.4993 -1.8536
  466MOL0     H62864   4.769   2.466   5.043 -0.1623 -0.4009 -0.7257
  466MOL0     H62865   4.747   2.469   4.874 -1.0560 -2.5063 -1.0338
  466MOL0     H62866   4.549   2.315   4.888  0.8143 -0.4068 -0.4821
  466MOL0     H62867   4.547   2.344   5.066 -1.6029 -0.7994 -0.2827
  466MOL0     H62868   4.797   2.215   4.943  1.0034 -1.1499  1.0241
  466MOL0     H62869   4.650   2.129   4.972 -1.1453 -0.2697  2.2443
  466MOL0     H62870   4.799   2.231   5.368  0.5588 -0.3711  1.8970
  466MOL0     H62871   4.930   2.000   5.586  0.4675  0.7337  0.7031
  466MOL0     H62872   5.054   2.129   5.576 -0.8743  1.4449  2.1353
  466MOL0     H62873   4.886   2.162   5.585 -1.0349  1.7634 -2.3476
  466MOL0     H62874   5.408   1.785   5.390  1.6599 -0.6539 -1.4745
  466MOL0     H62875   5.506   1.573   5.473 -1.5542 -1.4788  3.3496
  466MOL0     H62876   5.471   1.398   5.609 -2.2583  0.7541 -0.5703
  466MOL0     H62877   5.444   1.219   5.602  0.3602 -1.8797 -2.7948
  466MOL0     H62878   5.650   1.383   5.454 -2.0404 -1.8098 -3.3010
  466MOL0     H62879   5.696   1.314   5.607 -0.7667  1.3785  0.0192
  466MOL0     H62880   5.616   1.110   5.403  0.5881  1.1194 -2.7315
  466MOL0     H62881   5.706   1.100   5.557  2.8352  1.8432 -0.1042
  466MOL0     H62882   5.773   1.240   5.298  0.7408 -2.6926 -2.1411
  466MOL0     H62883   5.868   1.255   5.451 -2.2355 -0.7812  1.0939
  466MOL0     H62884   5.810   1.002   5.301  1.1426 -2.5849  0.8711
  466MOL0     H62885   5.906   1.017   5.447  1.1502  0.3478  0.8402
  466MOL0     H62886   5.997   1.166   5.195 -0.5973  2.5882  3.1827
  466MOL0     H62887   6.080   1.149   5.344 -0.4381 -0.0825  1.5581
  466MOL0     H62888   5.978   0.925   5.182 -0.1948  1.8049  0.2565
  466MOL0     H62889   6.085   0.902   5.322 -1.4471 -0.9753 -0.5797
  466MOL0     H62890   6.264   1.026   5.217  0.1935 -2.0498  1.6194
  466MOL0     H62891   6.172   1.019   5.058  0.3749 -1.1248 -0.5871
  466MOL0     H62892   5.213   1.363   5.252 -0.1339  0.9144 -2.6789
  466MOL0     H62893   5.115   1.572   5.179 -0.3280 -2.1119  0.8418
  466MOL0     H62894   5.026   1.872   5.133 -0.0703 -2.9653  3.4689
  466MOL0     H62895   4.835   2.004   5.021 -2.7707 -1.6577  2.1157
  466MOL0     H62896   4.258   3.492   4.533  0.7562 -0.2396 -6.9291
  466MOL0     H62897   4.182   3.614   4.304 -1.2140  1.8837 -0.8997
  466MOL0     H62898   3.917   3.766   3.964  2.0428 -0.1167  0.1735
  466MOL0     H62899   3.853   3.904   3.778 -0.7929 -1.5691  1.2570
  466MOL0     H62900   3.915   4.340   3.810 -0.0151  1.3815 -1.0917
  466MOL0     H62901   4.067   4.283   3.724  0.9459 -2.1508  2.8850
  466MOL0     H62902   3.795   4.255   3.586 -1.5376  1.7750  0.9999
  466MOL0     H62903   3.942   4.264   3.508 -0.2428  1.6978 -1.4420
  466MOL0     H62904   4.012   4.467   3.558  0.4559 -0.8717 -1.1925
  466MOL0     H62905   3.872   4.519   3.657  3.2424  1.3017 -0.5550
  466MOL0     H62906   3.852   4.447   3.358 -1.9640  0.3895 -0.5473
  466MOL0     H62907   3.859   4.612   3.428 -0.5260 -0.1267 -1.9858
  466MOL0     H62908   3.473   4.497   3.529 -0.1545 -1.7587 -1.1929
  466MOL0     H62909   4.087   4.229   3.938 -1.2919  1.6911  2.0183
  466MOL0     H62910   4.151   4.073   4.146  3.1068 -2.0315  0.1874
  467MOL0     O62911   1.639   6.985   7.531  0.1481  0.5121 -0.3516
  467MOL0     C62912   1.653   6.928   7.424  0.0865  0.7419  0.9921
  467MOL0     O62913   1.760   6.935   7.344 -0.7675  1.0946  1.0924
  467MOL0     C62914   1.840   7.048   7.341 -0.3642 -0.1343  0.3615
  467MOL0     C62915   1.835   7.128   7.228  0.2329 -1.1108  0.2576
  467MOL0     C62916   1.904   7.252   7.235  0.1033  0.1375  0.0671
  467MOL0     C62917   1.999   7.270   7.336 -0.1517 -0.7865  1.4432
  467MOL0     O62918   2.072   7.391   7.339  0.2735  0.4163  0.6711
  467MOL0     C62919   2.046   7.497   7.244 -0.2463  0.0466 -0.0552
  467MOL0     C62920   2.128   7.616   7.307 -0.4796  0.1621  0.1742
  467MOL0     C62921   2.277   7.598   7.326 -1.2040  0.4205  0.3253
  467MOL0     C62922   2.346   7.720   7.383  0.1797 -0.4310 -0.4049
  467MOL0     C62923   2.500   7.710   7.411 -0.3165 -0.8491  0.9668
  467MOL0     C62924   2.546   7.783   7.534 -0.1181  0.6746 -0.7243
  467MOL0     C62925   2.508   7.933   7.533 -0.2613  0.2614  0.7223
  467MOL0     C62926   2.568   7.997   7.662 -0.1117  1.1109  0.5706
  467MOL0     N62927   2.513   7.937   7.784  0.1682  0.1526 -1.2068
  467MOL0     C62928   2.410   7.992   7.862 -0.0617  0.5184  0.3735
  467MOL0     C62929   2.407   7.919   7.975  0.7996 -0.8403  0.2136
  467MOL0     C62930   2.325   7.938   8.101  0.5270 -0.3739  0.7580
  467MOL0     C62931   2.288   8.085   8.139 -0.4827  0.7166 -0.7183
  467MOL0     C62932   2.407   8.159   8.196  0.4019  0.1574  0.3196
  467MOL0     C62933   2.407   8.309   8.185 -0.0169  0.0950  0.1180
  467MOL0     O62934   2.303   8.357   8.270  1.0013  0.3087  1.2347
  467MOL0     C62935   2.301   8.493   8.284  0.4343  0.3275  0.0795
  467MOL0     C62936   2.361   8.581   8.199 -0.1402  1.0353 -0.1444
  467MOL0     C62937   2.349   8.716   8.208  0.1907  0.6179  0.7928
  467MOL0     C62938   2.431   8.799   8.113 -0.3712 -0.1771  0.7184
  467MOL0     C62939   2.275   8.768   8.314 -0.6520  0.0500  0.4997
  467MOL0     C62940   2.260   8.914   8.330  0.0520 -0.1522  0.5799
  467MOL0     O62941   2.244   8.958   8.466  0.7758 -0.0048  0.4932
  467MOL0     C62942   2.179   9.084   8.480  0.3210  1.0065  0.0306
  467MOL0     C62943   2.055   9.091   8.554  0.0275 -0.5261 -0.2766
  467MOL0     C62944   2.001   9.210   8.588  0.1308  0.3397  0.1983
  467MOL0     C62945   2.049   9.333   8.542  0.4514  0.7422  0.0324
  467MOL0     O62946   1.990   9.461   8.573 -0.2448 -0.2861  0.3856
  467MOL0     C62947   1.845   9.475   8.538 -0.4625 -0.5400  0.0591
  467MOL0     C62948   1.755   9.494   8.657 -0.1272 -0.9080 -0.0961
  467MOL0     C62949   1.766   9.644   8.691 -0.1426 -0.5046  0.0619
  467MOL0     C62950   1.674   9.682   8.803  0.5619  0.1414 -0.3386
  467MOL0     C62951   1.691   9.830   8.855 -1.4551 -0.8664 -0.3846
  467MOL0     C62952   1.561   9.900   8.896  0.0559  0.0258 -0.5004
  467MOL0     C62953   1.502   9.830   9.021  0.3096  0.8030 -0.0902
  467MOL0     C62954   1.594   9.836   9.150  0.8606 -0.6067  0.1647
  467MOL0    Cl62955   1.639  10.009   9.187  0.1573 -0.2250 -0.3735
  467MOL0     C62956   2.150   9.329   8.448  0.0061  0.7864  0.3414
  467MOL0     C62957   2.215   9.205   8.421 -0.5807 -0.4304  0.0363
  467MOL0     O62958   2.268   8.994   8.238  1.0189 -0.6571 -0.9484
  467MOL0     C62959   2.218   8.679   8.412  0.6006  0.3981  0.3024
  467MOL0     C62960   2.225   8.541   8.396  0.6887 -0.5902  0.6915
  467MOL0     N62961   2.496   7.811   7.965 -0.7023 -0.8261 -1.1628
  467MOL0     N62962   2.572   7.833   7.860 -0.3021 -0.0279 -0.2634
  467MOL0     C62963   2.009   7.187   7.444  0.5691 -0.5103  0.0257
  467MOL0     C62964   1.924   7.082   7.448  0.7947 -0.6522  0.4917
  467MOL0     C62965   1.539   6.844   7.366  0.2261 -0.6333 -0.6154
  467MOL0     C62966   1.410   6.847   7.426 -0.2035 -0.4135  0.3147
  467MOL0     C62967   1.309   6.768   7.388  1.0090 -0.2225  0.4671
  467MOL0     C62968   1.326   6.687   7.274 -0.5939  0.1829  0.3529
  467MOL0     O62969   1.222   6.605   7.228  0.0722  0.0981  0.3276
  467MOL0     C62970   1.150   6.543   7.332  0.3966 -0.2085 -0.6767
  467MOL0     C62971   1.061   6.436   7.275  0.1436 -0.7728  0.0497
  467MOL0     C62972   0.910   6.481   7.257  0.2771 -0.4605  0.1527
  467MOL0     C62973   0.820   6.367   7.222  0.5509 -0.1852 -0.2539
  467MOL0     C62974   0.710   6.403   7.134  0.0662  0.3785 -0.0612
  467MOL0     C62975   0.635   6.430   7.043 -0.7160 -0.6569 -0.2705
  467MOL0     C62976   1.449   6.676   7.209  0.0331 -0.2264 -0.5850
  467MOL0     C62977   1.553   6.756   7.265  0.2762  0.0180 -0.1267
  467MOL0     H62978   1.760   7.102   7.153 -0.2989  1.8287 -0.3403
  467MOL0     H62979   1.899   7.313   7.145  1.5897  0.1999  0.0151
  467MOL0     H62980   2.086   7.454   7.152 -2.5656 -4.0565  0.6321
  467MOL0     H62981   1.943   7.534   7.236 -1.1716 -2.4251 -0.3044
  467MOL0     H62982   2.125   7.708   7.249 -0.3516  0.8548  1.2286
  467MOL0     H62983   2.084   7.639   7.405  0.6310  0.4024  0.6440
  467MOL0     H62984   2.296   7.525   7.405 -0.1564  2.0198  1.6106
  467MOL0     H62985   2.329   7.579   7.231 -2.3789  1.6478 -0.5834
  467MOL0     H62986   2.334   7.807   7.319  0.9267 -0.6406 -0.8485
  467MOL0     H62987   2.295   7.749   7.475 -0.0957 -2.2022  0.0456
  467MOL0     H62988   2.544   7.611   7.403  1.9353  0.2047 -0.6972
  467MOL0     H62989   2.537   7.764   7.324 -5.5616  1.0657 -0.4830
  467MOL0     H62990   2.501   7.737   7.623 -1.0965  2.8259 -0.0501
  467MOL0     H62991   2.654   7.769   7.531  0.0866  1.0969  1.9231
  467MOL0     H62992   2.533   7.986   7.441 -1.6947  0.7267  0.5647
  467MOL0     H62993   2.399   7.934   7.524 -0.0787  1.6795 -4.0301
  467MOL0     H62994   2.550   8.105   7.655  0.2824  1.1798  0.6158
  467MOL0     H62995   2.671   7.970   7.640 -0.2487  1.8433 -1.1077
  467MOL0     H62996   2.359   8.086   7.842  3.1498  2.2551 -0.2828
  467MOL0     H62997   2.227   7.889   8.097  0.2916  0.1619 -0.6569
  467MOL0     H62998   2.377   7.903   8.191 -0.7572 -1.3114  1.1789
  467MOL0     H62999   2.213   8.070   8.217 -0.6450 -0.2854 -1.0523
  467MOL0     H63000   2.243   8.136   8.054 -0.9646  0.7645 -0.4339
  467MOL0     H63001   2.493   8.126   8.136  1.7648  1.9038  1.2297
  467MOL0     H63002   2.426   8.121   8.297  2.1613 -3.0965 -1.0914
  467MOL0     H63003   2.394   8.331   8.078  0.8374 -1.8094 -0.4109
  467MOL0     H63004   2.506   8.335   8.223  1.7145 -2.1245 -2.4851
  467MOL0     H63005   2.415   8.538   8.115  0.1902 -0.9319  1.0167
  467MOL0     H63006   2.492   8.866   8.174  0.3663 -1.6814  1.7101
  467MOL0     H63007   2.485   8.733   8.044 -1.2995 -1.9308  1.5839
  467MOL0     H63008   2.366   8.853   8.044  0.6401  0.7137  0.4407
  467MOL0     H63009   2.013   9.001   8.599 -0.4144 -0.6322 -0.8964
  467MOL0     H63010   1.915   9.205   8.653  1.6477  1.1780  2.3601
  467MOL0     H63011   1.818   9.556   8.470  2.2599  0.0278 -0.4610
  467MOL0     H63012   1.807   9.381   8.498  0.1767 -0.3108 -1.1083
  467MOL0     H63013   1.650   9.476   8.630  0.2103 -0.0899 -2.1757
  467MOL0     H63014   1.779   9.430   8.741 -3.2787 -0.8250  1.0202
  467MOL0     H63015   1.744   9.706   8.604 -1.0262 -0.6228  0.1953
  467MOL0     H63016   1.867   9.674   8.720 -0.4155 -0.2026  0.7302
  467MOL0     H63017   1.581   9.687   8.746 -0.2393  1.6473  1.0242
  467MOL0     H63018   1.657   9.601   8.874 -0.1908 -1.6606 -2.4415
  467MOL0     H63019   1.737   9.893   8.778 -0.1790 -3.9463 -2.3116
  467MOL0     H63020   1.774   9.831   8.927 -0.8956  3.9354 -0.7736
  467MOL0     H63021   1.574  10.004   8.929 -3.1969  0.5972 -0.6848
  467MOL0     H63022   1.484   9.902   8.819  0.4393 -0.5344 -0.9015
  467MOL0     H63023   1.503   9.725   8.992  1.5028  0.7241  0.1883
  467MOL0     H63024   1.398   9.856   9.041 -0.7185 -0.8956 -2.8047
  467MOL0     H63025   1.688   9.783   9.128  2.2730  2.4314 -1.7823
  467MOL0     H63026   1.542   9.800   9.239 -1.4039  2.2260  0.1253
  467MOL0     H63027   2.188   9.427   8.421 -1.5527  1.3002 -0.0939
  467MOL0     H63028   2.305   9.199   8.361 -1.5251  1.4965 -1.6673
  467MOL0     H63029   2.167   8.714   8.501 -0.9454  0.6081 -0.6295
  467MOL0     H63030   2.186   8.476   8.473  3.3567  2.8032  5.4157
  467MOL0     H63031   2.064   7.223   7.530  0.8247 -0.8854  0.0203
  467MOL0     H63032   1.925   7.023   7.539  4.0010 -0.0985  0.9335
  467MOL0     H63033   1.385   6.913   7.508 -1.7461 -0.1665 -0.3201
  467MOL0     H63034   1.217   6.769   7.447  2.1823 -4.2135  2.7671
  467MOL0     H63035   1.215   6.501   7.410 -1.5389  4.7751  4.2835
  467MOL0     H63036   1.086   6.611   7.389  0.8929  0.3612 -0.7953
  467MOL0     H63037   1.057   6.361   7.354 -0.7407 -0.6383  0.1406
  467MOL0     H63038   1.099   6.397   7.180  1.3132  0.4156 -0.0039
  467MOL0     H63039   0.900   6.550   7.173 -1.5310  1.4209  1.7878
  467MOL0     H63040   0.870   6.534   7.344 -1.5516 -0.0081 -0.8934
  467MOL0     H63041   0.770   6.336   7.314  2.4523 -0.9851  0.5569
  467MOL0     H63042   0.883   6.292   7.172  0.0855 -0.1062 -0.9715
  467MOL0     H63043   0.567   6.468   6.969 -1.4455  3.2320  2.0957
  467MOL0     H63044   1.463   6.612   7.122  0.2815 -1.6981  0.4904
  467MOL0     H63045   1.650   6.743   7.219 -0.0608 -1.3733 -0.5169
  468MOL0     O63046   3.330   1.958   8.181  0.0321  0.4491 -0.4604
  468MOL0     C63047   3.356   1.839   8.148  0.2125 -0.6823  0.3158
  468MOL0     O63048   3.276   1.765   8.062 -0.5908  0.7694  0.2875
  468MOL0     C63049   3.151   1.822   8.036 -0.2105 -0.2147 -0.2637
  468MOL0     C63050   3.058   1.871   8.125 -1.0860 -0.8650 -0.2279
  468MOL0     C63051   2.933   1.915   8.078  0.2108 -0.4003 -0.3381
  468MOL0     C63052   2.883   1.901   7.948 -0.5868 -0.3583 -0.0284
  468MOL0     O63053   2.758   1.941   7.936 -0.3216 -0.0687  0.6778
  468MOL0     C63054   2.690   1.911   7.807 -0.3937 -0.7268  0.7022
  468MOL0     C63055   2.614   1.775   7.818 -0.4532 -0.8076 -0.6665
  468MOL0     C63056   2.700   1.654   7.796 -0.5304 -0.7666  0.2972
  468MOL0     C63057   2.617   1.526   7.795 -0.5433  0.2535 -0.6669
  468MOL0     C63058   2.708   1.400   7.801 -0.0646 -0.5552  0.2756
  468MOL0     C63059   2.757   1.375   7.947  1.0984  0.1886  0.1432
  468MOL0     C63060   2.639   1.329   8.048 -0.7018 -0.4803  0.3342
  468MOL0     C63061   2.681   1.271   8.181  0.2780 -0.0294  0.7566
  468MOL0     N63062   2.755   1.152   8.153 -0.1857  0.4743  0.2189
  468MOL0     C63063   2.769   1.081   8.037 -0.3057 -0.4781 -0.5142
  468MOL0     C63064   2.838   0.970   8.067 -0.1968  0.0772 -0.0306
  468MOL0     C63065   2.883   0.867   7.969  0.2135 -0.4268 -0.5267
  468MOL0     C63066   2.786   0.753   7.947  0.7455  0.0995  0.5748
  468MOL0     C63067   2.839   0.664   7.847 -0.7002  0.1388 -0.0780
  468MOL0     C63068   2.758   0.528   7.840 -1.2265 -0.7262  0.7719
  468MOL0     O63069   2.781   0.442   7.728  0.4462 -0.5626 -0.4135
  468MOL0     C63070   2.906   0.404   7.716  0.7379 -0.0007 -0.0325
  468MOL0     C63071   2.965   0.441   7.592 -0.6005 -0.0757 -0.5886
  468MOL0     C63072   3.104   0.423   7.570  0.8428 -0.3861 -0.2453
  468MOL0     C63073   3.152   0.458   7.427 -0.0817  0.6878  0.3125
  468MOL0     C63074   3.182   0.359   7.664 -0.1183 -0.0077 -0.5593
  468MOL0     C63075   3.325   0.324   7.646 -0.2538  0.1504  0.6766
  468MOL0     O63076   3.400   0.327   7.759  0.1576  0.5906  0.3630
  468MOL0     C63077   3.528   0.272   7.774 -0.0437  0.5023 -0.0773
  468MOL0     C63078   3.576   0.167   7.698 -0.0565  0.2270  0.4594
  468MOL0     C63079   3.698   0.109   7.722 -1.0263  1.0198 -0.3325
  468MOL0     C63080   3.780   0.153   7.822  0.1739 -0.3053 -1.0260
  468MOL0     O63081   3.874   0.071   7.860  0.3714 -0.3435 -0.2552
  468MOL0     C63082   3.901   0.050   8.003 -0.0010  0.0583 -1.0781
  468MOL0     C63083   3.997  -0.072   8.015  0.6883  0.8686 -0.1993
  468MOL0     C63084   4.111  -0.032   8.105  0.2567 -0.2096 -0.2055
  468MOL0     C63085   4.200  -0.152   8.121  0.1345  0.3841  0.2997
  468MOL0     C63086   4.320  -0.138   8.219  0.2430  0.6529 -0.1728
  468MOL0     C63087   4.407  -0.016   8.215 -0.3411  0.3992  0.7192
  468MOL0     C63088   4.534  -0.017   8.122  0.3269 -0.5220  0.8628
  468MOL0     C63089   4.599   0.125   8.115 -0.3394 -0.0898  0.1155
  468MOL0    Cl63090   4.503   0.217   7.980  0.3676 -0.3314  0.0474
  468MOL0     C63091   3.745   0.276   7.886  0.4604 -0.2481 -0.4608
  468MOL0     C63092   3.613   0.333   7.856 -0.6172  0.6656 -0.1039
  468MOL0     O63093   3.362   0.292   7.535 -0.3734  0.3100 -0.2974
  468MOL0     C63094   3.121   0.327   7.785  0.0462 -0.3973 -0.0544
  468MOL0     C63095   2.987   0.345   7.812  0.8887  1.0878  0.0518
  468MOL0     N63096   2.880   0.978   8.197 -0.0431  0.2737 -0.0210
  468MOL0     N63097   2.821   1.084   8.250  0.2221 -0.2330  0.5000
  468MOL0     C63098   2.981   1.856   7.857 -0.7233 -0.5111 -0.8828
  468MOL0     C63099   3.108   1.811   7.903  1.5724  0.5939  0.1203
  468MOL0     C63100   3.485   1.782   8.179 -0.8252 -0.1999  1.7252
  468MOL0     C63101   3.527   1.653   8.137 -0.1086  0.2223 -0.2056
  468MOL0     C63102   3.663   1.621   8.161  0.2868 -0.1026  0.8224
  468MOL0     C63103   3.744   1.698   8.246 -1.1691  0.6588 -0.2221
  468MOL0     O63104   3.869   1.648   8.272  0.1736  0.1409 -0.6629
  468MOL0     C63105   3.959   1.727   8.350 -1.0623 -0.2054  0.8823
  468MOL0     C63106   4.086   1.648   8.398 -1.0817  0.9325  0.7528
  468MOL0     C63107   4.188   1.616   8.285  0.3181  0.0825 -0.8991
  468MOL0     C63108   4.313   1.547   8.349 -0.1483 -0.0176  0.0890
  468MOL0     C63109   4.398   1.507   8.234  0.8118  0.1206 -0.0505
  468MOL0     C63110   4.464   1.465   8.140  0.1209 -0.6827  0.6819
  468MOL0     C63111   3.691   1.818   8.298  0.4097  0.2973  0.1179
  468MOL0     C63112   3.567   1.859   8.267  0.4106 -0.6596  0.6639
  468MOL0     H63113   3.063   1.883   8.233 -1.8999  1.3837 -0.3864
  468MOL0     H63114   2.862   1.961   8.146  1.0773 -0.3620  0.5657
  468MOL0     H63115   2.630   1.998   7.777  2.9160  0.9929 -1.7059
  468MOL0     H63116   2.769   1.907   7.731 -0.1145 -0.3089  0.9633
  468MOL0     H63117   2.564   1.764   7.914 -0.4723 -0.1416 -0.5940
  468MOL0     H63118   2.539   1.782   7.739 -0.3931 -1.4884 -0.7909
  468MOL0     H63119   2.769   1.650   7.711 -0.0336  1.9223  0.4970
  468MOL0     H63120   2.766   1.646   7.883 -0.0664  1.5060  0.2059
  468MOL0     H63121   2.546   1.534   7.878  0.6004  0.1952  0.3590
  468MOL0     H63122   2.561   1.515   7.702  1.6765  2.1788 -2.3373
  468MOL0     H63123   2.657   1.309   7.769  1.2556 -0.3310 -2.7721
  468MOL0     H63124   2.800   1.415   7.744  0.1539  0.6804  0.9301
  468MOL0     H63125   2.839   1.304   7.944 -0.5877 -1.8417 -0.8360
  468MOL0     H63126   2.798   1.467   7.989  0.2238 -0.3616  2.3665
  468MOL0     H63127   2.578   1.420   8.060  0.2020  0.2525 -0.4640
  468MOL0     H63128   2.586   1.251   7.992  0.1457 -0.2541 -0.8254
  468MOL0     H63129   2.601   1.253   8.254 -1.3632  2.9847 -0.0971
  468MOL0     H63130   2.748   1.347   8.222  1.0785 -0.8129  0.9244
  468MOL0     H63131   2.736   1.113   7.939  0.7539  0.5721 -0.5628
  468MOL0     H63132   2.909   0.920   7.876  2.3670 -0.7626 -0.1637
  468MOL0     H63133   2.978   0.830   8.010 -0.6299  0.7895  2.8136
  468MOL0     H63134   2.690   0.796   7.918  0.1895 -1.6300 -0.3278
  468MOL0     H63135   2.759   0.693   8.034 -1.0779 -2.0064 -1.2934
  468MOL0     H63136   2.939   0.642   7.884 -1.4497 -0.4675  1.6896
  468MOL0     H63137   2.855   0.711   7.750  1.4566  2.5859  1.3504
  468MOL0     H63138   2.649   0.538   7.842 -1.4890 -2.4818 -1.1944
  468MOL0     H63139   2.790   0.481   7.933  4.7074  0.3828 -0.3175
  468MOL0     H63140   2.914   0.504   7.520  1.6966 -0.6047 -2.8437
  468MOL0     H63141   3.116   0.388   7.351 -1.0881  2.4188 -0.8895
  468MOL0     H63142   3.103   0.552   7.401 -3.1095 -0.3561  1.8724
  468MOL0     H63143   3.261   0.470   7.420  0.3271 -1.8303  1.3854
  468MOL0     H63144   3.514   0.131   7.616 -1.0891  3.3542 -0.2758
  468MOL0     H63145   3.715   0.009   7.681  1.5124  1.2834 -0.1235
  468MOL0     H63146   3.948   0.136   8.051  0.3808 -0.1155 -1.1367
  468MOL0     H63147   3.813   0.032   8.066  0.4637  1.5992  0.0716
  468MOL0     H63148   3.932  -0.152   8.051 -1.3261  2.0654 -1.0249
  468MOL0     H63149   4.045  -0.097   7.920  1.8615 -1.9559  1.0206
  468MOL0     H63150   4.077   0.004   8.203  2.0341  4.2675 -0.9671
  468MOL0     H63151   4.177   0.045   8.063  0.8552  1.2876  3.1395
  468MOL0     H63152   4.144  -0.243   8.142  0.9948 -0.5826 -1.3989
  468MOL0     H63153   4.248  -0.180   8.027 -2.4870 -0.3344 -0.9134
  468MOL0     H63154   4.384  -0.222   8.190 -2.9019 -0.7746 -3.8435
  468MOL0     H63155   4.275  -0.148   8.318 -0.1841 -3.7529 -0.6189
  468MOL0     H63156   4.348   0.074   8.197  0.6211  0.2523 -5.1466
  468MOL0     H63157   4.439  -0.011   8.319 -0.6981  1.8178  0.7784
  468MOL0     H63158   4.509  -0.037   8.018  1.2165  2.7488 -0.0767
  468MOL0     H63159   4.613  -0.089   8.145  1.3329 -0.3477 -1.7236
  468MOL0     H63160   4.702   0.114   8.082  0.5318 -1.4784  2.9751
  468MOL0     H63161   4.604   0.188   8.204  0.7567 -1.3753  1.0097
  468MOL0     H63162   3.812   0.331   7.951  0.4644  1.5864 -1.9389
  468MOL0     H63163   3.591   0.428   7.904  1.7163  2.4533 -2.2720
  468MOL0     H63164   3.189   0.300   7.865 -2.2632  0.6629  2.3841
  468MOL0     H63165   2.942   0.332   7.910 -0.8435 -1.5570 -0.9548
  468MOL0     H63166   2.958   1.846   7.751  0.8771  1.3238 -1.4669
  468MOL0     H63167   3.175   1.760   7.835  0.8626 -1.0923  0.6338
  468MOL0     H63168   3.468   1.583   8.079 -1.1217  0.8645  0.0313
  468MOL0     H63169   3.709   1.531   8.123 -1.0229 -2.8264  5.0109
  468MOL0     H63170   3.999   1.808   8.289  0.2365 -0.7092  1.0363
  468MOL0     H63171   3.913   1.768   8.441  3.8081  4.1052  1.8890
  468MOL0     H63172   4.057   1.550   8.436 -0.8908  0.2725 -0.7561
  468MOL0     H63173   4.125   1.707   8.482  0.7260 -0.2940  0.8229
  468MOL0     H63174   4.217   1.705   8.229  1.1168 -0.8260 -1.9779
  468MOL0     H63175   4.122   1.549   8.228 -4.6558  2.0158  1.9940
  468MOL0     H63176   4.280   1.458   8.403 -1.4304  1.3244  1.6494
  468MOL0     H63177   4.365   1.620   8.412  0.9744 -0.3221 -0.4613
  468MOL0     H63178   4.523   1.427   8.059 -1.1496 -2.1389  0.3833
  468MOL0     H63179   3.748   1.875   8.370 -1.1494  3.5256 -1.0006
  468MOL0     H63180   3.536   1.955   8.305  1.4633 -1.5453  4.0593
  469MOL0     O63181   0.080   8.245   8.866 -1.0040  0.3105  0.5368
  469MOL0     C63182   0.119   8.193   8.758  2.1063  0.0972  0.2643
  469MOL0     O63183   0.042   8.106   8.686 -0.8510  0.1464  0.7354
  469MOL0     C63184  -0.065   8.042   8.738 -0.9121 -1.2425  0.1316
  469MOL0     C63185  -0.080   7.909   8.730 -0.5796  0.6156 -0.2485
  469MOL0     C63186  -0.165   7.831   8.808 -0.0027  0.2510 -0.5269
  469MOL0     C63187  -0.261   7.893   8.879  0.3322 -0.1703 -0.4998
  469MOL0     O63188  -0.347   7.814   8.955  0.0555  0.3543  0.6975
  469MOL0     C63189  -0.459   7.873   9.022  0.0976 -0.1923  0.2463
  469MOL0     C63190  -0.518   7.774   9.125  0.1864  0.2815  0.0341
  469MOL0     C63191  -0.415   7.723   9.237  0.2571  0.0411  0.4874
  469MOL0     C63192  -0.338   7.592   9.194  0.1918 -0.9970 -1.3426
  469MOL0     C63193  -0.223   7.557   9.282 -0.1073 -0.6212 -0.1810
  469MOL0     C63194  -0.264   7.508   9.421  0.8067  0.0293 -0.1786
  469MOL0     C63195  -0.323   7.364   9.419 -0.1826 -0.4768 -0.8983
  469MOL0     C63196  -0.212   7.253   9.412 -0.3474 -0.4198 -0.1563
  469MOL0     N63197  -0.274   7.119   9.437  0.0176  0.1545 -0.0077
  469MOL0     C63198  -0.235   7.000   9.372  0.5893 -0.1584  0.4438
  469MOL0     C63199  -0.302   6.900   9.426  0.3440 -0.3173 -0.7609
  469MOL0     C63200  -0.291   6.749   9.411  0.2467  0.9157  0.0700
  469MOL0     C63201  -0.395   6.719   9.302  0.9501 -1.0831 -0.0086
  469MOL0     C63202  -0.419   6.565   9.296  0.4570 -0.3293 -0.6783
  469MOL0     C63203  -0.557   6.532   9.356 -0.0382 -0.4948  0.5398
  469MOL0     O63204  -0.555   6.599   9.482 -0.4993  0.0522  0.0565
  469MOL0     C63205  -0.644   6.558   9.577 -0.4777 -0.5373  0.9224
  469MOL0     C63206  -0.747   6.463   9.561  0.8146 -0.7595 -0.3367
  469MOL0     C63207  -0.832   6.429   9.671  1.0689  0.0254  0.8131
  469MOL0     C63208  -0.937   6.310   9.644  0.2445  0.1178  0.6623
  469MOL0     C63209  -0.816   6.500   9.792  0.0450  0.3012 -0.1681
  469MOL0     C63210  -0.907   6.476   9.910  0.7927  0.7676 -0.1275
  469MOL0     O63211  -0.855   6.522  10.036  0.0737  0.5753  0.2954
  469MOL0     C63212  -0.939   6.531  10.152 -0.3412  0.0107  0.0307
  469MOL0     C63213  -1.063   6.593  10.141  0.3820 -0.3447  0.4286
  469MOL0     C63214  -1.134   6.623  10.257  0.5163 -0.7835 -0.1295
  469MOL0     C63215  -1.084   6.601  10.384  0.1875  0.0506  0.5696
  469MOL0     O63216  -1.152   6.628  10.504 -0.4189 -0.5183  0.9466
  469MOL0     C63217  -1.288   6.660  10.498 -0.4839 -0.7639 -0.1518
  469MOL0     C63218  -1.372   6.652  10.633 -0.3283  0.1266 -0.9652
  469MOL0     C63219  -1.345   6.524  10.715 -0.0657 -0.1031 -0.7128
  469MOL0     C63220  -1.348   6.536  10.867  0.0262 -0.4374  0.8182
  469MOL0     C63221  -1.325   6.389  10.929 -0.3033 -0.6055 -0.0743
  469MOL0     C63222  -1.328   6.387  11.081 -0.2856  0.3387  0.5126
  469MOL0     C63223  -1.227   6.493  11.149 -0.8092  0.2298 -0.4385
  469MOL0     C63224  -1.245   6.467  11.293 -0.1369 -0.7536 -0.8571
  469MOL0    Cl63225  -1.154   6.590  11.397 -0.1201  0.0264 -0.7531
  469MOL0     C63226  -0.968   6.536  10.396 -0.2858  0.0564 -0.2290
  469MOL0     C63227  -0.883   6.510  10.286  0.3955  0.2770 -0.5875
  469MOL0     O63228  -1.022   6.428   9.901 -0.4441  0.6292 -0.4090
  469MOL0     C63229  -0.706   6.589   9.805  0.0852 -0.7544 -0.4526
  469MOL0     C63230  -0.620   6.619   9.698  0.1329  0.4609  0.9740
  469MOL0     N63231  -0.380   6.952   9.533 -0.3410 -0.6390  0.1786
  469MOL0     N63232  -0.365   7.076   9.533  0.2369 -0.1288 -0.1088
  469MOL0     C63233  -0.262   8.038   8.874 -0.1197  0.0643 -0.7746
  469MOL0     C63234  -0.166   8.112   8.803 -0.0633 -0.0725  0.3568
  469MOL0     C63235   0.247   8.242   8.701 -0.7443  0.7344 -0.3732
  469MOL0     C63236   0.294   8.186   8.578 -0.0142 -0.0291 -0.0988
  469MOL0     C63237   0.423   8.220   8.537  0.1454  0.5962  0.6744
  469MOL0     C63238   0.503   8.294   8.612 -0.8980  0.9448 -1.2190
  469MOL0     O63239   0.634   8.312   8.574  0.6072 -0.0116 -0.2700
  469MOL0     C63240   0.732   8.384   8.650  0.7469 -0.7829 -0.8552
  469MOL0     C63241   0.862   8.394   8.577 -0.2720 -0.1402 -0.6024
  469MOL0     C63242   0.935   8.268   8.542  0.1385 -0.0233 -0.2781
  469MOL0     C63243   1.016   8.197   8.654 -0.9722  0.7953 -1.0997
  469MOL0     C63244   1.075   8.073   8.618  0.2780  1.4687  0.4588
  469MOL0     C63245   1.119   7.959   8.603 -0.0103  1.6601 -0.8027
  469MOL0     C63246   0.457   8.352   8.734  0.3194 -0.3957  0.4788
  469MOL0     C63247   0.328   8.325   8.780  0.3739 -0.4509 -0.0979
  469MOL0     H63248  -0.008   7.847   8.679 -1.1865 -1.3535  1.1819
  469MOL0     H63249  -0.167   7.723   8.799 -2.7104  0.2347 -0.6147
  469MOL0     H63250  -0.442   7.962   9.082  1.6931 -0.7326  0.6305
  469MOL0     H63251  -0.525   7.893   8.937 -0.1015 -1.5380  0.0681
  469MOL0     H63252  -0.599   7.827   9.177  1.5552  1.0247  1.5139
  469MOL0     H63253  -0.554   7.688   9.068  2.1717  0.5463 -1.7225
  469MOL0     H63254  -0.349   7.810   9.251 -0.4869  0.9645 -1.4154
  469MOL0     H63255  -0.469   7.706   9.330  2.6271 -1.0169  1.7636
  469MOL0     H63256  -0.411   7.510   9.186 -0.1193 -0.7487 -1.0823
  469MOL0     H63257  -0.303   7.621   9.094 -1.6101  2.4704 -1.1410
  469MOL0     H63258  -0.173   7.478   9.226  2.0733  0.5481 -0.0003
  469MOL0     H63259  -0.148   7.637   9.290  1.0795 -1.8203  1.4789
  469MOL0     H63260  -0.175   7.505   9.485  0.9528 -1.3224 -0.4025
  469MOL0     H63261  -0.333   7.580   9.465 -2.2607 -0.1784 -4.1347
  469MOL0     H63262  -0.390   7.353   9.505 -4.1700  0.6544 -3.5695
  469MOL0     H63263  -0.398   7.354   9.339 -1.4457  1.3563 -0.0246
  469MOL0     H63264  -0.142   7.268   9.495 -0.6396  0.6231 -0.0801
  469MOL0     H63265  -0.155   7.255   9.319 -2.1979  3.1613 -1.4079
  469MOL0     H63266  -0.166   6.966   9.296  0.3216 -1.0820  0.5976
  469MOL0     H63267  -0.191   6.717   9.379  0.1236  0.4278  0.1695
  469MOL0     H63268  -0.322   6.706   9.507 -0.9158  1.2837 -0.1224
  469MOL0     H63269  -0.370   6.755   9.202 -0.4254 -1.9069 -0.6669
  469MOL0     H63270  -0.480   6.780   9.333  0.0555 -2.0577 -0.4752
  469MOL0     H63271  -0.336   6.502   9.329  0.0834 -0.1692  0.6550
  469MOL0     H63272  -0.429   6.537   9.191  0.7542  1.0080 -1.0824
  469MOL0     H63273  -0.572   6.423   9.358  1.3000 -0.7075 -0.0821
  469MOL0     H63274  -0.636   6.570   9.291  1.0452 -2.8408 -2.3749
  469MOL0     H63275  -0.773   6.413   9.468 -2.5388  0.9900 -0.4984
  469MOL0     H63276  -0.935   6.225   9.712  3.2823 -2.8923 -2.7995
  469MOL0     H63277  -1.033   6.363   9.645  0.4792  0.6375 -1.0453
  469MOL0     H63278  -0.928   6.257   9.548  0.2265 -1.5108  1.5287
  469MOL0     H63279  -1.116   6.617  10.050 -2.6082 -3.4572  1.1126
  469MOL0     H63280  -1.226   6.677  10.237  0.7432 -1.2988 -2.9915
  469MOL0     H63281  -1.303   6.761  10.458 -2.0640 -1.1685 -0.6667
  469MOL0     H63282  -1.330   6.598  10.418 -0.1521 -0.5317 -0.5109
  469MOL0     H63283  -1.363   6.736  10.702  0.7936 -0.6199 -0.1595
  469MOL0     H63284  -1.478   6.656  10.607 -0.6143  0.4411  0.1730
  469MOL0     H63285  -1.253   6.490  10.665  1.2113  3.9903 -1.5510
  469MOL0     H63286  -1.426   6.451  10.708  0.0572 -0.7063  2.6911
  469MOL0     H63287  -1.271   6.611  10.889  0.2998 -0.2555 -0.6370
  469MOL0     H63288  -1.449   6.571  10.891  0.7639  0.4860  2.8230
  469MOL0     H63289  -1.234   6.341  10.894  1.2854  1.6414  0.7370
  469MOL0     H63290  -1.412   6.331  10.898 -0.7885  0.0011  0.1147
  469MOL0     H63291  -1.430   6.405  11.117  0.1792  0.6032  1.7594
  469MOL0     H63292  -1.297   6.287  11.112  2.2517  1.6214  2.5006
  469MOL0     H63293  -1.238   6.596  11.112 -1.1438  0.8055  1.1491
  469MOL0     H63294  -1.132   6.459  11.107 -0.9109  1.9628 -2.2514
  469MOL0     H63295  -1.212   6.367  11.321 -1.3970 -0.4600  2.0213
  469MOL0     H63296  -1.351   6.476  11.318  0.2024  1.9888 -0.1017
  469MOL0     H63297  -0.916   6.525  10.491 -1.5175  1.2943  0.6206
  469MOL0     H63298  -0.788   6.463  10.310 -1.4301 -2.7546  1.4046
  469MOL0     H63299  -0.689   6.640   9.899  0.4764 -0.9433 -0.4213
  469MOL0     H63300  -0.536   6.688   9.699  0.3062  0.2616  0.5135
  469MOL0     H63301  -0.337   8.096   8.926  0.0584 -0.9070  0.6163
  469MOL0     H63302  -0.155   8.220   8.802  3.8540 -0.3100 -0.6074
  469MOL0     H63303   0.232   8.116   8.523 -0.9652  0.7886 -0.0983
  469MOL0     H63304   0.460   8.163   8.452 -1.3574 -1.5349  1.3586
  469MOL0     H63305   0.701   8.481   8.690  3.6020 -1.3725  3.5503
  469MOL0     H63306   0.751   8.326   8.742 -1.2969  0.5966  0.5168
  469MOL0     H63307   0.925   8.454   8.643 -0.1950  0.1986 -0.9818
  469MOL0     H63308   0.860   8.442   8.479  3.3280  0.2337 -0.6337
  469MOL0     H63309   1.014   8.297   8.472 -0.1593 -0.2034 -0.6908
  469MOL0     H63310   0.882   8.185   8.495 -0.6417  1.1438 -1.5473
  469MOL0     H63311   0.955   8.172   8.742  1.3220 -3.3765 -0.4518
  469MOL0     H63312   1.093   8.263   8.697 -0.3863  0.0321 -0.9621
  469MOL0     H63313   1.154   7.858   8.595 -1.6925  0.3987  4.0785
  469MOL0     H63314   0.533   8.391   8.801  0.3986  1.2724 -0.5170
  469MOL0     H63315   0.303   8.344   8.883  2.4217 -1.5522  0.6641
  470MOL0     O63316   9.307   7.600  11.106  0.0723  0.5531  0.0332
  470MOL0     C63317   9.383   7.505  11.138 -0.7785  0.0939 -0.2666
  470MOL0     O63318   9.445   7.492  11.249 -0.0068  1.3611 -0.4419
  470MOL0     C63319   9.416   7.583  11.351  0.0579 -1.1535 -0.1994
  470MOL0     C63320   9.463   7.715  11.349 -0.2240 -0.3819  1.5661
  470MOL0     C63321   9.436   7.815  11.445  0.2003 -0.4463  0.3282
  470MOL0     C63322   9.353   7.780  11.557  0.2633 -0.2910 -0.1954
  470MOL0     O63323   9.311   7.876  11.641  0.1956  0.2530  1.5009
  470MOL0     C63324   9.192   7.855  11.713  0.0618  0.2491  0.4469
  470MOL0     C63325   9.128   7.991  11.728  1.0983  0.2675  0.1955
  470MOL0     C63326   9.095   8.064  11.592 -0.8045 -0.7701  0.5008
  470MOL0     C63327   9.050   8.209  11.608  0.0660 -0.6547 -0.2312
  470MOL0     C63328   9.149   8.303  11.681 -0.1643 -0.0771 -0.2217
  470MOL0     C63329   9.112   8.453  11.682  0.3301  0.8816 -0.9973
  470MOL0     C63330   9.117   8.524  11.547 -0.7581 -0.3816  0.1705
  470MOL0     C63331   8.973   8.560  11.494 -0.2970 -0.0859 -0.3530
  470MOL0     N63332   8.967   8.601  11.354 -0.4847  0.2461  0.2252
  470MOL0     C63333   9.072   8.617  11.264  0.1302 -0.3176 -0.1135
  470MOL0     C63334   9.019   8.641  11.150 -0.4586 -0.0448  0.6120
  470MOL0     C63335   9.113   8.661  11.043 -0.6020  0.6351  0.3841
  470MOL0     C63336   9.112   8.545  10.938 -0.9718 -0.3340 -0.7358
  470MOL0     C63337   9.177   8.593  10.806  0.9801 -0.2835 -0.0634
  470MOL0     C63338   9.315   8.657  10.826  0.0559  0.6808  0.5615
  470MOL0     O63339   9.361   8.702  10.694 -0.5535  0.3087  0.2710
  470MOL0     C63340   9.340   8.829  10.642 -0.1186  0.0126 -0.1132
  470MOL0     C63341   9.252   8.919  10.703 -0.3412 -0.2733 -1.0571
  470MOL0     C63342   9.241   9.050  10.647  0.7314  0.0820  0.4002
  470MOL0     C63343   9.159   9.149  10.714 -0.3729  0.4676  0.3611
  470MOL0     C63344   9.324   9.095  10.544 -0.1580  0.4001 -0.3242
  470MOL0     C63345   9.307   9.234  10.498 -0.2095 -0.1271 -0.1719
  470MOL0     O63346   9.397   9.321  10.561  0.1897  0.5866  0.6081
  470MOL0     C63347   9.406   9.449  10.508 -0.5694  0.9834  1.1065
  470MOL0     C63348   9.444   9.472  10.376 -0.1814 -0.0132 -0.6012
  470MOL0     C63349   9.463   9.611  10.350  0.7154  0.2282  0.7237
  470MOL0     C63350   9.455   9.714  10.435 -0.4139  0.5743  0.8095
  470MOL0     O63351   9.476   9.843  10.390  0.4654 -0.9767  1.0164
  470MOL0     C63352   9.452   9.955  10.486 -1.0788 -0.2767 -0.3075
  470MOL0     C63353   9.495  10.088  10.441  0.0582 -0.2544  0.1780
  470MOL0     C63354   9.653  10.100  10.390 -0.2014  0.1818  0.1096
  470MOL0     C63355   9.732  10.174  10.489 -0.7351 -0.6379 -0.2173
  470MOL0     C63356   9.860  10.213  10.422 -0.9979 -1.3574  0.1894
  470MOL0     C63357   9.963  10.266  10.513 -0.2071 -0.6704  0.0063
  470MOL0     C63358   9.932  10.404  10.569  0.3589 -0.3598 -0.0975
  470MOL0     C63359  10.026  10.441  10.691 -0.5042 -0.6751 -0.2886
  470MOL0    Cl63360  10.060  10.617  10.689  0.4128  0.5136  0.1773
  470MOL0     C63361   9.423   9.685  10.565  0.7210  0.2607 -0.5901
  470MOL0     C63362   9.406   9.551  10.606  0.2284  0.1912  0.2159
  470MOL0     O63363   9.225   9.264  10.412  0.4169  0.2615  0.4199
  470MOL0     C63364   9.414   9.004  10.486 -0.6628 -0.3937 -0.0367
  470MOL0     C63365   9.416   8.874  10.533 -0.0794 -0.0241 -0.0384
  470MOL0     N63366   8.881   8.642  11.163 -0.1307  0.8210 -0.3749
  470MOL0     N63367   8.851   8.634  11.286 -0.1996  0.1391 -0.4608
  470MOL0     C63368   9.321   7.644  11.569  0.2577  0.4731 -0.2035
  470MOL0     C63369   9.355   7.551  11.472  0.4837  1.0074 -0.1794
  470MOL0     C63370   9.378   7.392  11.040  0.1387  0.0018 -0.3646
  470MOL0     C63371   9.466   7.279  11.067 -0.7648 -0.4261  1.0889
  470MOL0     C63372   9.460   7.172  10.981  0.4383 -0.4040  0.0080
  470MOL0     C63373   9.365   7.169  10.875 -0.3855 -0.7516  0.8997
  470MOL0     O63374   9.337   7.062  10.791  0.3052 -0.5210 -0.4752
  470MOL0     C63375   9.438   6.956  10.779  0.0833 -1.0582 -0.7459
  470MOL0     C63376   9.437   6.900  10.634  0.4691  0.4193 -0.2365
  470MOL0     C63377   9.545   6.798  10.616  1.0160  1.4227 -0.6345
  470MOL0     C63378   9.547   6.757  10.465  0.5535 -0.2451 -0.6187
  470MOL0     C63379   9.608   6.870  10.391  0.5627 -0.0883  0.3286
  470MOL0     C63380   9.657   6.960  10.335 -0.5367 -0.1275 -0.2049
  470MOL0     C63381   9.275   7.283  10.848 -1.0874 -0.5445  0.0899
  470MOL0     C63382   9.288   7.389  10.930 -0.0559 -0.5988 -0.1193
  470MOL0     H63383   9.542   7.726  11.276  0.5167 -2.1103  2.0387
  470MOL0     H63384   9.468   7.918  11.435 -4.3622  1.5416  3.1568
  470MOL0     H63385   9.126   7.784  11.662  1.2072  1.6662 -3.2899
  470MOL0     H63386   9.217   7.812  11.811 -0.8239 -1.8847 -0.1933
  470MOL0     H63387   9.030   7.972  11.772  2.1219 -2.4522  1.5381
  470MOL0     H63388   9.188   8.056  11.793  0.2503  2.2980 -0.9637
  470MOL0     H63389   9.182   8.068  11.526 -2.1011 -1.0187 -1.3021
  470MOL0     H63390   9.019   8.002  11.544 -0.1666 -2.4455  1.5532
  470MOL0     H63391   9.003   8.253  11.520 -0.0240  0.5382  0.3907
  470MOL0     H63392   8.959   8.208  11.670  0.4426  0.7796  0.3897
  470MOL0     H63393   9.155   8.272  11.786  2.1242 -1.3823 -0.6780
  470MOL0     H63394   9.243   8.291  11.626 -0.1855  2.4771 -0.9124
  470MOL0     H63395   9.012   8.461  11.725  0.1032  1.7500 -1.6456
  470MOL0     H63396   9.174   8.511  11.750 -1.1175  1.0842  0.2090
  470MOL0     H63397   9.172   8.618  11.557 -0.9499  0.2326 -3.3561
  470MOL0     H63398   9.185   8.471  11.480  2.0177  2.3458  0.6433
  470MOL0     H63399   8.921   8.640  11.548 -2.6233  0.8032 -3.5796
  470MOL0     H63400   8.909   8.471  11.496 -2.5143  1.3981 -0.7028
  470MOL0     H63401   9.177   8.616  11.290  0.0797  1.6932  0.3066
  470MOL0     H63402   9.072   8.751  10.997 -2.1952  0.3363  1.1427
  470MOL0     H63403   9.211   8.689  11.082 -0.6756  2.0320 -0.3781
  470MOL0     H63404   9.007   8.521  10.917 -2.1731  3.2328  0.4736
  470MOL0     H63405   9.169   8.458  10.973  0.4195  1.3601  1.4365
  470MOL0     H63406   9.107   8.664  10.761  2.2869  0.8467 -0.3804
  470MOL0     H63407   9.187   8.513  10.732  0.3012  1.9408 -2.7437
  470MOL0     H63408   9.385   8.594  10.881 -0.5339 -0.0094  0.5305
  470MOL0     H63409   9.306   8.747  10.888  0.0407  1.7457 -0.9235
  470MOL0     H63410   9.198   8.892  10.793 -2.4332 -0.8700 -2.4301
  470MOL0     H63411   9.116   9.223  10.647  0.2108 -0.3893 -1.0124
  470MOL0     H63412   9.083   9.096  10.773  2.6773 -4.5134  0.4899
  470MOL0     H63413   9.216   9.211  10.784 -2.1159  2.4079  0.1451
  470MOL0     H63414   9.466   9.399  10.299 -0.8326  0.1474 -0.9427
  470MOL0     H63415   9.490   9.644  10.250 -0.2303 -1.1821 -0.0313
  470MOL0     H63416   9.347   9.952  10.515 -0.9982  0.6249  0.1362
  470MOL0     H63417   9.501   9.944  10.583  0.6239  3.8119 -0.4792
  470MOL0     H63418   9.426  10.117  10.362 -2.0085  0.0219  1.9770
  470MOL0     H63419   9.481  10.161  10.521 -0.5430 -2.1345  1.8842
  470MOL0     H63420   9.646  10.130  10.285 -3.3322 -2.6037 -0.6464
  470MOL0     H63421   9.704  10.004  10.387  2.2719  1.4439 -2.1159
  470MOL0     H63422   9.681  10.262  10.528 -4.5148 -2.2888 -0.9704
  470MOL0     H63423   9.746  10.103  10.571  1.3006  0.0431  0.0681
  470MOL0     H63424   9.830  10.284  10.344  0.8806  1.6415  2.0135
  470MOL0     H63425   9.888  10.116  10.380 -3.4032 -1.3284 -1.7543
  470MOL0     H63426   9.983  10.203  10.600  0.4651  1.6525  1.6418
  470MOL0     H63427  10.057  10.278  10.458  1.6691  2.1635  3.4302
  470MOL0     H63428   9.826  10.425  10.582  0.7689  2.1001 -0.1650
  470MOL0     H63429   9.962  10.479  10.494 -0.7143 -2.2441 -2.5366
  470MOL0     H63430  10.121  10.387  10.678  0.9277  1.4295  0.8185
  470MOL0     H63431   9.985  10.413  10.789 -1.1237 -2.8824 -1.1110
  470MOL0     H63432   9.415   9.758  10.645 -3.3712 -0.1995 -0.3804
  470MOL0     H63433   9.366   9.527  10.704  2.8039  0.3158  1.3835
  470MOL0     H63434   9.469   9.028  10.395 -1.9893 -0.4989 -0.8908
  470MOL0     H63435   9.483   8.807  10.479 -0.5707 -0.3350 -0.2717
  470MOL0     H63436   9.275   7.611  11.662  3.6569  0.9887  1.8440
  470MOL0     H63437   9.333   7.445  11.485  0.4459  0.9050 -1.0235
  470MOL0     H63438   9.541   7.276  11.145  0.8216  1.3092 -0.2696
  470MOL0     H63439   9.524   7.086  11.001  1.1638 -1.0088 -4.0647
  470MOL0     H63440   9.537   6.997  10.802  0.2025  0.4213 -3.4192
  470MOL0     H63441   9.420   6.875  10.849  1.7932  0.9884  2.2850
  470MOL0     H63442   9.439   6.981  10.561 -0.4388 -0.5558 -1.3862
  470MOL0     H63443   9.343   6.845  10.620  1.6243 -1.8247  0.3284
  470MOL0     H63444   9.509   6.717  10.681  2.2231 -0.8719 -2.6828
  470MOL0     H63445   9.639   6.841  10.653  0.1926  2.5580  0.2330
  470MOL0     H63446   9.448   6.724  10.431 -0.9511  1.2454  2.0257
  470MOL0     H63447   9.613   6.670  10.456 -1.4945 -2.4423  3.1360
  470MOL0     H63448   9.689   7.058  10.307 -1.2001  0.5358  1.2304
  470MOL0     H63449   9.206   7.273  10.765 -1.0063 -4.2809  0.2833
  470MOL0     H63450   9.222   7.475  10.918  0.7955 -0.0081 -0.7648
  471MOL0     O63451   9.842   1.204  10.519  0.2386 -0.2488 -0.2019
  471MOL0     C63452   9.742   1.142  10.554 -0.3156 -0.2540 -0.0468
  471MOL0     O63453   9.618   1.144  10.504 -0.1779 -0.4313 -0.4803
  471MOL0     C63454   9.586   1.201  10.388 -0.6295  0.4720  0.4072
  471MOL0     C63455   9.547   1.119  10.283  0.3898 -0.7967 -0.4063
  471MOL0     C63456   9.501   1.172  10.168 -0.4131  1.0771  0.1313
  471MOL0     C63457   9.496   1.308  10.148  0.2651 -0.4048  0.7117
  471MOL0     O63458   9.466   1.377  10.034 -0.2438 -0.0769  0.1703
  471MOL0     C63459   9.465   1.308   9.910 -0.3752  0.7202  0.3369
  471MOL0     C63460   9.462   1.414   9.789 -0.8060  0.5496 -0.3086
  471MOL0     C63461   9.455   1.338   9.653  0.4960  0.2594 -0.3045
  471MOL0     C63462   9.443   1.444   9.543 -0.3772 -0.0321 -0.2044
  471MOL0     C63463   9.412   1.379   9.415 -0.4338  0.4155 -0.8436
  471MOL0     C63464   9.527   1.295   9.359 -0.8355  0.4653 -0.9818
  471MOL0     C63465   9.482   1.228   9.229 -0.0298  0.3563  0.2329
  471MOL0     C63466   9.609   1.157   9.163 -0.3224  0.3243  0.3149
  471MOL0     N63467   9.580   1.074   9.039 -0.2440 -0.8417 -0.1582
  471MOL0     C63468   9.496   1.099   8.939 -0.8264 -1.0329  0.3819
  471MOL0     C63469   9.525   1.018   8.833  0.4767  0.2071  0.0382
  471MOL0     C63470   9.434   1.004   8.715  0.1623 -0.1444  0.7045
  471MOL0     C63471   9.502   1.056   8.589 -0.4342  0.1378 -0.7252
  471MOL0     C63472   9.409   1.067   8.468 -0.3558 -0.7908  1.0322
  471MOL0     C63473   9.376   0.932   8.403  0.0826  0.0894 -0.4912
  471MOL0     O63474   9.362   0.934   8.260  0.2962 -0.4813  0.1697
  471MOL0     C63475   9.241   0.982   8.216 -0.2084  0.4750 -0.3616
  471MOL0     C63476   9.113   0.936   8.266 -0.6805 -0.2055  1.0583
  471MOL0     C63477   8.994   0.984   8.208 -0.2130  0.2671 -1.3313
  471MOL0     C63478   8.866   0.932   8.278 -0.2712 -0.0169  0.7171
  471MOL0     C63479   9.000   1.081   8.100 -0.8237  0.4429 -0.2248
  471MOL0     C63480   8.889   1.146   8.027 -0.0117  1.2119 -0.5263
  471MOL0     O63481   8.774   1.152   8.092 -0.4381 -0.4023  0.3484
  471MOL0     C63482   8.673   1.223   8.037  0.3357 -0.6353 -0.3190
  471MOL0     C63483   8.687   1.349   7.984  0.5180 -0.6082 -0.3984
  471MOL0     C63484   8.573   1.409   7.930 -0.0386 -0.3413 -0.1748
  471MOL0     C63485   8.450   1.348   7.924  0.9743 -0.1086 -0.0389
  471MOL0     O63486   8.336   1.403   7.863 -0.4759 -0.1392  0.0733
  471MOL0     C63487   8.244   1.325   7.782 -1.0463 -0.2911 -0.2033
  471MOL0     C63488   8.141   1.423   7.710 -0.4146  0.3160  0.2724
  471MOL0     C63489   8.224   1.513   7.611 -0.0555 -0.1180 -0.0476
  471MOL0     C63490   8.124   1.575   7.502 -1.4357  0.4386 -0.5761
  471MOL0     C63491   8.075   1.482   7.395 -0.0932  0.8624  0.9013
  471MOL0     C63492   7.998   1.544   7.288  0.6528 -0.9240 -0.5539
  471MOL0     C63493   7.960   1.434   7.185 -0.4061 -1.5680 -0.0660
  471MOL0     C63494   7.878   1.515   7.080 -0.2864  1.2543 -0.7998
  471MOL0    Cl63495   7.962   1.576   6.937  0.7933  0.4765 -0.0096
  471MOL0     C63496   8.437   1.212   7.966  0.2764 -0.1022  0.4374
  471MOL0     C63497   8.551   1.152   8.025 -0.3460  0.4739 -0.2481
  471MOL0     O63498   8.909   1.181   7.911 -0.0056  1.0343 -0.0556
  471MOL0     C63499   9.128   1.111   8.056  0.5702 -0.5573  0.4405
  471MOL0     C63500   9.249   1.065   8.104  1.0276 -0.6208 -0.4730
  471MOL0     N63501   9.638   0.943   8.874 -0.3599 -0.0218 -0.7621
  471MOL0     N63502   9.670   0.982   8.995 -0.3643 -0.2513  0.0856
  471MOL0     C63503   9.540   1.391  10.248  0.0448  0.6566 -0.3982
  471MOL0     C63504   9.595   1.335  10.364  0.7304 -1.3511  0.1648
  471MOL0     C63505   9.761   1.071  10.680  0.0334 -0.3525  0.0318
  471MOL0     C63506   9.870   1.086  10.756  0.1904  0.1560  0.3899
  471MOL0     C63507   9.882   1.020  10.882 -0.5427 -0.1933  0.0454
  471MOL0     C63508   9.784   0.924  10.915 -0.5717 -0.8104 -0.3880
  471MOL0     O63509   9.780   0.874  11.042  0.7872  0.0424 -1.5808
  471MOL0     C63510   9.900   0.873  11.130 -0.2425 -0.2358 -0.6256
  471MOL0     C63511   9.859   0.818  11.266 -0.0202  1.2184  0.1763
  471MOL0     C63512   9.874   0.668  11.289  0.1069  0.8012 -0.1166
  471MOL0     C63513   9.747   0.591  11.225  0.1725 -0.1078 -0.3471
  471MOL0     C63514   9.621   0.640  11.279 -0.2489 -0.5407  1.3248
  471MOL0     C63515   9.504   0.669  11.295  0.8424 -0.9664 -0.0306
  471MOL0     C63516   9.678   0.903  10.831 -0.5174  0.4976 -0.0482
  471MOL0     C63517   9.670   0.972  10.713 -0.5656 -1.2088 -0.0863
  471MOL0     H63518   9.540   1.012  10.301 -0.8232 -0.7587 -0.5955
  471MOL0     H63519   9.467   1.099  10.095 -1.4017  2.8660 -1.2858
  471MOL0     H63520   9.559   1.254   9.900  0.6793  2.5689 -0.1825
  471MOL0     H63521   9.381   1.237   9.909 -1.2925  1.7678 -1.1950
  471MOL0     H63522   9.378   1.483   9.803  0.0368  1.4984  0.2888
  471MOL0     H63523   9.553   1.475   9.793 -1.8586  2.4493 -2.5728
  471MOL0     H63524   9.549   1.283   9.645 -0.1854 -1.7591  3.2768
  471MOL0     H63525   9.373   1.266   9.660 -1.2563  1.9222 -2.3245
  471MOL0     H63526   9.369   1.523   9.558  0.4025  1.1157 -1.9894
  471MOL0     H63527   9.543   1.485   9.524 -1.0311  1.8687  0.2691
  471MOL0     H63528   9.316   1.328   9.427 -1.0087  1.4088 -1.1212
  471MOL0     H63529   9.397   1.470   9.356  0.5293  1.3209  0.2848
  471MOL0     H63530   9.609   1.360   9.328 -1.3127  1.8880  0.6121
  471MOL0     H63531   9.563   1.227   9.438  1.4436  2.9247  0.2442
  471MOL0     H63532   9.401   1.156   9.245 -2.3708  2.2289 -2.3946
  471MOL0     H63533   9.440   1.294   9.153 -2.6480 -1.8612 -0.4236
  471MOL0     H63534   9.647   1.103   9.250 -0.6286  1.9575  1.5095
  471MOL0     H63535   9.686   1.230   9.136 -3.1765  2.6666 -2.2441
  471MOL0     H63536   9.418   1.174   8.931 -1.2595 -1.6606 -1.8537
  471MOL0     H63537   9.412   0.899   8.695  0.4487  0.2530 -2.0512
  471MOL0     H63538   9.337   1.052   8.728  1.1222  1.7400  1.1728
  471MOL0     H63539   9.588   0.992   8.569  0.3080  1.0168 -0.4152
  471MOL0     H63540   9.545   1.153   8.617  4.1470 -2.0756  0.8832
  471MOL0     H63541   9.452   1.134   8.393 -2.8737 -0.8042 -0.5301
  471MOL0     H63542   9.325   1.127   8.504  0.8082  0.4097  1.8490
  471MOL0     H63543   9.292   0.889   8.458 -0.1217 -0.9549 -1.5969
  471MOL0     H63544   9.452   0.856   8.425 -0.5929 -1.0700 -1.9924
  471MOL0     H63545   9.117   0.863   8.347 -0.3745  0.1883  1.4066
  471MOL0     H63546   8.878   0.824   8.291  0.0792  0.2206  2.6621
  471MOL0     H63547   8.871   0.972   8.380  0.1775 -0.5811  0.9277
  471MOL0     H63548   8.775   0.946   8.219  1.2017 -0.5114 -1.8215
  471MOL0     H63549   8.775   1.412   7.979  0.1473 -0.1733 -2.1751
  471MOL0     H63550   8.574   1.506   7.882 -3.6085 -0.1612 -0.1393
  471MOL0     H63551   8.309   1.274   7.710  0.7864 -1.3545  2.0486
  471MOL0     H63552   8.191   1.253   7.846 -2.1387 -0.6455 -1.4678
  471MOL0     H63553   8.067   1.354   7.668  3.2460 -3.1501 -1.0148
  471MOL0     H63554   8.094   1.470   7.798  0.0090 -3.2926  2.6360
  471MOL0     H63555   8.287   1.447   7.550 -2.6447 -2.2587 -0.5722
  471MOL0     H63556   8.276   1.587   7.673 -0.2244 -0.8324  0.9612
  471MOL0     H63557   8.035   1.619   7.549  0.7255  2.8337  1.5986
  471MOL0     H63558   8.173   1.652   7.441  2.9950 -2.0193 -0.5288
  471MOL0     H63559   8.012   1.403   7.437  0.5449 -2.5235 -3.6738
  471MOL0     H63560   8.161   1.432   7.349 -0.8993  0.0945  0.1995
  471MOL0     H63561   7.910   1.592   7.333  1.4059  0.2615 -0.2866
  471MOL0     H63562   8.053   1.622   7.235  0.0736  0.7668  1.2171
  471MOL0     H63563   7.892   1.372   7.244 -0.4577  0.1424  1.8049
  471MOL0     H63564   8.034   1.368   7.138 -1.8568 -2.2493 -1.4530
  471MOL0     H63565   7.825   1.597   7.129  0.2779 -0.1355  2.3833
  471MOL0     H63566   7.795   1.447   7.059  0.1788 -1.6281  4.8202
  471MOL0     H63567   8.345   1.156   7.957  0.3062  0.0100 -0.6973
  471MOL0     H63568   8.549   1.046   8.045 -3.0107  0.5276  0.1677
  471MOL0     H63569   9.140   1.182   7.975  3.6244 -1.3279  0.0644
  471MOL0     H63570   9.344   1.094   8.059 -0.1175  2.1327 -1.3456
  471MOL0     H63571   9.525   1.499  10.249 -1.4967  0.5059  2.5372
  471MOL0     H63572   9.602   1.409  10.442 -0.0844 -0.6926 -0.3716
  471MOL0     H63573   9.946   1.161  10.738  1.8240 -1.6872 -0.8933
  471MOL0     H63574   9.964   1.044  10.949  0.8527  1.4921 -2.1083
  471MOL0     H63575   9.978   0.820  11.076  0.1907  1.5055 -1.7925
  471MOL0     H63576   9.948   0.969  11.152  1.1006 -1.1896  0.7648
  471MOL0     H63577   9.753   0.839  11.284 -1.0082 -4.0367  2.2515
  471MOL0     H63578   9.922   0.871  11.337  1.8965  0.0472 -0.5553
  471MOL0     H63579   9.866   0.655  11.397  0.8790 -0.4715 -0.1854
  471MOL0     H63580   9.966   0.620  11.253 -0.7607  0.7701 -2.4930
  471MOL0     H63581   9.746   0.485  11.251  0.0640  0.2032  1.0013
  471MOL0     H63582   9.751   0.609  11.117  0.8443  1.4904 -0.0856
  471MOL0     H63583   9.403   0.702  11.310  1.0393 -0.1922 -0.3756
  471MOL0     H63584   9.604   0.832  10.865 -1.3793  0.9275 -0.9812
  471MOL0     H63585   9.578   0.967  10.656 -1.8265  0.5657  1.6052
  472MOL0     O63586  10.629   0.645   6.298 -0.2665 -0.2477 -0.0286
  472MOL0     C63587  10.710   0.561   6.250  0.2007 -0.0147 -0.4891
  472MOL0     O63588  10.796   0.586   6.146  0.4263 -0.0489  0.3256
  472MOL0     C63589  10.783   0.699   6.067  0.1527 -0.2767 -0.6519
  472MOL0     C63590  10.901   0.739   5.999 -0.6329 -0.3351 -0.8538
  472MOL0     C63591  10.907   0.862   5.929  1.1130 -0.8307  0.2778
  472MOL0     C63592  10.782   0.926   5.898 -0.6382 -0.1725 -0.8633
  472MOL0     O63593  10.775   1.044   5.822 -0.3690 -0.3302  0.4113
  472MOL0     C63594  10.884   1.134   5.818 -0.2792 -0.0232  0.6944
  472MOL0     C63595  10.847   1.259   5.740  0.3890  0.1190 -0.4699
  472MOL0     C63596  10.966   1.326   5.676  0.7366 -0.3524 -0.4817
  472MOL0     C63597  10.940   1.408   5.548  0.2509  0.4905 -0.3919
  472MOL0     C63598  10.836   1.515   5.576  0.0448 -0.2042  0.3055
  472MOL0     C63599  10.798   1.587   5.447 -0.1168 -0.8910  0.0303
  472MOL0     C63600  10.731   1.724   5.456 -0.1777 -0.4826  0.1305
  472MOL0     C63601  10.738   1.796   5.328  0.4386  0.2361 -0.0139
  472MOL0     N63602  10.698   1.937   5.353  0.5014 -0.0370 -0.4125
  472MOL0     C63603  10.571   1.979   5.360  0.5809  0.1065 -0.3814
  472MOL0     C63604  10.567   2.113   5.376 -0.6205  0.2774  1.2897
  472MOL0     C63605  10.446   2.192   5.409  0.2687  0.2292 -0.3934
  472MOL0     C63606  10.455   2.329   5.337  0.4445  0.5066 -0.4808
  472MOL0     C63607  10.350   2.439   5.374 -0.5915 -0.1100 -0.6634
  472MOL0     C63608  10.386   2.561   5.288 -0.7935 -0.7862 -0.4085
  472MOL0     O63609  10.317   2.675   5.338  0.0437 -0.3209 -0.4262
  472MOL0     C63610  10.336   2.790   5.270 -0.5742  0.5875  0.0237
  472MOL0     C63611  10.293   2.900   5.338 -0.7356  0.0509 -0.3221
  472MOL0     C63612  10.329   3.031   5.301 -0.3348 -0.0716 -0.8609
  472MOL0     C63613  10.287   3.140   5.388  0.9998 -0.1648 -0.0946
  472MOL0     C63614  10.404   3.054   5.184  1.1432 -0.1638  1.1818
  472MOL0     C63615  10.441   3.187   5.136  0.7125 -0.4654  0.2546
  472MOL0     O63616  10.501   3.191   5.015 -0.7143 -0.4817  0.3541
  472MOL0     C63617  10.557   3.299   4.955 -0.2402  0.4942  0.4324
  472MOL0     C63618  10.486   3.407   4.902 -0.0043  0.2051 -0.4566
  472MOL0     C63619  10.556   3.505   4.841 -0.3139 -0.2487  0.8691
  472MOL0     C63620  10.687   3.487   4.798 -0.2895 -0.3225  0.4808
  472MOL0     O63621  10.746   3.592   4.736  1.1705 -0.1660  0.2185
  472MOL0     C63622  10.834   3.553   4.635 -1.3899 -0.5184 -0.5286
  472MOL0     C63623  10.768   3.491   4.524 -0.0832  0.3129 -0.2432
  472MOL0     C63624  10.652   3.561   4.454 -0.4258  0.5672  0.1058
  472MOL0     C63625  10.675   3.700   4.420  0.1097 -0.9502 -0.2500
  472MOL0     C63626  10.588   3.734   4.298  0.6648  0.2837  0.1009
  472MOL0     C63627  10.587   3.886   4.268  0.0262 -0.6370  0.4401
  472MOL0     C63628  10.501   3.923   4.146  0.3552 -0.0439 -0.6104
  472MOL0     C63629  10.499   4.072   4.126 -0.8062  0.0357 -0.7718
  472MOL0    Cl63630  10.390   4.107   3.977  0.2230  0.2452 -0.2381
  472MOL0     C63631  10.767   3.374   4.851 -0.0355  0.6493 -0.2983
  472MOL0     C63632  10.696   3.275   4.924 -0.4718  0.4211 -0.0890
  472MOL0     O63633  10.407   3.294   5.190  0.5828 -0.6204  0.2797
  472MOL0     C63634  10.450   2.940   5.112 -0.5206 -0.5920  0.0594
  472MOL0     C63635  10.416   2.806   5.156 -1.4446  0.5039  0.2159
  472MOL0     N63636  10.704   2.151   5.364  0.1853 -0.6185 -0.1148
  472MOL0     N63637  10.780   2.050   5.348 -0.6224  0.1754 -0.5269
  472MOL0     C63638  10.663   0.882   5.955 -0.1243  0.2483  0.3067
  472MOL0     C63639  10.657   0.771   6.038  0.6459  0.5053  0.0554
  472MOL0     C63640  10.731   0.436   6.323 -1.0981 -0.1745  0.0696
  472MOL0     C63641  10.832   0.346   6.283 -0.0329 -0.8773  0.9340
  472MOL0     C63642  10.834   0.215   6.325 -0.0721  0.4145 -0.8201
  472MOL0     C63643  10.745   0.177   6.426  0.1424  1.1537  1.6463
  472MOL0     O63644  10.767   0.051   6.475 -0.1534 -0.1526 -0.8818
  472MOL0     C63645  10.693   0.007   6.593 -0.3639 -0.5630 -0.2320
  472MOL0     C63646  10.726  -0.136   6.627  0.3444 -0.7207 -0.1014
  472MOL0     C63647  10.876  -0.175   6.600  0.1935 -0.2010 -0.2728
  472MOL0     C63648  10.922  -0.276   6.701  0.4221 -0.7126 -0.3850
  472MOL0     C63649  11.071  -0.281   6.682  0.6690  0.1172  0.4358
  472MOL0     C63650  11.187  -0.294   6.670  0.3425 -0.3916  0.0621
  472MOL0     C63651  10.651   0.268   6.476 -0.4567 -0.5749  0.3280
  472MOL0     C63652  10.634   0.393   6.424 -0.0963  0.1616  0.3272
  472MOL0     H63653  10.994   0.686   6.012 -1.2325 -0.9085  1.5980
  472MOL0     H63654  10.998   0.896   5.881  0.7723 -2.2859 -1.5394
  472MOL0     H63655  10.924   1.153   5.919  2.5511 -2.7867  0.2319
  472MOL0     H63656  10.957   1.084   5.754 -0.3822 -1.4995  1.6717
  472MOL0     H63657  10.766   1.241   5.668 -0.6838  0.6621  0.5587
  472MOL0     H63658  10.791   1.330   5.802 -0.3310  2.1666 -3.2717
  472MOL0     H63659  11.020   1.395   5.742  0.9890 -2.3219  1.4921
  472MOL0     H63660  11.042   1.251   5.651  1.7896 -0.1256  1.7121
  472MOL0     H63661  11.033   1.455   5.516 -0.0546  1.7412  0.4802
  472MOL0     H63662  10.904   1.336   5.474 -0.7566  0.4765  0.0860
  472MOL0     H63663  10.742   1.475   5.615 -0.4829 -0.5428 -1.2694
  472MOL0     H63664  10.865   1.583   5.657 -0.5713  1.5420 -0.8611
  472MOL0     H63665  10.899   1.611   5.413  0.0581 -1.9141 -0.2211
  472MOL0     H63666  10.756   1.525   5.366  1.1256  0.6664 -1.8977
  472MOL0     H63667  10.625   1.705   5.476  0.1659 -1.6441  1.0154
  472MOL0     H63668  10.770   1.782   5.541  0.9175  1.8225 -1.8424
  472MOL0     H63669  10.671   1.757   5.250 -1.3908  0.6552  1.2824
  472MOL0     H63670  10.838   1.785   5.284 -0.8906  0.8613 -3.6070
  472MOL0     H63671  10.489   1.908   5.356  1.1355 -0.6049  0.5386
  472MOL0     H63672  10.359   2.135   5.375 -0.7634  1.0842  0.7494
  472MOL0     H63673  10.436   2.217   5.515 -1.4518 -0.5770 -0.3346
  472MOL0     H63674  10.446   2.305   5.231 -1.6224 -0.1231 -0.2062
  472MOL0     H63675  10.555   2.364   5.366  1.7626 -3.9445  1.2782
  472MOL0     H63676  10.359   2.468   5.479  3.6835  0.4394 -1.0069
  472MOL0     H63677  10.245   2.412   5.358 -1.3569  2.1585  0.1943
  472MOL0     H63678  10.362   2.538   5.184  0.0316  1.6196 -1.2119
  472MOL0     H63679  10.492   2.587   5.299 -0.8916  0.1377 -1.4759
  472MOL0     H63680  10.225   2.882   5.420 -2.5956  2.3076 -1.2429
  472MOL0     H63681  10.369   3.203   5.425  1.3220 -1.3735  1.3682
  472MOL0     H63682  10.218   3.203   5.331  1.6218  0.3075 -0.3471
  472MOL0     H63683  10.238   3.101   5.478  4.0971 -0.1996  1.7413
  472MOL0     H63684  10.381   3.419   4.927  0.1973 -0.4456  0.8227
  472MOL0     H63685  10.496   3.589   4.808 -1.4626 -1.7876 -1.1609
  472MOL0     H63686  10.904   3.633   4.612  1.6879 -3.1437 -1.1488
  472MOL0     H63687  10.902   3.474   4.669  0.2971  1.9625  2.3845
  472MOL0     H63688  10.839   3.456   4.448  1.9970 -2.3176  2.6482
  472MOL0     H63689  10.722   3.398   4.559  1.4588 -1.1324 -1.8169
  472MOL0     H63690  10.563   3.551   4.516  0.3125 -0.3981  1.0485
  472MOL0     H63691  10.644   3.509   4.357  3.5002 -0.1366 -0.0030
  472MOL0     H63692  10.637   3.775   4.490  0.4063  0.9061 -1.9776
  472MOL0     H63693  10.782   3.721   4.408 -0.5138  2.6432 -0.7448
  472MOL0     H63694  10.486   3.706   4.325  1.1922 -1.1670  0.7368
  472MOL0     H63695  10.621   3.677   4.210  0.9569 -0.2893  0.5670
  472MOL0     H63696  10.547   3.927   4.361  0.7987 -0.7189  0.8151
  472MOL0     H63697  10.689   3.919   4.243  0.6449 -3.6410 -1.6001
  472MOL0     H63698  10.400   3.881   4.158 -0.1062  1.3256  0.6289
  472MOL0     H63699  10.548   3.875   4.059 -1.0031 -2.0005 -0.3380
  472MOL0     H63700  10.597   4.115   4.102  0.4250 -0.3405  2.8367
  472MOL0     H63701  10.459   4.127   4.212 -2.0532  0.3162 -1.5149
  472MOL0     H63702  10.870   3.350   4.830 -0.1785 -1.5351  1.1612
  472MOL0     H63703  10.743   3.183   4.958 -4.1686 -1.2444  1.0698
  472MOL0     H63704  10.527   2.946   5.036 -0.6006 -2.0421 -0.1676
  472MOL0     H63705  10.472   2.724   5.113 -0.1050  0.2693  2.2699
  472MOL0     H63706  10.577   0.944   5.933  2.1847  3.9022  0.6846
  472MOL0     H63707  10.563   0.732   6.076  1.5187 -1.8028  0.0296
  472MOL0     H63708  10.900   0.380   6.205  0.5217 -0.1974  1.6851
  472MOL0     H63709  10.913   0.150   6.290  3.3285  3.3621  0.6365
  472MOL0     H63710  10.720   0.059   6.685 -1.0175  1.9360 -1.3665
  472MOL0     H63711  10.586   0.020   6.577 -0.3839  0.3992  0.6155
  472MOL0     H63712  10.664  -0.201   6.565 -2.8897  1.8322  0.1623
  472MOL0     H63713  10.706  -0.157   6.732 -0.1527 -3.3858 -0.6582
  472MOL0     H63714  10.939  -0.087   6.610 -1.9928  1.3030  1.0829
  472MOL0     H63715  10.881  -0.209   6.496 -0.8688 -0.5162 -0.2429
  472MOL0     H63716  10.868  -0.369   6.684 -0.8384 -0.0395 -0.1662
  472MOL0     H63717  10.888  -0.236   6.797  0.0250  2.4300 -1.7043
  472MOL0     H63718  11.289  -0.313   6.644 -0.0492 -0.1242 -1.7865
  472MOL0     H63719  10.601   0.247   6.570  1.8583 -1.8795  1.3516
  472MOL0     H63720  10.552   0.450   6.465 -1.3559  0.6649 -2.6584
  473MOL0     O63721   9.811   3.363   6.395 -0.0440 -0.1687  0.7331
  473MOL0     C63722   9.766   3.287   6.481 -0.3979  0.7718  0.4584
  473MOL0     O63723   9.767   3.318   6.618 -0.2629  0.0825  0.7397
  473MOL0     C63724   9.814   3.433   6.673  0.5720 -0.2863  0.0635
  473MOL0     C63725   9.939   3.490   6.634  0.0688  0.4238  0.5922
  473MOL0     C63726   9.978   3.621   6.686  0.4913 -0.1955  0.1479
  473MOL0     C63727   9.908   3.675   6.792  0.4227 -0.5734  0.5672
  473MOL0     O63728   9.953   3.778   6.869 -0.2310 -0.7773  0.3207
  473MOL0     C63729  10.084   3.771   6.926 -0.4141  0.7580  0.8724
  473MOL0     C63730  10.101   3.642   7.018  0.5696  0.6077 -0.3751
  473MOL0     C63731  10.235   3.588   7.034  0.9622  0.1809 -0.3828
  473MOL0     C63732  10.290   3.513   6.917  1.4630  0.4063  0.9176
  473MOL0     C63733  10.429   3.470   6.930 -0.1779 -0.6237  0.2315
  473MOL0     C63734  10.474   3.401   6.801  0.7579 -0.1199 -0.0056
  473MOL0     C63735  10.621   3.357   6.819 -0.4061 -0.1754  0.2592
  473MOL0     C63736  10.726   3.459   6.773  1.1922  0.2196  0.1492
  473MOL0     N63737  10.718   3.514   6.637  0.4582  0.1934  0.5995
  473MOL0     C63738  10.727   3.450   6.517 -0.4972  0.7285  0.3617
  473MOL0     C63739  10.697   3.540   6.423  0.4050  0.0398 -0.2346
  473MOL0     C63740  10.707   3.529   6.265  0.3977  0.6527  0.3098
  473MOL0     C63741  10.557   3.532   6.212  0.2684  0.3354 -0.1189
  473MOL0     C63742  10.537   3.517   6.065  0.2858  0.3255  1.0228
  473MOL0     C63743  10.401   3.474   6.013  0.2806  0.1867  0.7125
  473MOL0     O63744  10.389   3.508   5.873 -0.8644  0.2698  0.1032
  473MOL0     C63745  10.292   3.428   5.808  0.6651 -0.8461 -0.2422
  473MOL0     C63746  10.271   3.298   5.822  0.0880 -0.4638 -0.4128
  473MOL0     C63747  10.171   3.228   5.761  0.3421  0.3775 -0.5385
  473MOL0     C63748  10.174   3.077   5.795 -0.8758  0.9075  0.7268
  473MOL0     C63749  10.083   3.288   5.666 -0.5623 -0.7173 -0.6198
  473MOL0     C63750   9.976   3.229   5.586 -0.3792 -0.7570  0.6426
  473MOL0     O63751   9.877   3.313   5.540 -0.7818  0.5293 -0.3323
  473MOL0     C63752   9.782   3.254   5.464 -0.0158 -0.2537  1.0290
  473MOL0     C63753   9.696   3.146   5.500  0.4961  0.1502 -0.3124
  473MOL0     C63754   9.580   3.110   5.424 -0.0785 -0.9525 -0.0653
  473MOL0     C63755   9.563   3.169   5.299 -0.0336  0.7239 -0.2943
  473MOL0     O63756   9.454   3.135   5.225 -0.3150  0.2975 -0.4142
  473MOL0     C63757   9.449   3.000   5.174  0.1970 -0.5980  0.7250
  473MOL0     C63758   9.316   2.981   5.102  0.0280  0.2344  0.0533
  473MOL0     C63759   9.289   2.831   5.063 -0.4809 -0.8903  0.2247
  473MOL0     C63760   9.403   2.771   4.971 -0.5030  0.0771 -0.4528
  473MOL0     C63761   9.380   2.610   4.952  0.9909  0.7634  0.1367
  473MOL0     C63762   9.489   2.539   4.880  0.7272 -0.0746  0.2123
  473MOL0     C63763   9.455   2.394   4.862 -0.4570  0.4704  0.8258
  473MOL0     C63764   9.351   2.365   4.748 -0.6791  0.8130 -0.4252
  473MOL0    Cl63765   9.181   2.386   4.801 -0.4507  0.3299 -0.1448
  473MOL0     C63766   9.647   3.275   5.260  0.7538  0.0163  0.4211
  473MOL0     C63767   9.744   3.320   5.348  1.3404 -0.6251  1.1211
  473MOL0     O63768   9.983   3.109   5.576  0.1649  1.3012  0.5699
  473MOL0     C63769  10.109   3.425   5.646  0.4388 -0.3501 -1.1451
  473MOL0     C63770  10.199   3.494   5.728  0.5982 -0.0480 -0.0555
  473MOL0     N63771  10.652   3.654   6.492 -0.7251  0.1618 -0.4572
  473MOL0     N63772  10.663   3.635   6.619 -0.0684 -0.3802 -0.2278
  473MOL0     C63773   9.779   3.623   6.818  0.2378 -0.1069  0.3569
  473MOL0     C63774   9.729   3.499   6.763  0.8159 -0.5234 -0.7866
  473MOL0     C63775   9.694   3.162   6.444 -0.5943  0.4396 -0.8375
  473MOL0     C63776   9.597   3.099   6.524  0.4404 -0.1234  0.7156
  473MOL0     C63777   9.561   2.972   6.490 -0.4216 -0.0215 -1.2581
  473MOL0     C63778   9.590   2.916   6.374 -0.3219 -0.8234  0.4653
  473MOL0     O63779   9.539   2.789   6.356  0.6038  0.7506  0.1620
  473MOL0     C63780   9.503   2.737   6.226 -1.1159 -0.7233  0.0464
  473MOL0     C63781   9.553   2.596   6.216  0.5415  0.2481  0.1533
  473MOL0     C63782   9.503   2.510   6.091  0.3305 -1.2256  0.7821
  473MOL0     C63783   9.348   2.530   6.044 -0.5942  0.5870 -0.2118
  473MOL0     C63784   9.322   2.442   5.931  0.6664 -0.6119 -0.3597
  473MOL0     C63785   9.317   2.378   5.830 -0.3130 -0.6802 -0.0677
  473MOL0     C63786   9.679   2.979   6.284  0.5501 -0.2619  0.6767
  473MOL0     C63787   9.728   3.103   6.321  0.2918  1.6026  0.0934
  473MOL0     H63788   9.996   3.436   6.559 -1.5830 -2.9891  1.5857
  473MOL0     H63789  10.075   3.656   6.651  0.3276  1.8530  1.5566
  473MOL0     H63790  10.153   3.757   6.842 -1.3283 -2.5744  0.5284
  473MOL0     H63791  10.110   3.862   6.981 -0.2476 -0.0878  2.2603
  473MOL0     H63792  10.086   3.684   7.118  2.6807 -2.7149  1.5113
  473MOL0     H63793  10.031   3.561   7.000 -0.5153  1.3481  0.3781
  473MOL0     H63794  10.293   3.680   7.047  0.0749  0.9349 -1.5587
  473MOL0     H63795  10.232   3.517   7.118  2.4106  0.0537 -0.4116
  473MOL0     H63796  10.229   3.426   6.893 -1.5107  3.0019 -1.9035
  473MOL0     H63797  10.270   3.573   6.828  0.1366 -0.1692  0.8073
  473MOL0     H63798  10.491   3.559   6.944  1.8753 -2.1008  0.9403
  473MOL0     H63799  10.443   3.394   7.007  0.0513 -0.2997  0.5149
  473MOL0     H63800  10.405   3.319   6.780 -4.3165  3.3312  1.5143
  473MOL0     H63801  10.463   3.471   6.718  1.7643  0.3577  0.2465
  473MOL0     H63802  10.629   3.324   6.923 -0.4118 -0.6090  0.1202
  473MOL0     H63803  10.648   3.273   6.755  0.1886  1.7986 -2.2967
  473MOL0     H63804  10.822   3.407   6.783  1.5409 -0.2395 -3.9199
  473MOL0     H63805  10.724   3.545   6.841 -0.1780  0.0649  0.3272
  473MOL0     H63806  10.760   3.348   6.502  0.4666  1.1029 -0.2176
  473MOL0     H63807  10.756   3.614   6.216  0.6360 -1.0768 -2.7454
  473MOL0     H63808  10.755   3.436   6.232 -2.0361  0.2068 -2.4091
  473MOL0     H63809  10.493   3.617   6.238  0.3007  0.1125  0.7242
  473MOL0     H63810  10.517   3.441   6.257 -1.6206  0.4113 -1.5470
  473MOL0     H63811  10.602   3.434   6.038 -0.9018 -0.6803  1.2115
  473MOL0     H63812  10.570   3.605   6.008 -2.9834 -0.7770 -3.0914
  473MOL0     H63813  10.320   3.530   6.060  1.4178  0.8668  1.9322
  473MOL0     H63814  10.374   3.372   6.040  0.5269 -0.1200 -0.1432
  473MOL0     H63815  10.345   3.236   5.872  0.7979 -0.9820 -2.0501
  473MOL0     H63816  10.254   3.045   5.862 -0.4251 -1.6576 -0.9079
  473MOL0     H63817  10.081   3.027   5.824 -0.1267 -1.9837 -1.3733
  473MOL0     H63818  10.213   3.035   5.702  1.2424  0.8832  1.5668
  473MOL0     H63819   9.715   3.090   5.591  4.7210  1.8309  0.0735
  473MOL0     H63820   9.518   3.031   5.464 -1.2541 -0.8965 -1.6675
  473MOL0     H63821   9.530   2.986   5.103 -1.2733 -0.1797 -1.1199
  473MOL0     H63822   9.466   2.927   5.254  3.7695 -0.7346 -0.0270
  473MOL0     H63823   9.237   3.027   5.162  0.1412  0.1386  0.2782
  473MOL0     H63824   9.313   3.039   5.010  0.0492  1.5759  0.8738
  473MOL0     H63825   9.194   2.835   5.009 -1.1766  1.7823  1.4895
  473MOL0     H63826   9.279   2.779   5.159 -0.7395  0.1589  0.7875
  473MOL0     H63827   9.422   2.821   4.876  0.3026  4.2578  1.6583
  473MOL0     H63828   9.496   2.789   5.026 -0.1204 -0.4334 -0.9287
  473MOL0     H63829   9.292   2.595   4.888  1.9196 -1.0886 -0.7880
  473MOL0     H63830   9.361   2.567   5.050  0.3168  2.0429  0.6009
  473MOL0     H63831   9.515   2.589   4.786  2.0612  0.5995  0.8976
  473MOL0     H63832   9.578   2.557   4.942 -0.4533  3.3448  1.1494
  473MOL0     H63833   9.420   2.350   4.956 -0.2858 -0.5030  0.4368
  473MOL0     H63834   9.548   2.348   4.829 -0.0666  0.8070  1.4493
  473MOL0     H63835   9.356   2.260   4.717 -3.0576 -0.1252  1.9831
  473MOL0     H63836   9.367   2.424   4.658  1.9701  0.4587 -0.2550
  473MOL0     H63837   9.635   3.311   5.159  5.0197 -2.5600 -1.2595
  473MOL0     H63838   9.800   3.413   5.338 -0.3217  0.5669  2.4335
  473MOL0     H63839  10.063   3.468   5.557 -0.6267 -1.5926 -1.2296
  473MOL0     H63840  10.213   3.601   5.716  1.4158  0.0797  1.8197
  473MOL0     H63841   9.712   3.692   6.868 -0.8664 -0.3592 -0.7388
  473MOL0     H63842   9.630   3.468   6.796  0.8876 -0.5190 -0.5628
  473MOL0     H63843   9.551   3.115   6.620 -3.9559 -1.7057 -0.8744
  473MOL0     H63844   9.508   2.907   6.560 -1.4388  1.3619 -0.6977
  473MOL0     H63845   9.394   2.747   6.220 -1.4699 -3.7680 -0.2851
  473MOL0     H63846   9.556   2.785   6.144 -1.2887 -0.0288  0.3357
  473MOL0     H63847   9.507   2.537   6.297  3.4404 -1.8700  0.4330
  473MOL0     H63848   9.661   2.599   6.228  1.0771  1.3897 -3.6191
  473MOL0     H63849   9.516   2.410   6.133 -2.0516 -2.9074 -2.0166
  473MOL0     H63850   9.574   2.532   6.011 -4.2059  0.7947 -3.2488
  473MOL0     H63851   9.344   2.639   6.035 -2.2041  0.8569  2.6049
  473MOL0     H63852   9.274   2.501   6.119  0.0756  3.2142  1.5768
  473MOL0     H63853   9.316   2.333   5.733  2.2439 -0.6905 -0.1738
  473MOL0     H63854   9.708   2.916   6.200  0.0820 -2.5574  2.1550
  473MOL0     H63855   9.803   3.148   6.257  1.0869 -0.4779 -0.5065
  474MOL0     O63856   3.547   7.568   7.033  0.3035  0.3447 -0.6900
  474MOL0     C63857   3.654   7.518   7.027 -0.1748 -0.4812  0.3939
  474MOL0     O63858   3.717   7.507   6.902 -0.2454  0.7072  0.4687
  474MOL0     C63859   3.637   7.534   6.789 -0.5097  0.2782  0.5788
  474MOL0     C63860   3.548   7.431   6.745 -0.1107 -0.8608 -0.4395
  474MOL0     C63861   3.463   7.468   6.644 -0.2347  1.0959  0.4979
  474MOL0     C63862   3.472   7.591   6.575 -0.0187  0.1584 -0.5807
  474MOL0     O63863   3.377   7.595   6.478  0.0334  0.1775 -0.2026
  474MOL0     C63864   3.399   7.682   6.366 -0.7996  0.4452  0.0944
  474MOL0     C63865   3.352   7.833   6.395  0.4832 -0.5253  0.0530
  474MOL0     C63866   3.204   7.854   6.429  0.3778 -0.4581  0.4352
  474MOL0     C63867   3.117   7.807   6.313  0.0130 -0.2241  1.2478
  474MOL0     C63868   2.973   7.870   6.325 -0.0587  0.3191 -0.2913
  474MOL0     C63869   2.872   7.805   6.222  0.2948 -0.5675 -0.0716
  474MOL0     C63870   2.841   7.660   6.255 -0.7164 -0.2139 -0.2833
  474MOL0     C63871   2.699   7.620   6.207  0.4215 -1.2904  0.5460
  474MOL0     N63872   2.686   7.653   6.065 -0.0048 -0.3992  0.0592
  474MOL0     C63873   2.638   7.772   6.016 -0.4088  0.0611 -0.3059
  474MOL0     C63874   2.649   7.763   5.878 -0.4825  0.3867 -0.9501
  474MOL0     C63875   2.625   7.855   5.766 -1.0640  0.4711 -0.1541
  474MOL0     C63876   2.650   8.003   5.798 -0.3368  0.6572 -0.8174
  474MOL0     C63877   2.711   8.071   5.671  0.1027  0.8287  0.3009
  474MOL0     C63878   2.670   8.209   5.678  0.6702 -0.6996  0.0582
  474MOL0     O63879   2.730   8.296   5.583  0.3060 -1.0047  0.4089
  474MOL0     C63880   2.688   8.425   5.567 -0.6576 -0.5386 -0.0589
  474MOL0     C63881   2.587   8.482   5.638  0.0298 -0.4250  0.6512
  474MOL0     C63882   2.547   8.621   5.622 -0.3304  0.1608  0.0367
  474MOL0     C63883   2.442   8.687   5.712  0.5401  0.0922 -0.9531
  474MOL0     C63884   2.614   8.699   5.522  0.0020  0.2287 -0.3011
  474MOL0     C63885   2.581   8.840   5.485 -0.2530 -0.4446  0.1586
  474MOL0     O63886   2.469   8.894   5.539 -0.2337 -0.4383 -0.3116
  474MOL0     C63887   2.451   9.036   5.529  1.1528 -0.2305  0.9184
  474MOL0     C63888   2.398   9.091   5.410 -0.3012  0.2503 -0.2505
  474MOL0     C63889   2.378   9.229   5.393 -0.5044 -0.7277 -1.1805
  474MOL0     C63890   2.393   9.314   5.503  0.3427 -0.3532  0.2640
  474MOL0     O63891   2.370   9.449   5.488 -0.8168 -1.0421  0.1702
  474MOL0     C63892   2.480   9.520   5.436  0.0129  0.6510  0.1716
  474MOL0     C63893   2.439   9.668   5.433 -0.1074  0.9398 -0.5436
  474MOL0     C63894   2.316   9.684   5.337 -0.1077 -0.2702 -0.8134
  474MOL0     C63895   2.316   9.826   5.277  0.4826 -0.2837  0.0099
  474MOL0     C63896   2.179   9.870   5.206 -0.2646  0.1873  0.5575
  474MOL0     C63897   2.148   9.783   5.079  0.2307  0.0438  0.6659
  474MOL0     C63898   2.243   9.795   4.965  0.1478  0.6296  0.4264
  474MOL0     C63899   2.166   9.795   4.823  0.3943  0.1225 -0.2886
  474MOL0    Cl63900   2.047   9.935   4.812 -0.4807  0.4102 -0.0640
  474MOL0     C63901   2.443   9.264   5.622 -0.4602 -0.2264 -0.4757
  474MOL0     C63902   2.464   9.124   5.632  0.7182  0.1874 -0.7440
  474MOL0     O63903   2.654   8.907   5.406 -0.0949  1.1478  0.2614
  474MOL0     C63904   2.726   8.642   5.459  1.2241  0.3710  0.1057
  474MOL0     C63905   2.760   8.506   5.481 -0.2123 -0.3048  0.4459
  474MOL0     N63906   2.693   7.634   5.850  0.4003  0.0060 -0.0602
  474MOL0     N63907   2.712   7.569   5.961 -0.4903 -0.7049  0.5448
  474MOL0     C63908   3.559   7.690   6.613 -0.1520  0.2978  0.0026
  474MOL0     C63909   3.644   7.661   6.723 -0.0087 -0.1884  0.2110
  474MOL0     C63910   3.734   7.476   7.149  0.2391  0.7147 -0.4919
  474MOL0     C63911   3.661   7.446   7.272 -0.1265  0.0120  0.1202
  474MOL0     C63912   3.721   7.406   7.384 -0.0017 -0.0391  0.3050
  474MOL0     C63913   3.861   7.404   7.380 -0.5608  0.3032 -0.2890
  474MOL0     O63914   3.928   7.360   7.490 -0.3072 -0.5740  0.2186
  474MOL0     C63915   4.050   7.288   7.484  0.8191  0.1777 -0.0481
  474MOL0     C63916   4.082   7.242   7.623 -0.2910  0.2120 -0.5182
  474MOL0     C63917   4.202   7.156   7.639 -0.0246 -0.2781 -1.2579
  474MOL0     C63918   4.223   7.079   7.775  0.0640 -0.4073  1.5823
  474MOL0     C63919   4.207   7.181   7.878 -0.2068  0.3109 -0.3770
  474MOL0     C63920   4.223   7.264   7.966  0.8894 -0.3374 -0.3844
  474MOL0     C63921   3.928   7.413   7.261 -1.5072  0.6722  0.7753
  474MOL0     C63922   3.869   7.454   7.139  0.4873  0.6794 -0.0579
  474MOL0     H63923   3.552   7.328   6.781 -1.7460 -1.9675 -3.1567
  474MOL0     H63924   3.389   7.396   6.610  1.0271 -0.8249  1.6326
  474MOL0     H63925   3.505   7.688   6.341 -0.5008 -0.3994  1.0510
  474MOL0     H63926   3.342   7.633   6.286  0.9670 -1.1146 -0.2833
  474MOL0     H63927   3.400   7.865   6.488  4.2744 -2.8215 -0.8883
  474MOL0     H63928   3.389   7.894   6.312  1.1069 -3.2349 -1.7880
  474MOL0     H63929   3.171   7.807   6.522 -1.4764  1.7164  0.9570
  474MOL0     H63930   3.192   7.962   6.444  1.2889 -0.6322  2.7885
  474MOL0     H63931   3.156   7.851   6.220 -1.9743  1.7215  1.2403
  474MOL0     H63932   3.115   7.699   6.297  0.9536 -0.8763  4.7014
  474MOL0     H63933   2.927   7.855   6.422  0.2526 -0.4628 -0.2611
  474MOL0     H63934   2.962   7.976   6.298 -3.5634  0.2242  0.3416
  474MOL0     H63935   2.784   7.866   6.245  0.4656 -0.7678  1.1428
  474MOL0     H63936   2.916   7.805   6.122  1.5705 -0.6441  0.4704
  474MOL0     H63937   2.914   7.598   6.202  0.8243  0.0618  1.4093
  474MOL0     H63938   2.867   7.627   6.356 -0.2544  0.5985 -0.1323
  474MOL0     H63939   2.623   7.674   6.265 -0.3339  0.6643 -2.0619
  474MOL0     H63940   2.698   7.512   6.220 -4.2008 -1.2914  2.0446
  474MOL0     H63941   2.598   7.858   6.070  1.4548  0.5596  0.3686
  474MOL0     H63942   2.692   7.833   5.683  0.7028  1.2747  1.0084
  474MOL0     H63943   2.532   7.828   5.715  0.3267 -1.3026 -1.9124
  474MOL0     H63944   2.713   8.022   5.885 -2.5944  1.5240  0.7377
  474MOL0     H63945   2.552   8.046   5.821  0.2113  0.3073  2.7172
  474MOL0     H63946   2.665   8.026   5.583  0.8871  2.3390 -0.9281
  474MOL0     H63947   2.819   8.056   5.671 -0.0481 -0.3646  0.0834
  474MOL0     H63948   2.701   8.256   5.772  0.9965 -0.6981 -0.0503
  474MOL0     H63949   2.561   8.212   5.667  0.6338  0.5849  0.5903
  474MOL0     H63950   2.527   8.436   5.715  2.0706  0.3065  2.8029
  474MOL0     H63951   2.355   8.731   5.662  1.9139  4.8846  0.3037
  474MOL0     H63952   2.416   8.616   5.790 -0.4369  1.2561 -0.1837
  474MOL0     H63953   2.481   8.780   5.755 -0.3214  0.3820 -0.7841
  474MOL0     H63954   2.374   9.031   5.324  3.1743  0.8140 -1.8094
  474MOL0     H63955   2.339   9.274   5.302  1.7107  1.4120 -1.1576
  474MOL0     H63956   2.559   9.504   5.511  0.6484  1.3921 -0.3239
  474MOL0     H63957   2.514   9.503   5.333 -2.2933  3.5054 -1.2081
  474MOL0     H63958   2.425   9.702   5.535  1.8488 -0.4118  0.2447
  474MOL0     H63959   2.524   9.721   5.388  1.4877 -0.0928  1.1197
  474MOL0     H63960   2.228   9.665   5.399  1.3065 -2.1513  0.7302
  474MOL0     H63961   2.318   9.614   5.253  3.0976 -0.5900 -0.6205
  474MOL0     H63962   2.338   9.898   5.357 -3.2734 -1.4421  2.3488
  474MOL0     H63963   2.397   9.820   5.204  0.3353  0.5039 -0.2242
  474MOL0     H63964   2.178   9.975   5.174 -2.3757  0.2189  0.5812
  474MOL0     H63965   2.100   9.856   5.280 -0.1236  2.6515  1.2663
  474MOL0     H63966   2.140   9.675   5.099 -2.7283 -0.2650 -1.5239
  474MOL0     H63967   2.043   9.798   5.051  0.2729  0.4806  0.7436
  474MOL0     H63968   2.319   9.716   4.971  0.5333  0.8492 -1.0283
  474MOL0     H63969   2.296   9.891   4.972  0.1433  0.6249  0.5180
  474MOL0     H63970   2.117   9.697   4.823 -0.1358  0.3635 -1.3791
  474MOL0     H63971   2.220   9.802   4.728 -2.7363 -2.0564 -2.4233
  474MOL0     H63972   2.456   9.326   5.709 -0.2202  1.4183 -1.6378
  474MOL0     H63973   2.483   9.080   5.729  2.2364  1.7648 -0.2708
  474MOL0     H63974   2.776   8.691   5.376 -1.8101 -0.6701 -2.5141
  474MOL0     H63975   2.835   8.459   5.420 -0.8202 -0.5874 -0.0901
  474MOL0     H63976   3.575   7.789   6.571  0.0607 -0.0093 -0.6637
  474MOL0     H63977   3.715   7.738   6.753  1.0489 -0.8091 -0.6052
  474MOL0     H63978   3.554   7.466   7.271 -0.0215  0.7730 -1.9737
  474MOL0     H63979   3.670   7.367   7.471  0.2793  0.5309  0.7381
  474MOL0     H63980   4.041   7.195   7.427  1.7366 -1.9409  2.9925
  474MOL0     H63981   4.131   7.353   7.453  2.1696 -1.1904  0.4996
  474MOL0     H63982   4.001   7.183   7.666  1.7869 -0.7752  2.3792
  474MOL0     H63983   4.089   7.336   7.677 -3.4085  1.3530 -1.8991
  474MOL0     H63984   4.287   7.223   7.622 -0.1652  0.6923  1.4467
  474MOL0     H63985   4.214   7.075   7.567  0.5003 -0.2427 -1.2128
  474MOL0     H63986   4.316   7.023   7.788 -0.2092 -1.1979  0.3083
  474MOL0     H63987   4.136   7.015   7.792 -0.9809  0.7618  0.7769
  474MOL0     H63988   4.235   7.345   8.035 -1.4490 -0.2880  0.0347
  474MOL0     H63989   4.027   7.370   7.248 -2.1149 -0.8393  0.8379
  474MOL0     H63990   3.910   7.464   7.039  0.1545  1.3715 -0.1319
  475MOL0     O63991   3.019   6.123   6.208  0.9232  0.9106 -0.2940
  475MOL0     C63992   3.026   6.139   6.326  0.0235  0.4911 -0.5188
  475MOL0     O63993   3.131   6.121   6.405  0.1312 -0.4536 -0.5505
  475MOL0     C63994   3.249   6.107   6.344  0.3094 -0.3573  0.7066
  475MOL0     C63995   3.275   6.006   6.250 -0.4996  0.4572  0.2144
  475MOL0     C63996   3.415   5.977   6.215  0.4859  0.8274 -0.9107
  475MOL0     C63997   3.523   6.056   6.259  0.0375 -1.4267  0.2727
  475MOL0     O63998   3.651   6.060   6.207 -0.3807  0.1763 -0.1399
  475MOL0     C63999   3.662   6.018   6.066 -0.9749 -0.1448 -0.4445
  475MOL0     C64000   3.769   6.107   6.008 -0.7405  0.1704  0.5939
  475MOL0     C64001   3.767   6.118   5.848  1.1605 -0.2231 -0.4467
  475MOL0     C64002   3.904   6.137   5.786 -0.6305  0.4681  0.0958
  475MOL0     C64003   3.903   6.189   5.645  0.1560 -0.0630 -0.1100
  475MOL0     C64004   4.042   6.227   5.588 -0.4709  0.2936  0.1527
  475MOL0     C64005   4.036   6.232   5.431  0.0034 -0.1314  0.2236
  475MOL0     C64006   4.180   6.245   5.382  0.2292 -0.4128 -0.2751
  475MOL0     N64007   4.204   6.212   5.239  0.5677 -0.5327 -0.3107
  475MOL0     C64008   4.148   6.287   5.135 -0.4720  0.1979 -0.4540
  475MOL0     C64009   4.196   6.223   5.021  1.1166 -0.1537  0.2843
  475MOL0     C64010   4.187   6.277   4.874 -0.5300 -0.0108  0.1652
  475MOL0     C64011   4.305   6.367   4.850 -0.6023  0.1410 -0.8268
  475MOL0     C64012   4.336   6.401   4.710 -0.0644 -0.6855  0.0939
  475MOL0     C64013   4.252   6.512   4.641  0.1697  0.1372 -0.0940
  475MOL0     O64014   4.116   6.474   4.625 -0.4776  0.2166  0.6666
  475MOL0     C64015   4.087   6.364   4.546 -0.4319 -0.1101  0.0707
  475MOL0     C64016   4.179   6.292   4.455  0.2079  0.0315 -0.0960
  475MOL0     C64017   4.139   6.189   4.367 -0.2538 -0.8811 -0.1569
  475MOL0     C64018   4.240   6.139   4.261  0.4979  0.5161 -0.5389
  475MOL0     C64019   4.002   6.138   4.383 -0.7683 -0.3027  0.6306
  475MOL0     C64020   3.954   6.024   4.324  0.9812 -0.4995  0.1186
  475MOL0     O64021   4.021   5.909   4.359  0.4556 -0.0310  0.3327
  475MOL0     C64022   3.980   5.791   4.299  0.1630 -0.0235 -0.1613
  475MOL0     C64023   4.041   5.762   4.177  0.7742  0.0465  0.2226
  475MOL0     C64024   4.010   5.647   4.102 -0.2870  0.2776 -1.5616
  475MOL0     C64025   3.910   5.563   4.147  0.3903  0.7383  0.2256
  475MOL0     O64026   3.891   5.446   4.072  0.7400  0.1630  0.0105
  475MOL0     C64027   3.764   5.390   4.049  0.2604  0.4709  0.5295
  475MOL0     C64028   3.763   5.245   4.095 -0.7021 -0.8993 -0.2805
  475MOL0     C64029   3.821   5.210   4.234  0.2965  0.2620 -0.7533
  475MOL0     C64030   3.876   5.067   4.232  0.3020 -0.0646  0.1034
  475MOL0     C64031   3.938   5.021   4.366  0.0146  0.3405  0.0310
  475MOL0     C64032   3.857   5.047   4.493 -0.0468 -0.6763  0.4053
  475MOL0     C64033   3.852   4.928   4.588 -0.0502 -0.2434 -0.4929
  475MOL0     C64034   3.777   4.943   4.721  0.7536 -0.3298  0.2825
  475MOL0    Cl64035   3.606   4.911   4.703 -0.1440 -0.1241  0.1735
  475MOL0     C64036   3.869   5.575   4.277  1.0977  0.0561  0.7271
  475MOL0     C64037   3.902   5.691   4.358 -1.0720 -0.1655 -0.1737
  475MOL0     O64038   3.853   6.029   4.259  0.2019  0.2196  0.4947
  475MOL0     C64039   3.915   6.199   4.481  0.0556  0.0141 -0.7806
  475MOL0     C64040   3.963   6.311   4.544 -0.0574 -1.0161 -0.2314
  475MOL0     N64041   4.278   6.113   5.060  0.8247 -0.2034 -0.9281
  475MOL0     N64042   4.277   6.109   5.189 -0.3600  0.6258  0.0564
  475MOL0     C64043   3.483   6.155   6.353  0.5705  0.4204  0.5592
  475MOL0     C64044   3.356   6.179   6.396  0.2362  0.4224  1.0967
  475MOL0     C64045   2.894   6.156   6.393 -0.6894  0.1368 -0.3772
  475MOL0     C64046   2.780   6.204   6.323  0.7857  0.4090 -0.5170
  475MOL0     C64047   2.659   6.233   6.377 -0.7641  0.0829 -0.3131
  475MOL0     C64048   2.649   6.210   6.519  0.0125 -0.4439  0.8340
  475MOL0     O64049   2.532   6.236   6.578  0.1492 -0.3960 -0.3863
  475MOL0     C64050   2.538   6.347   6.673 -0.0361 -0.0476 -0.1785
  475MOL0     C64051   2.398   6.368   6.719  0.1495 -0.4743  0.0932
  475MOL0     C64052   2.400   6.476   6.826 -0.4024 -0.1044 -0.1985
  475MOL0     C64053   2.289   6.467   6.925  0.2580  0.0043 -0.7125
  475MOL0     C64054   2.257   6.596   6.996  0.0523 -0.6016  0.3428
  475MOL0     C64055   2.216   6.702   7.046  0.5868  0.3280  0.3016
  475MOL0     C64056   2.757   6.153   6.589 -0.2041  0.5667  0.4670
  475MOL0     C64057   2.877   6.115   6.529 -0.0801 -0.1280  0.1370
  475MOL0     H64058   3.202   5.933   6.217 -0.9139  2.4206 -3.9108
  475MOL0     H64059   3.434   5.895   6.146  0.7017  0.4879 -0.4564
  475MOL0     H64060   3.680   5.911   6.057  1.3101 -0.1053  2.2797
  475MOL0     H64061   3.575   6.048   6.007  0.1867 -0.5378 -2.4512
  475MOL0     H64062   3.759   6.212   6.035 -2.0631  0.3713 -0.5625
  475MOL0     H64063   3.869   6.071   6.035  0.0751  2.4253  0.7734
  475MOL0     H64064   3.713   6.034   5.804 -0.7537  3.0948 -5.3152
  475MOL0     H64065   3.699   6.197   5.816 -1.0417 -1.9095 -0.1929
  475MOL0     H64066   3.953   6.217   5.841 -3.1620  1.2324  1.3732
  475MOL0     H64067   3.958   6.041   5.790 -3.7321 -1.5164 -1.2961
  475MOL0     H64068   3.849   6.113   5.588 -1.8089  0.5354  0.8415
  475MOL0     H64069   3.843   6.278   5.624 -0.3009 -1.0404 -3.5923
  475MOL0     H64070   4.064   6.316   5.647  0.5827 -1.1306  1.9976
  475MOL0     H64071   4.107   6.145   5.621 -1.9107 -0.5125  1.0859
  475MOL0     H64072   4.007   6.130   5.402  1.5564  0.1677 -2.8283
  475MOL0     H64073   3.966   6.306   5.393 -1.8044 -1.7809  0.2068
  475MOL0     H64074   4.236   6.171   5.440 -0.1573 -0.2826  0.2649
  475MOL0     H64075   4.217   6.343   5.411  0.9258 -1.3039  2.1044
  475MOL0     H64076   4.086   6.376   5.139  1.1039  1.3730 -0.8296
  475MOL0     H64077   4.206   6.192   4.808 -0.4417  1.6020 -2.0130
  475MOL0     H64078   4.097   6.338   4.863  1.4524  3.1137 -0.1221
  475MOL0     H64079   4.399   6.320   4.880  1.4948  3.2799 -1.8815
  475MOL0     H64080   4.292   6.453   4.916 -0.8419 -0.4913 -0.0425
  475MOL0     H64081   4.346   6.311   4.649  2.4355  0.6159 -1.6100
  475MOL0     H64082   4.433   6.452   4.708 -0.3969  0.4939  4.2301
  475MOL0     H64083   4.284   6.537   4.540 -1.4538 -0.4661 -0.7856
  475MOL0     H64084   4.246   6.594   4.713  0.3279 -0.5233  0.6965
  475MOL0     H64085   4.282   6.325   4.441  1.0052 -2.2270  0.0444
  475MOL0     H64086   4.327   6.102   4.317  0.0498 -1.0342 -0.8371
  475MOL0     H64087   4.193   6.066   4.196  2.5576 -1.7594  0.3701
  475MOL0     H64088   4.285   6.220   4.203  1.0528  0.1917 -0.5695
  475MOL0     H64089   4.132   5.817   4.157  0.1979 -0.1256 -3.7497
  475MOL0     H64090   4.062   5.618   4.011 -0.5222 -1.4927 -1.1671
  475MOL0     H64091   3.692   5.456   4.099  0.9973 -0.2179  2.6196
  475MOL0     H64092   3.740   5.382   3.942 -0.7388 -0.1757  0.7813
  475MOL0     H64093   3.664   5.199   4.081 -1.8461  1.2825  0.1580
  475MOL0     H64094   3.813   5.200   4.009  3.1263  1.4949  0.4553
  475MOL0     H64095   3.735   5.219   4.300 -1.1585 -0.0255 -2.5325
  475MOL0     H64096   3.900   5.280   4.264 -0.3294 -0.1719  2.2182
  475MOL0     H64097   3.814   4.991   4.184  3.3398 -3.1403  0.6356
  475MOL0     H64098   3.959   5.078   4.161 -1.0906  1.2072 -1.4037
  475MOL0     H64099   4.030   5.078   4.375 -0.7610  2.7380 -4.4213
  475MOL0     H64100   3.961   4.914   4.369 -0.5580  0.0502 -2.6981
  475MOL0     H64101   3.893   5.140   4.538 -1.0305 -0.1331  0.1026
  475MOL0     H64102   3.752   5.069   4.468 -1.0729 -1.6604  3.3475
  475MOL0     H64103   3.957   4.918   4.615 -0.3710  2.5690  2.4438
  475MOL0     H64104   3.814   4.842   4.532  1.1677  0.3652 -2.3440
  475MOL0     H64105   3.790   5.047   4.754 -1.3507  0.3178 -0.7593
  475MOL0     H64106   3.823   4.883   4.801  0.3049 -1.1918 -0.0901
  475MOL0     H64107   3.813   5.493   4.320 -0.7117 -0.4252 -2.2512
  475MOL0     H64108   3.871   5.715   4.459  2.0743  0.5029  0.7151
  475MOL0     H64109   3.812   6.165   4.474  0.0490  0.2705 -2.2393
  475MOL0     H64110   3.893   6.373   4.600 -2.3574 -2.6631 -1.1069
  475MOL0     H64111   3.570   6.215   6.376 -0.9739  4.0418 -1.9760
  475MOL0     H64112   3.344   6.252   6.476 -0.1851  0.5442  0.9203
  475MOL0     H64113   2.788   6.237   6.219 -0.1956  2.4996  0.0175
  475MOL0     H64114   2.589   6.295   6.322 -0.8120  1.3798  1.1157
  475MOL0     H64115   2.616   6.337   6.749  1.6064 -1.5653 -1.9707
  475MOL0     H64116   2.563   6.437   6.615 -3.8323  0.9832 -0.4832
  475MOL0     H64117   2.370   6.272   6.763  1.5898 -0.7675  0.4170
  475MOL0     H64118   2.342   6.394   6.629  0.9272 -2.2290 -0.9482
  475MOL0     H64119   2.403   6.575   6.780 -4.2280  0.2632  0.0452
  475MOL0     H64120   2.495   6.476   6.882 -1.6904  0.6220  2.1550
  475MOL0     H64121   2.308   6.388   6.999  2.8283  1.9352  0.8933
  475MOL0     H64122   2.207   6.436   6.860 -0.6208 -0.2802  0.5032
  475MOL0     H64123   2.191   6.800   7.080  1.6438  1.0503 -0.9210
  475MOL0     H64124   2.747   6.119   6.692  0.3553 -0.9305  0.0470
  475MOL0     H64125   2.952   6.064   6.587 -0.6599  0.4535  1.4506
  476MOL0     O64126   7.477   1.211   6.799  0.4844 -0.0412 -0.1263
  476MOL0     C64127   7.353   1.211   6.812  0.5322  0.0326  0.1825
  476MOL0     O64128   7.278   1.317   6.855 -0.1022 -0.5925 -0.4376
  476MOL0     C64129   7.357   1.423   6.905 -0.4858  0.5422 -0.2875
  476MOL0     C64130   7.437   1.402   7.022 -0.4325 -0.0669  0.6762
  476MOL0     C64131   7.495   1.516   7.080 -1.1370 -0.3596 -0.0045
  476MOL0     C64132   7.507   1.631   7.011 -0.1206  0.0719 -0.2344
  476MOL0     O64133   7.595   1.734   7.047 -0.1473  0.3359  0.7026
  476MOL0     C64134   7.537   1.825   7.140  0.1494  0.8494  0.0746
  476MOL0     C64135   7.599   1.809   7.280  1.0028 -0.5509 -0.9580
  476MOL0     C64136   7.514   1.872   7.395  0.8113  0.2873  0.5664
  476MOL0     C64137   7.598   1.944   7.509  0.5341  0.5005 -0.3151
  476MOL0     C64138   7.506   2.006   7.619  0.1241 -0.5260  0.3496
  476MOL0     C64139   7.497   1.918   7.747  0.4691  0.6370  1.0500
  476MOL0     C64140   7.391   1.973   7.844 -0.2617 -0.1562 -0.0243
  476MOL0     C64141   7.381   1.878   7.966 -0.8540 -0.6306  0.6095
  476MOL0     N64142   7.242   1.848   8.009  0.8944  0.4831  0.1270
  476MOL0     C64143   7.133   1.802   7.936 -0.7425  0.7955 -0.4322
  476MOL0     C64144   7.034   1.790   8.023 -0.4713 -0.2201  0.9508
  476MOL0     C64145   6.886   1.766   7.982 -0.3640 -0.0399  0.2356
  476MOL0     C64146   6.786   1.781   8.103  0.1848 -0.0484  0.9095
  476MOL0     C64147   6.643   1.778   8.065 -0.4998  0.5976 -0.0589
  476MOL0     C64148   6.604   1.923   8.016  0.0670  0.1916 -0.1629
  476MOL0     O64149   6.486   1.914   7.940  0.3119 -0.9981 -0.0910
  476MOL0     C64150   6.370   1.877   8.003  0.0503 -0.4779 -0.6085
  476MOL0     C64151   6.292   1.963   8.088 -1.1520  1.0029 -0.4716
  476MOL0     C64152   6.177   1.911   8.150  0.0180  0.0682 -0.2111
  476MOL0     C64153   6.103   2.008   8.240 -0.0848 -0.0323 -0.6477
  476MOL0     C64154   6.125   1.780   8.115 -0.1005 -0.5084  0.4079
  476MOL0     C64155   6.014   1.714   8.187  0.7526 -0.3792 -0.2946
  476MOL0     O64156   6.000   1.592   8.149  0.2226  0.3801 -0.3922
  476MOL0     C64157   5.941   1.512   8.243 -0.6794  0.3556 -0.3363
  476MOL0     C64158   6.023   1.445   8.338  0.8855 -0.2643  0.0757
  476MOL0     C64159   5.971   1.350   8.425 -0.3523 -0.3757 -0.5958
  476MOL0     C64160   5.829   1.326   8.422 -1.4233  0.3320 -0.3057
  476MOL0     O64161   5.773   1.249   8.515  0.3195  0.2705  0.3424
  476MOL0     C64162   5.833   1.118   8.540 -0.8992 -0.0082 -0.2490
  476MOL0     C64163   5.728   1.015   8.569  0.2032  0.6122  0.3237
  476MOL0     C64164   5.613   0.992   8.470 -0.5229  0.7297 -0.2833
  476MOL0     C64165   5.487   1.077   8.504 -0.3188 -0.1347 -1.2158
  476MOL0     C64166   5.360   1.039   8.413  0.1197  0.7598 -0.3812
  476MOL0     C64167   5.355   1.114   8.282  0.6137 -0.3957 -0.3414
  476MOL0     C64168   5.422   1.058   8.157  0.4496  0.9040 -0.6761
  476MOL0     C64169   5.380   1.112   8.025 -0.9253 -0.3260  0.0066
  476MOL0    Cl64170   5.468   1.062   7.879  0.2698  0.0448 -0.3167
  476MOL0     C64171   5.749   1.392   8.321 -0.3179 -0.7678  0.0302
  476MOL0     C64172   5.806   1.489   8.237 -1.5974 -0.8166  0.1499
  476MOL0     O64173   5.942   1.779   8.271  0.5090  0.1043  0.2357
  476MOL0     C64174   6.194   1.701   8.022  0.1281 -0.0606 -0.8087
  476MOL0     C64175   6.318   1.749   7.978 -0.5125  0.9148 -0.1887
  476MOL0     N64176   7.076   1.832   8.147 -0.3572 -0.3012 -0.1020
  476MOL0     N64177   7.202   1.871   8.136  0.4581  0.1778  0.8049
  476MOL0     C64178   7.432   1.645   6.893  0.0241 -0.6598  0.2191
  476MOL0     C64179   7.358   1.537   6.834 -0.1950 -0.2207 -0.3590
  476MOL0     C64180   7.284   1.090   6.764  0.5904  0.3419 -0.1622
  476MOL0     C64181   7.148   1.085   6.739  0.1361 -0.4776  0.1557
  476MOL0     C64182   7.083   0.968   6.699 -0.7907 -0.1419  0.0323
  476MOL0     C64183   7.153   0.854   6.656 -0.2130 -0.1131 -0.6359
  476MOL0     O64184   7.098   0.750   6.575  0.2493  0.1120  0.4245
  476MOL0     C64185   7.188   0.676   6.484 -0.2051  0.8944  0.6840
  476MOL0     C64186   7.127   0.633   6.358  0.3544  0.3548  0.0438
  476MOL0     C64187   7.092   0.757   6.269  0.4069 -0.3923  0.1521
  476MOL0     C64188   6.962   0.740   6.194  0.7104  0.3384 -0.2176
  476MOL0     C64189   6.958   0.617   6.122  0.4849  0.6633  0.5710
  476MOL0     C64190   6.972   0.511   6.063  0.2825  0.2610  1.3144
  476MOL0     C64191   7.287   0.859   6.692  0.4754  0.2118 -0.7457
  476MOL0     C64192   7.355   0.966   6.757 -1.1666  0.5218 -0.0832
  476MOL0     H64193   7.437   1.301   7.064 -0.5136 -1.7277 -2.9400
  476MOL0     H64194   7.555   1.495   7.168  0.2305  3.3130  0.0845
  476MOL0     H64195   7.559   1.931   7.124  0.5429  1.0427  1.7368
  476MOL0     H64196   7.429   1.808   7.139  0.2866 -0.2229  1.1740
  476MOL0     H64197   7.602   1.705   7.315 -2.2537 -0.3618  0.3252
  476MOL0     H64198   7.700   1.848   7.271  1.0912 -0.0819  1.3519
  476MOL0     H64199   7.431   1.927   7.350 -0.9595 -0.6030  2.5769
  476MOL0     H64200   7.452   1.792   7.437  1.2776  0.5875  1.8687
  476MOL0     H64201   7.667   1.871   7.552 -0.2087  0.7984  1.4382
  476MOL0     H64202   7.671   2.018   7.474 -0.8394  1.9842 -0.1560
  476MOL0     H64203   7.546   2.104   7.647  4.3475 -2.3575  1.3173
  476MOL0     H64204   7.407   2.012   7.572 -0.9883  1.0316  2.7038
  476MOL0     H64205   7.475   1.815   7.718  0.2113  1.3338 -1.4643
  476MOL0     H64206   7.589   1.928   7.806  0.8155 -1.4883  0.9648
  476MOL0     H64207   7.427   2.075   7.852  5.6038 -1.6805 -2.0211
  476MOL0     H64208   7.298   1.967   7.786 -1.6241  0.7549  1.9358
  476MOL0     H64209   7.443   1.912   8.049 -0.1672  0.1298 -0.1885
  476MOL0     H64210   7.432   1.782   7.947 -2.6346 -1.3870 -0.6786
  476MOL0     H64211   7.145   1.769   7.833  0.1615 -3.0551  0.7087
  476MOL0     H64212   6.873   1.840   7.903 -0.7893  3.0640  2.9713
  476MOL0     H64213   6.887   1.663   7.944 -0.0942  0.3384 -0.8061
  476MOL0     H64214   6.809   1.868   8.166  0.5597  1.6857 -1.4959
  476MOL0     H64215   6.806   1.704   8.177 -0.8277 -1.7819 -0.5547
  476MOL0     H64216   6.587   1.746   8.153  2.6657 -1.3093  1.4474
  476MOL0     H64217   6.630   1.702   7.988  0.4871  1.4445 -1.0999
  476MOL0     H64218   6.685   1.954   7.950  0.7674  0.1211  0.6407
  476MOL0     H64219   6.591   1.997   8.096 -0.2068 -1.4893  1.4359
  476MOL0     H64220   6.331   2.059   8.120 -1.1092  0.5811  0.8119
  476MOL0     H64221   6.132   2.114   8.244 -3.7519  1.0849  0.7382
  476MOL0     H64222   6.003   2.019   8.196  0.0829 -4.1956 -2.5476
  476MOL0     H64223   6.107   1.984   8.346  1.0756 -1.1001 -0.9035
  476MOL0     H64224   6.129   1.465   8.344  0.3378  2.7840  4.5850
  476MOL0     H64225   6.034   1.302   8.499 -4.0942 -0.1823  3.0676
  476MOL0     H64226   5.891   1.085   8.453  2.5312  1.0759  1.4565
  476MOL0     H64227   5.917   1.124   8.610  0.4511  0.6001 -1.8365
  476MOL0     H64228   5.776   0.917   8.579 -0.4940  0.2573  0.2146
  476MOL0     H64229   5.693   1.022   8.673  1.4794 -0.6562  0.8818
  476MOL0     H64230   5.579   0.889   8.479  1.9288 -0.2789 -1.5146
  476MOL0     H64231   5.645   1.007   8.366  2.3151 -2.0593  0.0289
  476MOL0     H64232   5.461   1.052   8.608 -0.6161 -2.6144 -1.8142
  476MOL0     H64233   5.507   1.184   8.499 -1.0690  0.2948  2.1073
  476MOL0     H64234   5.275   1.067   8.476 -0.2194 -0.1270 -0.4367
  476MOL0     H64235   5.341   0.933   8.398 -0.7425  0.6403  1.2917
  476MOL0     H64236   5.247   1.123   8.264  0.1431 -0.3634  2.1928
  476MOL0     H64237   5.391   1.215   8.306  0.0974 -0.3202  0.1253
  476MOL0     H64238   5.408   0.949   8.156  0.1521  0.9416 -0.8630
  476MOL0     H64239   5.530   1.064   8.173  0.4992 -1.0868  0.0980
  476MOL0     H64240   5.386   1.222   8.023  1.6183 -0.3979  0.3564
  476MOL0     H64241   5.276   1.082   8.007 -1.0129 -1.4190  2.0925
  476MOL0     H64242   5.644   1.365   8.323 -0.8059  0.7823 -1.6983
  476MOL0     H64243   5.747   1.541   8.163  2.5287  2.5592 -1.1854
  476MOL0     H64244   6.175   1.600   7.988  0.8342 -1.1051  1.6357
  476MOL0     H64245   6.376   1.694   7.904 -0.8502 -1.3782  1.1664
  476MOL0     H64246   7.446   1.733   6.830  4.4438  0.0869  1.8211
  476MOL0     H64247   7.301   1.552   6.743 -3.2848 -0.1643  1.4294
  476MOL0     H64248   7.089   1.175   6.753 -0.0815 -0.5120 -0.5238
  476MOL0     H64249   6.976   0.977   6.682 -0.9005 -2.6530 -1.0336
  476MOL0     H64250   7.284   0.727   6.470 -0.3194  1.2209  1.0627
  476MOL0     H64251   7.220   0.586   6.538  2.1046  0.6200 -0.9873
  476MOL0     H64252   7.034   0.580   6.376  0.1541  0.8376  0.4394
  476MOL0     H64253   7.196   0.565   6.306 -0.2742  0.2155 -0.6234
  476MOL0     H64254   7.170   0.791   6.201 -0.4096  0.9950 -0.1303
  476MOL0     H64255   7.060   0.836   6.337  1.1829  0.9862 -1.0264
  476MOL0     H64256   6.949   0.825   6.126  2.0087 -0.3353 -1.3540
  476MOL0     H64257   6.873   0.732   6.258  2.0626 -1.2810  1.6016
  476MOL0     H64258   6.994   0.420   6.011  1.2960 -1.4007  4.3964
  476MOL0     H64259   7.358   0.776   6.688  1.7753  1.2283  0.3152
  476MOL0     H64260   7.459   0.947   6.782 -1.2318 -0.6712 -0.6541
  477MOL0     O64261   9.753   9.483  10.131 -0.0234  0.2467  0.9636
  477MOL0     C64262   9.764   9.360  10.142 -1.2888 -0.1295 -0.2353
  477MOL0     O64263   9.778   9.273  10.041  0.3656 -0.2874 -0.7698
  477MOL0     C64264   9.728   9.309   9.919  0.1832 -0.6019  0.4564
  477MOL0     C64265   9.802   9.284   9.808  0.1748 -0.4497  0.6608
  477MOL0     C64266   9.751   9.289   9.684 -0.3314 -0.6017  0.6247
  477MOL0     C64267   9.620   9.341   9.669 -0.4526  0.4454  1.1655
  477MOL0     O64268   9.580   9.350   9.538  0.5816  0.6135  0.3100
  477MOL0     C64269   9.443   9.374   9.505 -0.5077 -1.1610 -0.2944
  477MOL0     C64270   9.459   9.439   9.365 -0.0717  0.5080 -0.1939
  477MOL0     C64271   9.346   9.394   9.265 -0.1503 -0.4575  0.0507
  477MOL0     C64272   9.210   9.438   9.322  0.3981 -0.7617  0.3581
  477MOL0     C64273   9.105   9.400   9.215 -0.0122 -0.0414 -0.0872
  477MOL0     C64274   8.977   9.455   9.262 -0.9224  0.4186  0.0947
  477MOL0     C64275   8.862   9.420   9.157 -0.9379 -0.1151 -0.5120
  477MOL0     C64276   8.731   9.498   9.181 -0.7927  0.0836 -0.0718
  477MOL0     N64277   8.628   9.478   9.083 -0.3541  0.3548  0.0837
  477MOL0     C64278   8.619   9.521   8.951  1.1188  0.4511  0.0166
  477MOL0     C64279   8.507   9.469   8.903 -0.2008 -0.3283 -0.0067
  477MOL0     C64280   8.461   9.477   8.754 -0.6962 -0.3335  0.2882
  477MOL0     C64281   8.480   9.338   8.681 -0.5729 -0.1944  0.2734
  477MOL0     C64282   8.381   9.237   8.734 -0.2848  0.9784  0.5053
  477MOL0     C64283   8.431   9.092   8.733 -0.6904  0.4842  0.5038
  477MOL0     O64284   8.459   9.063   8.593  0.1354  0.6387 -0.8608
  477MOL0     C64285   8.464   8.934   8.548 -0.3787  0.7012  0.7457
  477MOL0     C64286   8.451   8.824   8.641  0.3853 -0.8584  0.5455
  477MOL0     C64287   8.442   8.692   8.597 -0.0998  0.2558  0.1106
  477MOL0     C64288   8.437   8.581   8.691  0.7752 -0.1764  0.0459
  477MOL0     C64289   8.471   8.666   8.465  0.4217  0.7382  0.5366
  477MOL0     C64290   8.478   8.539   8.404  0.0854  0.3984  0.1341
  477MOL0     O64291   8.351   8.486   8.380 -0.0226 -0.2376  0.3316
  477MOL0     C64292   8.331   8.378   8.297  0.0017 -1.1926 -0.2354
  477MOL0     C64293   8.412   8.341   8.183 -0.4221  0.0450  0.3009
  477MOL0     C64294   8.375   8.229   8.108 -0.3118 -0.2703  1.0510
  477MOL0     C64295   8.250   8.166   8.120 -0.0928  0.3948 -0.5809
  477MOL0     O64296   8.206   8.066   8.033 -0.1847 -0.3855 -0.6154
  477MOL0     C64297   8.220   8.102   7.895  0.6057 -0.4606  0.0613
  477MOL0     C64298   8.123   8.020   7.803 -0.5988 -0.6933 -0.5677
  477MOL0     C64299   7.983   8.061   7.864  0.1451  0.5702  0.5002
  477MOL0     C64300   7.919   7.954   7.955  0.7725  0.1341  0.6965
  477MOL0     C64301   7.842   8.019   8.069  0.8778  0.5821 -0.7777
  477MOL0     C64302   7.702   8.073   8.013 -0.1977  0.9545 -0.2714
  477MOL0     C64303   7.612   8.106   8.147 -1.3235  0.5608 -0.2960
  477MOL0     C64304   7.466   8.088   8.108 -0.4160 -0.0095  0.4195
  477MOL0    Cl64305   7.439   7.912   8.067 -0.2649  0.0902  0.6002
  477MOL0     C64306   8.177   8.202   8.237  0.5320 -0.2371 -0.5130
  477MOL0     C64307   8.216   8.307   8.322  0.9753  0.6152  0.0749
  477MOL0     O64308   8.590   8.491   8.370  0.4751 -0.7353 -0.1391
  477MOL0     C64309   8.490   8.768   8.374 -0.6430 -0.2623  0.4883
  477MOL0     C64310   8.480   8.898   8.413 -0.3550 -0.1087  0.9408
  477MOL0     N64311   8.435   9.409   9.010 -0.2414  0.7619  0.2048
  477MOL0     N64312   8.514   9.409   9.111 -0.1986  0.6181 -0.6589
  477MOL0     C64313   9.535   9.349   9.780 -0.7264  0.4059 -0.7017
  477MOL0     C64314   9.587   9.333   9.910 -0.2480  0.4288  0.3021
  477MOL0     C64315   9.782   9.311  10.280 -0.6351  0.5950 -0.9683
  477MOL0     C64316   9.849   9.182  10.295 -0.0607  0.5522 -0.0592
  477MOL0     C64317   9.889   9.138  10.422 -0.5258  0.4015  0.0181
  477MOL0     C64318   9.844   9.209  10.533  0.4868 -0.3348  0.6273
  477MOL0     O64319   9.847   9.156  10.658 -0.2998  0.3791 -0.0008
  477MOL0     C64320   9.719   9.092  10.691 -0.0114 -0.2110 -0.1101
  477MOL0     C64321   9.732   9.051  10.841  0.2690  0.1008  0.2629
  477MOL0     C64322   9.587   8.992  10.883 -0.6536 -0.5412 -0.4210
  477MOL0     C64323   9.498   9.114  10.908 -0.1767  0.1597  0.3879
  477MOL0     C64324   9.397   9.040  10.992  0.2798  0.2474 -0.7767
  477MOL0     C64325   9.325   8.971  11.068  0.0063 -0.3894  0.8181
  477MOL0     C64326   9.790   9.338  10.529  0.4879  0.2224 -0.1234
  477MOL0     C64327   9.759   9.387  10.401  0.1072  0.2326 -0.2038
  477MOL0     H64328   9.906   9.256   9.819  0.3093  0.1573  0.9423
  477MOL0     H64329   9.813   9.256   9.601  0.4046  0.1774  0.8467
  477MOL0     H64330   9.379   9.286   9.505 -1.8905 -0.2150  1.1861
  477MOL0     H64331   9.397   9.455   9.563  0.3628 -1.0201  0.2344
  477MOL0     H64332   9.475   9.547   9.373  2.3236  0.1077  1.6793
  477MOL0     H64333   9.550   9.397   9.321  0.5857  2.4955 -0.8102
  477MOL0     H64334   9.358   9.447   9.170  0.1000  0.3252  0.5012
  477MOL0     H64335   9.341   9.285   9.256 -1.0895 -0.5214  1.1283
  477MOL0     H64336   9.183   9.401   9.421  2.2935 -1.4103  0.6718
  477MOL0     H64337   9.222   9.545   9.342 -3.0418 -0.6676  2.6598
  477MOL0     H64338   9.145   9.434   9.119 -0.7403 -0.5731 -0.5914
  477MOL0     H64339   9.095   9.291   9.219 -0.4915  0.0333  0.8009
  477MOL0     H64340   8.951   9.407   9.357  0.0613 -1.7345 -0.6752
  477MOL0     H64341   8.991   9.562   9.281 -0.1209  0.5454 -1.1651
  477MOL0     H64342   8.902   9.447   9.059 -3.1521  2.4625 -0.8426
  477MOL0     H64343   8.834   9.315   9.156 -1.9701  0.1076 -3.2184
  477MOL0     H64344   8.751   9.606   9.184  0.9689 -0.2211  3.1089
  477MOL0     H64345   8.690   9.475   9.280 -3.5705  0.8857 -0.9377
  477MOL0     H64346   8.689   9.579   8.892 -1.7921  2.8466 -1.3771
  477MOL0     H64347   8.355   9.504   8.745 -0.5526 -0.1403 -1.1481
  477MOL0     H64348   8.521   9.546   8.694 -0.2948  1.8878  3.0757
  477MOL0     H64349   8.583   9.303   8.693 -0.8737 -0.7696  1.2576
  477MOL0     H64350   8.480   9.351   8.572  1.8630 -0.3560  0.1913
  477MOL0     H64351   8.286   9.242   8.681 -1.0051 -1.1184  1.4699
  477MOL0     H64352   8.355   9.277   8.833 -0.2568 -0.7948  1.2785
  477MOL0     H64353   8.345   9.033   8.767 -0.9089 -0.5889 -1.7226
  477MOL0     H64354   8.512   9.081   8.805 -1.7134 -1.2893  1.4817
  477MOL0     H64355   8.442   8.844   8.747 -2.9581 -2.5938  0.7446
  477MOL0     H64356   8.492   8.600   8.783  1.6868  3.4476 -1.0775
  477MOL0     H64357   8.334   8.563   8.723  0.2706  1.8968 -0.2581
  477MOL0     H64358   8.488   8.491   8.656  1.2999 -0.8432  2.3671
  477MOL0     H64359   8.490   8.404   8.141 -3.4434  2.6511 -1.9116
  477MOL0     H64360   8.442   8.193   8.030 -0.1409 -1.1871  1.6057
  477MOL0     H64361   8.196   8.208   7.882  0.3244 -0.4826  0.3808
  477MOL0     H64362   8.317   8.072   7.855  0.5522 -1.4317  0.6377
  477MOL0     H64363   8.120   8.058   7.700  2.3958 -1.1211 -0.9032
  477MOL0     H64364   8.131   7.911   7.802 -0.1442 -0.6817  0.7931
  477MOL0     H64365   7.913   8.073   7.780  0.5086 -4.4109 -0.8487
  477MOL0     H64366   7.996   8.149   7.927  0.3414 -0.4297  1.8809
  477MOL0     H64367   7.859   7.880   7.901  0.2276  1.3765 -0.4670
  477MOL0     H64368   7.998   7.895   8.002  0.2828 -1.0197  0.1051
  477MOL0     H64369   7.899   8.103   8.111  0.8631  1.4004 -2.3156
  477MOL0     H64370   7.818   7.946   8.147 -2.4038  3.2345  0.9322
  477MOL0     H64371   7.712   8.151   7.937 -1.3551  0.5879 -0.8279
  477MOL0     H64372   7.648   8.003   7.949  2.7135 -1.4657 -0.2550
  477MOL0     H64373   7.625   8.208   8.183 -2.5700 -0.0236  1.9841
  477MOL0     H64374   7.646   8.044   8.231  0.3084  1.7187 -0.0485
  477MOL0     H64375   7.444   8.151   8.022  3.2093  1.9431  0.6871
  477MOL0     H64376   7.401   8.118   8.191  1.4376 -1.4918  2.5496
  477MOL0     H64377   8.083   8.152   8.262 -0.1971 -0.1333 -2.7935
  477MOL0     H64378   8.152   8.330   8.406 -1.0234  0.9627 -1.4701
  477MOL0     H64379   8.503   8.746   8.269  1.6229  0.2261  0.6188
  477MOL0     H64380   8.482   8.976   8.338 -1.3475  0.5865  1.6030
  477MOL0     H64381   9.431   9.378   9.781 -0.3694  1.7518  0.5876
  477MOL0     H64382   9.525   9.335   9.999  1.5290 -3.7294  1.9018
  477MOL0     H64383   9.867   9.118  10.209 -1.7209  2.2672 -1.7825
  477MOL0     H64384   9.920   9.036  10.442 -0.4920  0.7284  1.7792
  477MOL0     H64385   9.636   9.164  10.683 -0.5174 -0.7907 -0.1397
  477MOL0     H64386   9.697   9.000  10.636  1.9452 -0.5901 -0.3099
  477MOL0     H64387   9.771   9.136  10.899  0.2480  1.2021 -1.2752
  477MOL0     H64388   9.805   8.971  10.851  1.3026  0.7270 -1.7590
  477MOL0     H64389   9.626   8.940  10.971  1.0504  0.7967 -0.3234
  477MOL0     H64390   9.545   8.922  10.810 -1.5838  0.0665 -0.4806
  477MOL0     H64391   9.441   9.136  10.818 -1.9687 -3.7362  0.3553
  477MOL0     H64392   9.539   9.198  10.966  2.3425 -2.8199  3.3294
  477MOL0     H64393   9.243   8.941  11.130 -3.4376  3.5302 -1.2341
  477MOL0     H64394   9.766   9.396  10.617  0.7765 -0.9659  0.7672
  477MOL0     H64395   9.731   9.490  10.385  4.3193  1.3349 -1.5652
  478MOL0     O64396   0.247   0.763   5.344  0.3953  0.3052 -0.4890
  478MOL0     C64397   0.245   0.801   5.455  0.5860 -0.6459  0.6991
  478MOL0     O64398   0.189   0.732   5.547  1.5378  0.4499  1.1451
  478MOL0     C64399   0.117   0.620   5.506  0.0908  0.1540  0.4752
  478MOL0     C64400  -0.018   0.619   5.531  0.8865  0.6893  0.7627
  478MOL0     C64401  -0.095   0.510   5.507 -0.0909  0.4899 -0.0153
  478MOL0     C64402  -0.029   0.386   5.483  0.3568  0.3078 -0.6127
  478MOL0     O64403  -0.093   0.262   5.483 -0.4435 -0.2157  0.0140
  478MOL0     C64404  -0.238   0.265   5.495  0.3789 -0.9475 -0.1733
  478MOL0     C64405  -0.291   0.139   5.434  0.4996 -0.1786  0.5590
  478MOL0     C64406  -0.447   0.122   5.449 -0.4755  0.9693 -1.2542
  478MOL0     C64407  -0.489  -0.001   5.371  0.1281 -0.1507 -1.2282
  478MOL0     C64408  -0.632  -0.041   5.414  0.0961  0.4735 -0.6399
  478MOL0     C64409  -0.659  -0.177   5.347 -0.3141 -0.1828  0.3972
  478MOL0     C64410  -0.803  -0.229   5.363 -0.1377 -0.7335 -0.3112
  478MOL0     C64411  -0.824  -0.360   5.284 -0.3688  0.1535  1.1492
  478MOL0     N64412  -0.961  -0.410   5.307 -0.4760 -0.6100  0.2105
  478MOL0     C64413  -1.000  -0.501   5.405  0.0918 -0.8227  0.7351
  478MOL0     C64414  -1.135  -0.486   5.396 -0.3154 -0.0008  0.7556
  478MOL0     C64415  -1.219  -0.576   5.487 -0.0325 -0.1540 -0.0316
  478MOL0     C64416  -1.373  -0.540   5.492  0.0932  0.0172 -0.3664
  478MOL0     C64417  -1.402  -0.402   5.544 -0.4021 -0.5797  0.1453
  478MOL0     C64418  -1.542  -0.356   5.518  0.4524 -0.6362  1.3748
  478MOL0     O64419  -1.546  -0.219   5.474  0.4495 -0.0696 -0.7132
  478MOL0     C64420  -1.661  -0.200   5.399 -0.7951 -0.0578  0.6383
  478MOL0     C64421  -1.655  -0.219   5.258  0.2047 -0.3008 -0.5401
  478MOL0     C64422  -1.759  -0.190   5.169  0.8231  0.1455 -0.5707
  478MOL0     C64423  -1.733  -0.221   5.025 -0.4419  0.1293  0.3248
  478MOL0     C64424  -1.883  -0.150   5.218  0.3030 -1.1217  0.2492
  478MOL0     C64425  -2.006  -0.124   5.129  1.4127 -0.6112  0.2141
  478MOL0     O64426  -2.116  -0.067   5.192 -0.1101  0.9789  0.0669
  478MOL0     C64427  -2.222  -0.032   5.108 -0.3114  0.6493 -0.6948
  478MOL0     C64428  -2.219   0.099   5.064  0.4555  0.3822  0.0831
  478MOL0     C64429  -2.322   0.149   4.982 -0.1457 -0.3125 -0.3718
  478MOL0     C64430  -2.437   0.069   4.955 -0.4604 -0.6875 -0.2261
  478MOL0     O64431  -2.531   0.130   4.875  0.1117  0.3152  0.6856
  478MOL0     C64432  -2.653   0.069   4.851  0.0256 -0.5560 -0.3740
  478MOL0     C64433  -2.745   0.185   4.827 -0.7422  0.0431 -0.3734
  478MOL0     C64434  -2.888   0.145   4.805 -0.4844  0.2149 -0.9551
  478MOL0     C64435  -2.980   0.270   4.822 -1.0084 -0.0805 -0.0258
  478MOL0     C64436  -3.110   0.265   4.729 -0.4133 -0.1052 -0.7015
  478MOL0     C64437  -3.212   0.372   4.762  1.0261 -0.7723  0.5371
  478MOL0     C64438  -3.165   0.523   4.766 -0.2238 -0.0975  0.1974
  478MOL0     C64439  -3.268   0.626   4.810  0.1367  0.0058 -0.9671
  478MOL0    Cl64440  -3.406   0.603   4.709  0.2327 -0.2313  0.2026
  478MOL0     C64441  -2.453  -0.053   5.027  0.5367  0.2514 -0.5590
  478MOL0     C64442  -2.342  -0.102   5.100 -1.1755 -0.3083  1.3308
  478MOL0     O64443  -2.008  -0.155   5.011 -0.1426 -0.3835  0.9834
  478MOL0     C64444  -1.898  -0.145   5.366 -0.7977  0.5582  0.4648
  478MOL0     C64445  -1.786  -0.167   5.455  0.0746 -0.3374  0.0721
  478MOL0     N64446  -1.168  -0.408   5.294 -0.0730 -0.3419 -0.8057
  478MOL0     N64447  -1.061  -0.348   5.247 -0.2561  0.8700  0.5874
  478MOL0     C64448   0.112   0.381   5.469 -0.4198  0.8644 -0.6259
  478MOL0     C64449   0.190   0.498   5.480  0.7642  0.0888 -0.2817
  478MOL0     C64450   0.299   0.942   5.485 -0.0198  0.2005 -0.2224
  478MOL0     C64451   0.348   1.019   5.383  0.7239  0.4465  0.0908
  478MOL0     C64452   0.399   1.149   5.401 -0.8260  0.6669 -0.7976
  478MOL0     C64453   0.411   1.201   5.530 -0.9392  0.5219 -0.1802
  478MOL0     O64454   0.479   1.316   5.557 -0.5303 -0.5144  0.5612
  478MOL0     C64455   0.470   1.426   5.466 -0.5320  0.7906  0.5938
  478MOL0     C64456   0.559   1.545   5.502  0.2276  0.0607  0.6869
  478MOL0     C64457   0.636   1.594   5.379 -0.0269  0.2215  1.2028
  478MOL0     C64458   0.541   1.662   5.280 -0.2282 -0.5213 -0.0696
  478MOL0     C64459   0.527   1.595   5.150 -0.0096 -0.9824  0.7139
  478MOL0     C64460   0.534   1.510   5.060  1.1611 -1.2379  0.1861
  478MOL0     C64461   0.352   1.123   5.637 -0.0976 -0.3206  0.0228
  478MOL0     C64462   0.303   0.997   5.616  0.1496 -0.0605 -0.3449
  478MOL0     H64463  -0.053   0.708   5.583  5.0165  2.6304  0.5861
  478MOL0     H64464  -0.202   0.520   5.521 -0.1912 -1.8357  1.3780
  478MOL0     H64465  -0.259   0.277   5.602 -1.6676 -0.8773 -0.5518
  478MOL0     H64466  -0.270   0.354   5.440  1.4707  0.0355  0.7269
  478MOL0     H64467  -0.274   0.149   5.327 -0.3898 -1.3125  0.2887
  478MOL0     H64468  -0.234   0.052   5.470  2.1610 -1.5806 -4.5939
  478MOL0     H64469  -0.460   0.095   5.554  1.0193  1.9540 -0.7828
  478MOL0     H64470  -0.519   0.201   5.427 -1.5920 -0.1217 -1.6273
  478MOL0     H64471  -0.480   0.012   5.262 -2.3086  0.3384 -1.4492
  478MOL0     H64472  -0.426  -0.080   5.411  1.6332  1.5719 -0.0577
  478MOL0     H64473  -0.644  -0.045   5.522  3.6476 -3.5366 -0.1403
  478MOL0     H64474  -0.702   0.040   5.392  1.7120  1.3651 -2.9067
  478MOL0     H64475  -0.625  -0.179   5.243 -0.6248 -1.3131  0.3011
  478MOL0     H64476  -0.597  -0.252   5.397 -3.5968 -1.6539  2.6229
  478MOL0     H64477  -0.828  -0.234   5.469  0.9722  2.8684  0.2827
  478MOL0     H64478  -0.874  -0.156   5.322  1.3334  0.1775 -1.3739
  478MOL0     H64479  -0.754  -0.442   5.302 -1.0217 -0.9939 -1.0561
  478MOL0     H64480  -0.804  -0.345   5.177 -3.9470  3.7712  0.7270
  478MOL0     H64481  -0.933  -0.567   5.459  3.5804 -1.7747 -4.0629
  478MOL0     H64482  -1.197  -0.681   5.468 -1.1551  0.0539 -3.0777
  478MOL0     H64483  -1.185  -0.554   5.589  0.3712 -2.4783  0.3901
  478MOL0     H64484  -1.417  -0.616   5.556  0.9025  0.3255  0.5887
  478MOL0     H64485  -1.421  -0.562   5.397 -0.2757  0.9006 -0.3930
  478MOL0     H64486  -1.329  -0.326   5.513 -1.2658  1.0597  1.9257
  478MOL0     H64487  -1.394  -0.394   5.653 -2.1313 -1.1864  0.3349
  478MOL0     H64488  -1.598  -0.361   5.612 -2.1228 -1.9657 -0.1174
  478MOL0     H64489  -1.601  -0.430   5.463 -2.3520  1.3913  1.4413
  478MOL0     H64490  -1.554  -0.236   5.221  1.0084  3.2632 -0.3358
  478MOL0     H64491  -1.801  -0.302   4.997 -1.1313  0.4953  0.9129
  478MOL0     H64492  -1.752  -0.128   4.970 -1.7086  1.5606  2.9576
  478MOL0     H64493  -1.631  -0.257   5.010 -0.6335  0.2283 -1.5448
  478MOL0     H64494  -2.126   0.156   5.064  0.1336  0.9177  0.3628
  478MOL0     H64495  -2.312   0.250   4.943  1.6205 -0.8365 -1.4249
  478MOL0     H64496  -2.658   0.000   4.767  0.5757  1.9154 -2.5639
  478MOL0     H64497  -2.699   0.019   4.937 -0.0727  0.7932  0.4072
  478MOL0     H64498  -2.749   0.248   4.916 -3.2936  0.6769 -0.8530
  478MOL0     H64499  -2.708   0.231   4.735 -0.7689 -3.8585 -2.5586
  478MOL0     H64500  -2.913   0.069   4.880  1.6548  0.0754 -0.3123
  478MOL0     H64501  -2.889   0.102   4.705  4.0304 -0.5236 -0.8838
  478MOL0     H64502  -3.006   0.272   4.928  1.0511 -1.3645  0.5388
  478MOL0     H64503  -2.926   0.357   4.783  2.9027 -1.1101  2.5867
  478MOL0     H64504  -3.168   0.174   4.744  0.2833 -0.3544  0.6738
  478MOL0     H64505  -3.087   0.274   4.623 -2.4648 -0.0894 -1.1739
  478MOL0     H64506  -3.285   0.357   4.682  1.3257  1.2921 -0.1818
  478MOL0     H64507  -3.262   0.352   4.857 -2.4997 -0.9811 -1.1736
  478MOL0     H64508  -3.136   0.542   4.662  1.3661  0.0833  0.6333
  478MOL0     H64509  -3.080   0.535   4.834 -2.7509 -0.8170  3.7372
  478MOL0     H64510  -3.223   0.725   4.796  0.7265  0.0538  0.9955
  478MOL0     H64511  -3.295   0.611   4.915 -1.6588 -0.0534 -1.3934
  478MOL0     H64512  -2.544  -0.110   5.014  0.1149  0.7039  0.2936
  478MOL0     H64513  -2.347  -0.195   5.155  0.2226  0.6439  3.1945
  478MOL0     H64514  -1.996  -0.141   5.411 -0.5540 -4.2732  2.0424
  478MOL0     H64515  -1.794  -0.156   5.562  1.7217  0.1415  0.1675
  478MOL0     H64516   0.169   0.292   5.444 -0.3891  1.5294 -3.3075
  478MOL0     H64517   0.297   0.489   5.492  0.5982 -0.2784  1.0357
  478MOL0     H64518   0.333   0.984   5.282  0.9012  3.7722 -1.2390
  478MOL0     H64519   0.442   1.198   5.314  0.8636  2.4252  0.8913
  478MOL0     H64520   0.500   1.383   5.369 -2.4528  1.9118 -0.5525
  478MOL0     H64521   0.368   1.464   5.459 -0.4740  1.3520  2.4351
  478MOL0     H64522   0.621   1.508   5.585 -0.1948 -1.0975  0.5096
  478MOL0     H64523   0.495   1.620   5.550  1.3260  0.5619  1.4185
  478MOL0     H64524   0.689   1.526   5.311  0.2902  1.7327 -0.1271
  478MOL0     H64525   0.711   1.663   5.417 -1.0621  1.1589  1.5643
  478MOL0     H64526   0.566   1.767   5.265  1.0669 -0.8210 -0.1405
  478MOL0     H64527   0.444   1.667   5.331  0.1059  1.6265  0.4240
  478MOL0     H64528   0.566   1.435   4.991  0.7188  0.3973 -1.9047
  478MOL0     H64529   0.379   1.166   5.733  0.3812  4.3286 -1.8988
  478MOL0     H64530   0.276   0.937   5.702  1.7341 -2.6986 -1.5336
  479MOL0     O64531   1.169   3.453   1.174  1.1236 -0.4420 -0.7866
  479MOL0     C64532   1.076   3.504   1.110 -0.5746  0.1709  0.7414
  479MOL0     O64533   0.962   3.560   1.156 -0.8023 -1.2152 -0.1678
  479MOL0     C64534   0.919   3.527   1.286  0.0626  0.2424  0.5306
  479MOL0     C64535   0.897   3.398   1.319  0.4009 -0.0781 -0.4717
  479MOL0     C64536   0.835   3.359   1.439  0.1758 -0.4463  0.1710
  479MOL0     C64537   0.787   3.462   1.520 -0.3294 -0.5926 -0.2935
  479MOL0     O64538   0.707   3.433   1.640 -0.6901  1.1810  0.7810
  479MOL0     C64539   0.655   3.542   1.723 -0.7638  0.0351 -0.1278
  479MOL0     C64540   0.541   3.608   1.649  0.0707  0.3182 -0.5668
  479MOL0     C64541   0.507   3.745   1.704  0.3341  0.4735 -0.1942
  479MOL0     C64542   0.397   3.821   1.625 -0.2533  1.0344  0.2148
  479MOL0     C64543   0.368   3.963   1.678 -1.3695  0.7353 -0.3898
  479MOL0     C64544   0.282   3.953   1.802 -0.2855  0.1263 -0.8274
  479MOL0     C64545   0.275   4.083   1.880  0.8707  0.2762  0.7516
  479MOL0     C64546   0.206   4.088   2.013 -0.0661  0.1503 -0.4656
  479MOL0     N64547   0.067   4.072   1.996 -0.0682 -0.1225  0.2284
  479MOL0     C64548  -0.024   4.158   1.948  0.2608 -0.7416 -0.4165
  479MOL0     C64549  -0.150   4.105   1.955  0.2451 -0.9344  0.6182
  479MOL0     C64550  -0.288   4.150   1.904  1.0355 -0.2252  0.3913
  479MOL0     C64551  -0.378   4.032   1.868 -0.1778  0.7282  0.0083
  479MOL0     C64552  -0.532   4.073   1.837  0.0896 -0.1908  0.1788
  479MOL0     C64553  -0.589   4.176   1.941 -0.5094 -0.6729  0.4732
  479MOL0     O64554  -0.585   4.321   1.918  0.0799  0.1852 -0.4436
  479MOL0     C64555  -0.608   4.412   2.021  0.1285 -0.7055  0.6439
  479MOL0     C64556  -0.725   4.395   2.098  0.1546 -0.5082 -0.3275
  479MOL0     C64557  -0.740   4.471   2.214  1.0036 -0.6857 -0.1075
  479MOL0     C64558  -0.845   4.421   2.310  0.7951  0.1407 -0.7095
  479MOL0     C64559  -0.644   4.569   2.253  0.5544 -0.5997  0.8733
  479MOL0     C64560  -0.655   4.668   2.368  0.1022 -0.4410  0.7416
  479MOL0     O64561  -0.773   4.653   2.435 -0.1906 -0.2130  0.7640
  479MOL0     C64562  -0.819   4.753   2.509  0.1640 -0.3539 -0.8300
  479MOL0     C64563  -0.813   4.746   2.651 -0.0857 -0.6931 -1.1537
  479MOL0     C64564  -0.872   4.844   2.731 -0.6411  0.3553 -0.0033
  479MOL0     C64565  -0.939   4.957   2.671 -0.4227  0.1312  0.0036
  479MOL0     O64566  -0.983   5.057   2.741 -0.0147 -0.0446 -0.5656
  479MOL0     C64567  -1.128   5.071   2.742  0.4052 -0.0793  0.2393
  479MOL0     C64568  -1.142   5.217   2.803  0.9295  0.5275  0.1483
  479MOL0     C64569  -1.289   5.237   2.854 -0.4247  0.3476  0.0472
  479MOL0     C64570  -1.296   5.374   2.931  0.7588  0.8910  0.5618
  479MOL0     C64571  -1.421   5.392   3.009 -0.0776 -0.2540 -0.1277
  479MOL0     C64572  -1.432   5.534   3.074 -0.4580 -0.8539 -0.2631
  479MOL0     C64573  -1.316   5.565   3.171  0.0984 -0.4314 -0.3494
  479MOL0     C64574  -1.344   5.691   3.260 -0.4677  0.1821  0.6210
  479MOL0    Cl64575  -1.450   5.651   3.392 -0.0776 -0.4385 -0.1839
  479MOL0     C64576  -0.920   4.971   2.539  0.4452  0.8688  0.2412
  479MOL0     C64577  -0.867   4.867   2.457  0.5771 -0.6168 -1.2947
  479MOL0     O64578  -0.589   4.772   2.376  0.8408 -0.0275 -0.0071
  479MOL0     C64579  -0.530   4.578   2.179 -0.4593 -0.6529  0.0892
  479MOL0     C64580  -0.519   4.504   2.064 -0.1477  0.8761  0.3756
  479MOL0     N64581  -0.118   3.981   2.005 -0.4564  0.0177 -0.1632
  479MOL0     N64582   0.005   3.955   2.018  0.7217 -0.0891  0.0165
  479MOL0     C64583   0.817   3.602   1.491 -0.8554 -0.3972  0.1959
  479MOL0     C64584   0.873   3.634   1.367  0.4308  0.6488 -0.0231
  479MOL0     C64585   1.100   3.514   0.956 -0.1463 -0.3613 -1.2409
  479MOL0     C64586   1.225   3.501   0.909  0.3566 -0.5909 -0.4808
  479MOL0     C64587   1.243   3.474   0.777 -0.1456  0.1153  0.1948
  479MOL0     C64588   1.142   3.482   0.678 -1.1923  0.5462  0.2124
  479MOL0     O64589   1.174   3.447   0.551 -0.0703  0.3490  0.5911
  479MOL0     C64590   1.059   3.432   0.458 -1.0403 -0.3454 -0.0016
  479MOL0     C64591   1.015   3.282   0.454 -0.0328  0.1228 -0.8659
  479MOL0     C64592   0.897   3.264   0.353 -0.5890 -0.6451  0.0605
  479MOL0     C64593   0.850   3.116   0.350  0.0527 -0.1695 -0.0867
  479MOL0     C64594   0.761   3.100   0.232  0.1196  0.0091  0.2540
  479MOL0     C64595   0.695   3.072   0.132 -0.6205 -0.0330 -0.3335
  479MOL0     C64596   1.007   3.511   0.725 -0.4514 -0.2578 -0.1325
  479MOL0     C64597   0.987   3.532   0.868  0.4610  0.8730  0.6648
  479MOL0     H64598   0.937   3.326   1.249  0.0605  1.1332 -1.9707
  479MOL0     H64599   0.830   3.251   1.446  0.4633 -0.5666 -1.1919
  479MOL0     H64600   0.611   3.504   1.816 -1.0598  0.7932  0.0492
  479MOL0     H64601   0.735   3.611   1.752 -0.3342 -0.2713 -0.5811
  479MOL0     H64602   0.563   3.623   1.543 -0.1277  4.4345 -0.1809
  479MOL0     H64603   0.461   3.535   1.658 -1.0980  1.7533  1.9572
  479MOL0     H64604   0.466   3.715   1.800 -0.3301 -0.4045 -0.7362
  479MOL0     H64605   0.599   3.804   1.710 -0.6838  2.0310  0.7627
  479MOL0     H64606   0.420   3.814   1.518  0.7073 -1.2494  0.5185
  479MOL0     H64607   0.306   3.761   1.630  0.5338 -0.3866 -1.3773
  479MOL0     H64608   0.460   4.016   1.704  0.5462 -1.0432 -2.9542
  479MOL0     H64609   0.326   4.023   1.597  0.2257 -2.7827 -4.1990
  479MOL0     H64610   0.180   3.920   1.781 -1.9144  2.8234  1.9663
  479MOL0     H64611   0.332   3.881   1.868 -2.0412 -0.9555 -0.5944
  479MOL0     H64612   0.381   4.105   1.893  0.8901 -0.0280  1.1307
  479MOL0     H64613   0.237   4.161   1.813 -0.3151 -0.2134  0.8287
  479MOL0     H64614   0.224   4.180   2.070 -2.3568  1.1982 -1.3086
  479MOL0     H64615   0.255   4.019   2.082  0.3712 -0.5953 -1.5000
  479MOL0     H64616   0.004   4.257   1.913 -0.7512 -0.7101 -1.1785
  479MOL0     H64617  -0.330   4.212   1.984  2.2293 -2.4071  2.8744
  479MOL0     H64618  -0.273   4.207   1.811  2.5448  3.3059  2.5823
  479MOL0     H64619  -0.378   3.955   1.946  0.0234  1.2610  0.5363
  479MOL0     H64620  -0.337   3.983   1.780  0.9209  1.0933  0.3117
  479MOL0     H64621  -0.592   3.983   1.831 -1.4509  0.8610 -0.9695
  479MOL0     H64622  -0.529   4.120   1.738  0.4832  0.1165  0.3312
  479MOL0     H64623  -0.551   4.144   2.039  0.2236 -0.4498  0.2699
  479MOL0     H64624  -0.697   4.164   1.939 -0.6614  0.3845 -2.6455
  479MOL0     H64625  -0.790   4.313   2.069  0.7399 -0.4126 -2.0253
  479MOL0     H64626  -0.883   4.326   2.271 -0.7784  0.6467 -0.4684
  479MOL0     H64627  -0.796   4.402   2.405  2.3513  0.3373 -1.4452
  479MOL0     H64628  -0.924   4.495   2.324  1.7897  1.0486  0.2324
  479MOL0     H64629  -0.777   4.663   2.710 -1.2752 -0.5751 -0.2194
  479MOL0     H64630  -0.865   4.851   2.839 -2.5419  3.8914  0.0586
  479MOL0     H64631  -1.181   5.074   2.646  1.0191 -1.1187 -0.1552
  479MOL0     H64632  -1.159   4.984   2.801 -2.7825  0.3939 -0.5227
  479MOL0     H64633  -1.067   5.237   2.881  0.2200  1.1798  0.6786
  479MOL0     H64634  -1.134   5.294   2.726  3.7588  2.3738  2.0896
  479MOL0     H64635  -1.313   5.153   2.920  0.7164  2.1564  2.9654
  479MOL0     H64636  -1.357   5.230   2.768  0.1548 -0.6921 -0.3519
  479MOL0     H64637  -1.217   5.364   3.005  1.3501 -1.1501 -0.2900
  479MOL0     H64638  -1.284   5.451   2.855  2.0353 -2.3400 -2.7848
  479MOL0     H64639  -1.411   5.316   3.087  0.5260  2.2170  2.3530
  479MOL0     H64640  -1.509   5.376   2.946 -0.5375  0.8109  0.2302
  479MOL0     H64641  -1.424   5.612   2.998  0.2884 -1.5617 -0.9368
  479MOL0     H64642  -1.528   5.543   3.126 -0.3479  0.7925 -0.3001
  479MOL0     H64643  -1.228   5.583   3.108 -0.6305 -0.5491 -1.4193
  479MOL0     H64644  -1.304   5.490   3.250  0.2168  1.6432  1.6945
  479MOL0     H64645  -1.397   5.771   3.208  0.3748  0.1993 -0.2389
  479MOL0     H64646  -1.250   5.726   3.304  1.3027 -2.0536 -1.0819
  479MOL0     H64647  -0.966   5.054   2.487  2.1844  0.3219 -2.3568
  479MOL0     H64648  -0.865   4.875   2.348 -1.1975  1.7296 -1.2341
  479MOL0     H64649  -0.462   4.660   2.201 -0.6819 -0.6353  0.7267
  479MOL0     H64650  -0.428   4.513   2.006  0.3577  1.1016  1.1889
  479MOL0     H64651   0.789   3.681   1.559 -1.1630  1.4208 -1.9109
  479MOL0     H64652   0.877   3.739   1.340 -0.2582  0.6668 -0.0706
  479MOL0     H64653   1.305   3.497   0.981  1.6757 -1.2077 -1.9077
  479MOL0     H64654   1.345   3.442   0.762 -0.1715  0.5993 -1.1522
  479MOL0     H64655   0.976   3.500   0.477  0.2648  0.8735  1.7062
  479MOL0     H64656   1.098   3.459   0.359  1.0075 -2.5313  0.1127
  479MOL0     H64657   0.984   3.263   0.557  3.7112  1.7856  0.7447
  479MOL0     H64658   1.098   3.213   0.440 -1.4704 -2.5055  2.3381
  479MOL0     H64659   0.927   3.300   0.255 -0.0241  0.1881  0.5267
  479MOL0     H64660   0.823   3.336   0.388  1.5627  2.9349 -2.1818
  479MOL0     H64661   0.801   3.089   0.444  1.8090 -1.3758  0.5335
  479MOL0     H64662   0.936   3.048   0.358 -0.6903 -0.9128  4.8774
  479MOL0     H64663   0.627   3.053   0.051  0.2542  0.1496 -1.1316
  479MOL0     H64664   0.919   3.476   0.672 -1.2546 -0.5471  1.3300
  479MOL0     H64665   0.890   3.546   0.912 -0.1882  2.5986 -1.1682
  480MOL0     O64666  11.125   5.655   9.954  0.1017  0.4828  0.4495
  480MOL0     C64667  11.156   5.536   9.954  0.7331 -0.0070  0.6092
  480MOL0     O64668  11.217   5.473  10.047  0.4922 -0.2815  0.5631
  480MOL0     C64669  11.229   5.524  10.166 -0.4626  0.3843 -0.6270
  480MOL0     C64670  11.335   5.613  10.179  0.1766 -0.7665  0.4786
  480MOL0     C64671  11.345   5.700  10.287  0.8007 -0.2960 -0.3614
  480MOL0     C64672  11.259   5.687  10.400 -0.0483 -0.2465 -0.0011
  480MOL0     O64673  11.270   5.773  10.510 -0.7300  0.2354 -0.1928
  480MOL0     C64674  11.193   5.735  10.623 -0.9115 -0.4772  0.8016
  480MOL0     C64675  11.245   5.802  10.751  0.5936  0.1893 -0.1284
  480MOL0     C64676  11.387   5.763  10.788  0.5669  1.3708 -0.2115
  480MOL0     C64677  11.438   5.855  10.908  0.4813 -0.4137  0.0049
  480MOL0     C64678  11.376   5.812  11.037  0.4396  0.9809 -0.0418
  480MOL0     C64679  11.413   5.897  11.155  0.3214 -0.1819  0.1539
  480MOL0     C64680  11.374   5.853  11.297  0.5771 -0.1061  0.1192
  480MOL0     C64681  11.397   5.965  11.399  0.6967 -0.7067 -0.0960
  480MOL0     N64682  11.417   5.917  11.535 -0.0419  0.7087 -0.8014
  480MOL0     C64683  11.317   5.905  11.633 -0.0040  0.0499  0.6048
  480MOL0     C64684  11.371   5.831  11.728 -0.2323 -0.6028 -0.3024
  480MOL0     C64685  11.277   5.781  11.838  0.3059  0.3191 -0.0813
  480MOL0     C64686  11.306   5.861  11.965 -0.8400 -0.3316 -0.6638
  480MOL0     C64687  11.239   5.795  12.087  0.7541  0.7826 -0.2778
  480MOL0     C64688  11.288   5.849  12.224 -0.1516  0.4350 -0.4573
  480MOL0     O64689  11.214   5.778  12.326 -0.3168  0.3348  0.0621
  480MOL0     C64690  11.269   5.786  12.460 -0.2199 -0.8237  0.2558
  480MOL0     C64691  11.244   5.678  12.537 -0.4777 -0.0510  0.4261
  480MOL0     C64692  11.300   5.663  12.660  0.1305  0.4867 -0.3702
  480MOL0     C64693  11.291   5.535  12.725 -0.5799  0.7324 -0.3963
  480MOL0     C64694  11.356   5.778  12.730 -0.5003 -0.1978 -0.0823
  480MOL0     C64695  11.417   5.766  12.870 -0.7748  0.4480  0.9117
  480MOL0     O64696  11.505   5.861  12.888  0.6217 -0.3401 -1.3655
  480MOL0     C64697  11.563   5.867  13.012 -0.1370  0.1271  0.4250
  480MOL0     C64698  11.651   5.768  13.046 -0.8090 -0.1732 -0.8534
  480MOL0     C64699  11.714   5.794  13.171  0.3397  0.2472 -0.3989
  480MOL0     C64700  11.702   5.913  13.246  0.1884 -0.6663 -0.0667
  480MOL0     O64701  11.776   5.931  13.359 -0.4534  0.5303  0.8794
  480MOL0     C64702  11.690   5.932  13.478  0.1273  0.3268 -0.8237
  480MOL0     C64703  11.780   5.946  13.603 -0.1018 -0.2181  0.3443
  480MOL0     C64704  11.799   5.811  13.664  1.3860 -0.3260  0.5349
  480MOL0     C64705  11.680   5.762  13.750 -0.5547 -0.3165  0.2311
  480MOL0     C64706  11.697   5.604  13.781  1.0322 -1.1195  0.3551
  480MOL0     C64707  11.613   5.565  13.904  0.1022 -0.4627  0.4265
  480MOL0     C64708  11.623   5.413  13.950  1.1047 -0.2363  0.2560
  480MOL0     C64709  11.543   5.391  14.071 -0.2629 -0.0652 -0.6868
  480MOL0    Cl64710  11.614   5.262  14.181 -0.4586  0.4141  0.3606
  480MOL0     C64711  11.615   6.012  13.206  0.6370  0.2180  0.8106
  480MOL0     C64712  11.550   5.983  13.082  0.3352  0.1243 -0.4888
  480MOL0     O64713  11.386   5.681  12.952 -0.0800  0.2834  0.3698
  480MOL0     C64714  11.364   5.907  12.652 -0.6884 -0.0243  0.0383
  480MOL0     C64715  11.331   5.901  12.519  0.9138  0.5086  0.0138
  480MOL0     N64716  11.512   5.832  11.702  0.2327  1.0065  0.4578
  480MOL0     N64717  11.534   5.870  11.586  0.1957 -0.0771  0.7084
  480MOL0     C64718  11.153   5.592  10.381  0.9012  0.0323 -0.7917
  480MOL0     C64719  11.145   5.505  10.277 -0.1290 -1.1828 -0.7325
  480MOL0     C64720  11.141   5.465   9.830  0.3993 -0.8947 -0.8121
  480MOL0     C64721  11.067   5.510   9.724  0.1624 -0.0183  0.9630
  480MOL0     C64722  11.074   5.445   9.599  0.1899  0.3856  0.6494
  480MOL0     C64723  11.151   5.334   9.574 -1.4975  0.3018 -0.1776
  480MOL0     O64724  11.116   5.266   9.456 -0.1015  0.2387  0.2985
  480MOL0     C64725  11.215   5.170   9.405 -0.2544  0.8489 -0.2065
  480MOL0     C64726  11.160   5.082   9.288 -0.1491  0.1613  0.0934
  480MOL0     C64727  11.256   4.998   9.215 -0.4551 -0.0620 -0.5489
  480MOL0     C64728  11.316   4.890   9.305 -0.9298  0.2144  0.0332
  480MOL0     C64729  11.427   4.806   9.259  0.8480 -0.2520  0.3448
  480MOL0     C64730  11.509   4.711   9.233  0.1028  0.1207  0.1746
  480MOL0     C64731  11.236   5.292   9.680  0.2222  0.0548 -0.9869
  480MOL0     C64732  11.211   5.350   9.810  0.0872 -0.1028  0.3661
  480MOL0     H64733  11.403   5.620  10.095  2.6229  0.7892  2.4143
  480MOL0     H64734  11.422   5.775  10.281  1.4944 -0.9990 -0.4225
  480MOL0     H64735  11.097   5.783  10.600  2.1238  4.4629 -3.9712
  480MOL0     H64736  11.187   5.628  10.646  3.3193 -1.3481 -1.2224
  480MOL0     H64737  11.236   5.910  10.741 -0.2054  0.2389  1.0025
  480MOL0     H64738  11.177   5.771  10.830 -0.3113  2.2796 -0.0285
  480MOL0     H64739  11.402   5.657  10.808 -3.1160  0.2269 -2.4396
  480MOL0     H64740  11.451   5.789  10.703 -0.4296  1.6050 -0.9101
  480MOL0     H64741  11.547   5.863  10.907  0.3917  1.5892 -1.3221
  480MOL0     H64742  11.404   5.958  10.891 -0.7071 -0.6057  1.0634
  480MOL0     H64743  11.267   5.815  11.030  0.5052  0.5372 -1.8151
  480MOL0     H64744  11.405   5.708  11.055 -0.6749  0.2323 -2.1726
  480MOL0     H64745  11.522   5.894  11.143  0.4465  2.1730  0.2692
  480MOL0     H64746  11.382   6.000  11.136 -2.7202 -1.3934 -2.2996
  480MOL0     H64747  11.264   5.848  11.302  0.3308  1.9525 -1.7683
  480MOL0     H64748  11.419   5.757  11.325 -2.6094 -1.2924  1.7301
  480MOL0     H64749  11.310   6.030  11.402  0.1871 -1.4013  1.2889
  480MOL0     H64750  11.486   6.019  11.364 -1.5955  1.4988 -3.0241
  480MOL0     H64751  11.211   5.924  11.619  0.3099  1.2406 -0.2745
  480MOL0     H64752  11.173   5.799  11.811 -0.0237  0.8121  1.4200
  480MOL0     H64753  11.283   5.673  11.855 -1.6382  0.3299  0.9518
  480MOL0     H64754  11.270   5.965  11.963  0.0473 -0.0050 -0.0481
  480MOL0     H64755  11.413   5.850  11.982 -1.2864 -0.8067  2.4451
  480MOL0     H64756  11.246   5.686  12.089 -4.5102  0.2053  0.2656
  480MOL0     H64757  11.131   5.811  12.078  0.4496 -0.8128  0.2289
  480MOL0     H64758  11.264   5.955  12.216  1.4609  1.0554  1.7303
  480MOL0     H64759  11.397   5.847  12.231 -0.2048 -1.4141  0.5309
  480MOL0     H64760  11.189   5.600  12.484 -0.3602 -0.6290  1.1427
  480MOL0     H64761  11.256   5.448  12.668 -0.3973 -1.3987  2.5042
  480MOL0     H64762  11.391   5.504  12.756 -0.7343  1.2032  0.6043
  480MOL0     H64763  11.242   5.540  12.823 -0.2133 -2.8902  0.1238
  480MOL0     H64764  11.673   5.673  12.999 -3.1249 -1.2131 -0.0022
  480MOL0     H64765  11.791   5.721  13.196 -0.7639 -0.9955 -0.4951
  480MOL0     H64766  11.616   6.013  13.473 -0.8315 -0.2123  2.4052
  480MOL0     H64767  11.638   5.836  13.481 -0.2242  0.5310  2.2900
  480MOL0     H64768  11.883   5.974  13.579  0.2075  1.4673  3.1081
  480MOL0     H64769  11.758   6.019  13.682  0.8061 -3.5204  3.9601
  480MOL0     H64770  11.887   5.815  13.728  1.5959 -0.3560  0.2450
  480MOL0     H64771  11.819   5.736  13.588 -0.6314  2.4428 -3.0516
  480MOL0     H64772  11.672   5.824  13.840 -0.4160  0.7346 -0.4601
  480MOL0     H64773  11.589   5.771  13.690  0.2799 -1.7868 -1.3444
  480MOL0     H64774  11.804   5.590  13.798  2.0043  2.4398 -1.7376
  480MOL0     H64775  11.667   5.545  13.695  1.7915 -1.5222  0.3591
  480MOL0     H64776  11.660   5.606  13.993  0.8483 -1.0853  0.3312
  480MOL0     H64777  11.507   5.594  13.898  0.1277  0.2080  2.4764
  480MOL0     H64778  11.730   5.395  13.947  1.2207  0.0544 -4.3800
  480MOL0     H64779  11.575   5.353  13.871  0.2411  2.8869 -1.8054
  480MOL0     H64780  11.437   5.369  14.054 -1.8418  3.3093  3.2672
  480MOL0     H64781  11.553   5.479  14.135 -2.4264 -1.7477  2.2253
  480MOL0     H64782  11.584   6.092  13.272 -2.8458 -0.5685  0.3141
  480MOL0     H64783  11.475   6.058  13.059  1.2112  1.8941  2.0291
  480MOL0     H64784  11.426   5.982  12.699  1.9542 -2.9079  1.5499
  480MOL0     H64785  11.344   5.994  12.465 -1.4101  0.4367 -0.8015
  480MOL0     H64786  11.086   5.578  10.465 -0.6202  1.8277 -1.6464
  480MOL0     H64787  11.071   5.426  10.272  0.5713 -1.7867 -3.6868
  480MOL0     H64788  11.007   5.601   9.727 -2.8538 -1.7892 -0.8850
  480MOL0     H64789  11.005   5.467   9.517 -0.4042  0.1818  1.0866
  480MOL0     H64790  11.307   5.222   9.378 -1.9686  3.3829 -1.5330
  480MOL0     H64791  11.234   5.102   9.489  3.7404  3.4068  1.2213
  480MOL0     H64792  11.122   5.138   9.202  2.7075 -1.7052 -2.5881
  480MOL0     H64793  11.079   5.021   9.330  0.5076 -1.4469 -0.9133
  480MOL0     H64794  11.339   5.062   9.182  0.1593  0.0101  1.0153
  480MOL0     H64795  11.208   4.946   9.132  0.5287 -1.3043 -0.3690
  480MOL0     H64796  11.234   4.844   9.362  0.0923 -1.4713  0.1973
  480MOL0     H64797  11.357   4.954   9.384  1.1380 -1.0262  0.0225
  480MOL0     H64798  11.578   4.631   9.214 -2.3930 -2.0079 -0.5104
  480MOL0     H64799  11.309   5.212   9.683 -1.2792 -1.3787  1.8497
  480MOL0     H64800  11.269   5.319   9.896  2.0333  4.2685  0.8745
  481MOL0     O64801  10.913   5.707   7.137  0.2403 -0.3829 -0.1353
  481MOL0     C64802  10.803   5.764   7.134  0.4633  0.7707  0.2174
  481MOL0     O64803  10.719   5.773   7.032 -0.0102  0.2777 -0.4217
  481MOL0     C64804  10.757   5.713   6.916  0.4339  0.1361 -0.2900
  481MOL0     C64805  10.806   5.792   6.815  0.5263  0.7467  0.2783
  481MOL0     C64806  10.853   5.735   6.692  0.5675  0.5501  0.6617
  481MOL0     C64807  10.844   5.597   6.667 -0.3660  0.1375 -0.2557
  481MOL0     O64808  10.884   5.545   6.541  0.5002  1.1879 -0.3098
  481MOL0     C64809  10.884   5.401   6.527 -0.6453 -0.4460  0.3036
  481MOL0     C64810  10.954   5.371   6.398 -1.2023  0.4179 -0.1085
  481MOL0     C64811  10.993   5.224   6.382  0.8569  0.0038  0.5952
  481MOL0     C64812  10.869   5.157   6.323  0.9422  0.8809  0.5062
  481MOL0     C64813  10.892   5.018   6.267  0.2757  0.5911  0.7587
  481MOL0     C64814  10.964   5.024   6.135  1.2358 -1.2067  0.3111
  481MOL0     C64815  10.993   4.897   6.056  0.7218  0.0547  0.1975
  481MOL0     C64816  11.117   4.903   5.967  0.1333 -0.3709  0.0504
  481MOL0     N64817  11.241   4.896   6.049  0.1639 -0.5618  0.4879
  481MOL0     C64818  11.273   4.797   6.142  0.9510  0.6932 -0.4335
  481MOL0     C64819  11.389   4.837   6.199  0.4182 -0.4936  0.0377
  481MOL0     C64820  11.453   4.770   6.313  0.1197 -0.4384 -0.5738
  481MOL0     C64821  11.386   4.799   6.449  0.2863 -0.7076  0.8853
  481MOL0     C64822  11.442   4.724   6.572 -0.5390  0.3208  0.9256
  481MOL0     C64823  11.575   4.794   6.617  0.9162 -0.4576  0.1360
  481MOL0     O64824  11.618   4.709   6.724 -0.0529  0.4305  0.9371
  481MOL0     C64825  11.726   4.765   6.799 -0.0379 -0.4219 -0.2444
  481MOL0     C64826  11.785   4.679   6.892  0.7992 -0.4644  0.0317
  481MOL0     C64827  11.887   4.717   6.979  0.2209  0.9101  0.0995
  481MOL0     C64828  11.913   4.621   7.093 -0.3382 -0.0850  0.7246
  481MOL0     C64829  11.937   4.849   6.967  0.0803 -0.1327 -0.0585
  481MOL0     C64830  12.041   4.904   7.053 -0.6109  0.2903  0.0749
  481MOL0     O64831  12.093   5.021   7.013  0.1412  0.2369  0.4272
  481MOL0     C64832  12.189   5.092   7.085  0.6915 -0.6116 -0.3907
  481MOL0     C64833  12.193   5.110   7.226  0.3459 -0.2250  0.7719
  481MOL0     C64834  12.270   5.197   7.299 -0.3109  0.1825  0.4091
  481MOL0     C64835  12.353   5.287   7.221  0.2640 -0.9548 -0.9451
  481MOL0     O64836  12.436   5.386   7.276  0.6575  0.7253  0.6895
  481MOL0     C64837  12.408   5.432   7.408 -0.7789 -0.2207  0.3754
  481MOL0     C64838  12.444   5.576   7.435  0.4163  0.8529 -0.2552
  481MOL0     C64839  12.595   5.609   7.420 -0.0521  0.0843  1.1062
  481MOL0     C64840  12.679   5.580   7.537  0.5187  0.0651  0.2893
  481MOL0     C64841  12.824   5.616   7.487  0.7216  0.0533 -1.0404
  481MOL0     C64842  12.866   5.756   7.531 -0.2050 -0.4797 -0.0693
  481MOL0     C64843  12.865   5.797   7.681  0.6919  0.1792  0.1076
  481MOL0     C64844  12.907   5.943   7.694  0.2957  0.2987  0.3566
  481MOL0    Cl64845  12.896   6.003   7.863 -0.0376 -0.1670 -0.2113
  481MOL0     C64846  12.340   5.286   7.080 -0.0981  0.7642 -0.6639
  481MOL0     C64847  12.264   5.187   7.019  0.6610 -0.5959 -0.0356
  481MOL0     O64848  12.064   4.857   7.158  0.1603 -0.0054 -0.6447
  481MOL0     C64849  11.889   4.929   6.864 -0.8795  0.2398 -0.1360
  481MOL0     C64850  11.780   4.896   6.789 -0.2327  0.3442 -0.2976
  481MOL0     N64851  11.424   4.956   6.131 -0.0284 -0.3740 -0.8473
  481MOL0     N64852  11.333   4.999   6.055 -0.5491 -0.9863 -0.0238
  481MOL0     C64853  10.781   5.522   6.772  0.2816  0.9191  0.4208
  481MOL0     C64854  10.746   5.575   6.895  0.2888  0.0239 -0.0127
  481MOL0     C64855  10.768   5.843   7.255 -0.2227 -0.3453  0.5295
  481MOL0     C64856  10.661   5.935   7.262 -0.9330 -0.1127  0.1144
  481MOL0     C64857  10.628   6.017   7.379 -0.0407 -0.1956  0.2419
  481MOL0     C64858  10.714   6.008   7.493  0.1717 -0.9011 -0.4037
  481MOL0     O64859  10.687   6.081   7.606  0.1585  0.3227  0.0457
  481MOL0     C64860  10.551   6.111   7.640 -0.9070 -0.7217  0.2142
  481MOL0     C64861  10.519   6.146   7.790  0.8397 -0.1500  0.1690
  481MOL0     C64862  10.603   6.256   7.844 -0.3263 -0.2778  0.3360
  481MOL0     C64863  10.583   6.278   7.997  0.3679 -0.3093  0.1537
  481MOL0     C64864  10.612   6.160   8.083 -0.3452  0.8130 -0.3055
  481MOL0     C64865  10.630   6.055   8.150 -0.7109 -0.3449  0.2700
  481MOL0     C64866  10.817   5.916   7.482 -0.5462  0.0600 -0.7864
  481MOL0     C64867  10.844   5.840   7.364 -0.5270 -0.4266 -0.4635
  481MOL0     H64868  10.806   5.900   6.831  2.9281  0.7418  0.6019
  481MOL0     H64869  10.884   5.802   6.612  3.2627 -0.8231  0.4399
  481MOL0     H64870  10.942   5.355   6.608 -1.1137 -1.2339  0.2003
  481MOL0     H64871  10.780   5.370   6.521 -1.8947  2.3441  3.8978
  481MOL0     H64872  10.898   5.408   6.312 -1.8631 -0.7415 -0.1937
  481MOL0     H64873  11.045   5.432   6.396 -0.2176 -0.9123  1.4246
  481MOL0     H64874  11.082   5.214   6.320 -1.1942  0.0878 -2.5834
  481MOL0     H64875  11.014   5.164   6.472  2.3289 -1.1126 -0.4374
  481MOL0     H64876  10.793   5.150   6.401 -0.4047  1.4040 -0.7118
  481MOL0     H64877  10.827   5.220   6.244 -2.1405 -1.8651 -0.2529
  481MOL0     H64878  10.952   4.963   6.340  0.2844 -1.1312 -0.4883
  481MOL0     H64879  10.791   4.979   6.250  0.2645  0.3247  1.4098
  481MOL0     H64880  10.911   5.082   6.060 -0.9254 -2.3246  0.8782
  481MOL0     H64881  11.059   5.078   6.136  0.2661  0.5649 -0.5779
  481MOL0     H64882  11.003   4.813   6.125 -2.6215  0.8174  1.8587
  481MOL0     H64883  10.904   4.889   5.992  2.2147  1.9108 -2.3007
  481MOL0     H64884  11.114   4.993   5.906 -1.5818 -0.3707  0.0731
  481MOL0     H64885  11.115   4.831   5.885 -0.0410  2.2239 -2.3535
  481MOL0     H64886  11.213   4.708   6.156  1.1797  0.0962 -2.7017
  481MOL0     H64887  11.448   4.668   6.273  0.5043 -0.4478 -0.5974
  481MOL0     H64888  11.559   4.794   6.325 -0.0923  0.2367  0.0016
  481MOL0     H64889  11.279   4.777   6.443 -0.6571  2.9703  1.4407
  481MOL0     H64890  11.399   4.904   6.475 -2.3692 -0.0605 -0.0954
  481MOL0     H64891  11.467   4.621   6.543 -1.4060  0.3851 -0.1401
  481MOL0     H64892  11.368   4.718   6.652 -1.6244 -5.0668 -0.0587
  481MOL0     H64893  11.556   4.895   6.655  2.3672  0.1526 -0.6676
  481MOL0     H64894  11.650   4.800   6.538  0.4830 -0.4286 -0.2734
  481MOL0     H64895  11.730   4.585   6.901 -0.0537  0.1317  1.2752
  481MOL0     H64896  11.911   4.514   7.069  0.4917 -0.0790  0.5779
  481MOL0     H64897  12.019   4.622   7.123  0.0101  1.4682 -0.4322
  481MOL0     H64898  11.851   4.636   7.182 -1.9372  1.7259 -0.6337
  481MOL0     H64899  12.129   5.054   7.294  2.0512 -1.0151  1.7853
  481MOL0     H64900  12.284   5.191   7.406 -0.8659  0.1064  0.4795
  481MOL0     H64901  12.300   5.430   7.429 -0.9643 -1.8282 -0.5816
  481MOL0     H64902  12.463   5.364   7.473 -0.2594 -2.1218 -1.9288
  481MOL0     H64903  12.388   5.651   7.378  0.1828  0.8915  0.0241
  481MOL0     H64904  12.420   5.591   7.541 -1.9029  0.7740 -0.7136
  481MOL0     H64905  12.600   5.715   7.396 -0.1276 -0.3605 -1.0404
  481MOL0     H64906  12.627   5.544   7.338  2.6921 -1.5519  3.2937
  481MOL0     H64907  12.646   5.652   7.613  0.8346  0.4501  0.0660
  481MOL0     H64908  12.661   5.475   7.562  0.3407 -0.9999 -3.7373
  481MOL0     H64909  12.842   5.603   7.380 -1.3452 -1.5357 -1.2587
  481MOL0     H64910  12.899   5.556   7.540 -1.5981 -0.0552  2.4674
  481MOL0     H64911  12.970   5.776   7.508  0.8703 -0.9629  3.6786
  481MOL0     H64912  12.804   5.830   7.480 -0.4611 -0.8131 -0.2513
  481MOL0     H64913  12.934   5.735   7.739 -0.1330  0.7610  1.7892
  481MOL0     H64914  12.762   5.793   7.718  1.2431  0.4596  1.7574
  481MOL0     H64915  12.843   6.006   7.631 -2.3237  0.2408  2.7225
  481MOL0     H64916  13.010   5.949   7.659  0.3566 -1.4307  0.1894
  481MOL0     H64917  12.402   5.358   7.028  3.0941 -0.6686  0.8686
  481MOL0     H64918  12.273   5.181   6.911  0.1967  0.2706 -0.1339
  481MOL0     H64919  11.939   5.024   6.843  1.0687 -0.7760 -0.3172
  481MOL0     H64920  11.747   4.962   6.709 -1.0214  0.8661  0.4441
  481MOL0     H64921  10.766   5.416   6.753  1.1711  0.6343  1.2512
  481MOL0     H64922  10.709   5.514   6.977 -0.9820  1.2979  0.3954
  481MOL0     H64923  10.596   5.939   7.175 -2.6730 -0.2778  1.3523
  481MOL0     H64924  10.538   6.076   7.388  0.1956  0.0683  0.9304
  481MOL0     H64925  10.542   6.194   7.569 -0.8236 -3.2602 -3.0179
  481MOL0     H64926  10.489   6.026   7.610  0.3312 -1.2227 -1.0238
  481MOL0     H64927  10.528   6.057   7.852 -0.0844 -0.4605 -0.1400
  481MOL0     H64928  10.414   6.177   7.790  1.1932  1.1798 -0.9342
  481MOL0     H64929  10.596   6.354   7.796 -0.0720  0.1337  1.1308
  481MOL0     H64930  10.710   6.236   7.831 -0.1348 -0.7362  2.3007
  481MOL0     H64931  10.478   6.293   8.020 -0.3431 -1.2302 -2.1578
  481MOL0     H64932  10.638   6.358   8.047 -1.0065 -0.4587  1.9717
  481MOL0     H64933  10.656   5.970   8.209 -0.1267 -3.2623 -3.7928
  481MOL0     H64934  10.891   5.911   7.561  0.0942 -2.8155 -1.4720
  481MOL0     H64935  10.927   5.769   7.368 -2.4157 -2.7922  3.5244
  482MOL0     O64936   4.906   8.975   8.966 -0.0129 -0.4540  0.0870
  482MOL0     C64937   4.820   9.053   9.004  0.4087  0.6110  0.0129
  482MOL0     O64938   4.707   9.019   9.083 -0.1620 -0.5221 -0.0373
  482MOL0     C64939   4.672   8.885   9.107 -0.1797 -1.3016  0.0881
  482MOL0     C64940   4.766   8.796   9.158 -0.7487 -0.0339  0.0123
  482MOL0     C64941   4.735   8.668   9.185 -1.0043  1.1609  0.4626
  482MOL0     C64942   4.605   8.618   9.172  1.0362 -1.2263  0.3326
  482MOL0     O64943   4.586   8.489   9.209  1.3095  0.8769 -0.3128
  482MOL0     C64944   4.459   8.424   9.190  0.0866 -0.1751 -0.9455
  482MOL0     C64945   4.349   8.483   9.288 -0.4957 -0.1495  0.0803
  482MOL0     C64946   4.313   8.388   9.412  0.2229 -0.0080  0.0567
  482MOL0     C64947   4.258   8.251   9.369  0.0487  0.0626 -0.7280
  482MOL0     C64948   4.131   8.210   9.453  0.4283 -0.5446  0.0987
  482MOL0     C64949   4.106   8.067   9.476 -0.0037 -0.0472  0.2087
  482MOL0     C64950   4.086   7.983   9.338 -0.3359  0.2867 -0.1997
  482MOL0     C64951   4.048   7.837   9.357 -1.0882  0.3596  0.9344
  482MOL0     N64952   4.060   7.775   9.226 -0.3705  1.4423  0.8872
  482MOL0     C64953   3.981   7.790   9.119 -0.2889 -0.2689 -0.5428
  482MOL0     C64954   4.040   7.721   9.021  0.9977 -0.4227 -0.7183
  482MOL0     C64955   4.002   7.732   8.878 -0.2065  0.8827  0.7195
  482MOL0     C64956   4.020   7.597   8.806  0.4736  0.3013 -0.2326
  482MOL0     C64957   3.954   7.471   8.871 -0.4918  0.3260 -0.6134
  482MOL0     C64958   3.989   7.338   8.803  0.6704 -0.5820 -0.0683
  482MOL0     O64959   3.958   7.238   8.896  0.3234 -0.6357  0.0490
  482MOL0     C64960   3.830   7.183   8.872  0.3108 -0.7609  0.7546
  482MOL0     C64961   3.808   7.059   8.932  0.7249 -0.4555 -0.2338
  482MOL0     C64962   3.698   6.975   8.913 -1.3340 -0.1090 -0.7731
  482MOL0     C64963   3.695   6.844   8.983 -1.0203  0.2800 -0.6184
  482MOL0     C64964   3.608   7.013   8.811  1.2988 -0.4494 -0.6837
  482MOL0     C64965   3.497   6.922   8.760 -0.1140 -0.6743 -0.6734
  482MOL0     O64966   3.439   6.842   8.862  0.1359 -0.2451 -0.2368
  482MOL0     C64967   3.336   6.769   8.810  0.7100  0.2395  0.4233
  482MOL0     C64968   3.349   6.628   8.797  0.8585 -0.0209  0.2334
  482MOL0     C64969   3.247   6.554   8.734 -0.3357  0.7788  1.4963
  482MOL0     C64970   3.126   6.624   8.694  0.7175 -1.1162  1.0525
  482MOL0     O64971   3.012   6.555   8.658 -0.1150  0.4545 -0.2887
  482MOL0     C64972   2.988   6.434   8.729  0.8916  0.2623 -0.5705
  482MOL0     C64973   2.936   6.328   8.638  0.1835 -0.1366  1.1124
  482MOL0     C64974   2.822   6.363   8.533  0.2707 -1.2768  0.1883
  482MOL0     C64975   2.794   6.244   8.449 -0.8258 -0.4010 -0.5188
  482MOL0     C64976   2.680   6.278   8.350  0.6653 -0.1592 -0.5335
  482MOL0     C64977   2.624   6.158   8.263  0.0211  0.3152  0.4570
  482MOL0     C64978   2.535   6.203   8.144  1.0367 -0.8452 -0.3485
  482MOL0     C64979   2.465   6.083   8.080 -0.3140  0.3353 -0.4055
  482MOL0    Cl64980   2.601   5.976   8.051 -0.2682 -0.1758  0.3244
  482MOL0     C64981   3.117   6.762   8.715 -0.2324 -0.1652  0.8945
  482MOL0     C64982   3.223   6.837   8.762  0.0711 -0.5984  0.0053
  482MOL0     O64983   3.466   6.928   8.643  0.6388  0.0585  0.1555
  482MOL0     C64984   3.632   7.134   8.740  0.4355  0.6261  0.0528
  482MOL0     C64985   3.734   7.214   8.771 -0.8361  0.2524  0.1973
  482MOL0     N64986   4.140   7.649   9.079  0.7228  0.6040  0.5257
  482MOL0     N64987   4.157   7.683   9.198  0.7011 -0.1894  0.6972
  482MOL0     C64988   4.510   8.714   9.129  1.0692  0.0979 -0.2959
  482MOL0     C64989   4.537   8.845   9.097  0.0680  0.0864  0.0825
  482MOL0     C64990   4.826   9.193   8.973  1.1344 -0.7674  0.6630
  482MOL0     C64991   4.733   9.285   9.023 -0.7417 -0.2481  0.0759
  482MOL0     C64992   4.754   9.418   8.988  0.6740 -1.4150 -0.5306
  482MOL0     C64993   4.863   9.465   8.913 -0.0140 -0.5487 -0.0715
  482MOL0     O64994   4.849   9.599   8.884  0.9252  0.2800  0.0254
  482MOL0     C64995   4.935   9.661   8.789 -0.2534  0.3664 -0.6576
  482MOL0     C64996   4.888   9.632   8.645 -0.6759  0.5269 -1.0173
  482MOL0     C64997   5.010   9.663   8.548 -0.2347  0.4780  0.1883
  482MOL0     C64998   4.953   9.634   8.404  0.3373 -0.0254 -0.8502
  482MOL0     C64999   5.045   9.698   8.310  0.0415 -0.3714  0.5454
  482MOL0     C65000   5.130   9.754   8.247 -0.9726  0.7796  0.3963
  482MOL0     C65001   4.945   9.375   8.855  0.0172 -0.5631  0.0766
  482MOL0     C65002   4.930   9.238   8.889  0.6071 -0.4934  0.6786
  482MOL0     H65003   4.869   8.826   9.173 -0.5487 -2.0311  4.0144
  482MOL0     H65004   4.815   8.606   9.224  0.5419  2.1236 -1.0014
  482MOL0     H65005   4.442   8.428   9.082 -0.2832 -0.8323 -0.9192
  482MOL0     H65006   4.466   8.318   9.217 -0.9778  0.0550  0.3329
  482MOL0     H65007   4.386   8.580   9.324  1.6737 -0.0230 -2.1860
  482MOL0     H65008   4.256   8.498   9.234 -0.7937 -1.3457  0.2413
  482MOL0     H65009   4.401   8.378   9.477  1.1066  1.7173 -0.8096
  482MOL0     H65010   4.236   8.441   9.469 -0.2260 -0.8977  0.2910
  482MOL0     H65011   4.238   8.245   9.262 -0.8671  1.7432 -0.6872
  482MOL0     H65012   4.332   8.176   9.399 -2.5154 -1.0956  3.5231
  482MOL0     H65013   4.137   8.253   9.554  1.2229 -1.8957  0.6516
  482MOL0     H65014   4.045   8.250   9.399 -0.0735 -2.6032 -0.7237
  482MOL0     H65015   4.194   8.027   9.529  0.3988 -3.3009 -2.5580
  482MOL0     H65016   4.024   8.040   9.543 -0.4593  1.5324  0.3199
  482MOL0     H65017   4.011   8.035   9.277 -0.7470  0.5465  0.5151
  482MOL0     H65018   4.182   7.986   9.286  0.0068 -0.1535  0.3942
  482MOL0     H65019   3.949   7.835   9.404 -0.6967 -0.8890  1.7577
  482MOL0     H65020   4.108   7.774   9.422  0.8398 -0.6335 -1.6097
  482MOL0     H65021   3.890   7.848   9.111  1.0198  1.7909 -1.6200
  482MOL0     H65022   3.897   7.762   8.887  0.4912  3.4997  0.9339
  482MOL0     H65023   4.062   7.811   8.832 -0.7406  1.7601  1.5002
  482MOL0     H65024   4.127   7.576   8.799 -0.1292 -3.9434  0.3039
  482MOL0     H65025   3.981   7.605   8.704 -0.2391 -1.0158 -0.0894
  482MOL0     H65026   3.850   7.491   8.897 -0.1046 -0.0148  1.3318
  482MOL0     H65027   3.995   7.481   8.972 -0.8946 -0.9518 -0.3043
  482MOL0     H65028   4.097   7.346   8.786  0.6686  0.7163  0.4081
  482MOL0     H65029   3.949   7.335   8.701  1.1200  3.2365 -0.5088
  482MOL0     H65030   3.881   7.021   9.002  2.1361 -1.6075 -2.2469
  482MOL0     H65031   3.654   6.841   9.084  1.3632  1.4942  0.4790
  482MOL0     H65032   3.645   6.774   8.916 -0.4731 -0.6399 -0.1009
  482MOL0     H65033   3.800   6.812   8.990 -0.6165  1.8035  1.0290
  482MOL0     H65034   3.425   6.577   8.854  0.5805 -1.7707 -0.8682
  482MOL0     H65035   3.261   6.446   8.730 -1.6914  0.5352  2.7659
  482MOL0     H65036   3.076   6.391   8.779  2.2745  1.6860 -1.6735
  482MOL0     H65037   2.910   6.444   8.805 -0.2807  0.8771 -1.8232
  482MOL0     H65038   3.020   6.286   8.583 -0.8156 -1.3221  0.4403
  482MOL0     H65039   2.894   6.248   8.700 -0.3183 -0.5878  0.2166
  482MOL0     H65040   2.851   6.451   8.476  1.1587 -1.8515 -0.2702
  482MOL0     H65041   2.728   6.390   8.582  0.4365 -1.1841  0.4600
  482MOL0     H65042   2.879   6.200   8.395 -0.6050 -0.3130 -0.2455
  482MOL0     H65043   2.760   6.159   8.509 -1.3354 -0.1156 -0.3980
  482MOL0     H65044   2.730   6.346   8.281  0.3226 -1.3803 -2.0303
  482MOL0     H65045   2.596   6.336   8.390  2.6907  2.1431  0.6861
  482MOL0     H65046   2.714   6.112   8.219 -0.0161 -1.1935  1.8501
  482MOL0     H65047   2.567   6.080   8.315 -0.0363  1.3537  1.9999
  482MOL0     H65048   2.603   6.242   8.068  2.3651  0.5512  1.4330
  482MOL0     H65049   2.463   6.283   8.165 -0.9532 -1.9548 -2.5382
  482MOL0     H65050   2.408   6.094   7.988  1.7785 -1.8440 -2.1034
  482MOL0     H65051   2.398   6.030   8.148  0.1420 -3.3937 -2.5800
  482MOL0     H65052   3.030   6.819   8.682  0.9547  2.0451  1.3989
  482MOL0     H65053   3.234   6.945   8.764 -1.1127 -0.4737  0.6957
  482MOL0     H65054   3.572   7.163   8.655  0.5161  0.3684 -0.0939
  482MOL0     H65055   3.749   7.302   8.709 -0.0748  1.2731  1.7717
  482MOL0     H65056   4.407   8.681   9.114  1.1120 -0.4567  0.5975
  482MOL0     H65057   4.461   8.918   9.075 -0.2093  0.5722  2.3771
  482MOL0     H65058   4.661   9.257   9.100 -0.1246 -0.4821  0.5796
  482MOL0     H65059   4.680   9.490   9.021  3.6568  2.3854 -1.4922
  482MOL0     H65060   4.931   9.765   8.823 -0.0555  0.0206  0.4732
  482MOL0     H65061   5.037   9.624   8.803 -0.0915  1.1014  0.1562
  482MOL0     H65062   4.802   9.695   8.620  0.1494  2.1863  0.0669
  482MOL0     H65063   4.860   9.527   8.638  0.1469  0.2189  0.0239
  482MOL0     H65064   5.108   9.620   8.568  1.2821  3.5040 -0.2312
  482MOL0     H65065   5.036   9.769   8.549 -0.3512  0.5073  0.2336
  482MOL0     H65066   4.851   9.673   8.396 -1.8310 -4.0425  2.6593
  482MOL0     H65067   4.934   9.527   8.390 -3.6823  0.4811 -0.4240
  482MOL0     H65068   5.208   9.800   8.190 -0.3941  1.7370  1.8823
  482MOL0     H65069   5.025   9.418   8.795 -1.8100  0.9161 -1.3982
  482MOL0     H65070   4.999   9.167   8.844  0.3870 -1.1173  1.3039
  483MOL0     O65071   7.657   1.304   9.644 -0.3114  0.8161 -0.5340
  483MOL0     C65072   7.566   1.309   9.728  0.8285  0.5484 -0.6028
  483MOL0     O65073   7.510   1.424   9.781  0.7167  0.3215 -0.1231
  483MOL0     C65074   7.518   1.536   9.705  0.1982 -0.8885  0.1522
  483MOL0     C65075   7.634   1.618   9.691  0.2177  0.8354 -0.2948
  483MOL0     C65076   7.632   1.724   9.601  0.3547 -1.3345 -0.0979
  483MOL0     C65077   7.517   1.748   9.523  0.5936 -0.3382 -1.0563
  483MOL0     O65078   7.520   1.858   9.442 -0.8902 -0.0504  0.4932
  483MOL0     C65079   7.442   1.847   9.330 -0.2532  0.9657  0.7961
  483MOL0     C65080   7.471   1.984   9.260  0.1240 -0.3780  0.1500
  483MOL0     C65081   7.605   1.983   9.187  0.9608  0.1017  0.8146
  483MOL0     C65082   7.626   2.084   9.071  0.4764 -0.3393 -0.5785
  483MOL0     C65083   7.754   2.165   9.095  0.1984  0.7420  0.9267
  483MOL0     C65084   7.736   2.297   9.028  0.5492 -0.8134 -0.2648
  483MOL0     C65085   7.852   2.393   9.053 -0.1137  1.2433  0.0332
  483MOL0     C65086   7.989   2.339   9.018  0.5003 -0.5227  0.0221
  483MOL0     N65087   8.022   2.325   8.873 -0.5787 -0.1119 -0.5461
  483MOL0     C65088   8.064   2.418   8.790 -0.1634  0.2025 -0.1068
  483MOL0     C65089   8.068   2.367   8.664  0.3884  0.2305 -0.6557
  483MOL0     C65090   8.122   2.444   8.544  0.0850 -0.4061 -0.1764
  483MOL0     C65091   8.015   2.495   8.454 -0.9203  0.1065  0.4609
  483MOL0     C65092   8.074   2.571   8.331 -0.2568 -0.8945 -0.1838
  483MOL0     C65093   8.106   2.716   8.369  1.0491  0.6256 -0.2876
  483MOL0     O65094   7.982   2.778   8.400 -0.1586 -0.3365  0.0241
  483MOL0     C65095   7.990   2.876   8.482  0.9415 -1.0031 -0.6357
  483MOL0     C65096   7.895   2.890   8.582  0.4013 -0.3131  0.0204
  483MOL0     C65097   7.873   3.005   8.658 -0.1876  1.4362 -0.1070
  483MOL0     C65098   7.772   2.990   8.773  1.5506  0.6518 -0.6714
  483MOL0     C65099   7.970   3.105   8.654  0.0990  0.6396 -0.5283
  483MOL0     C65100   7.973   3.220   8.744 -0.8105  0.4823  0.7090
  483MOL0     O65101   8.081   3.307   8.725 -1.6245 -0.3449 -0.6702
  483MOL0     C65102   8.055   3.439   8.765 -1.2064  0.4541 -0.1029
  483MOL0     C65103   7.992   3.534   8.681  0.6493  0.4810 -0.3419
  483MOL0     C65104   7.939   3.652   8.738 -1.0364  0.4910  0.5007
  483MOL0     C65105   7.956   3.674   8.879 -0.4862  0.4278  0.8145
  483MOL0     O65106   7.902   3.784   8.931  0.0015  0.0910 -0.1794
  483MOL0     C65107   7.820   3.764   9.054  0.0512  0.2128 -0.2248
  483MOL0     C65108   7.689   3.702   9.020  0.4195 -0.3592 -0.1001
  483MOL0     C65109   7.597   3.799   8.939 -0.5806 -0.5766  0.9735
  483MOL0     C65110   7.463   3.723   8.900 -0.2737 -0.6251 -0.2753
  483MOL0     C65111   7.331   3.773   8.971 -0.0777 -0.4533  0.1507
  483MOL0     C65112   7.213   3.690   8.922 -0.2999 -0.0721  1.0229
  483MOL0     C65113   7.182   3.710   8.765 -0.6615  0.3133 -0.2506
  483MOL0     C65114   7.044   3.682   8.722  0.9780 -0.2055 -0.3717
  483MOL0    Cl65115   6.931   3.791   8.801 -0.0138 -0.4184  0.3727
  483MOL0     C65116   8.016   3.585   8.958  0.0151 -0.4908 -0.1402
  483MOL0     C65117   8.066   3.473   8.905 -0.3924  0.2879  0.9460
  483MOL0     O65118   7.870   3.242   8.821 -0.4564 -0.1386 -0.9765
  483MOL0     C65119   8.085   3.084   8.569 -0.1637  0.3876  0.6003
  483MOL0     C65120   8.088   2.981   8.484  0.7476 -0.0292  0.0191
  483MOL0     N65121   8.028   2.236   8.668 -0.6554 -0.3257  0.4676
  483MOL0     N65122   8.004   2.213   8.793  0.4328 -0.4920  0.1470
  483MOL0     C65123   7.397   1.671   9.541  1.0631  0.7219 -0.7453
  483MOL0     C65124   7.403   1.576   9.642  0.3895 -0.3590 -0.1844
  483MOL0     C65125   7.544   1.195   9.818 -0.5771  0.2024 -0.4308
  483MOL0     C65126   7.643   1.094   9.828 -0.1895 -0.2742  1.0622
  483MOL0     C65127   7.627   0.990   9.921  0.1003 -0.0127  0.3106
  483MOL0     C65128   7.513   0.990  10.000  0.4545 -0.2568  0.8761
  483MOL0     O65129   7.516   0.902  10.105  0.6705 -0.6217 -0.6143
  483MOL0     C65130   7.490   0.954  10.236  0.1147 -0.4804  0.1489
  483MOL0     C65131   7.492   0.846  10.330  0.4138  0.1177 -0.8790
  483MOL0     C65132   7.616   0.760  10.347 -0.2403  0.5304  0.0836
  483MOL0     C65133   7.657   0.700  10.490  0.7204  0.0497  0.1658
  483MOL0     C65134   7.784   0.626  10.498  0.5601 -0.3062 -0.6742
  483MOL0     C65135   7.891   0.576  10.504  0.3656 -1.2104 -0.1907
  483MOL0     C65136   7.416   1.087   9.989  0.5681  1.4056  0.2537
  483MOL0     C65137   7.434   1.191   9.903  1.1848 -1.0243 -0.6002
  483MOL0     H65138   7.729   1.591   9.736  0.9479 -0.0912 -2.2511
  483MOL0     H65139   7.720   1.783   9.578 -0.1943 -1.5911 -3.1576
  483MOL0     H65140   7.477   1.766   9.265 -2.8695  1.9427 -2.0176
  483MOL0     H65141   7.334   1.844   9.344 -0.1468  1.5949  1.8606
  483MOL0     H65142   7.389   2.013   9.193  2.1140  2.3812 -1.2485
  483MOL0     H65143   7.468   2.054   9.343 -2.7255 -0.1410 -0.0350
  483MOL0     H65144   7.683   1.992   9.263 -0.1100  0.6488  1.8698
  483MOL0     H65145   7.624   1.885   9.143 -1.2312  0.0208 -0.0688
  483MOL0     H65146   7.642   2.042   8.971  2.0867  0.8462 -0.8721
  483MOL0     H65147   7.552   2.164   9.068  2.5657  1.8136  0.8293
  483MOL0     H65148   7.757   2.200   9.198 -0.4970 -1.6352  1.8373
  483MOL0     H65149   7.840   2.101   9.071 -1.6957 -1.0912 -1.5962
  483MOL0     H65150   7.717   2.273   8.923 -3.6365  1.3911 -0.2289
  483MOL0     H65151   7.643   2.347   9.056  2.1596  1.0680  2.1535
  483MOL0     H65152   7.837   2.486   8.997 -0.9639  0.1976 -1.5634
  483MOL0     H65153   7.864   2.412   9.160  1.4638  2.2135 -0.2770
  483MOL0     H65154   8.016   2.243   9.061 -1.4524 -0.1011  2.4025
  483MOL0     H65155   8.057   2.415   9.057  0.2918 -1.9644  3.5177
  483MOL0     H65156   8.091   2.521   8.813  0.0538 -0.4669  3.0488
  483MOL0     H65157   8.196   2.515   8.583  0.7785 -1.7668  1.1200
  483MOL0     H65158   8.193   2.381   8.490  2.9393  0.9896  1.7191
  483MOL0     H65159   7.950   2.560   8.514 -1.6543 -1.3701  1.2995
  483MOL0     H65160   7.944   2.421   8.417  0.2154  0.1308 -2.0232
  483MOL0     H65161   7.992   2.570   8.258 -0.3189 -1.1983 -0.1130
  483MOL0     H65162   8.166   2.531   8.289  0.5677 -2.3438  2.7177
  483MOL0     H65163   8.153   2.758   8.279  0.4806  3.7229  0.7138
  483MOL0     H65164   8.176   2.723   8.452  2.4226 -0.1976 -1.3413
  483MOL0     H65165   7.840   2.799   8.604  0.4028 -0.5584 -0.9661
  483MOL0     H65166   7.704   3.075   8.791 -0.4982 -0.6879 -1.6473
  483MOL0     H65167   7.706   2.907   8.746  0.8792  0.5303  1.2315
  483MOL0     H65168   7.802   2.952   8.870 -0.7283  1.1454  0.3045
  483MOL0     H65169   7.985   3.520   8.574 -0.0198 -1.6945 -0.0609
  483MOL0     H65170   7.899   3.725   8.668 -0.5885 -2.3037 -2.9228
  483MOL0     H65171   7.873   3.716   9.137 -0.0457  1.0401  0.3215
  483MOL0     H65172   7.804   3.858   9.107 -0.5073  0.5678 -1.0097
  483MOL0     H65173   7.699   3.605   8.971 -0.3923 -0.4789 -0.0393
  483MOL0     H65174   7.651   3.695   9.122  0.0194 -0.9324 -0.2813
  483MOL0     H65175   7.643   3.823   8.843  0.3467 -1.2159  1.2456
  483MOL0     H65176   7.584   3.893   8.993 -5.4427  0.6373 -1.7160
  483MOL0     H65177   7.451   3.741   8.792 -0.1441  0.6739 -0.0975
  483MOL0     H65178   7.473   3.616   8.916  2.4716 -0.2594  0.9155
  483MOL0     H65179   7.319   3.880   8.952  0.1341 -0.0307  2.1921
  483MOL0     H65180   7.339   3.755   9.078  1.8909  2.8713  0.6760
  483MOL0     H65181   7.237   3.586   8.942  0.8362 -0.2810 -1.1481
  483MOL0     H65182   7.128   3.726   8.981  0.3310  3.9911 -0.2061
  483MOL0     H65183   7.248   3.643   8.709  1.4148  2.0669 -0.0302
  483MOL0     H65184   7.200   3.815   8.742  2.9131 -0.1422 -0.0802
  483MOL0     H65185   7.015   3.578   8.743 -1.2447  0.8186  2.2935
  483MOL0     H65186   7.034   3.705   8.615  2.4352 -0.5161 -0.5931
  483MOL0     H65187   8.027   3.601   9.064 -3.9354 -5.4699  1.4090
  483MOL0     H65188   8.134   3.416   8.967  1.3543  1.3338  0.0619
  483MOL0     H65189   8.172   3.148   8.563 -0.0690  0.3361  1.2987
  483MOL0     H65190   8.170   2.965   8.416 -0.0764  1.6115 -1.4259
  483MOL0     H65191   7.305   1.680   9.484  1.8466 -1.8648 -2.6405
  483MOL0     H65192   7.310   1.525   9.667  1.0992 -1.0442  1.1795
  483MOL0     H65193   7.735   1.097   9.770 -0.7277  0.5015  0.2237
  483MOL0     H65194   7.702   0.914   9.943 -1.5386 -1.9354 -0.4670
  483MOL0     H65195   7.565   1.028  10.268 -0.0149 -0.3848  0.2335
  483MOL0     H65196   7.389   0.995  10.237 -0.5595 -2.0879  0.5845
  483MOL0     H65197   7.407   0.781  10.310 -0.3118  1.3186 -1.7827
  483MOL0     H65198   7.472   0.888  10.430 -2.1472  0.2518 -1.3927
  483MOL0     H65199   7.706   0.813  10.315  0.8244 -0.2700  1.5966
  483MOL0     H65200   7.600   0.680  10.275  2.4025  1.0092 -1.1469
  483MOL0     H65201   7.575   0.630  10.508  1.6160 -1.1151 -0.1785
  483MOL0     H65202   7.663   0.774  10.570  1.2137 -2.5799  2.7267
  483MOL0     H65203   7.979   0.517  10.520  1.5593  0.8849  1.5745
  483MOL0     H65204   7.327   1.070  10.048 -1.4147  2.8157 -2.1207
  483MOL0     H65205   7.351   1.256   9.878 -0.0566 -2.1761  0.3890
  484MOL0     O65206   8.131   9.372   2.017 -0.2550  0.7422  0.1377
  484MOL0     C65207   8.214   9.427   2.093 -1.0024 -0.4305 -0.4489
  484MOL0     O65208   8.265   9.364   2.205 -0.0487  0.4984  0.0167
  484MOL0     C65209   8.246   9.226   2.221 -0.0713 -0.2646  1.1449
  484MOL0     C65210   8.356   9.155   2.269 -0.1523  0.3216 -0.1068
  484MOL0     C65211   8.339   9.015   2.298 -0.8178 -0.3547  0.5385
  484MOL0     C65212   8.217   8.953   2.286 -0.4929  0.9736 -0.3008
  484MOL0     O65213   8.205   8.822   2.319 -0.3868 -0.3493 -0.1530
  484MOL0     C65214   8.190   8.735   2.203  0.1593  0.2174 -0.8643
  484MOL0     C65215   8.230   8.594   2.240  1.0528 -0.0943  0.7203
  484MOL0     C65216   8.369   8.590   2.293 -1.2085  0.2328 -0.9563
  484MOL0     C65217   8.419   8.446   2.301 -0.3832  0.3289 -0.5622
  484MOL0     C65218   8.464   8.385   2.170 -0.7673  0.0688  0.2850
  484MOL0     C65219   8.472   8.234   2.187  0.4775  0.2902  0.7071
  484MOL0     C65220   8.329   8.167   2.192  0.0607  0.5949 -0.5385
  484MOL0     C65221   8.337   8.025   2.122 -0.1659  0.7695  0.5285
  484MOL0     N65222   8.229   7.933   2.152 -0.3059  0.4921 -0.0590
  484MOL0     C65223   8.113   7.918   2.085 -0.0352 -0.6571  0.6459
  484MOL0     C65224   8.058   7.799   2.131  0.7403 -0.1210  0.2712
  484MOL0     C65225   7.929   7.731   2.082 -0.3984  0.3760 -0.1630
  484MOL0     C65226   7.803   7.827   2.077  0.0572 -0.6932  0.4483
  484MOL0     C65227   7.670   7.754   2.074 -0.7142  0.7515  0.1268
  484MOL0     C65228   7.663   7.651   1.954 -1.0884  0.3139  0.3161
  484MOL0     O65229   7.716   7.712   1.828  0.1853  0.3061  0.1945
  484MOL0     C65230   7.640   7.800   1.759  1.4496 -1.1281 -0.2490
  484MOL0     C65231   7.680   7.847   1.631  0.1479  0.0248  0.0713
  484MOL0     C65232   7.596   7.917   1.549  0.7298 -0.5002 -0.5379
  484MOL0     C65233   7.653   7.963   1.419  0.1797  0.2395  0.0875
  484MOL0     C65234   7.469   7.960   1.603 -0.8866  0.2027  0.4766
  484MOL0     C65235   7.379   8.051   1.536  0.3307 -0.4853  0.4200
  484MOL0     O65236   7.377   8.177   1.586 -0.2075 -0.2194  0.2386
  484MOL0     C65237   7.308   8.276   1.508  0.5436  0.9077  0.1842
  484MOL0     C65238   7.164   8.286   1.522  0.2049  0.4309  0.8103
  484MOL0     C65239   7.101   8.388   1.445 -0.4641 -1.5908  0.1596
  484MOL0     C65240   7.174   8.465   1.362 -0.6234 -0.4699 -0.6044
  484MOL0     O65241   7.096   8.560   1.302  1.0190 -0.6865 -0.0438
  484MOL0     C65242   7.134   8.615   1.180  0.2334  0.0582  0.4852
  484MOL0     C65243   7.013   8.694   1.121 -0.4245 -0.4085 -0.8413
  484MOL0     C65244   7.039   8.741   0.974 -0.3950 -0.0403  0.4758
  484MOL0     C65245   6.891   8.765   0.920  0.1868 -0.0430  0.1704
  484MOL0     C65246   6.828   8.894   0.961  0.6129  0.6021 -0.2197
  484MOL0     C65247   6.702   8.909   0.873  0.5367 -0.9285  0.3280
  484MOL0     C65248   6.632   9.047   0.867 -0.2181  0.8484 -0.3946
  484MOL0     C65249   6.536   9.055   0.747  0.6328 -0.0377  0.1245
  484MOL0    Cl65250   6.609   9.043   0.591  0.2762  0.5933 -0.2614
  484MOL0     C65251   7.310   8.463   1.348 -0.1652  0.1320  0.5029
  484MOL0     C65252   7.377   8.359   1.411  0.1481 -0.8813 -0.0795
  484MOL0     O65253   7.297   8.006   1.456  0.4918 -0.0169 -0.2140
  484MOL0     C65254   7.430   7.918   1.732 -0.3593  0.6397 -0.5710
  484MOL0     C65255   7.514   7.838   1.808  0.3637 -0.5097 -0.3143
  484MOL0     N65256   8.161   7.744   2.210 -0.1447  0.0615  0.2256
  484MOL0     N65257   8.249   7.829   2.230 -0.6685 -0.1572 -0.2901
  484MOL0     C65258   8.104   9.033   2.246  0.1709 -0.5467 -0.6960
  484MOL0     C65259   8.122   9.163   2.208 -0.6674 -0.1740 -0.0834
  484MOL0     C65260   8.256   9.564   2.075  0.3523  0.3016 -0.3498
  484MOL0     C65261   8.357   9.622   2.157  0.5856 -0.5837 -1.3752
  484MOL0     C65262   8.398   9.758   2.136  0.0465  0.2593  0.7117
  484MOL0     C65263   8.346   9.839   2.034 -0.1789  0.3917 -0.9663
  484MOL0     O65264   8.382   9.970   2.008  0.1700  0.1898  0.0545
  484MOL0     C65265   8.421  10.064   2.110  0.1126 -0.0957 -0.2472
  484MOL0     C65266   8.504  10.173   2.042  0.3419 -0.0249 -0.0937
  484MOL0     C65267   8.635  10.116   2.009  0.5909  0.4597  0.7272
  484MOL0     C65268   8.709  10.200   1.920 -0.0549 -1.1079 -0.0135
  484MOL0     C65269   8.845  10.154   1.898 -0.3035  0.3679 -0.7640
  484MOL0     C65270   8.964  10.137   1.888  1.2252 -0.2895  0.4245
  484MOL0     C65271   8.255   9.778   1.950  0.3870  0.3905 -0.0460
  484MOL0     C65272   8.210   9.644   1.967 -0.6034  0.2882  0.8108
  484MOL0     H65273   8.454   9.197   2.288 -0.3793  0.7557  0.1070
  484MOL0     H65274   8.429   8.966   2.333  0.8322 -0.8791 -3.7957
  484MOL0     H65275   8.086   8.751   2.175  0.3714  3.7297 -0.0937
  484MOL0     H65276   8.254   8.767   2.120 -1.1447  1.6333 -1.3778
  484MOL0     H65277   8.165   8.570   2.325 -0.5034 -1.3706 -0.7312
  484MOL0     H65278   8.214   8.516   2.164  1.4038 -0.3896  0.9451
  484MOL0     H65279   8.427   8.651   2.224 -1.5467  0.9636 -0.6023
  484MOL0     H65280   8.362   8.620   2.398 -0.0661  0.7232 -1.0068
  484MOL0     H65281   8.497   8.459   2.377 -0.1329  3.6034 -1.2544
  484MOL0     H65282   8.336   8.390   2.348 -0.1074  1.1792  1.0170
  484MOL0     H65283   8.410   8.416   2.081  0.1998  0.6938 -0.1056
  484MOL0     H65284   8.562   8.430   2.147 -0.8772  1.0413  1.5927
  484MOL0     H65285   8.525   8.199   2.098  0.3772  1.1132  0.3120
  484MOL0     H65286   8.537   8.206   2.270 -3.2244  1.6640  4.4156
  484MOL0     H65287   8.295   8.161   2.295  1.1628 -1.7493 -0.2321
  484MOL0     H65288   8.250   8.217   2.136 -1.9441 -1.5716  0.2130
  484MOL0     H65289   8.429   7.976   2.155  0.3199  1.8389  0.8025
  484MOL0     H65290   8.345   8.039   2.013  1.3572  1.1579  0.6674
  484MOL0     H65291   8.076   8.000   2.024  0.2782  1.4436  3.1041
  484MOL0     H65292   7.938   7.695   1.980  1.2522  1.9707 -0.6285
  484MOL0     H65293   7.897   7.643   2.139 -3.4751  0.0377 -2.1801
  484MOL0     H65294   7.819   7.879   1.982 -2.2756  1.9736  1.3785
  484MOL0     H65295   7.806   7.906   2.153 -0.3049 -0.7628  0.5377
  484MOL0     H65296   7.599   7.837   2.066 -0.7045  0.9844  2.0419
  484MOL0     H65297   7.648   7.701   2.167 -0.3287  0.9394  0.3287
  484MOL0     H65298   7.562   7.611   1.939 -0.6817 -0.6068 -0.0089
  484MOL0     H65299   7.729   7.565   1.963 -2.5084 -1.1734 -2.1994
  484MOL0     H65300   7.778   7.799   1.626  0.3787 -0.0956  3.7315
  484MOL0     H65301   7.755   8.000   1.428  0.2558  0.1148 -0.2455
  484MOL0     H65302   7.652   7.880   1.347 -0.9813  0.7229 -0.4776
  484MOL0     H65303   7.601   8.050   1.377 -0.4134 -0.0772  0.1488
  484MOL0     H65304   7.115   8.221   1.593  1.5122  0.0154  1.3674
  484MOL0     H65305   6.996   8.408   1.464 -0.2547  2.1402 -1.8108
  484MOL0     H65306   7.219   8.682   1.195 -0.0553  0.5370  0.0242
  484MOL0     H65307   7.144   8.536   1.104 -2.6216 -1.5589  1.6259
  484MOL0     H65308   6.940   8.612   1.121  0.2479 -1.0249 -0.8533
  484MOL0     H65309   6.979   8.771   1.190 -1.8399 -1.6086 -0.1270
  484MOL0     H65310   7.082   8.666   0.907 -0.0265  0.7096 -0.1488
  484MOL0     H65311   7.106   8.827   0.969 -0.3358 -0.1528 -1.7001
  484MOL0     H65312   6.898   8.743   0.813  3.4961 -1.2202  0.5113
  484MOL0     H65313   6.821   8.694   0.967  2.2829 -0.3741  3.1009
  484MOL0     H65314   6.908   8.968   0.949  1.4094 -0.2021  0.0230
  484MOL0     H65315   6.802   8.894   1.067 -0.0537  3.8337 -0.2692
  484MOL0     H65316   6.738   8.886   0.773 -0.2539 -1.3718  0.1350
  484MOL0     H65317   6.627   8.836   0.904  0.4824 -0.5770  1.0499
  484MOL0     H65318   6.705   9.128   0.852  0.7448  0.0116 -0.3664
  484MOL0     H65319   6.581   9.075   0.960  0.8601  2.6533 -0.2730
  484MOL0     H65320   6.490   9.155   0.747  0.1421 -0.2505  0.7590
  484MOL0     H65321   6.456   8.981   0.759  1.6129 -1.2313 -0.5733
  484MOL0     H65322   7.363   8.548   1.307 -2.1540  2.6392  2.7249
  484MOL0     H65323   7.484   8.343   1.408  0.6062  0.5940  3.5936
  484MOL0     H65324   7.328   7.947   1.756 -0.1279  2.4213 -1.5986
  484MOL0     H65325   7.470   7.791   1.896 -1.6147 -0.3302 -1.1390
  484MOL0     H65326   8.001   9.002   2.247 -0.9491  2.7361 -0.9264
  484MOL0     H65327   8.035   9.213   2.168 -2.4590 -1.8784  1.4805
  484MOL0     H65328   8.387   9.574   2.250  0.9415 -1.3742 -1.8930
  484MOL0     H65329   8.463   9.817   2.200  0.4924  2.8743 -1.9032
  484MOL0     H65330   8.329  10.104   2.154 -0.3727  1.9810 -2.8169
  484MOL0     H65331   8.482  10.017   2.187  0.7029 -0.9243 -1.1958
  484MOL0     H65332   8.531  10.249   2.115  3.7340  3.0803 -4.1144
  484MOL0     H65333   8.453  10.217   1.956 -1.2930  0.0279  0.8579
  484MOL0     H65334   8.629  10.014   1.967  3.3876  0.0597  1.1230
  484MOL0     H65335   8.694  10.100   2.099  0.2885  1.9846  1.2239
  484MOL0     H65336   8.711  10.302   1.961 -0.8654 -0.1523 -2.1964
  484MOL0     H65337   8.666  10.220   1.822  2.2439 -1.4569 -1.1701
  484MOL0     H65338   9.069  10.126   1.872  0.9242  0.6418 -2.9932
  484MOL0     H65339   8.206   9.835   1.872  0.0761 -2.2191 -1.8712
  484MOL0     H65340   8.170   9.595   1.879  1.7426 -2.8157  1.3176
  485MOL0     O65341   4.835   2.459   8.441 -0.8102 -0.0941  0.4467
  485MOL0     C65342   4.713   2.486   8.449 -0.1599  0.3175 -0.4599
  485MOL0     O65343   4.601   2.434   8.389  0.0505 -0.1620  0.4975
  485MOL0     C65344   4.614   2.327   8.304 -1.6296  0.8975  1.3840
  485MOL0     C65345   4.728   2.253   8.274  0.8642  0.6154 -0.1949
  485MOL0     C65346   4.721   2.140   8.189 -0.6509  0.3624 -0.3540
  485MOL0     C65347   4.599   2.112   8.115  1.0768  0.7047 -0.6317
  485MOL0     O65348   4.598   2.012   8.020 -0.2768  0.0699  0.4996
  485MOL0     C65349   4.479   1.937   8.011 -0.1410 -0.1437  0.1197
  485MOL0     C65350   4.516   1.807   7.953  0.2663  0.1841  0.5614
  485MOL0     C65351   4.393   1.709   7.929  0.1167 -0.5636  0.7177
  485MOL0     C65352   4.320   1.749   7.792 -0.6460  0.3219 -0.6293
  485MOL0     C65353   4.176   1.705   7.789 -0.1055 -0.0457 -0.3741
  485MOL0     C65354   4.159   1.552   7.823  0.6895  0.5398 -0.0441
  485MOL0     C65355   4.006   1.514   7.835  0.0117  0.0377  0.0051
  485MOL0     C65356   4.000   1.363   7.869  0.8043 -0.3104  0.0626
  485MOL0     N65357   4.052   1.332   8.003 -0.1486 -0.1091  0.3770
  485MOL0     C65358   3.984   1.346   8.121 -0.9042 -1.0670 -0.7417
  485MOL0     C65359   4.061   1.286   8.218 -0.5377  0.1036 -0.6678
  485MOL0     C65360   4.013   1.275   8.355  0.1663  0.6662  0.1292
  485MOL0     C65361   4.005   1.120   8.397 -0.4357  0.6616  0.5843
  485MOL0     C65362   3.902   1.045   8.310  0.0579  0.6743  0.6455
  485MOL0     C65363   3.752   1.066   8.357  0.7085 -1.3586  0.4092
  485MOL0     O65364   3.752   1.031   8.495 -1.0053 -0.4281  0.6155
  485MOL0     C65365   3.631   0.988   8.550  0.3043  0.0339  0.2566
  485MOL0     C65366   3.647   0.928   8.668  0.1178  0.4812  0.4161
  485MOL0     C65367   3.540   0.863   8.734  0.4286 -0.3959 -0.1847
  485MOL0     C65368   3.575   0.800   8.868 -0.1727  0.1364 -0.3634
  485MOL0     C65369   3.408   0.875   8.685  0.2434 -0.9420  0.0289
  485MOL0     C65370   3.278   0.822   8.740 -0.4231 -1.0201  0.2012
  485MOL0     O65371   3.164   0.848   8.656  0.6347 -0.2011  0.1361
  485MOL0     C65372   3.042   0.822   8.709  0.5415 -0.2694  0.1507
  485MOL0     C65373   2.943   0.926   8.712 -0.0616  0.0251 -0.3688
  485MOL0     C65374   2.812   0.899   8.770 -0.1024  0.2331  0.4188
  485MOL0     C65375   2.777   0.776   8.826 -1.1516 -0.8528  0.3651
  485MOL0     O65376   2.647   0.778   8.881 -0.2620  0.6025 -0.7020
  485MOL0     C65377   2.621   0.682   8.990  0.8741  0.1872  0.3551
  485MOL0     C65378   2.476   0.700   9.037 -0.9346  0.3419 -0.3781
  485MOL0     C65379   2.388   0.660   8.926  0.9308  0.8932  0.0742
  485MOL0     C65380   2.246   0.670   8.987  0.5294  0.5076  0.3344
  485MOL0     C65381   2.144   0.633   8.875 -0.3045 -0.0041  0.7948
  485MOL0     C65382   2.003   0.638   8.930 -0.3225  1.0453  0.0624
  485MOL0     C65383   1.960   0.782   8.966  0.9006 -0.4238  0.0926
  485MOL0     C65384   1.826   0.775   9.041 -0.1550 -0.6931  1.2166
  485MOL0    Cl65385   1.773   0.939   9.090  0.3292 -0.2345 -0.5620
  485MOL0     C65386   2.876   0.677   8.829 -0.3567  0.1953  0.9392
  485MOL0     C65387   2.998   0.699   8.763 -0.9597  0.1765 -0.7594
  485MOL0     O65388   3.281   0.750   8.840  0.2595 -0.7166 -0.0064
  485MOL0     C65389   3.399   0.942   8.562 -0.4336  0.3184 -0.7425
  485MOL0     C65390   3.502   1.004   8.496 -0.0992  0.2899 -0.3109
  485MOL0     N65391   4.174   1.223   8.150  0.4543 -0.0953 -0.7972
  485MOL0     N65392   4.170   1.262   8.027  0.1322  0.3485 -0.0892
  485MOL0     C65393   4.484   2.197   8.145  0.2139  0.2616 -0.7997
  485MOL0     C65394   4.496   2.299   8.241  0.1890 -0.4323  1.4742
  485MOL0     C65395   4.690   2.601   8.531  0.1094  0.2454 -0.4853
  485MOL0     C65396   4.567   2.673   8.524 -0.6566  0.2217  0.3288
  485MOL0     C65397   4.548   2.788   8.593 -0.7818 -0.1327  0.6417
  485MOL0     C65398   4.645   2.831   8.688 -0.7125  0.3732 -0.2416
  485MOL0     O65399   4.620   2.948   8.766 -0.3025  0.0202  0.2515
  485MOL0     C65400   4.731   3.012   8.822  0.1651 -0.3241  0.0981
  485MOL0     C65401   4.698   3.140   8.905 -0.3321 -1.3206 -0.0117
  485MOL0     C65402   4.587   3.135   9.006  1.1386  0.1670  1.2147
  485MOL0     C65403   4.596   3.007   9.094 -0.2651  1.2823 -0.0074
  485MOL0     C65404   4.507   3.029   9.215 -0.6047 -1.1423  0.4136
  485MOL0     C65405   4.430   3.047   9.302  0.2943  0.1716  0.4971
  485MOL0     C65406   4.765   2.753   8.698 -0.6552  0.4796 -0.9238
  485MOL0     C65407   4.786   2.637   8.633  0.8849 -0.5299  0.2344
  485MOL0     H65408   4.829   2.265   8.312  1.3905 -1.3658 -0.8111
  485MOL0     H65409   4.813   2.085   8.172  0.0748  0.7157  2.0753
  485MOL0     H65410   4.430   1.922   8.108 -1.3267  2.0084 -0.0686
  485MOL0     H65411   4.413   1.980   7.934 -0.2284  0.3390  0.4610
  485MOL0     H65412   4.566   1.831   7.858 -0.3838  0.5672  0.3127
  485MOL0     H65413   4.579   1.754   8.026 -0.3018 -1.5250 -0.1371
  485MOL0     H65414   4.430   1.607   7.912 -3.0829 -2.1330  2.2186
  485MOL0     H65415   4.325   1.716   8.014 -1.3967 -1.6005 -0.3539
  485MOL0     H65416   4.324   1.855   7.764  1.2945  0.6140  0.5526
  485MOL0     H65417   4.371   1.691   7.714 -1.5321 -2.2721  0.6152
  485MOL0     H65418   4.125   1.767   7.864  0.9121 -0.5601  0.7758
  485MOL0     H65419   4.129   1.725   7.693 -0.1129  3.9189  0.2782
  485MOL0     H65420   4.213   1.483   7.758 -0.5125 -1.1179  0.6244
  485MOL0     H65421   4.193   1.540   7.926  0.2379  3.2272  0.4929
  485MOL0     H65422   3.953   1.576   7.907 -1.2050 -1.9263  0.8725
  485MOL0     H65423   3.951   1.526   7.741  0.2588 -1.2471 -0.3273
  485MOL0     H65424   4.052   1.314   7.786 -0.7631  0.5061 -1.4718
  485MOL0     H65425   3.900   1.322   7.852  1.7759 -1.9675 -2.0948
  485MOL0     H65426   3.899   1.408   8.145 -0.0914 -0.1484 -0.1659
  485MOL0     H65427   4.079   1.324   8.428 -2.0408 -0.0501  2.7883
  485MOL0     H65428   3.917   1.328   8.364  0.4180  1.4885 -1.5718
  485MOL0     H65429   3.994   1.102   8.504 -0.2086 -1.6377  0.2701
  485MOL0     H65430   4.099   1.067   8.378 -2.2057 -2.8945  1.0309
  485MOL0     H65431   3.910   0.937   8.320  3.0360  0.6408 -1.0102
  485MOL0     H65432   3.910   1.070   8.204 -1.3011  2.3623  0.8902
  485MOL0     H65433   3.683   0.996   8.309  1.9133 -1.6848 -0.9011
  485MOL0     H65434   3.722   1.169   8.336 -2.9338 -1.4975  3.7587
  485MOL0     H65435   3.745   0.921   8.714  0.8346  4.5828 -0.1781
  485MOL0     H65436   3.489   0.804   8.937 -0.1403 -1.4855 -0.1756
  485MOL0     H65437   3.604   0.697   8.845 -1.7136 -0.3900 -0.1184
  485MOL0     H65438   3.668   0.841   8.908  0.4711 -1.1668 -0.4693
  485MOL0     H65439   2.961   1.025   8.671 -1.4068  0.0510 -0.9526
  485MOL0     H65440   2.734   0.974   8.766 -1.1820 -0.8826 -2.4690
  485MOL0     H65441   2.645   0.581   8.955  1.9016 -0.0073  1.5221
  485MOL0     H65442   2.682   0.709   9.077 -1.8771  0.2240  2.3903
  485MOL0     H65443   2.450   0.632   9.119 -0.8675  4.8718  3.8963
  485MOL0     H65444   2.463   0.805   9.064 -0.3776  1.2591 -3.3300
  485MOL0     H65445   2.406   0.557   8.894 -1.1814 -0.4174  2.6626
  485MOL0     H65446   2.387   0.738   8.849 -2.4370  1.3539  0.4223
  485MOL0     H65447   2.229   0.600   9.069 -1.4476  1.5688  0.8986
  485MOL0     H65448   2.229   0.778   8.996  2.4045  1.1793 -2.6926
  485MOL0     H65449   2.166   0.529   8.847 -2.6516  0.5288 -4.0243
  485MOL0     H65450   2.164   0.695   8.788  0.5811 -0.6294  0.5374
  485MOL0     H65451   1.937   0.597   8.852 -1.3586 -0.0025  1.4369
  485MOL0     H65452   2.006   0.577   9.021  1.3577  1.5814  0.3890
  485MOL0     H65453   1.959   0.848   8.878  1.9159  0.5824  0.8079
  485MOL0     H65454   2.032   0.837   9.027  1.1189  1.2467 -1.5728
  485MOL0     H65455   1.839   0.711   9.129 -4.5521 -2.0756  1.0761
  485MOL0     H65456   1.762   0.724   8.969 -1.2405  1.4821  0.5613
  485MOL0     H65457   2.862   0.573   8.854  1.1065 -0.1321  0.5308
  485MOL0     H65458   3.064   0.613   8.759  0.1836  1.0617 -4.6182
  485MOL0     H65459   3.302   0.970   8.523 -0.6505  2.3726  1.0608
  485MOL0     H65460   3.477   1.053   8.403 -1.0693  1.2188  0.4186
  485MOL0     H65461   4.385   2.179   8.104 -0.7561  3.1292  0.0129
  485MOL0     H65462   4.414   2.359   8.278 -1.9821 -0.4516 -2.7301
  485MOL0     H65463   4.486   2.650   8.456 -0.4097 -1.1320  0.4492
  485MOL0     H65464   4.472   2.865   8.584 -0.1920  0.4407  0.5113
  485MOL0     H65465   4.789   2.947   8.889 -0.2128  2.4217  3.3400
  485MOL0     H65466   4.793   3.050   8.740 -0.1432  2.6724  1.1326
  485MOL0     H65467   4.676   3.224   8.839 -3.0718  0.9947  3.4521
  485MOL0     H65468   4.795   3.155   8.954  0.5007 -2.4266 -1.2555
  485MOL0     H65469   4.495   3.120   8.948  2.1873 -3.7941  0.3239
  485MOL0     H65470   4.578   3.229   9.062  1.2509  0.0226  1.4768
  485MOL0     H65471   4.698   2.976   9.119 -0.6960 -0.7818 -0.6413
  485MOL0     H65472   4.557   2.924   9.034 -0.8945 -0.6535  2.8457
  485MOL0     H65473   4.371   3.047   9.391  0.6157 -1.5953  0.7464
  485MOL0     H65474   4.857   2.797   8.737  0.0984  2.1421 -4.2174
  485MOL0     H65475   4.881   2.587   8.639  1.9492  1.5227  1.8594
  486MOL0     O65476  11.191   5.057   5.107  0.5179 -0.0942 -0.3473
  486MOL0     C65477  11.308   5.072   5.138 -0.0245  0.4012 -0.1329
  486MOL0     O65478  11.405   5.131   5.054  0.6972  0.2794  0.1163
  486MOL0     C65479  11.387   5.175   4.917  0.9728  0.0698  0.4048
  486MOL0     C65480  11.510   5.202   4.854 -0.1436 -0.8574 -0.3514
  486MOL0     C65481  11.508   5.246   4.716 -0.1888 -0.8998  0.0878
  486MOL0     C65482  11.380   5.273   4.659 -0.3899  0.9466 -0.3654
  486MOL0     O65483  11.403   5.330   4.535 -0.7770 -0.6992 -0.2599
  486MOL0     C65484  11.287   5.338   4.451 -0.0128 -0.1842  0.1493
  486MOL0     C65485  11.316   5.336   4.291 -0.1201  0.0478 -0.0039
  486MOL0     C65486  11.432   5.249   4.247 -1.3359 -0.4350  0.9165
  486MOL0     C65487  11.470   5.256   4.107 -0.4404 -0.5376  0.4676
  486MOL0     C65488  11.554   5.385   4.074  0.5085 -0.1749 -0.2615
  486MOL0     C65489  11.550   5.443   3.938  0.6740  0.3294 -0.2393
  486MOL0     C65490  11.628   5.581   3.927  0.1295 -0.2926 -0.3506
  486MOL0     C65491  11.573   5.702   4.024  0.3987 -0.8543  0.7276
  486MOL0     N65492  11.661   5.818   4.028 -0.6893 -0.0565  0.2140
  486MOL0     C65493  11.745   5.853   3.929 -0.7632  0.1728  0.0267
  486MOL0     C65494  11.812   5.960   3.979  0.3607 -0.4485 -0.0369
  486MOL0     C65495  11.914   6.046   3.916 -0.1966  0.0670  0.3731
  486MOL0     C65496  11.945   6.174   3.991  0.9082  0.3322  0.2942
  486MOL0     C65497  12.037   6.278   3.924 -0.2561 -0.4916 -1.5226
  486MOL0     C65498  12.179   6.220   3.951 -0.5264  0.3587  0.4410
  486MOL0     O65499  12.214   6.198   4.085 -0.3852  0.0125  0.3914
  486MOL0     C65500  12.347   6.192   4.126 -0.1463 -0.8584  0.4116
  486MOL0     C65501  12.448   6.174   4.035  0.7898 -0.5156 -0.6522
  486MOL0     C65502  12.578   6.164   4.075 -0.6248  0.5997  0.0064
  486MOL0     C65503  12.680   6.140   3.974 -0.8527  0.0359  0.4389
  486MOL0     C65504  12.613   6.194   4.212 -0.6737  0.2489  0.1022
  486MOL0     C65505  12.753   6.211   4.271  0.8327  0.1399  0.3293
  486MOL0     O65506  12.764   6.207   4.411  0.3499  0.3522 -0.1703
  486MOL0     C65507  12.874   6.261   4.476  0.1065 -0.8399  0.2728
  486MOL0     C65508  12.905   6.395   4.463  0.3764  0.4832  0.6262
  486MOL0     C65509  13.023   6.440   4.515 -1.4330  0.1243 -0.2956
  486MOL0     C65510  13.118   6.348   4.588 -0.1068  0.3610 -0.1523
  486MOL0     O65511  13.230   6.403   4.655  0.2382  0.3270  0.8131
  486MOL0     C65512  13.349   6.323   4.674 -0.2207  0.0996  0.0677
  486MOL0     C65513  13.460   6.400   4.729 -0.4754  0.1530  0.1357
  486MOL0     C65514  13.422   6.457   4.873 -0.0631  0.8593  1.4940
  486MOL0     C65515  13.530   6.542   4.942 -0.5703  0.4813  1.1370
  486MOL0     C65516  13.515   6.540   5.096 -0.1197 -0.1310 -0.3104
  486MOL0     C65517  13.551   6.665   5.171  0.0275  0.4394  0.0568
  486MOL0     C65518  13.446   6.778   5.158 -0.2601 -0.1275 -0.1020
  486MOL0     C65519  13.453   6.881   5.269  0.2316  1.0640  0.4645
  486MOL0    Cl65520  13.329   6.854   5.386 -0.2397  0.7819  0.8104
  486MOL0     C65521  13.085   6.217   4.599  0.3736  0.0879  0.9054
  486MOL0     C65522  12.962   6.169   4.542 -0.2861 -0.1241 -0.1123
  486MOL0     O65523  12.848   6.223   4.190 -0.0263 -0.2601 -0.0958
  486MOL0     C65524  12.505   6.238   4.301  0.4979 -0.3797  0.7722
  486MOL0     C65525  12.371   6.229   4.259 -0.4277 -0.4228  1.1959
  486MOL0     N65526  11.765   5.988   4.108  0.0499  0.7169  0.2860
  486MOL0     N65527  11.680   5.891   4.141 -0.0824 -0.0525 -0.6333
  486MOL0     C65528  11.258   5.259   4.733 -0.6110 -0.1066  0.1506
  486MOL0     C65529  11.260   5.196   4.860  0.1174 -0.5091  0.3764
  486MOL0     C65530  11.347   5.009   5.265  0.6342  0.6363  1.3800
  486MOL0     C65531  11.241   4.994   5.361  0.3001 -1.2967 -0.7915
  486MOL0     C65532  11.288   4.928   5.477  0.4818 -0.8682  0.4729
  486MOL0     C65533  11.415   4.865   5.496  1.0503 -0.2179  0.1368
  486MOL0     O65534  11.448   4.798   5.605  0.3039  0.6824  0.1906
  486MOL0     C65535  11.401   4.848   5.729  0.2761  0.1448  0.3586
  486MOL0     C65536  11.527   4.846   5.818 -0.0900 -0.6074  0.0376
  486MOL0     C65537  11.569   4.707   5.870  0.3636  0.4813 -0.6224
  486MOL0     C65538  11.704   4.718   5.940  0.9701  0.5791 -0.3055
  486MOL0     C65539  11.752   4.581   5.965  0.3494 -0.6720 -0.0854
  486MOL0     C65540  11.748   4.459   5.974  0.2524  0.8978  0.5106
  486MOL0     C65541  11.504   4.881   5.393 -0.2874 -0.1870 -0.6193
  486MOL0     C65542  11.478   4.964   5.283  0.0405  0.1882 -0.2308
  486MOL0     H65543  11.595   5.177   4.916 -0.0442  0.5165  0.1054
  486MOL0     H65544  11.605   5.259   4.670  0.7674  0.3682  2.2780
  486MOL0     H65545  11.213   5.259   4.466 -2.6394  1.5477 -2.6196
  486MOL0     H65546  11.227   5.422   4.486  1.1846  1.0092 -0.5424
  486MOL0     H65547  11.225   5.299   4.243 -0.7983 -0.5955  1.6894
  486MOL0     H65548  11.340   5.440   4.267  0.7165 -0.5166 -1.7433
  486MOL0     H65549  11.517   5.264   4.314  1.0395 -2.0617 -1.5704
  486MOL0     H65550  11.401   5.146   4.265  2.6345 -2.0636 -0.4833
  486MOL0     H65551  11.524   5.166   4.075  0.4167  0.4320 -0.8909
  486MOL0     H65552  11.381   5.245   4.045 -3.1756 -3.0640  4.3965
  486MOL0     H65553  11.530   5.463   4.146  1.3356  0.7874 -0.9849
  486MOL0     H65554  11.660   5.363   4.091  0.4138  1.2214  2.7641
  486MOL0     H65555  11.597   5.376   3.865 -1.5598  0.3492 -1.7952
  486MOL0     H65556  11.446   5.453   3.905  0.5488 -5.0551 -2.4823
  486MOL0     H65557  11.734   5.567   3.954  0.6043  1.6450 -1.0411
  486MOL0     H65558  11.634   5.607   3.821  0.2818  1.6123  0.0807
  486MOL0     H65559  11.565   5.664   4.126  1.5575 -3.5795 -0.1074
  486MOL0     H65560  11.472   5.730   3.992  1.3281  0.2048 -1.4827
  486MOL0     H65561  11.762   5.821   3.827  2.1551  1.7537 -0.1086
  486MOL0     H65562  12.010   5.994   3.906 -1.0168 -1.3752 -0.3476
  486MOL0     H65563  11.879   6.058   3.813  1.2453 -2.0413 -0.4407
  486MOL0     H65564  11.962   6.164   4.099 -0.1009 -0.9258  0.3656
  486MOL0     H65565  11.851   6.229   3.982  2.1349  2.7312  1.2489
  486MOL0     H65566  12.018   6.371   3.979 -0.2960 -2.7108  2.6169
  486MOL0     H65567  12.016   6.284   3.817  1.6431  1.7166 -1.8621
  486MOL0     H65568  12.243   6.300   3.913 -2.2441  1.9836  0.8406
  486MOL0     H65569  12.205   6.126   3.901 -0.6803  1.3083 -1.5165
  486MOL0     H65570  12.436   6.151   3.930 -3.3027  0.0540 -0.4702
  486MOL0     H65571  12.698   6.243   3.943  0.2904 -0.2751  0.0438
  486MOL0     H65572  12.760   6.094   4.034 -2.4626  0.6764  3.2882
  486MOL0     H65573  12.655   6.073   3.891 -1.7364  2.6668 -1.5257
  486MOL0     H65574  12.832   6.466   4.425  0.0336  0.9659  2.1021
  486MOL0     H65575  13.050   6.545   4.514  1.9955 -0.6320  0.4949
  486MOL0     H65576  13.334   6.230   4.729  0.7701 -0.9928 -1.4365
  486MOL0     H65577  13.393   6.293   4.578 -2.7478 -0.6104 -0.9694
  486MOL0     H65578  13.552   6.340   4.736  0.0873  0.8884 -0.7402
  486MOL0     H65579  13.483   6.483   4.661  1.6929  0.5619  1.2657
  486MOL0     H65580  13.388   6.370   4.929 -0.7949  1.3594  1.8431
  486MOL0     H65581  13.334   6.523   4.871  1.0847  2.6114 -2.7038
  486MOL0     H65582  13.629   6.506   4.915 -1.0548 -1.0175  1.2356
  486MOL0     H65583  13.525   6.640   4.893 -5.0719 -0.8132 -1.6995
  486MOL0     H65584  13.576   6.455   5.128  0.0593 -0.2459 -0.9497
  486MOL0     H65585  13.411   6.526   5.127  0.2592  0.7068  1.4576
  486MOL0     H65586  13.546   6.629   5.275  0.2787 -1.0700 -0.4239
  486MOL0     H65587  13.649   6.711   5.159  0.2997 -0.6520 -2.4998
  486MOL0     H65588  13.346   6.738   5.142 -0.2298 -0.0691 -0.4531
  486MOL0     H65589  13.475   6.834   5.068  2.4001 -2.2455 -0.7277
  486MOL0     H65590  13.446   6.985   5.235  4.2097  1.1316 -0.5702
  486MOL0     H65591  13.555   6.868   5.306  1.9545  2.7306 -3.1771
  486MOL0     H65592  13.139   6.138   4.650 -2.3716 -0.7615  2.7436
  486MOL0     H65593  12.934   6.065   4.549 -3.7364  0.7448  0.7891
  486MOL0     H65594  12.537   6.271   4.400 -0.0873 -0.3476  0.9585
  486MOL0     H65595  12.300   6.267   4.331 -3.7394 -0.0935 -1.9353
  486MOL0     H65596  11.174   5.298   4.676 -0.0766  2.6109  1.0724
  486MOL0     H65597  11.166   5.178   4.912 -0.7277 -1.1434 -1.3104
  486MOL0     H65598  11.136   5.012   5.341 -0.6862 -1.9498  2.9619
  486MOL0     H65599  11.214   4.900   5.551 -1.7394 -0.7800 -1.5797
  486MOL0     H65600  11.364   4.951   5.720  0.5447  0.2318  0.2575
  486MOL0     H65601  11.326   4.785   5.779  0.7157  0.2300  1.1361
  486MOL0     H65602  11.528   4.919   5.900 -0.4564 -3.1051  2.4228
  486MOL0     H65603  11.610   4.878   5.754 -0.1763 -2.0777 -0.8647
  486MOL0     H65604  11.561   4.632   5.791 -1.3326 -0.6367  0.5425
  486MOL0     H65605  11.497   4.662   5.939  0.6129 -2.3331 -2.0624
  486MOL0     H65606  11.687   4.766   6.037 -1.4631  0.3244 -0.5304
  486MOL0     H65607  11.779   4.783   5.894 -1.0174  3.5944  0.3498
  486MOL0     H65608  11.733   4.353   5.976 -4.9097  1.2955 -1.5447
  486MOL0     H65609  11.598   4.827   5.393 -1.4657 -2.6659 -4.7523
  486MOL0     H65610  11.548   4.996   5.206 -1.5493 -1.7076 -2.6197
  487MOL0     O65611   4.345   0.583   2.886  0.4180  0.3224 -0.2788
  487MOL0     C65612   4.417   0.609   2.787  0.4890  0.6065 -0.0941
  487MOL0     O65613   4.414   0.733   2.721  0.8156 -0.3470 -0.0585
  487MOL0     C65614   4.327   0.828   2.754 -0.1732  0.2716  0.4953
  487MOL0     C65615   4.227   0.863   2.658 -0.4740 -0.7699  0.3391
  487MOL0     C65616   4.124   0.954   2.700 -0.2200  0.4843 -0.3031
  487MOL0     C65617   4.131   1.015   2.832  0.3797 -0.1328  0.0696
  487MOL0     O65618   4.048   1.112   2.887  0.5454  0.4939  0.1023
  487MOL0     C65619   3.955   1.169   2.787 -0.0887  0.2069 -0.2902
  487MOL0     C65620   4.032   1.265   2.704  0.2736 -0.1452  0.1654
  487MOL0     C65621   4.094   1.381   2.781  0.4210  0.3423 -0.1939
  487MOL0     C65622   4.159   1.492   2.683  0.1172 -0.2039  0.2500
  487MOL0     C65623   4.257   1.442   2.581 -0.4008  0.1151  0.9931
  487MOL0     C65624   4.335   1.556   2.516  0.8313 -0.2086  0.3264
  487MOL0     C65625   4.445   1.502   2.414 -0.8478  1.1911 -0.4560
  487MOL0     C65626   4.394   1.481   2.271  0.0425  0.1781 -0.1820
  487MOL0     N65627   4.491   1.437   2.173 -0.0550 -1.2322 -0.4706
  487MOL0     C65628   4.596   1.350   2.197 -0.1084  0.0729 -0.5930
  487MOL0     C65629   4.636   1.311   2.066  0.2295  0.3923 -0.7653
  487MOL0     C65630   4.748   1.225   2.017  0.8907 -1.3874 -0.2265
  487MOL0     C65631   4.871   1.314   1.983 -0.0055  0.5865 -0.8876
  487MOL0     C65632   4.995   1.233   1.940 -1.0361 -0.0496 -0.3665
  487MOL0     C65633   4.967   1.143   1.819 -0.1616  0.0820 -0.3478
  487MOL0     O65634   5.085   1.124   1.738 -0.6903 -0.1469 -0.0548
  487MOL0     C65635   5.114   1.199   1.619 -0.7625  0.5000 -0.6068
  487MOL0     C65636   5.043   1.308   1.581  0.2620 -1.1530  0.0838
  487MOL0     C65637   5.054   1.371   1.459  0.4988  0.2607 -0.7238
  487MOL0     C65638   4.958   1.494   1.437  0.1823 -0.4112 -0.3727
  487MOL0     C65639   5.156   1.337   1.368 -0.3680 -0.0862  0.6969
  487MOL0     C65640   5.171   1.411   1.238 -0.2949  0.2641  0.2584
  487MOL0     O65641   5.070   1.495   1.196  0.2969  0.4459  0.0883
  487MOL0     C65642   5.075   1.572   1.083 -0.6888  0.0429  0.0225
  487MOL0     C65643   5.183   1.657   1.056 -0.3646  0.2575 -1.4024
  487MOL0     C65644   5.176   1.757   0.963 -0.4271  1.1349  0.9391
  487MOL0     C65645   5.063   1.765   0.885  0.0895  0.6115 -0.2823
  487MOL0     O65646   5.030   1.853   0.785  0.1658  0.4291 -0.5655
  487MOL0     C65647   5.144   1.910   0.708  0.3491  1.1105 -0.2907
  487MOL0     C65648   5.173   2.068   0.728  0.3217 -0.8132 -0.8014
  487MOL0     C65649   5.268   2.120   0.620  0.4239 -1.4569  0.7903
  487MOL0     C65650   5.407   2.072   0.635  0.0126  1.0381  0.3284
  487MOL0     C65651   5.514   2.151   0.551 -0.1752 -0.0201 -0.0576
  487MOL0     C65652   5.512   2.132   0.404 -0.3023 -0.7158 -0.6140
  487MOL0     C65653   5.609   2.230   0.331 -0.6608  0.0279  0.0079
  487MOL0     C65654   5.602   2.213   0.182  0.0620  0.5307  0.6065
  487MOL0    Cl65655   5.446   2.283   0.126 -0.4058  0.6021 -0.3398
  487MOL0     C65656   4.953   1.682   0.906  0.1171  1.6020 -0.5009
  487MOL0     C65657   4.961   1.582   1.008  0.0617  0.6126 -0.2543
  487MOL0     O65658   5.278   1.402   1.178  0.2686  0.2380  0.5376
  487MOL0     C65659   5.245   1.231   1.405  0.4711 -0.2104  0.5084
  487MOL0     C65660   5.221   1.160   1.531  0.9112 -0.0522 -0.2027
  487MOL0     N65661   4.539   1.356   1.980  0.5471  0.1404 -0.2233
  487MOL0     N65662   4.451   1.434   2.049 -0.2696 -0.5247  0.5244
  487MOL0     C65663   4.246   0.993   2.910  1.0028 -0.4177  0.3945
  487MOL0     C65664   4.335   0.896   2.879  0.5524  0.9092 -0.2480
  487MOL0     C65665   4.496   0.498   2.730 -0.7870  0.5079  0.1728
  487MOL0     C65666   4.491   0.378   2.799  0.2549 -0.0865 -0.0611
  487MOL0     C65667   4.556   0.268   2.753 -0.1737 -0.3108  0.2734
  487MOL0     C65668   4.639   0.282   2.637 -0.0670  0.2774  0.0002
  487MOL0     O65669   4.720   0.183   2.584 -0.7915 -0.2372  0.1974
  487MOL0     C65670   4.750   0.069   2.673 -0.3862 -0.0971  0.2772
  487MOL0     C65671   4.844  -0.030   2.609  0.1951  0.4191  0.4446
  487MOL0     C65672   4.887  -0.132   2.712  0.2508 -0.5246  0.6407
  487MOL0     C65673   4.963  -0.249   2.640  0.3797  0.8695 -0.2669
  487MOL0     C65674   5.103  -0.207   2.613  0.2932 -0.8920 -0.1319
  487MOL0     C65675   5.226  -0.193   2.605  0.7045  0.2503 -1.0724
  487MOL0     C65676   4.634   0.394   2.564  0.7126 -0.5118  0.3336
  487MOL0     C65677   4.562   0.511   2.611  0.4352  1.0451 -1.3726
  487MOL0     H65678   4.241   0.823   2.558 -1.7813 -0.5368  0.0373
  487MOL0     H65679   4.043   0.965   2.630 -0.0309  0.4783 -0.5230
  487MOL0     H65680   3.900   1.097   2.726  0.7334  1.7492 -3.0292
  487MOL0     H65681   3.873   1.227   2.831 -1.6810 -3.7686  2.5260
  487MOL0     H65682   4.119   1.220   2.655  0.8607  1.8020 -0.6797
  487MOL0     H65683   3.956   1.298   2.632 -0.8419  0.1536  1.4512
  487MOL0     H65684   4.014   1.424   2.841 -0.4703 -0.3983 -0.8357
  487MOL0     H65685   4.161   1.341   2.858 -0.0611  0.9099  0.5340
  487MOL0     H65686   4.083   1.543   2.624  0.4165  0.6914  0.6215
  487MOL0     H65687   4.210   1.561   2.750  1.3435 -1.3004  0.4939
  487MOL0     H65688   4.317   1.374   2.643 -2.2026 -0.6308  2.0046
  487MOL0     H65689   4.195   1.390   2.508 -3.4121  2.3005  1.8249
  487MOL0     H65690   4.254   1.604   2.460 -1.2934 -1.0917  2.4751
  487MOL0     H65691   4.376   1.608   2.602 -1.5257 -1.0837  2.0915
  487MOL0     H65692   4.542   1.553   2.422 -0.5870  0.7718 -0.8570
  487MOL0     H65693   4.479   1.406   2.452 -1.0688  1.6723  1.0007
  487MOL0     H65694   4.358   1.578   2.237  2.8335  0.8279 -1.5981
  487MOL0     H65695   4.306   1.416   2.264  0.7661 -0.6822 -2.7347
  487MOL0     H65696   4.642   1.328   2.293 -1.4114  0.0596  0.0461
  487MOL0     H65697   4.769   1.151   2.094 -3.0629 -2.5981 -0.0915
  487MOL0     H65698   4.717   1.169   1.928 -3.2749 -1.7610  1.2849
  487MOL0     H65699   4.895   1.371   2.073  1.1818  1.3955 -1.6930
  487MOL0     H65700   4.846   1.380   1.899  1.8973 -0.1582 -2.1088
  487MOL0     H65701   5.038   1.172   2.020  4.6197  0.8762 -2.2346
  487MOL0     H65702   5.069   1.314   1.930 -1.7818  0.5769 -0.8843
  487MOL0     H65703   4.885   1.179   1.756  0.6578  1.7568 -0.5017
  487MOL0     H65704   4.927   1.045   1.847 -1.5783  0.2411 -1.6865
  487MOL0     H65705   4.975   1.364   1.645  2.6928  2.1281  0.0697
  487MOL0     H65706   5.014   1.582   1.404 -0.1544 -0.2397 -0.4990
  487MOL0     H65707   4.880   1.471   1.364 -0.0108 -1.3529  0.1146
  487MOL0     H65708   4.897   1.531   1.521  1.6022 -1.9241  1.3921
  487MOL0     H65709   5.270   1.652   1.121 -0.4262  0.1523 -1.3296
  487MOL0     H65710   5.264   1.816   0.943  2.2109 -2.5707  0.6523
  487MOL0     H65711   5.240   1.863   0.728 -0.0263 -0.1195 -1.2184
  487MOL0     H65712   5.128   1.889   0.602  0.5325  0.1554 -0.1347
  487MOL0     H65713   5.078   2.123   0.722  0.7070  0.2673  1.7441
  487MOL0     H65714   5.215   2.072   0.829  0.3034 -1.7962 -0.7482
  487MOL0     H65715   5.265   2.229   0.620  1.6756 -1.3599 -1.5585
  487MOL0     H65716   5.216   2.098   0.526  0.8072  1.8309 -0.3285
  487MOL0     H65717   5.429   2.058   0.742  0.6876 -3.1745 -0.1934
  487MOL0     H65718   5.408   1.967   0.606 -0.2894  1.0906  0.1214
  487MOL0     H65719   5.616   2.126   0.583  0.0192  4.1214  3.4816
  487MOL0     H65720   5.513   2.257   0.579 -3.5998 -0.0262  0.2487
  487MOL0     H65721   5.542   2.030   0.378 -0.6608 -0.3576 -2.6443
  487MOL0     H65722   5.406   2.141   0.378 -1.0961 -0.3910  2.4421
  487MOL0     H65723   5.708   2.202   0.368 -0.9692 -0.1638  0.7149
  487MOL0     H65724   5.598   2.336   0.353 -1.5340  0.4916 -2.4381
  487MOL0     H65725   5.604   2.106   0.156 -2.7387  0.3807  0.7282
  487MOL0     H65726   5.686   2.249   0.121 -0.5385  1.3438  0.2414
  487MOL0     H65727   4.868   1.699   0.842  0.8661  2.5010 -1.3030
  487MOL0     H65728   4.873   1.523   1.027  0.2381 -0.6020 -2.7824
  487MOL0     H65729   5.326   1.191   1.345  1.8019  0.4207  1.8132
  487MOL0     H65730   5.273   1.069   1.557  1.0979  0.8144  2.8368
  487MOL0     H65731   4.265   1.039   3.007  3.5962 -2.6962  1.0773
  487MOL0     H65732   4.418   0.870   2.944 -0.4884  3.4827  2.3470
  487MOL0     H65733   4.443   0.367   2.896  1.7873 -0.7062  0.6583
  487MOL0     H65734   4.552   0.176   2.810  2.8513 -0.1678  0.8705
  487MOL0     H65735   4.800   0.109   2.761  0.4903 -0.5212 -0.0181
  487MOL0     H65736   4.656   0.021   2.701 -0.3035 -0.0793  0.5856
  487MOL0     H65737   4.929   0.025   2.569  1.1141 -2.1298 -1.4299
  487MOL0     H65738   4.785  -0.078   2.530 -1.8343  2.6943  0.4894
  487MOL0     H65739   4.804  -0.173   2.770  1.5192 -3.2629  0.6905
  487MOL0     H65740   4.957  -0.076   2.775  1.1744  0.3801 -1.1128
  487MOL0     H65741   4.902  -0.281   2.555 -0.9277  3.0171 -0.2207
  487MOL0     H65742   4.962  -0.336   2.706  1.3146  1.2291  0.2437
  487MOL0     H65743   5.333  -0.188   2.601  0.7838  2.0797  1.1471
  487MOL0     H65744   4.692   0.392   2.473 -2.3089  1.4498 -1.8299
  487MOL0     H65745   4.573   0.605   2.558  4.2535  2.2599  1.1773
  488MOL0     O65746   6.362   0.467  11.066  0.9755 -0.1862 -0.6702
  488MOL0     C65747   6.262   0.518  11.008 -0.0927 -1.4095 -0.6957
  488MOL0     O65748   6.146   0.562  11.064  0.0983  0.9647 -0.6113
  488MOL0     C65749   6.120   0.508  11.190 -1.1212 -1.0782  0.6401
  488MOL0     C65750   6.088   0.594  11.301  0.0428  0.1281  0.2216
  488MOL0     C65751   6.053   0.537  11.422  0.3180  0.1453 -0.5229
  488MOL0     C65752   6.040   0.399  11.442  0.1006  0.1681 -0.1265
  488MOL0     O65753   5.983   0.357  11.566 -0.2239  0.2416  0.3069
  488MOL0     C65754   5.863   0.276  11.557  0.6337 -0.4265  0.4699
  488MOL0     C65755   5.741   0.357  11.497  0.1196  0.0374 -0.0733
  488MOL0     C65756   5.608   0.340  11.565 -0.8196 -0.4277 -0.5444
  488MOL0     C65757   5.609   0.389  11.713  0.0579 -0.0441 -0.0945
  488MOL0     C65758   5.457   0.384  11.753 -0.3982 -0.3597  0.7227
  488MOL0     C65759   5.425   0.421  11.900  0.4008 -0.5047  0.4680
  488MOL0     C65760   5.487   0.333  12.009 -0.1148  1.0028 -0.0066
  488MOL0     C65761   5.436   0.371  12.147 -0.2002  0.3929 -0.4053
  488MOL0     N65762   5.488   0.281  12.256 -0.1849 -0.1856 -0.2285
  488MOL0     C65763   5.467   0.277  12.398  0.6546  0.2711  0.3454
  488MOL0     C65764   5.552   0.181  12.450  0.4516  0.9477  0.6392
  488MOL0     C65765   5.554   0.123  12.588 -0.2838 -0.5126 -0.7729
  488MOL0     C65766   5.407   0.086  12.640 -0.0634 -0.5842 -0.5770
  488MOL0     C65767   5.413   0.072  12.794 -0.4301 -1.2548 -0.0674
  488MOL0     C65768   5.470  -0.069  12.837  0.8465 -0.1964 -0.3341
  488MOL0     O65769   5.365  -0.163  12.811  0.1332  0.1620  0.8034
  488MOL0     C65770   5.396  -0.292  12.770 -0.0709  0.4582 -1.1687
  488MOL0     C65771   5.456  -0.305  12.650 -0.9511 -1.1246  0.0382
  488MOL0     C65772   5.501  -0.422  12.600  0.5234  1.3600 -0.4265
  488MOL0     C65773   5.581  -0.415  12.474 -0.0278 -0.5851  0.3050
  488MOL0     C65774   5.465  -0.546  12.659  0.8086  0.3690 -0.4000
  488MOL0     C65775   5.505  -0.673  12.602 -1.0247 -0.6944  0.0585
  488MOL0     O65776   5.530  -0.670  12.464  0.6373 -0.1773 -0.1671
  488MOL0     C65777   5.570  -0.788  12.411 -0.1834 -0.1795  0.2050
  488MOL0     C65778   5.703  -0.809  12.404 -0.8387  0.0364 -0.2972
  488MOL0     C65779   5.763  -0.921  12.338  0.1888  0.0081  0.3711
  488MOL0     C65780   5.676  -1.009  12.275  0.0778 -0.4899  0.0026
  488MOL0     O65781   5.722  -1.120  12.206  0.3052 -0.1772 -0.6391
  488MOL0     C65782   5.857  -1.155  12.192  0.0282 -0.2194  0.1482
  488MOL0     C65783   5.863  -1.310  12.174 -0.4938  1.0636 -0.9092
  488MOL0     C65784   5.781  -1.391  12.277  0.1513  0.1884  0.5768
  488MOL0     C65785   5.802  -1.536  12.227 -0.5015 -0.1635  0.3360
  488MOL0     C65786   5.711  -1.640  12.300  0.4661 -0.8628  0.2425
  488MOL0     C65787   5.739  -1.632  12.445  0.1133 -0.3315 -0.4407
  488MOL0     C65788   5.653  -1.733  12.517 -1.0144  0.6476  0.7620
  488MOL0     C65789   5.661  -1.734  12.668 -1.0216  1.4368 -1.1708
  488MOL0    Cl65790   5.570  -1.594  12.745 -0.4363 -0.1627 -0.2816
  488MOL0     C65791   5.541  -0.990  12.280 -0.3528  0.1992  0.8013
  488MOL0     C65792   5.488  -0.880  12.352  0.0785 -0.0587 -0.5046
  488MOL0     O65793   5.535  -0.763  12.673  0.0576 -0.7507  0.6951
  488MOL0     C65794   5.395  -0.542  12.783 -0.6159 -0.2017 -0.7490
  488MOL0     C65795   5.369  -0.415  12.841 -1.2058 -0.1800  0.8259
  488MOL0     N65796   5.626   0.132  12.349 -0.7113 -0.6260  0.4590
  488MOL0     N65797   5.593   0.194  12.236 -0.0122  0.7846 -0.2952
  488MOL0     C65798   6.070   0.316  11.331  0.2953  0.3933 -0.3696
  488MOL0     C65799   6.098   0.373  11.207  1.0659  0.2865  0.9045
  488MOL0     C65800   6.292   0.571  10.869  0.5478 -0.3699  0.1331
  488MOL0     C65801   6.425   0.595  10.818  0.0805 -0.9219  0.1188
  488MOL0     C65802   6.441   0.653  10.691 -0.4912 -0.2469 -0.1093
  488MOL0     C65803   6.331   0.664  10.604 -0.6931  0.1533 -0.2561
  488MOL0     O65804   6.346   0.727  10.489 -0.1930 -0.3863  0.9904
  488MOL0     C65805   6.435   0.839  10.478 -0.0262 -0.9997 -0.4435
  488MOL0     C65806   6.397   0.915  10.349 -0.9168 -0.0936 -0.7686
  488MOL0     C65807   6.451   1.058  10.345  0.0505  0.4097 -0.4083
  488MOL0     C65808   6.414   1.133  10.215  0.8117 -0.3628 -0.3636
  488MOL0     C65809   6.409   1.051  10.088  0.8290  1.1663  0.9290
  488MOL0     C65810   6.418   0.979   9.988  0.1901 -0.4153  0.7482
  488MOL0     C65811   6.206   0.615  10.644  0.3927  1.0394 -0.7148
  488MOL0     C65812   6.186   0.583  10.781  0.9329 -0.0412 -0.0817
  488MOL0     H65813   6.096   0.701  11.281  0.5432 -0.2386 -1.8305
  488MOL0     H65814   6.014   0.611  11.492  0.0389  0.2304 -0.7686
  488MOL0     H65815   5.874   0.190  11.489  2.1129  0.8339 -0.9715
  488MOL0     H65816   5.848   0.233  11.656  0.7571 -0.3930  0.5032
  488MOL0     H65817   5.757   0.466  11.492  0.3928 -0.0108 -0.3026
  488MOL0     H65818   5.731   0.330  11.392  1.4537  2.7738 -1.0085
  488MOL0     H65819   5.525   0.390  11.514 -3.3562 -1.5074  2.2522
  488MOL0     H65820   5.607   0.232  11.582 -0.9514 -0.0663  2.3930
  488MOL0     H65821   5.656   0.315  11.777 -0.7993 -0.7462 -0.2517
  488MOL0     H65822   5.643   0.492  11.726 -0.0269  0.1203 -1.0460
  488MOL0     H65823   5.395   0.452  11.695 -0.3030 -0.0327  0.9965
  488MOL0     H65824   5.421   0.286  11.721  0.7869 -0.0201 -1.9608
  488MOL0     H65825   5.458   0.523  11.921 -1.6061 -0.0103  1.4639
  488MOL0     H65826   5.316   0.424  11.916  0.6829  0.1200  2.5927
  488MOL0     H65827   5.451   0.231  11.992 -0.0837  0.1753  3.9559
  488MOL0     H65828   5.596   0.340  12.013 -0.2213  3.1106  0.7935
  488MOL0     H65829   5.328   0.352  12.140  0.0802 -0.8523 -1.7321
  488MOL0     H65830   5.451   0.478  12.166 -3.9723  0.9210  0.5227
  488MOL0     H65831   5.388   0.330  12.451 -0.8314 -0.8523 -0.6327
  488MOL0     H65832   5.623   0.038  12.594  0.6684  0.1245 -2.2190
  488MOL0     H65833   5.591   0.206  12.650 -1.0164  0.6659 -1.8645
  488MOL0     H65834   5.371  -0.008  12.595  3.1776 -3.4310  2.1829
  488MOL0     H65835   5.337   0.167  12.618 -0.8100 -1.7540 -2.8851
  488MOL0     H65836   5.313   0.075  12.839 -0.1095 -0.4083  0.6114
  488MOL0     H65837   5.474   0.150  12.839 -2.7891  1.6369 -1.5418
  488MOL0     H65838   5.486  -0.078  12.944  2.4104 -1.9490 -0.6602
  488MOL0     H65839   5.565  -0.094  12.788  1.6083  0.5783  0.7027
  488MOL0     H65840   5.461  -0.215  12.589  0.6220 -1.4775 -0.3914
  488MOL0     H65841   5.600  -0.314  12.436 -2.4499  0.2026  0.9612
  488MOL0     H65842   5.674  -0.472  12.473 -0.6636 -1.6912 -1.5260
  488MOL0     H65843   5.521  -0.457  12.392 -1.8031  2.5632 -0.1888
  488MOL0     H65844   5.776  -0.742  12.448  1.1636 -1.0925 -1.7541
  488MOL0     H65845   5.870  -0.940  12.339  0.3779  0.4486 -2.6196
  488MOL0     H65846   5.907  -1.102  12.110 -2.3246 -0.2629 -1.4087
  488MOL0     H65847   5.920  -1.152  12.282  3.7286  1.1116 -2.2229
  488MOL0     H65848   5.827  -1.344  12.077 -1.6856 -0.4230  0.0055
  488MOL0     H65849   5.967  -1.345  12.179 -0.6424  0.6766 -0.4861
  488MOL0     H65850   5.676  -1.364  12.290 -0.2899 -1.8635  1.7997
  488MOL0     H65851   5.813  -1.390  12.382  0.6326  0.6305  0.4321
  488MOL0     H65852   5.770  -1.536  12.122 -0.7065  0.1601  0.3985
  488MOL0     H65853   5.904  -1.575  12.229 -0.8384 -1.0395  0.8573
  488MOL0     H65854   5.742  -1.740  12.267  1.7589 -0.2607 -0.4823
  488MOL0     H65855   5.607  -1.624  12.270  0.7930  0.2103 -0.3883
  488MOL0     H65856   5.840  -1.662  12.474 -0.1156  0.1723  0.9726
  488MOL0     H65857   5.710  -1.535  12.486 -1.9384 -0.8702 -0.4880
  488MOL0     H65858   5.698  -1.827  12.485  2.6825  2.2318  0.7690
  488MOL0     H65859   5.552  -1.719  12.476 -0.8166  1.9247  0.6586
  488MOL0     H65860   5.765  -1.717  12.698 -2.3989  4.2847  2.9692
  488MOL0     H65861   5.624  -1.826  12.713 -0.8313  2.8225  2.0611
  488MOL0     H65862   5.469  -1.061  12.241  0.1629 -0.5473  1.1828
  488MOL0     H65863   5.386  -0.844  12.355  0.6788  1.6882  0.4372
  488MOL0     H65864   5.389  -0.631  12.845  4.7438 -0.8501 -0.6745
  488MOL0     H65865   5.314  -0.411  12.935 -0.2727 -0.2568  1.3891
  488MOL0     H65866   6.046   0.211  11.342 -0.5586  0.7843  6.5203
  488MOL0     H65867   6.115   0.319  11.115  0.1255  0.4005  0.6540
  488MOL0     H65868   6.511   0.580  10.884  0.4775  0.1268 -0.1334
  488MOL0     H65869   6.543   0.669  10.658  0.0865 -3.2188  0.0482
  488MOL0     H65870   6.411   0.913  10.555  0.8259  2.1054 -2.9471
  488MOL0     H65871   6.543   0.825  10.470  0.3107  1.8222 -2.1409
  488MOL0     H65872   6.288   0.911  10.361 -0.8014 -1.2920  0.0190
  488MOL0     H65873   6.426   0.872  10.253  0.4687  2.8802 -1.7965
  488MOL0     H65874   6.559   1.061  10.359  0.1642  0.7316 -1.2904
  488MOL0     H65875   6.391   1.108  10.422  1.2935  1.4356 -0.0729
  488MOL0     H65876   6.487   1.211  10.196  1.0327 -0.9018 -1.8946
  488MOL0     H65877   6.315   1.175  10.235  0.8833 -1.1217  1.8574
  488MOL0     H65878   6.414   0.925   9.895  1.6555 -0.5463  0.7355
  488MOL0     H65879   6.125   0.630  10.573 -1.6059 -5.3998 -0.4487
  488MOL0     H65880   6.082   0.564  10.805  0.4799 -0.6135 -2.2640
  489MOL0     O65881   0.961   8.114   0.616  0.2598  0.0043  0.4351
  489MOL0     C65882   0.881   8.176   0.540 -0.4782  0.2526 -0.0658
  489MOL0     O65883   0.755   8.137   0.519 -0.0516  0.0972 -0.4116
  489MOL0     C65884   0.683   8.081   0.615 -0.1570 -0.8272 -0.8127
  489MOL0     C65885   0.687   8.114   0.753  0.0138 -0.2252  0.1849
  489MOL0     C65886   0.624   8.034   0.853  0.5025 -0.7869  0.9491
  489MOL0     C65887   0.560   7.919   0.809  1.1385  0.0643  0.1045
  489MOL0     O65888   0.520   7.834   0.908 -1.1332  0.6855  0.4197
  489MOL0     C65889   0.446   7.717   0.876 -0.6906  1.3359  1.6387
  489MOL0     C65890   0.357   7.660   0.984  1.1619 -0.8540 -0.6845
  489MOL0     C65891   0.286   7.777   1.063 -0.0483  0.4943  0.8093
  489MOL0     C65892   0.219   7.714   1.186 -0.1374 -0.2823 -0.1253
  489MOL0     C65893   0.162   7.834   1.266 -0.0473 -0.2684  0.0426
  489MOL0     C65894   0.052   7.795   1.370 -0.5821 -0.8983  0.2313
  489MOL0     C65895   0.122   7.710   1.473 -0.4274 -0.4129  0.2552
  489MOL0     C65896   0.035   7.597   1.527  0.1804 -0.3460  0.0605
  489MOL0     N65897  -0.088   7.651   1.588 -0.2493  0.3264 -0.4247
  489MOL0     C65898  -0.210   7.655   1.528 -0.5762  0.4942  0.4358
  489MOL0     C65899  -0.283   7.729   1.615  0.4289  0.9866  0.5748
  489MOL0     C65900  -0.422   7.749   1.582  0.4293  0.9071 -0.0807
  489MOL0     C65901  -0.495   7.607   1.604 -0.8332  0.2833 -1.1272
  489MOL0     C65902  -0.478   7.541   1.745 -0.5487  0.8670 -0.0077
  489MOL0     C65903  -0.559   7.416   1.769  0.6070 -0.4791 -0.1791
  489MOL0     O65904  -0.531   7.371   1.909 -0.7042  0.2261  0.1604
  489MOL0     C65905  -0.603   7.260   1.951  0.5131 -0.0278 -0.8375
  489MOL0     C65906  -0.697   7.277   2.057 -0.9772 -0.0835 -0.7709
  489MOL0     C65907  -0.789   7.184   2.093 -0.0326 -0.4430  0.0607
  489MOL0     C65908  -0.880   7.217   2.206 -0.2600 -0.3962  0.6730
  489MOL0     C65909  -0.779   7.052   2.035  0.2461  0.8684  0.8732
  489MOL0     C65910  -0.856   6.934   2.079 -0.8520  1.9792  0.2395
  489MOL0     O65911  -0.983   6.954   2.090  0.5376 -0.5907  0.1504
  489MOL0     C65912  -1.061   6.862   2.158 -0.3157  0.1955 -0.6499
  489MOL0     C65913  -1.128   6.899   2.280 -0.7046 -0.4999  0.2101
  489MOL0     C65914  -1.211   6.805   2.348  0.6322 -0.6349 -0.6354
  489MOL0     C65915  -1.222   6.667   2.304  0.2959  0.6215 -0.6307
  489MOL0     O65916  -1.274   6.559   2.377 -1.2582 -0.0694  0.5289
  489MOL0     C65917  -1.354   6.583   2.491  0.9156 -0.8351 -0.5155
  489MOL0     C65918  -1.490   6.656   2.438 -0.6740 -0.0072  0.4145
  489MOL0     C65919  -1.556   6.719   2.563  0.6868 -0.8378  0.0258
  489MOL0     C65920  -1.644   6.824   2.507  0.6182 -0.1134 -0.1951
  489MOL0     C65921  -1.732   6.902   2.602  0.2613  0.1993 -0.4302
  489MOL0     C65922  -1.653   6.991   2.711  0.3169  0.0872 -0.3050
  489MOL0     C65923  -1.557   7.096   2.656  0.0303 -0.6448 -0.3294
  489MOL0     C65924  -1.629   7.198   2.553 -0.1234  0.1460 -1.2872
  489MOL0    Cl65925  -1.759   7.310   2.622 -0.4829 -0.2259  0.6550
  489MOL0     C65926  -1.155   6.643   2.182  0.8719 -0.7010 -0.1585
  489MOL0     C65927  -1.087   6.744   2.112 -0.7034  0.0987  0.1685
  489MOL0     O65928  -0.796   6.830   2.088  0.2317 -0.3708 -0.1577
  489MOL0     C65929  -0.685   7.034   1.932 -0.5073  0.8842  0.7115
  489MOL0     C65930  -0.604   7.138   1.891 -0.8419 -0.7317  0.3900
  489MOL0     N65931  -0.214   7.750   1.733 -0.0775 -0.6678 -0.2232
  489MOL0     N65932  -0.100   7.694   1.716 -0.7370  0.3864  0.6730
  489MOL0     C65933   0.537   7.892   0.676 -0.0916 -0.0739 -0.4846
  489MOL0     C65934   0.607   7.968   0.582 -1.0520 -0.2653 -0.0316
  489MOL0     C65935   0.941   8.289   0.452 -0.0763  0.2942  0.4738
  489MOL0     C65936   1.082   8.291   0.426 -0.3494  1.3323 -0.9996
  489MOL0     C65937   1.138   8.359   0.319  0.3839 -0.7461 -0.0022
  489MOL0     C65938   1.051   8.443   0.240 -0.1181  0.4566  0.0734
  489MOL0     O65939   1.095   8.509   0.127 -0.6870  0.0893 -0.1151
  489MOL0     C65940   1.120   8.644   0.117 -0.3399  0.2178  1.2753
  489MOL0     C65941   1.127   8.699  -0.020  0.1966  0.1308 -0.4314
  489MOL0     C65942   1.241   8.626  -0.111  0.2644  0.3491 -0.5767
  489MOL0     C65943   1.386   8.652  -0.061  0.0036 -0.1041 -0.4183
  489MOL0     C65944   1.423   8.794  -0.066  1.3360  0.3438 -0.9126
  489MOL0     C65945   1.444   8.916  -0.057 -1.0579  0.2886 -0.3475
  489MOL0     C65946   0.916   8.453   0.276  0.1527  0.9262 -0.2141
  489MOL0     C65947   0.860   8.379   0.379 -0.4212  0.0840 -1.0816
  489MOL0     H65948   0.745   8.200   0.784 -3.7801  1.9158  2.1741
  489MOL0     H65949   0.641   8.046   0.960 -1.4697  1.3398  1.1075
  489MOL0     H65950   0.381   7.722   0.788  0.9939 -0.7688  0.1479
  489MOL0     H65951   0.521   7.638   0.862 -0.3111  1.9795 -0.2248
  489MOL0     H65952   0.278   7.595   0.946  3.7471 -2.0318 -4.6893
  489MOL0     H65953   0.414   7.602   1.057  1.6813 -0.0062 -0.4018
  489MOL0     H65954   0.344   7.860   1.102 -1.5682  0.9867  2.1424
  489MOL0     H65955   0.204   7.818   1.004 -1.0829 -0.3423  1.6083
  489MOL0     H65956   0.142   7.641   1.160 -1.0386 -0.1626  2.0529
  489MOL0     H65957   0.300   7.659   1.233 -0.5233 -0.3626  0.4602
  489MOL0     H65958   0.245   7.886   1.314  1.6931 -3.0809  0.3255
  489MOL0     H65959   0.110   7.899   1.196  0.8536  0.4236  0.0022
  489MOL0     H65960   0.004   7.882   1.417  0.7425 -0.3932  0.7001
  489MOL0     H65961  -0.033   7.747   1.320  0.0541  0.3920 -2.2685
  489MOL0     H65962   0.219   7.670   1.444 -0.3985  1.1543 -2.0804
  489MOL0     H65963   0.141   7.779   1.555  1.8348  0.8564 -1.2438
  489MOL0     H65964   0.091   7.548   1.607  1.2734 -1.3371 -1.2784
  489MOL0     H65965   0.023   7.521   1.450  1.9078 -0.3671 -0.2242
  489MOL0     H65966  -0.237   7.645   1.423  0.8681  2.3798 -0.1691
  489MOL0     H65967  -0.462   7.831   1.643 -1.8676  1.3459 -2.0500
  489MOL0     H65968  -0.432   7.791   1.481 -0.2103 -2.4412 -1.5320
  489MOL0     H65969  -0.461   7.535   1.529  2.7700 -0.0984  0.6515
  489MOL0     H65970  -0.599   7.625   1.576 -1.1723 -2.9289 -2.3806
  489MOL0     H65971  -0.510   7.609   1.825  0.2158 -0.8991  1.8722
  489MOL0     H65972  -0.374   7.514   1.763 -0.7425  0.5129  0.5800
  489MOL0     H65973  -0.538   7.326   1.709 -2.6473 -0.6108 -1.3344
  489MOL0     H65974  -0.664   7.438   1.747  0.8473 -0.3641 -1.2959
  489MOL0     H65975  -0.688   7.376   2.100  0.4621  0.1557 -1.5441
  489MOL0     H65976  -0.856   7.148   2.287  1.8751 -0.9239 -0.3239
  489MOL0     H65977  -0.864   7.320   2.241 -2.8882  1.9560 -3.9868
  489MOL0     H65978  -0.987   7.215   2.187 -0.0895 -0.6708 -0.3371
  489MOL0     H65979  -1.124   7.001   2.315  1.9744  1.0955 -3.9263
  489MOL0     H65980  -1.248   6.819   2.449 -0.7577  1.3793 -1.3510
  489MOL0     H65981  -1.375   6.486   2.537 -0.4251 -1.8903 -3.1097
  489MOL0     H65982  -1.298   6.641   2.564  2.2510  0.4475 -2.4629
  489MOL0     H65983  -1.467   6.741   2.374 -2.7387  0.7592  0.6189
  489MOL0     H65984  -1.555   6.584   2.387 -4.2227  1.5368  2.4072
  489MOL0     H65985  -1.471   6.757   2.621  2.2436 -2.0877 -1.3191
  489MOL0     H65986  -1.612   6.644   2.620 -1.0295 -0.8474 -1.5678
  489MOL0     H65987  -1.587   6.885   2.436  1.2171 -2.9381 -2.3466
  489MOL0     H65988  -1.719   6.775   2.444  0.8943  1.5354 -1.8908
  489MOL0     H65989  -1.803   6.836   2.652  3.1694 -0.8277  2.7066
  489MOL0     H65990  -1.791   6.971   2.540  3.5282  1.6455 -2.2279
  489MOL0     H65991  -1.727   7.048   2.768  0.2700  0.0809 -0.3591
  489MOL0     H65992  -1.600   6.926   2.781 -2.2351 -1.3985  0.3340
  489MOL0     H65993  -1.475   7.044   2.603  1.0701 -0.2606  0.8647
  489MOL0     H65994  -1.523   7.166   2.732  1.6411 -1.5673 -0.1394
  489MOL0     H65995  -1.675   7.139   2.473 -0.4989 -0.9752 -0.2642
  489MOL0     H65996  -1.552   7.271   2.524  1.0576 -1.3505 -2.0835
  489MOL0     H65997  -1.156   6.546   2.135 -2.8311  0.8693 -3.9630
  489MOL0     H65998  -1.033   6.714   2.022 -1.1627  0.9276 -0.3951
  489MOL0     H65999  -0.689   6.933   1.894  0.1202 -0.4958  4.0105
  489MOL0     H66000  -0.531   7.136   1.811 -2.4543 -1.8112 -1.1219
  489MOL0     H66001   0.480   7.805   0.646  0.0797 -0.6477  0.7529
  489MOL0     H66002   0.628   7.943   0.478  0.8663 -2.1552  0.7315
  489MOL0     H66003   1.155   8.227   0.477 -2.0844 -0.3926 -0.5613
  489MOL0     H66004   1.244   8.350   0.297  0.2541 -1.5621 -0.3606
  489MOL0     H66005   1.047   8.702   0.174 -1.5472 -0.5013  0.4884
  489MOL0     H66006   1.218   8.671   0.159  0.5627  2.3662 -1.9027
  489MOL0     H66007   1.155   8.804  -0.005 -3.5946  1.1992  0.2573
  489MOL0     H66008   1.038   8.699  -0.083 -0.8525  1.1707  0.9727
  489MOL0     H66009   1.232   8.662  -0.214 -2.2915  0.9246 -0.2249
  489MOL0     H66010   1.224   8.518  -0.119  4.6713 -0.4884 -0.8574
  489MOL0     H66011   1.453   8.605  -0.132 -0.7627  2.0336 -2.7027
  489MOL0     H66012   1.406   8.619   0.042 -0.0468 -0.4479 -0.5189
  489MOL0     H66013   1.451   9.021  -0.040 -1.2541  0.0596  1.3326
  489MOL0     H66014   0.850   8.521   0.224  1.5222  1.5488 -1.2071
  489MOL0     H66015   0.752   8.385   0.392 -0.2594  0.4419  0.2453
  490MOL0     O66016   0.903   3.500   8.522 -0.0970  0.0798  0.0308
  490MOL0     C66017   1.000   3.575   8.519 -0.8522 -0.3511  0.6889
  490MOL0     O66018   1.091   3.598   8.618  0.5117 -0.2752  0.1448
  490MOL0     C66019   1.069   3.540   8.742 -0.4622 -0.5241  0.2914
  490MOL0     C66020   1.184   3.520   8.810  0.2497 -0.0710 -0.3627
  490MOL0     C66021   1.170   3.463   8.933  0.4022  0.5253  0.1169
  490MOL0     C66022   1.050   3.436   8.993 -0.5435 -0.2516 -0.0995
  490MOL0     O66023   1.028   3.392   9.123  0.4195  0.3820 -0.3420
  490MOL0     C66024   1.129   3.417   9.222 -0.1201  0.3161 -0.3764
  490MOL0     C66025   1.090   3.518   9.324 -0.1077  0.0996  0.2688
  490MOL0     C66026   1.187   3.512   9.448 -0.0499 -0.5608  0.1815
  490MOL0     C66027   1.142   3.604   9.562  0.0082  0.7305 -0.0552
  490MOL0     C66028   1.221   3.586   9.696 -0.7636  0.1699  0.0276
  490MOL0     C66029   1.169   3.674   9.805  0.0846 -0.3534 -0.8435
  490MOL0     C66030   1.236   3.639   9.946  1.2947 -0.9451 -0.0266
  490MOL0     C66031   1.393   3.635   9.940  0.0001 -0.5450 -0.1620
  490MOL0     N66032   1.431   3.770   9.964 -0.4323 -0.4635  0.1916
  490MOL0     C66033   1.490   3.862   9.877 -0.4939  0.1672  0.1461
  490MOL0     C66034   1.505   3.978   9.938 -0.4814 -1.1496 -0.0186
  490MOL0     C66035   1.548   4.112   9.887 -0.6875  0.0917  0.4099
  490MOL0     C66036   1.703   4.120   9.868  0.7582  0.4098 -0.0799
  490MOL0     C66037   1.765   4.253   9.860 -0.0183 -1.1169 -0.5715
  490MOL0     C66038   1.718   4.337   9.736  0.8128  0.2399  0.2023
  490MOL0     O66039   1.749   4.265   9.623  0.2518 -0.0012  0.1017
  490MOL0     C66040   1.710   4.305   9.500  0.3680  0.2744 -0.3722
  490MOL0     C66041   1.745   4.232   9.389  0.5045  0.8470 -0.3445
  490MOL0     C66042   1.705   4.263   9.261  0.1647  0.5589  0.1187
  490MOL0     C66043   1.745   4.165   9.149 -0.2014  0.7189  0.9006
  490MOL0     C66044   1.624   4.374   9.244  0.2196 -0.4146  0.1059
  490MOL0     C66045   1.567   4.417   9.118 -0.7925 -0.4608  0.0900
  490MOL0     O66046   1.639   4.387   9.005  0.1631  0.1874 -0.9021
  490MOL0     C66047   1.594   4.432   8.891 -0.4824  0.0104 -0.2586
  490MOL0     C66048   1.653   4.538   8.817  0.0174 -0.1890 -1.3129
  490MOL0     C66049   1.595   4.586   8.703  0.5660 -0.2947  0.8543
  490MOL0     C66050   1.466   4.544   8.661 -0.4549  1.1671 -0.4411
  490MOL0     O66051   1.407   4.586   8.543 -0.5094 -0.0846 -0.0512
  490MOL0     C66052   1.276   4.549   8.512  0.9474  0.1749 -0.3925
  490MOL0     C66053   1.166   4.630   8.599  0.2358  0.3333 -0.6153
  490MOL0     C66054   1.040   4.544   8.631 -1.2902 -0.6332  0.1973
  490MOL0     C66055   0.955   4.592   8.749  0.4186  0.0285  0.4334
  490MOL0     C66056   1.014   4.542   8.881 -0.2911  0.2340 -0.1087
  490MOL0     C66057   0.962   4.619   9.006  0.3543  0.8436 -0.2769
  490MOL0     C66058   1.006   4.554   9.149  0.9207  0.0359 -0.1646
  490MOL0     C66059   0.894   4.603   9.236 -0.9728  0.0714 -0.6501
  490MOL0    Cl66060   0.929   4.567   9.409  0.1419  0.0909 -0.2887
  490MOL0     C66061   1.411   4.437   8.739  0.7800  0.3858  0.3556
  490MOL0     C66062   1.469   4.387   8.849  0.1925  0.7121 -0.4610
  490MOL0     O66063   1.475   4.500   9.129  0.0615 -0.3366 -0.1952
  490MOL0     C66064   1.591   4.455   9.351 -0.2199  0.5584 -0.0596
  490MOL0     C66065   1.636   4.417   9.479  0.4495 -0.7583 -0.0746
  490MOL0     N66066   1.465   3.954  10.076 -0.5060 -0.2543  0.1742
  490MOL0     N66067   1.429   3.836  10.086  0.4805 -0.0081 -0.4889
  490MOL0     C66068   0.928   3.451   8.925  0.0884 -0.5061 -0.3451
  490MOL0     C66069   0.938   3.514   8.799  0.1764  0.2771 -0.3997
  490MOL0     C66070   1.025   3.641   8.380  0.2694 -1.1118 -0.7447
  490MOL0     C66071   1.106   3.759   8.367 -0.7651 -0.2229 -0.4794
  490MOL0     C66072   1.146   3.802   8.240 -0.7345  0.6468  0.1229
  490MOL0     C66073   1.098   3.740   8.126  0.4615  0.2857 -0.4318
  490MOL0     O66074   1.159   3.749   8.011 -0.1311  0.5693  0.1955
  490MOL0     C66075   1.183   3.882   7.954  1.0036  0.1314  0.2472
  490MOL0     C66076   1.060   3.945   7.884 -0.2238 -0.0816 -0.7118
  490MOL0     C66077   0.984   3.845   7.795  1.3320 -0.3566  0.2778
  490MOL0     C66078   0.898   3.927   7.700 -0.4881 -0.4179 -0.3896
  490MOL0     C66079   0.874   3.836   7.591  0.6775 -0.0383  1.0568
  490MOL0     C66080   0.830   3.769   7.500 -0.5177 -0.5881  0.1677
  490MOL0     C66081   1.007   3.635   8.143 -0.0211  0.5973 -0.5630
  490MOL0     C66082   0.970   3.588   8.265  0.3768 -0.0776 -0.1268
  490MOL0     H66083   1.278   3.557   8.771 -0.0001  2.1470  0.9700
  490MOL0     H66084   1.262   3.453   8.988  1.1535  1.1261 -0.9940
  490MOL0     H66085   1.134   3.325   9.282  2.7078 -0.4015 -1.5435
  490MOL0     H66086   1.226   3.443   9.179 -0.3451 -0.0561 -1.1160
  490MOL0     H66087   1.088   3.622   9.290 -0.2007 -0.2412 -0.8194
  490MOL0     H66088   0.992   3.490   9.364  0.1715  1.0120  1.6730
  490MOL0     H66089   1.195   3.407   9.478  0.3521  0.1815  2.9887
  490MOL0     H66090   1.289   3.532   9.414  0.2437 -1.8874  0.2302
  490MOL0     H66091   1.149   3.710   9.537  0.4106  1.1317  1.6367
  490MOL0     H66092   1.040   3.576   9.591  0.1758  1.8739  1.7953
  490MOL0     H66093   1.214   3.482   9.728  3.0052  0.2806  1.8011
  490MOL0     H66094   1.327   3.605   9.679 -0.3787 -0.5795  1.3972
  490MOL0     H66095   1.192   3.774   9.767  1.0676 -1.0096 -2.0692
  490MOL0     H66096   1.061   3.656   9.808  0.3934 -2.3380  0.0833
  490MOL0     H66097   1.204   3.718  10.016  3.7845 -0.1202  0.2689
  490MOL0     H66098   1.196   3.545   9.984  0.7709 -0.0118  1.8671
  490MOL0     H66099   1.439   3.607   9.845  2.1447  0.6416  0.4555
  490MOL0     H66100   1.418   3.580  10.032  2.4049 -2.2728 -1.7148
  490MOL0     H66101   1.515   3.830   9.777 -0.3406  3.7810 -1.1176
  490MOL0     H66102   1.495   4.118   9.792  1.7394  1.8960 -0.9326
  490MOL0     H66103   1.516   4.188   9.959  1.1254  2.6131 -1.2812
  490MOL0     H66104   1.744   4.064   9.783  2.1653  1.7503 -0.3277
  490MOL0     H66105   1.743   4.066   9.954  1.8573  0.9026 -0.2664
  490MOL0     H66106   1.872   4.240   9.846 -0.2572 -3.0819 -0.7611
  490MOL0     H66107   1.741   4.316   9.947 -0.1597  1.0830 -2.1070
  490MOL0     H66108   1.768   4.434   9.749  0.0514  1.0636 -2.4730
  490MOL0     H66109   1.609   4.347   9.739  0.8107  0.1670  0.4682
  490MOL0     H66110   1.806   4.142   9.397 -0.2841  0.4106  1.0231
  490MOL0     H66111   1.801   4.211   9.067 -2.4862  1.6509 -0.2422
  490MOL0     H66112   1.789   4.070   9.179 -0.9805 -0.9343 -2.6174
  490MOL0     H66113   1.647   4.139   9.108  0.1872 -0.2364  0.5479
  490MOL0     H66114   1.750   4.571   8.853 -1.3534  0.3405  2.2839
  490MOL0     H66115   1.636   4.669   8.645 -2.4232  2.3922  2.2402
  490MOL0     H66116   1.257   4.567   8.406  3.4688  0.7640 -0.7988
  490MOL0     H66117   1.263   4.442   8.532  1.9705  0.3983  1.7818
  490MOL0     H66118   1.210   4.660   8.694 -0.6456 -0.3259  0.0207
  490MOL0     H66119   1.139   4.723   8.548 -1.0249  0.3070 -0.0404
  490MOL0     H66120   1.056   4.436   8.633  0.4683 -0.4288 -0.8252
  490MOL0     H66121   0.982   4.558   8.540  2.8334 -1.6642 -2.8624
  490MOL0     H66122   0.934   4.699   8.757 -2.7204 -0.2162 -2.1838
  490MOL0     H66123   0.855   4.552   8.728 -0.7355  3.2552 -0.9388
  490MOL0     H66124   1.121   4.557   8.900 -0.5479 -0.6776  2.3618
  490MOL0     H66125   0.991   4.437   8.901  1.3019 -1.0861 -4.2019
  490MOL0     H66126   0.984   4.725   9.016 -1.1824  1.2072 -0.5736
  490MOL0     H66127   0.853   4.613   9.003  0.3508  1.0001 -3.3595
  490MOL0     H66128   1.102   4.601   9.174  1.7938 -2.9207  2.6065
  490MOL0     H66129   1.009   4.445   9.153  1.3471  0.0605  0.2246
  490MOL0     H66130   0.802   4.545   9.223 -1.2803  0.1455  0.9725
  490MOL0     H66131   0.884   4.709   9.212  1.7599  0.3393 -1.0206
  490MOL0     H66132   1.314   4.394   8.715  0.7061  0.4539  0.5265
  490MOL0     H66133   1.418   4.313   8.910 -0.2472 -0.0537 -1.7316
  490MOL0     H66134   1.549   4.555   9.349 -2.9415 -0.2337  4.2053
  490MOL0     H66135   1.601   4.489   9.552 -2.4521 -0.1893 -1.8555
  490MOL0     H66136   0.833   3.428   8.970 -0.0992 -0.1229 -0.5390
  490MOL0     H66137   0.847   3.548   8.751 -0.2790 -1.3981 -0.7658
  490MOL0     H66138   1.161   3.803   8.450  1.2356 -1.8197 -0.8658
  490MOL0     H66139   1.232   3.868   8.236  0.2630 -0.6563 -1.3015
  490MOL0     H66140   1.226   3.952   8.026  1.2002 -0.5740  0.8320
  490MOL0     H66141   1.249   3.867   7.868 -1.5522 -0.0579 -1.8017
  490MOL0     H66142   1.111   4.028   7.833  1.0854  0.6317  1.5834
  490MOL0     H66143   0.997   4.008   7.948  2.2683  4.1750 -1.9834
  490MOL0     H66144   0.926   3.769   7.850  1.5267 -0.9122 -0.2701
  490MOL0     H66145   1.049   3.778   7.739 -0.7517 -1.4141 -1.0231
  490MOL0     H66146   0.952   4.013   7.658 -0.9946 -0.0556 -0.3117
  490MOL0     H66147   0.809   3.957   7.756 -0.4931 -2.1787  0.6299
  490MOL0     H66148   0.804   3.701   7.422 -1.2153  0.0383 -0.1625
  490MOL0     H66149   0.977   3.579   8.055  0.4254 -0.0250 -0.3251
  490MOL0     H66150   0.906   3.501   8.274 -0.1417  0.3331  0.2075
  491MOL0     O66151   8.468  10.083  11.430  0.3049 -0.1529 -0.6209
  491MOL0     C66152   8.545   9.998  11.395  0.1346  0.2834 -0.8277
  491MOL0     O66153   8.604   9.903  11.479  0.4426  0.5392  0.2806
  491MOL0     C66154   8.559   9.892  11.612 -0.1087  0.3910  0.3212
  491MOL0     C66155   8.512   9.996  11.696 -0.1027  0.0253  0.8812
  491MOL0     C66156   8.479   9.967  11.827  0.5291  0.1991 -0.2801
  491MOL0     C66157   8.468   9.834  11.877  0.3424 -0.6043  0.0952
  491MOL0     O66158   8.430   9.793  12.001 -0.3424 -0.3189 -0.6461
  491MOL0     C66159   8.379   9.887  12.100  0.1410  0.9003  0.1169
  491MOL0     C66160   8.493   9.925  12.190  0.2128  0.2347 -0.0208
  491MOL0     C66161   8.543   9.806  12.280 -0.2639  0.3253 -0.8069
  491MOL0     C66162   8.678   9.838  12.348  0.1929 -0.0787  0.9404
  491MOL0     C66163   8.749   9.724  12.437 -0.6592 -0.5804 -0.9639
  491MOL0     C66164   8.665   9.668  12.545 -1.1227  0.0688  0.4131
  491MOL0     C66165   8.738   9.551  12.613 -0.3309  0.4290  0.0657
  491MOL0     C66166   8.652   9.512  12.731 -0.1114 -0.4723  0.3784
  491MOL0     N66167   8.715   9.404  12.806 -0.5872 -0.3085 -0.2778
  491MOL0     C66168   8.821   9.404  12.900  0.2535 -0.8000  0.3833
  491MOL0     C66169   8.852   9.277  12.934  0.8541 -0.5108  0.9495
  491MOL0     C66170   8.939   9.220  13.039  0.2019 -0.0899  0.1385
  491MOL0     C66171   8.974   9.314  13.146 -0.1827 -0.1851  0.6807
  491MOL0     C66172   8.849   9.342  13.234 -0.8200  0.0636  0.1049
  491MOL0     C66173   8.898   9.397  13.365  0.8336  0.1642 -0.3599
  491MOL0     O66174   8.952   9.530  13.355 -0.7656  0.3931  0.0683
  491MOL0     C66175   8.881   9.631  13.301  0.3883  0.5306  1.1567
  491MOL0     C66176   8.934   9.708  13.200 -0.3930 -0.1350 -0.4531
  491MOL0     C66177   8.859   9.801  13.126  0.2653 -0.1680  0.8493
  491MOL0     C66178   8.923   9.891  13.028  0.2826  0.2584 -0.2344
  491MOL0     C66179   8.722   9.813  13.145 -0.1034 -0.3579  0.0042
  491MOL0     C66180   8.624   9.903  13.078  0.9975  0.4460  0.1984
  491MOL0     O66181   8.506   9.949  13.139 -0.1299 -1.0717  0.1862
  491MOL0     C66182   8.426  10.065  13.113 -0.4732 -0.5038  0.3197
  491MOL0     C66183   8.461  10.161  13.014  0.3687 -0.4057  0.3578
  491MOL0     C66184   8.386  10.288  13.020  0.9274 -0.0071  0.4748
  491MOL0     C66185   8.268  10.305  13.094  0.3016 -0.3045  0.3397
  491MOL0     O66186   8.165  10.407  13.075 -0.8948  0.5981  1.0759
  491MOL0     C66187   8.191  10.500  12.974 -0.0380 -0.4064  0.0702
  491MOL0     C66188   8.067  10.585  12.948  0.6641  0.2551  0.1034
  491MOL0     C66189   8.076  10.662  12.818 -0.4452  0.2364  0.1667
  491MOL0     C66190   7.946  10.721  12.755  0.2163  0.5125  0.1029
  491MOL0     C66191   7.971  10.840  12.655 -0.1078 -0.6285 -0.1560
  491MOL0     C66192   8.046  10.805  12.530 -0.4645 -0.0855 -0.0648
  491MOL0     C66193   8.100  10.924  12.446  0.1850  0.8421 -0.0417
  491MOL0     C66194   8.002  11.043  12.431 -0.1506  0.4265  0.9662
  491MOL0    Cl66195   8.045  11.128  12.282 -0.0516  0.2159 -0.2527
  491MOL0     C66196   8.226  10.194  13.170  0.4861 -0.0842 -0.6336
  491MOL0     C66197   8.311  10.083  13.185 -0.4745  0.2915 -0.8090
  491MOL0     O66198   8.642   9.910  12.957  0.3366  0.4282 -0.4892
  491MOL0     C66199   8.671   9.750  13.266  0.6308  0.5583 -0.6150
  491MOL0     C66200   8.748   9.659  13.333 -0.5819  0.5958  0.0298
  491MOL0     N66201   8.771   9.198  12.853 -0.6329 -0.2996  0.0582
  491MOL0     N66202   8.699   9.272  12.768  0.0455  1.1380 -0.3951
  491MOL0     C66203   8.493   9.735  11.787  0.4993 -0.4644 -0.3708
  491MOL0     C66204   8.540   9.761  11.664 -0.7156  0.5645 -0.1401
  491MOL0     C66205   8.614  10.021  11.274  0.4229  0.5985  0.6770
  491MOL0     C66206   8.651  10.147  11.226 -0.1152  0.2721 -0.6195
  491MOL0     C66207   8.709  10.172  11.099  0.1176  0.1962 -0.2573
  491MOL0     C66208   8.718  10.057  11.016 -0.1943  0.1065  0.0261
  491MOL0     O66209   8.761  10.058  10.889  0.1304 -0.7257 -0.3799
  491MOL0     C66210   8.738  10.176  10.797  0.0773  0.0899  0.3185
  491MOL0     C66211   8.879  10.225  10.758 -0.5622 -0.3148  0.1436
  491MOL0     C66212   8.964  10.301  10.862 -0.3561  0.8891 -0.6619
  491MOL0     C66213   8.919  10.442  10.888 -0.2637 -0.4555  0.9263
  491MOL0     C66214   8.927  10.542  10.774 -1.5152 -0.1138 -0.3471
  491MOL0     C66215   8.930  10.616  10.678  0.0630  0.7352  0.3098
  491MOL0     C66216   8.708   9.927  11.075 -0.2988 -0.3049  0.2435
  491MOL0     C66217   8.658   9.913  11.203 -0.9532  0.8920  0.3572
  491MOL0     H66218   8.518  10.102  11.671 -2.0123 -0.0710 -0.2076
  491MOL0     H66219   8.462  10.051  11.893 -1.1422  0.7381 -1.3304
  491MOL0     H66220   8.343   9.981  12.057 -0.4976  1.1513  1.1664
  491MOL0     H66221   8.293   9.852  12.158  0.9623 -0.8483  0.3549
  491MOL0     H66222   8.579   9.965  12.136  0.8054 -0.8854  0.0685
  491MOL0     H66223   8.457  10.001  12.260  0.1372 -0.2549  0.4750
  491MOL0     H66224   8.473   9.800  12.363  2.8539  2.9271  2.3269
  491MOL0     H66225   8.547   9.713  12.221  2.3072  1.7521 -3.1552
  491MOL0     H66226   8.738   9.855  12.258 -0.1208 -0.1448  0.7178
  491MOL0     H66227   8.672   9.938  12.393 -0.3336 -0.1377  1.0067
  491MOL0     H66228   8.793   9.644  12.377  2.3875  1.0789 -1.1702
  491MOL0     H66229   8.841   9.767  12.477 -0.5498 -0.3514 -1.4590
  491MOL0     H66230   8.653   9.743  12.623 -1.0736  0.1021  0.3871
  491MOL0     H66231   8.578   9.619  12.499 -0.8062 -0.3966  0.2990
  491MOL0     H66232   8.757   9.467  12.545  0.8635 -0.5163  1.4921
  491MOL0     H66233   8.839   9.573  12.647  1.9450 -4.5586 -2.4086
  491MOL0     H66234   8.551   9.488  12.698  0.9161 -0.2825 -3.4739
  491MOL0     H66235   8.644   9.600  12.795 -1.0502 -0.8039  0.7258
  491MOL0     H66236   8.861   9.490  12.953 -2.3526  1.2368 -0.7115
  491MOL0     H66237   8.890   9.134  13.086 -1.0227  1.8136  2.5422
  491MOL0     H66238   9.034   9.181  13.001  0.1263 -1.8714  1.6489
  491MOL0     H66239   9.017   9.402  13.098 -0.9002 -0.2084 -0.0139
  491MOL0     H66240   9.057   9.267  13.201  1.5686 -0.6766 -2.1971
  491MOL0     H66241   8.803   9.248  13.265 -0.5193  0.8682  3.3456
  491MOL0     H66242   8.776   9.405  13.182  0.1100 -0.0904 -1.4465
  491MOL0     H66243   8.985   9.338  13.395  0.7488  1.1184  1.9330
  491MOL0     H66244   8.820   9.396  13.442  0.9365  0.6096 -0.2442
  491MOL0     H66245   9.040   9.702  13.179 -0.5064 -0.9008 -0.8606
  491MOL0     H66246   8.885   9.871  12.928  1.4449  1.4730 -0.9440
  491MOL0     H66247   8.893   9.987  13.072 -1.8158 -0.7193  0.6274
  491MOL0     H66248   9.032   9.881  13.030  0.3332  0.8198 -0.1883
  491MOL0     H66249   8.541  10.138  12.946  0.4788 -2.3894  1.1091
  491MOL0     H66250   8.426  10.358  12.947  0.8958  0.3379  0.7905
  491MOL0     H66251   8.270  10.568  13.008 -0.0060  0.6746 -2.0466
  491MOL0     H66252   8.216  10.451  12.879 -3.5628 -4.0035  0.7086
  491MOL0     H66253   7.983  10.515  12.942 -1.0032  2.2174 -0.8037
  491MOL0     H66254   8.050  10.651  13.033  0.3072 -1.0727  1.1038
  491MOL0     H66255   8.112  10.586  12.749 -0.2775 -0.2203  0.7504
  491MOL0     H66256   8.141  10.749  12.823  1.7200 -1.0165 -3.3181
  491MOL0     H66257   7.903  10.633  12.707  2.0361  0.0919 -0.8708
  491MOL0     H66258   7.873  10.760  12.825  1.3711  1.2308  0.9521
  491MOL0     H66259   8.028  10.916  12.710  1.4047 -2.6313  1.2422
  491MOL0     H66260   7.876  10.890  12.639  0.6829  0.2168 -2.6181
  491MOL0     H66261   8.136  10.750  12.555 -1.1323 -0.2402  2.1805
  491MOL0     H66262   7.980  10.735  12.477 -2.0961 -0.8182  2.7478
  491MOL0     H66263   8.125  10.883  12.347  2.1963 -0.6840  1.0117
  491MOL0     H66264   8.194  10.960  12.489  0.6545  0.4421 -0.7017
  491MOL0     H66265   8.021  11.103  12.520  0.8792 -2.6844  3.0099
  491MOL0     H66266   7.898  11.008  12.421  0.4641 -1.0371 -0.9112
  491MOL0     H66267   8.132  10.193  13.223 -0.4137 -0.4087 -2.1927
  491MOL0     H66268   8.274  10.011  13.258  1.6053  1.2528  1.3376
  491MOL0     H66269   8.568   9.760  13.299 -0.4389  0.6122 -3.5727
  491MOL0     H66270   8.704   9.594  13.408 -0.7678  0.9718  0.2502
  491MOL0     H66271   8.478   9.634  11.822  1.6560 -0.0617  1.4392
  491MOL0     H66272   8.546   9.690  11.581  0.1168  0.6913 -0.2055
  491MOL0     H66273   8.636  10.234  11.289  0.5374  1.2399 -1.7515
  491MOL0     H66274   8.738  10.273  11.074  1.1798 -0.0850 -0.2151
  491MOL0     H66275   8.692  10.142  10.703 -0.2252  0.4082  0.3480
  491MOL0     H66276   8.677  10.255  10.841 -1.8054 -1.3117  0.3547
  491MOL0     H66277   8.850  10.289  10.673 -1.8651 -1.2756 -0.1683
  491MOL0     H66278   8.940  10.139  10.729  1.7330  1.3045 -0.0955
  491MOL0     H66279   9.068  10.311  10.830  0.1873  3.4670  1.4866
  491MOL0     H66280   8.972  10.242  10.954  0.1150 -0.2828 -1.4322
  491MOL0     H66281   8.968  10.483  10.977 -0.7878 -1.9643  1.9610
  491MOL0     H66282   8.812  10.437  10.913 -0.4955 -1.2549 -0.1623
  491MOL0     H66283   8.935  10.667  10.584 -1.0655 -0.2648 -0.3132
  491MOL0     H66284   8.760   9.844  11.027  1.3714  1.9699 -2.2208
  491MOL0     H66285   8.646   9.814  11.247 -1.9817  0.0678 -1.6308
  492MOL0     O66286   7.392   5.835   3.834 -0.1976  1.1819  0.9968
  492MOL0     C66287   7.420   5.935   3.895  0.0405  0.2238 -0.1907
  492MOL0     O66288   7.334   6.017   3.965 -0.7559  0.9477  0.0706
  492MOL0     C66289   7.210   5.985   4.000  0.6947 -0.0277 -0.3386
  492MOL0     C66290   7.129   5.891   3.936  0.1986  0.1638  0.4746
  492MOL0     C66291   7.004   5.868   3.994 -0.5111  0.5887  0.3434
  492MOL0     C66292   6.951   5.948   4.098  0.4402 -0.1316 -0.3422
  492MOL0     O66293   6.820   5.922   4.140 -0.6834 -0.3533  0.4455
  492MOL0     C66294   6.758   6.018   4.224 -0.3097 -0.2675  0.5581
  492MOL0     C66295   6.605   5.997   4.240 -0.2857 -0.1676 -0.5098
  492MOL0     C66296   6.537   6.091   4.329 -0.5199 -0.2470  0.6354
  492MOL0     C66297   6.405   6.034   4.384 -0.0817  0.1524 -0.4838
  492MOL0     C66298   6.339   6.135   4.472  0.2432  0.0486 -0.4503
  492MOL0     C66299   6.200   6.109   4.522 -0.3591  1.0642 -0.8960
  492MOL0     C66300   6.176   5.995   4.623 -1.2482 -0.9728  0.3456
  492MOL0     C66301   6.269   6.001   4.754  0.3490  0.1795 -0.5415
  492MOL0     N66302   6.406   5.959   4.736 -0.2701 -0.0770  0.1791
  492MOL0     C66303   6.512   6.036   4.774 -1.1551  0.3224 -0.3720
  492MOL0     C66304   6.621   5.965   4.754 -0.8881 -0.3757  0.5434
  492MOL0     C66305   6.764   6.014   4.785  0.1596  0.0991 -0.1231
  492MOL0     C66306   6.844   6.026   4.658  0.4024 -0.4188 -0.5087
  492MOL0     C66307   6.914   5.892   4.639  0.1280 -1.2632  0.0545
  492MOL0     C66308   7.035   5.910   4.538 -0.2625  0.2555  0.1526
  492MOL0     O66309   7.131   5.986   4.607 -0.1328  0.6358 -0.1413
  492MOL0     C66310   7.260   6.008   4.564 -0.0255  0.8616 -0.3974
  492MOL0     C66311   7.321   6.116   4.625  0.1858 -0.1606  0.0303
  492MOL0     C66312   7.448   6.139   4.585 -0.4021  0.4060 -1.3505
  492MOL0     C66313   7.518   6.247   4.665 -0.5929  0.1996  0.4535
  492MOL0     C66314   7.519   6.077   4.475 -0.2390 -0.8459  0.3386
  492MOL0     C66315   7.654   6.122   4.426  0.0438  0.3447  0.4171
  492MOL0     O66316   7.741   6.013   4.405  0.0735 -1.0106  0.5160
  492MOL0     C66317   7.868   6.051   4.378  0.0854  0.7033 -0.4501
  492MOL0     C66318   7.971   6.042   4.476  0.7359 -0.6563 -0.6337
  492MOL0     C66319   8.098   6.075   4.435 -0.7380  0.9468  0.0780
  492MOL0     C66320   8.138   6.109   4.301  1.2760 -0.0530  0.4370
  492MOL0     O66321   8.262   6.127   4.246 -0.4205  0.6559  0.2746
  492MOL0     C66322   8.370   6.041   4.295  0.7778 -0.2780  0.1960
  492MOL0     C66323   8.485   6.054   4.199  0.2622 -0.4760 -0.1494
  492MOL0     C66324   8.445   6.009   4.060 -0.1818 -0.9344  1.2842
  492MOL0     C66325   8.576   6.026   3.968 -0.6031 -0.2143 -0.3921
  492MOL0     C66326   8.554   5.963   3.829 -0.2230  0.1159 -1.1902
  492MOL0     C66327   8.685   5.972   3.751 -0.0433 -1.0273 -0.6873
  492MOL0     C66328   8.671   5.936   3.605  0.3147 -0.1234 -0.1589
  492MOL0     C66329   8.812   5.955   3.534  0.4562 -0.3470 -0.9624
  492MOL0    Cl66330   8.843   6.131   3.470 -0.4211 -0.1734  0.2308
  492MOL0     C66331   8.034   6.123   4.213 -0.1928  0.8733  0.3340
  492MOL0     C66332   7.901   6.088   4.251 -0.7712  0.2287 -0.6370
  492MOL0     O66333   7.670   6.242   4.406 -0.5341 -0.0678  0.1757
  492MOL0     C66334   7.450   5.968   4.412 -0.2839  0.2449  0.2963
  492MOL0     C66335   7.323   5.934   4.463  0.0964  0.1390 -0.3532
  492MOL0     N66336   6.584   5.845   4.706  0.0443 -0.6061 -0.0552
  492MOL0     N66337   6.451   5.837   4.690 -0.6593  0.9044  0.2592
  492MOL0     C66338   7.025   6.051   4.154 -0.4600  0.2141 -0.7312
  492MOL0     C66339   7.159   6.061   4.103  0.8020 -0.0313  0.2706
  492MOL0     C66340   7.554   5.979   3.876  0.6889  0.4260  0.6597
  492MOL0     C66341   7.661   5.890   3.829  0.3423 -0.5965 -0.0248
  492MOL0     C66342   7.789   5.940   3.805  0.4485 -0.4963  0.1215
  492MOL0     C66343   7.811   6.073   3.828  0.1610  0.7284  0.1317
  492MOL0     O66344   7.943   6.123   3.813  0.0975  0.0664  0.9391
  492MOL0     C66345   8.024   6.053   3.718 -0.0842  0.4269  0.3610
  492MOL0     C66346   8.151   6.133   3.690 -0.2317 -0.2197 -0.0856
  492MOL0     C66347   8.239   6.061   3.584  0.5888 -0.1890 -0.2797
  492MOL0     C66348   8.333   6.165   3.519 -0.7115 -0.3496 -0.0642
  492MOL0     C66349   8.404   6.257   3.615 -0.7184  0.4065 -0.4670
  492MOL0     C66350   8.480   6.330   3.676  0.3267 -0.7697  0.6500
  492MOL0     C66351   7.702   6.161   3.868 -0.0778  0.2916  0.6725
  492MOL0     C66352   7.572   6.110   3.881 -0.9563 -0.6851 -0.2588
  492MOL0     H66353   7.165   5.817   3.865  0.7519 -0.0602  0.9830
  492MOL0     H66354   6.930   5.808   3.942 -1.7654  1.7247  0.7598
  492MOL0     H66355   6.801   6.000   4.323  4.4569  3.5806 -0.4607
  492MOL0     H66356   6.771   6.118   4.181 -4.1202 -0.3664 -1.2977
  492MOL0     H66357   6.554   6.008   4.144 -1.9902  0.3412  0.4015
  492MOL0     H66358   6.579   5.893   4.264 -1.0006  0.2264  0.5333
  492MOL0     H66359   6.599   6.126   4.412  1.5002  0.1263 -0.9525
  492MOL0     H66360   6.522   6.178   4.265 -0.1593 -0.4080  0.3288
  492MOL0     H66361   6.341   6.000   4.303 -2.5088  0.8288  1.0457
  492MOL0     H66362   6.424   5.949   4.450 -0.5279 -0.4293 -1.1047
  492MOL0     H66363   6.410   6.162   4.552  0.9975  4.3820 -2.2762
  492MOL0     H66364   6.324   6.226   4.413 -3.0802 -0.9839 -1.4112
  492MOL0     H66365   6.139   6.191   4.562 -1.1507  0.3407 -0.5889
  492MOL0     H66366   6.157   6.083   4.425  0.9444  0.3562 -1.2987
  492MOL0     H66367   6.070   5.990   4.647 -1.2031  0.7330  1.0547
  492MOL0     H66368   6.197   5.909   4.559 -2.8365 -1.0836 -0.0729
  492MOL0     H66369   6.219   5.938   4.828 -2.0807  0.1167 -2.1390
  492MOL0     H66370   6.257   6.105   4.782  1.6612  0.7967 -2.0648
  492MOL0     H66371   6.512   6.131   4.825 -0.4922  0.9001 -1.4236
  492MOL0     H66372   6.769   6.105   4.845 -1.2076  0.2779 -0.2451
  492MOL0     H66373   6.810   5.934   4.844 -1.2175 -0.3995  0.3211
  492MOL0     H66374   6.908   6.115   4.659  1.0254 -0.8404 -1.7820
  492MOL0     H66375   6.784   6.046   4.568  2.3793  2.0365 -1.4041
  492MOL0     H66376   6.841   5.822   4.599 -2.2322  1.8681 -1.4987
  492MOL0     H66377   6.950   5.860   4.737 -2.7924  0.6351  1.9216
  492MOL0     H66378   6.995   5.978   4.462  1.7569 -0.2213 -1.4067
  492MOL0     H66379   7.070   5.813   4.502 -0.7931  0.7621 -1.8204
  492MOL0     H66380   7.269   6.171   4.702 -0.0609  1.2200 -1.0766
  492MOL0     H66381   7.535   6.335   4.602  1.0619 -0.1668  0.3359
  492MOL0     H66382   7.463   6.275   4.755 -0.7911  1.6412 -0.0921
  492MOL0     H66383   7.619   6.215   4.692 -1.2965 -2.0034  0.6522
  492MOL0     H66384   7.955   6.020   4.581 -0.0107 -1.5821 -0.9307
  492MOL0     H66385   8.180   6.080   4.506  0.2912  2.8265 -1.1848
  492MOL0     H66386   8.397   6.072   4.396  0.8252 -0.6562  0.3016
  492MOL0     H66387   8.334   5.938   4.295  1.9891 -0.7847  2.5927
  492MOL0     H66388   8.504   6.162   4.189 -0.6064 -0.3810 -0.9820
  492MOL0     H66389   8.576   6.000   4.223  0.7041  1.0579  1.9876
  492MOL0     H66390   8.362   6.069   4.022 -0.3203 -0.8149  1.7759
  492MOL0     H66391   8.411   5.905   4.064 -0.7934 -0.7215  1.7873
  492MOL0     H66392   8.598   6.132   3.956 -0.8397 -0.1564 -0.3213
  492MOL0     H66393   8.664   5.986   4.020  0.5107  2.6490  0.1152
  492MOL0     H66394   8.477   6.018   3.775 -1.8810 -0.0364  0.8992
  492MOL0     H66395   8.522   5.859   3.843  0.0684  0.4268  3.6077
  492MOL0     H66396   8.705   6.079   3.762 -1.7836 -0.8250  1.1451
  492MOL0     H66397   8.767   5.908   3.786  0.5311 -0.7894 -1.5650
  492MOL0     H66398   8.598   6.009   3.567 -1.3821 -0.4555  2.2327
  492MOL0     H66399   8.619   5.841   3.590  0.3266 -0.3293  1.0093
  492MOL0     H66400   8.818   5.881   3.453 -1.0804 -1.0925 -0.4310
  492MOL0     H66401   8.894   5.930   3.601 -1.3583  2.4940  2.6846
  492MOL0     H66402   8.042   6.146   4.107 -3.6764 -1.7806 -0.7293
  492MOL0     H66403   7.830   6.105   4.171  0.3354 -0.0113 -1.7089
  492MOL0     H66404   7.484   5.921   4.320  0.8399  2.2436 -0.3946
  492MOL0     H66405   7.262   5.867   4.403  0.9136  0.5848 -1.7381
  492MOL0     H66406   6.995   6.099   4.247 -0.2676 -1.5757  0.3158
  492MOL0     H66407   7.223   6.141   4.140 -0.1529  0.9942 -0.2447
  492MOL0     H66408   7.646   5.785   3.808 -5.0580 -0.3015  0.8639
  492MOL0     H66409   7.858   5.877   3.750  0.2379  1.4628 -2.5718
  492MOL0     H66410   8.041   5.952   3.755  0.4379 -0.1143 -1.2831
  492MOL0     H66411   7.973   6.034   3.623  2.6674 -2.5483 -0.6705
  492MOL0     H66412   8.209   6.129   3.783  1.0942  0.2971 -0.8522
  492MOL0     H66413   8.137   6.241   3.677 -2.0214 -0.0344  2.6324
  492MOL0     H66414   8.167   6.028   3.509  0.7570  1.4416 -1.2101
  492MOL0     H66415   8.289   5.968   3.611  1.9412  0.3067 -0.9783
  492MOL0     H66416   8.270   6.211   3.443 -1.8860  1.1356  1.6950
  492MOL0     H66417   8.411   6.112   3.465  0.5431  0.1609  1.1802
  492MOL0     H66418   8.541   6.395   3.735 -2.9493  0.8314  2.6008
  492MOL0     H66419   7.720   6.266   3.888  2.8025  0.0641 -0.2270
  492MOL0     H66420   7.488   6.179   3.888  0.4204  1.0827 -0.4858
  493MOL0     O66421   7.461   5.374   1.132 -0.2112 -0.0348 -0.2237
  493MOL0     C66422   7.393   5.351   1.232 -0.0666  0.1344  0.9099
  493MOL0     O66423   7.284   5.423   1.274 -1.2762  0.2032  0.3637
  493MOL0     C66424   7.256   5.551   1.226 -0.8087  0.4993  0.8556
  493MOL0     C66425   7.237   5.647   1.332  0.1957 -0.7533  0.8785
  493MOL0     C66426   7.235   5.787   1.300 -0.1749  0.1009  0.9165
  493MOL0     C66427   7.247   5.828   1.163 -0.2388  0.6038 -1.3449
  493MOL0     O66428   7.254   5.967   1.143 -1.0063  0.8358 -0.1558
  493MOL0     C66429   7.329   6.053   1.229  0.1626  0.0142  0.7871
  493MOL0     C66430   7.260   6.167   1.303 -0.6622 -0.5424  0.4666
  493MOL0     C66431   7.197   6.260   1.204  0.5423 -0.9928 -0.0950
  493MOL0     C66432   7.241   6.408   1.205 -0.4905 -0.0528  0.4546
  493MOL0     C66433   7.174   6.498   1.317  0.4422 -0.4648 -0.7246
  493MOL0     C66434   7.210   6.647   1.301  0.1703 -0.0128  0.3404
  493MOL0     C66435   7.240   6.723   1.432 -0.2395 -0.3542 -0.0011
  493MOL0     C66436   7.247   6.877   1.416 -0.2511 -0.6015 -0.0125
  493MOL0     N66437   7.370   6.902   1.331 -0.0342 -0.1945 -0.4604
  493MOL0     C66438   7.379   6.902   1.197  0.3253 -0.3453 -1.1037
  493MOL0     C66439   7.502   6.904   1.157 -1.0261 -0.5428 -0.9215
  493MOL0     C66440   7.564   6.911   1.019  0.5125 -0.5389  0.0187
  493MOL0     C66441   7.528   6.779   0.938 -0.0915 -0.3050  0.0824
  493MOL0     C66442   7.618   6.661   0.988  0.8221 -0.7084  0.2809
  493MOL0     C66443   7.556   6.534   0.948 -0.0955  1.1026 -0.2144
  493MOL0     O66444   7.643   6.429   1.002  0.2740 -0.9398  0.3769
  493MOL0     C66445   7.620   6.294   0.964  0.0059 -0.8020  1.0740
  493MOL0     C66446   7.501   6.241   0.904 -0.0633 -0.3820  0.1499
  493MOL0     C66447   7.483   6.110   0.872 -0.7584 -0.0456  1.2981
  493MOL0     C66448   7.350   6.069   0.811  0.4310 -0.2065  0.4110
  493MOL0     C66449   7.596   6.025   0.901  0.2084  0.8256  0.8321
  493MOL0     C66450   7.590   5.880   0.878 -0.9633 -0.0640 -0.1881
  493MOL0     O66451   7.690   5.805   0.929  0.2280  0.1183 -0.5229
  493MOL0     C66452   7.693   5.677   0.891  0.0630  0.9689  0.2124
  493MOL0     C66453   7.603   5.569   0.905 -0.9034  0.2137  0.2788
  493MOL0     C66454   7.632   5.437   0.885  0.2224  0.1423 -0.5666
  493MOL0     C66455   7.761   5.414   0.821 -0.7528  0.3886 -0.1953
  493MOL0     O66456   7.798   5.283   0.795 -0.0726 -0.0548  0.8880
  493MOL0     C66457   7.723   5.168   0.819  0.6408 -0.8350 -0.1948
  493MOL0     C66458   7.707   5.130   0.965  0.5483 -0.6460 -0.1846
  493MOL0     C66459   7.617   5.003   0.958  0.1958  0.2411 -1.1582
  493MOL0     C66460   7.708   4.880   0.915  0.5526 -0.3389 -0.2986
  493MOL0     C66461   7.633   4.747   0.877 -0.0307 -0.4557 -0.5892
  493MOL0     C66462   7.545   4.766   0.752 -0.0737 -0.0150  0.4599
  493MOL0     C66463   7.623   4.730   0.620 -0.9781 -0.8983  0.4429
  493MOL0     C66464   7.555   4.788   0.494  0.8190 -0.1972 -0.3214
  493MOL0    Cl66465   7.615   4.753   0.338  0.0804 -0.1630  0.3425
  493MOL0     C66466   7.846   5.519   0.787  0.3365  0.1582  0.1240
  493MOL0     C66467   7.812   5.642   0.830 -0.5684 -0.4907  0.2685
  493MOL0     O66468   7.514   5.844   0.797  0.0021  0.2510  0.7571
  493MOL0     C66469   7.711   6.078   0.956  0.4555 -0.7328 -0.4323
  493MOL0     C66470   7.722   6.208   0.984 -0.9638  0.0191 -0.1955
  493MOL0     N66471   7.583   6.919   1.275 -1.0133  0.2113 -0.6502
  493MOL0     N66472   7.500   6.918   1.376 -0.5821  0.5883 -0.4322
  493MOL0     C66473   7.260   5.737   1.056  0.8142  1.0522 -0.2806
  493MOL0     C66474   7.262   5.596   1.090  0.7241 -0.0939  1.0128
  493MOL0     C66475   7.435   5.236   1.314 -0.3276  0.3221 -0.3177
  493MOL0     C66476   7.565   5.186   1.299 -0.1678 -0.0694 -0.0381
  493MOL0     C66477   7.608   5.081   1.375  0.0923  0.4861  0.4987
  493MOL0     C66478   7.523   5.015   1.468  0.5747 -1.0940  0.5768
  493MOL0     O66479   7.574   4.905   1.539 -0.6478 -0.8759 -0.1697
  493MOL0     C66480   7.506   4.823   1.641 -1.0719 -1.4721 -0.1467
  493MOL0     C66481   7.615   4.763   1.730  0.7004 -0.4215  0.5151
  493MOL0     C66482   7.698   4.858   1.823 -0.2957  0.0321  0.1098
  493MOL0     C66483   7.645   4.880   1.958 -0.5135  1.2369  0.5092
  493MOL0     C66484   7.759   4.939   2.039  1.1751 -0.2883 -0.2049
  493MOL0     C66485   7.850   4.951   2.116 -0.8517 -0.4217  0.2751
  493MOL0     C66486   7.383   5.063   1.479  0.3972  0.7788  0.2229
  493MOL0     C66487   7.345   5.173   1.406  0.7320 -0.0606  0.1833
  493MOL0     H66488   7.247   5.605   1.432  0.3407 -0.9100  0.7986
  493MOL0     H66489   7.216   5.863   1.376 -1.8061  3.0406 -2.1564
  493MOL0     H66490   7.384   5.992   1.301  0.9639 -1.0296 -0.6702
  493MOL0     H66491   7.410   6.100   1.171 -1.7374  2.8853  0.2569
  493MOL0     H66492   7.182   6.124   1.367 -0.1478  0.4708  1.8241
  493MOL0     H66493   7.336   6.222   1.358  0.1610 -0.5209 -0.6652
  493MOL0     H66494   7.218   6.244   1.098 -1.6217  2.6067 -1.2629
  493MOL0     H66495   7.088   6.256   1.216  0.8685 -1.2450  3.8862
  493MOL0     H66496   7.350   6.416   1.207 -0.5260  2.3252 -1.7191
  493MOL0     H66497   7.204   6.456   1.114 -2.8414  0.1621  1.4628
  493MOL0     H66498   7.068   6.474   1.320  0.6609 -1.3922  0.3308
  493MOL0     H66499   7.216   6.459   1.411 -1.9891 -3.6996 -0.8151
  493MOL0     H66500   7.306   6.654   1.249  0.2439  3.6761  0.7563
  493MOL0     H66501   7.125   6.677   1.238 -1.6799 -2.9004  1.2725
  493MOL0     H66502   7.156   6.711   1.501 -2.0266 -0.1919 -2.0259
  493MOL0     H66503   7.333   6.681   1.471  2.6580  3.9615 -1.5605
  493MOL0     H66504   7.256   6.927   1.513 -2.1352 -1.9113  0.8940
  493MOL0     H66505   7.167   6.917   1.353  1.6374 -0.6193 -2.5893
  493MOL0     H66506   7.292   6.917   1.133 -0.5237  0.0574  0.0969
  493MOL0     H66507   7.528   7.002   0.970  0.8302  0.3348  1.3428
  493MOL0     H66508   7.672   6.912   1.033  0.6483 -0.7034 -0.9244
  493MOL0     H66509   7.558   6.797   0.835 -3.1661  1.5297 -0.6364
  493MOL0     H66510   7.424   6.747   0.951  0.7896 -2.6649  1.9792
  493MOL0     H66511   7.615   6.662   1.098 -1.1032 -0.7876  0.2706
  493MOL0     H66512   7.712   6.682   0.938 -0.0786 -2.6268 -2.4512
  493MOL0     H66513   7.560   6.531   0.838  1.4971 -2.9693 -0.2207
  493MOL0     H66514   7.456   6.517   0.987  0.0037 -2.4346 -1.1189
  493MOL0     H66515   7.415   6.307   0.890 -2.8754 -3.0775  2.9730
  493MOL0     H66516   7.294   5.998   0.873  0.6405 -3.5803 -2.9504
  493MOL0     H66517   7.302   6.167   0.808  2.3885  0.7716 -0.0131
  493MOL0     H66518   7.357   6.047   0.704  2.9959  1.3048  0.2019
  493MOL0     H66519   7.509   5.587   0.956 -1.0818 -1.8161  0.7447
  493MOL0     H66520   7.559   5.358   0.899  0.6148  0.0957  1.5412
  493MOL0     H66521   7.627   5.175   0.767 -0.6173 -2.0494  1.8271
  493MOL0     H66522   7.780   5.087   0.772 -2.5422 -2.0467 -2.3221
  493MOL0     H66523   7.805   5.113   1.011 -0.0519 -0.6462  1.1220
  493MOL0     H66524   7.655   5.211   1.016  1.7397 -0.0765  0.1678
  493MOL0     H66525   7.535   5.022   0.887  1.6935  0.0574 -3.0160
  493MOL0     H66526   7.576   4.970   1.054 -0.2673 -1.6919 -1.9580
  493MOL0     H66527   7.764   4.911   0.826 -1.4974  3.3993 -0.4889
  493MOL0     H66528   7.779   4.863   0.996  0.5139 -1.0409 -0.3982
  493MOL0     H66529   7.575   4.721   0.966  4.8952 -1.5327  2.7339
  493MOL0     H66530   7.715   4.675   0.866 -0.0769 -1.2283  2.8540
  493MOL0     H66531   7.456   4.702   0.751 -2.3157  2.8360  2.3481
  493MOL0     H66532   7.505   4.867   0.745  1.1133  0.4169 -0.4087
  493MOL0     H66533   7.643   4.623   0.608 -2.2103 -1.1414  0.4598
  493MOL0     H66534   7.728   4.763   0.621 -0.7313 -1.6602  0.6944
  493MOL0     H66535   7.560   4.897   0.494  1.2880 -0.1278 -3.2657
  493MOL0     H66536   7.450   4.756   0.497  1.7079 -3.4053  1.9020
  493MOL0     H66537   7.943   5.505   0.741 -0.2757  0.5784 -1.3572
  493MOL0     H66538   7.891   5.717   0.837  0.3436 -1.4091 -0.0327
  493MOL0     H66539   7.786   6.007   0.990  0.9555  0.5984  1.3892
  493MOL0     H66540   7.806   6.249   1.039  1.1966 -2.1387 -1.6763
  493MOL0     H66541   7.272   5.766   0.952 -1.2409  1.1786 -0.5227
  493MOL0     H66542   7.287   5.530   1.006  2.1416  3.8039 -1.9434
  493MOL0     H66543   7.633   5.233   1.228 -0.7804  1.2577  0.2296
  493MOL0     H66544   7.714   5.060   1.372  0.4884  1.6171  3.4361
  493MOL0     H66545   7.427   4.875   1.697 -0.4703 -1.1464  0.4162
  493MOL0     H66546   7.460   4.745   1.581 -1.7533  0.2735 -2.0190
  493MOL0     H66547   7.673   4.703   1.659 -2.4498 -1.2057 -1.6178
  493MOL0     H66548   7.571   4.686   1.793 -0.7477  0.4102  0.5541
  493MOL0     H66549   7.708   4.958   1.779 -1.2313  0.1569  0.1485
  493MOL0     H66550   7.796   4.811   1.829 -0.5722 -1.2461 -3.2489
  493MOL0     H66551   7.606   4.794   2.014  0.2931 -0.1858 -0.9920
  493MOL0     H66552   7.564   4.953   1.954 -1.0135  0.6557 -1.4872
  493MOL0     H66553   7.936   4.964   2.178  0.2689  0.5147 -1.3901
  493MOL0     H66554   7.318   5.014   1.550 -2.2005  3.3782 -0.1974
  493MOL0     H66555   7.249   5.212   1.438  0.7379 -1.8378  2.6612
  494MOL0     O66556   5.900   2.735   5.865 -0.0495  0.4204  0.1495
  494MOL0     C66557   5.806   2.817   5.838 -0.0818  0.2301 -0.0493
  494MOL0     O66558   5.824   2.947   5.804  0.2562 -0.1572  0.1055
  494MOL0     C66559   5.950   3.007   5.814 -0.1583 -0.1026 -0.8146
  494MOL0     C66560   5.996   3.080   5.709 -1.2309  0.1542  0.0344
  494MOL0     C66561   6.131   3.118   5.704 -0.2546  0.4147  0.6424
  494MOL0     C66562   6.211   3.107   5.821 -0.1864 -0.2548 -0.2073
  494MOL0     O66563   6.338   3.146   5.837  0.0662 -0.1501 -0.3969
  494MOL0     C66564   6.421   3.147   5.723 -0.7392 -1.0288  0.1694
  494MOL0     C66565   6.568   3.152   5.762  0.2261 -0.7344  0.3802
  494MOL0     C66566   6.599   3.022   5.814 -0.7528 -0.0399  0.2883
  494MOL0     C66567   6.606   2.911   5.707  0.7348 -0.0002 -0.9248
  494MOL0     C66568   6.710   2.805   5.751  0.7825  0.5392  0.1966
  494MOL0     C66569   6.693   2.686   5.662  0.1159 -0.7880  0.0233
  494MOL0     C66570   6.586   2.587   5.706 -0.1710 -0.1887 -0.1381
  494MOL0     C66571   6.606   2.451   5.643 -0.0747  0.0759 -0.2447
  494MOL0     N66572   6.587   2.471   5.497  0.0497  0.0123 -0.1356
  494MOL0     C66573   6.487   2.535   5.434  0.1124 -0.7923  0.0485
  494MOL0     C66574   6.485   2.469   5.314  0.4918  0.7156 -0.0043
  494MOL0     C66575   6.385   2.474   5.193 -0.2813  0.0679  1.0511
  494MOL0     C66576   6.285   2.364   5.192  1.0602  0.1763 -0.1511
  494MOL0     C66577   6.187   2.365   5.309  0.1623 -0.3723 -0.4893
  494MOL0     C66578   6.137   2.230   5.328  0.2292 -0.3539 -0.3790
  494MOL0     O66579   6.050   2.189   5.217 -1.0705 -0.4290  0.4993
  494MOL0     C66580   5.985   2.074   5.228  0.4722 -0.5479  0.1508
  494MOL0     C66581   5.939   2.025   5.353  1.2037 -0.0542  0.0604
  494MOL0     C66582   5.862   1.900   5.356  0.7130 -1.0674 -0.4524
  494MOL0     C66583   5.817   1.853   5.490 -0.4335  0.2123  0.1173
  494MOL0     C66584   5.843   1.832   5.231 -0.0138 -0.3525  0.5459
  494MOL0     C66585   5.770   1.709   5.211  0.5272  0.2655  0.7065
  494MOL0     O66586   5.771   1.653   5.087 -0.8478  0.4293 -0.2658
  494MOL0     C66587   5.741   1.523   5.063 -0.6014  0.2328  0.3018
  494MOL0     C66588   5.608   1.480   5.080  0.6541  0.0797 -0.1201
  494MOL0     C66589   5.581   1.350   5.041  0.1518  0.5143 -0.4841
  494MOL0     C66590   5.669   1.258   4.986 -0.0732 -0.9602  0.5860
  494MOL0     O66591   5.621   1.142   4.947 -0.5403  0.3377 -0.4230
  494MOL0     C66592   5.698   1.071   4.844  0.5204  0.0993  0.3700
  494MOL0     C66593   5.645   0.935   4.821  0.5362 -0.3784  0.8439
  494MOL0     C66594   5.723   0.865   4.701  0.0835 -0.3179 -0.1294
  494MOL0     C66595   5.869   0.837   4.742 -0.4211 -1.0354  0.7017
  494MOL0     C66596   5.944   0.796   4.613  0.1958 -0.2977 -0.2339
  494MOL0     C66597   6.093   0.752   4.646  0.8737 -0.5160 -0.2463
  494MOL0     C66598   6.139   0.681   4.517  0.2706 -0.2320 -0.5036
  494MOL0     C66599   6.287   0.659   4.510 -0.1851 -0.1073 -0.8395
  494MOL0    Cl66600   6.386   0.803   4.494  0.0728 -0.6952 -0.1635
  494MOL0     C66601   5.803   1.311   4.969 -0.3258 -0.4535  0.0671
  494MOL0     C66602   5.842   1.436   5.015  1.0366 -0.6135 -0.3048
  494MOL0     O66603   5.714   1.660   5.308 -0.2280  0.1324 -0.1486
  494MOL0     C66604   5.893   1.890   5.108  0.1608  0.9077 -0.7958
  494MOL0     C66605   5.958   2.013   5.106  0.1877  0.0140 -0.8052
  494MOL0     N66606   6.586   2.369   5.318  0.5377 -0.2309 -0.0783
  494MOL0     N66607   6.647   2.374   5.424 -0.1590  0.0050  0.1825
  494MOL0     C66608   6.154   3.061   5.941 -0.0430  0.4703  0.1588
  494MOL0     C66609   6.020   3.010   5.933  0.2588  0.9431 -0.2746
  494MOL0     C66610   5.667   2.767   5.839  0.5964 -0.6087  0.1053
  494MOL0     C66611   5.556   2.855   5.824  0.7409 -0.9985 -0.4845
  494MOL0     C66612   5.432   2.804   5.856  0.8332  1.1799  0.0156
  494MOL0     C66613   5.405   2.668   5.886  0.6371 -0.0183  0.5412
  494MOL0     O66614   5.293   2.603   5.920  0.1974 -0.0628  0.2452
  494MOL0     C66615   5.191   2.673   5.989  0.3364 -0.2814  0.0613
  494MOL0     C66616   5.084   2.735   5.888 -0.4684  0.5514  0.2239
  494MOL0     C66617   4.980   2.826   5.965 -0.1718 -0.3407 -1.0622
  494MOL0     C66618   5.021   2.962   6.027 -0.2428 -0.4834  1.2358
  494MOL0     C66619   5.077   3.057   5.924  0.3977  0.3711  0.1865
  494MOL0     C66620   5.104   3.145   5.840 -0.8242  0.1254  0.3499
  494MOL0     C66621   5.509   2.587   5.881 -0.1458 -0.1597  0.4395
  494MOL0     C66622   5.640   2.636   5.870  0.5388  0.4749 -0.4673
  494MOL0     H66623   5.944   3.099   5.616 -1.7611  1.0743  0.5106
  494MOL0     H66624   6.176   3.165   5.617  1.2352 -0.6817  0.7737
  494MOL0     H66625   6.393   3.064   5.657 -1.4429 -0.9808  0.3983
  494MOL0     H66626   6.402   3.242   5.671 -1.1095 -1.8278 -1.2183
  494MOL0     H66627   6.639   3.193   5.690  0.5972  1.2381  1.7771
  494MOL0     H66628   6.570   3.226   5.842  0.2017  0.3437 -0.5749
  494MOL0     H66629   6.697   3.026   5.864  0.1872  1.8901 -1.5711
  494MOL0     H66630   6.524   2.993   5.889 -0.4410 -1.9127 -0.0674
  494MOL0     H66631   6.510   2.860   5.695  1.6145 -2.4708  1.5611
  494MOL0     H66632   6.635   2.958   5.613  1.0580  2.3846  0.3040
  494MOL0     H66633   6.802   2.864   5.745 -0.9571  3.5907  1.1119
  494MOL0     H66634   6.697   2.775   5.855 -0.1651 -2.0525 -0.5924
  494MOL0     H66635   6.675   2.709   5.556 -0.2286 -3.4542 -0.5633
  494MOL0     H66636   6.791   2.638   5.656 -0.2888 -1.4869 -1.8950
  494MOL0     H66637   6.584   2.565   5.813  0.3196 -0.7466 -0.2371
  494MOL0     H66638   6.486   2.628   5.685  0.2788  1.1850  0.2852
  494MOL0     H66639   6.537   2.379   5.688  2.1762 -0.4352  2.7283
  494MOL0     H66640   6.701   2.405   5.673 -0.3940 -0.9929 -0.8070
  494MOL0     H66641   6.436   2.628   5.453  0.8292 -0.3148 -0.2941
  494MOL0     H66642   6.344   2.575   5.196  0.3841  0.5952 -2.4645
  494MOL0     H66643   6.450   2.452   5.107  2.9955 -0.9166  3.5779
  494MOL0     H66644   6.349   2.275   5.193  0.8348  0.0173  0.1479
  494MOL0     H66645   6.235   2.383   5.096  2.3630  1.7571 -0.5673
  494MOL0     H66646   6.107   2.435   5.284 -0.5058 -1.1081 -0.4476
  494MOL0     H66647   6.245   2.410   5.389 -0.5514  1.2333 -0.8376
  494MOL0     H66648   6.088   2.240   5.426 -1.9406 -2.0649 -1.2115
  494MOL0     H66649   6.226   2.167   5.341  1.0856  0.5624 -1.5321
  494MOL0     H66650   5.957   2.086   5.441 -2.8854 -1.0542  1.8285
  494MOL0     H66651   5.871   1.759   5.509 -3.1149 -1.3481  0.5060
  494MOL0     H66652   5.842   1.933   5.561  1.1621  0.2653 -0.4633
  494MOL0     H66653   5.710   1.836   5.502 -0.0137 -2.2335  1.0791
  494MOL0     H66654   5.537   1.555   5.115  3.7803  3.1798  0.0584
  494MOL0     H66655   5.478   1.321   5.056 -0.8486  4.7127  2.6536
  494MOL0     H66656   5.684   1.132   4.755  0.7228  1.1797  1.0619
  494MOL0     H66657   5.805   1.065   4.866  0.1650  1.4798  2.8188
  494MOL0     H66658   5.656   0.885   4.918 -0.9552  1.0082  1.7700
  494MOL0     H66659   5.539   0.942   4.797  0.2534  1.1630  2.3397
  494MOL0     H66660   5.729   0.929   4.613 -0.6595 -1.0971 -0.7624
  494MOL0     H66661   5.686   0.771   4.660  0.9849 -0.7209 -0.0446
  494MOL0     H66662   5.928   0.926   4.768  0.2887 -0.6197 -2.0024
  494MOL0     H66663   5.886   0.766   4.824  0.9701  1.6026  2.8748
  494MOL0     H66664   5.955   0.871   4.534  3.0497 -1.9231 -1.5002
  494MOL0     H66665   5.903   0.701   4.579  2.0226 -1.9646  1.9666
  494MOL0     H66666   6.150   0.842   4.672 -3.0063  2.6211 -1.5593
  494MOL0     H66667   6.095   0.679   4.728 -0.9810 -1.3286 -0.8799
  494MOL0     H66668   6.101   0.732   4.429 -2.8596  1.8328  1.8293
  494MOL0     H66669   6.095   0.581   4.522 -3.8938  1.4094  0.0261
  494MOL0     H66670   6.314   0.593   4.427 -1.1369 -2.6504  0.7588
  494MOL0     H66671   6.320   0.610   4.602  0.6345  1.3700 -0.3042
  494MOL0     H66672   5.889   1.251   4.940 -1.2820  0.0749 -4.8406
  494MOL0     H66673   5.948   1.459   5.006  0.9737 -0.3067 -0.2588
  494MOL0     H66674   5.875   1.837   5.016 -1.2230 -2.4734  1.2581
  494MOL0     H66675   6.002   2.060   5.018  1.6719  0.8737  0.3316
  494MOL0     H66676   6.204   3.052   6.037 -1.6408  1.2666  1.1017
  494MOL0     H66677   5.982   2.967   6.025 -3.5259  1.3882 -1.4409
  494MOL0     H66678   5.572   2.960   5.800  3.3297 -1.0384  0.7952
  494MOL0     H66679   5.344   2.868   5.859  0.2990  0.4271  1.4938
  494MOL0     H66680   5.141   2.603   6.055 -1.6573 -0.4787 -1.5764
  494MOL0     H66681   5.240   2.758   6.038 -0.4226 -0.0353  0.3946
  494MOL0     H66682   5.007   2.668   5.847 -0.8305  0.9554  0.2383
  494MOL0     H66683   5.139   2.788   5.811  1.4797  0.9253  1.7899
  494MOL0     H66684   4.931   2.768   6.044 -0.6717 -1.5884 -2.2356
  494MOL0     H66685   4.903   2.846   5.890  0.0262  1.8490 -0.7375
  494MOL0     H66686   5.089   2.939   6.109 -0.1162 -0.1013  1.2395
  494MOL0     H66687   4.933   3.013   6.067 -1.1889 -0.8603 -0.2416
  494MOL0     H66688   5.117   3.224   5.769 -1.9976 -1.1830 -1.4095
  494MOL0     H66689   5.497   2.483   5.909 -0.2829 -0.2210  0.1656
  494MOL0     H66690   5.725   2.576   5.902  0.4367 -0.2639 -1.5482
  495MOL0     O66691   9.402   3.424   4.583  0.0770 -0.8667  0.2188
  495MOL0     C66692   9.398   3.352   4.688 -0.3868  0.2307  0.3174
  495MOL0     O66693   9.448   3.228   4.696  0.3786  0.4542 -0.1683
  495MOL0     C66694   9.520   3.193   4.588 -0.0318 -0.4712 -0.2862
  495MOL0     C66695   9.653   3.157   4.602 -0.4288 -0.0618  0.0828
  495MOL0     C66696   9.717   3.121   4.482 -0.6424  0.2510 -0.2139
  495MOL0     C66697   9.652   3.116   4.349 -0.2104  0.0588 -0.1941
  495MOL0     O66698   9.713   3.079   4.229  0.1820 -0.4278 -0.1920
  495MOL0     C66699   9.844   3.024   4.225  0.2923 -0.4811 -0.1384
  495MOL0     C66700   9.876   2.946   4.102  0.4010  0.5556  0.0089
  495MOL0     C66701  10.012   2.872   4.120  0.3330  0.2935  0.0238
  495MOL0     C66702  10.129   2.963   4.152 -0.5545  0.1453 -0.1964
  495MOL0     C66703  10.271   2.904   4.160  0.6498  0.0408 -0.0674
  495MOL0     C66704  10.282   2.817   4.287  1.2896  0.2368  0.1867
  495MOL0     C66705  10.250   2.890   4.416  0.2412  0.2440 -0.8148
  495MOL0     C66706  10.240   2.791   4.541  0.2511 -0.9598  0.4163
  495MOL0     N66707  10.143   2.685   4.506  0.9572  0.0513 -0.5745
  495MOL0     C66708  10.011   2.708   4.453 -0.6372  1.0670 -0.3818
  495MOL0     C66709   9.961   2.575   4.437  0.7244 -0.5635  0.4174
  495MOL0     C66710   9.825   2.550   4.378 -1.2138 -0.4353  0.3250
  495MOL0     C66711   9.718   2.631   4.460  0.6432 -0.1686  0.0942
  495MOL0     C66712   9.629   2.703   4.353  0.4617 -0.0636  0.2375
  495MOL0     C66713   9.500   2.774   4.418 -0.3465  0.4190  0.1167
  495MOL0     O66714   9.404   2.676   4.469 -0.1321  1.2146 -0.6083
  495MOL0     C66715   9.299   2.722   4.545  0.0631  0.3529  0.1896
  495MOL0     C66716   9.296   2.838   4.627  0.0985  0.6988  0.0581
  495MOL0     C66717   9.177   2.884   4.681 -0.4676  0.2093 -0.0360
  495MOL0     C66718   9.177   3.021   4.740  0.0670  0.3245  0.7362
  495MOL0     C66719   9.064   2.806   4.688 -0.3945  0.2029 -0.5311
  495MOL0     C66720   8.935   2.856   4.739 -0.3602  0.5762 -0.0376
  495MOL0     O66721   8.837   2.841   4.647  0.4007 -1.0463  0.7043
  495MOL0     C66722   8.706   2.857   4.681  0.6164  0.0151  0.6309
  495MOL0     C66723   8.647   2.970   4.738  0.6644  0.0817  0.1904
  495MOL0     C66724   8.507   2.973   4.763  0.1590  0.3458 -0.1252
  495MOL0     C66725   8.426   2.857   4.740 -1.2632 -0.1768 -0.8208
  495MOL0     O66726   8.298   2.852   4.791  0.1737  0.7845 -0.2124
  495MOL0     C66727   8.264   2.745   4.877  1.1681  0.6332 -1.0416
  495MOL0     C66728   8.158   2.662   4.824  0.4910 -0.3846  0.0994
  495MOL0     C66729   8.097   2.575   4.942 -0.3179  0.1214  0.7235
  495MOL0     C66730   7.995   2.465   4.907 -0.2191 -0.2848  0.6632
  495MOL0     C66731   7.920   2.403   5.029  0.4428  0.3332  0.4746
  495MOL0     C66732   7.813   2.297   4.997 -0.1955  0.3797 -0.4287
  495MOL0     C66733   7.697   2.364   4.927  1.2156  0.2543 -0.0739
  495MOL0     C66734   7.577   2.262   4.905 -0.6168 -0.3335 -0.1966
  495MOL0    Cl66735   7.485   2.242   5.067  0.1345 -0.4036 -0.4056
  495MOL0     C66736   8.493   2.751   4.670  0.3499 -0.3956  0.2699
  495MOL0     C66737   8.625   2.747   4.642 -0.7416 -0.5298  0.5799
  495MOL0     O66738   8.929   2.896   4.851 -0.3397  1.0783  0.3977
  495MOL0     C66739   9.069   2.680   4.616 -0.5912 -0.6143 -0.4357
  495MOL0     C66740   9.188   2.645   4.550  0.5118 -0.4521  0.0668
  495MOL0     N66741  10.045   2.487   4.495 -0.7251 -0.5701 -0.2742
  495MOL0     N66742  10.158   2.547   4.520  0.0230 -0.2340  0.4148
  495MOL0     C66743   9.517   3.157   4.351  0.3248 -0.1448 -1.0002
  495MOL0     C66744   9.457   3.188   4.462  0.4403 -0.5738 -0.6017
  495MOL0     C66745   9.329   3.405   4.801 -0.3655 -0.4052 -0.1225
  495MOL0     C66746   9.264   3.529   4.797  0.0768 -0.4436  0.5149
  495MOL0     C66747   9.182   3.575   4.909 -0.3563  0.6209  0.0662
  495MOL0     C66748   9.180   3.500   5.034 -1.1348 -1.1632  0.3546
  495MOL0     O66749   9.101   3.549   5.137  0.8138  0.7565  0.3141
  495MOL0     C66750   9.058   3.463   5.247 -0.3182 -0.5861 -0.0365
  495MOL0     C66751   9.153   3.471   5.363 -0.1035  0.6400 -0.4212
  495MOL0     C66752   9.183   3.336   5.429 -0.9087 -0.4066 -0.2705
  495MOL0     C66753   9.065   3.258   5.494  0.6164  0.0351  1.1262
  495MOL0     C66754   9.111   3.130   5.550 -0.2156 -0.5862 -0.3253
  495MOL0     C66755   9.143   3.019   5.578  1.2908  0.4821 -0.0808
  495MOL0     C66756   9.268   3.398   5.039  0.4092  0.6860 -0.0975
  495MOL0     C66757   9.337   3.346   4.930 -0.7629  0.4446 -0.8128
  495MOL0     H66758   9.714   3.145   4.691 -1.2589 -2.2308  0.4282
  495MOL0     H66759   9.821   3.090   4.491 -0.6761 -0.7040 -2.5126
  495MOL0     H66760   9.916   3.106   4.239  0.6440 -0.6739 -0.7427
  495MOL0     H66761   9.852   2.960   4.313 -1.1698  1.7675  1.7506
  495MOL0     H66762   9.799   2.872   4.081  0.7960 -0.7408  2.6490
  495MOL0     H66763   9.878   3.018   4.020 -1.4086 -1.9338 -2.3719
  495MOL0     H66764   9.997   2.791   4.191  1.1533 -0.7781 -0.9748
  495MOL0     H66765  10.040   2.813   4.032 -2.5617  0.2767 -1.0117
  495MOL0     H66766  10.143   3.045   4.080  0.4906 -0.4278 -0.6807
  495MOL0     H66767  10.117   3.015   4.247  3.0769  1.3480 -0.1995
  495MOL0     H66768  10.289   2.835   4.077 -1.3953 -1.0701  0.3502
  495MOL0     H66769  10.343   2.986   4.156  1.3403 -0.6172 -1.9928
  495MOL0     H66770  10.216   2.732   4.264  1.3734  0.9161 -3.0975
  495MOL0     H66771  10.385   2.781   4.291  2.1974  2.1303 -3.0622
  495MOL0     H66772  10.332   2.958   4.443  0.2734 -0.8468  2.3039
  495MOL0     H66773  10.147   2.926   4.416  0.3984  0.7583  0.5096
  495MOL0     H66774  10.211   2.851   4.629 -1.5906  0.1073 -0.8339
  495MOL0     H66775  10.334   2.740   4.561  0.8732  0.1629  0.3942
  495MOL0     H66776   9.977   2.803   4.413 -2.1040  0.0406 -1.6550
  495MOL0     H66777   9.829   2.586   4.275 -2.2103  4.2715  1.6814
  495MOL0     H66778   9.809   2.442   4.391  1.2676 -0.8445  0.4880
  495MOL0     H66779   9.765   2.714   4.514  1.8578  1.2641 -2.9703
  495MOL0     H66780   9.664   2.565   4.529 -0.4122 -0.4297 -0.9437
  495MOL0     H66781   9.595   2.623   4.286  0.5105 -1.4841  1.8539
  495MOL0     H66782   9.686   2.774   4.293 -0.3475 -1.3437 -2.1995
  495MOL0     H66783   9.448   2.839   4.348  0.4346  0.2724 -0.6157
  495MOL0     H66784   9.541   2.831   4.502  2.9193  1.4105 -1.9495
  495MOL0     H66785   9.369   2.917   4.610  0.3207  0.2404 -1.2060
  495MOL0     H66786   9.153   3.023   4.847 -2.5255  2.0162  0.2317
  495MOL0     H66787   9.278   3.064   4.740 -0.2651  1.1528 -0.3215
  495MOL0     H66788   9.098   3.082   4.694  0.6299 -0.3871 -1.2729
  495MOL0     H66789   8.717   3.052   4.739  0.2624  0.4694  2.6610
  495MOL0     H66790   8.468   3.070   4.794  2.4272  0.8902  1.3457
  495MOL0     H66791   8.354   2.687   4.899 -0.1042 -0.6730  1.0115
  495MOL0     H66792   8.225   2.790   4.969  0.7285 -0.0142 -0.9065
  495MOL0     H66793   8.082   2.730   4.783  0.1663 -0.1175  1.0960
  495MOL0     H66794   8.196   2.597   4.745 -0.0841 -4.8450  3.1415
  495MOL0     H66795   8.050   2.646   5.011 -0.0416  0.0071  1.0296
  495MOL0     H66796   8.173   2.528   5.004 -0.2322  1.3428  1.5834
  495MOL0     H66797   7.917   2.513   4.846  0.8653  0.2678 -0.3408
  495MOL0     H66798   8.043   2.388   4.846 -0.0130  1.1594 -1.0878
  495MOL0     H66799   7.864   2.476   5.088  0.1226  0.1143  0.4425
  495MOL0     H66800   7.988   2.352   5.099  0.3227  0.2970  0.5664
  495MOL0     H66801   7.847   2.223   4.924  1.5266  0.8734 -0.1557
  495MOL0     H66802   7.799   2.242   5.091  2.1854  1.3195  0.5540
  495MOL0     H66803   7.723   2.398   4.826 -1.0352 -0.1030 -0.8370
  495MOL0     H66804   7.660   2.448   4.985  1.9844 -0.1097  0.9848
  495MOL0     H66805   7.620   2.173   4.859 -1.2544 -0.1984 -1.0658
  495MOL0     H66806   7.507   2.303   4.832  1.4599  1.2666 -1.4141
  495MOL0     H66807   8.436   2.660   4.650 -0.5923 -0.7572  3.8994
  495MOL0     H66808   8.667   2.659   4.594 -2.2257 -0.4692 -0.8778
  495MOL0     H66809   8.986   2.610   4.611 -0.8390 -0.4067  0.5880
  495MOL0     H66810   9.189   2.554   4.490 -0.6149 -0.0889 -0.5179
  495MOL0     H66811   9.470   3.145   4.254  3.4529 -6.2658 -2.2273
  495MOL0     H66812   9.351   3.211   4.450  1.3000  3.3982 -2.0791
  495MOL0     H66813   9.258   3.589   4.707  0.1054 -0.9320  0.1859
  495MOL0     H66814   9.109   3.655   4.896 -0.4601  0.3995 -0.8474
  495MOL0     H66815   8.959   3.490   5.286 -0.9765 -3.0338  0.1328
  495MOL0     H66816   9.045   3.360   5.212  2.2153 -1.0243  0.1116
  495MOL0     H66817   9.122   3.530   5.449  0.1081 -0.4871  0.4554
  495MOL0     H66818   9.248   3.513   5.328  1.3964 -4.9368 -4.6641
  495MOL0     H66819   9.254   3.356   5.510  1.0611  0.3459 -2.0714
  495MOL0     H66820   9.233   3.272   5.356 -0.0931 -0.5411  0.3893
  495MOL0     H66821   8.987   3.235   5.421 -0.2115  1.4572  1.5133
  495MOL0     H66822   9.015   3.323   5.567 -0.5318 -0.7377  1.0615
  495MOL0     H66823   9.164   2.916   5.601  0.5325  0.2648 -0.3018
  495MOL0     H66824   9.275   3.336   5.128  4.4667 -1.9756 -1.9619
  495MOL0     H66825   9.388   3.254   4.958  0.5165  0.9271 -1.4570
  496MOL0     O66826   0.753   2.169  10.870  0.2119  0.3172 -0.6437
  496MOL0     C66827   0.791   2.221  10.975  0.5182 -0.1914  0.0297
  496MOL0     O66828   0.925   2.265  11.006  0.3965 -0.7007  0.2977
  496MOL0     C66829   1.017   2.277  10.899  0.3555  0.0692 -1.6638
  496MOL0     C66830   1.154   2.264  10.924 -0.0918  0.1414  0.2583
  496MOL0     C66831   1.245   2.270  10.830 -0.9709  0.4054 -0.2963
  496MOL0     C66832   1.206   2.322  10.707 -0.4434  0.4801 -0.1747
  496MOL0     O66833   1.288   2.370  10.612  0.4809 -0.1648  0.2245
  496MOL0     C66834   1.412   2.314  10.577 -0.3461  0.3999  0.1393
  496MOL0     C66835   1.462   2.389  10.451 -0.4157  0.1416 -0.2868
  496MOL0     C66836   1.351   2.397  10.341 -0.1958  0.4610  0.3758
  496MOL0     C66837   1.408   2.436  10.205  0.0012  0.1263 -0.2383
  496MOL0     C66838   1.282   2.455  10.116 -0.9667 -0.1418 -0.1536
  496MOL0     C66839   1.318   2.514   9.980 -0.0727 -1.6216 -0.1353
  496MOL0     C66840   1.220   2.602   9.922  0.3860 -0.0129  0.2102
  496MOL0     C66841   1.141   2.527   9.816 -0.0561 -0.3495  0.9970
  496MOL0     N66842   1.218   2.539   9.689 -0.5743 -0.7312 -0.4956
  496MOL0     C66843   1.283   2.437   9.628 -1.1373  0.0700 -0.0612
  496MOL0     C66844   1.325   2.484   9.508 -0.1926  0.0582  0.4307
  496MOL0     C66845   1.399   2.427   9.389  0.0530 -0.3390  0.0824
  496MOL0     C66846   1.439   2.280   9.409  0.1033 -0.6011 -0.2397
  496MOL0     C66847   1.560   2.259   9.494 -0.4492  0.3129  0.5635
  496MOL0     C66848   1.680   2.294   9.407  0.2619  0.2981  0.2884
  496MOL0     O66849   1.795   2.228   9.468 -0.3570  0.6548 -0.2738
  496MOL0     C66850   1.913   2.211   9.397 -0.1952 -0.7083  0.0817
  496MOL0     C66851   1.921   2.241   9.258  0.3133  0.3283  0.6303
  496MOL0     C66852   2.045   2.227   9.186  0.5288 -0.5623 -0.8549
  496MOL0     C66853   2.049   2.268   9.044  0.2394  0.4364  0.5038
  496MOL0     C66854   2.155   2.176   9.253 -0.1095 -0.6118 -0.6064
  496MOL0     C66855   2.284   2.154   9.198 -0.5938 -0.0719 -0.4618
  496MOL0     O66856   2.385   2.160   9.289 -0.2613  0.0710 -0.1066
  496MOL0     C66857   2.519   2.147   9.251  0.4151  1.0037  0.5977
  496MOL0     C66858   2.605   2.256   9.287  1.1142 -0.4936 -1.5990
  496MOL0     C66859   2.742   2.235   9.255  0.2531 -0.4509  0.0595
  496MOL0     C66860   2.796   2.126   9.181  0.1772  0.6025  0.0257
  496MOL0     O66861   2.930   2.109   9.168  0.6561  0.1418 -0.2572
  496MOL0     C66862   2.985   1.980   9.204  0.2893  0.3283  0.4103
  496MOL0     C66863   3.031   1.918   9.072 -1.0012  0.4492 -0.6227
  496MOL0     C66864   3.081   1.778   9.103 -0.1440  2.3188  0.4855
  496MOL0     C66865   3.120   1.715   8.963  0.3808  0.6748  0.6601
  496MOL0     C66866   3.132   1.562   8.971  0.0451 -0.8030  0.1030
  496MOL0     C66867   3.234   1.504   8.865  1.1467 -0.4125 -0.1041
  496MOL0     C66868   3.252   1.349   8.877  0.4657 -0.1195  0.0040
  496MOL0     C66869   3.316   1.287   8.745  0.5629  0.8085 -1.1260
  496MOL0    Cl66870   3.194   1.285   8.619 -0.6763  0.4487 -0.2147
  496MOL0     C66871   2.701   2.031   9.130  0.7949 -0.5459  1.0798
  496MOL0     C66872   2.572   2.043   9.171  1.0075  0.0737 -0.5668
  496MOL0     O66873   2.300   2.134   9.077 -0.2282  0.2465  0.0379
  496MOL0     C66874   2.134   2.149   9.386 -0.0663 -0.5848 -0.8361
  496MOL0     C66875   2.023   2.171   9.462 -0.2269 -0.3765 -0.4209
  496MOL0     N66876   1.282   2.612   9.491  0.0308 -0.6981 -0.0455
  496MOL0     N66877   1.216   2.647   9.599 -0.3871  0.3763 -0.2270
  496MOL0     C66878   1.075   2.343  10.672  0.2213 -0.1074 -0.4419
  496MOL0     C66879   0.975   2.330  10.771  0.0126  0.9228  0.4010
  496MOL0     C66880   0.692   2.231  11.092  0.2798  0.1884 -0.1848
  496MOL0     C66881   0.567   2.168  11.092  0.6987  0.1439  0.6030
  496MOL0     C66882   0.483   2.191  11.197 -0.0419 -0.6346 -1.0147
  496MOL0     C66883   0.514   2.276  11.305 -0.6450  0.5299  0.6286
  496MOL0     O66884   0.428   2.307  11.406 -0.3673  0.0851 -0.0553
  496MOL0     C66885   0.298   2.331  11.358 -0.1845 -1.1821 -0.0856
  496MOL0     C66886   0.210   2.405  11.464 -0.3020 -0.4451 -0.2587
  496MOL0     C66887   0.283   2.511  11.540  0.1883 -0.0413 -0.3920
  496MOL0     C66888   0.174   2.597  11.620  0.8518 -0.0399  0.4663
  496MOL0     C66889   0.229   2.717  11.681 -0.2447  0.4480 -0.6482
  496MOL0     C66890   0.271   2.814  11.738  0.5160 -0.3125 -0.8865
  496MOL0     C66891   0.640   2.325  11.313  0.6772 -0.5060  0.0468
  496MOL0     C66892   0.729   2.308  11.213  0.4546  0.3627  0.0637
  496MOL0     H66893   1.205   2.243  11.017  0.2347  0.2072  0.0989
  496MOL0     H66894   1.348   2.248  10.856 -1.1258  1.3841  1.2749
  496MOL0     H66895   1.493   2.340  10.646 -2.4710  0.6869  2.6805
  496MOL0     H66896   1.397   2.208  10.555 -2.2128  0.6367  0.0693
  496MOL0     H66897   1.482   2.487  10.496  1.4303 -0.6356  0.7151
  496MOL0     H66898   1.554   2.341  10.415  1.3536  3.4017 -0.5759
  496MOL0     H66899   1.292   2.305  10.348  2.3613 -1.1924  1.9231
  496MOL0     H66900   1.283   2.476  10.375  1.6131  0.6852  4.0450
  496MOL0     H66901   1.461   2.532  10.216  1.3747 -0.6031 -0.2285
  496MOL0     H66902   1.483   2.360  10.181 -2.2342 -2.1298 -0.4809
  496MOL0     H66903   1.234   2.357  10.107 -0.1616 -0.9729  3.2037
  496MOL0     H66904   1.215   2.529  10.162 -0.1207  1.0338 -0.7540
  496MOL0     H66905   1.409   2.575   9.985 -2.2788  2.2557 -2.2766
  496MOL0     H66906   1.357   2.440   9.909  3.4844 -1.6721  1.6274
  496MOL0     H66907   1.151   2.615  10.006  0.5867 -3.2668  1.0535
  496MOL0     H66908   1.256   2.699   9.888  1.9499 -0.3899  0.6657
  496MOL0     H66909   1.045   2.578   9.807 -0.1297  0.3945  4.6062
  496MOL0     H66910   1.124   2.424   9.850 -1.4497  0.6262  3.6221
  496MOL0     H66911   1.295   2.333   9.657 -1.6582 -0.1806 -0.7085
  496MOL0     H66912   1.319   2.426   9.315 -0.4422  1.5304  0.5231
  496MOL0     H66913   1.481   2.489   9.351  2.9450 -4.9121 -1.9921
  496MOL0     H66914   1.466   2.242   9.310  1.4783  0.2029 -0.2040
  496MOL0     H66915   1.355   2.224   9.452  0.0899 -0.5846 -0.2443
  496MOL0     H66916   1.560   2.154   9.524 -0.4101  0.8199  2.4714
  496MOL0     H66917   1.564   2.324   9.582 -1.3527  0.2390  0.6798
  496MOL0     H66918   1.698   2.401   9.419 -0.1406  0.4341 -0.2683
  496MOL0     H66919   1.666   2.272   9.301 -0.1427 -0.1275  0.4238
  496MOL0     H66920   1.839   2.271   9.194  0.8724  0.4886 -0.0182
  496MOL0     H66921   2.056   2.178   8.982 -0.8718  0.7575 -0.1105
  496MOL0     H66922   1.970   2.338   9.019  1.5629  1.9518  0.3945
  496MOL0     H66923   2.140   2.315   9.006  0.5606 -0.3808  0.2378
  496MOL0     H66924   2.576   2.349   9.334  0.7319 -1.5874  0.4515
  496MOL0     H66925   2.814   2.312   9.279 -0.3960 -0.0719  0.8630
  496MOL0     H66926   3.078   2.000   9.258  2.3280 -1.2312 -2.3000
  496MOL0     H66927   2.916   1.919   9.263  2.5741 -0.7724  2.0683
  496MOL0     H66928   2.945   1.909   9.005 -2.7182  0.3755  1.4845
  496MOL0     H66929   3.114   1.979   9.033 -2.2003  0.1161 -4.0477
  496MOL0     H66930   3.008   1.713   9.153  1.5804 -0.8250 -0.7761
  496MOL0     H66931   3.164   1.790   9.173  1.9447  2.2940 -1.8845
  496MOL0     H66932   3.032   1.725   8.899  0.2516  0.6745  0.8357
  496MOL0     H66933   3.208   1.766   8.923  0.4216  1.0309  1.1919
  496MOL0     H66934   3.034   1.516   8.956  1.1452 -2.6728 -2.0149
  496MOL0     H66935   3.171   1.529   9.067  0.0481  1.5009  0.9647
  496MOL0     H66936   3.178   1.519   8.772  0.3789 -0.4478  0.3449
  496MOL0     H66937   3.324   1.566   8.861 -0.1902  1.7493  1.0155
  496MOL0     H66938   3.157   1.302   8.904 -0.2092  0.7027 -0.8941
  496MOL0     H66939   3.321   1.332   8.961  1.5536  1.1330 -0.5940
  496MOL0     H66940   3.357   1.190   8.775  0.3818  1.7865  2.8381
  496MOL0     H66941   3.401   1.347   8.713  3.7826 -2.1757  0.9764
  496MOL0     H66942   2.730   1.947   9.067 -1.1963 -1.4926  1.3559
  496MOL0     H66943   2.494   1.973   9.141  2.0814 -0.7630 -1.4663
  496MOL0     H66944   2.216   2.099   9.438  0.4126  0.1685 -0.8618
  496MOL0     H66945   1.999   2.157   9.567  1.8598  2.9975  0.6598
  496MOL0     H66946   1.042   2.372  10.572 -0.7007  1.4629  0.2728
  496MOL0     H66947   0.872   2.345  10.740 -1.5997 -4.2672  2.2241
  496MOL0     H66948   0.538   2.099  11.013  4.4824 -1.2573  0.2305
  496MOL0     H66949   0.379   2.159  11.199 -0.0190 -0.8122  2.2782
  496MOL0     H66950   0.306   2.399  11.273  2.4888 -1.4045 -0.0877
  496MOL0     H66951   0.241   2.241  11.332 -0.4328 -2.0494  2.9624
  496MOL0     H66952   0.162   2.326  11.522 -2.5697  1.1783  0.1957
  496MOL0     H66953   0.128   2.456  11.413 -1.3826 -0.3603  1.4726
  496MOL0     H66954   0.324   2.584  11.468  0.4213  1.2058  0.9566
  496MOL0     H66955   0.354   2.480  11.617  1.3888  2.8478 -0.1897
  496MOL0     H66956   0.120   2.535  11.692 -0.3128 -1.2132 -1.3286
  496MOL0     H66957   0.097   2.633  11.551  0.3406 -1.6880  0.1339
  496MOL0     H66958   0.303   2.902  11.790  2.3627 -1.6024  0.2852
  496MOL0     H66959   0.675   2.381  11.399  0.9841  0.2638 -0.5649
  496MOL0     H66960   0.824   2.359  11.220  0.2307  0.5915  2.0159
  497MOL0     O66961  10.502   8.858   4.312  0.2233 -0.1811 -0.9732
  497MOL0     C66962  10.557   8.894   4.412  0.1094 -0.0209 -1.1343
  497MOL0     O66963  10.591   8.815   4.526  0.1614  0.5529 -0.8907
  497MOL0     C66964  10.571   8.678   4.528 -0.1463  0.0603  0.7492
  497MOL0     C66965  10.569   8.594   4.409  0.1397  0.2003 -0.1420
  497MOL0     C66966  10.531   8.457   4.423 -0.9048  0.3180  0.2684
  497MOL0     C66967  10.488   8.401   4.542  0.5717  1.4079 -0.6234
  497MOL0     O66968  10.448   8.273   4.565  0.4390 -0.4833  0.9745
  497MOL0     C66969  10.475   8.172   4.464 -0.6340  0.1025  0.4925
  497MOL0     C66970  10.428   8.039   4.526 -0.7985 -0.3488  0.8758
  497MOL0     C66971  10.282   8.037   4.524  0.3118 -1.2201  1.1397
  497MOL0     C66972  10.214   7.938   4.610  0.4372  0.2675 -0.4625
  497MOL0     C66973  10.079   7.904   4.578  0.2527 -0.8518  0.0849
  497MOL0     C66974  10.033   7.770   4.629  0.0948  0.1882 -0.0383
  497MOL0     C66975   9.898   7.734   4.559  0.1845 -0.4594 -0.1134
  497MOL0     C66976   9.835   7.610   4.620  0.0166  0.4368  0.0217
  497MOL0     N66977   9.700   7.574   4.578  0.2282  0.7435  0.4688
  497MOL0     C66978   9.647   7.559   4.452 -0.1776 -0.1426 -0.7426
  497MOL0     C66979   9.517   7.528   4.464 -0.7674  0.0504  0.1080
  497MOL0     C66980   9.412   7.504   4.350 -0.3514  0.2231 -0.3189
  497MOL0     C66981   9.295   7.599   4.381 -0.3313  0.9462 -0.0422
  497MOL0     C66982   9.200   7.522   4.475 -0.0455 -0.0674 -0.8333
  497MOL0     C66983   9.068   7.609   4.501 -0.2956  0.2876  0.4834
  497MOL0     O66984   8.986   7.530   4.580  0.3532  1.3572  0.2387
  497MOL0     C66985   8.848   7.542   4.565  0.1959  0.3056  0.4241
  497MOL0     C66986   8.786   7.657   4.508 -0.6268 -0.0909 -0.7030
  497MOL0     C66987   8.643   7.669   4.483 -0.1086  0.0123  0.2602
  497MOL0     C66988   8.610   7.800   4.425  0.1033  0.1610 -0.7895
  497MOL0     C66989   8.560   7.557   4.517  0.0449 -0.4996 -0.4430
  497MOL0     C66990   8.412   7.558   4.494 -0.1653  0.5986  0.2703
  497MOL0     O66991   8.356   7.656   4.426  0.4144  0.0834  0.3777
  497MOL0     C66992   8.215   7.655   4.415  0.2235 -1.2512 -0.3087
  497MOL0     C66993   8.142   7.568   4.332  0.3405 -0.1458  0.2723
  497MOL0     C66994   8.003   7.573   4.331 -0.1198  0.0352  0.4058
  497MOL0     C66995   7.937   7.661   4.420 -0.3306 -1.2177 -0.2251
  497MOL0     O66996   7.802   7.685   4.426 -1.1169  0.0873 -0.2850
  497MOL0     C66997   7.718   7.591   4.356  0.3372 -1.3863  0.1800
  497MOL0     C66998   7.578   7.620   4.390 -0.8041 -0.6754 -0.7617
  497MOL0     C66999   7.493   7.494   4.359 -0.0749 -0.4233  0.1780
  497MOL0     C67000   7.338   7.512   4.359 -0.4478 -0.9500 -0.4495
  497MOL0     C67001   7.295   7.384   4.301  0.5736 -0.0878  0.4285
  497MOL0     C67002   7.137   7.387   4.280 -0.0542  0.4426  0.5061
  497MOL0     C67003   7.051   7.377   4.412  0.4341 -1.8757 -0.4784
  497MOL0     C67004   6.906   7.366   4.393 -0.9996 -0.2655  0.2789
  497MOL0    Cl67005   6.835   7.378   4.553  0.3628  0.3844 -0.2641
  497MOL0     C67006   8.012   7.752   4.496  0.4002 -1.2813 -0.0199
  497MOL0     C67007   8.148   7.757   4.488 -0.2266 -0.6787 -0.0887
  497MOL0     O67008   8.356   7.461   4.549  0.6622 -0.1107  0.4967
  497MOL0     C67009   8.617   7.441   4.574 -0.5218 -0.6510  0.8614
  497MOL0     C67010   8.759   7.440   4.595 -0.2190  0.4712 -0.4849
  497MOL0     N67011   9.505   7.492   4.596  0.0927 -0.0369  0.3856
  497MOL0     N67012   9.610   7.513   4.664  0.5888  0.2884  0.3055
  497MOL0     C67013  10.481   8.494   4.649 -0.3760  0.1625 -0.1453
  497MOL0     C67014  10.520   8.624   4.639 -0.7328 -0.7583  0.5169
  497MOL0     C67015  10.604   9.037   4.421 -1.1089 -0.7996  0.3671
  497MOL0     C67016  10.647   9.093   4.545 -0.7287  0.3934  1.1208
  497MOL0     C67017  10.683   9.227   4.558 -0.0497  0.0232 -0.5199
  497MOL0     C67018  10.669   9.316   4.454 -0.1802 -0.3403 -0.2226
  497MOL0     O67019  10.677   9.447   4.460 -0.6780  0.7285 -0.0418
  497MOL0     C67020  10.741   9.508   4.576  0.0628  0.0781 -0.1449
  497MOL0     C67021  10.709   9.659   4.580  0.7536 -0.1601 -0.0953
  497MOL0     C67022  10.709   9.722   4.715 -0.3228  0.1952  0.0114
  497MOL0     C67023  10.647   9.862   4.706  0.5604  0.2852 -1.0680
  497MOL0     C67024  10.503   9.853   4.701 -0.0096  0.5942 -0.6330
  497MOL0     C67025  10.384   9.835   4.707  0.4049 -0.5523  0.5390
  497MOL0     C67026  10.645   9.262   4.322  0.6650 -0.2152 -0.2427
  497MOL0     C67027  10.622   9.126   4.307 -0.4357 -0.1359 -1.0690
  497MOL0     H67028  10.583   8.641   4.312 -1.6709  0.9083 -0.1035
  497MOL0     H67029  10.513   8.396   4.335  1.3677 -0.8734  0.5565
  497MOL0     H67030  10.432   8.179   4.364  0.9182  2.0154 -0.1114
  497MOL0     H67031  10.584   8.161   4.460 -0.0541  3.9330  1.5409
  497MOL0     H67032  10.458   7.951   4.468 -1.8288  0.4479 -0.9400
  497MOL0     H67033  10.472   8.022   4.624  0.3145 -1.3634  0.2208
  497MOL0     H67034  10.234   8.131   4.551 -2.1681 -2.1566  0.3834
  497MOL0     H67035  10.254   8.033   4.418 -2.1681  0.8157  1.5977
  497MOL0     H67036  10.275   7.847   4.606  1.8379  1.1982 -1.1669
  497MOL0     H67037  10.230   7.967   4.715  2.1565 -1.9051 -0.0408
  497MOL0     H67038  10.009   7.985   4.603  2.5782  2.3132 -2.7166
  497MOL0     H67039  10.072   7.897   4.469 -2.1305 -1.0813  0.1964
  497MOL0     H67040  10.111   7.693   4.630  1.2723  1.3495  0.0613
  497MOL0     H67041  10.011   7.777   4.736  3.3699  2.3299  0.6483
  497MOL0     H67042   9.822   7.808   4.586 -1.5984 -1.6622 -1.5524
  497MOL0     H67043   9.894   7.735   4.450 -0.9560 -0.2261 -0.0897
  497MOL0     H67044   9.835   7.623   4.729  0.4033  1.8454 -0.1155
  497MOL0     H67045   9.901   7.525   4.599  2.1614  2.1376 -0.5948
  497MOL0     H67046   9.691   7.591   4.358 -3.7324  2.0296 -1.8498
  497MOL0     H67047   9.459   7.536   4.256 -0.6120 -2.5532 -1.4972
  497MOL0     H67048   9.393   7.397   4.338  7.2099 -2.0609  2.0348
  497MOL0     H67049   9.231   7.617   4.294  0.5167  0.5875 -0.7503
  497MOL0     H67050   9.334   7.695   4.416  0.5075  0.1894  1.1656
  497MOL0     H67051   9.237   7.504   4.577  2.0684  3.8977 -0.6971
  497MOL0     H67052   9.169   7.426   4.434 -0.2614 -0.3213 -0.1010
  497MOL0     H67053   9.020   7.626   4.404 -2.0363 -0.0945  1.2371
  497MOL0     H67054   9.085   7.708   4.544  3.7200  1.6465 -3.4560
  497MOL0     H67055   8.849   7.741   4.481 -1.3426 -0.1820 -2.8076
  497MOL0     H67056   8.540   7.862   4.482  2.1654  1.1360  0.8223
  497MOL0     H67057   8.695   7.869   4.430 -0.1338  0.3772  1.7615
  497MOL0     H67058   8.579   7.796   4.320  1.7309  0.4962 -1.3259
  497MOL0     H67059   8.213   7.507   4.278  2.0949  0.3606  1.9010
  497MOL0     H67060   7.951   7.506   4.263 -1.4042  1.7159 -0.3654
  497MOL0     H67061   7.718   7.604   4.248 -1.6837  1.9654  0.4537
  497MOL0     H67062   7.753   7.491   4.384  1.1031 -0.5679  2.3402
  497MOL0     H67063   7.552   7.625   4.496 -0.0922 -0.7972 -0.5765
  497MOL0     H67064   7.546   7.714   4.344 -0.1061 -0.9319 -1.8055
  497MOL0     H67065   7.518   7.424   4.440 -1.9360  0.2471  1.3965
  497MOL0     H67066   7.528   7.451   4.265  1.7669 -1.0596  1.0966
  497MOL0     H67067   7.306   7.514   4.463 -1.4593  1.0157 -0.7524
  497MOL0     H67068   7.300   7.605   4.316 -1.4395  0.1766  2.6425
  497MOL0     H67069   7.318   7.292   4.354  1.8285  0.3730  0.7271
  497MOL0     H67070   7.345   7.362   4.206  0.3134  0.6172  0.1195
  497MOL0     H67071   7.104   7.474   4.224 -2.4283  0.0107  1.1334
  497MOL0     H67072   7.112   7.296   4.225  2.6149 -1.3919  2.0853
  497MOL0     H67073   7.064   7.477   4.455 -1.4441 -1.5962 -0.4540
  497MOL0     H67074   7.092   7.295   4.471  1.0070 -1.2036  0.0788
  497MOL0     H67075   6.893   7.269   4.345  0.9946  0.4198 -1.8383
  497MOL0     H67076   6.858   7.433   4.321 -1.0921  1.2595  1.6862
  497MOL0     H67077   7.948   7.810   4.562 -2.0241 -1.8919 -1.7063
  497MOL0     H67078   8.218   7.814   4.548  0.9068 -0.7902 -1.2435
  497MOL0     H67079   8.561   7.355   4.608  2.0844 -1.7643  2.7125
  497MOL0     H67080   8.788   7.342   4.632 -2.1430 -0.7338 -1.9280
  497MOL0     H67081  10.440   8.454   4.741 -0.2236  1.7193  0.6206
  497MOL0     H67082  10.490   8.693   4.717 -1.1239  0.2377 -0.4758
  497MOL0     H67083  10.655   9.024   4.629 -0.1410 -1.9205 -0.7335
  497MOL0     H67084  10.722   9.243   4.658  0.3032 -0.3069 -0.5990
  497MOL0     H67085  10.694   9.461   4.663 -0.2572  0.7591  0.0574
  497MOL0     H67086  10.845   9.479   4.588 -0.7704 -2.0972  3.0667
  497MOL0     H67087  10.610   9.661   4.534 -0.1506 -2.7791  1.4974
  497MOL0     H67088  10.779   9.705   4.510  1.4575 -1.5222 -0.3273
  497MOL0     H67089  10.813   9.727   4.748 -0.2367 -2.7737  0.4191
  497MOL0     H67090  10.656   9.659   4.788 -1.4220  1.3570  0.2633
  497MOL0     H67091  10.679   9.925   4.622 -2.6745  0.6665 -2.1542
  497MOL0     H67092  10.666   9.923   4.795 -4.4266  3.1754 -1.6048
  497MOL0     H67093  10.279   9.820   4.697  0.3928 -0.5005  0.5885
  497MOL0     H67094  10.654   9.327   4.235  0.4021  1.7093  1.0966
  497MOL0     H67095  10.596   9.109   4.203 -1.5868 -2.0298 -0.5199
  498MOL0     O67096  11.464   3.148   8.422 -0.2997 -0.7348 -0.4486
  498MOL0     C67097  11.405   3.114   8.523  0.1844  0.2443 -0.3734
  498MOL0     O67098  11.435   3.004   8.599 -0.3665 -0.3288  0.3567
  498MOL0     C67099  11.539   2.922   8.555  1.0499 -0.4881  0.3590
  498MOL0     C67100  11.655   2.899   8.632 -0.3689  0.8504  0.6094
  498MOL0     C67101  11.758   2.817   8.580  0.2892 -0.3523 -1.1421
  498MOL0     C67102  11.738   2.763   8.453 -0.5150  0.9161 -0.6713
  498MOL0     O67103  11.834   2.681   8.395 -1.2093 -0.5599  0.4929
  498MOL0     C67104  11.979   2.714   8.425  1.0662 -0.3297 -0.0326
  498MOL0     C67105  12.022   2.857   8.387 -0.1145  0.0185 -0.1788
  498MOL0     C67106  12.171   2.875   8.413 -0.0657 -0.1047  0.2460
  498MOL0     C67107  12.258   2.816   8.300  0.2107  0.6395  0.2343
  498MOL0     C67108  12.385   2.766   8.360 -1.0989 -0.2448  0.4330
  498MOL0     C67109  12.489   2.728   8.246  0.3757 -0.6141  0.0968
  498MOL0     C67110  12.633   2.685   8.290  0.5346 -0.8532  0.0011
  498MOL0     C67111  12.638   2.579   8.391 -0.4469  0.7273 -0.5279
  498MOL0     N67112  12.597   2.455   8.326 -0.3852 -0.2531  0.2799
  498MOL0     C67113  12.480   2.387   8.339 -0.7724  0.1858  0.8164
  498MOL0     C67114  12.512   2.269   8.269  0.2346 -1.0847 -0.0917
  498MOL0     C67115  12.423   2.149   8.252 -0.1769 -0.1922  0.0301
  498MOL0     C67116  12.284   2.176   8.207  0.4078  0.2538 -0.3486
  498MOL0     C67117  12.186   2.055   8.227  0.4109 -0.5298 -0.1769
  498MOL0     C67118  12.237   1.936   8.154  0.8087 -0.4457  0.6516
  498MOL0     O67119  12.130   1.845   8.158  0.3988 -1.2520  1.1156
  498MOL0     C67120  12.118   1.770   8.043 -0.9360 -0.3049  0.9767
  498MOL0     C67121  11.991   1.733   8.016 -0.2068 -1.0423  0.2574
  498MOL0     C67122  11.977   1.651   7.901  0.0465  0.1708 -0.6521
  498MOL0     C67123  11.835   1.625   7.859  0.3965  1.3415 -0.7704
  498MOL0     C67124  12.084   1.589   7.835  0.6469  0.3751  0.0187
  498MOL0     C67125  12.064   1.471   7.744 -0.0387  0.0662  0.4846
  498MOL0     O67126  12.144   1.353   7.784  0.5448 -0.5295 -0.1830
  498MOL0     C67127  12.124   1.230   7.725  0.4693 -0.9919  0.7879
  498MOL0     C67128  12.141   1.214   7.592 -0.3583  0.1777 -0.2122
  498MOL0     C67129  12.127   1.087   7.535  0.0795 -0.1564 -0.7150
  498MOL0     C67130  12.094   0.979   7.620  0.0742  0.3709  0.2006
  498MOL0     O67131  12.096   0.847   7.578  0.3781  0.0708  0.0846
  498MOL0     C67132  11.980   0.818   7.500 -0.0234 -0.2156 -0.0938
  498MOL0     C67133  12.019   0.690   7.411  0.1273 -1.0037  0.3563
  498MOL0     C67134  11.889   0.631   7.346  0.3409 -0.6428  0.4727
  498MOL0     C67135  11.928   0.514   7.250  0.7379 -0.2562  0.4359
  498MOL0     C67136  11.794   0.439   7.233 -0.9391  0.1443 -1.0816
  498MOL0     C67137  11.769   0.328   7.329  0.4231  0.1048 -0.6939
  498MOL0     C67138  11.631   0.285   7.349  0.9537  0.9600 -0.1124
  498MOL0     C67139  11.623   0.155   7.428  0.0004 -1.3662 -0.0694
  498MOL0    Cl67140  11.475   0.077   7.393  0.0176  0.1414  0.1083
  498MOL0     C67141  12.063   1.003   7.757 -0.6572  0.1434 -0.1170
  498MOL0     C67142  12.080   1.129   7.806  0.7867  0.4498  0.6742
  498MOL0     O67143  11.975   1.470   7.665 -0.6689 -0.9590  0.4581
  498MOL0     C67144  12.212   1.628   7.868 -0.3706  0.1366  0.1757
  498MOL0     C67145  12.226   1.715   7.971  0.1920 -0.2434 -0.6184
  498MOL0     N67146  12.629   2.274   8.204  0.0981 -0.2165  0.3012
  498MOL0     N67147  12.680   2.383   8.236  0.6495  0.2563  0.7972
  498MOL0     C67148  11.623   2.779   8.379 -1.0545 -0.4157  0.7596
  498MOL0     C67149  11.520   2.860   8.428  0.3374  0.4130 -0.4708
  498MOL0     C67150  11.299   3.200   8.580 -0.6185  0.6312 -0.0360
  498MOL0     C67151  11.275   3.331   8.553  0.7968 -0.3868  0.6903
  498MOL0     C67152  11.170   3.402   8.607  0.2393  0.3582  1.0292
  498MOL0     C67153  11.076   3.337   8.695  0.1926  0.2081 -0.0093
  498MOL0     O67154  10.958   3.393   8.746 -0.2243  0.2031 -0.1378
  498MOL0     C67155  10.922   3.531   8.729 -0.0948 -0.4179  0.3655
  498MOL0     C67156  10.776   3.560   8.769 -0.1824  0.0334 -0.5471
  498MOL0     C67157  10.735   3.497   8.897 -0.1670 -0.0112  0.6270
  498MOL0     C67158  10.589   3.526   8.938 -0.1876 -0.9462  0.4160
  498MOL0     C67159  10.577   3.615   9.054 -0.2179  0.1811 -0.5695
  498MOL0     C67160  10.560   3.694   9.146  1.1489 -0.9310  0.2847
  498MOL0     C67161  11.098   3.199   8.726  0.6584 -1.1413  1.1591
  498MOL0     C67162  11.205   3.133   8.669  0.4742  0.2681 -0.6791
  498MOL0     H67163  11.662   2.955   8.725  0.2133  1.8271 -0.0114
  498MOL0     H67164  11.848   2.787   8.632  0.6569  1.6253 -0.5424
  498MOL0     H67165  12.010   2.698   8.528  0.9911  3.3526  0.6843
  498MOL0     H67166  12.041   2.650   8.362 -0.4833  0.7052 -2.7944
  498MOL0     H67167  12.009   2.863   8.278  2.0607 -0.4441 -0.5184
  498MOL0     H67168  11.963   2.932   8.441  0.2884  2.2395 -2.5803
  498MOL0     H67169  12.196   2.981   8.417 -1.8701  0.3361  0.4419
  498MOL0     H67170  12.193   2.830   8.511 -0.5947 -0.3239  0.2683
  498MOL0     H67171  12.208   2.727   8.260  1.2233 -2.3735  4.8567
  498MOL0     H67172  12.287   2.896   8.232 -2.3352 -0.0679 -1.8347
  498MOL0     H67173  12.423   2.846   8.423 -1.4295  0.1702  0.1171
  498MOL0     H67174  12.359   2.680   8.422  0.1832  0.8330  2.5731
  498MOL0     H67175  12.438   2.645   8.195 -1.4483  1.2041 -1.2586
  498MOL0     H67176  12.506   2.809   8.174  0.1975  0.4736  1.2330
  498MOL0     H67177  12.686   2.649   8.201 -1.8682 -2.2789 -0.9553
  498MOL0     H67178  12.684   2.776   8.323 -2.8151  1.4430 -0.5870
  498MOL0     H67179  12.575   2.598   8.479 -0.9918 -2.2906 -0.1439
  498MOL0     H67180  12.745   2.579   8.416 -1.0066 -2.4078  2.7085
  498MOL0     H67181  12.388   2.418   8.388 -1.0412  0.0679  0.3839
  498MOL0     H67182  12.473   2.078   8.184 -0.6455  0.2726 -0.8074
  498MOL0     H67183  12.414   2.105   8.351 -1.4017 -0.1960 -0.0710
  498MOL0     H67184  12.273   2.211   8.104 -1.8895 -3.5696 -1.6189
  498MOL0     H67185  12.234   2.257   8.260  0.5393  0.9828 -1.3191
  498MOL0     H67186  12.087   2.091   8.197  0.3305  2.0294  2.6956
  498MOL0     H67187  12.192   2.029   8.334 -2.1995 -3.6728 -0.6032
  498MOL0     H67188  12.332   1.895   8.191  0.3345 -0.5284  1.8188
  498MOL0     H67189  12.241   1.990   8.059 -1.4648 -1.4603 -0.0962
  498MOL0     H67190  11.908   1.778   8.070  1.5928  0.6390  1.7681
  498MOL0     H67191  11.819   1.518   7.877 -1.4480  1.7253  0.0706
  498MOL0     H67192  11.773   1.689   7.921 -0.4642 -0.8593  0.7888
  498MOL0     H67193  11.811   1.639   7.753 -2.8402 -0.0734 -0.3222
  498MOL0     H67194  12.149   1.302   7.529 -2.2050  0.9960  0.6382
  498MOL0     H67195  12.155   1.079   7.430 -0.4426 -1.5550 -0.7615
  498MOL0     H67196  11.890   0.796   7.558 -0.9788  0.9078 -1.0848
  498MOL0     H67197  11.964   0.907   7.437 -1.0514 -0.3532 -0.0444
  498MOL0     H67198  12.099   0.701   7.337 -0.8468 -1.5110 -0.8061
  498MOL0     H67199  12.041   0.617   7.489  2.1847  1.4919  2.3214
  498MOL0     H67200  11.837   0.714   7.297 -0.7962 -1.2899  0.5483
  498MOL0     H67201  11.829   0.598   7.432  1.5704  1.1084  2.0919
  498MOL0     H67202  11.959   0.556   7.154 -0.9733  0.0973 -0.0069
  498MOL0     H67203  11.995   0.435   7.285  1.7462  0.6100  0.5068
  498MOL0     H67204  11.796   0.388   7.136 -0.3386  0.7097 -1.3712
  498MOL0     H67205  11.710   0.508   7.240 -1.1231 -0.1466 -0.3042
  498MOL0     H67206  11.819   0.236   7.295 -2.1662 -3.0118  3.0246
  498MOL0     H67207  11.812   0.355   7.425  0.5576  0.3327 -0.8161
  498MOL0     H67208  11.591   0.260   7.251  4.0254 -3.0323 -0.6253
  498MOL0     H67209  11.587   0.370   7.402  0.8625  2.2351 -2.1520
  498MOL0     H67210  11.622   0.168   7.536  0.1168 -2.6995  0.1010
  498MOL0     H67211  11.703   0.087   7.399 -0.3660 -1.6201 -0.5048
  498MOL0     H67212  12.042   0.918   7.820  0.6738  0.6257  1.0218
  498MOL0     H67213  12.074   1.141   7.913 -1.0048  0.3309  0.6221
  498MOL0     H67214  12.298   1.584   7.817 -1.3853 -2.0310  0.1934
  498MOL0     H67215  12.322   1.751   8.008 -1.1034  4.4336 -1.2345
  498MOL0     H67216  11.617   2.720   8.289 -1.6665 -0.9812  1.1613
  498MOL0     H67217  11.421   2.877   8.386  0.4045  3.3661  0.3330
  498MOL0     H67218  11.338   3.391   8.487 -1.3932  1.2988  0.0137
  498MOL0     H67219  11.151   3.505   8.579 -0.7320  0.6907  2.7430
  498MOL0     H67220  10.996   3.594   8.780  1.6667 -0.3576 -2.0674
  498MOL0     H67221  10.934   3.560   8.624 -1.3048 -1.3203 -0.0372
  498MOL0     H67222  10.725   3.509   8.687  0.7775 -1.5640 -0.1893
  498MOL0     H67223  10.758   3.668   8.772 -1.9759 -0.2458  0.8146
  498MOL0     H67224  10.813   3.519   8.971  0.0049  2.1463 -0.1203
  498MOL0     H67225  10.746   3.390   8.880  3.6297 -0.2177  3.0841
  498MOL0     H67226  10.538   3.436   8.973  3.1713 -1.9786  3.2933
  498MOL0     H67227  10.533   3.584   8.865  0.9732 -0.7073 -0.3152
  498MOL0     H67228  10.522   3.739   9.235  0.7784 -4.4308  2.0702
  498MOL0     H67229  11.028   3.144   8.788  0.0969 -2.1763 -0.3345
  498MOL0     H67230  11.212   3.031   8.706  1.4918  1.0148  1.3360
  499MOL0     O67231   7.147   3.750   0.422 -0.5394 -0.6050 -0.1835
  499MOL0     C67232   7.114   3.722   0.533  0.5638 -0.0218  0.0968
  499MOL0     O67233   7.106   3.597   0.584 -0.2157  0.2615  0.4874
  499MOL0     C67234   7.149   3.483   0.522 -0.2165  0.4873 -0.0675
  499MOL0     C67235   7.261   3.458   0.441 -0.2306  0.0417 -0.4109
  499MOL0     C67236   7.293   3.325   0.392 -0.5702  0.0268 -0.0496
  499MOL0     C67237   7.211   3.221   0.425  0.2451  0.8881  0.7008
  499MOL0     O67238   7.239   3.089   0.408 -0.9096  0.6821 -0.0881
  499MOL0     C67239   7.369   3.035   0.420 -0.2239 -0.0113  1.2590
  499MOL0     C67240   7.380   2.949   0.537 -0.4523  0.1191 -1.0493
  499MOL0     C67241   7.361   3.006   0.675  1.0796 -0.1434  0.7421
  499MOL0     C67242   7.353   2.902   0.786 -0.3978  0.9195  0.3684
  499MOL0     C67243   7.330   2.963   0.924 -0.3593  0.4713  0.5066
  499MOL0     C67244   7.192   3.004   0.971  0.4852  0.1680  0.3442
  499MOL0     C67245   7.195   3.126   1.062  0.1226  0.8251 -0.1434
  499MOL0     C67246   7.191   3.258   0.977 -0.1852 -0.8741 -0.6073
  499MOL0     N67247   7.192   3.378   1.074  0.1134 -0.0548  0.1259
  499MOL0     C67248   7.107   3.392   1.180  0.1227  0.1628  0.5875
  499MOL0     C67249   7.112   3.519   1.221 -1.1056  0.0705  1.2990
  499MOL0     C67250   7.039   3.593   1.322 -0.1616  0.5701  0.5365
  499MOL0     C67251   7.099   3.634   1.455  0.2215  0.6024  0.1923
  499MOL0     C67252   7.239   3.696   1.448 -0.5515 -0.4515 -0.3809
  499MOL0     C67253   7.288   3.760   1.578  0.4783  0.7546 -0.0534
  499MOL0     O67254   7.180   3.832   1.632  0.4690  0.4180  0.0448
  499MOL0     C67255   7.164   3.832   1.767 -0.6367 -0.0951 -0.5307
  499MOL0     C67256   7.273   3.842   1.856 -0.2875 -0.3226  0.1675
  499MOL0     C67257   7.255   3.845   1.999  0.7752  0.6440  0.5730
  499MOL0     C67258   7.386   3.843   2.090  0.8577 -0.0734 -0.3422
  499MOL0     C67259   7.117   3.847   2.047 -0.5702 -0.0012 -0.2320
  499MOL0     C67260   7.066   3.823   2.189 -0.2348  0.0409  1.4457
  499MOL0     O67261   7.160   3.836   2.284  0.1743  0.7423  0.1574
  499MOL0     C67262   7.180   3.742   2.388 -0.3736  0.1346  0.1082
  499MOL0     C67263   7.107   3.626   2.432 -0.2655  0.0238  0.2207
  499MOL0     C67264   7.148   3.549   2.544  1.1763 -0.2926  0.6285
  499MOL0     C67265   7.270   3.579   2.614  0.6300  0.2891  0.3337
  499MOL0     O67266   7.314   3.504   2.725 -0.5290  0.9840  0.6044
  499MOL0     C67267   7.321   3.360   2.708 -0.1575 -0.3178 -0.1560
  499MOL0     C67268   7.466   3.330   2.643  0.0183 -0.1409  0.0046
  499MOL0     C67269   7.475   3.182   2.631 -0.8030 -0.2745  0.2678
  499MOL0     C67270   7.617   3.137   2.580  0.8750  0.7371 -0.1435
  499MOL0     C67271   7.621   2.998   2.555 -0.4821  0.3196  0.2415
  499MOL0     C67272   7.751   2.964   2.477 -0.0637 -0.1697 -0.4789
  499MOL0     C67273   7.873   2.939   2.569  0.6795  0.1932 -0.4269
  499MOL0     C67274   8.006   2.986   2.509 -0.6463 -0.9601 -0.0417
  499MOL0    Cl67275   8.043   2.936   2.340 -0.2941  0.1235  0.1057
  499MOL0     C67276   7.334   3.692   2.579 -1.0524  1.0251 -0.4331
  499MOL0     C67277   7.298   3.765   2.461  0.1359  0.2947  0.0376
  499MOL0     O67278   6.948   3.818   2.205  0.1724  0.0543 -0.1138
  499MOL0     C67279   7.008   3.847   1.953 -0.4081 -0.2995 -0.6751
  499MOL0     C67280   7.035   3.836   1.824 -0.7741  0.0326  0.7666
  499MOL0     N67281   7.213   3.580   1.149 -0.1832  0.6216  0.8075
  499MOL0     N67282   7.250   3.496   1.054 -0.4623  0.7164 -0.0707
  499MOL0     C67283   7.100   3.244   0.499  0.0973  0.3947 -0.8900
  499MOL0     C67284   7.070   3.377   0.558  0.5558 -0.8125  0.7437
  499MOL0     C67285   7.047   3.823   0.619 -0.7877 -0.2301  0.2614
  499MOL0     C67286   7.012   3.956   0.577 -0.6429 -0.6172  0.1353
  499MOL0     C67287   6.963   4.049   0.660 -0.4102  0.3180 -0.0433
  499MOL0     C67288   6.944   4.032   0.794 -0.2846  0.0760  0.2937
  499MOL0     O67289   6.887   4.137   0.855 -0.0602 -0.3353 -0.1708
  499MOL0     C67290   6.853   4.114   0.998 -0.9961 -0.5332  1.3188
  499MOL0     C67291   6.978   4.123   1.085  0.0247  0.8553  0.8294
  499MOL0     C67292   6.966   4.242   1.180  0.9542 -0.6016 -0.3403
  499MOL0     C67293   6.962   4.379   1.110 -0.4400 -0.1214 -1.0217
  499MOL0     C67294   6.980   4.495   1.204  0.2707  0.2261 -0.4115
  499MOL0     C67295   6.992   4.579   1.296 -0.0611 -0.4871 -0.6293
  499MOL0     C67296   6.991   3.909   0.843 -0.2689 -1.3479  0.0936
  499MOL0     C67297   7.035   3.802   0.758  1.2152 -0.3744 -1.2032
  499MOL0     H67298   7.331   3.539   0.424  0.0873 -0.1953 -0.2442
  499MOL0     H67299   7.387   3.322   0.338 -1.2662  1.2953 -1.4027
  499MOL0     H67300   7.398   2.981   0.329 -2.1304  0.0755  0.5510
  499MOL0     H67301   7.438   3.119   0.415  1.0086 -1.0424 -2.4248
  499MOL0     H67302   7.296   2.881   0.519 -1.6808  1.4353 -0.5378
  499MOL0     H67303   7.479   2.903   0.538  0.7050  2.3250  2.3145
  499MOL0     H67304   7.438   3.079   0.701  1.2104  0.6055 -1.5370
  499MOL0     H67305   7.269   3.066   0.676 -1.9920 -4.4476  1.4034
  499MOL0     H67306   7.270   2.833   0.767 -0.1348  1.1992 -2.0469
  499MOL0     H67307   7.444   2.844   0.775 -0.7192  0.5456 -0.3589
  499MOL0     H67308   7.370   2.891   0.997 -1.8146 -2.8637 -1.7288
  499MOL0     H67309   7.389   3.055   0.917 -3.1690  2.7837  3.7772
  499MOL0     H67310   7.127   3.038   0.890 -1.3621  1.8108  2.3957
  499MOL0     H67311   7.147   2.921   1.026  2.5988  0.0789  2.0731
  499MOL0     H67312   7.114   3.125   1.135  0.2011  2.6947  0.0020
  499MOL0     H67313   7.292   3.131   1.114 -1.1771  0.8412  2.4337
  499MOL0     H67314   7.108   3.262   0.906 -0.2529  0.3999 -0.4769
  499MOL0     H67315   7.283   3.277   0.920 -1.0813  2.0514 -1.2051
  499MOL0     H67316   7.040   3.320   1.226 -1.8784 -0.0464 -2.3878
  499MOL0     H67317   7.017   3.688   1.274 -3.3360 -1.1433 -1.7719
  499MOL0     H67318   6.947   3.537   1.341 -0.7040 -0.5052 -4.0448
  499MOL0     H67319   7.111   3.535   1.502  0.1247  0.5899  0.1905
  499MOL0     H67320   7.028   3.699   1.507 -0.1860  0.2468  0.0840
  499MOL0     H67321   7.228   3.779   1.377 -0.0074  1.6373  1.8651
  499MOL0     H67322   7.324   3.631   1.424  1.7177  1.1584  2.6312
  499MOL0     H67323   7.371   3.828   1.556  3.2489 -1.1385  3.5069
  499MOL0     H67324   7.322   3.687   1.653  0.2234  1.1264  0.4289
  499MOL0     H67325   7.377   3.856   1.828 -0.1528 -3.3483 -1.2255
  499MOL0     H67326   7.473   3.794   2.046 -0.7032 -1.3057 -2.2423
  499MOL0     H67327   7.415   3.945   2.115 -2.2874 -0.0281  4.4234
  499MOL0     H67328   7.362   3.795   2.185 -2.9979  0.5604 -0.8379
  499MOL0     H67329   7.014   3.602   2.383 -1.3914 -0.5596  2.4866
  499MOL0     H67330   7.103   3.457   2.582  0.2768  0.7328  2.1384
  499MOL0     H67331   7.335   3.310   2.804  3.7944 -0.0958 -0.4555
  499MOL0     H67332   7.235   3.321   2.653 -2.1501  2.0472  1.0867
  499MOL0     H67333   7.468   3.387   2.550 -0.1323 -1.5212 -0.8591
  499MOL0     H67334   7.534   3.374   2.717  0.4207 -1.3633  0.3734
  499MOL0     H67335   7.406   3.153   2.552  0.0082  0.9361 -0.9332
  499MOL0     H67336   7.454   3.142   2.731 -0.1272 -0.4542  0.3420
  499MOL0     H67337   7.633   3.189   2.485  0.3490 -3.9925 -3.1284
  499MOL0     H67338   7.681   3.169   2.663 -1.0567  2.0588  0.9507
  499MOL0     H67339   7.537   2.966   2.492 -0.6946 -1.2499  1.2793
  499MOL0     H67340   7.610   2.939   2.646  0.0938  1.6313  1.1953
  499MOL0     H67341   7.725   2.868   2.430 -1.8756  0.1284 -0.1447
  499MOL0     H67342   7.780   3.035   2.399  0.3771 -0.4936 -0.6107
  499MOL0     H67343   7.881   2.831   2.586 -1.4412 -0.3281 -2.2610
  499MOL0     H67344   7.863   2.992   2.665 -0.6373 -4.3600  2.2428
  499MOL0     H67345   8.083   2.949   2.578 -3.5875 -1.2530  3.4177
  499MOL0     H67346   8.016   3.095   2.514  1.2178 -1.1516  2.0421
  499MOL0     H67347   7.419   3.722   2.640 -0.9819 -1.7757  1.0367
  499MOL0     H67348   7.361   3.850   2.437 -0.0124  0.0120 -1.4324
  499MOL0     H67349   6.904   3.832   1.977 -0.4375  0.0681 -0.5651
  499MOL0     H67350   6.949   3.822   1.759  0.1715  2.9296 -1.3339
  499MOL0     H67351   7.025   3.166   0.513 -1.0495  1.5410 -0.4671
  499MOL0     H67352   6.978   3.390   0.614  0.1537 -0.0142 -0.0663
  499MOL0     H67353   7.011   3.981   0.472 -2.9684 -1.0693 -0.0081
  499MOL0     H67354   6.957   4.150   0.621 -3.0778 -0.7373 -2.7841
  499MOL0     H67355   6.784   4.192   1.030 -0.0773  0.4482  1.0003
  499MOL0     H67356   6.799   4.019   0.993 -3.0843  0.6614 -0.9631
  499MOL0     H67357   7.068   4.136   1.025  0.0659  0.3801  0.7828
  499MOL0     H67358   6.973   4.033   1.148  0.8755 -1.1053 -1.7254
  499MOL0     H67359   7.047   4.237   1.254 -2.2718  0.3233  3.6753
  499MOL0     H67360   6.882   4.235   1.251  1.3529  1.1097  0.3604
  499MOL0     H67361   6.871   4.395   1.051 -0.1302  2.1351 -0.9584
  499MOL0     H67362   7.046   4.391   1.041  0.4869  1.0071  0.2531
  499MOL0     H67363   7.006   4.667   1.355  1.2655 -0.5204 -0.8699
  499MOL0     H67364   6.989   3.895   0.950  0.3807 -0.3250  0.2513
  499MOL0     H67365   7.078   3.718   0.811  4.1147  2.3446  1.1667
  500MOL0     O67366   8.796   3.323   9.457 -0.6362 -0.3804  0.1796
  500MOL0     C67367   8.741   3.360   9.560  1.1694  0.4243  1.1893
  500MOL0     O67368   8.756   3.490   9.613  0.0021  0.9555  0.2332
  500MOL0     C67369   8.837   3.583   9.556  0.5338  0.1655 -0.0712
  500MOL0     C67370   8.846   3.604   9.417 -0.6246 -0.4063  0.1633
  500MOL0     C67371   8.944   3.687   9.362  0.9861 -0.7463  0.9201
  500MOL0     C67372   9.017   3.775   9.440 -0.7318  0.1586  0.0750
  500MOL0     O67373   9.096   3.864   9.369 -1.1649 -0.1249 -0.0594
  500MOL0     C67374   9.204   3.936   9.439  1.0832 -0.5258  0.6297
  500MOL0     C67375   9.316   3.839   9.485 -1.0325 -0.0577 -0.2402
  500MOL0     C67376   9.398   3.755   9.385  0.2126  0.4062 -0.1811
  500MOL0     C67377   9.449   3.635   9.452 -0.5946  0.8302  0.2717
  500MOL0     C67378   9.516   3.536   9.366 -0.6987  0.1449  0.7125
  500MOL0     C67379   9.422   3.471   9.261 -0.0048  0.0246 -0.4266
  500MOL0     C67380   9.460   3.328   9.250  0.1088  0.8378  0.6599
  500MOL0     C67381   9.603   3.299   9.205  0.0554 -0.4015 -0.8435
  500MOL0     N67382   9.636   3.362   9.072 -0.0755  0.2528  0.6204
  500MOL0     C67383   9.563   3.354   8.952  0.4581 -0.4635  0.9451
  500MOL0     C67384   9.646   3.422   8.862  0.4772  0.6344 -0.2756
  500MOL0     C67385   9.611   3.455   8.721 -0.7941 -0.1841 -0.3270
  500MOL0     C67386   9.462   3.464   8.705  0.2745  0.1319 -0.8125
  500MOL0     C67387   9.415   3.474   8.561 -0.1194 -0.1691 -0.1129
  500MOL0     C67388   9.459   3.598   8.482 -0.9168 -0.6431 -0.1996
  500MOL0     O67389   9.417   3.725   8.537  0.9046 -0.1649 -0.5916
  500MOL0     C67390   9.394   3.834   8.453  0.1183 -0.7466 -0.7626
  500MOL0     C67391   9.418   3.835   8.313 -0.4316 -0.9391 -0.0079
  500MOL0     C67392   9.386   3.944   8.233  0.3504  0.5451 -0.6533
  500MOL0     C67393   9.416   3.926   8.088  0.7917  0.2810  0.5420
  500MOL0     C67394   9.319   4.058   8.293 -1.1568  0.2327  0.2797
  500MOL0     C67395   9.282   4.169   8.210 -0.3219 -0.6474  0.0516
  500MOL0     O67396   9.162   4.227   8.213  0.3996 -0.0118  0.1737
  500MOL0     C67397   9.140   4.350   8.158  0.1957 -0.3582  0.2950
  500MOL0     C67398   9.105   4.346   8.017 -1.7072  0.9402 -1.2568
  500MOL0     C67399   9.091   4.470   7.951  0.2248 -0.3080 -1.1054
  500MOL0     C67400   9.083   4.589   8.022  0.9719  0.3604  0.9227
  500MOL0     O67401   9.054   4.694   7.938 -0.1571 -0.1164  0.2818
  500MOL0     C67402   9.033   4.827   7.988  0.3934  0.4213  0.1197
  500MOL0     C67403   8.977   4.917   7.867 -0.1763  0.2493 -0.3672
  500MOL0     C67404   8.848   4.859   7.814  0.1315 -0.2982  0.6015
  500MOL0     C67405   8.787   4.952   7.710  0.2967 -0.7362  0.5836
  500MOL0     C67406   8.663   4.895   7.656 -0.2503 -0.9868  0.2667
  500MOL0     C67407   8.624   4.946   7.513 -0.5092  1.6811 -0.3891
  500MOL0     C67408   8.725   4.910   7.404  0.3727  0.7562 -0.1913
  500MOL0     C67409   8.773   5.029   7.322  1.2395  0.4646 -0.6761
  500MOL0    Cl67410   8.633   5.093   7.229 -0.2167  0.0530 -0.0252
  500MOL0     C67411   9.089   4.584   8.160  0.1457 -0.2033  0.3815
  500MOL0     C67412   9.125   4.467   8.228  0.2870 -0.6528  0.4822
  500MOL0     O67413   9.375   4.219   8.155  0.0358 -0.7453 -0.0921
  500MOL0     C67414   9.311   4.054   8.431  0.0739 -0.1780  0.0929
  500MOL0     C67415   9.339   3.949   8.512 -0.9245  0.3969 -0.5575
  500MOL0     N67416   9.763   3.457   8.926 -0.3060 -0.0513  0.6842
  500MOL0     N67417   9.757   3.417   9.049 -0.3020 -0.9823 -0.5762
  500MOL0     C67418   9.008   3.762   9.580  0.4008  0.1125 -1.1254
  500MOL0     C67419   8.920   3.665   9.636 -0.4120 -0.3279  0.0142
  500MOL0     C67420   8.639   3.272   9.620 -0.5896  0.6626  0.9187
  500MOL0     C67421   8.580   3.301   9.739 -0.4360 -0.1332  0.1742
  500MOL0     C67422   8.502   3.206   9.814 -0.7878  0.8736  0.7155
  500MOL0     C67423   8.476   3.081   9.761 -0.2482  0.7301 -0.3949
  500MOL0     O67424   8.380   3.009   9.825 -0.6511  0.0679  0.1876
  500MOL0     C67425   8.336   2.897   9.757  0.3033  0.3899  1.3793
  500MOL0     C67426   8.221   2.831   9.839  0.5227  0.1557  0.6962
  500MOL0     C67427   8.143   2.725   9.766  0.9268 -0.2995  0.2795
  500MOL0     C67428   8.084   2.636   9.873 -0.5621  0.1995  0.2619
  500MOL0     C67429   8.000   2.531   9.817 -0.6019 -0.9539 -0.4409
  500MOL0     C67430   7.932   2.444   9.770  0.1370 -0.5214  0.1363
  500MOL0     C67431   8.531   3.048   9.636 -0.3842  0.3021  0.4148
  500MOL0     C67432   8.616   3.145   9.570 -0.2490  0.4427  0.4327
  500MOL0     H67433   8.775   3.554   9.352  0.5305  0.4173 -1.8288
  500MOL0     H67434   8.955   3.694   9.254 -2.1690 -1.4467  0.4673
  500MOL0     H67435   9.248   4.022   9.388  0.8817  0.8672  2.6962
  500MOL0     H67436   9.158   3.988   9.524  2.7778  3.8250 -0.8418
  500MOL0     H67437   9.393   3.898   9.536  0.0840 -1.7190  0.0713
  500MOL0     H67438   9.285   3.771   9.565 -0.0037 -0.7618 -0.4286
  500MOL0     H67439   9.342   3.728   9.295 -0.0004  0.1608  0.0237
  500MOL0     H67440   9.485   3.809   9.344  0.2379 -0.1249 -0.8365
  500MOL0     H67441   9.525   3.675   9.520 -0.0467 -1.5049  1.1506
  500MOL0     H67442   9.379   3.590   9.523  0.2455 -0.6635  0.2009
  500MOL0     H67443   9.595   3.575   9.302  1.5275 -3.5629  0.9196
  500MOL0     H67444   9.563   3.474   9.442  1.2287  0.1161 -0.4520
  500MOL0     H67445   9.323   3.478   9.307  0.5515 -3.0399  1.5771
  500MOL0     H67446   9.434   3.505   9.158  2.2158 -2.7989 -1.2434
  500MOL0     H67447   9.427   3.282   9.344 -0.0195 -0.3763  0.0483
  500MOL0     H67448   9.387   3.299   9.174 -0.7246  3.0710  0.5458
  500MOL0     H67449   9.620   3.191   9.196 -3.3615 -0.8648 -3.9576
  500MOL0     H67450   9.666   3.346   9.282  0.7205  0.9144 -2.1471
  500MOL0     H67451   9.464   3.310   8.945 -0.8468  1.4127  4.6922
  500MOL0     H67452   9.660   3.545   8.683 -0.1507  0.0632  1.0206
  500MOL0     H67453   9.632   3.371   8.655  1.6026  1.1830 -1.4530
  500MOL0     H67454   9.419   3.554   8.750 -0.8472  0.0015 -1.5861
  500MOL0     H67455   9.416   3.376   8.749  1.6431  1.1754  3.1359
  500MOL0     H67456   9.307   3.463   8.550 -0.0636 -2.3795  0.9190
  500MOL0     H67457   9.458   3.386   8.512 -3.1186 -0.5020 -2.4482
  500MOL0     H67458   9.437   3.582   8.376  0.8650  0.1421 -0.7290
  500MOL0     H67459   9.568   3.601   8.484 -0.8907  0.0786 -1.5573
  500MOL0     H67460   9.480   3.762   8.263  3.1557  0.3460  2.1476
  500MOL0     H67461   9.523   3.930   8.068  0.8157  1.9947  0.8862
  500MOL0     H67462   9.380   3.825   8.067 -1.5903  1.0624  0.5520
  500MOL0     H67463   9.354   3.988   8.023  2.5905 -0.5708 -2.1220
  500MOL0     H67464   9.095   4.246   7.977 -1.0272 -0.1868  1.2276
  500MOL0     H67465   9.087   4.482   7.843  0.4394  0.4435 -1.0376
  500MOL0     H67466   8.965   4.830   8.074  1.0424  0.5027  0.6431
  500MOL0     H67467   9.132   4.862   8.021  1.3107  2.1923 -3.8975
  500MOL0     H67468   8.964   5.006   7.930 -0.9843 -1.3438  1.8415
  500MOL0     H67469   9.056   4.937   7.794 -0.2155  1.4282 -0.1111
  500MOL0     H67470   8.775   4.858   7.896 -0.1547  0.8257  0.3772
  500MOL0     H67471   8.857   4.754   7.785 -0.3445 -0.2499  0.2705
  500MOL0     H67472   8.766   5.053   7.748 -1.8535 -0.7185 -0.5349
  500MOL0     H67473   8.866   4.962   7.635  1.1600 -2.5025  1.2084
  500MOL0     H67474   8.580   4.913   7.724  0.2046 -1.9539  1.0898
  500MOL0     H67475   8.659   4.786   7.657 -2.0308 -0.9636 -0.3792
  500MOL0     H67476   8.530   4.900   7.482 -0.1928 -1.1306  2.3249
  500MOL0     H67477   8.602   5.052   7.526  1.1991  1.7058  3.6812
  500MOL0     H67478   8.694   4.826   7.340 -2.3209 -0.6981  2.7299
  500MOL0     H67479   8.812   4.864   7.452  0.3656  0.1176 -0.7726
  500MOL0     H67480   8.853   4.989   7.260  0.7446 -1.7349 -0.0230
  500MOL0     H67481   8.804   5.106   7.393 -0.3247  1.0925 -0.6420
  500MOL0     H67482   9.074   4.683   8.203  2.4146 -0.7770  2.7671
  500MOL0     H67483   9.149   4.471   8.334 -3.3724 -0.0190  1.4106
  500MOL0     H67484   9.268   4.145   8.471 -3.1716 -1.4458 -0.1734
  500MOL0     H67485   9.336   3.957   8.620  0.6173  1.3496 -0.5645
  500MOL0     H67486   9.069   3.824   9.645 -0.3264 -2.0198  1.7889
  500MOL0     H67487   8.927   3.663   9.745  1.3968 -0.8289 -0.0926
  500MOL0     H67488   8.581   3.404   9.771  0.4248 -0.1830  0.3373
  500MOL0     H67489   8.467   3.226   9.915  1.6202  0.6909  1.6548
  500MOL0     H67490   8.304   2.907   9.653  1.0723 -1.0040  0.9860
  500MOL0     H67491   8.412   2.819   9.744  0.4526  0.6234  0.8214
  500MOL0     H67492   8.143   2.906   9.854 -1.4350 -1.9084  1.3394
  500MOL0     H67493   8.267   2.792   9.930  2.2482  1.7626  0.5732
  500MOL0     H67494   8.218   2.675   9.703 -0.0145 -0.1510 -1.0002
  500MOL0     H67495   8.065   2.760   9.698  0.1946 -2.0520  0.1721
  500MOL0     H67496   8.037   2.711   9.938  4.9919  2.4299  2.3131
  500MOL0     H67497   8.159   2.591   9.938 -1.3158 -0.3737  0.7459
  500MOL0     H67498   7.885   2.362   9.721  1.5664 -1.6982  0.6689
  500MOL0     H67499   8.502   2.959   9.580  1.1216  0.8316 -1.3167
  500MOL0     H67500   8.688   3.102   9.501  0.8897  0.2170  1.7184
  501MOL0     O67501  11.361  10.518   3.023  0.1498  0.4011  0.1750
  501MOL0     C67502  11.398  10.413   3.045 -0.3185 -0.2851 -0.3022
  501MOL0     O67503  11.324  10.306   3.068 -0.6076  0.6852  0.3622
  501MOL0     C67504  11.192  10.302   3.102 -1.0916 -0.9087 -0.2577
  501MOL0     C67505  11.144  10.175   3.105 -0.8230  0.1846 -0.8246
  501MOL0     C67506  11.016  10.160   3.163  0.1834  0.0579 -0.1712
  501MOL0     C67507  10.920  10.252   3.193 -0.5183 -0.3121  0.0567
  501MOL0     O67508  10.789  10.224   3.236  0.3473  0.0831 -0.0675
  501MOL0     C67509  10.682  10.318   3.217  0.2898 -0.2054 -0.5317
  501MOL0     C67510  10.552  10.238   3.207  0.7436 -0.1146 -0.3011
  501MOL0     C67511  10.503  10.144   3.318 -0.4256  1.1607  0.4754
  501MOL0     C67512  10.345  10.160   3.333 -0.1661 -0.5647 -0.3071
  501MOL0     C67513  10.277  10.023   3.308  0.3710  0.2858 -0.4814
  501MOL0     C67514  10.283   9.985   3.161  0.5620  0.2517  0.7446
  501MOL0     C67515  10.222   9.852   3.124  0.7515  0.3324 -0.0185
  501MOL0     C67516  10.071   9.859   3.148  0.1668 -0.8045  0.0058
  501MOL0     N67517  10.003   9.740   3.110  0.8521  1.0103 -0.0096
  501MOL0     C67518  10.062   9.613   3.081 -0.5883 -0.6949 -0.2510
  501MOL0     C67519   9.961   9.527   3.068 -0.1850  1.1712 -1.9284
  501MOL0     C67520   9.978   9.379   3.026 -0.0751 -0.1400 -0.3199
  501MOL0     C67521   9.929   9.359   2.875  0.3840  0.2916  0.0607
  501MOL0     C67522   9.926   9.214   2.830 -0.7501 -0.5389 -0.2453
  501MOL0     C67523  10.058   9.177   2.768 -0.5463  0.3288 -0.2663
  501MOL0     O67524  10.046   9.048   2.712 -1.2629  0.3385 -0.0449
  501MOL0     C67525  10.121   8.960   2.783  1.0636  1.6446  0.1150
  501MOL0     C67526  10.061   8.847   2.839  0.1938  0.5917  0.5197
  501MOL0     C67527  10.131   8.753   2.919 -0.4865 -0.1645  1.1376
  501MOL0     C67528  10.048   8.640   2.972  0.1426 -0.4093  0.5536
  501MOL0     C67529  10.272   8.778   2.949  0.1217 -0.1742  0.3475
  501MOL0     C67530  10.351   8.710   3.048 -0.2908 -0.5893 -1.0561
  501MOL0     O67531  10.480   8.763   3.063  0.3064  0.5203  0.2868
  501MOL0     C67532  10.566   8.729   3.163  0.0913  0.1303 -0.4290
  501MOL0     C67533  10.537   8.636   3.270 -1.4638 -0.5847 -0.3218
  501MOL0     C67534  10.647   8.591   3.352  0.7674 -0.5480 -0.4553
  501MOL0     C67535  10.773   8.621   3.334 -0.5821 -0.4197  0.3778
  501MOL0     O67536  10.865   8.560   3.416 -0.0767  0.3905 -0.8588
  501MOL0     C67537  11.002   8.563   3.375  0.3108 -0.4414 -0.5637
  501MOL0     C67538  11.078   8.499   3.494  0.2807 -0.0409 -1.2753
  501MOL0     C67539  11.132   8.613   3.594  0.0414  0.6737  1.1522
  501MOL0     C67540  11.195   8.558   3.725 -0.0425  0.7557  0.2440
  501MOL0     C67541  11.160   8.642   3.849 -0.4299  0.1610  0.6999
  501MOL0     C67542  11.235   8.587   3.981  1.0666 -0.4066  0.2310
  501MOL0     C67543  11.235   8.693   4.104 -0.6487  0.2853  0.8844
  501MOL0     C67544  11.312   8.660   4.227  0.9305 -0.5332 -0.0280
  501MOL0    Cl67545  11.302   8.785   4.362  0.2055 -0.2637  0.0141
  501MOL0     C67546  10.804   8.691   3.212 -0.0643 -0.6121  0.3640
  501MOL0     C67547  10.701   8.750   3.137 -0.3990  0.1816  0.1971
  501MOL0     O67548  10.304   8.620   3.120 -0.5529 -0.8243  0.8806
  501MOL0     C67549  10.326   8.882   2.867 -0.1670 -0.6155  0.6992
  501MOL0     C67550  10.256   8.969   2.789  0.5119  0.0565 -0.0661
  501MOL0     N67551   9.840   9.598   3.077  0.2229  0.4967 -0.4157
  501MOL0     N67552   9.873   9.719   3.106 -0.0463 -0.0893 -0.2022
  501MOL0     C67553  10.969  10.381   3.177  0.2136  0.3473 -0.9625
  501MOL0     C67554  11.103  10.409   3.146  0.7116  0.1358  0.6534
  501MOL0     C67555  11.538  10.392   3.051 -0.1486 -0.9812 -0.7389
  501MOL0     C67556  11.587  10.276   3.105 -0.0173 -0.1999 -0.9477
  501MOL0     C67557  11.722  10.254   3.124 -0.2617 -0.9430  0.1542
  501MOL0     C67558  11.815  10.353   3.088 -0.1489  0.3394 -0.1344
  501MOL0     O67559  11.949  10.346   3.115 -0.1125  0.4248  0.0999
  501MOL0     C67560  11.981  10.236   3.204  0.4989  0.4012  0.1609
  501MOL0     C67561  12.125  10.218   3.243 -0.4940 -0.6364 -0.2373
  501MOL0     C67562  12.170  10.349   3.330 -0.1514 -0.2783 -0.0486
  501MOL0     C67563  12.321  10.340   3.352 -0.0555 -0.0546  0.0891
  501MOL0     C67564  12.381  10.451   3.427 -0.6646 -0.3665  0.1868
  501MOL0     C67565  12.421  10.553   3.491  0.7867  0.1777 -0.0278
  501MOL0     C67566  11.768  10.472   3.035  0.4192  0.2355  0.2662
  501MOL0     C67567  11.633  10.485   3.009  0.2495 -0.4199  0.0359
  501MOL0     H67568  11.219  10.105   3.069  0.0653  0.0834  1.1361
  501MOL0     H67569  10.970  10.062   3.171  0.1471 -0.0182 -1.1921
  501MOL0     H67570  10.678  10.389   3.301  1.2470  1.3945 -1.7791
  501MOL0     H67571  10.698  10.374   3.125 -1.1847  1.1419 -0.0232
  501MOL0     H67572  10.477  10.317   3.195 -0.3481 -1.0557  0.1528
  501MOL0     H67573  10.554  10.187   3.110  0.1038 -0.6759 -0.0222
  501MOL0     H67574  10.531  10.044   3.283  0.6708  1.8720 -0.7970
  501MOL0     H67575  10.552  10.172   3.411 -2.2309 -3.4934  3.1182
  501MOL0     H67576  10.324  10.198   3.433 -2.6617 -1.2625 -0.5139
  501MOL0     H67577  10.308  10.227   3.254 -1.4842 -1.2975 -0.3279
  501MOL0     H67578  10.313   9.947   3.378  2.6582  1.8240  0.1239
  501MOL0     H67579  10.170  10.039   3.324  0.0160 -2.5137  0.4824
  501MOL0     H67580  10.239  10.061   3.095  2.4551 -0.3540 -1.3311
  501MOL0     H67581  10.383   9.986   3.118  0.1781 -1.7734 -0.3088
  501MOL0     H67582  10.244   9.823   3.020 -0.8688 -1.6893  0.1398
  501MOL0     H67583  10.274   9.777   3.185  0.1216 -1.1057 -1.1667
  501MOL0     H67584  10.028   9.932   3.079 -2.3741 -2.9567 -0.8571
  501MOL0     H67585  10.045   9.879   3.253 -0.5054 -1.0247 -0.1133
  501MOL0     H67586  10.165   9.587   3.059 -1.3074 -1.9734 -2.5114
  501MOL0     H67587  10.082   9.350   3.040 -1.1058 -3.8725  0.6881
  501MOL0     H67588   9.914   9.313   3.085 -0.2234 -1.5303 -1.9443
  501MOL0     H67589   9.980   9.421   2.801 -0.3270  0.5131 -0.2510
  501MOL0     H67590   9.827   9.397   2.878  0.2312 -0.1217  0.2021
  501MOL0     H67591   9.858   9.205   2.745 -0.5388 -1.7921 -0.3074
  501MOL0     H67592   9.891   9.138   2.902  0.6646 -2.0669 -1.1043
  501MOL0     H67593  10.145   9.191   2.832  0.5462 -0.9524 -1.4015
  501MOL0     H67594  10.077   9.230   2.674  1.4120 -2.6278 -1.7039
  501MOL0     H67595   9.955   8.832   2.824 -0.1568  2.9827  0.2610
  501MOL0     H67596  10.054   8.636   3.082  0.2301 -0.3242  0.5526
  501MOL0     H67597   9.945   8.640   2.936  0.7956 -2.3857 -1.5098
  501MOL0     H67598  10.100   8.551   2.938 -0.2144  0.8082 -3.6860
  501MOL0     H67599  10.435   8.608   3.295 -1.2085  0.5565  2.3020
  501MOL0     H67600  10.625   8.527   3.438 -0.6721 -2.7151 -2.3210
  501MOL0     H67601  11.011   8.499   3.286 -1.1129  0.4715 -1.4088
  501MOL0     H67602  11.027   8.668   3.360 -1.2023  0.0215 -0.0455
  501MOL0     H67603  11.013   8.434   3.553 -0.8426  1.8031 -0.3883
  501MOL0     H67604  11.154   8.434   3.450  2.2746  2.3234 -1.5891
  501MOL0     H67605  11.050   8.677   3.628  0.6320  2.4596 -0.6128
  501MOL0     H67606  11.201   8.681   3.545  1.3780  0.0744  2.1346
  501MOL0     H67607  11.146   8.464   3.753 -2.5591  1.3631 -1.7054
  501MOL0     H67608  11.303   8.542   3.717 -0.1962 -0.7709  0.8087
  501MOL0     H67609  11.052   8.652   3.858 -0.1473  1.5429  4.1207
  501MOL0     H67610  11.196   8.745   3.838  0.2536  0.0198  1.4853
  501MOL0     H67611  11.200   8.485   4.000  0.0514  0.1354  1.3516
  501MOL0     H67612  11.340   8.580   3.951  0.4776 -2.8016 -1.5940
  501MOL0     H67613  11.127   8.705   4.117 -1.1011 -2.5813  0.4705
  501MOL0     H67614  11.279   8.785   4.064  1.9141 -2.0120 -2.0039
  501MOL0     H67615  11.418   8.657   4.200  0.9908 -0.5778  0.2062
  501MOL0     H67616  11.279   8.564   4.268 -0.8041  0.3399  0.7142
  501MOL0     H67617  10.906   8.714   3.182 -0.3202 -0.6383 -0.5575
  501MOL0     H67618  10.712   8.816   3.051 -0.5970  0.9980  0.7884
  501MOL0     H67619  10.434   8.894   2.866 -0.0410 -1.4749 -1.1020
  501MOL0     H67620  10.307   9.052   2.740  1.4266  0.6739  1.8478
  501MOL0     H67621  10.898  10.454   3.215  0.3571  1.3667 -2.5743
  501MOL0     H67622  11.153  10.505   3.153 -0.1332  0.6067  0.2813
  501MOL0     H67623  11.525  10.189   3.126  1.8038 -1.3703 -0.0808
  501MOL0     H67624  11.762  10.159   3.157  1.7284  0.2130  1.3114
  501MOL0     H67625  11.925  10.240   3.298  3.1464  0.3135  1.8410
  501MOL0     H67626  11.957  10.146   3.146  0.6545  2.4205 -3.3015
  501MOL0     H67627  12.190  10.217   3.155  0.7739 -1.5978  0.6719
  501MOL0     H67628  12.145  10.125   3.297 -2.8690 -0.6760  0.7267
  501MOL0     H67629  12.125  10.351   3.430  0.1242 -1.2591  0.1069
  501MOL0     H67630  12.141  10.437   3.272 -0.8192 -1.7786 -2.0699
  501MOL0     H67631  12.370  10.341   3.253 -1.3144  2.1890 -0.5925
  501MOL0     H67632  12.336  10.242   3.397 -2.1582 -0.5944 -0.3263
  501MOL0     H67633  12.475  10.636   3.532 -0.6599  2.2013 -2.0145
  501MOL0     H67634  11.841  10.544   3.001  0.3638  0.9800  1.6865
  501MOL0     H67635  11.607  10.580   2.963 -4.9975 -2.9039 -3.0812
  502MOL0     O67636   0.604   2.489   2.069  0.5502 -0.6729 -0.5548
  502MOL0     C67637   0.549   2.579   2.010 -0.1467 -0.0923  0.3915
  502MOL0     O67638   0.451   2.567   1.917  0.0578  0.4013 -0.0170
  502MOL0     C67639   0.439   2.449   1.850  0.4491  0.6940 -0.8236
  502MOL0     C67640   0.469   2.316   1.895  0.6920 -0.0256  0.4040
  502MOL0     C67641   0.467   2.205   1.820  0.3840  0.2780  0.4662
  502MOL0     C67642   0.438   2.215   1.682 -0.2944  0.3315 -0.3972
  502MOL0     O67643   0.442   2.099   1.613  0.6570 -0.1046 -0.2777
  502MOL0     C67644   0.509   2.087   1.490 -0.3497  0.5277  0.3464
  502MOL0     C67645   0.501   1.960   1.420 -0.0433 -0.2744 -0.8814
  502MOL0     C67646   0.385   1.874   1.450  0.2825  0.0462  0.3540
  502MOL0     C67647   0.250   1.924   1.387  0.5716  1.2083  0.4065
  502MOL0     C67648   0.118   1.902   1.464  0.6501  0.3973 -0.8994
  502MOL0     C67649   0.091   1.751   1.450  1.2034  0.9492 -0.1732
  502MOL0     C67650  -0.050   1.702   1.508 -0.5948 -0.4101 -0.5282
  502MOL0     C67651  -0.075   1.560   1.460 -0.0234  0.2550  0.7139
  502MOL0     N67652  -0.019   1.455   1.550  0.2589  0.4628  0.6644
  502MOL0     C67653   0.095   1.378   1.519  0.4579 -0.3701 -0.1925
  502MOL0     C67654   0.108   1.290   1.616 -0.4327  0.1596 -0.3258
  502MOL0     C67655   0.225   1.206   1.652  0.1628  0.1801  0.1553
  502MOL0     C67656   0.289   1.144   1.526  0.2196  0.6595 -0.4961
  502MOL0     C67657   0.400   1.040   1.563 -0.0663 -0.3397  1.4365
  502MOL0     C67658   0.471   0.982   1.450  0.4140  0.3563 -0.0370
  502MOL0     O67659   0.381   0.955   1.343 -0.1152 -0.5793  0.4510
  502MOL0     C67660   0.403   0.868   1.236 -0.8029 -0.0904  0.0307
  502MOL0     C67661   0.319   0.880   1.123 -0.7547  0.8129 -0.3065
  502MOL0     C67662   0.326   0.802   1.016  1.0117  0.3583  0.3589
  502MOL0     C67663   0.206   0.817   0.927  0.4213  0.4233  0.9830
  502MOL0     C67664   0.421   0.700   1.004  0.1936  0.2190 -0.9151
  502MOL0     C67665   0.433   0.600   0.902  0.4105 -0.0037 -0.1271
  502MOL0     O67666   0.528   0.506   0.914 -0.4615 -0.7977  0.4918
  502MOL0     C67667   0.516   0.394   0.836  0.7735 -0.3620  0.4003
  502MOL0     C67668   0.599   0.395   0.722  0.4118  0.9935 -1.3796
  502MOL0     C67669   0.602   0.290   0.628 -0.1482 -0.0442 -0.6865
  502MOL0     C67670   0.517   0.179   0.638 -1.0625 -0.3160  0.4191
  502MOL0     O67671   0.518   0.079   0.538  0.3919  0.8449  0.2230
  502MOL0     C67672   0.583   0.118   0.414 -0.8856  0.1800 -0.2062
  502MOL0     C67673   0.551   0.033   0.288  0.3467 -0.4119 -1.2176
  502MOL0     C67674   0.567  -0.127   0.304 -0.2547 -0.0830 -0.2716
  502MOL0     C67675   0.715  -0.167   0.272 -1.1640 -0.1565  0.7727
  502MOL0     C67676   0.815  -0.157   0.389 -0.3178 -0.4586  0.8670
  502MOL0     C67677   0.949  -0.243   0.371  0.0106 -0.5601  0.1709
  502MOL0     C67678   1.037  -0.227   0.493  0.1080 -0.2252  0.4198
  502MOL0     C67679   1.179  -0.290   0.478 -0.2821 -0.5880 -0.0034
  502MOL0    Cl67680   1.247  -0.255   0.640 -0.2611 -0.3636  0.4118
  502MOL0     C67681   0.445   0.174   0.755 -0.5940  0.3625 -0.4368
  502MOL0     C67682   0.437   0.280   0.852 -0.4041  0.1309 -0.6228
  502MOL0     O67683   0.345   0.608   0.816 -0.4969  0.6649 -0.6181
  502MOL0     C67684   0.518   0.692   1.103  0.1844 -0.4301  0.0357
  502MOL0     C67685   0.507   0.768   1.217 -0.0930 -0.5945 -0.5813
  502MOL0     N67686  -0.001   1.300   1.698  0.4736  0.1514 -0.0619
  502MOL0     N67687  -0.081   1.388   1.650 -0.3779  0.0414  0.5119
  502MOL0     C67688   0.402   2.340   1.630 -0.2558 -0.3927  0.4668
  502MOL0     C67689   0.392   2.447   1.720  0.9934  0.0636  0.2925
  502MOL0     C67690   0.568   2.718   2.058 -1.1054 -0.0025 -0.8143
  502MOL0     C67691   0.686   2.748   2.121  0.6342 -0.5646 -0.3030
  502MOL0     C67692   0.718   2.881   2.139  0.3114  0.2917  0.2265
  502MOL0     C67693   0.630   2.985   2.090 -1.5081  0.1157 -0.6434
  502MOL0     O67694   0.671   3.119   2.089 -0.7445  0.4525 -0.9495
  502MOL0     C67695   0.637   3.188   2.216 -0.5326  0.5009  0.1861
  502MOL0     C67696   0.489   3.222   2.233 -0.3392  0.8432  0.1662
  502MOL0     C67697   0.416   3.296   2.113 -0.2399 -0.0054  0.6936
  502MOL0     C67698   0.260   3.274   2.094  0.0213 -0.3081  0.9077
  502MOL0     C67699   0.219   3.133   2.099  0.5062 -0.3957 -0.0858
  502MOL0     C67700   0.189   3.017   2.105 -0.0174  0.3648 -0.4597
  502MOL0     C67701   0.511   2.953   2.036  0.2167  0.0273 -0.0588
  502MOL0     C67702   0.477   2.823   2.012  0.2999 -0.5869  0.3126
  502MOL0     H67703   0.483   2.299   2.001 -0.3734  1.0001  0.7324
  502MOL0     H67704   0.495   2.109   1.862  0.0640 -1.9459 -3.8121
  502MOL0     H67705   0.465   2.165   1.426 -3.3761  1.1656  2.9642
  502MOL0     H67706   0.615   2.105   1.510 -0.1108  1.1627 -1.2985
  502MOL0     H67707   0.518   1.971   1.313 -1.6237  1.3106 -0.9996
  502MOL0     H67708   0.588   1.902   1.453  0.3498  0.6846 -0.1822
  502MOL0     H67709   0.408   1.775   1.410 -1.5405 -0.6530  0.9258
  502MOL0     H67710   0.383   1.864   1.558  2.0095 -0.5283  0.3582
  502MOL0     H67711   0.260   2.033   1.379 -0.5688  1.2104 -2.1062
  502MOL0     H67712   0.230   1.893   1.284  1.4731  1.5358  0.1190
  502MOL0     H67713   0.126   1.929   1.570 -0.9574 -2.4558  0.0775
  502MOL0     H67714   0.032   1.955   1.423 -0.8052 -1.8674 -0.9863
  502MOL0     H67715   0.095   1.728   1.343  2.4504  3.6857 -0.7899
  502MOL0     H67716   0.167   1.691   1.502 -1.9427 -1.8111  1.6528
  502MOL0     H67717  -0.051   1.685   1.616  1.9687 -0.7210 -0.4913
  502MOL0     H67718  -0.134   1.757   1.464 -1.5950 -1.2812  0.2336
  502MOL0     H67719  -0.039   1.550   1.357 -0.0018 -1.1807  0.8377
  502MOL0     H67720  -0.181   1.539   1.472 -0.2644 -1.2330 -2.7513
  502MOL0     H67721   0.178   1.395   1.451 -0.4260 -3.3026 -2.2265
  502MOL0     H67722   0.295   1.263   1.714  0.4266 -2.5111  2.5639
  502MOL0     H67723   0.185   1.131   1.721  0.4090  1.6580  1.9713
  502MOL0     H67724   0.339   1.218   1.463  3.7072 -0.5286  0.6475
  502MOL0     H67725   0.217   1.092   1.462  0.3886  2.0744 -1.9089
  502MOL0     H67726   0.348   0.954   1.606  0.8073 -1.8511 -0.4028
  502MOL0     H67727   0.470   1.084   1.635 -0.1602  5.0575 -1.2522
  502MOL0     H67728   0.518   0.889   1.483 -0.3806  0.2741  0.8827
  502MOL0     H67729   0.539   1.063   1.421  2.6435 -1.5098 -0.3053
  502MOL0     H67730   0.245   0.959   1.132  1.7985  3.0237  4.0404
  502MOL0     H67731   0.135   0.735   0.937  0.5378  0.2633  0.4956
  502MOL0     H67732   0.145   0.906   0.946  1.2310  1.6039 -1.5887
  502MOL0     H67733   0.245   0.834   0.827 -2.1266  3.3553  0.3327
  502MOL0     H67734   0.662   0.483   0.708 -1.5178  2.6585 -0.0973
  502MOL0     H67735   0.676   0.285   0.549  2.0650 -1.4509  1.3311
  502MOL0     H67736   0.555   0.220   0.385 -0.8868  0.8753  2.0367
  502MOL0     H67737   0.692   0.118   0.429 -1.2161 -1.6509  3.3830
  502MOL0     H67738   0.444   0.047   0.268 -0.1386 -2.9010 -0.7241
  502MOL0     H67739   0.609   0.071   0.204  0.3712 -3.5842 -2.7501
  502MOL0     H67740   0.500  -0.166   0.227 -1.2971  1.9036 -0.4271
  502MOL0     H67741   0.538  -0.172   0.399 -2.0600  0.1745 -0.6617
  502MOL0     H67742   0.710  -0.272   0.241  2.6885  0.5159 -3.0993
  502MOL0     H67743   0.747  -0.125   0.176  1.8645  1.3298  2.2780
  502MOL0     H67744   0.763  -0.192   0.478 -1.3690  0.2680  0.5603
  502MOL0     H67745   0.846  -0.052   0.397  1.6903 -1.0661  1.9014
  502MOL0     H67746   0.917  -0.344   0.345 -1.4702 -0.3295  0.9748
  502MOL0     H67747   1.007  -0.218   0.281  2.0316 -0.3189  1.4696
  502MOL0     H67748   0.986  -0.270   0.580 -1.2677  0.6248  0.0713
  502MOL0     H67749   1.057  -0.122   0.517 -0.5319 -0.5263  2.4091
  502MOL0     H67750   1.230  -0.239   0.396  0.4305 -0.3479  0.5805
  502MOL0     H67751   1.179  -0.396   0.451  1.4606 -0.8900  1.0800
  502MOL0     H67752   0.381   0.091   0.787  2.0797 -0.1002  4.9995
  502MOL0     H67753   0.379   0.276   0.943  0.1223 -0.5259 -0.3043
  502MOL0     H67754   0.595   0.616   1.108  1.4170  0.8072  0.5460
  502MOL0     H67755   0.582   0.754   1.295 -0.3667 -0.2266 -0.2498
  502MOL0     H67756   0.378   2.358   1.526  3.1127  1.9959 -0.0712
  502MOL0     H67757   0.345   2.536   1.679 -0.2299 -0.1237  1.2125
  502MOL0     H67758   0.756   2.673   2.156  1.1232  0.3065  0.6116
  502MOL0     H67759   0.815   2.901   2.185  0.5676 -0.6629  0.1192
  502MOL0     H67760   0.680   3.125   2.294 -0.9494 -0.3464 -0.2646
  502MOL0     H67761   0.693   3.282   2.226  3.2505 -1.6695  1.7649
  502MOL0     H67762   0.480   3.281   2.325  1.5183  0.4391  0.6505
  502MOL0     H67763   0.443   3.124   2.249  1.0932  0.1395  0.1372
  502MOL0     H67764   0.456   3.266   2.016  1.2214  0.9232  0.9791
  502MOL0     H67765   0.432   3.402   2.135  2.8823 -0.6358  2.0738
  502MOL0     H67766   0.226   3.322   2.002 -1.2330  0.0558  1.5296
  502MOL0     H67767   0.220   3.323   2.184 -0.4081 -2.4857  1.9782
  502MOL0     H67768   0.151   2.917   2.094 -0.5959  0.5492 -0.1479
  502MOL0     H67769   0.439   3.029   2.009 -0.7357 -0.3537  1.3061
  502MOL0     H67770   0.380   2.809   1.965  0.5414 -1.6681  0.1111
  503MOL0     O67771   4.851   2.836   3.281 -0.1141  0.0833  0.0056
  503MOL0     C67772   4.922   2.930   3.326  0.8235  0.6928  0.2090
  503MOL0     O67773   5.034   2.986   3.268 -0.0836 -0.5564  0.0520
  503MOL0     C67774   5.094   2.947   3.150 -0.1513  0.0320  0.0314
  503MOL0     C67775   5.232   2.935   3.160  0.1065 -0.0825 -1.0733
  503MOL0     C67776   5.309   2.894   3.054  0.5495 -0.2103  0.2675
  503MOL0     C67777   5.246   2.880   2.932 -0.0183 -0.4231  0.0669
  503MOL0     O67778   5.313   2.873   2.813 -0.0117 -0.0551  0.0533
  503MOL0     C67779   5.455   2.874   2.815 -0.6930  0.2707 -0.2425
  503MOL0     C67780   5.514   2.860   2.677 -0.5280  0.7488  0.6807
  503MOL0     C67781   5.662   2.860   2.676  0.1360 -0.2454 -0.2010
  503MOL0     C67782   5.707   2.837   2.538  0.5154  0.5487  0.1360
  503MOL0     C67783   5.670   2.710   2.474 -0.5733  0.2091 -0.0909
  503MOL0     C67784   5.734   2.704   2.335  0.3363  0.0286 -0.6983
  503MOL0     C67785   5.688   2.590   2.266 -0.6726  1.1543  0.2825
  503MOL0     C67786   5.803   2.483   2.277 -0.0946  0.3512 -0.2304
  503MOL0     N67787   5.777   2.362   2.199  0.3104  0.4620  0.2004
  503MOL0     C67788   5.667   2.285   2.200  0.3178 -0.3197 -0.1165
  503MOL0     C67789   5.693   2.185   2.104  0.5603  0.8295  0.1744
  503MOL0     C67790   5.604   2.084   2.030  0.5928 -0.5519  0.1577
  503MOL0     C67791   5.561   2.115   1.886 -0.3765  0.9166  0.6051
  503MOL0     C67792   5.503   2.250   1.864 -0.1770 -0.2459 -0.0169
  503MOL0     C67793   5.395   2.280   1.960  0.3374  0.2228  0.5274
  503MOL0     O67794   5.297   2.181   1.945  0.6013  0.1656 -0.3588
  503MOL0     C67795   5.169   2.231   1.921  0.4148 -0.1352  0.4046
  503MOL0     C67796   5.097   2.184   1.816 -0.2117  0.8203  0.9389
  503MOL0     C67797   4.959   2.228   1.787 -0.0730 -1.0902  0.9967
  503MOL0     C67798   4.884   2.135   1.699 -1.0442  0.0124 -0.1085
  503MOL0     C67799   4.904   2.327   1.867  0.1725 -0.8300  1.5171
  503MOL0     C67800   4.756   2.370   1.863 -0.2295 -0.4838  0.2541
  503MOL0     O67801   4.726   2.475   1.934  0.8894 -0.7430  1.0282
  503MOL0     C67802   4.599   2.531   1.953  0.4317 -0.0023  0.2634
  503MOL0     C67803   4.591   2.666   1.957  0.5371 -0.9396  0.2260
  503MOL0     C67804   4.467   2.736   1.961 -0.9063 -0.9127 -0.1593
  503MOL0     C67805   4.347   2.667   1.967 -0.2615  1.2149  0.0545
  503MOL0     O67806   4.225   2.727   1.955 -0.8507  1.0453 -0.6959
  503MOL0     C67807   4.198   2.866   1.961  0.2193  0.5441  0.3788
  503MOL0     C67808   4.221   2.947   1.825  0.6903  0.0867  0.1831
  503MOL0     C67809   4.159   3.086   1.825 -0.3812  0.4793  0.0749
  503MOL0     C67810   4.167   3.150   1.687  0.2807  0.0781 -0.7919
  503MOL0     C67811   4.067   3.265   1.694 -0.7696 -0.1856 -0.4242
  503MOL0     C67812   4.058   3.349   1.566  0.3982  0.0262  0.0836
  503MOL0     C67813   3.967   3.284   1.468 -0.3168 -0.5735 -0.0828
  503MOL0     C67814   3.952   3.384   1.342  0.4125 -0.0688 -0.0255
  503MOL0    Cl67815   4.054   3.343   1.211 -0.2902  0.1475  0.1475
  503MOL0     C67816   4.350   2.526   1.958 -0.7430  0.1635  0.0761
  503MOL0     C67817   4.480   2.459   1.955  0.9267 -1.2914  0.0044
  503MOL0     O67818   4.681   2.290   1.817  0.0328  0.5424 -0.0373
  503MOL0     C67819   4.988   2.396   1.953 -0.0177  0.5102  0.0710
  503MOL0     C67820   5.116   2.346   1.992  0.8781  0.0635 -0.4654
  503MOL0     N67821   5.819   2.204   2.052 -0.1791  0.4323  0.4909
  503MOL0     N67822   5.865   2.313   2.103  0.7963 -0.1796 -0.7084
  503MOL0     C67823   5.110   2.891   2.919  0.8663  0.3133  0.1981
  503MOL0     C67824   5.030   2.915   3.032  0.3255 -0.2800 -0.4267
  503MOL0     C67825   4.878   2.979   3.457 -0.2097 -0.5790 -0.7515
  503MOL0     C67826   4.942   3.090   3.513  0.4211  0.2601 -0.3639
  503MOL0     C67827   4.892   3.145   3.634 -0.4339 -1.0927 -0.1973
  503MOL0     C67828   4.779   3.087   3.701 -0.7566  0.5070 -0.1053
  503MOL0     O67829   4.710   3.140   3.811  0.1954  0.5049  0.0468
  503MOL0     C67830   4.789   3.205   3.911  1.0601  0.0340  0.3913
  503MOL0     C67831   4.698   3.206   4.034  0.4866  0.0151 -0.7451
  503MOL0     C67832   4.769   3.286   4.150 -0.3040 -0.8301  0.3815
  503MOL0     C67833   4.707   3.280   4.280  0.4285 -0.4265  0.8635
  503MOL0     C67834   4.566   3.268   4.286 -0.0720 -0.2792  1.2556
  503MOL0     C67835   4.452   3.237   4.280 -0.3193 -0.3954  0.6467
  503MOL0     C67836   4.718   2.971   3.648 -0.3005  0.0893  0.8674
  503MOL0     C67837   4.766   2.918   3.527 -0.8627 -0.6059  0.0605
  503MOL0     H67838   5.274   2.953   3.258 -2.0946  2.1703 -0.4115
  503MOL0     H67839   5.415   2.876   3.067  0.6532 -1.4683 -1.8350
  503MOL0     H67840   5.504   2.965   2.851  1.4693 -0.8556 -0.1740
  503MOL0     H67841   5.499   2.797   2.879  1.6347  0.5232 -1.4338
  503MOL0     H67842   5.452   2.784   2.627 -3.3711  1.0801  3.4017
  503MOL0     H67843   5.501   2.953   2.620  2.0274 -0.7250 -2.6584
  503MOL0     H67844   5.710   2.952   2.711 -1.0553 -0.3058  1.6948
  503MOL0     H67845   5.697   2.778   2.739  1.5034 -0.1244 -0.7625
  503MOL0     H67846   5.677   2.923   2.478 -3.3469 -0.0854  0.9036
  503MOL0     H67847   5.816   2.832   2.530  0.4462 -0.5059 -0.2363
  503MOL0     H67848   5.707   2.626   2.534  0.4615  0.4437 -0.3841
  503MOL0     H67849   5.562   2.694   2.461 -0.6824  0.7753  0.0993
  503MOL0     H67850   5.700   2.791   2.277 -1.8349 -0.4548 -0.2342
  503MOL0     H67851   5.844   2.706   2.335  0.3987 -1.5907 -1.4961
  503MOL0     H67852   5.589   2.548   2.290  0.5168 -1.0108  1.7739
  503MOL0     H67853   5.684   2.610   2.159 -0.6124 -3.1270 -0.7022
  503MOL0     H67854   5.831   2.445   2.376  0.7037 -0.7510 -0.8585
  503MOL0     H67855   5.898   2.531   2.255  1.4948 -3.2736 -2.1719
  503MOL0     H67856   5.576   2.303   2.257  0.8031  1.5405  0.1385
  503MOL0     H67857   5.666   1.994   2.028  1.7713  0.2485 -0.1879
  503MOL0     H67858   5.522   2.058   2.097  0.2112 -2.7833 -1.0510
  503MOL0     H67859   5.492   2.032   1.868 -0.5363  0.2784  3.6922
  503MOL0     H67860   5.654   2.109   1.829 -0.4394 -0.2091  0.6177
  503MOL0     H67861   5.470   2.259   1.760 -1.2592  0.9000  0.3962
  503MOL0     H67862   5.579   2.326   1.886 -0.6018  0.3248 -0.4907
  503MOL0     H67863   5.359   2.374   1.917 -0.6080 -0.2378  0.2908
  503MOL0     H67864   5.421   2.311   2.062 -1.9647  3.1298  0.3423
  503MOL0     H67865   5.150   2.105   1.764 -0.7113  0.0952  1.5232
  503MOL0     H67866   4.955   2.069   1.648 -0.7127 -0.5458  1.0274
  503MOL0     H67867   4.817   2.065   1.748 -0.8454 -0.7894 -0.9653
  503MOL0     H67868   4.832   2.179   1.614  0.8118 -2.7856 -2.8773
  503MOL0     H67869   4.681   2.726   1.968 -1.3130  1.9198  0.7633
  503MOL0     H67870   4.474   2.844   1.951  1.2696 -1.2247 -4.1534
  503MOL0     H67871   4.091   2.865   1.982  0.7880 -1.4250  4.0414
  503MOL0     H67872   4.235   2.919   2.050 -0.7921 -0.3421  1.3623
  503MOL0     H67873   4.327   2.960   1.797 -0.1202  2.3366 -2.3424
  503MOL0     H67874   4.179   2.892   1.741 -1.6083  2.0753 -0.0776
  503MOL0     H67875   4.214   3.149   1.896 -0.0041  2.2922 -1.7221
  503MOL0     H67876   4.056   3.080   1.863 -0.8580 -2.2046 -1.4048
  503MOL0     H67877   4.269   3.177   1.658 -0.0751  0.1441 -2.0539
  503MOL0     H67878   4.128   3.084   1.609  0.6485 -1.4869  0.2958
  503MOL0     H67879   4.102   3.330   1.775 -0.4864 -1.6046  0.6327
  503MOL0     H67880   3.977   3.223   1.739  1.0663 -1.4276  2.4053
  503MOL0     H67881   4.013   3.445   1.594 -0.9397 -0.4009 -0.5407
  503MOL0     H67882   4.159   3.366   1.527 -1.3210  0.5936 -4.7772
  503MOL0     H67883   3.865   3.261   1.499 -1.9734  1.6941 -3.3458
  503MOL0     H67884   4.014   3.190   1.438  0.8424 -1.0850  2.9692
  503MOL0     H67885   3.985   3.485   1.368  3.7042 -0.8750 -0.6657
  503MOL0     H67886   3.850   3.379   1.302 -0.3624  0.3766  1.7921
  503MOL0     H67887   4.261   2.464   1.959 -0.9579  0.3125 -2.6126
  503MOL0     H67888   4.469   2.351   1.960 -2.2977 -1.0169  0.9419
  503MOL0     H67889   4.944   2.476   2.011  2.1838  0.7289  1.5438
  503MOL0     H67890   5.178   2.399   2.063 -1.7866  2.2653  0.3551
  503MOL0     H67891   5.064   2.871   2.823  1.6543 -0.1218 -0.0993
  503MOL0     H67892   4.923   2.919   3.014  0.3132  2.2628 -0.1291
  503MOL0     H67893   5.037   3.134   3.483  1.6411 -0.3323  2.3635
  503MOL0     H67894   4.936   3.234   3.679 -2.2795 -0.2793  0.1103
  503MOL0     H67895   4.878   3.153   3.947  2.0879  0.8433 -0.8885
  503MOL0     H67896   4.809   3.307   3.877  0.9612 -0.0025  0.2249
  503MOL0     H67897   4.683   3.101   4.058  1.9062 -0.3037 -1.1740
  503MOL0     H67898   4.604   3.256   4.006 -0.3806 -0.3989  1.2940
  503MOL0     H67899   4.792   3.390   4.126  1.9229 -1.6017 -1.1346
  503MOL0     H67900   4.863   3.232   4.163 -1.4451 -3.2072 -0.6796
  503MOL0     H67901   4.720   3.371   4.339  1.8837 -0.0580  0.0131
  503MOL0     H67902   4.747   3.190   4.327 -0.6832 -1.7672 -0.6479
  503MOL0     H67903   4.349   3.206   4.278 -1.0091  1.5481  2.5025
  503MOL0     H67904   4.627   2.926   3.686 -1.3236  0.5571 -0.9266
  503MOL0     H67905   4.728   2.825   3.485  0.5635 -0.6438 -1.2089
  504MOL0     O67906   1.217   0.582   9.629  0.2057  0.4921 -0.5900
  504MOL0     C67907   1.262   0.544   9.739  0.0818  0.0452  0.3159
  504MOL0     O67908   1.398   0.526   9.754  0.7391 -0.2011 -0.0952
  504MOL0     C67909   1.489   0.560   9.663  0.2426  0.0676 -0.4996
  504MOL0     C67910   1.487   0.500   9.535 -0.9034 -0.1211  0.2907
  504MOL0     C67911   1.598   0.528   9.454  0.2804  0.4009  0.4892
  504MOL0     C67912   1.710   0.591   9.502  0.2042 -0.6633 -0.0662
  504MOL0     O67913   1.819   0.603   9.412 -0.2964  0.6575 -0.3360
  504MOL0     C67914   1.958   0.629   9.450 -0.5856 -0.5755 -0.0864
  504MOL0     C67915   2.048   0.505   9.401 -1.0113 -0.8945  0.0054
  504MOL0     C67916   2.009   0.366   9.448  0.0989  0.7068 -0.0086
  504MOL0     C67917   2.014   0.363   9.610 -0.1071  0.6651  0.1717
  504MOL0     C67918   1.997   0.227   9.672  0.1029  0.5867 -0.3912
  504MOL0     C67919   1.863   0.158   9.647 -0.1254 -1.0866 -0.6193
  504MOL0     C67920   1.887   0.006   9.658  0.3795  0.9613 -0.9848
  504MOL0     C67921   1.902  -0.070   9.524  0.0936  0.7630  1.2799
  504MOL0     N67922   1.781  -0.037   9.446 -0.6094  0.3138 -0.7366
  504MOL0     C67923   1.651  -0.072   9.475  0.1657  0.0815 -0.1880
  504MOL0     C67924   1.575  -0.011   9.378 -0.1473  0.2383  0.3877
  504MOL0     C67925   1.434  -0.011   9.374  0.1625  0.0227  0.1688
  504MOL0     C67926   1.374   0.079   9.477 -0.3616  0.2671  0.8112
  504MOL0     C67927   1.222   0.114   9.469 -0.7197  0.1108  0.2790
  504MOL0     C67928   1.190   0.222   9.570  0.2436 -0.1871 -0.0006
  504MOL0     O67929   1.039   0.226   9.585 -1.2439 -0.0149 -0.9302
  504MOL0     C67930   0.968   0.337   9.553 -0.2837  0.1502  0.9417
  504MOL0     C67931   0.833   0.330   9.586 -0.1741  1.0975  0.2506
  504MOL0     C67932   0.740   0.430   9.563 -0.8876 -0.3714  0.5833
  504MOL0     C67933   0.593   0.424   9.600 -0.2805  0.1150 -0.1202
  504MOL0     C67934   0.789   0.546   9.493 -0.5213 -0.0808  0.5570
  504MOL0     C67935   0.703   0.655   9.456  0.0704 -0.2278 -0.7383
  504MOL0     O67936   0.606   0.625   9.368 -0.4026 -0.5688  0.1020
  504MOL0     C67937   0.568   0.723   9.279 -0.8987 -0.4602  0.4019
  504MOL0     C67938   0.454   0.808   9.307 -0.6197  0.1292 -0.0552
  504MOL0     C67939   0.418   0.904   9.215  0.3025  0.0226 -0.2968
  504MOL0     C67940   0.490   0.928   9.099 -0.1621 -0.6505 -0.0535
  504MOL0     O67941   0.435   1.025   9.014  0.2577 -0.3289 -0.8664
  504MOL0     C67942   0.512   1.061   8.900 -0.2915 -0.2134 -0.3530
  504MOL0     C67943   0.497   0.954   8.780  0.2733  0.2217  0.8716
  504MOL0     C67944   0.367   0.971   8.712  0.3040 -0.2259 -0.3018
  504MOL0     C67945   0.343   0.862   8.603 -0.3463 -0.3335  0.1198
  504MOL0     C67946   0.200   0.868   8.554 -0.0064 -0.5862 -0.0197
  504MOL0     C67947   0.199   0.807   8.411  1.2630  0.1105  0.3323
  504MOL0     C67948   0.055   0.793   8.351 -0.1284 -0.0079  0.8050
  504MOL0     C67949   0.040   0.721   8.212  0.3977  0.7118  0.2492
  504MOL0    Cl67950  -0.108   0.774   8.137  0.6060 -0.8954  0.6297
  504MOL0     C67951   0.598   0.846   9.073 -0.1338 -0.3522  0.2068
  504MOL0     C67952   0.632   0.746   9.152  1.1487  0.5884  0.0202
  504MOL0     O67953   0.721   0.770   9.488 -0.0211  0.0647 -0.3708
  504MOL0     C67954   0.923   0.553   9.455  0.6231 -0.0608 -0.3822
  504MOL0     C67955   1.010   0.444   9.474  0.3736  0.4521  0.2899
  504MOL0     N67956   1.671   0.048   9.298  0.0718  0.3331  0.3139
  504MOL0     N67957   1.787   0.042   9.332  0.4926 -0.6666 -0.4094
  504MOL0     C67958   1.710   0.653   9.624 -0.3524  0.2578 -0.2255
  504MOL0     C67959   1.600   0.627   9.706  0.0603  0.2021 -0.8895
  504MOL0     C67960   1.171   0.486   9.839  0.3127 -0.1334 -0.3830
  504MOL0     C67961   1.038   0.509   9.819  0.4330 -0.2915 -0.9848
  504MOL0     C67962   0.957   0.465   9.920  0.5160  0.5327 -0.3701
  504MOL0     C67963   0.996   0.411  10.045 -0.3375 -1.3337 -0.7087
  504MOL0     O67964   0.899   0.374  10.140  0.0776 -0.0162 -0.2262
  504MOL0     C67965   0.952   0.360  10.272  1.2290  0.1345 -0.5037
  504MOL0     C67966   0.843   0.297  10.369 -0.4438  0.4787 -0.1063
  504MOL0     C67967   0.770   0.178  10.302 -0.1380  0.7394  0.1845
  504MOL0     C67968   0.686   0.103  10.399  0.2394 -0.1968 -0.0271
  504MOL0     C67969   0.588   0.181  10.481 -0.5803  0.1250  0.6419
  504MOL0     C67970   0.511   0.256  10.540  0.4003 -0.7519  0.1900
  504MOL0     C67971   1.134   0.403  10.054  0.0383  0.0349  0.3161
  504MOL0     C67972   1.227   0.431   9.955  0.2143  0.4876 -0.0503
  504MOL0     H67973   1.397   0.443   9.512 -1.0648  0.0172  0.5736
  504MOL0     H67974   1.605   0.489   9.354  1.6693  0.7258  0.4423
  504MOL0     H67975   1.998   0.718   9.402 -1.3129  0.5729  1.3384
  504MOL0     H67976   1.979   0.656   9.554  0.6945  1.1984 -0.7565
  504MOL0     H67977   2.051   0.497   9.292  1.9386  0.9849 -0.1614
  504MOL0     H67978   2.156   0.520   9.411 -0.6215 -2.2548 -1.7560
  504MOL0     H67979   1.907   0.351   9.411  0.7633 -0.3468 -1.4865
  504MOL0     H67980   2.075   0.286   9.412 -3.0527 -1.1345 -2.1748
  504MOL0     H67981   2.101   0.422   9.640  0.2562 -0.2752  0.9887
  504MOL0     H67982   1.929   0.422   9.645 -1.3112 -0.2944 -0.9954
  504MOL0     H67983   2.082   0.170   9.634  2.5696  3.3171  0.6556
  504MOL0     H67984   2.019   0.231   9.779  3.4206  0.8458 -0.9643
  504MOL0     H67985   1.782   0.204   9.704  0.8243 -0.1064 -0.0266
  504MOL0     H67986   1.833   0.188   9.546 -3.2958 -2.8515 -0.3329
  504MOL0     H67987   1.976  -0.019   9.715  0.4220  2.7419 -0.2267
  504MOL0     H67988   1.796  -0.028   9.710  0.5830 -0.0120 -1.2379
  504MOL0     H67989   1.916  -0.176   9.549  3.1234  1.3580  2.4494
  504MOL0     H67990   1.991  -0.034   9.473  0.7635  0.5265  2.2628
  504MOL0     H67991   1.617  -0.144   9.549  1.3790 -1.5724 -1.1699
  504MOL0     H67992   1.401   0.008   9.272  0.5467  0.6135  0.1470
  504MOL0     H67993   1.402  -0.108   9.414  0.5778  1.5241  4.7152
  504MOL0     H67994   1.437   0.168   9.474  0.1138 -0.1046 -1.2843
  504MOL0     H67995   1.416   0.037   9.570  1.2443 -0.5491 -0.2191
  504MOL0     H67996   1.163   0.024   9.490  0.4870 -0.7175  0.1953
  504MOL0     H67997   1.206   0.140   9.364  0.4994 -1.8135 -0.4404
  504MOL0     H67998   1.233   0.312   9.526 -0.6590  0.6094  0.7003
  504MOL0     H67999   1.240   0.202   9.665  0.0861 -3.1354 -0.4247
  504MOL0     H68000   0.796   0.236   9.625  0.9204 -1.3695 -4.0432
  504MOL0     H68001   0.584   0.361   9.690 -2.9088 -2.2489 -1.8603
  504MOL0     H68002   0.561   0.527   9.616 -0.4211 -0.1101  1.1251
  504MOL0     H68003   0.549   0.383   9.509 -2.0381  2.5746 -0.4790
  504MOL0     H68004   0.391   0.801   9.396 -1.0558  0.7104 -0.3063
  504MOL0     H68005   0.337   0.972   9.240 -1.8244 -2.7241  0.8254
  504MOL0     H68006   0.471   1.160   8.877  0.0489  0.3004  1.1543
  504MOL0     H68007   0.616   1.082   8.926 -1.1349  2.7285  1.0973
  504MOL0     H68008   0.581   0.967   8.711  0.3265  0.7952  1.0405
  504MOL0     H68009   0.497   0.857   8.830  0.8962  0.0040  0.4611
  504MOL0     H68010   0.360   1.071   8.669  3.4298 -0.5014 -1.7295
  504MOL0     H68011   0.280   0.964   8.778 -1.4738  5.0542 -1.5681
  504MOL0     H68012   0.418   0.868   8.523 -0.4162  0.8777  0.1312
  504MOL0     H68013   0.349   0.762   8.648 -1.4735 -0.8466 -0.8180
  504MOL0     H68014   0.171   0.972   8.538  0.7023 -0.4838 -0.7388
  504MOL0     H68015   0.131   0.814   8.620 -1.3907  2.5302  1.2414
  504MOL0     H68016   0.254   0.870   8.340  0.8001 -1.8737 -1.9271
  504MOL0     H68017   0.256   0.713   8.416  2.1906  0.6878  4.1377
  504MOL0     H68018   0.008   0.891   8.355  2.6907  1.4206  3.1054
  504MOL0     H68019   0.000   0.731   8.422 -1.1068  1.1001  1.0439
  504MOL0     H68020   0.042   0.612   8.215  1.5867  0.6576 -1.2194
  504MOL0     H68021   0.120   0.760   8.148 -0.7838  0.9933 -1.0954
  504MOL0     H68022   0.656   0.885   8.990 -3.3392 -0.0371 -2.0721
  504MOL0     H68023   0.716   0.685   9.124 -0.5382 -2.1630  0.5521
  504MOL0     H68024   0.958   0.651   9.426  0.4674  0.4240  0.9693
  504MOL0     H68025   1.107   0.449   9.426 -0.1803  0.4757 -0.8597
  504MOL0     H68026   1.793   0.701   9.675 -2.5467  0.3004  3.7727
  504MOL0     H68027   1.604   0.665   9.807 -0.1246 -0.1554 -0.7459
  504MOL0     H68028   1.002   0.554   9.728  1.7277  1.2342 -0.7744
  504MOL0     H68029   0.851   0.472   9.897 -0.6646 -2.5674  3.0979
  504MOL0     H68030   1.044   0.301  10.279  0.9657 -0.0530  2.2252
  504MOL0     H68031   0.971   0.458  10.316 -5.2744  1.3988  0.5208
  504MOL0     H68032   0.777   0.375  10.408 -1.2036 -1.3217  2.5469
  504MOL0     H68033   0.899   0.261  10.456  0.4943 -0.2364 -0.9893
  504MOL0     H68034   0.842   0.116  10.248  0.9357  1.9469  0.1690
  504MOL0     H68035   0.695   0.225  10.238 -0.5170  1.2759  1.0132
  504MOL0     H68036   0.753   0.043  10.461 -0.3424  0.5566  1.3743
  504MOL0     H68037   0.619   0.029  10.354  1.1031 -1.3971  0.5971
  504MOL0     H68038   0.450   0.331  10.586 -0.2530 -0.2458 -1.4455
  504MOL0     H68039   1.189   0.367  10.140 -0.7461  0.2399  0.9189
  504MOL0     H68040   1.334   0.417   9.965  0.5198  2.3101 -0.4361
  505MOL0     O68041  11.403   6.407   8.031 -0.3992  0.2399 -0.5898
  505MOL0     C68042  11.379   6.500   8.113 -0.0571 -0.2144  0.8592
  505MOL0     O68043  11.474   6.579   8.175  0.2383 -0.4354 -0.1897
  505MOL0     C68044  11.603   6.554   8.156 -0.1797  0.4253 -0.5056
  505MOL0     C68045  11.652   6.432   8.198  0.0287 -0.3730 -0.0739
  505MOL0     C68046  11.784   6.410   8.188 -0.7654 -0.9684  0.1871
  505MOL0     C68047  11.874   6.512   8.134 -0.8739  0.3468  0.2152
  505MOL0     O68048  12.015   6.503   8.128 -1.1169  0.0554 -0.5667
  505MOL0     C68049  12.048   6.451   7.997  0.2434 -0.2727 -0.0657
  505MOL0     C68050  12.199   6.457   7.965  0.0705  0.0273  0.2459
  505MOL0     C68051  12.272   6.335   8.016  0.0203  0.1573 -0.1908
  505MOL0     C68052  12.420   6.346   7.983  0.9732 -0.1143  0.5867
  505MOL0     C68053  12.499   6.256   8.074  0.1032 -1.0862 -0.0567
  505MOL0     C68054  12.651   6.289   8.087 -0.2647 -0.9304  0.1236
  505MOL0     C68055  12.733   6.174   8.151 -0.0935  0.7548  1.2295
  505MOL0     C68056  12.880   6.204   8.166  0.7377 -0.3226  0.3975
  505MOL0     N68057  12.944   6.126   8.267 -0.1449  0.5498  0.8514
  505MOL0     C68058  12.972   5.992   8.267  0.4391 -0.1553  0.1533
  505MOL0     C68059  12.995   5.956   8.392  0.2877 -0.6545 -0.7146
  505MOL0     C68060  13.038   5.822   8.433 -0.4665  0.5270 -0.3973
  505MOL0     C68061  13.184   5.829   8.482 -0.4026 -0.3737  0.1026
  505MOL0     C68062  13.232   5.687   8.530 -0.3408  0.1478 -0.2681
  505MOL0     C68063  13.147   5.645   8.654 -0.0324  0.0689 -0.5361
  505MOL0     O68064  13.191   5.511   8.707 -0.3934 -0.6063  0.4056
  505MOL0     C68065  13.127   5.400   8.669 -0.1990 -0.0531  0.0169
  505MOL0     C68066  13.004   5.395   8.591  0.2070 -0.1846  0.4622
  505MOL0     C68067  12.958   5.271   8.539  0.8795 -0.2703  0.1500
  505MOL0     C68068  12.851   5.282   8.427 -0.1394  1.1662  0.1375
  505MOL0     C68069  13.017   5.151   8.572  0.2395  0.5305  0.2125
  505MOL0     C68070  12.991   5.011   8.521  0.1481  0.3181 -0.0505
  505MOL0     O68071  12.889   5.005   8.424 -0.2121  0.4613 -0.3812
  505MOL0     C68072  12.867   4.897   8.345  0.8946 -0.1585 -0.0139
  505MOL0     C68073  12.732   4.887   8.311  0.4343  0.1271 -0.3363
  505MOL0     C68074  12.693   4.788   8.215 -0.0797  0.3236 -0.5609
  505MOL0     C68075  12.794   4.719   8.145  0.1483 -0.2614 -0.4472
  505MOL0     O68076  12.786   4.628   8.051 -0.0779  0.9037  0.5591
  505MOL0     C68077  12.797   4.707   7.932  0.4119 -0.0411 -1.2220
  505MOL0     C68078  12.804   4.610   7.814 -0.3074 -0.1343  0.6093
  505MOL0     C68079  12.933   4.527   7.802  0.2042  0.3347  0.0000
  505MOL0     C68080  13.065   4.613   7.796  0.3607 -0.3531  0.4223
  505MOL0     C68081  13.175   4.528   7.760  0.0473  0.1234  0.1883
  505MOL0     C68082  13.310   4.593   7.785 -0.1230 -0.1577  0.8910
  505MOL0     C68083  13.426   4.498   7.743 -0.1816  0.1632  0.0803
  505MOL0     C68084  13.460   4.512   7.592 -0.4734 -0.7655  0.9343
  505MOL0    Cl68085  13.627   4.526   7.557  0.0866 -0.3169  0.2464
  505MOL0     C68086  12.930   4.739   8.187  0.3700  0.8275  0.4396
  505MOL0     C68087  12.965   4.819   8.289 -1.0358 -0.5074 -0.4261
  505MOL0     O68088  13.062   4.914   8.562  0.1026  0.1134 -0.0291
  505MOL0     C68089  13.133   5.160   8.658  0.3245 -0.4032  1.1994
  505MOL0     C68090  13.192   5.280   8.693  0.1513  0.3099 -0.5221
  505MOL0     N68091  12.983   6.071   8.470  0.0437  0.0261 -1.2952
  505MOL0     N68092  12.956   6.169   8.391  0.1067  0.6007  0.2613
  505MOL0     C68093  11.823   6.628   8.082 -0.0913 -0.2640 -0.1905
  505MOL0     C68094  11.685   6.651   8.099  0.2324 -0.5107 -0.9084
  505MOL0     C68095  11.237   6.520   8.150 -0.2020 -0.4200  0.5658
  505MOL0     C68096  11.145   6.476   8.046 -0.0903 -0.2908  0.2288
  505MOL0     C68097  11.010   6.474   8.071 -0.1089  0.3757  0.6454
  505MOL0     C68098  10.958   6.510   8.195  0.0419 -0.0035  0.2679
  505MOL0     O68099  10.830   6.473   8.220 -0.2111  0.2461 -0.1188
  505MOL0     C68100  10.762   6.508   8.342  0.0069  0.1840  0.7142
  505MOL0     C68101  10.613   6.504   8.298  1.2545 -0.3526 -0.5215
  505MOL0     C68102  10.579   6.594   8.176 -0.7176 -0.1444  0.0007
  505MOL0     C68103  10.432   6.581   8.123 -0.0504  0.6160  0.7564
  505MOL0     C68104  10.392   6.680   8.031 -0.7454 -0.4049  0.3460
  505MOL0     C68105  10.335   6.754   7.958  0.4948  0.3027  1.0627
  505MOL0     C68106  11.049   6.573   8.284  0.4038 -0.8647 -0.1407
  505MOL0     C68107  11.184   6.589   8.261 -0.1678  0.5132  0.3705
  505MOL0     H68108  11.576   6.364   8.235 -0.7386 -1.4141 -3.2588
  505MOL0     H68109  11.807   6.309   8.221 -4.4189 -1.7223  0.8457
  505MOL0     H68110  12.028   6.344   7.998 -2.8560  0.2120  1.3835
  505MOL0     H68111  11.982   6.492   7.920 -1.8425 -0.7407  1.4004
  505MOL0     H68112  12.216   6.463   7.857  0.9284 -2.6910  0.1391
  505MOL0     H68113  12.246   6.546   8.007  1.7692 -1.2023  1.0802
  505MOL0     H68114  12.252   6.323   8.123 -1.1032 -2.6675 -0.6497
  505MOL0     H68115  12.238   6.252   7.954  1.0536  2.8465 -4.8057
  505MOL0     H68116  12.437   6.307   7.882 -1.9558  1.9271 -0.8517
  505MOL0     H68117  12.447   6.452   7.976 -0.9009  0.4850  1.6256
  505MOL0     H68118  12.459   6.270   8.176 -1.8910 -0.4927 -0.8697
  505MOL0     H68119  12.477   6.152   8.050 -0.1484 -1.1076  0.2505
  505MOL0     H68120  12.678   6.306   7.982 -0.7175  0.9412  0.2653
  505MOL0     H68121  12.670   6.386   8.135  6.0147 -1.4207 -0.4668
  505MOL0     H68122  12.696   6.146   8.250  0.9589  0.7783  1.6385
  505MOL0     H68123  12.735   6.080   8.095  3.3030  0.8776  0.9459
  505MOL0     H68124  12.901   6.309   8.189  0.4999 -0.2331  0.2097
  505MOL0     H68125  12.933   6.186   8.072 -0.0769  0.0466 -0.1562
  505MOL0     H68126  12.975   5.914   8.191 -0.7603 -1.3165  1.2370
  505MOL0     H68127  12.971   5.788   8.512 -0.2300 -1.6360 -1.0662
  505MOL0     H68128  13.030   5.744   8.357  0.5687 -2.6707  2.5426
  505MOL0     H68129  13.192   5.910   8.555  0.4037 -2.1770  2.1234
  505MOL0     H68130  13.245   5.860   8.397 -3.0358  0.5868 -1.5758
  505MOL0     H68131  13.339   5.674   8.548 -0.0426 -1.1954 -2.5005
  505MOL0     H68132  13.225   5.616   8.447  2.5624 -0.0245 -0.4780
  505MOL0     H68133  13.040   5.661   8.637  0.1344  1.3175 -0.5157
  505MOL0     H68134  13.165   5.716   8.736  2.3860 -1.1078  0.0412
  505MOL0     H68135  12.965   5.488   8.552  3.3332  1.0544 -0.0290
  505MOL0     H68136  12.901   5.250   8.335 -0.6539  2.8778 -0.7884
  505MOL0     H68137  12.761   5.222   8.443  1.2551 -0.4457  2.6799
  505MOL0     H68138  12.822   5.386   8.411 -1.2201  0.7541 -0.6440
  505MOL0     H68139  12.655   4.937   8.368 -0.0249 -1.3492  0.3990
  505MOL0     H68140  12.589   4.762   8.198 -0.4202 -0.9037  2.5791
  505MOL0     H68141  12.705   4.763   7.915  1.7005  1.5943 -3.3238
  505MOL0     H68142  12.879   4.779   7.918 -0.6095  1.5260  0.3626
  505MOL0     H68143  12.715   4.547   7.806  0.0189 -0.6783  1.1528
  505MOL0     H68144  12.811   4.664   7.719  1.2536 -0.5751  0.4300
  505MOL0     H68145  12.917   4.463   7.715  0.9261  0.1709 -0.0222
  505MOL0     H68146  12.939   4.450   7.881  0.4235  2.3355  2.0379
  505MOL0     H68147  13.042   4.691   7.723 -2.0188 -0.8019  0.6067
  505MOL0     H68148  13.094   4.644   7.896  3.3946 -0.3549 -0.3692
  505MOL0     H68149  13.159   4.501   7.655 -1.1307 -2.4482  0.9395
  505MOL0     H68150  13.170   4.427   7.804  2.6353 -0.0069  0.3709
  505MOL0     H68151  13.307   4.689   7.732 -1.3979 -0.5723  0.1496
  505MOL0     H68152  13.327   4.611   7.892  3.4021  2.2614  0.0857
  505MOL0     H68153  13.408   4.393   7.765  0.6569  0.0508  0.2708
  505MOL0     H68154  13.511   4.540   7.798 -1.6929  2.7212  0.6452
  505MOL0     H68155  13.417   4.609   7.562 -0.2201  0.8018  5.0291
  505MOL0     H68156  13.421   4.442   7.518  1.3080  1.5576 -2.4832
  505MOL0     H68157  13.002   4.692   8.121  0.4748  0.3757  0.8700
  505MOL0     H68158  13.068   4.814   8.324 -1.0872  1.2502  0.0768
  505MOL0     H68159  13.186   5.071   8.689  1.2364 -0.1384  0.4428
  505MOL0     H68160  13.285   5.282   8.749  1.9893 -0.2695 -3.3127
  505MOL0     H68161  11.899   6.692   8.037  0.9530 -0.8890  0.6571
  505MOL0     H68162  11.648   6.748   8.066  1.6923  0.0269 -1.0478
  505MOL0     H68163  11.188   6.440   7.953  1.4350  0.4143  0.6414
  505MOL0     H68164  10.957   6.413   7.998 -1.8840  1.6862  0.7902
  505MOL0     H68165  10.788   6.437   8.421 -1.4829  1.2697  2.2193
  505MOL0     H68166  10.778   6.609   8.380 -1.5216  0.4900  0.5873
  505MOL0     H68167  10.544   6.513   8.383 -0.1767  0.4938 -1.7311
  505MOL0     H68168  10.606   6.399   8.268  0.3026 -0.6217  0.5482
  505MOL0     H68169  10.634   6.563   8.087 -0.3702  0.3323  0.0415
  505MOL0     H68170  10.601   6.697   8.207 -0.1152 -0.0037 -0.8426
  505MOL0     H68171  10.356   6.587   8.201 -1.4351  4.5113 -0.6285
  505MOL0     H68172  10.425   6.491   8.061 -1.7521  1.1294  0.1512
  505MOL0     H68173  10.279   6.821   7.897  1.4847  0.3226  0.1415
  505MOL0     H68174  11.014   6.609   8.381  1.0476  1.4244 -0.6841
  505MOL0     H68175  11.246   6.646   8.329  0.9636  0.4303 -0.5747
  506MOL0     O68176   5.801   9.570   8.961 -0.2038 -0.2235 -0.4771
  506MOL0     C68177   5.882   9.572   8.867 -0.3168 -0.4599  0.2807
  506MOL0     O68178   5.982   9.669   8.848  0.3108 -0.2198 -0.0511
  506MOL0     C68179   6.013   9.748   8.961  0.1937 -0.2486  0.1171
  506MOL0     C68180   5.951   9.870   8.984 -0.0461  0.5798 -0.7342
  506MOL0     C68181   5.977   9.940   9.109  0.1585  0.1863  0.3076
  506MOL0     C68182   6.050   9.881   9.209  0.3177 -0.5504  0.4057
  506MOL0     O68183   6.072   9.947   9.327  0.2416 -0.0540 -0.4931
  506MOL0     C68184   6.025  10.088   9.361 -0.5817  0.3734  0.2385
  506MOL0     C68185   6.109  10.195   9.289 -0.6807 -1.1617 -0.1724
  506MOL0     C68186   6.210  10.271   9.387 -0.2612 -0.5711 -0.2026
  506MOL0     C68187   6.319  10.176   9.450  0.7428  1.0130  0.4471
  506MOL0     C68188   6.450  10.234   9.495 -0.0667  0.2969  0.8232
  506MOL0     C68189   6.525  10.143   9.586 -0.1503  0.2360  0.2708
  506MOL0     C68190   6.562  10.007   9.515 -0.5041 -0.4917 -0.2501
  506MOL0     C68191   6.626  10.007   9.375  0.3369  1.0837 -0.5391
  506MOL0     N68192   6.768  10.049   9.368 -0.5403  0.1201  0.1545
  506MOL0     C68193   6.868   9.971   9.415 -0.5413 -0.4201 -0.4893
  506MOL0     C68194   6.977  10.005   9.334 -0.1883 -0.4092 -0.1118
  506MOL0     C68195   7.113   9.939   9.353 -0.2833 -0.0883  0.7012
  506MOL0     C68196   7.129   9.834   9.234 -0.1706 -0.1171 -0.0788
  506MOL0     C68197   7.275   9.795   9.218 -0.5820  0.7742  0.2539
  506MOL0     C68198   7.289   9.704   9.089 -0.3374 -0.0149  0.2561
  506MOL0     O68199   7.220   9.578   9.127  0.8842  0.0452 -0.2423
  506MOL0     C68200   7.145   9.528   9.032  0.0832 -0.1233  0.7664
  506MOL0     C68201   7.172   9.404   8.964  0.4811 -0.6474 -0.3384
  506MOL0     C68202   7.076   9.350   8.864 -0.2339  0.1160 -0.1334
  506MOL0     C68203   7.140   9.249   8.771 -0.4038 -0.4415  0.0514
  506MOL0     C68204   6.953   9.411   8.835  0.1340 -0.1790  0.6188
  506MOL0     C68205   6.855   9.367   8.720  0.1634 -1.6289 -0.0240
  506MOL0     O68206   6.877   9.258   8.649  0.5477  0.4794 -0.1489
  506MOL0     C68207   6.821   9.264   8.525  0.0283  0.4591  0.2178
  506MOL0     C68208   6.714   9.184   8.489  0.2055 -0.5001 -0.2992
  506MOL0     C68209   6.667   9.185   8.360 -0.3520 -0.6384 -0.0783
  506MOL0     C68210   6.732   9.262   8.257  0.5319  1.5504  0.1536
  506MOL0     O68211   6.687   9.238   8.124  0.1887 -0.8210  0.3730
  506MOL0     C68212   6.674   9.358   8.047 -0.7710 -0.4379  0.2283
  506MOL0     C68213   6.778   9.352   7.926 -0.0770 -0.3946 -0.2214
  506MOL0     C68214   6.751   9.247   7.818 -0.3427  0.4006 -0.8708
  506MOL0     C68215   6.639   9.298   7.720 -0.0426 -0.3764 -0.4193
  506MOL0     C68216   6.623   9.206   7.597 -0.6188 -0.1376  0.6383
  506MOL0     C68217   6.638   9.300   7.470  0.8857 -0.7863  0.7801
  506MOL0     C68218   6.578   9.248   7.334  1.6251  0.8964  0.6641
  506MOL0     C68219   6.628   9.312   7.204 -0.1031  0.3661 -0.9217
  506MOL0    Cl68220   6.801   9.276   7.165  0.4090  0.5749  0.0199
  506MOL0     C68221   6.842   9.338   8.286  0.5029 -0.2136  0.5665
  506MOL0     C68222   6.888   9.334   8.423  0.2836 -0.5311  1.0045
  506MOL0     O68223   6.752   9.436   8.718  0.0617  0.1413 -0.1380
  506MOL0     C68224   6.934   9.534   8.910 -0.1127  0.0698  0.0160
  506MOL0     C68225   7.017   9.588   9.003  0.4080 -0.2127  0.0161
  506MOL0     N68226   6.934  10.091   9.230 -1.1324  0.5197 -1.3379
  506MOL0     N68227   6.805  10.109   9.252  0.1326  1.1459 -0.2998
  506MOL0     C68228   6.109   9.753   9.185  0.4192  0.6614 -0.2623
  506MOL0     C68229   6.089   9.690   9.060  0.3082 -0.4352  0.4813
  506MOL0     C68230   5.858   9.482   8.751 -1.5455 -0.5361 -0.3476
  506MOL0     C68231   5.748   9.399   8.745 -0.4641  0.9828 -0.0911
  506MOL0     C68232   5.732   9.305   8.647  0.3003 -0.3544  0.2083
  506MOL0     C68233   5.814   9.310   8.535  0.8391  0.7390  0.4819
  506MOL0     O68234   5.806   9.223   8.432  0.2881 -0.0744  0.7284
  506MOL0     C68235   5.684   9.162   8.393  0.1594  0.1077  0.7722
  506MOL0     C68236   5.680   9.009   8.432  0.2793 -0.3220  0.3299
  506MOL0     C68237   5.560   8.942   8.369 -0.3650 -0.6356  0.0592
  506MOL0     C68238   5.553   8.796   8.410 -1.0080 -0.5228 -0.1691
  506MOL0     C68239   5.502   8.786   8.547  0.5895  0.2138  0.7254
  506MOL0     C68240   5.471   8.774   8.663  0.9769 -0.7561  0.3031
  506MOL0     C68241   5.922   9.394   8.534  0.2900  0.1964 -0.4666
  506MOL0     C68242   5.940   9.483   8.639 -1.1587  0.4130 -0.8727
  506MOL0     H68243   5.882   9.909   8.910 -2.0962  0.0147  0.7742
  506MOL0     H68244   5.926  10.036   9.117 -0.5498 -0.2364  1.0707
  506MOL0     H68245   5.920  10.105   9.337 -0.6215  0.5394  0.5303
  506MOL0     H68246   6.037  10.097   9.469 -1.8886 -1.1626  0.5507
  506MOL0     H68247   6.165  10.165   9.199  0.1575 -2.7643  0.8274
  506MOL0     H68248   6.027  10.262   9.263  0.7043  0.8186  0.2991
  506MOL0     H68249   6.255  10.353   9.329 -0.6573 -1.4629 -1.8463
  506MOL0     H68250   6.155  10.313   9.472 -0.0046 -2.2095  0.8113
  506MOL0     H68251   6.270  10.108   9.521  1.9418 -1.5226 -0.9899
  506MOL0     H68252   6.343  10.098   9.376 -0.8528 -1.8076  2.6704
  506MOL0     H68253   6.505  10.257   9.403  0.4888 -1.3222  0.7200
  506MOL0     H68254   6.428  10.326   9.549 -0.6857 -0.0808  1.2335
  506MOL0     H68255   6.617  10.193   9.619  0.1962  0.3109 -0.7864
  506MOL0     H68256   6.461  10.130   9.674  0.4656 -0.2340  0.6606
  506MOL0     H68257   6.635   9.963   9.585  2.1032  3.8713  0.1261
  506MOL0     H68258   6.475   9.941   9.510  1.1501 -2.7486 -0.7631
  506MOL0     H68259   6.559  10.065   9.310 -1.3625 -0.2001  0.0057
  506MOL0     H68260   6.613   9.905   9.339 -0.9141 -0.2587  3.2023
  506MOL0     H68261   6.860   9.911   9.505 -0.3807 -0.1744 -0.3088
  506MOL0     H68262   7.189  10.018   9.362  0.9704 -1.4959  4.9488
  506MOL0     H68263   7.133   9.885   9.447  0.9585 -0.2962  0.3391
  506MOL0     H68264   7.085   9.868   9.140 -6.6088 -0.2519  2.3589
  506MOL0     H68265   7.078   9.742   9.262  4.3386 -2.4958  1.3569
  506MOL0     H68266   7.319   9.746   9.306 -1.5308 -0.0528  0.2936
  506MOL0     H68267   7.328   9.889   9.200  3.4733 -1.3014  0.2331
  506MOL0     H68268   7.393   9.682   9.065 -0.8552 -2.5605  0.0275
  506MOL0     H68269   7.233   9.752   9.009 -0.1508  0.7430  0.5696
  506MOL0     H68270   7.266   9.353   8.982  0.8074 -0.4307 -1.3493
  506MOL0     H68271   7.142   9.293   8.671 -0.5987 -1.4070 -0.3871
  506MOL0     H68272   7.239   9.232   8.816  0.2478  2.7675  0.0921
  506MOL0     H68273   7.080   9.158   8.769  0.1699 -0.8486  0.8242
  506MOL0     H68274   6.665   9.116   8.557 -2.3796 -0.9434 -2.4420
  506MOL0     H68275   6.570   9.139   8.344 -0.5533 -0.8920  1.6115
  506MOL0     H68276   6.572   9.364   8.007 -1.6341 -2.1235  1.9914
  506MOL0     H68277   6.699   9.454   8.092  2.4789  1.1091 -4.2143
  506MOL0     H68278   6.769   9.451   7.880  0.2002 -0.9664 -1.5491
  506MOL0     H68279   6.881   9.340   7.959  0.4813 -1.5340 -2.1690
  506MOL0     H68280   6.730   9.149   7.863 -0.0639  0.8692  0.3294
  506MOL0     H68281   6.834   9.257   7.748  0.5848  1.1547  0.2916
  506MOL0     H68282   6.542   9.293   7.769 -1.0990 -0.6259 -2.4334
  506MOL0     H68283   6.650   9.404   7.697 -3.0857  0.2185  0.4144
  506MOL0     H68284   6.523   9.163   7.588  0.3863 -2.8997  1.7236
  506MOL0     H68285   6.699   9.128   7.592 -0.7100 -0.1457 -1.9534
  506MOL0     H68286   6.593   9.399   7.484  1.1795 -0.1814 -2.0464
  506MOL0     H68287   6.742   9.324   7.448 -0.0654  0.0743 -3.6526
  506MOL0     H68288   6.471   9.268   7.336  1.5141  0.2764  0.8166
  506MOL0     H68289   6.599   9.141   7.333  0.1679  0.5823  1.4199
  506MOL0     H68290   6.610   9.420   7.205  2.9281  1.0232 -2.6222
  506MOL0     H68291   6.567   9.284   7.117 -1.3017  1.4811 -0.4802
  506MOL0     H68292   6.883   9.391   8.201  0.3640 -2.0472 -0.6872
  506MOL0     H68293   6.976   9.389   8.452  0.8425  0.0734 -1.5603
  506MOL0     H68294   6.842   9.588   8.889  1.7246  4.0158  1.1798
  506MOL0     H68295   6.971   9.673   9.051 -1.5072 -0.3752 -1.4121
  506MOL0     H68296   6.157   9.703   9.269 -0.0897  1.0960  0.3022
  506MOL0     H68297   6.125   9.590   9.039 -1.4712 -0.8518 -0.7537
  506MOL0     H68298   5.674   9.407   8.824  1.1795  0.2238  1.5880
  506MOL0     H68299   5.638   9.252   8.651  1.0983 -2.0744 -1.9803
  506MOL0     H68300   5.602   9.217   8.439 -1.4922 -1.8298  0.3197
  506MOL0     H68301   5.679   9.173   8.284 -1.5820  0.0774  0.8219
  506MOL0     H68302   5.683   8.995   8.540  1.4355 -0.0845  0.3395
  506MOL0     H68303   5.770   8.965   8.388 -0.8085 -1.1029 -1.2099
  506MOL0     H68304   5.587   8.953   8.263 -1.5145 -0.0136 -0.1832
  506MOL0     H68305   5.468   9.000   8.383  1.0095  1.6989 -0.0034
  506MOL0     H68306   5.650   8.752   8.386 -1.4319 -2.6934  1.7201
  506MOL0     H68307   5.479   8.746   8.346 -1.5751 -1.1902  0.9624
  506MOL0     H68308   5.441   8.772   8.766 -0.1993 -1.2119 -0.0272
  506MOL0     H68309   5.990   9.383   8.450 -1.1762 -0.7662 -1.5706
  506MOL0     H68310   6.034   9.538   8.633 -1.6926  1.4101 -0.4608
  507MOL0     O68311   0.153   5.523   1.101  0.2653  1.1458  0.6139
  507MOL0     C68312   0.238   5.446   1.137 -0.0079  0.1871  0.2571
  507MOL0     O68313   0.215   5.328   1.195  0.3921 -0.0404 -0.3067
  507MOL0     C68314   0.092   5.266   1.193 -0.4990 -0.3828 -0.0649
  507MOL0     C68315   0.026   5.237   1.070 -0.3845 -0.7770  0.3192
  507MOL0     C68316  -0.100   5.171   1.080  0.0532  1.1772  0.7291
  507MOL0     C68317  -0.162   5.141   1.203 -0.7906  0.0874  1.3019
  507MOL0     O68318  -0.276   5.060   1.192 -0.8069 -0.7507 -0.1985
  507MOL0     C68319  -0.372   5.105   1.285 -0.0498 -0.9512  0.5788
  507MOL0     C68320  -0.503   5.037   1.251 -0.0732 -0.3458 -0.6329
  507MOL0     C68321  -0.610   5.070   1.357 -0.5464 -1.3244 -0.5747
  507MOL0     C68322  -0.718   4.972   1.373  0.9335  1.1732  0.6184
  507MOL0     C68323  -0.812   4.983   1.499  0.2737 -0.5804  0.2346
  507MOL0     C68324  -0.905   5.109   1.507  0.0921 -0.1853  0.7209
  507MOL0     C68325  -0.980   5.139   1.640  0.5584  0.4992  0.1553
  507MOL0     C68326  -0.907   5.111   1.776  1.3657  0.0897 -0.4512
  507MOL0     N68327  -1.009   5.134   1.880  0.8054 -0.7385 -0.6051
  507MOL0     C68328  -1.091   5.250   1.883 -0.3935  0.3150  0.8738
  507MOL0     C68329  -1.148   5.238   2.006  0.6479 -0.0992 -0.2282
  507MOL0     C68330  -1.239   5.328   2.081 -1.1773 -0.4458 -0.1953
  507MOL0     C68331  -1.199   5.474   2.049 -0.2902  0.2119  0.7376
  507MOL0     C68332  -1.269   5.578   2.129 -0.8743  0.1027  0.6178
  507MOL0     C68333  -1.243   5.724   2.076  0.2158  0.3157 -0.4871
  507MOL0     O68334  -1.291   5.826   2.173  0.1119 -0.1776  1.0411
  507MOL0     C68335  -1.300   5.953   2.132  0.6612  0.3050  0.2470
  507MOL0     C68336  -1.355   6.049   2.217 -0.3390  0.1225  0.1514
  507MOL0     C68337  -1.397   6.172   2.183  0.3845 -0.1397  0.3908
  507MOL0     C68338  -1.461   6.263   2.276 -0.3027  0.4747 -0.4673
  507MOL0     C68339  -1.390   6.208   2.040  0.2021  0.7103  0.0871
  507MOL0     C68340  -1.443   6.333   1.985 -0.0401  0.1210  0.1155
  507MOL0     O68341  -1.437   6.441   2.065  0.1836  0.2004  0.3510
  507MOL0     C68342  -1.508   6.556   2.032  0.2789  0.5420 -0.2511
  507MOL0     C68343  -1.647   6.556   2.065  0.0875  0.3550  0.2873
  507MOL0     C68344  -1.724   6.664   2.071 -0.0277 -0.8582 -0.0971
  507MOL0     C68345  -1.666   6.789   2.042  0.4356 -0.3405 -0.5623
  507MOL0     O68346  -1.724   6.917   2.053  0.1476 -0.2037 -0.0082
  507MOL0     C68347  -1.869   6.941   2.075  0.1380  0.7289 -0.6242
  507MOL0     C68348  -1.867   7.049   2.183 -0.4051  0.6228 -0.1305
  507MOL0     C68349  -2.007   7.106   2.208 -0.4431  0.3011 -0.1360
  507MOL0     C68350  -1.990   7.232   2.287  0.5269 -0.7392  0.0681
  507MOL0     C68351  -2.127   7.291   2.317  0.2301 -0.6251  0.0161
  507MOL0     C68352  -2.120   7.439   2.359  0.6540  0.5363  0.6820
  507MOL0     C68353  -2.252   7.511   2.340 -0.0428  0.6013  0.3363
  507MOL0     C68354  -2.250   7.639   2.427 -0.7672 -0.1997  0.1400
  507MOL0    Cl68355  -2.089   7.731   2.440 -0.0783 -0.2393  0.3907
  507MOL0     C68356  -1.535   6.796   1.994 -1.0155 -0.4421  0.2294
  507MOL0     C68357  -1.452   6.681   1.993  0.2322  0.3323 -0.9265
  507MOL0     O68358  -1.501   6.331   1.877  0.2567  0.0590  0.3823
  507MOL0     C68359  -1.323   6.121   1.953  0.1396  0.4752 -0.2963
  507MOL0     C68360  -1.285   5.999   2.000  0.9772  0.1356  0.0300
  507MOL0     N68361  -1.111   5.118   2.071  0.3802 -0.3025 -0.5998
  507MOL0     N68362  -1.029   5.061   1.997 -0.0333  0.1078  0.1703
  507MOL0     C68363  -0.096   5.174   1.324 -0.5349  0.7971 -0.8472
  507MOL0     C68364   0.030   5.241   1.315  0.3370  0.3879  0.9709
  507MOL0     C68365   0.382   5.475   1.104  0.2011  0.8753  1.0936
  507MOL0     C68366   0.407   5.571   1.004  0.6788  0.6228 -0.1100
  507MOL0     C68367   0.532   5.598   0.958 -0.2433  0.1562  0.7561
  507MOL0     C68368   0.637   5.529   1.004  0.3191 -1.1901 -0.7101
  507MOL0     O68369   0.759   5.580   0.955 -1.2872  0.1545  0.5704
  507MOL0     C68370   0.887   5.522   0.994  0.4684 -0.3347  0.5302
  507MOL0     C68371   0.952   5.585   1.125  0.7809 -0.7433  0.2701
  507MOL0     C68372   0.967   5.742   1.130  1.2838 -0.5392 -0.0425
  507MOL0     C68373   1.071   5.796   1.231 -0.4070 -0.0298  0.2213
  507MOL0     C68374   1.046   5.768   1.371  0.6187  0.5788 -0.1439
  507MOL0     C68375   1.035   5.742   1.488 -0.0851  0.6923 -0.1395
  507MOL0     C68376   0.621   5.432   1.102 -0.0957  0.4658 -0.5541
  507MOL0     C68377   0.496   5.409   1.149 -0.0679  0.5091 -1.3104
  507MOL0     H68378   0.083   5.254   0.979  0.9256  0.1199  1.2648
  507MOL0     H68379  -0.149   5.125   0.994  3.7344 -1.8649 -0.0429
  507MOL0     H68380  -0.349   5.062   1.383 -1.0635 -2.9585  0.0056
  507MOL0     H68381  -0.389   5.213   1.290  0.8364 -0.6813 -1.2896
  507MOL0     H68382  -0.551   5.075   1.160 -1.7370  1.8122  1.0283
  507MOL0     H68383  -0.482   4.930   1.247 -0.6077 -0.4700 -0.1951
  507MOL0     H68384  -0.575   5.096   1.458 -2.7313  0.6773 -0.2599
  507MOL0     H68385  -0.651   5.167   1.329 -3.1086 -2.6011 -1.6235
  507MOL0     H68386  -0.770   4.992   1.279  1.1798 -1.6888 -0.2171
  507MOL0     H68387  -0.687   4.867   1.365 -3.4264 -0.2317 -6.3093
  507MOL0     H68388  -0.883   4.900   1.488 -1.8293  1.2010 -0.2745
  507MOL0     H68389  -0.749   4.973   1.587  0.4696  2.1260  0.4680
  507MOL0     H68390  -0.836   5.193   1.493  0.2315 -0.2565  0.9695
  507MOL0     H68391  -0.962   5.120   1.414  2.1066 -1.8886 -0.8122
  507MOL0     H68392  -1.032   5.235   1.627 -2.8157 -0.8744  2.0134
  507MOL0     H68393  -1.057   5.060   1.640  0.6572  0.3919 -0.9004
  507MOL0     H68394  -0.829   5.185   1.797 -0.4470  1.3719  2.3475
  507MOL0     H68395  -0.866   5.010   1.780  1.4991  0.1632  3.0894
  507MOL0     H68396  -1.109   5.337   1.821 -3.8977  0.1017  1.3895
  507MOL0     H68397  -1.345   5.309   2.065 -1.0513 -0.8452 -0.5703
  507MOL0     H68398  -1.228   5.300   2.186 -3.2887  1.4360  0.6111
  507MOL0     H68399  -1.232   5.488   1.946  0.1992 -2.8613  0.0660
  507MOL0     H68400  -1.090   5.478   2.061  0.0377 -2.7156 -0.5494
  507MOL0     H68401  -1.240   5.571   2.234  2.2625  2.9060  0.0846
  507MOL0     H68402  -1.375   5.556   2.108 -0.1603 -3.1940 -0.1210
  507MOL0     H68403  -1.293   5.733   1.979 -0.2713  2.3019 -0.0956
  507MOL0     H68404  -1.135   5.734   2.062  0.3376  2.4870  1.3963
  507MOL0     H68405  -1.365   6.009   2.318 -1.3258  0.5006  0.2121
  507MOL0     H68406  -1.392   6.341   2.310  0.7969 -0.1658 -1.1870
  507MOL0     H68407  -1.540   6.327   2.236  0.4216  0.9150 -1.2157
  507MOL0     H68408  -1.516   6.217   2.359 -1.6474 -0.5187 -1.8430
  507MOL0     H68409  -1.704   6.466   2.087 -1.7043  1.3122 -0.2690
  507MOL0     H68410  -1.830   6.653   2.088  0.0610 -1.2492  0.2113
  507MOL0     H68411  -1.924   6.976   1.987 -0.2216  0.1641 -0.6267
  507MOL0     H68412  -1.922   6.850   2.101  3.4658 -0.8913  1.1714
  507MOL0     H68413  -1.828   6.994   2.269 -1.5538 -5.4304 -2.9686
  507MOL0     H68414  -1.801   7.127   2.144 -2.9539  1.3489 -3.5133
  507MOL0     H68415  -2.069   7.047   2.278  4.2955 -1.8383  2.7612
  507MOL0     H68416  -2.060   7.122   2.114  2.4418 -0.6684 -2.0419
  507MOL0     H68417  -1.932   7.203   2.375 -1.4097 -0.7774  1.4004
  507MOL0     H68418  -1.928   7.307   2.239  1.7453  0.7184  3.5469
  507MOL0     H68419  -2.182   7.226   2.386  0.3935 -2.4776 -1.5476
  507MOL0     H68420  -2.178   7.289   2.221  1.1138  2.7316 -0.6468
  507MOL0     H68421  -2.092   7.447   2.465  0.1994  3.3743  0.6805
  507MOL0     H68422  -2.045   7.491   2.299  1.2970  0.4891  1.4181
  507MOL0     H68423  -2.331   7.439   2.363  0.9278 -0.7005 -0.2649
  507MOL0     H68424  -2.268   7.530   2.233 -0.4885  0.7962  0.4318
  507MOL0     H68425  -2.270   7.611   2.531  1.4503 -0.9067  0.4180
  507MOL0     H68426  -2.328   7.711   2.401 -1.0572 -0.6545 -0.2851
  507MOL0     H68427  -1.485   6.887   1.961 -1.4963  0.2938  1.4353
  507MOL0     H68428  -1.348   6.662   1.968  0.2900 -0.4786 -0.1384
  507MOL0     H68429  -1.287   6.144   1.854  1.6553 -3.7435 -0.8910
  507MOL0     H68430  -1.237   5.931   1.931 -0.2508 -0.7241 -0.0223
  507MOL0     H68431  -0.133   5.150   1.423  0.2708 -0.0950 -0.7445
  507MOL0     H68432   0.082   5.266   1.407 -1.0616 -1.2695  2.2988
  507MOL0     H68433   0.325   5.628   0.961  1.4281  1.8248  0.0097
  507MOL0     H68434   0.563   5.674   0.887  0.5060 -2.4593 -1.9491
  507MOL0     H68435   0.870   5.415   1.009  0.6375 -0.3633  0.5197
  507MOL0     H68436   0.958   5.543   0.913  1.0301  0.6267  1.2528
  507MOL0     H68437   1.054   5.547   1.131  1.4007  0.1013 -2.9280
  507MOL0     H68438   0.889   5.554   1.209 -2.4251 -1.2763 -2.1422
  507MOL0     H68439   0.875   5.790   1.165  2.2637  1.3712  0.0577
  507MOL0     H68440   0.998   5.791   1.037  3.0962  2.8750  2.1556
  507MOL0     H68441   1.086   5.904   1.229  3.2687 -0.3557  2.0465
  507MOL0     H68442   1.165   5.746   1.206  1.0305  2.4134  0.4208
  507MOL0     H68443   1.036   5.727   1.595  0.2951 -0.2977 -0.2681
  507MOL0     H68444   0.703   5.373   1.141 -0.9260  0.1961  0.8580
  507MOL0     H68445   0.472   5.332   1.223  0.2127  0.2366 -1.5016
  508MOL0     O68446   6.000  10.775  10.535  0.0183 -0.3211 -0.5917
  508MOL0     C68447   5.941  10.842  10.624  0.4510  0.6402 -0.5285
  508MOL0     O68448   5.963  10.815  10.759 -0.3928 -0.6697 -0.6398
  508MOL0     C68449   6.064  10.742  10.783 -0.0981  0.2861 -0.4818
  508MOL0     C68450   6.055  10.606  10.795  0.2886  1.1403 -0.8086
  508MOL0     C68451   6.175  10.522  10.820 -0.8475  0.4405  0.2892
  508MOL0     C68452   6.305  10.584  10.837  0.9375 -1.3533  0.0822
  508MOL0     O68453   6.420  10.523  10.849 -0.0300  0.2618 -0.0185
  508MOL0     C68454   6.456  10.416  10.765  0.8954 -0.0471  0.4096
  508MOL0     C68455   6.601  10.371  10.791 -0.2251 -1.1552  0.5735
  508MOL0     C68456   6.705  10.454  10.718  0.2774 -0.6026 -0.9348
  508MOL0     C68457   6.823  10.366  10.672  0.1069  0.3513 -0.2213
  508MOL0     C68458   6.927  10.346  10.782  0.3230 -0.8668  0.1324
  508MOL0     C68459   7.069  10.351  10.712  0.6141  0.0699 -0.2458
  508MOL0     C68460   7.175  10.341  10.824 -0.7735 -0.4142  0.7503
  508MOL0     C68461   7.309  10.279  10.765  0.5535  0.4085 -0.7255
  508MOL0     N68462   7.392  10.376  10.691  0.2863 -0.3857  0.5538
  508MOL0     C68463   7.526  10.357  10.687  0.3175 -0.2664  0.7684
  508MOL0     C68464   7.569  10.464  10.608 -0.6861 -0.0453 -0.0296
  508MOL0     C68465   7.713  10.497  10.562 -0.2421  0.6378  1.0602
  508MOL0     C68466   7.750  10.420  10.433 -0.9807 -0.8915 -0.5509
  508MOL0     C68467   7.775  10.277  10.455  0.3386  0.0334 -0.4285
  508MOL0     C68468   7.858  10.220  10.342 -0.3944 -0.1064  0.9930
  508MOL0     O68469   7.777  10.249  10.220  0.3553  0.1039 -0.6335
  508MOL0     C68470   7.840  10.237  10.109  0.2166 -0.2171  0.1313
  508MOL0     C68471   7.782  10.307  10.000  1.0075 -0.2865 -0.0890
  508MOL0     C68472   7.817  10.297   9.878  0.0184 -0.5559  0.2576
  508MOL0     C68473   7.731  10.363   9.771  0.4823  0.7307 -0.1111
  508MOL0     C68474   7.933  10.223   9.839  0.2307 -0.3603 -0.2768
  508MOL0     C68475   7.990  10.199   9.697  0.5539 -1.4007 -0.1833
  508MOL0     O68476   7.971  10.300   9.612 -0.7384  0.3235 -0.4047
  508MOL0     C68477   8.039  10.302   9.500  1.1674  0.9542 -0.6221
  508MOL0     C68478   7.976  10.301   9.381 -0.3538 -1.2631  0.2806
  508MOL0     C68479   8.036  10.322   9.259 -0.1446 -0.1032  0.4002
  508MOL0     C68480   8.174  10.349   9.253  0.4901  1.2130  0.7007
  508MOL0     O68481   8.251  10.391   9.141 -0.5090 -0.0928 -0.3460
  508MOL0     C68482   8.170  10.409   9.024 -0.3475 -1.3710 -0.2861
  508MOL0     C68483   8.243  10.445   8.895 -0.1947 -0.1950  0.4664
  508MOL0     C68484   8.385  10.382   8.881  0.9024 -0.2405 -0.8195
  508MOL0     C68485   8.488  10.457   8.792  0.0926 -0.1084 -0.1228
  508MOL0     C68486   8.622  10.378   8.788  0.1695  0.0151  0.6265
  508MOL0     C68487   8.717  10.459   8.706 -1.3189  1.1600  0.0001
  508MOL0     C68488   8.847  10.389   8.718 -0.4683 -0.1080 -0.2243
  508MOL0     C68489   8.942  10.459   8.626 -0.2709  0.3914  0.0850
  508MOL0    Cl68490   9.112  10.412   8.648 -0.2255 -0.1469  0.3099
  508MOL0     C68491   8.242  10.346   9.377 -0.3280  0.3956 -0.8056
  508MOL0     C68492   8.173  10.324   9.495  0.1394 -0.6218  0.7369
  508MOL0     O68493   8.060  10.102   9.672  0.1840 -0.8834  0.7340
  508MOL0     C68494   8.008  10.159   9.945  0.3182 -0.5989  0.5514
  508MOL0     C68495   7.961  10.164  10.076  0.5771 -1.4849 -0.1360
  508MOL0     N68496   7.461  10.542  10.583 -0.0908  0.4720  0.6328
  508MOL0     N68497   7.356  10.493  10.629  0.0612  0.1187 -0.4111
  508MOL0     C68498   6.316  10.723  10.834 -0.2349 -0.1185 -0.0395
  508MOL0     C68499   6.196  10.805  10.806 -0.4236  0.7912  0.3005
  508MOL0     C68500   5.832  10.936  10.591  0.1296 -0.1727 -0.7896
  508MOL0     C68501   5.814  10.976  10.463 -0.3245 -0.0455  0.3740
  508MOL0     C68502   5.706  11.049  10.422 -0.6071 -0.1285  0.2475
  508MOL0     C68503   5.622  11.102  10.526  0.4965 -0.5305  0.3650
  508MOL0     O68504   5.520  11.188  10.492 -0.2465 -0.0990  0.3643
  508MOL0     C68505   5.535  11.329  10.499 -0.2484 -0.8109  0.2107
  508MOL0     C68506   5.510  11.365  10.645 -0.5682 -1.6678  0.3147
  508MOL0     C68507   5.356  11.383  10.666 -0.5345  0.3471 -0.6186
  508MOL0     C68508   5.301  11.524  10.619 -0.1168 -0.4649  0.9907
  508MOL0     C68509   5.373  11.646  10.661 -0.1323  0.0061  1.2503
  508MOL0     C68510   5.441  11.741  10.668 -0.9368 -0.0779 -0.8461
  508MOL0     C68511   5.649  11.059  10.661  0.4026 -0.3094  0.6374
  508MOL0     C68512   5.755  10.980  10.684  0.8337  0.4891 -0.0548
  508MOL0     H68513   5.954  10.566  10.794  0.7866 -0.7243  3.4407
  508MOL0     H68514   6.155  10.415  10.822  1.6764 -0.1084 -0.3626
  508MOL0     H68515   6.392  10.329  10.780  2.2129 -1.5648 -2.1150
  508MOL0     H68516   6.444  10.433  10.658  1.7551 -1.9683 -0.0413
  508MOL0     H68517   6.620  10.366  10.898  1.0381 -2.1155  0.3203
  508MOL0     H68518   6.615  10.265  10.771 -3.2603 -1.8611  1.6882
  508MOL0     H68519   6.661  10.496  10.627 -0.5908  2.2231  0.6701
  508MOL0     H68520   6.731  10.533  10.788 -1.4030  0.1815 -1.1585
  508MOL0     H68521   6.788  10.273  10.627 -0.6087  0.7876 -0.5921
  508MOL0     H68522   6.864  10.417  10.584  1.1833  0.7299  0.4748
  508MOL0     H68523   6.914  10.421  10.861 -3.6676 -2.2019  0.9984
  508MOL0     H68524   6.909  10.249  10.830 -0.6474 -0.7674 -0.0000
  508MOL0     H68525   7.063  10.267  10.642  1.9451  0.3387 -0.7262
  508MOL0     H68526   7.086  10.442  10.653 -1.0143  0.4932 -0.1047
  508MOL0     H68527   7.190  10.442  10.863 -0.7990  0.3405 -1.1139
  508MOL0     H68528   7.139  10.281  10.908  1.0790 -0.5679  1.4715
  508MOL0     H68529   7.278  10.196  10.700  0.4322 -0.1197 -0.0081
  508MOL0     H68530   7.371  10.236  10.844  2.2695  2.4258 -0.8832
  508MOL0     H68531   7.573  10.266  10.721 -1.0296 -1.6188 -0.7892
  508MOL0     H68532   7.720  10.604  10.539 -0.8574  0.0351 -2.5294
  508MOL0     H68533   7.787  10.470  10.639 -1.8110 -0.9940  2.0621
  508MOL0     H68534   7.834  10.476  10.391  0.1684 -1.9934  0.2050
  508MOL0     H68535   7.669  10.426  10.360 -2.7140  2.1610  1.3959
  508MOL0     H68536   7.677  10.230  10.467 -0.6784  1.3398 -2.9472
  508MOL0     H68537   7.834  10.261  10.546  2.8433 -0.3695 -2.0516
  508MOL0     H68538   7.875  10.114  10.360 -1.6986 -1.2200 -3.1515
  508MOL0     H68539   7.958  10.264  10.334 -0.9849  0.9791 -1.3496
  508MOL0     H68540   7.690  10.360  10.024  1.4990 -0.5681  2.7701
  508MOL0     H68541   7.724  10.307   9.677 -1.9677  1.1401 -0.2309
  508MOL0     H68542   7.632  10.344   9.814  0.3344 -2.5030 -1.5329
  508MOL0     H68543   7.761  10.467   9.754  4.0546  0.3123  2.3719
  508MOL0     H68544   7.868  10.291   9.376 -0.4795  0.4773 -2.1794
  508MOL0     H68545   7.973  10.330   9.171  1.6304  3.6444 -0.7438
  508MOL0     H68546   8.124  10.313   9.002 -0.0830 -1.2009 -1.6956
  508MOL0     H68547   8.096  10.486   9.047  0.3834 -0.8170  0.3019
  508MOL0     H68548   8.175  10.414   8.815 -0.9302 -0.6814  1.2732
  508MOL0     H68549   8.256  10.553   8.891  1.2246 -0.3776 -2.1954
  508MOL0     H68550   8.375  10.278   8.848  1.1642  0.0700 -1.9373
  508MOL0     H68551   8.425  10.360   8.980 -3.4155 -0.4779  1.0604
  508MOL0     H68552   8.438  10.470   8.695  2.4332 -0.0527 -1.4060
  508MOL0     H68553   8.503  10.557   8.835  2.0720 -0.4482  0.0831
  508MOL0     H68554   8.595  10.284   8.739 -1.2701  0.5257  0.4070
  508MOL0     H68555   8.637  10.368   8.896  0.1000 -0.0051  0.6343
  508MOL0     H68556   8.676  10.484   8.608 -0.7081  1.4075 -0.1985
  508MOL0     H68557   8.739  10.551   8.761  1.3622  1.0829 -0.8203
  508MOL0     H68558   8.845  10.283   8.689 -1.0691 -0.3358  0.6228
  508MOL0     H68559   8.884  10.381   8.820 -3.4540 -0.1387  0.9550
  508MOL0     H68560   8.924  10.566   8.636  1.7248  0.5968  2.1885
  508MOL0     H68561   8.909  10.433   8.525  0.3923 -2.1308  0.4448
  508MOL0     H68562   8.347  10.372   9.389 -0.3629  0.2928 -0.2307
  508MOL0     H68563   8.235  10.326   9.584  1.0012 -2.4316  0.2106
  508MOL0     H68564   8.094  10.099   9.918 -0.2386 -1.6234  0.9924
  508MOL0     H68565   8.013  10.104  10.150  0.1703 -1.0713  0.4935
  508MOL0     H68566   6.409  10.775  10.854 -0.2303  0.5647 -1.6881
  508MOL0     H68567   6.201  10.913  10.804 -0.4236  0.7854 -0.0207
  508MOL0     H68568   5.885  10.938  10.390  0.7603  2.2377  0.1533
  508MOL0     H68569   5.694  11.079  10.319  2.1766  1.7801  0.3482
  508MOL0     H68570   5.635  11.356  10.464  0.6168  0.9226  3.6107
  508MOL0     H68571   5.450  11.362  10.438 -0.3855 -0.8470  0.3807
  508MOL0     H68572   5.550  11.464  10.668 -2.7817 -0.6337 -0.0228
  508MOL0     H68573   5.534  11.291  10.722  0.7105  0.1826  1.7875
  508MOL0     H68574   5.340  11.360  10.772 -3.3138  0.1226 -1.0241
  508MOL0     H68575   5.291  11.311  10.616  0.1277  0.5073 -1.7548
  508MOL0     H68576   5.198  11.520  10.655  0.2982 -3.0345  2.0733
  508MOL0     H68577   5.306  11.529  10.510  1.6830 -3.4886  0.8214
  508MOL0     H68578   5.489  11.836  10.659  1.4321 -1.0773  0.4807
  508MOL0     H68579   5.594  11.094  10.748 -1.5282 -0.6953 -0.3846
  508MOL0     H68580   5.786  10.966  10.786 -2.2358 -1.9615  0.6971
  509MOL0     O68581   1.292   6.352  10.882 -0.4632  0.2845 -0.1901
  509MOL0     C68582   1.183   6.378  10.855 -0.5723 -0.7972  0.1416
  509MOL0     O68583   1.079   6.289  10.857  0.7232  0.0641  0.6269
  509MOL0     C68584   1.108   6.169  10.902  0.9610  0.5608  0.1433
  509MOL0     C68585   1.136   6.063  10.812 -0.4861 -0.2572 -0.0552
  509MOL0     C68586   1.161   5.942  10.874  0.1552 -0.0180  0.2332
  509MOL0     C68587   1.161   5.919  11.012 -0.3191  0.4221 -0.3792
  509MOL0     O68588   1.175   5.791  11.060  0.4466  0.5260  0.6604
  509MOL0     C68589   1.042   5.734  11.055 -0.7293  0.6911  0.0002
  509MOL0     C68590   1.054   5.600  11.139 -0.6158 -0.7491 -0.0675
  509MOL0     C68591   1.130   5.500  11.059 -0.0665  0.8744  0.8396
  509MOL0     C68592   1.135   5.368  11.138  0.4587 -0.2740 -0.0744
  509MOL0     C68593   1.190   5.250  11.061 -0.1738 -0.8800  0.2696
  509MOL0     C68594   1.120   5.227  10.930 -0.2787  0.0971  0.1611
  509MOL0     C68595   0.964   5.210  10.945  0.3544  0.0410 -0.7379
  509MOL0     C68596   0.907   5.082  11.009 -0.0513  0.8759  0.3006
  509MOL0     N68597   0.851   4.976  10.929  0.3531 -0.2391  0.3819
  509MOL0     C68598   0.904   4.855  10.918  0.3992 -0.6711 -0.1041
  509MOL0     C68599   0.814   4.799  10.836  0.5221  0.4385  0.2988
  509MOL0     C68600   0.833   4.659  10.780  0.2752  0.1921 -0.8734
  509MOL0     C68601   0.827   4.550  10.896  0.2829 -0.0461 -0.7248
  509MOL0     C68602   0.882   4.419  10.828 -0.5711 -0.5460 -0.0377
  509MOL0     C68603   0.882   4.288  10.910 -0.1832 -0.1158  0.7705
  509MOL0     O68604   0.803   4.183  10.855 -0.4375  0.3034  0.1523
  509MOL0     C68605   0.677   4.169  10.900  0.5195  0.6432  0.5362
  509MOL0     C68606   0.667   4.073  10.997  0.6466 -0.8658 -0.6524
  509MOL0     C68607   0.540   4.042  11.046 -0.6174  1.2135 -0.4029
  509MOL0     C68608   0.541   3.912  11.136 -0.2741  0.0361  0.6342
  509MOL0     C68609   0.419   4.111  10.998 -0.6871  0.0636 -0.3865
  509MOL0     C68610   0.279   4.098  11.042 -0.5976 -0.2855  0.4883
  509MOL0     O68611   0.178   4.170  10.981 -0.4384  0.5360 -0.5713
  509MOL0     C68612   0.058   4.174  11.046  0.1746  0.3547  0.2852
  509MOL0     C68613  -0.056   4.112  10.998 -0.3179  0.1272 -0.5255
  509MOL0     C68614  -0.179   4.116  11.062  0.1408 -0.1105  0.4143
  509MOL0     C68615  -0.200   4.198  11.176  0.1621  0.0733 -0.0644
  509MOL0     O68616  -0.325   4.193  11.235  0.3304  0.3601 -0.5415
  509MOL0     C68617  -0.352   4.277  11.350  0.1375  0.0488  0.1165
  509MOL0     C68618  -0.508   4.260  11.387 -0.3496 -0.7336  1.1133
  509MOL0     C68619  -0.538   4.104  11.414  0.6206 -1.8708  0.5389
  509MOL0     C68620  -0.674   4.078  11.485 -0.0163 -0.1039  0.5168
  509MOL0     C68621  -0.678   3.924  11.511  0.0026  0.4024  0.3721
  509MOL0     C68622  -0.590   3.873  11.623  0.8097 -0.2581  0.8712
  509MOL0     C68623  -0.649   3.741  11.688  0.4333 -0.7119 -0.2650
  509MOL0     C68624  -0.687   3.625  11.590  0.6126  1.2635 -0.5371
  509MOL0    Cl68625  -0.548   3.555  11.491  0.3621  0.2434  0.0618
  509MOL0     C68626  -0.092   4.257  11.227 -0.6213  0.0096  0.0594
  509MOL0     C68627   0.040   4.245  11.160 -0.0631 -0.4930 -0.4029
  509MOL0     O68628   0.258   4.027  11.136 -0.7883  1.3811 -0.1673
  509MOL0     C68629   0.441   4.212  10.897 -0.4581 -0.9336 -0.2988
  509MOL0     C68630   0.565   4.240  10.845 -0.7509  0.2353 -0.4981
  509MOL0     N68631   0.705   4.878  10.815  0.3822  0.0447  0.4364
  509MOL0     N68632   0.729   4.991  10.866 -0.7125 -0.1751  0.1627
  509MOL0     C68633   1.101   6.016  11.089 -0.3061 -0.5888 -0.5570
  509MOL0     C68634   1.070   6.144  11.036  0.4700  0.0971 -0.1329
  509MOL0     C68635   1.155   6.515  10.815  0.8153 -0.4838  0.3691
  509MOL0     C68636   1.249   6.623  10.826  0.8622  1.3838 -0.2836
  509MOL0     C68637   1.224   6.750  10.770 -0.0049 -0.1576  0.8289
  509MOL0     C68638   1.115   6.776  10.688  0.3398 -0.4621  0.3953
  509MOL0     O68639   1.086   6.892  10.619 -0.3132  0.2700  0.1032
  509MOL0     C68640   1.179   6.997  10.617 -0.6721 -0.7446  1.3037
  509MOL0     C68641   1.128   7.088  10.501 -0.2296  0.7347  0.9414
  509MOL0     C68642   1.231   7.207  10.479 -0.7518 -0.6675  1.1638
  509MOL0     C68643   1.205   7.302  10.356  0.0340 -0.0034  0.2946
  509MOL0     C68644   1.192   7.225  10.236 -0.4659  0.2200 -0.8821
  509MOL0     C68645   1.163   7.164  10.139 -0.7936 -0.2928  0.3286
  509MOL0     C68646   1.014   6.683  10.684 -0.8935  0.4976  1.3521
  509MOL0     C68647   1.034   6.552  10.744  0.6271 -0.8937  0.3695
  509MOL0     H68648   1.151   6.070  10.704 -0.0771 -2.4279 -0.1915
  509MOL0     H68649   1.194   5.868  10.802 -3.0395 -1.2682 -0.1494
  509MOL0     H68650   0.965   5.796  11.102 -0.5027  1.1600 -0.2469
  509MOL0     H68651   1.014   5.714  10.951  1.7277  0.7818 -0.7539
  509MOL0     H68652   1.107   5.621  11.233 -1.9497 -2.6416  1.1781
  509MOL0     H68653   0.952   5.569  11.164 -1.3744  1.3234 -0.3925
  509MOL0     H68654   1.094   5.493  10.956 -0.6159 -1.2881  1.1262
  509MOL0     H68655   1.233   5.535  11.048  0.9529 -1.9624  0.5370
  509MOL0     H68656   1.194   5.387  11.228  0.0840  0.9896 -0.0744
  509MOL0     H68657   1.036   5.351  11.181 -0.1188  2.2328 -0.2360
  509MOL0     H68658   1.296   5.257  11.037 -0.5895 -0.8940 -1.7019
  509MOL0     H68659   1.166   5.165  11.125  1.6281  0.8192  3.4666
  509MOL0     H68660   1.144   5.299  10.851 -0.0437  0.0037  0.1479
  509MOL0     H68661   1.171   5.136  10.898 -0.8867  0.6407 -2.6533
  509MOL0     H68662   0.926   5.288  11.011  2.4872  1.1404 -0.6973
  509MOL0     H68663   0.915   5.233  10.850 -1.8741 -0.0290  0.3353
  509MOL0     H68664   0.823   5.123  11.066 -0.3417  0.3243  0.2848
  509MOL0     H68665   0.974   5.048  11.088 -4.1581 -2.0313  2.9816
  509MOL0     H68666   0.989   4.806  10.963 -0.3334  1.0388  3.4983
  509MOL0     H68667   0.760   4.636  10.701 -1.6465  3.7894 -0.3744
  509MOL0     H68668   0.933   4.664  10.738 -0.3904  2.4357 -2.3849
  509MOL0     H68669   0.723   4.541  10.929  0.5233  0.1565  0.1080
  509MOL0     H68670   0.891   4.584  10.978  1.8412  0.2970 -2.0163
  509MOL0     H68671   0.979   4.437  10.781 -1.0625 -0.2441 -0.9651
  509MOL0     H68672   0.812   4.396  10.748 -2.1407 -0.9206  1.3924
  509MOL0     H68673   0.836   4.308  11.007 -2.0227 -1.4917  0.2266
  509MOL0     H68674   0.983   4.253  10.931 -1.1367 -2.6752  1.4647
  509MOL0     H68675   0.757   4.024  11.031  1.8467  1.1587 -0.7656
  509MOL0     H68676   0.642   3.888  11.169 -1.0287 -2.3978  1.4720
  509MOL0     H68677   0.478   3.908  11.226 -1.7583 -1.9374 -0.3821
  509MOL0     H68678   0.504   3.829  11.074 -2.0056  2.8512 -2.4292
  509MOL0     H68679  -0.049   4.041  10.916  0.1202 -3.7566  2.6120
  509MOL0     H68680  -0.252   4.056  11.009 -0.2475  0.1914  0.6101
  509MOL0     H68681  -0.297   4.262  11.443 -2.7815 -1.9800  1.6728
  509MOL0     H68682  -0.327   4.378  11.316  0.7041  1.1105  3.3848
  509MOL0     H68683  -0.533   4.331  11.466  1.0936  1.6382 -0.4494
  509MOL0     H68684  -0.567   4.287  11.299  1.0789 -2.9890 -0.6522
  509MOL0     H68685  -0.458   4.058  11.474  1.9082 -3.5962 -2.3168
  509MOL0     H68686  -0.543   4.047  11.321 -2.2194 -3.4435  1.5405
  509MOL0     H68687  -0.690   4.131  11.580 -0.6108  0.6171  0.0272
  509MOL0     H68688  -0.754   4.109  11.417 -0.5519  2.0936  2.0053
  509MOL0     H68689  -0.666   3.868  11.418  2.7779  1.5010 -0.0342
  509MOL0     H68690  -0.781   3.910  11.546  0.5497  1.8481  2.7877
  509MOL0     H68691  -0.491   3.845  11.586  0.2567  0.0337 -0.9251
  509MOL0     H68692  -0.570   3.952  11.695  1.6325  0.4655 -0.1289
  509MOL0     H68693  -0.734   3.765  11.752  2.0262  2.3947  0.8580
  509MOL0     H68694  -0.571   3.697  11.751 -1.4435 -1.1182  1.9175
  509MOL0     H68695  -0.769   3.658  11.526 -0.6827  2.0894  1.4362
  509MOL0     H68696  -0.736   3.557  11.660  0.3605  0.9159 -1.0444
  509MOL0     H68697  -0.097   4.323  11.313 -2.0448  1.5607 -1.1412
  509MOL0     H68698   0.128   4.296  11.197  0.0180 -1.3828  0.6946
  509MOL0     H68699   0.360   4.267  10.849  0.7359 -0.0820 -1.3984
  509MOL0     H68700   0.591   4.307  10.765 -0.7513 -1.9796 -2.4639
  509MOL0     H68701   1.071   5.988  11.189 -0.9769  2.7699  0.3072
  509MOL0     H68702   1.050   6.230  11.100  2.5786  1.2905 -0.9852
  509MOL0     H68703   1.350   6.610  10.865  0.4492 -1.5086  0.0363
  509MOL0     H68704   1.299   6.828  10.778  1.9401 -2.0409  1.9325
  509MOL0     H68705   1.186   7.054  10.711 -2.2837  0.8144  0.5394
  509MOL0     H68706   1.280   6.966  10.587  0.0307  0.4150  2.3257
  509MOL0     H68707   1.023   7.119  10.508 -1.3030 -2.7420  2.7638
  509MOL0     H68708   1.146   7.025  10.413  0.7034 -0.4093  1.9193
  509MOL0     H68709   1.322   7.156  10.446 -0.1091  2.2747 -2.2858
  509MOL0     H68710   1.253   7.262  10.571  1.4627 -2.0867  1.5529
  509MOL0     H68711   1.291   7.369  10.347 -1.5977  2.1991  0.2882
  509MOL0     H68712   1.110   7.355  10.353  1.3137  2.4219 -0.0610
  509MOL0     H68713   1.140   7.108  10.050 -5.6341  0.3540  0.9259
  509MOL0     H68714   0.921   6.709  10.635 -0.5994  1.8023  1.4423
  509MOL0     H68715   0.945   6.492  10.727 -2.5922  3.5929 -0.4300
  510MOL0     O68716  10.837   1.667   8.364  1.0058 -0.5677 -0.0946
  510MOL0     C68717  10.837   1.597   8.262 -0.9587  1.2458  1.0341
  510MOL0     O68718  10.741   1.579   8.177 -0.0254  0.6153  0.0177
  510MOL0     C68719  10.628   1.658   8.185 -0.2155 -0.3593  0.0147
  510MOL0     C68720  10.509   1.600   8.203 -0.2159 -0.0600  0.0903
  510MOL0     C68721  10.383   1.678   8.188 -0.4474 -0.2672 -0.0558
  510MOL0     C68722  10.402   1.815   8.140  0.4509  0.1878  0.2763
  510MOL0     O68723  10.300   1.908   8.133 -0.2764  0.2055  0.7206
  510MOL0     C68724  10.172   1.866   8.080  0.0317 -0.0652 -0.7251
  510MOL0     C68725  10.114   1.989   8.000  0.6143  0.1284  0.2789
  510MOL0     C68726  10.191   2.003   7.868  0.4268 -0.3929  0.0058
  510MOL0     C68727  10.124   2.122   7.786 -0.5131  0.7134 -0.5552
  510MOL0     C68728  10.134   2.268   7.842 -1.0572  0.1054  1.0076
  510MOL0     C68729  10.282   2.323   7.841  0.8513 -0.1010 -0.8197
  510MOL0     C68730  10.289   2.477   7.876 -0.2956 -0.2683  0.5590
  510MOL0     C68731  10.168   2.565   7.846  0.0185  0.6793 -0.3391
  510MOL0     N68732  10.201   2.705   7.843 -0.7005 -0.4796 -0.0704
  510MOL0     C68733  10.286   2.765   7.759 -0.7708  0.1888  0.6359
  510MOL0     C68734  10.290   2.901   7.789  0.2985 -0.0429  0.1137
  510MOL0     C68735  10.343   3.027   7.717  0.3989  0.2301 -0.2855
  510MOL0     C68736  10.253   3.153   7.750 -0.3376 -1.2353 -0.4298
  510MOL0     C68737  10.126   3.156   7.675  0.2847  0.2248  0.1881
  510MOL0     C68738  10.031   3.268   7.709  0.4644  0.2665  0.3805
  510MOL0     O68739   9.906   3.205   7.694 -0.0334  0.0137 -0.1396
  510MOL0     C68740   9.798   3.292   7.669 -0.9282  0.3282 -0.0822
  510MOL0     C68741   9.691   3.249   7.599  0.2453 -0.0762  0.6409
  510MOL0     C68742   9.567   3.324   7.571 -0.1607 -0.1080 -0.6793
  510MOL0     C68743   9.451   3.260   7.472  0.5554  0.3932  0.4956
  510MOL0     C68744   9.570   3.459   7.620  0.7259  1.2025  0.4047
  510MOL0     C68745   9.470   3.566   7.587  1.2788 -0.0379  0.8902
  510MOL0     O68746   9.490   3.692   7.634 -0.4058 -0.4718  0.3665
  510MOL0     C68747   9.413   3.802   7.595 -0.1125 -0.6263  1.1145
  510MOL0     C68748   9.415   3.917   7.682  0.1394  0.0080  0.2632
  510MOL0     C68749   9.341   4.031   7.651  0.3751 -0.1703  0.3786
  510MOL0     C68750   9.255   4.037   7.536 -0.2954 -1.2689 -0.0567
  510MOL0     O68751   9.171   4.146   7.517  0.3065  0.4592 -0.1297
  510MOL0     C68752   9.145   4.183   7.382 -0.5636  0.2226  0.1346
  510MOL0     C68753   9.046   4.292   7.375 -0.3751 -0.7614  0.0516
  510MOL0     C68754   9.063   4.369   7.253 -0.2703 -0.2835  0.2229
  510MOL0     C68755   8.927   4.448   7.230 -0.4972 -0.8587  0.2736
  510MOL0     C68756   8.956   4.559   7.127  0.6737 -0.1870 -0.4551
  510MOL0     C68757   8.825   4.629   7.077  0.1585 -0.0412  0.0992
  510MOL0     C68758   8.846   4.751   6.987 -0.2269  0.0395 -0.3432
  510MOL0     C68759   8.719   4.817   6.930 -0.2006  0.7235 -0.1159
  510MOL0    Cl68760   8.783   4.919   6.795  0.2409 -0.1008 -0.1935
  510MOL0     C68761   9.262   3.930   7.448 -0.3507 -0.0729  0.1378
  510MOL0     C68762   9.339   3.815   7.478 -0.1161  0.1837  0.5590
  510MOL0     O68763   9.371   3.535   7.522  0.0804 -0.4358  0.3163
  510MOL0     C68764   9.682   3.502   7.692  0.7507 -0.4517 -0.1563
  510MOL0     C68765   9.791   3.419   7.715 -0.1539 -0.8003 -0.3747
  510MOL0     N68766  10.221   2.912   7.911 -0.6024  0.5517 -0.3154
  510MOL0     N68767  10.161   2.799   7.932  0.2267 -0.1662 -0.3075
  510MOL0     C68768  10.528   1.864   8.114  0.4209  0.4473  0.4932
  510MOL0     C68769  10.643   1.787   8.135  0.2505  0.1098 -0.1838
  510MOL0     C68770  10.957   1.500   8.253  0.6190 -0.5197 -0.3144
  510MOL0     C68771  11.068   1.517   8.350  0.1084 -0.5732 -0.6008
  510MOL0     C68772  11.175   1.417   8.335 -0.4275 -1.1947 -0.1861
  510MOL0     C68773  11.171   1.322   8.231  0.2190 -0.6068  0.3660
  510MOL0     O68774  11.273   1.238   8.232 -0.3183  0.7293 -0.7985
  510MOL0     C68775  11.254   1.103   8.283  0.7282  0.2164 -0.4344
  510MOL0     C68776  11.248   1.106   8.432 -0.2555  0.2226  0.3584
  510MOL0     C68777  11.386   1.141   8.486 -0.8039 -0.0188  0.1829
  510MOL0     C68778  11.373   1.168   8.630 -0.0507 -0.6902 -0.1742
  510MOL0     C68779  11.504   1.177   8.697 -0.0598  0.0609 -0.6886
  510MOL0     C68780  11.588   1.189   8.781 -0.8482  0.3480 -0.2357
  510MOL0     C68781  11.062   1.317   8.147 -0.0132 -0.7874  0.4499
  510MOL0     C68782  10.952   1.399   8.155  0.3256  0.0571 -0.1938
  510MOL0     H68783  10.505   1.498   8.239  1.3893  0.3031  1.3872
  510MOL0     H68784  10.283   1.647   8.218 -0.8593  1.2252  0.2109
  510MOL0     H68785  10.171   1.778   8.014 -4.7125 -3.2332  2.9015
  510MOL0     H68786  10.119   1.851   8.175  3.9536 -1.5183  1.4623
  510MOL0     H68787  10.008   1.978   7.975  0.6890  1.8039 -0.8939
  510MOL0     H68788  10.140   2.078   8.058 -0.3358  1.6011 -1.4517
  510MOL0     H68789  10.299   2.006   7.885  0.8284 -0.3624 -2.2585
  510MOL0     H68790  10.180   1.908   7.814  0.1115 -0.5868  0.4018
  510MOL0     H68791  10.173   2.124   7.688  1.0663 -2.4959  0.0110
  510MOL0     H68792  10.018   2.097   7.778 -1.2247  1.9693  3.0255
  510MOL0     H68793  10.076   2.333   7.777  2.0067  1.3321 -0.7306
  510MOL0     H68794  10.089   2.280   7.941 -2.2177  3.4524  0.2103
  510MOL0     H68795  10.352   2.269   7.905  1.2759  0.4915 -0.7833
  510MOL0     H68796  10.314   2.313   7.737 -0.0780 -0.1545 -1.1145
  510MOL0     H68797  10.296   2.489   7.984 -0.5463  0.5942  0.4909
  510MOL0     H68798  10.383   2.510   7.830 -0.0035 -0.3154  1.1120
  510MOL0     H68799  10.085   2.544   7.914 -0.1677 -2.2891 -1.3433
  510MOL0     H68800  10.136   2.552   7.742 -2.8732 -2.4614  0.7462
  510MOL0     H68801  10.335   2.732   7.668 -0.0098  2.6476  0.0640
  510MOL0     H68802  10.448   3.039   7.746  0.9262  1.0522 -2.2891
  510MOL0     H68803  10.355   3.019   7.608  1.8294  2.6776 -0.3913
  510MOL0     H68804  10.301   3.246   7.719  2.3984 -2.5408 -0.3268
  510MOL0     H68805  10.234   3.157   7.857  1.7732 -1.8318 -0.0020
  510MOL0     H68806  10.079   3.060   7.696  0.9149 -0.6696 -2.1538
  510MOL0     H68807  10.149   3.154   7.568 -0.5016 -1.0983  0.0316
  510MOL0     H68808  10.026   3.349   7.636 -1.7954  0.1374  0.3416
  510MOL0     H68809  10.042   3.307   7.811 -1.8798 -1.3818  1.3480
  510MOL0     H68810   9.682   3.147   7.562 -1.6065  0.6045 -0.9691
  510MOL0     H68811   9.352   3.298   7.499  0.0279 -1.0867  0.7037
  510MOL0     H68812   9.471   3.291   7.369 -5.3097  2.1556 -0.4697
  510MOL0     H68813   9.435   3.152   7.474 -0.8646  0.5322 -0.8687
  510MOL0     H68814   9.485   3.928   7.765  0.1602  0.5788  0.1749
  510MOL0     H68815   9.353   4.131   7.691  0.7382 -0.3421  0.7084
  510MOL0     H68816   9.240   4.218   7.342 -0.1755  0.8602  1.5462
  510MOL0     H68817   9.111   4.096   7.325  2.9710 -0.8926 -0.4742
  510MOL0     H68818   8.943   4.252   7.375  0.4080 -3.0667 -1.9278
  510MOL0     H68819   9.057   4.356   7.462 -3.3306 -1.4109  1.0171
  510MOL0     H68820   9.098   4.312   7.166  2.4960  3.9281 -1.7648
  510MOL0     H68821   9.138   4.445   7.273 -1.4788  0.4012  2.4444
  510MOL0     H68822   8.856   4.378   7.187  0.2589 -0.7438 -1.2393
  510MOL0     H68823   8.887   4.497   7.319 -1.4238  2.3593 -1.7276
  510MOL0     H68824   9.002   4.493   7.053  1.4766  0.0228 -0.1567
  510MOL0     H68825   9.032   4.631   7.157 -0.0663  0.0264  1.0134
  510MOL0     H68826   8.756   4.559   7.030  4.0656 -2.7098 -2.2518
  510MOL0     H68827   8.783   4.665   7.172 -0.5535 -0.2230 -0.1431
  510MOL0     H68828   8.910   4.704   6.912  2.8190  0.1983  1.9883
  510MOL0     H68829   8.903   4.831   7.035 -0.2656 -1.1134  1.7366
  510MOL0     H68830   8.667   4.876   7.006  0.8540  0.6499  0.6789
  510MOL0     H68831   8.650   4.739   6.897 -1.7759  3.1180 -2.8642
  510MOL0     H68832   9.226   3.928   7.346  4.4843  0.0269 -1.8369
  510MOL0     H68833   9.345   3.731   7.409  0.2340  2.0145 -1.7616
  510MOL0     H68834   9.687   3.600   7.739  1.6478 -0.0284 -1.0981
  510MOL0     H68835   9.860   3.443   7.795 -0.2765  0.3512 -0.6020
  510MOL0     H68836  10.529   1.959   8.061 -0.3741 -0.7446 -1.7977
  510MOL0     H68837  10.742   1.817   8.101 -0.2556 -0.1927 -2.0302
  510MOL0     H68838  11.078   1.598   8.420  1.8351 -2.1678  1.1274
  510MOL0     H68839  11.263   1.416   8.399 -1.7014 -0.7756  1.6465
  510MOL0     H68840  11.160   1.063   8.244 -0.1401  1.9515 -0.2099
  510MOL0     H68841  11.333   1.035   8.251  0.2626 -1.0861  1.0196
  510MOL0     H68842  11.215   1.010   8.473  1.7658 -0.3708  0.7093
  510MOL0     H68843  11.182   1.189   8.459 -1.5209  0.9369 -4.1936
  510MOL0     H68844  11.434   1.228   8.442  1.0822 -0.3471  1.4773
  510MOL0     H68845  11.454   1.061   8.454  0.4944  0.9661  0.3647
  510MOL0     H68846  11.313   1.090   8.679  2.0573 -2.2835  0.0536
  510MOL0     H68847  11.320   1.262   8.645  1.3003 -0.2390  2.3762
  510MOL0     H68848  11.667   1.207   8.851 -0.8978 -4.7139  1.4972
  510MOL0     H68849  11.064   1.235   8.076 -2.6659 -0.9510  0.4400
  510MOL0     H68850  10.880   1.390   8.073  0.7849 -0.0703 -0.5879
  511MOL0     O68851   0.271   0.344   1.648 -1.0359 -0.3129 -0.0430
  511MOL0     C68852   0.235   0.443   1.579  0.2669 -1.1433 -0.7003
  511MOL0     O68853   0.260   0.465   1.457  0.5064  0.0525  0.3576
  511MOL0     C68854   0.383   0.413   1.423 -0.2741  0.1516  0.6146
  511MOL0     C68855   0.496   0.423   1.509  0.8377  0.7608  0.1037
  511MOL0     C68856   0.613   0.359   1.483  0.4779 -0.3041 -0.1171
  511MOL0     C68857   0.637   0.290   1.370  0.3055  0.0615 -0.1546
  511MOL0     O68858   0.750   0.219   1.360  0.2715 -0.0669  0.0186
  511MOL0     C68859   0.753   0.101   1.268 -0.5767  0.3199 -0.3085
  511MOL0     C68860   0.883   0.031   1.286  0.0050  0.7739  0.9093
  511MOL0     C68861   0.863  -0.118   1.282  0.6214  0.2921  0.2852
  511MOL0     C68862   0.992  -0.200   1.278  0.5365 -0.0733 -0.7964
  511MOL0     C68863   0.982  -0.354   1.284  0.2560  0.3184  0.8292
  511MOL0     C68864   0.890  -0.418   1.177 -0.0602  0.7327 -1.0130
  511MOL0     C68865   0.851  -0.572   1.210 -0.7770 -0.8995 -0.1980
  511MOL0     C68866   0.952  -0.670   1.141  0.3512 -0.7405  0.2787
  511MOL0     N68867   0.902  -0.808   1.119 -0.1790  0.1587 -0.7052
  511MOL0     C68868   0.831  -0.864   1.019  0.1026 -0.2957 -0.3335
  511MOL0     C68869   0.800  -0.991   1.054 -0.2108 -0.3443  0.1484
  511MOL0     C68870   0.714  -1.082   0.972  0.2483 -0.9139  1.1277
  511MOL0     C68871   0.723  -1.071   0.817  0.4916  0.4674  0.3969
  511MOL0     C68872   0.870  -1.091   0.773  0.0412 -0.1131 -0.5363
  511MOL0     C68873   0.870  -1.151   0.636  0.6948 -0.7082 -0.6980
  511MOL0     O68874   0.813  -1.283   0.637 -0.1069 -0.2604  0.8789
  511MOL0     C68875   0.907  -1.384   0.646 -0.8899 -0.2557  0.4743
  511MOL0     C68876   0.993  -1.408   0.541 -0.2474 -0.9587 -0.1601
  511MOL0     C68877   1.075  -1.524   0.544 -1.0235  0.2907  0.0813
  511MOL0     C68878   1.174  -1.533   0.435 -0.5735  0.9658 -0.2818
  511MOL0     C68879   1.060  -1.620   0.646  0.4451 -0.2324  0.2189
  511MOL0     C68880   1.107  -1.758   0.645 -0.3358 -0.3572 -0.0967
  511MOL0     O68881   1.097  -1.825   0.758  0.9010 -0.3554  0.8822
  511MOL0     C68882   1.168  -1.939   0.792  0.1167  0.0315  0.6298
  511MOL0     C68883   1.164  -2.048   0.710  0.2101  0.4619  0.5815
  511MOL0     C68884   1.223  -2.173   0.746 -0.1997 -0.1767  0.0637
  511MOL0     C68885   1.300  -2.180   0.872 -0.4426 -0.7268 -0.3060
  511MOL0     O68886   1.362  -2.296   0.907 -0.1856  0.3172  0.0523
  511MOL0     C68887   1.505  -2.300   0.931  0.4839 -0.0040  0.4504
  511MOL0     C68888   1.542  -2.434   0.990  1.1142  0.3440 -0.2205
  511MOL0     C68889   1.625  -2.524   0.895 -0.0922  0.1411 -0.0061
  511MOL0     C68890   1.547  -2.588   0.784  0.1122  0.1473 -0.4427
  511MOL0     C68891   1.628  -2.675   0.695 -1.4484  0.1119  0.4607
  511MOL0     C68892   1.552  -2.743   0.586  0.0660  0.4381  0.3302
  511MOL0     C68893   1.636  -2.844   0.500 -0.0987  0.7933  0.4705
  511MOL0     C68894   1.566  -2.949   0.413 -1.4569 -0.0949 -0.4424
  511MOL0    Cl68895   1.453  -2.861   0.312 -0.2528  0.4069  0.6082
  511MOL0     C68896   1.319  -2.061   0.940 -0.3374  0.1287  0.3390
  511MOL0     C68897   1.247  -1.942   0.909  0.0446  0.3349  1.0846
  511MOL0     O68898   1.165  -1.790   0.544  0.0221  0.2755  0.1161
  511MOL0     C68899   0.979  -1.585   0.756 -0.3046  0.5234  0.3899
  511MOL0     C68900   0.910  -1.461   0.762  0.5608  0.4012  0.3669
  511MOL0     N68901   0.854  -1.008   1.177 -0.5680 -0.5489  0.0074
  511MOL0     N68902   0.921  -0.905   1.220  0.4685  0.4933  0.7535
  511MOL0     C68903   0.534   0.299   1.272  1.3262  0.5706  0.4094
  511MOL0     C68904   0.400   0.351   1.295 -0.5558 -0.0739  0.0988
  511MOL0     C68905   0.155   0.540   1.663  0.3889 -0.7497  0.7002
  511MOL0     C68906   0.121   0.667   1.599  0.1791  0.4544  0.2088
  511MOL0     C68907   0.058   0.765   1.674  0.1256 -0.2005 -0.3618
  511MOL0     C68908   0.006   0.738   1.800  0.4608 -0.0448  0.2172
  511MOL0     O68909  -0.057   0.830   1.883 -0.5222  0.5484 -0.8920
  511MOL0     C68910  -0.075   0.968   1.852  0.6858 -0.3063  0.4748
  511MOL0     C68911  -0.203   0.997   1.775  0.7039  0.3540  0.0948
  511MOL0     C68912  -0.327   0.939   1.850 -0.0705 -0.0272 -0.8082
  511MOL0     C68913  -0.454   0.987   1.782  0.3987  0.0709 -0.1035
  511MOL0     C68914  -0.574   0.915   1.842  0.7288 -0.2177  0.7052
  511MOL0     C68915  -0.671   0.867   1.892 -0.2276 -0.8647 -1.1300
  511MOL0     C68916   0.038   0.616   1.865 -0.4472  0.5497 -0.3001
  511MOL0     C68917   0.106   0.513   1.789  0.3192 -0.4170  0.1736
  511MOL0     H68918   0.497   0.484   1.599 -0.0121 -0.8628  1.2617
  511MOL0     H68919   0.692   0.368   1.557 -1.4768 -3.6459  2.6896
  511MOL0     H68920   0.680   0.034   1.314  2.5119 -1.7349  2.0130
  511MOL0     H68921   0.729   0.127   1.165 -0.3990  5.3775  0.6771
  511MOL0     H68922   0.938   0.048   1.193  0.8897  1.2250  1.4951
  511MOL0     H68923   0.941   0.071   1.370  1.7573  0.2818 -0.0347
  511MOL0     H68924   0.798  -0.148   1.365 -2.8640  1.8741 -1.6374
  511MOL0     H68925   0.808  -0.146   1.192  0.1576 -1.0261  0.9444
  511MOL0     H68926   1.059  -0.180   1.195  1.3957  1.1615  0.1557
  511MOL0     H68927   1.050  -0.172   1.367 -1.6152  3.4325 -0.3092
  511MOL0     H68928   1.080  -0.403   1.280  0.3361  0.5149  0.2793
  511MOL0     H68929   0.944  -0.371   1.385  4.0855  1.2503  2.5967
  511MOL0     H68930   0.797  -0.360   1.185 -0.8987 -0.7090  0.0920
  511MOL0     H68931   0.939  -0.411   1.079  1.0766 -1.8883 -0.7011
  511MOL0     H68932   0.864  -0.573   1.319  5.8287  1.9321 -0.4921
  511MOL0     H68933   0.750  -0.587   1.171 -0.9651  0.1350 -0.1405
  511MOL0     H68934   1.045  -0.670   1.199  2.7538 -0.8316 -3.2621
  511MOL0     H68935   0.978  -0.641   1.039 -0.5884 -0.1141  0.2098
  511MOL0     H68936   0.799  -0.808   0.932 -1.4635 -2.3999 -1.1743
  511MOL0     H68937   0.728  -1.183   1.010  3.1805 -1.2410 -0.5638
  511MOL0     H68938   0.608  -1.063   0.996  0.2658 -0.5047  0.9021
  511MOL0     H68939   0.693  -0.971   0.786 -0.6483  0.6522  1.9357
  511MOL0     H68940   0.655  -1.152   0.785  2.2106  0.2730 -3.1577
  511MOL0     H68941   0.928  -1.160   0.834 -1.0887  0.8798  1.8070
  511MOL0     H68942   0.930  -1.001   0.754  0.3359 -0.3687 -0.8314
  511MOL0     H68943   0.972  -1.149   0.599  0.9448  3.6670 -0.2500
  511MOL0     H68944   0.807  -1.095   0.567 -3.6681 -2.4917  1.3967
  511MOL0     H68945   1.001  -1.343   0.455  1.0940 -2.2137 -1.0208
  511MOL0     H68946   1.125  -1.594   0.358  0.7237  0.5284 -0.7998
  511MOL0     H68947   1.179  -1.435   0.388 -3.3172  1.0952 -0.4308
  511MOL0     H68948   1.274  -1.578   0.447 -0.5584  0.8671 -0.7624
  511MOL0     H68949   1.101  -2.032   0.623  1.3930 -0.0921 -0.3971
  511MOL0     H68950   1.202  -2.259   0.684  0.3170  0.2195 -0.6730
  511MOL0     H68951   1.564  -2.284   0.840  0.6908 -0.5470  0.4866
  511MOL0     H68952   1.524  -2.224   1.007  0.9329  0.6437 -0.2915
  511MOL0     H68953   1.595  -2.403   1.081  1.6231  0.4135 -0.5394
  511MOL0     H68954   1.453  -2.493   1.014 -0.4998  2.4380 -0.8185
  511MOL0     H68955   1.674  -2.611   0.939 -0.3134 -1.0400 -1.9579
  511MOL0     H68956   1.700  -2.458   0.850 -1.5434  3.4425  1.9936
  511MOL0     H68957   1.470  -2.640   0.841 -0.2289  0.4008 -0.6688
  511MOL0     H68958   1.485  -2.518   0.728 -0.2443 -0.8527 -1.3337
  511MOL0     H68959   1.656  -2.749   0.771 -1.2606  1.2620  1.5512
  511MOL0     H68960   1.716  -2.640   0.642  0.1676 -1.8967  1.6506
  511MOL0     H68961   1.461  -2.790   0.623  0.1662  0.5851  0.7772
  511MOL0     H68962   1.516  -2.660   0.525  0.1028 -0.6572 -1.2291
  511MOL0     H68963   1.700  -2.909   0.560  0.8202  0.5336 -0.7369
  511MOL0     H68964   1.698  -2.798   0.422 -0.1039 -1.5389 -1.0133
  511MOL0     H68965   1.508  -3.010   0.483  1.4585  0.3923  2.7068
  511MOL0     H68966   1.634  -3.013   0.357 -0.2357 -1.0913  2.0169
  511MOL0     H68967   1.388  -2.064   1.024 -0.5795 -3.0917  0.5487
  511MOL0     H68968   1.267  -1.857   0.973  1.7161  1.0544 -0.3287
  511MOL0     H68969   0.974  -1.650   0.843  0.7893 -0.3133 -0.1609
  511MOL0     H68970   0.844  -1.442   0.846  0.4209 -1.5866  0.7640
  511MOL0     H68971   0.544   0.243   1.179  0.5741 -0.5299  0.9617
  511MOL0     H68972   0.327   0.338   1.216 -1.5268  1.9230  0.6102
  511MOL0     H68973   0.157   0.692   1.500  1.1094  0.4563  0.5306
  511MOL0     H68974   0.025   0.849   1.614  2.1790 -0.8342 -2.4793
  511MOL0     H68975  -0.086   1.033   1.939 -1.7076  2.8660 -1.9538
  511MOL0     H68976   0.014   0.998   1.795  1.2788 -1.5774  0.7009
  511MOL0     H68977  -0.187   0.943   1.681 -1.4705 -0.7171  0.2894
  511MOL0     H68978  -0.211   1.103   1.749  2.6021  0.6571  0.5299
  511MOL0     H68979  -0.327   0.961   1.957 -3.2219 -2.1026 -0.2543
  511MOL0     H68980  -0.332   0.830   1.846 -3.2177 -0.0183  0.2734
  511MOL0     H68981  -0.453   0.960   1.676  1.2706 -1.0066  0.1569
  511MOL0     H68982  -0.449   1.094   1.803  0.7219 -0.5031  3.4290
  511MOL0     H68983  -0.766   0.836   1.930 -0.3504 -0.4951 -1.1277
  511MOL0     H68984  -0.004   0.580   1.958 -2.3106 -1.3218 -1.7700
  511MOL0     H68985   0.127   0.418   1.837 -0.4512  0.0208  1.4175
  512MOL0     O68986   0.346   3.534   3.499 -0.3914 -0.9033 -0.1945
  512MOL0     C68987   0.308   3.649   3.474  0.7618  0.3902 -0.3143
  512MOL0     O68988   0.271   3.745   3.558  0.4580 -0.0016 -0.5051
  512MOL0     C68989   0.329   3.735   3.680  0.0374 -0.5023 -0.1405
  512MOL0     C68990   0.241   3.727   3.799  0.1455  0.0174 -0.0083
  512MOL0     C68991   0.304   3.725   3.924 -0.2962  0.8303  0.4520
  512MOL0     C68992   0.440   3.745   3.944 -0.0161  0.8990 -0.0383
  512MOL0     O68993   0.479   3.755   4.076 -0.0555 -0.3806 -0.4960
  512MOL0     C68994   0.613   3.714   4.103  0.2901  0.6268 -0.1500
  512MOL0     C68995   0.626   3.675   4.254  0.4717 -0.8911  0.1833
  512MOL0     C68996   0.775   3.658   4.295  0.7417 -0.0568  0.2290
  512MOL0     C68997   0.770   3.604   4.433 -0.3594 -0.4759 -0.4193
  512MOL0     C68998   0.900   3.554   4.499  0.0758 -0.2700  0.1381
  512MOL0     C68999   0.934   3.411   4.458  0.5159  0.3688 -0.6205
  512MOL0     C69000   1.060   3.362   4.525 -0.2286  0.0660  0.4083
  512MOL0     C69001   1.051   3.331   4.679 -0.7120 -0.6624 -0.7564
  512MOL0     N69002   0.929   3.249   4.725 -0.1704  0.5881  0.1333
  512MOL0     C69003   0.796   3.285   4.752 -0.7697  0.7358  0.6855
  512MOL0     C69004   0.735   3.165   4.770  1.2352 -0.6026 -0.2437
  512MOL0     C69005   0.584   3.147   4.773 -0.8531 -0.6475 -0.5762
  512MOL0     C69006   0.531   3.112   4.633 -0.2364  0.4396 -0.2604
  512MOL0     C69007   0.463   2.973   4.623 -0.6501 -0.2083 -0.1584
  512MOL0     C69008   0.389   2.975   4.493 -0.1149 -0.0040 -0.5726
  512MOL0     O69009   0.386   2.839   4.433 -0.0063  0.1039 -0.8369
  512MOL0     C69010   0.306   2.801   4.328 -0.5012  0.1769 -0.2877
  512MOL0     C69011   0.351   2.723   4.228 -0.1725  0.3463 -0.3125
  512MOL0     C69012   0.273   2.692   4.122  1.4623  0.1253 -0.3116
  512MOL0     C69013   0.346   2.623   4.013 -0.2057  0.7232 -0.0715
  512MOL0     C69014   0.131   2.720   4.117 -0.1348 -0.9021 -0.2261
  512MOL0     C69015   0.039   2.680   4.009 -0.1347 -0.2467 -0.3037
  512MOL0     O69016  -0.056   2.777   3.989  0.2948  0.2218  0.2696
  512MOL0     C69017  -0.148   2.769   3.891 -0.2150 -1.0946  0.3307
  512MOL0     C69018  -0.190   2.891   3.839  0.4281 -0.0349 -0.1084
  512MOL0     C69019  -0.282   2.900   3.737  0.0556 -0.8237  0.2084
  512MOL0     C69020  -0.334   2.786   3.675 -0.0210 -0.1465 -0.0328
  512MOL0     O69021  -0.420   2.814   3.566  0.2435  0.0440 -0.4850
  512MOL0     C69022  -0.548   2.738   3.587  0.6661  0.2931  1.3308
  512MOL0     C69023  -0.651   2.792   3.489  1.1465 -0.0125 -0.3721
  512MOL0     C69024  -0.614   2.772   3.341 -0.1933 -0.4257 -0.1724
  512MOL0     C69025  -0.699   2.660   3.284  0.1158 -0.0031 -0.3716
  512MOL0     C69026  -0.675   2.627   3.136 -0.5370 -0.3636 -0.3222
  512MOL0     C69027  -0.732   2.498   3.081  0.9444  0.5553 -0.1489
  512MOL0     C69028  -0.645   2.475   2.955 -0.0719  0.0190  0.5540
  512MOL0     C69029  -0.693   2.352   2.878  0.2079 -0.7235 -0.8144
  512MOL0    Cl69030  -0.672   2.196   2.983  0.0465 -0.1209 -0.6878
  512MOL0     C69031  -0.297   2.657   3.731 -0.8339 -0.5123 -0.1496
  512MOL0     C69032  -0.200   2.653   3.838  0.7552 -0.6433  0.0674
  512MOL0     O69033   0.074   2.594   3.938  0.8406  0.8544  0.3852
  512MOL0     C69034   0.087   2.798   4.228 -0.1450 -0.3409  0.3188
  512MOL0     C69035   0.176   2.851   4.322  0.5655  0.7028  0.3025
  512MOL0     N69036   0.823   3.063   4.764  0.3515  0.3531 -0.3975
  512MOL0     N69037   0.937   3.106   4.728  0.6863 -0.2781 -1.0282
  512MOL0     C69038   0.524   3.753   3.830  0.7395 -0.6387  0.0171
  512MOL0     C69039   0.472   3.736   3.706  0.1060  0.1702 -0.8591
  512MOL0     C69040   0.310   3.680   3.331 -0.1388 -0.0621 -0.1920
  512MOL0     C69041   0.305   3.818   3.290  0.8068 -0.8291 -0.8282
  512MOL0     C69042   0.306   3.851   3.156  0.1150 -0.5558  1.0341
  512MOL0     C69043   0.306   3.744   3.062  0.3565 -0.8294  0.0771
  512MOL0     O69044   0.318   3.768   2.929 -0.3503  0.1046  0.3436
  512MOL0     C69045   0.395   3.888   2.893 -0.2951 -1.1048 -0.3038
  512MOL0     C69046   0.481   3.874   2.766  0.7107 -0.7072 -0.0292
  512MOL0     C69047   0.556   3.742   2.760 -0.0275 -0.4331 -0.2224
  512MOL0     C69048   0.467   3.618   2.742  0.2972  0.2991 -0.2222
  512MOL0     C69049   0.530   3.535   2.630 -0.6007  0.5413  0.1006
  512MOL0     C69050   0.598   3.489   2.539 -0.9789  0.1157 -0.8798
  512MOL0     C69051   0.300   3.613   3.100  0.7277 -0.0551  0.1702
  512MOL0     C69052   0.305   3.578   3.236  0.2432  0.7746 -0.0061
  512MOL0     H69053   0.138   3.696   3.792 -0.2625  1.6423 -2.0569
  512MOL0     H69054   0.242   3.739   4.012 -0.4631 -1.4051  0.7463
  512MOL0     H69055   0.630   3.621   4.047 -1.0423 -1.3256  2.4478
  512MOL0     H69056   0.690   3.789   4.081 -0.9236  1.6050 -1.1580
  512MOL0     H69057   0.603   3.773   4.298  0.6922 -0.5622 -0.4090
  512MOL0     H69058   0.563   3.593   4.289  2.8598 -2.4984  0.9535
  512MOL0     H69059   0.819   3.579   4.234 -0.1011 -2.2264  2.2607
  512MOL0     H69060   0.832   3.751   4.291  1.4731 -0.4714  0.7733
  512MOL0     H69061   0.721   3.676   4.500 -0.1425  0.1796 -0.9527
  512MOL0     H69062   0.699   3.521   4.437 -3.2214  1.8415  0.7882
  512MOL0     H69063   0.982   3.613   4.457 -2.2420  1.5683 -2.1093
  512MOL0     H69064   0.899   3.570   4.608 -1.3550 -3.7022  0.7528
  512MOL0     H69065   0.846   3.355   4.490  2.1034  0.4252  4.7522
  512MOL0     H69066   0.942   3.415   4.349 -0.3016 -1.0579 -0.7557
  512MOL0     H69067   1.083   3.275   4.463  1.6632  1.9115 -1.6098
  512MOL0     H69068   1.133   3.443   4.512 -1.2527  0.5834 -3.3714
  512MOL0     H69069   1.040   3.428   4.730 -2.1666 -1.1250 -0.1304
  512MOL0     H69070   1.146   3.288   4.711 -1.8506 -3.0363 -0.3970
  512MOL0     H69071   0.752   3.383   4.733  1.8372  1.8733  0.1337
  512MOL0     H69072   0.550   3.068   4.841 -2.3775 -1.8800 -2.6476
  512MOL0     H69073   0.532   3.238   4.805  2.1661 -0.1493  3.7868
  512MOL0     H69074   0.613   3.125   4.561  0.2577 -1.5649 -0.1298
  512MOL0     H69075   0.456   3.186   4.605  0.4587  0.3602 -2.5314
  512MOL0     H69076   0.392   2.958   4.705 -0.6113 -1.5895 -0.3455
  512MOL0     H69077   0.538   2.896   4.642 -2.2579 -1.3658  1.9273
  512MOL0     H69078   0.440   3.035   4.418 -0.5880  0.8082 -0.2592
  512MOL0     H69079   0.288   2.996   4.530 -0.3499 -5.6953  3.3566
  512MOL0     H69080   0.458   2.703   4.229  0.0031  0.2981  4.4749
  512MOL0     H69081   0.331   2.654   3.910 -0.6206  3.1557  0.6522
  512MOL0     H69082   0.453   2.617   4.036 -0.5594  0.2009  1.5595
  512MOL0     H69083   0.300   2.524   4.017 -2.3900  1.7011  1.9837
  512MOL0     H69084  -0.153   2.974   3.898  0.0901 -1.4280  2.2208
  512MOL0     H69085  -0.325   2.990   3.696 -0.3104 -1.6462 -1.2965
  512MOL0     H69086  -0.519   2.633   3.570  2.0703  0.7341  0.8539
  512MOL0     H69087  -0.585   2.759   3.688 -2.5301  0.9133  0.1351
  512MOL0     H69088  -0.746   2.742   3.511  1.4737 -0.6541 -0.3846
  512MOL0     H69089  -0.650   2.901   3.498  0.0660 -0.0557  0.4993
  512MOL0     H69090  -0.507   2.760   3.321 -0.1845  0.9954 -1.1389
  512MOL0     H69091  -0.631   2.871   3.296 -0.6467 -0.1707  0.5548
  512MOL0     H69092  -0.680   2.569   3.342  3.6812  0.9411  0.1730
  512MOL0     H69093  -0.801   2.698   3.298  0.1159  0.3966 -1.3791
  512MOL0     H69094  -0.566   2.628   3.130 -0.4593  0.7359  0.8906
  512MOL0     H69095  -0.703   2.718   3.083  0.9369  0.1633 -0.2378
  512MOL0     H69096  -0.729   2.416   3.154 -1.3339  0.0973 -0.4849
  512MOL0     H69097  -0.838   2.507   3.053  0.8203 -0.6334 -0.1396
  512MOL0     H69098  -0.551   2.433   2.992 -1.0818 -3.3934 -0.2975
  512MOL0     H69099  -0.630   2.563   2.892  3.8992  0.2712  1.5699
  512MOL0     H69100  -0.637   2.333   2.786  1.9448 -0.8156  0.2308
  512MOL0     H69101  -0.796   2.353   2.842 -0.1358 -2.4662 -0.0045
  512MOL0     H69102  -0.345   2.565   3.698 -0.0247 -0.9731 -0.0549
  512MOL0     H69103  -0.174   2.559   3.886 -1.2787 -0.6457  1.2791
  512MOL0     H69104  -0.018   2.821   4.242 -0.2259 -0.5079 -0.0080
  512MOL0     H69105   0.134   2.912   4.401 -2.1294 -1.9307  1.0864
  512MOL0     H69106   0.632   3.765   3.838  0.5753  0.4791  0.7051
  512MOL0     H69107   0.533   3.776   3.625 -0.6134  4.3731  0.4090
  512MOL0     H69108   0.322   3.891   3.368  1.3763 -1.1498 -0.6492
  512MOL0     H69109   0.313   3.956   3.131 -2.2555 -0.6376 -0.2707
  512MOL0     H69110   0.322   3.968   2.879 -0.2704 -1.2340 -1.2346
  512MOL0     H69111   0.467   3.926   2.967  1.8838  2.4283 -3.8615
  512MOL0     H69112   0.558   3.951   2.781  1.1743 -1.2487  0.4286
  512MOL0     H69113   0.423   3.899   2.676 -4.0918  0.3053  3.0175
  512MOL0     H69114   0.626   3.737   2.844  2.2733  2.4444 -1.7801
  512MOL0     H69115   0.639   3.742   2.688 -2.2208 -1.3602 -2.9024
  512MOL0     H69116   0.361   3.634   2.720 -0.5260 -3.1394  0.6633
  512MOL0     H69117   0.480   3.555   2.830  1.1047  2.0611  0.9805
  512MOL0     H69118   0.662   3.456   2.460  4.3339  2.7036  1.7850
  512MOL0     H69119   0.291   3.539   3.021 -1.4182 -1.0872  1.2697
  512MOL0     H69120   0.322   3.479   3.276  2.2075  2.3729  3.5946
  513MOL0     O69121  10.066   2.476   6.125  0.4546 -0.3975 -0.6098
  513MOL0     C69122   9.967   2.549   6.091  0.3549 -0.4464 -0.0222
  513MOL0     O69123   9.855   2.506   6.024  0.0175  1.0111 -0.1172
  513MOL0     C69124   9.833   2.373   5.989  0.2820  0.6598  0.7728
  513MOL0     C69125   9.763   2.285   6.072 -0.0801  1.1046  0.0785
  513MOL0     C69126   9.759   2.141   6.041  0.5886  0.3318  0.4521
  513MOL0     C69127   9.813   2.092   5.925  1.5173 -0.2169 -0.4648
  513MOL0     O69128   9.797   1.950   5.908  0.4494 -0.2947  0.4173
  513MOL0     C69129   9.843   1.916   5.778  0.5767  0.0463  0.4980
  513MOL0     C69130   9.812   1.769   5.741  0.6320 -1.4133 -0.0515
  513MOL0     C69131   9.852   1.653   5.836  0.4773 -0.6437  0.8159
  513MOL0     C69132   9.790   1.532   5.772 -0.6214 -0.3167  0.6554
  513MOL0     C69133   9.831   1.391   5.841 -0.3617  0.1956  0.0341
  513MOL0     C69134   9.818   1.281   5.735 -0.4082  0.1572  0.1743
  513MOL0     C69135   9.844   1.146   5.806  0.9809 -0.4860 -0.5481
  513MOL0     C69136   9.759   1.038   5.743  0.6777  0.0782 -0.0820
  513MOL0     N69137   9.786   0.905   5.801  0.0228 -0.3126 -0.0496
  513MOL0     C69138   9.905   0.856   5.817 -0.5220  1.0090  1.0725
  513MOL0     C69139   9.880   0.726   5.849  0.1881  0.2145  0.2408
  513MOL0     C69140   9.974   0.614   5.842 -0.1661 -0.2896  0.5120
  513MOL0     C69141  10.017   0.585   5.697 -0.6393  0.5964 -0.1862
  513MOL0     C69142  10.172   0.594   5.669 -0.4310 -0.2594 -0.1276
  513MOL0     C69143  10.205   0.536   5.533 -0.7132  0.9764 -0.2270
  513MOL0     O69144  10.173   0.633   5.437  0.9365  0.0173  0.5751
  513MOL0     C69145  10.162   0.602   5.297  0.6081 -0.5033  0.5592
  513MOL0     C69146  10.242   0.515   5.233  0.5099 -0.1421 -0.2123
  513MOL0     C69147  10.234   0.488   5.097 -0.5156 -0.4514  1.1915
  513MOL0     C69148  10.338   0.391   5.040  0.5636 -0.0128 -0.0972
  513MOL0     C69149  10.142   0.565   5.018  0.9105 -0.3790 -0.8645
  513MOL0     C69150  10.113   0.552   4.871  0.0802 -0.0752  1.1910
  513MOL0     O69151  10.041   0.652   4.804 -0.2051 -0.3776  0.7047
  513MOL0     C69152   9.990   0.612   4.683  0.9494 -0.1903 -0.5450
  513MOL0     C69153   9.859   0.630   4.653  0.1387  0.1593  0.4901
  513MOL0     C69154   9.808   0.589   4.530  0.8887 -0.0292  1.3010
  513MOL0     C69155   9.888   0.526   4.427 -0.1107 -0.3961 -0.5077
  513MOL0     O69156   9.838   0.472   4.306  0.0031 -0.6307 -0.4955
  513MOL0     C69157   9.689   0.459   4.294  0.1074  0.4820 -0.3564
  513MOL0     C69158   9.639   0.385   4.172  1.1057  0.1985  0.1608
  513MOL0     C69159   9.485   0.375   4.181 -0.3971 -0.0367 -0.1583
  513MOL0     C69160   9.409   0.506   4.162  0.6092  1.1754  0.0166
  513MOL0     C69161   9.264   0.459   4.139 -0.1744  0.2605 -0.5148
  513MOL0     C69162   9.174   0.563   4.179  0.0127 -0.4756  0.6919
  513MOL0     C69163   9.026   0.528   4.143 -0.0842  0.2478 -0.0935
  513MOL0     C69164   8.934   0.645   4.173 -1.4496  0.6958  0.6262
  513MOL0    Cl69165   8.778   0.613   4.111 -0.0824  0.2305  0.0596
  513MOL0     C69166  10.026   0.523   4.457  0.1667 -1.1701  0.2443
  513MOL0     C69167  10.078   0.583   4.581 -0.4416  0.2497  0.2181
  513MOL0     O69168  10.137   0.442   4.827 -0.3299 -0.2627 -0.1012
  513MOL0     C69169  10.064   0.659   5.085 -0.5113 -0.3720  0.3531
  513MOL0     C69170  10.067   0.672   5.224  0.7306  1.1914 -0.6250
  513MOL0     N69171   9.746   0.714   5.870 -0.1058 -0.0720  0.3463
  513MOL0     N69172   9.687   0.823   5.838  0.4470 -0.0681  0.9474
  513MOL0     C69173   9.888   2.183   5.843  0.1438 -0.0241  0.3301
  513MOL0     C69174   9.897   2.325   5.874  0.6037  0.0932  0.2243
  513MOL0     C69175   9.983   2.697   6.111 -0.4490 -0.1957  0.3792
  513MOL0     C69176   9.899   2.776   6.031 -0.1674 -0.0214  0.2066
  513MOL0     C69177   9.919   2.915   6.031 -0.4405  0.2005 -0.5045
  513MOL0     C69178  10.004   2.982   6.111 -0.9435  0.3018 -0.3422
  513MOL0     O69179  10.021   3.117   6.088 -0.6078  0.5541 -0.8350
  513MOL0     C69180  10.134   3.182   6.135 -0.1848 -0.4306  0.1766
  513MOL0     C69181  10.120   3.240   6.280 -0.0450  0.2118  0.0234
  513MOL0     C69182  10.257   3.297   6.332  0.3365  0.0674  0.4391
  513MOL0     C69183  10.248   3.347   6.475 -0.2819  0.5451  0.0871
  513MOL0     C69184  10.179   3.259   6.569 -0.1796 -0.4961 -0.0426
  513MOL0     C69185  10.131   3.190   6.660 -0.4233  0.0123 -0.2157
  513MOL0     C69186  10.088   2.906   6.204  0.1722  0.3388  0.0165
  513MOL0     C69187  10.073   2.761   6.198 -0.3295  0.3885 -0.5041
  513MOL0     H69188   9.721   2.330   6.161 -2.8436  0.8464 -0.9981
  513MOL0     H69189   9.714   2.082   6.120  0.7045  0.5355  0.6722
  513MOL0     H69190   9.808   1.977   5.695  1.5566 -0.4127 -0.2825
  513MOL0     H69191   9.952   1.907   5.781  0.3914 -3.3051  2.0308
  513MOL0     H69192   9.705   1.779   5.720  0.7405 -0.6869 -0.2679
  513MOL0     H69193   9.849   1.748   5.640 -0.8055 -0.0139 -0.9224
  513MOL0     H69194   9.960   1.654   5.857  0.3339  2.6590  1.9398
  513MOL0     H69195   9.801   1.672   5.930 -0.8613  0.9586 -0.1714
  513MOL0     H69196   9.680   1.534   5.768 -0.7392  4.7047  0.4337
  513MOL0     H69197   9.826   1.525   5.668 -1.3671 -3.7204  0.4994
  513MOL0     H69198   9.929   1.398   5.887 -1.0746  2.9940  1.3046
  513MOL0     H69199   9.754   1.388   5.919 -1.6245 -2.6271 -1.1473
  513MOL0     H69200   9.720   1.276   5.686 -1.0470 -2.7016  1.5798
  513MOL0     H69201   9.888   1.300   5.653 -0.0960  1.6855  0.7518
  513MOL0     H69202   9.948   1.117   5.794  0.9389 -0.3278 -1.3364
  513MOL0     H69203   9.823   1.149   5.913  1.9492 -0.3148 -0.3560
  513MOL0     H69204   9.777   1.022   5.637 -1.7330 -1.2565 -0.3644
  513MOL0     H69205   9.652   1.056   5.756  0.8103 -0.1438  1.6507
  513MOL0     H69206  10.004   0.894   5.796 -0.0269 -0.9484 -0.4119
  513MOL0     H69207  10.051   0.642   5.916 -0.8814  1.7983  0.5510
  513MOL0     H69208   9.933   0.527   5.894  1.2944 -1.2940  0.0278
  513MOL0     H69209   9.974   0.662   5.632  0.9257  0.4155 -1.4946
  513MOL0     H69210   9.975   0.490   5.663 -2.0161  1.1837 -0.1769
  513MOL0     H69211  10.232   0.553   5.750 -0.7627  1.1367  0.8676
  513MOL0     H69212  10.196   0.701   5.659 -1.6691  0.1573  1.0368
  513MOL0     H69213  10.135   0.454   5.515  0.8380 -0.4401 -0.1417
  513MOL0     H69214  10.309   0.505   5.518 -1.1592 -1.6378  1.4934
  513MOL0     H69215  10.313   0.462   5.296 -0.6101  0.8552  1.9891
  513MOL0     H69216  10.409   0.437   4.970 -1.1022  0.0178 -1.8491
  513MOL0     H69217  10.398   0.357   5.125  0.0442  3.0696  1.6706
  513MOL0     H69218  10.289   0.310   4.986 -1.8140  0.9029  0.5813
  513MOL0     H69219   9.803   0.667   4.739  0.1911  0.1489  0.5295
  513MOL0     H69220   9.702   0.596   4.507  0.7387 -0.6793  1.7644
  513MOL0     H69221   9.664   0.400   4.383  1.7670  0.1658 -0.0660
  513MOL0     H69222   9.646   0.560   4.296 -1.5854 -0.2039 -0.1068
  513MOL0     H69223   9.676   0.440   4.085 -3.3231 -1.8815 -3.4415
  513MOL0     H69224   9.683   0.285   4.174  0.2792 -0.2346 -1.5618
  513MOL0     H69225   9.464   0.336   4.280  1.2889 -2.0038 -0.5133
  513MOL0     H69226   9.459   0.298   4.108  1.0217  1.7717 -2.7864
  513MOL0     H69227   9.409   0.547   4.263  0.6151 -0.5432  0.7466
  513MOL0     H69228   9.440   0.576   4.084 -2.3372  1.6755 -0.7932
  513MOL0     H69229   9.251   0.369   4.199  1.7896 -1.5451 -2.5948
  513MOL0     H69230   9.264   0.431   4.033  3.5495  1.3531 -0.9519
  513MOL0     H69231   9.185   0.575   4.287  1.0481 -0.3225  0.5792
  513MOL0     H69232   9.192   0.662   4.138  0.6086 -1.1736 -0.7835
  513MOL0     H69233   8.993   0.440   4.200  4.2109 -2.6037 -1.5896
  513MOL0     H69234   9.038   0.504   4.037  0.0702 -1.2483  0.2346
  513MOL0     H69235   8.976   0.739   4.134 -2.6584  0.0579 -2.5871
  513MOL0     H69236   8.921   0.639   4.281  0.9417 -1.8969  0.8692
  513MOL0     H69237  10.095   0.491   4.380  0.0469 -0.6042 -0.1000
  513MOL0     H69238  10.185   0.594   4.590 -0.3939 -0.3683  0.4161
  513MOL0     H69239   9.996   0.716   5.021 -0.1401 -0.4785 -0.1414
  513MOL0     H69240  10.016   0.754   5.272 -1.0211 -0.6599  0.8310
  513MOL0     H69241   9.946   2.148   5.759 -1.4159 -0.0521 -0.7684
  513MOL0     H69242   9.950   2.394   5.809  0.8232 -0.9036 -0.6957
  513MOL0     H69243   9.826   2.726   5.969 -0.4893  1.9379 -1.0496
  513MOL0     H69244   9.863   2.965   5.953 -0.5077 -1.1366 -1.3454
  513MOL0     H69245  10.225   3.121   6.126 -0.4256 -0.5190 -2.4611
  513MOL0     H69246  10.149   3.272   6.074  1.1361  0.2404  1.4327
  513MOL0     H69247  10.072   3.163   6.342  0.3048  0.2149  0.3007
  513MOL0     H69248  10.047   3.321   6.282  0.0764  0.4536  4.4888
  513MOL0     H69249  10.294   3.380   6.271  1.5951  0.5126  1.7827
  513MOL0     H69250  10.325   3.211   6.328 -1.4351 -1.4650  1.3605
  513MOL0     H69251  10.204   3.448   6.479 -0.2229  0.5637  3.3460
  513MOL0     H69252  10.344   3.370   6.523 -0.2392 -1.0098  0.7820
  513MOL0     H69253  10.067   3.150   6.736 -0.8156  1.7910  0.4334
  513MOL0     H69254  10.155   2.947   6.278  0.0576 -0.3815  0.5313
  513MOL0     H69255  10.119   2.698   6.273 -4.0803  0.0382  1.7785
  514MOL0     O69256   5.466   0.206   3.565  0.0877  0.2908 -0.0794
  514MOL0     C69257   5.541   0.197   3.466 -0.6210 -0.2877 -0.6584
  514MOL0     O69258   5.579   0.078   3.408 -0.1572  0.6637 -0.5730
  514MOL0     C69259   5.506  -0.031   3.453  0.2363  0.4850 -0.2026
  514MOL0     C69260   5.567  -0.130   3.532 -0.7930  0.0975  0.2523
  514MOL0     C69261   5.508  -0.240   3.584  0.6145  0.2355 -0.3518
  514MOL0     C69262   5.376  -0.259   3.540  0.1747 -0.5208 -0.3053
  514MOL0     O69263   5.321  -0.380   3.568 -0.3665 -0.2105  0.4716
  514MOL0     C69264   5.189  -0.383   3.621  0.3472 -0.6398 -0.4618
  514MOL0     C69265   5.139  -0.524   3.583  0.5773  0.0964 -0.0080
  514MOL0     C69266   5.015  -0.556   3.666  0.1331  0.2857  0.5759
  514MOL0     C69267   4.943  -0.692   3.629  0.1233 -0.5056  0.5394
  514MOL0     C69268   4.885  -0.750   3.759 -0.8568 -0.8485 -0.5620
  514MOL0     C69269   4.739  -0.704   3.783  0.4172 -0.2777  0.2152
  514MOL0     C69270   4.693  -0.720   3.929 -1.0952  0.2077 -0.4303
  514MOL0     C69271   4.546  -0.675   3.940  0.2687  0.1180 -0.3299
  514MOL0     N69272   4.501  -0.699   4.077 -0.0155 -0.8876  0.0103
  514MOL0     C69273   4.551  -0.658   4.199  0.3271 -0.2925  0.0907
  514MOL0     C69274   4.475  -0.723   4.303 -0.1630 -0.4216 -0.0039
  514MOL0     C69275   4.509  -0.703   4.453 -0.6159  0.4318  0.2396
  514MOL0     C69276   4.486  -0.556   4.485  0.6060  0.0630 -0.3459
  514MOL0     C69277   4.457  -0.533   4.629  0.0058 -0.2185  0.5489
  514MOL0     C69278   4.307  -0.569   4.652 -0.4705 -0.2460 -0.0966
  514MOL0     O69279   4.285  -0.702   4.701 -0.2778 -0.5594 -0.5994
  514MOL0     C69280   4.175  -0.761   4.665  0.3926 -0.4150  1.7965
  514MOL0     C69281   4.149  -0.785   4.532 -0.1145  0.5136  0.4604
  514MOL0     C69282   4.048  -0.864   4.489 -0.1492 -0.3010  0.0253
  514MOL0     C69283   4.067  -0.923   4.343 -0.5363 -0.3132 -0.7483
  514MOL0     C69284   3.943  -0.903   4.575  0.4604  0.7510  0.6513
  514MOL0     C69285   3.820  -0.985   4.528  0.2461  0.2100  0.1245
  514MOL0     O69286   3.744  -1.038   4.638 -1.0100 -0.5792 -0.2097
  514MOL0     C69287   3.649  -1.139   4.619  0.1683 -0.8877 -0.3428
  514MOL0     C69288   3.620  -1.204   4.738 -0.7503 -0.0194  0.6359
  514MOL0     C69289   3.536  -1.309   4.732 -0.4422 -1.2100 -0.0853
  514MOL0     C69290   3.489  -1.366   4.617  0.4860  0.0176  0.2377
  514MOL0     O69291   3.401  -1.471   4.605  0.1846 -0.1551  0.2305
  514MOL0     C69292   3.341  -1.534   4.727  0.2668  0.8786 -0.4472
  514MOL0     C69293   3.233  -1.633   4.667 -0.4682  0.4821 -0.9304
  514MOL0     C69294   3.296  -1.736   4.577 -1.0225  0.6130 -0.6723
  514MOL0     C69295   3.206  -1.865   4.571  0.4850  0.1466  0.5393
  514MOL0     C69296   3.279  -1.962   4.484 -0.7371 -0.0926  0.6420
  514MOL0     C69297   3.240  -2.110   4.484 -0.7083 -0.0979  0.2469
  514MOL0     C69298   3.104  -2.135   4.422  0.7403 -0.4615  0.0835
  514MOL0     C69299   3.052  -2.276   4.408  0.6581  0.4953 -0.3285
  514MOL0    Cl69300   2.875  -2.262   4.339 -0.4073 -0.1607 -0.0678
  514MOL0     C69301   3.519  -1.309   4.492  0.5809  0.5599  0.0529
  514MOL0     C69302   3.595  -1.198   4.498 -1.1436 -0.7269 -0.0349
  514MOL0     O69303   3.804  -1.025   4.415 -0.0821 -0.0239  0.9297
  514MOL0     C69304   3.961  -0.862   4.705 -0.2367  0.5291  0.5578
  514MOL0     C69305   4.078  -0.804   4.753 -0.5585 -0.4179 -0.4113
  514MOL0     N69306   4.373  -0.795   4.240 -0.2016 -0.3544 -0.1154
  514MOL0     N69307   4.389  -0.767   4.107  0.2818  0.2871  0.2639
  514MOL0     C69308   5.309  -0.151   3.477 -0.2699 -0.4640  0.4444
  514MOL0     C69309   5.370  -0.040   3.428 -0.6500  0.3871  1.5160
  514MOL0     C69310   5.584   0.322   3.399  0.5278 -0.3450  0.6241
  514MOL0     C69311   5.695   0.325   3.312  0.1508  0.1146 -0.1844
  514MOL0     C69312   5.727   0.431   3.228 -0.1912  0.3563  0.0413
  514MOL0     C69313   5.647   0.548   3.239  0.2031  0.0255 -0.1418
  514MOL0     O69314   5.694   0.654   3.166 -0.3764 -0.4922  1.2076
  514MOL0     C69315   5.616   0.776   3.179 -0.3430 -0.0837  0.3838
  514MOL0     C69316   5.661   0.865   3.068 -0.3201  0.2677 -1.3064
  514MOL0     C69317   5.637   0.802   2.934 -0.5105 -0.4528  0.1228
  514MOL0     C69318   5.635   0.908   2.823  0.1408  0.3415 -0.2427
  514MOL0     C69319   5.618   0.844   2.693 -0.0939  0.7776  0.5503
  514MOL0     C69320   5.591   0.783   2.596  0.8876  0.1726  1.2524
  514MOL0     C69321   5.534   0.555   3.323  0.4534  0.6924  0.4680
  514MOL0     C69322   5.502   0.441   3.404 -0.1942  0.5051 -0.2903
  514MOL0     H69323   5.668  -0.095   3.554 -1.0057  0.1969  1.0953
  514MOL0     H69324   5.568  -0.286   3.661  0.8109  0.3995 -0.4069
  514MOL0     H69325   5.195  -0.382   3.730  4.6936 -2.6915 -0.4897
  514MOL0     H69326   5.110  -0.315   3.588 -0.6635 -2.2421 -1.5588
  514MOL0     H69327   5.121  -0.527   3.476 -1.2371 -3.4104  0.2343
  514MOL0     H69328   5.219  -0.596   3.607  1.0132 -0.0731 -1.8410
  514MOL0     H69329   5.050  -0.560   3.770 -0.5672  0.3604  0.8200
  514MOL0     H69330   4.956  -0.466   3.647  3.3800  2.7146  1.1392
  514MOL0     H69331   4.854  -0.668   3.571  0.5550 -0.8657 -0.2944
  514MOL0     H69332   5.004  -0.768   3.578 -2.3731 -1.2929 -1.5166
  514MOL0     H69333   4.899  -0.858   3.753 -0.2813 -0.7125 -3.0646
  514MOL0     H69334   4.953  -0.713   3.836  1.4164 -2.3813 -1.7169
  514MOL0     H69335   4.718  -0.604   3.744  0.0641 -1.0762 -1.7252
  514MOL0     H69336   4.679  -0.779   3.730  0.9867  0.0665 -0.9548
  514MOL0     H69337   4.706  -0.819   3.974 -0.7045 -0.0887 -1.1770
  514MOL0     H69338   4.737  -0.644   3.994 -2.2318 -1.5320  2.5561
  514MOL0     H69339   4.475  -0.714   3.866  1.4345  1.0649 -2.0352
  514MOL0     H69340   4.553  -0.568   3.919 -2.1794  0.7502  1.5792
  514MOL0     H69341   4.634  -0.592   4.222 -0.5596  1.1699 -0.7524
  514MOL0     H69342   4.446  -0.764   4.518 -1.3734 -0.1489 -1.0090
  514MOL0     H69343   4.611  -0.740   4.466 -1.2731 -1.5981 -0.1081
  514MOL0     H69344   4.409  -0.523   4.414 -0.4115 -1.4386  0.0051
  514MOL0     H69345   4.572  -0.495   4.459  0.7580 -1.0162 -2.6412
  514MOL0     H69346   4.471  -0.426   4.643 -0.7909 -0.2097  1.4067
  514MOL0     H69347   4.520  -0.583   4.702 -1.3556  1.1564  2.7837
  514MOL0     H69348   4.243  -0.540   4.567  0.7097 -0.0507 -0.9378
  514MOL0     H69349   4.279  -0.489   4.721  0.5563 -0.1231  0.1863
  514MOL0     H69350   4.215  -0.732   4.464 -0.6147 -0.5227 -0.8806
  514MOL0     H69351   4.129  -0.854   4.285  0.6150 -2.2446 -1.9099
  514MOL0     H69352   4.125  -1.015   4.350  2.1799  0.9538 -3.7418
  514MOL0     H69353   3.976  -0.934   4.283 -1.5191  0.6799  0.5016
  514MOL0     H69354   3.671  -1.171   4.827 -1.7950 -1.7802  1.9488
  514MOL0     H69355   3.515  -1.359   4.826 -0.8676 -0.5131  0.1992
  514MOL0     H69356   3.420  -1.587   4.781 -1.7497 -0.6963  1.0712
  514MOL0     H69357   3.295  -1.457   4.789 -0.0861  1.6541 -1.6206
  514MOL0     H69358   3.172  -1.686   4.741  0.2511 -0.1425 -0.7698
  514MOL0     H69359   3.163  -1.571   4.610  0.8967  2.6407 -0.3566
  514MOL0     H69360   3.396  -1.760   4.615 -1.6972 -0.0592  0.7187
  514MOL0     H69361   3.312  -1.696   4.476 -2.1921  2.8547 -0.0356
  514MOL0     H69362   3.175  -1.901   4.669 -0.5170 -3.4462 -0.9362
  514MOL0     H69363   3.123  -1.831   4.509 -1.2801 -0.2454  2.5911
  514MOL0     H69364   3.385  -1.957   4.512 -0.3203 -0.4347 -0.7726
  514MOL0     H69365   3.277  -1.926   4.380 -0.1071 -5.2429 -1.4748
  514MOL0     H69366   3.325  -2.168   4.447  1.7076  2.0252  2.0903
  514MOL0     H69367   3.217  -2.134   4.588 -1.5957  4.6109  1.3785
  514MOL0     H69368   3.109  -2.096   4.320 -0.7035  3.7058  1.3651
  514MOL0     H69369   3.024  -2.074   4.467 -1.0992 -0.3180 -3.1210
  514MOL0     H69370   3.031  -2.309   4.511 -0.4791 -2.7594 -1.4911
  514MOL0     H69371   3.124  -2.346   4.366  1.4545  0.5637  0.8468
  514MOL0     H69372   3.476  -1.356   4.404 -0.2999 -1.0394  1.2766
  514MOL0     H69373   3.619  -1.135   4.413 -0.6483  1.2505  1.4715
  514MOL0     H69374   3.901  -0.898   4.788  2.4401 -4.0616  0.7880
  514MOL0     H69375   4.108  -0.796   4.857 -0.3124  3.2547 -0.6137
  514MOL0     H69376   5.204  -0.158   3.452 -0.0042 -2.2637 -0.3123
  514MOL0     H69377   5.322   0.040   3.373  4.8527  1.8590 -1.9320
  514MOL0     H69378   5.760   0.240   3.324 -1.2435 -0.7479  1.6469
  514MOL0     H69379   5.813   0.416   3.163  0.1997 -1.0003  0.8253
  514MOL0     H69380   5.508   0.765   3.173 -0.6727  1.5225  2.2189
  514MOL0     H69381   5.642   0.814   3.278  3.1801 -0.2154 -0.3564
  514MOL0     H69382   5.768   0.878   3.084 -0.6037 -0.7232  2.2422
  514MOL0     H69383   5.621   0.966   3.081 -0.7308 -0.1223  0.8988
  514MOL0     H69384   5.542   0.748   2.935 -1.1703  0.6651 -0.5282
  514MOL0     H69385   5.724   0.738   2.913 -0.2101 -0.2980  0.8724
  514MOL0     H69386   5.724   0.971   2.816 -2.0095  3.4891 -2.1743
  514MOL0     H69387   5.552   0.979   2.835  1.4822  1.6851  1.5643
  514MOL0     H69388   5.570   0.717   2.515 -1.5749  1.3482  0.8428
  514MOL0     H69389   5.472   0.644   3.329 -1.0620 -0.4030  2.2627
  514MOL0     H69390   5.404   0.456   3.447  0.1470  3.5682 -0.3050
  515MOL0     O69391   0.025   7.754   4.522 -0.0111 -0.1810  1.0764
  515MOL0     C69392   0.123   7.688   4.542  0.6008 -0.3179 -0.3108
  515MOL0     O69393   0.252   7.713   4.494  0.5815  0.0974 -0.1213
  515MOL0     C69394   0.309   7.835   4.472 -0.0768 -0.0600 -0.8497
  515MOL0     C69395   0.239   7.959   4.498 -0.0485  0.8162  0.2874
  515MOL0     C69396   0.302   8.080   4.510  0.1517  0.0974 -0.1245
  515MOL0     C69397   0.435   8.084   4.477 -0.0922  0.0495 -0.9106
  515MOL0     O69398   0.509   8.195   4.476  0.4205 -0.0538 -0.2377
  515MOL0     C69399   0.445   8.306   4.412 -0.5085  0.2631 -1.2038
  515MOL0     C69400   0.477   8.324   4.263 -0.5137  0.2174 -0.6606
  515MOL0     C69401   0.429   8.464   4.202  0.4336  0.2302 -0.1272
  515MOL0     C69402   0.457   8.490   4.051  0.2981 -0.0541  0.4577
  515MOL0     C69403   0.380   8.612   3.993  0.0901  0.1322  0.4210
  515MOL0     C69404   0.247   8.549   3.952  0.1743 -0.1812  0.8176
  515MOL0     C69405   0.144   8.637   3.891  0.2002  0.0425 -0.1090
  515MOL0     C69406   0.176   8.683   3.754  0.4616  0.8072  1.6154
  515MOL0     N69407   0.097   8.785   3.700  0.0692  0.0189 -0.9444
  515MOL0     C69408   0.087   8.912   3.750  0.1325  0.9732  0.6220
  515MOL0     C69409  -0.033   8.964   3.707  0.0367  0.4933  0.2154
  515MOL0     C69410  -0.095   9.092   3.744 -0.4030 -0.9425  0.1950
  515MOL0     C69411  -0.227   9.064   3.803 -0.0181 -0.6868  0.7294
  515MOL0     C69412  -0.300   9.178   3.887 -0.2288  0.2761  0.3851
  515MOL0     C69413  -0.297   9.321   3.815 -0.2446  0.4478  0.4709
  515MOL0     O69414  -0.365   9.416   3.889 -0.6462  0.5401 -0.0523
  515MOL0     C69415  -0.303   9.526   3.928 -1.7463 -0.7030  0.2368
  515MOL0     C69416  -0.370   9.637   3.886  0.3245 -0.1319  0.2755
  515MOL0     C69417  -0.321   9.764   3.920  0.6759 -0.5519 -0.5127
  515MOL0     C69418  -0.392   9.884   3.867 -0.2331  0.5109 -0.1631
  515MOL0     C69419  -0.199   9.779   3.991 -0.1600 -0.5860 -0.7760
  515MOL0     C69420  -0.135   9.903   4.022  0.3416 -0.6643 -0.6833
  515MOL0     O69421  -0.087   9.916   4.149 -0.5371 -0.0796  0.2150
  515MOL0     C69422  -0.010  10.024   4.193 -0.1518 -0.1318  0.1606
  515MOL0     C69423   0.007  10.036   4.336 -0.2692  0.3088  0.6399
  515MOL0     C69424   0.089  10.129   4.397  1.1560  0.8273 -0.0340
  515MOL0     C69425   0.161  10.218   4.325  0.5268  0.6931  0.4300
  515MOL0     O69426   0.252  10.308   4.370 -0.6314 -0.2598 -0.0463
  515MOL0     C69427   0.204  10.434   4.408  0.3964 -0.0509 -0.5906
  515MOL0     C69428   0.291  10.463   4.534 -0.3820  0.8202 -0.2311
  515MOL0     C69429   0.277  10.613   4.578  0.3020 -0.3902 -0.4231
  515MOL0     C69430   0.164  10.627   4.680 -0.4209  0.0351 -0.2145
  515MOL0     C69431   0.136  10.782   4.696 -0.0416 -0.0977  0.8752
  515MOL0     C69432   0.238  10.859   4.778 -0.3872  0.1200 -0.1412
  515MOL0     C69433   0.203  11.008   4.796 -1.0007 -1.7576 -0.1495
  515MOL0     C69434   0.318  11.090   4.847  0.2476 -0.7472  0.2367
  515MOL0    Cl69435   0.319  11.029   5.025 -0.0611  0.2641 -0.2677
  515MOL0     C69436   0.131  10.214   4.187 -0.0825 -0.0685 -0.4412
  515MOL0     C69437   0.051  10.125   4.119  0.2750  0.5676 -0.3507
  515MOL0     O69438  -0.144   9.989   3.934  0.3736 -0.6965  0.2035
  515MOL0     C69439  -0.135   9.659   4.031  0.6137 -0.1975  0.3317
  515MOL0     C69440  -0.179   9.533   4.000 -0.3709 -0.5943  0.2580
  515MOL0     N69441  -0.086   8.864   3.617 -0.2338  0.1935 -0.3614
  515MOL0     N69442  -0.011   8.760   3.615 -0.3466  0.4935 -0.4883
  515MOL0     C69443   0.499   7.966   4.444 -0.5745  0.4204  1.4197
  515MOL0     C69444   0.438   7.844   4.450 -0.8818  0.2357  0.3547
  515MOL0     C69445   0.108   7.565   4.617 -0.9094 -0.0611 -0.1657
  515MOL0     C69446  -0.014   7.517   4.663  0.9946 -0.2475  0.3054
  515MOL0     C69447  -0.027   7.388   4.714 -0.2396  0.6562 -0.5103
  515MOL0     C69448   0.086   7.302   4.730 -0.5826 -0.6907  0.4626
  515MOL0     O69449   0.075   7.174   4.785  0.1277  0.1353  0.1168
  515MOL0     C69450   0.190   7.090   4.799 -0.0664  0.9672  0.1901
  515MOL0     C69451   0.152   6.977   4.900 -0.0928  0.5710  0.2406
  515MOL0     C69452   0.164   7.020   5.047 -0.6214 -0.8816  0.0354
  515MOL0     C69453   0.025   7.071   5.102  0.3851 -0.6175  1.2272
  515MOL0     C69454   0.046   7.137   5.224 -0.9447  0.6776 -0.6871
  515MOL0     C69455   0.079   7.166   5.340 -0.2237 -0.0993  0.6120
  515MOL0     C69456   0.206   7.350   4.689 -0.3407 -0.4771 -0.0597
  515MOL0     C69457   0.214   7.473   4.633  0.2489 -0.1112 -0.5728
  515MOL0     H69458   0.133   7.967   4.520 -0.0137 -1.1661  1.4520
  515MOL0     H69459   0.235   8.164   4.523  0.0348 -0.0787  0.4614
  515MOL0     H69460   0.336   8.311   4.417 -0.5827  1.3604 -3.0769
  515MOL0     H69461   0.473   8.400   4.460 -1.2434  0.1182 -0.4636
  515MOL0     H69462   0.583   8.312   4.241 -0.2752  1.0645 -0.0125
  515MOL0     H69463   0.427   8.238   4.216  0.7332  0.0854 -1.8004
  515MOL0     H69464   0.323   8.470   4.227  0.9430  3.1974  1.8459
  515MOL0     H69465   0.482   8.543   4.257  0.4941  0.3419 -0.3464
  515MOL0     H69466   0.562   8.515   4.037 -0.1284  0.7464 -1.8994
  515MOL0     H69467   0.436   8.402   3.989 -0.4701  0.8892 -0.7015
  515MOL0     H69468   0.367   8.693   4.066 -1.4597  2.9376 -2.6993
  515MOL0     H69469   0.442   8.657   3.915 -0.5757  2.1730  0.9957
  515MOL0     H69470   0.265   8.470   3.879  0.0626  0.3725  0.1805
  515MOL0     H69471   0.199   8.502   4.038 -1.4218  0.6574  0.4286
  515MOL0     H69472   0.048   8.586   3.883  0.0186  0.5453 -1.3461
  515MOL0     H69473   0.129   8.732   3.942  1.1535  0.4623 -0.5859
  515MOL0     H69474   0.166   8.601   3.683  2.1176  0.0704  2.1709
  515MOL0     H69475   0.282   8.711   3.751  0.8045 -0.5487 -0.5362
  515MOL0     H69476   0.151   8.943   3.832 -0.1590  0.6458  0.9792
  515MOL0     H69477  -0.035   9.145   3.819 -1.0910  1.2343 -0.7032
  515MOL0     H69478  -0.104   9.145   3.649  3.6341 -2.9748 -1.5682
  515MOL0     H69479  -0.213   8.981   3.873  0.7529  2.0412  4.0903
  515MOL0     H69480  -0.286   9.036   3.715  1.7322  2.4170 -1.6233
  515MOL0     H69481  -0.252   9.193   3.985  1.5884  1.8442 -0.6630
  515MOL0     H69482  -0.401   9.144   3.909  0.4472 -3.9296 -1.8357
  515MOL0     H69483  -0.345   9.297   3.719  3.0107 -2.6407 -0.6188
  515MOL0     H69484  -0.200   9.367   3.796 -0.2189  1.5460  2.9601
  515MOL0     H69485  -0.463   9.612   3.837  0.7766 -3.0052  0.7275
  515MOL0     H69486  -0.492   9.858   3.831  0.1768 -2.7957  0.7111
  515MOL0     H69487  -0.407   9.952   3.951  1.4243 -2.1565  2.5049
  515MOL0     H69488  -0.328   9.928   3.791  1.2669 -2.4790 -0.7978
  515MOL0     H69489  -0.030   9.957   4.400 -0.3083 -0.2572 -0.0613
  515MOL0     H69490   0.107  10.115   4.503 -2.3719 -1.1739  0.4712
  515MOL0     H69491   0.200  10.500   4.321  0.2961  0.1132 -0.4616
  515MOL0     H69492   0.102  10.431   4.447  0.8245  0.6370  0.6527
  515MOL0     H69493   0.241  10.405   4.612 -0.6956  3.3744  1.5889
  515MOL0     H69494   0.392  10.428   4.510 -1.0021 -0.6867 -0.7995
  515MOL0     H69495   0.256  10.675   4.490  1.0326 -0.3863 -0.6049
  515MOL0     H69496   0.372  10.655   4.614  0.4280  0.3668 -1.5724
  515MOL0     H69497   0.072  10.580   4.644 -0.1880 -0.4435 -0.1854
  515MOL0     H69498   0.193  10.579   4.774 -3.0689  0.0877  0.7093
  515MOL0     H69499   0.041  10.787   4.751 -1.6925 -3.8571 -1.2599
  515MOL0     H69500   0.129  10.833   4.599  0.0643 -0.9589  0.4071
  515MOL0     H69501   0.250  10.805   4.872 -0.9810 -0.3515 -0.3274
  515MOL0     H69502   0.338  10.851   4.736 -0.3994 -1.7849  0.1255
  515MOL0     H69503   0.109  11.032   4.845  0.1540  2.2115  0.4465
  515MOL0     H69504   0.179  11.036   4.693  0.5796 -0.9550 -0.3399
  515MOL0     H69505   0.306  11.198   4.841  0.2086 -0.7478  0.3058
  515MOL0     H69506   0.414  11.054   4.807  0.9212 -0.1664  1.2708
  515MOL0     H69507   0.167  10.290   4.118 -2.4235 -1.2913 -3.2248
  515MOL0     H69508   0.023  10.141   4.016  0.9552  0.5993 -0.5303
  515MOL0     H69509  -0.042   9.669   4.087 -0.7168  2.5076  2.2948
  515MOL0     H69510  -0.134   9.439   4.032 -2.4768 -1.4098  1.0468
  515MOL0     H69511   0.598   7.969   4.400 -2.6089  2.8956 -3.8475
  515MOL0     H69512   0.491   7.751   4.431 -0.7959 -0.2944  2.8899
  515MOL0     H69513  -0.109   7.566   4.648  1.3852  0.3245 -0.3652
  515MOL0     H69514  -0.118   7.353   4.762  0.1766  2.3605  1.6767
  515MOL0     H69515   0.214   7.053   4.699  0.0743  3.7792 -0.8927
  515MOL0     H69516   0.285   7.132   4.833  1.9407  0.2494 -3.8621
  515MOL0     H69517   0.231   6.901   4.894 -1.9482 -1.4183 -0.0825
  515MOL0     H69518   0.055   6.929   4.885 -0.2636  0.5884  1.2004
  515MOL0     H69519   0.245   7.093   5.057  0.4733 -1.6988 -2.1361
  515MOL0     H69520   0.194   6.929   5.100  1.0521  0.2000  1.0354
  515MOL0     H69521  -0.043   6.986   5.109 -0.0389 -0.1552  4.2897
  515MOL0     H69522  -0.012   7.133   5.019  0.9399 -1.9078 -0.0217
  515MOL0     H69523   0.117   7.205   5.433 -3.5048  2.6830  0.9768
  515MOL0     H69524   0.292   7.289   4.715 -0.9708 -0.9758  0.9162
  515MOL0     H69525   0.307   7.505   4.587  0.3682  0.2716 -0.0779
  516MOL0     O69526   3.794   2.435   3.562  0.8710 -0.6711 -0.7490
  516MOL0     C69527   3.843   2.374   3.467  0.0429 -0.3626 -0.4630
  516MOL0     O69528   3.903   2.429   3.357  0.7856 -0.2598 -0.2740
  516MOL0     C69529   3.918   2.566   3.340 -0.1618  0.6288 -0.2853
  516MOL0     C69530   3.813   2.656   3.353 -0.0906 -0.7273  0.1168
  516MOL0     C69531   3.835   2.795   3.331  0.3430 -0.2116  0.5884
  516MOL0     C69532   3.968   2.843   3.303  0.4446 -0.1579 -0.1433
  516MOL0     O69533   3.970   2.977   3.285  0.4209  0.1622  0.4127
  516MOL0     C69534   4.088   3.044   3.339 -0.1253 -0.2155  0.5214
  516MOL0     C69535   4.108   3.041   3.493 -0.1062  0.0279 -0.4473
  516MOL0     C69536   4.247   3.109   3.540 -0.3157  0.3953  0.8659
  516MOL0     C69537   4.252   3.141   3.693  0.0026  0.5315 -0.0257
  516MOL0     C69538   4.263   3.016   3.782  0.5866 -0.8935  0.4308
  516MOL0     C69539   4.304   3.073   3.919  0.0219  0.0959  0.4507
  516MOL0     C69540   4.321   2.973   4.031  0.9598  0.1759 -0.3422
  516MOL0     C69541   4.448   2.883   4.011  0.2774  0.7068 -0.7661
  516MOL0     N69542   4.481   2.806   4.143 -0.4457 -0.6180  0.3011
  516MOL0     C69543   4.563   2.856   4.249  0.4912  0.6004  0.7242
  516MOL0     C69544   4.552   2.756   4.340  0.4457  0.2387  0.1193
  516MOL0     C69545   4.625   2.757   4.470  0.9599 -0.4497  0.1486
  516MOL0     C69546   4.715   2.636   4.499  0.1040 -0.0135 -0.0754
  516MOL0     C69547   4.656   2.497   4.459 -0.2198  1.2840  0.3727
  516MOL0     C69548   4.725   2.381   4.534 -0.7094 -0.2574 -0.0386
  516MOL0     O69549   4.867   2.377   4.510 -0.1085  0.2151  0.3951
  516MOL0     C69550   4.921   2.257   4.567 -0.8770 -0.4682 -0.2195
  516MOL0     C69551   5.050   2.229   4.525 -0.0928  0.2983 -0.2801
  516MOL0     C69552   5.115   2.118   4.570 -0.9436  0.0881  0.2296
  516MOL0     C69553   5.261   2.097   4.521  0.3864  0.3750 -0.0936
  516MOL0     C69554   5.058   2.041   4.672  0.6755  0.1180  0.2676
  516MOL0     C69555   5.114   1.915   4.715 -0.3181 -0.1836 -0.1176
  516MOL0     O69556   5.085   1.874   4.843 -0.2599  0.0305 -0.0161
  516MOL0     C69557   5.094   1.739   4.874 -0.2012  0.0276  0.2325
  516MOL0     C69558   4.976   1.666   4.880 -0.7594 -0.5828 -0.3067
  516MOL0     C69559   4.989   1.531   4.899  0.8435  1.2209  0.6159
  516MOL0     C69560   5.116   1.470   4.923 -0.7155  0.0928  0.9009
  516MOL0     O69561   5.094   1.333   4.951 -0.5409 -0.0393  0.2298
  516MOL0     C69562   5.221   1.259   4.975 -0.2551 -0.0279 -0.1673
  516MOL0     C69563   5.194   1.110   4.946  0.0119 -0.2294  0.6664
  516MOL0     C69564   5.313   1.028   4.988  0.0511 -0.4713  1.0970
  516MOL0     C69565   5.278   0.884   4.951  0.6861 -0.6316 -0.5369
  516MOL0     C69566   5.371   0.773   4.994 -0.3205  0.7457  0.2540
  516MOL0     C69567   5.410   0.778   5.132  0.8558 -1.1911 -0.5986
  516MOL0     C69568   5.518   0.679   5.159 -0.3082 -0.4115 -0.2180
  516MOL0     C69569   5.558   0.669   5.301 -0.6139  0.1305 -0.3525
  516MOL0    Cl69570   5.700   0.553   5.313 -0.1089 -0.1038 -0.2597
  516MOL0     C69571   5.229   1.552   4.934 -0.1399  0.0536 -0.7146
  516MOL0     C69572   5.216   1.686   4.905  0.5735  0.2256 -0.8746
  516MOL0     O69573   5.170   1.842   4.636  0.1348  0.4840  0.1552
  516MOL0     C69574   4.933   2.070   4.706  0.2406 -0.6179 -0.7563
  516MOL0     C69575   4.855   2.166   4.649  0.4572  0.4504 -0.2900
  516MOL0     N69576   4.459   2.666   4.297 -0.5628  0.1501 -0.6103
  516MOL0     N69577   4.431   2.689   4.177  0.2069 -0.4010  0.0761
  516MOL0     C69578   4.072   2.750   3.292 -0.0774  0.4605  0.5276
  516MOL0     C69579   4.046   2.616   3.303  0.2131 -0.2095 -0.6510
  516MOL0     C69580   3.833   2.233   3.466  0.4121  0.6715  1.4981
  516MOL0     C69581   3.920   2.152   3.382  0.5844  0.5555 -0.1430
  516MOL0     C69582   3.908   2.012   3.397  0.1080 -0.0535 -0.2969
  516MOL0     C69583   3.825   1.954   3.496 -0.0138  0.1130 -0.1455
  516MOL0     O69584   3.837   1.828   3.550 -0.2979 -0.2295  0.0110
  516MOL0     C69585   3.878   1.716   3.474  0.1812 -0.6904 -0.4635
  516MOL0     C69586   4.014   1.659   3.513 -1.2987 -0.4803  0.4205
  516MOL0     C69587   4.032   1.635   3.659 -0.4206 -0.0811 -0.7200
  516MOL0     C69588   4.143   1.532   3.707  0.7756  0.9584  0.4599
  516MOL0     C69589   4.087   1.399   3.685 -0.2137  0.0091 -1.3698
  516MOL0     C69590   4.021   1.295   3.679  1.0389 -0.2265 -0.9537
  516MOL0     C69591   3.745   2.032   3.573 -0.6459  0.9860  0.0911
  516MOL0     C69592   3.745   2.179   3.553  0.6014  1.1110 -0.1449
  516MOL0     H69593   3.715   2.616   3.377 -1.1134  0.1882 -2.2210
  516MOL0     H69594   3.752   2.864   3.329  1.8596  1.7249 -2.9131
  516MOL0     H69595   4.175   3.011   3.283  0.5208  1.0847  0.7391
  516MOL0     H69596   4.074   3.150   3.315 -2.4333 -0.9111 -1.7387
  516MOL0     H69597   4.030   3.096   3.546  1.8322  0.6546  1.9153
  516MOL0     H69598   4.106   2.934   3.514 -0.2840  0.4928  2.2709
  516MOL0     H69599   4.330   3.042   3.516  1.0942  1.4524  2.5478
  516MOL0     H69600   4.264   3.202   3.485 -1.6150  0.0184 -0.2341
  516MOL0     H69601   4.338   3.207   3.704  2.4992 -2.3637 -0.8781
  516MOL0     H69602   4.163   3.196   3.726 -0.4207 -0.3585  0.3467
  516MOL0     H69603   4.167   2.963   3.781  0.9618 -1.5887  0.7138
  516MOL0     H69604   4.331   2.942   3.741  0.3060 -2.5786  2.7843
  516MOL0     H69605   4.397   3.126   3.900 -1.7481  2.1318 -3.5242
  516MOL0     H69606   4.225   3.141   3.953 -0.5527 -0.2161 -0.2399
  516MOL0     H69607   4.352   3.022   4.124 -0.5545 -2.2254  1.5533
  516MOL0     H69608   4.231   2.913   4.045 -1.0877  2.0897 -3.8499
  516MOL0     H69609   4.532   2.945   3.979  1.9519 -1.8696 -1.6567
  516MOL0     H69610   4.443   2.817   3.924 -0.9599  2.5661 -2.1849
  516MOL0     H69611   4.629   2.942   4.259 -0.8429  1.6210  0.9468
  516MOL0     H69612   4.695   2.840   4.481  0.3492 -0.2025  2.7168
  516MOL0     H69613   4.554   2.779   4.550 -0.5343 -2.8316 -0.4285
  516MOL0     H69614   4.762   2.644   4.597  0.9119  1.9083 -0.5747
  516MOL0     H69615   4.799   2.643   4.430  0.5891  0.3862  0.5470
  516MOL0     H69616   4.661   2.481   4.351  1.9112 -1.7100  0.7778
  516MOL0     H69617   4.554   2.498   4.498 -0.4037  0.4177 -0.0717
  516MOL0     H69618   4.681   2.286   4.502  1.2655 -2.0136  2.1076
  516MOL0     H69619   4.712   2.393   4.642 -0.8706  1.4458 -0.2322
  516MOL0     H69620   5.096   2.298   4.455  2.4984  0.4170  1.3996
  516MOL0     H69621   5.327   2.087   4.608 -0.7772 -0.0818  0.7732
  516MOL0     H69622   5.270   2.006   4.460 -0.1559 -1.0114  1.7743
  516MOL0     H69623   5.291   2.186   4.466  3.8016  0.3366  1.4648
  516MOL0     H69624   4.879   1.714   4.879 -0.5798 -0.2015  0.3334
  516MOL0     H69625   4.898   1.474   4.901  4.1995 -5.2363 -2.0811
  516MOL0     H69626   5.307   1.278   4.911  0.1101 -0.2555  0.2548
  516MOL0     H69627   5.255   1.270   5.078 -2.1714 -0.3181  0.5423
  516MOL0     H69628   5.107   1.078   5.005 -0.4938  0.0217  0.0650
  516MOL0     H69629   5.164   1.095   4.842  1.4273 -1.9952  0.4628
  516MOL0     H69630   5.338   1.045   5.093 -1.8885  2.3720  1.1999
  516MOL0     H69631   5.403   1.046   4.928 -0.0807 -1.1479  0.6804
  516MOL0     H69632   5.181   0.857   4.996  1.1349  0.0520  0.9144
  516MOL0     H69633   5.253   0.867   4.846  0.1429  0.3699 -0.5817
  516MOL0     H69634   5.469   0.767   4.944  2.0300 -1.6506  4.5154
  516MOL0     H69635   5.332   0.672   4.977  2.1548 -0.4518  1.1064
  516MOL0     H69636   5.442   0.876   5.170  0.0538 -2.2592  3.3569
  516MOL0     H69637   5.321   0.746   5.188  0.0172 -0.4051 -1.4489
  516MOL0     H69638   5.611   0.712   5.113 -1.0771  1.2213 -0.6693
  516MOL0     H69639   5.481   0.587   5.112  1.2545 -1.0761 -0.1938
  516MOL0     H69640   5.470   0.634   5.356 -1.2620  0.5738 -1.0718
  516MOL0     H69641   5.586   0.762   5.351  1.0079 -0.2942 -0.4066
  516MOL0     H69642   5.319   1.502   4.970 -1.2179 -3.1582 -2.0868
  516MOL0     H69643   5.297   1.757   4.891 -0.6894  1.4990 -2.0546
  516MOL0     H69644   4.889   1.994   4.769 -0.4163 -0.7574 -1.3712
  516MOL0     H69645   4.753   2.172   4.686 -0.1853 -4.2411 -0.6613
  516MOL0     H69646   4.159   2.795   3.244  0.0468 -0.6735 -0.3309
  516MOL0     H69647   4.121   2.549   3.261 -1.0287 -1.3246 -1.1578
  516MOL0     H69648   3.977   2.187   3.297  0.8510 -2.4232 -1.3155
  516MOL0     H69649   3.972   1.958   3.327 -0.3656 -0.5252 -0.3698
  516MOL0     H69650   3.800   1.644   3.500 -2.1205  1.3765 -1.1942
  516MOL0     H69651   3.878   1.744   3.369  1.8640  0.7653 -0.1259
  516MOL0     H69652   4.095   1.728   3.485 -2.5547  0.8347 -0.1162
  516MOL0     H69653   4.032   1.564   3.462  2.2737  0.4959 -0.4575
  516MOL0     H69654   3.936   1.605   3.702 -0.9758 -0.7124 -2.3417
  516MOL0     H69655   4.053   1.731   3.709  2.4070 -0.5194 -0.8937
  516MOL0     H69656   4.185   1.537   3.808 -0.3294  0.8276  0.9410
  516MOL0     H69657   4.225   1.541   3.635 -1.2447  0.4523 -2.0646
  516MOL0     H69658   3.981   1.196   3.673  0.3906  0.0864 -2.1787
  516MOL0     H69659   3.690   1.993   3.658  0.6700 -3.2811 -0.7385
  516MOL0     H69660   3.677   2.236   3.616 -0.8623  0.2860 -0.9143
  517MOL0     O69661   4.824   0.287  10.183 -0.5034 -0.3660  0.5072
  517MOL0     C69662   4.764   0.315  10.077  0.5492  0.5626 -0.5488
  517MOL0     O69663   4.727   0.222   9.988  0.4833 -0.7431 -0.0756
  517MOL0     C69664   4.776   0.097   9.988 -0.3972  0.1807 -0.4764
  517MOL0     C69665   4.913   0.076  10.000  0.1531  0.6000  0.1178
  517MOL0     C69666   4.958  -0.057   9.960 -0.7764 -0.5009 -0.3156
  517MOL0     C69667   4.869  -0.161   9.940  0.1621  0.1637  0.3151
  517MOL0     O69668   4.918  -0.292   9.917  0.2225  0.1391 -0.2320
  517MOL0     C69669   5.017  -0.315   9.815  0.8435 -0.6349 -0.3358
  517MOL0     C69670   5.083  -0.458   9.838 -0.6421 -0.2842  0.5988
  517MOL0     C69671   4.980  -0.570   9.836 -1.2878 -0.2425  0.7906
  517MOL0     C69672   4.912  -0.578   9.694 -0.3501  0.2967  0.7451
  517MOL0     C69673   4.853  -0.715   9.662 -0.1963 -0.2541 -0.1047
  517MOL0     C69674   4.759  -0.705   9.540  0.3551  0.2515  0.3192
  517MOL0     C69675   4.709  -0.851   9.515  0.4114 -0.3379 -0.5901
  517MOL0     C69676   4.797  -0.945   9.441 -0.9700 -0.0745 -0.1600
  517MOL0     N69677   4.719  -1.055   9.387 -0.3821 -0.1330  0.3220
  517MOL0     C69678   4.618  -1.127   9.455 -0.3003  0.0078 -0.4947
  517MOL0     C69679   4.541  -1.185   9.362  0.2018  0.1427 -0.1381
  517MOL0     C69680   4.423  -1.278   9.389 -1.1030  0.7317  0.1456
  517MOL0     C69681   4.292  -1.198   9.397 -0.6831  0.3590 -0.5657
  517MOL0     C69682   4.191  -1.264   9.481 -0.3811  0.3190 -0.3222
  517MOL0     C69683   4.162  -1.414   9.449  0.5179 -0.3005 -0.0649
  517MOL0     O69684   4.243  -1.514   9.505 -0.0650 -0.0126  0.7307
  517MOL0     C69685   4.186  -1.635   9.513  0.2003 -0.5535 -0.6665
  517MOL0     C69686   4.060  -1.667   9.464  0.6154 -0.2746  0.5826
  517MOL0     C69687   4.006  -1.785   9.488  0.3261  0.0416 -0.8518
  517MOL0     C69688   3.865  -1.799   9.428  0.6173  0.3209  0.6981
  517MOL0     C69689   4.070  -1.891   9.558  0.0963  0.4455  1.0047
  517MOL0     C69690   4.019  -2.028   9.586 -0.7154 -0.3811  0.7431
  517MOL0     O69691   4.059  -2.083   9.705 -0.2527 -0.2872  0.2547
  517MOL0     C69692   3.996  -2.201   9.749 -0.9492  0.7237 -0.2252
  517MOL0     C69693   4.061  -2.323   9.742  0.1602  0.0693 -0.9785
  517MOL0     C69694   3.996  -2.440   9.790 -1.0844 -0.0645 -0.3055
  517MOL0     C69695   3.871  -2.439   9.862 -0.2186 -0.0693  0.5603
  517MOL0     O69696   3.800  -2.541   9.920  0.0527  0.5410  0.7495
  517MOL0     C69697   3.882  -2.602  10.022 -0.5717  0.1968 -0.0122
  517MOL0     C69698   3.821  -2.712  10.101 -0.1590  0.1640  0.4132
  517MOL0     C69699   3.715  -2.673  10.201  0.5933  0.4328  0.9111
  517MOL0     C69700   3.774  -2.598  10.314 -0.3832  0.2605  1.3182
  517MOL0     C69701   3.667  -2.572  10.413 -0.8866  0.0298 -0.0625
  517MOL0     C69702   3.746  -2.508  10.536  0.0376 -0.0334 -0.5073
  517MOL0     C69703   3.652  -2.424  10.617 -0.2954 -0.2002 -0.0205
  517MOL0     C69704   3.539  -2.513  10.676 -0.2897  0.5786 -0.0543
  517MOL0    Cl69705   3.588  -2.669  10.740 -0.3515 -0.0273 -0.2559
  517MOL0     C69706   3.810  -2.309   9.871  0.6524  0.8043 -0.1132
  517MOL0     C69707   3.874  -2.195   9.810 -0.1211 -0.4993 -0.3042
  517MOL0     O69708   3.949  -2.088   9.507 -0.5743  0.3296 -0.4137
  517MOL0     C69709   4.198  -1.860   9.613 -0.3802 -0.1079  0.4678
  517MOL0     C69710   4.251  -1.728   9.590  0.2472 -0.4719  0.4838
  517MOL0     N69711   4.599  -1.156   9.246 -0.4787  0.1248  0.5978
  517MOL0     N69712   4.698  -1.079   9.256 -0.1330  0.3474 -0.4227
  517MOL0     C69713   4.729  -0.147   9.939 -0.1788  0.9731  0.0267
  517MOL0     C69714   4.690  -0.014   9.974 -0.0219  1.1782 -0.0100
  517MOL0     C69715   4.729   0.455  10.048 -0.5014  1.0112  0.2431
  517MOL0     C69716   4.695   0.488   9.916  0.8027  0.4978 -0.6676
  517MOL0     C69717   4.674   0.626   9.881  0.2434  0.1022  0.9336
  517MOL0     C69718   4.690   0.727   9.976 -0.0173  0.2248  0.0664
  517MOL0     O69719   4.662   0.859   9.962 -0.0592 -0.0641  0.0284
  517MOL0     C69720   4.555   0.887   9.868  0.6690  0.3284  0.3971
  517MOL0     C69721   4.475   1.015   9.908 -0.3261 -0.3666  0.8096
  517MOL0     C69722   4.553   1.147   9.891 -0.0057 -1.6183  0.0964
  517MOL0     C69723   4.461   1.269   9.916  0.4775 -0.3730  1.0146
  517MOL0     C69724   4.537   1.388   9.906 -0.2758  0.5049 -0.4642
  517MOL0     C69725   4.602   1.493   9.918  0.8292 -0.4654 -0.5619
  517MOL0     C69726   4.733   0.695  10.098 -0.2332 -0.1855 -0.7526
  517MOL0     C69727   4.738   0.560  10.138  0.4840  0.1902  0.2329
  517MOL0     H69728   4.990   0.148  10.029  2.4900 -2.0755  1.0025
  517MOL0     H69729   5.064  -0.080   9.954 -0.7806 -1.8767  2.8475
  517MOL0     H69730   4.982  -0.313   9.711  0.4417  1.9596 -0.2178
  517MOL0     H69731   5.107  -0.253   9.819  1.0175 -0.9695  1.5122
  517MOL0     H69732   5.162  -0.477   9.765 -0.5468 -1.6371  1.0300
  517MOL0     H69733   5.135  -0.454   9.934  0.6040  0.2848 -0.0757
  517MOL0     H69734   5.014  -0.670   9.864 -0.9028 -0.2341  0.3590
  517MOL0     H69735   4.902  -0.557   9.912 -2.6013  0.3645 -0.6255
  517MOL0     H69736   4.842  -0.495   9.678 -2.5423 -1.5436  0.3476
  517MOL0     H69737   4.989  -0.551   9.621 -0.6459 -1.3960 -0.2501
  517MOL0     H69738   4.937  -0.783   9.647  2.6131  3.2518 -1.8958
  517MOL0     H69739   4.787  -0.750   9.741 -2.8321  0.6358 -1.7841
  517MOL0     H69740   4.671  -0.643   9.558 -0.4507 -1.1339  1.4087
  517MOL0     H69741   4.810  -0.675   9.448 -0.4937  0.1669 -0.1887
  517MOL0     H69742   4.680  -0.898   9.610  1.4392 -3.2720 -1.6099
  517MOL0     H69743   4.619  -0.844   9.453  1.9686  0.3359 -2.9385
  517MOL0     H69744   4.861  -0.978   9.523 -2.2926 -0.2734  0.8241
  517MOL0     H69745   4.849  -0.890   9.362  0.1106  2.0215  1.8970
  517MOL0     H69746   4.605  -1.131   9.563 -0.1336 -0.3461 -0.4856
  517MOL0     H69747   4.413  -1.355   9.311  1.4847  2.1372 -1.7271
  517MOL0     H69748   4.430  -1.322   9.489 -4.6540 -0.3914  0.0509
  517MOL0     H69749   4.248  -1.191   9.297 -2.6854 -2.4868 -0.0368
  517MOL0     H69750   4.307  -1.098   9.438 -0.0752 -0.5131  1.4794
  517MOL0     H69751   4.101  -1.205   9.465 -0.0829  0.9894  0.4333
  517MOL0     H69752   4.225  -1.254   9.584 -1.2476  2.0149 -0.1673
  517MOL0     H69753   4.168  -1.425   9.340  1.3858 -1.0317  0.0469
  517MOL0     H69754   4.062  -1.421   9.493 -0.5750  3.2289 -1.6071
  517MOL0     H69755   4.009  -1.596   9.398  1.6327 -0.0331  0.0313
  517MOL0     H69756   3.804  -1.708   9.428  0.7496  0.4083  1.0612
  517MOL0     H69757   3.878  -1.835   9.325 -1.0446  1.9923 -0.1678
  517MOL0     H69758   3.800  -1.869   9.482  0.7951  1.4158  2.4052
  517MOL0     H69759   4.150  -2.340   9.682 -0.4837  0.8145 -2.1605
  517MOL0     H69760   4.035  -2.540   9.775 -0.8756  0.0657 -0.6218
  517MOL0     H69761   3.972  -2.648   9.982  0.7490 -0.1096  3.0441
  517MOL0     H69762   3.924  -2.530  10.093 -1.0932 -2.1547  2.9050
  517MOL0     H69763   3.787  -2.793  10.037  3.9190 -1.6854  0.3030
  517MOL0     H69764   3.902  -2.755  10.160  0.8880  2.6209  0.9014
  517MOL0     H69765   3.661  -2.755  10.249  1.6221 -0.6527  0.2759
  517MOL0     H69766   3.639  -2.611  10.152 -1.6351 -1.3643  1.8988
  517MOL0     H69767   3.861  -2.646  10.361  0.5370 -0.8367 -1.3398
  517MOL0     H69768   3.801  -2.502  10.268  1.7693 -2.1612 -3.0865
  517MOL0     H69769   3.635  -2.673  10.439 -1.9229  0.8113  1.9572
  517MOL0     H69770   3.582  -2.521  10.367 -1.6183 -1.9986 -1.0761
  517MOL0     H69771   3.784  -2.588  10.600 -1.2903 -1.0677 -0.9475
  517MOL0     H69772   3.835  -2.454  10.504  0.4805 -0.8647 -0.7099
  517MOL0     H69773   3.613  -2.348  10.549 -0.0161  0.7830  0.8882
  517MOL0     H69774   3.699  -2.367  10.698 -1.3386  0.0145  0.4496
  517MOL0     H69775   3.475  -2.541  10.592  1.5056  0.6489 -1.5126
  517MOL0     H69776   3.487  -2.462  10.757 -0.8659 -2.8625  1.9561
  517MOL0     H69777   3.724  -2.293   9.935  0.9027 -0.7717  0.6417
  517MOL0     H69778   3.814  -2.105   9.808 -0.6566 -0.7064  2.3713
  517MOL0     H69779   4.246  -1.918   9.691 -0.5085  2.4188  2.5606
  517MOL0     H69780   4.351  -1.698   9.622  0.6914 -1.6302  0.2440
  517MOL0     H69781   4.666  -0.230   9.907  0.8872  0.6632 -1.3470
  517MOL0     H69782   4.583   0.002   9.963  0.2563  1.9589 -2.2941
  517MOL0     H69783   4.667   0.414   9.842 -0.0312  1.0794 -0.9617
  517MOL0     H69784   4.642   0.652   9.781  2.5412  0.1120  0.1334
  517MOL0     H69785   4.601   0.887   9.769 -0.2850  1.7080 -0.0800
  517MOL0     H69786   4.482   0.807   9.871  1.0527 -0.2511 -2.4706
  517MOL0     H69787   4.430   1.005  10.007  1.8944 -1.0730  1.8155
  517MOL0     H69788   4.394   1.027   9.835 -0.3953  0.9511  1.0786
  517MOL0     H69789   4.600   1.156   9.792 -0.2521  1.8273  0.1793
  517MOL0     H69790   4.635   1.156   9.963  0.0725  0.0616 -0.1599
  517MOL0     H69791   4.430   1.267  10.021  0.4121 -2.2573  0.9939
  517MOL0     H69792   4.376   1.277   9.848 -0.9147 -2.5466  2.3822
  517MOL0     H69793   4.641   1.592   9.926  1.2636 -0.7659  4.4267
  517MOL0     H69794   4.753   0.767  10.177 -0.4633 -0.1452 -0.7306
  517MOL0     H69795   4.762   0.563  10.243 -1.9101  3.6828  0.8337
  518MOL0     O69796  11.320   7.567   3.266  0.2403  0.9371  0.1731
  518MOL0     C69797  11.210   7.538   3.310 -1.8787 -0.0569  0.6891
  518MOL0     O69798  11.090   7.561   3.247  0.5305  0.2361 -0.4659
  518MOL0     C69799  11.097   7.611   3.119  0.5693  0.5908 -0.7771
  518MOL0     C69800  11.083   7.745   3.109  1.0370  0.2952  0.0609
  518MOL0     C69801  11.082   7.800   2.981 -0.3873  0.5563 -0.2560
  518MOL0     C69802  11.100   7.721   2.869  0.0901  0.9893  1.0235
  518MOL0     O69803  11.088   7.789   2.751  0.8726  0.5447  0.8019
  518MOL0     C69804  11.060   7.729   2.622 -0.6856 -0.1529 -0.3447
  518MOL0     C69805  11.044   7.844   2.518  0.3564  0.1490 -0.1000
  518MOL0     C69806  10.907   7.927   2.515 -0.2712 -0.0185  0.5067
  518MOL0     C69807  10.896   8.014   2.639 -0.4190  0.1651 -0.5775
  518MOL0     C69808  10.755   8.079   2.652 -0.5971  0.0991  0.1707
  518MOL0     C69809  10.644   7.980   2.674  0.1153  0.4586  0.1965
  518MOL0     C69810  10.673   7.869   2.783  0.0697  1.1177  0.5521
  518MOL0     C69811  10.548   7.779   2.808 -0.4554  0.8417  0.3800
  518MOL0     N69812  10.570   7.664   2.905  0.2906 -0.9235  0.9514
  518MOL0     C69813  10.681   7.582   2.913  0.2092  0.5263  0.5848
  518MOL0     C69814  10.655   7.507   3.022  0.5266  0.3421  0.1832
  518MOL0     C69815  10.738   7.401   3.092  0.3711 -0.0476 -1.1764
  518MOL0     C69816  10.669   7.267   3.102 -0.0457 -0.3841  0.2599
  518MOL0     C69817  10.751   7.176   3.194 -0.5593  0.2909 -0.1769
  518MOL0     C69818  10.752   7.208   3.347 -0.9933 -0.1340 -0.0156
  518MOL0     O69819  10.849   7.129   3.417 -0.2082 -0.0973  0.1313
  518MOL0     C69820  10.803   7.036   3.505  0.3043  0.7810  0.1422
  518MOL0     C69821  10.686   6.959   3.498 -0.1541 -0.1906 -0.5137
  518MOL0     C69822  10.648   6.875   3.596 -0.7829  0.5869 -0.4017
  518MOL0     C69823  10.522   6.806   3.572  0.3848  0.7615 -0.2788
  518MOL0     C69824  10.731   6.848   3.708  0.2639  0.3844  0.2462
  518MOL0     C69825  10.687   6.768   3.822  0.0013  0.1492 -0.2201
  518MOL0     O69826  10.792   6.709   3.890  0.0826 -0.2751  0.2935
  518MOL0     C69827  10.765   6.602   3.973  0.8186  0.4005  0.1115
  518MOL0     C69828  10.864   6.599   4.082  0.4211 -1.0978 -0.5162
  518MOL0     C69829  10.845   6.512   4.190 -0.2022  0.4637 -0.3538
  518MOL0     C69830  10.741   6.422   4.181  1.8288  0.5606 -0.5794
  518MOL0     O69831  10.726   6.325   4.288  0.0999  0.0440  1.3643
  518MOL0     C69832  10.799   6.205   4.255  0.7733  0.9043 -0.2954
  518MOL0     C69833  10.699   6.079   4.245 -0.5562 -0.4611 -0.7405
  518MOL0     C69834  10.671   6.031   4.390 -0.5736 -0.0625  0.5244
  518MOL0     C69835  10.545   5.940   4.395 -0.2390 -0.3389  0.6663
  518MOL0     C69836  10.507   5.926   4.538  0.7216  0.0024 -0.7441
  518MOL0     C69837  10.370   5.865   4.563  0.5171  0.6484  0.2765
  518MOL0     C69838  10.380   5.716   4.537 -0.1705  0.2738 -0.4609
  518MOL0     C69839  10.248   5.644   4.525  0.8442 -0.5798  0.4277
  518MOL0    Cl69840  10.261   5.475   4.477 -0.0813  0.6338 -0.3704
  518MOL0     C69841  10.646   6.424   4.079  0.0060  0.3818  0.6517
  518MOL0     C69842  10.664   6.517   3.974 -0.6553  0.0094 -0.6270
  518MOL0     O69843  10.567   6.756   3.852 -0.8549  0.2043 -0.5814
  518MOL0     C69844  10.862   6.908   3.709  0.2663  0.6160  0.4593
  518MOL0     C69845  10.891   7.006   3.612 -0.0769  0.1023 -0.2348
  518MOL0     N69846  10.539   7.549   3.076 -0.0382  0.5302  0.5257
  518MOL0     N69847  10.494   7.650   3.008  0.1328 -0.2782 -0.6037
  518MOL0     C69848  11.103   7.582   2.875 -0.3944 -0.4065  1.4515
  518MOL0     C69849  11.107   7.528   3.005  0.3457  0.5229  0.7295
  518MOL0     C69850  11.220   7.480   3.437  0.6486 -0.6492  0.5067
  518MOL0     C69851  11.099   7.421   3.486  0.4654 -0.4149 -0.8648
  518MOL0     C69852  11.098   7.356   3.609  0.8504  0.2517 -0.5467
  518MOL0     C69853  11.210   7.359   3.688  0.1627 -0.3526 -0.7436
  518MOL0     O69854  11.211   7.308   3.819  0.5212  0.4709 -0.2864
  518MOL0     C69855  11.316   7.215   3.859  0.7151 -0.2659  0.3956
  518MOL0     C69856  11.279   7.067   3.872  0.2600 -0.0771  0.5800
  518MOL0     C69857  11.191   7.033   3.985  0.6970 -0.3403 -0.4809
  518MOL0     C69858  11.064   7.125   3.980 -0.0837 -0.9733  0.3244
  518MOL0     C69859  10.959   7.061   4.063 -0.2690  0.8089  0.1860
  518MOL0     C69860  10.863   6.994   4.111  0.1558  0.2727  0.2331
  518MOL0     C69861  11.328   7.415   3.634 -0.5970 -0.7517 -1.1384
  518MOL0     C69862  11.336   7.483   3.516 -0.2621 -0.2700  0.2421
  518MOL0     H69863  11.073   7.817   3.191 -5.8276  1.8995 -1.5073
  518MOL0     H69864  11.075   7.906   2.957 -0.7182  0.5370 -0.2353
  518MOL0     H69865  11.141   7.661   2.592 -1.3949 -1.5744  0.8427
  518MOL0     H69866  10.966   7.675   2.638 -0.0753 -0.8292  1.0840
  518MOL0     H69867  11.128   7.913   2.514  2.4895 -2.3087 -0.1373
  518MOL0     H69868  11.048   7.792   2.422 -2.3568  1.9945 -1.3415
  518MOL0     H69869  10.902   7.986   2.423  0.9613  1.3181  1.2634
  518MOL0     H69870  10.827   7.854   2.506  0.1477 -0.4604  0.3371
  518MOL0     H69871  10.915   7.961   2.733 -0.1810 -0.3169 -0.8915
  518MOL0     H69872  10.972   8.093   2.635  0.0478 -0.2430  0.1182
  518MOL0     H69873  10.760   8.149   2.736  0.9432  2.6080 -1.8070
  518MOL0     H69874  10.723   8.151   2.575 -1.7544  1.7680  2.1198
  518MOL0     H69875  10.548   8.030   2.686 -0.7480 -1.5178  2.3495
  518MOL0     H69876  10.638   7.923   2.581  0.0749  1.5226 -0.4680
  518MOL0     H69877  10.752   7.801   2.749  0.0625  0.3898  1.9432
  518MOL0     H69878  10.694   7.919   2.878  3.3372 -1.2108  1.1993
  518MOL0     H69879  10.521   7.741   2.709 -0.9490  2.8359 -0.2860
  518MOL0     H69880  10.460   7.836   2.837 -1.0536 -1.2811  3.1215
  518MOL0     H69881  10.764   7.576   2.844 -0.6770 -3.9874 -0.3847
  518MOL0     H69882  10.842   7.388   3.061  0.3141 -1.5172 -0.7976
  518MOL0     H69883  10.740   7.444   3.193 -0.7277 -1.2046 -0.6284
  518MOL0     H69884  10.669   7.234   2.998  2.5746 -0.7967  0.3349
  518MOL0     H69885  10.565   7.277   3.136  0.2844 -0.8273  1.4516
  518MOL0     H69886  10.853   7.189   3.155 -0.1930 -2.1010 -0.2059
  518MOL0     H69887  10.716   7.073   3.181  0.9329 -0.3143  0.3276
  518MOL0     H69888  10.651   7.177   3.375 -1.1607  1.0910  0.7931
  518MOL0     H69889  10.766   7.309   3.385  0.1202  0.0836 -0.9284
  518MOL0     H69890  10.611   6.982   3.423 -2.2284 -3.7079  0.2359
  518MOL0     H69891  10.453   6.854   3.643  2.5780  2.5624  0.7529
  518MOL0     H69892  10.482   6.835   3.474  0.2242 -0.8665 -0.7158
  518MOL0     H69893  10.511   6.698   3.585  0.2862  0.7912 -0.1084
  518MOL0     H69894  10.947   6.668   4.094 -0.5178 -0.3634  2.5141
  518MOL0     H69895  10.911   6.499   4.275  0.4167  3.4288 -0.2918
  518MOL0     H69896  10.854   6.221   4.162 -2.0131 -0.2416 -2.2658
  518MOL0     H69897  10.874   6.192   4.334  0.7892 -1.8173 -0.6826
  518MOL0     H69898  10.606   6.115   4.202 -1.2369  1.4268  2.0665
  518MOL0     H69899  10.748   6.004   4.182 -0.0554 -0.2963 -0.5521
  518MOL0     H69900  10.645   6.119   4.450 -0.5296 -2.1976  3.8707
  518MOL0     H69901  10.751   5.979   4.443  2.4754  2.0317 -1.6402
  518MOL0     H69902  10.470   5.976   4.325  1.1607  0.4186 -0.5037
  518MOL0     H69903  10.566   5.842   4.351  0.4836  0.4062 -0.7223
  518MOL0     H69904  10.495   6.019   4.595 -0.4372 -1.8190  2.2187
  518MOL0     H69905  10.581   5.865   4.591 -0.5471 -3.0962 -2.3055
  518MOL0     H69906  10.347   5.877   4.669  0.0706  2.8383 -0.0249
  518MOL0     H69907  10.294   5.911   4.500  0.2314  0.5752  0.5657
  518MOL0     H69908  10.447   5.684   4.617  0.8642  0.7218 -1.1222
  518MOL0     H69909  10.439   5.693   4.448 -0.0943 -0.9325 -0.1061
  518MOL0     H69910  10.186   5.692   4.449 -0.6232  0.5037  2.2357
  518MOL0     H69911  10.192   5.663   4.617 -0.6135 -2.2636 -0.0554
  518MOL0     H69912  10.557   6.362   4.071  0.6488 -1.1191  3.5275
  518MOL0     H69913  10.586   6.517   3.898 -0.1354  1.0053 -1.1819
  518MOL0     H69914  10.937   6.893   3.786  2.1250  2.5912 -0.8465
  518MOL0     H69915  10.977   7.069   3.632 -0.3598  0.6230 -0.6387
  518MOL0     H69916  11.110   7.519   2.788 -1.0874  0.5726  0.6633
  518MOL0     H69917  11.122   7.421   3.008 -0.4229  0.4267  1.4234
  518MOL0     H69918  11.007   7.424   3.428  0.4029  2.0360 -0.7556
  518MOL0     H69919  11.012   7.306   3.653  0.3800  3.2215  2.3254
  518MOL0     H69920  11.405   7.235   3.797 -0.4204  2.1400 -0.5802
  518MOL0     H69921  11.340   7.246   3.961 -1.9953 -0.1431  1.0755
  518MOL0     H69922  11.378   7.020   3.878  0.9837  1.4031  0.8030
  518MOL0     H69923  11.218   7.031   3.789  0.8557  1.1169 -0.4042
  518MOL0     H69924  11.229   7.049   4.086  1.8907  2.5079 -1.2819
  518MOL0     H69925  11.160   6.929   3.973 -2.0442  0.4667 -1.2265
  518MOL0     H69926  11.028   7.137   3.878 -2.2272 -2.0122  0.8875
  518MOL0     H69927  11.083   7.229   4.008 -0.0113 -0.8991 -0.0012
  518MOL0     H69928  10.773   6.955   4.154 -0.8147  2.0215 -0.1236
  518MOL0     H69929  11.421   7.415   3.691 -2.3008  1.9644  1.9684
  518MOL0     H69930  11.430   7.523   3.482  0.2266 -2.8866 -1.7867
  519MOL0     O69931   5.043   8.060   1.973  0.6087  0.7041 -0.9015
  519MOL0     C69932   5.031   7.931   1.977  0.8815 -0.0860  0.5357
  519MOL0     O69933   4.919   7.858   2.000 -0.8522 -0.5047 -0.1597
  519MOL0     C69934   4.793   7.918   2.006 -0.6178  0.5150 -0.7285
  519MOL0     C69935   4.762   8.054   2.032 -0.0753  0.6377  0.6151
  519MOL0     C69936   4.623   8.101   2.038 -0.1422  0.3858 -0.1728
  519MOL0     C69937   4.526   8.002   2.031  0.3641  0.1209 -0.2070
  519MOL0     O69938   4.401   8.048   2.073 -0.0289  0.5640 -0.1707
  519MOL0     C69939   4.335   7.979   2.182 -0.0272 -0.2782  0.2003
  519MOL0     C69940   4.388   8.001   2.325  0.2125  0.5670  0.4369
  519MOL0     C69941   4.493   7.883   2.345 -0.6448  0.7777 -0.2211
  519MOL0     C69942   4.518   7.844   2.490 -0.4573 -0.2480 -0.1132
  519MOL0     C69943   4.616   7.731   2.507  0.6164  0.2684 -0.3259
  519MOL0     C69944   4.756   7.756   2.446  0.8552 -0.6980  0.0039
  519MOL0     C69945   4.821   7.625   2.445  0.6225 -0.6819  0.6945
  519MOL0     C69946   4.888   7.603   2.302  0.7741  0.8030  0.3859
  519MOL0     N69947   4.964   7.484   2.275 -0.5566 -0.1130  0.7588
  519MOL0     C69948   4.953   7.354   2.331 -0.7839  0.1817  0.1042
  519MOL0     C69949   5.063   7.287   2.283 -0.8542  1.1812  1.0545
  519MOL0     C69950   5.119   7.153   2.315 -0.6300  0.0496  0.3549
  519MOL0     C69951   5.045   7.089   2.431 -0.4079 -0.3812 -0.7519
  519MOL0     C69952   5.067   6.937   2.444  0.0361  0.3274  0.3691
  519MOL0     C69953   4.956   6.875   2.531  0.7674 -0.5633  0.0586
  519MOL0     O69954   4.946   6.728   2.520 -0.3352  0.0766 -0.1974
  519MOL0     C69955   4.870   6.657   2.614  0.6923 -0.7951  0.7460
  519MOL0     C69956   4.916   6.580   2.710  0.6153  0.0043 -0.0842
  519MOL0     C69957   4.829   6.505   2.796  0.4877 -0.3725 -0.2936
  519MOL0     C69958   4.895   6.402   2.884 -0.5856 -0.0124 -0.0149
  519MOL0     C69959   4.684   6.521   2.780  0.0806 -0.1174 -0.8545
  519MOL0     C69960   4.579   6.462   2.876 -0.2341  0.2228  0.7453
  519MOL0     O69961   4.460   6.419   2.820  0.3231  0.2147 -0.0302
  519MOL0     C69962   4.354   6.379   2.897 -0.0925  0.0196 -0.2221
  519MOL0     C69963   4.227   6.386   2.832 -0.2707  0.3317  0.3246
  519MOL0     C69964   4.114   6.345   2.896  0.6984  0.2473 -0.2883
  519MOL0     C69965   4.114   6.285   3.023 -0.5784 -0.2496  0.5824
  519MOL0     O69966   3.990   6.264   3.067 -0.1875  0.4041  0.1882
  519MOL0     C69967   3.981   6.249   3.207  0.8919 -0.3680 -0.3718
  519MOL0     C69968   3.827   6.206   3.246  0.0492  0.4340  0.1476
  519MOL0     C69969   3.817   6.193   3.400  0.7764 -0.0134 -0.8295
  519MOL0     C69970   3.673   6.162   3.438 -0.1479  0.4780 -0.4714
  519MOL0     C69971   3.642   6.160   3.581 -0.5972  0.3956 -0.6755
  519MOL0     C69972   3.492   6.173   3.611 -1.2070  0.6572 -0.3321
  519MOL0     C69973   3.474   6.147   3.762  0.2726 -0.1968  0.0159
  519MOL0     C69974   3.327   6.142   3.792  0.0019  0.5896  1.5563
  519MOL0    Cl69975   3.233   6.030   3.684  0.0861 -0.1753  0.0209
  519MOL0     C69976   4.236   6.289   3.095  0.4149  0.5285  0.2939
  519MOL0     C69977   4.350   6.338   3.032  0.1602  0.8009 -0.1664
  519MOL0     O69978   4.610   6.457   2.991  0.7282  1.2196 -0.8715
  519MOL0     C69979   4.633   6.611   2.690 -0.5505  0.3637  0.1172
  519MOL0     C69980   4.735   6.670   2.608 -0.3005 -0.3507 -1.0813
  519MOL0     N69981   5.132   7.375   2.203  0.3482 -0.3845  0.7117
  519MOL0     N69982   5.080   7.488   2.206  0.5957  0.3749 -0.5199
  519MOL0     C69983   4.554   7.867   2.010  0.4545  0.2153 -0.1936
  519MOL0     C69984   4.692   7.827   1.999 -0.2426 -0.6323 -0.2553
  519MOL0     C69985   5.147   7.841   1.954  0.2127  0.1326  1.6991
  519MOL0     C69986   5.131   7.705   1.911 -0.2619  0.2563 -0.0141
  519MOL0     C69987   5.240   7.620   1.891  0.7648 -0.0650 -0.5355
  519MOL0     C69988   5.366   7.664   1.918 -0.8964 -0.2106 -0.9247
  519MOL0     O69989   5.478   7.592   1.877  0.6508 -0.6108 -0.3801
  519MOL0     C69990   5.488   7.463   1.933 -0.1380 -0.1943  0.4858
  519MOL0     C69991   5.566   7.472   2.061 -0.5939  0.1722 -0.5174
  519MOL0     C69992   5.595   7.332   2.117 -0.2126 -0.0440  0.7102
  519MOL0     C69993   5.489   7.270   2.215 -0.2846 -0.2754  0.7941
  519MOL0     C69994   5.526   7.132   2.239 -0.3057 -0.2800 -0.1462
  519MOL0     C69995   5.557   7.017   2.274  0.3565  0.3480  0.4502
  519MOL0     C69996   5.381   7.790   1.978  0.3929  1.1481 -1.1924
  519MOL0     C69997   5.278   7.882   1.990  0.4899 -0.3852  0.8367
  519MOL0     H69998   4.839   8.128   2.052 -0.5501  1.7341 -1.3359
  519MOL0     H69999   4.580   8.199   2.057  1.8706  1.0679  1.2431
  519MOL0     H70000   4.234   8.021   2.179  0.9555  2.2156 -1.6711
  519MOL0     H70001   4.326   7.873   2.159 -0.0927 -0.0634 -0.7932
  519MOL0     H70002   4.425   8.101   2.349  2.1731 -0.5140  2.2297
  519MOL0     H70003   4.307   7.984   2.397 -1.1508  2.2379 -0.6272
  519MOL0     H70004   4.458   7.794   2.292 -1.6094  1.3084 -0.4992
  519MOL0     H70005   4.581   7.910   2.287  0.7309 -1.0122  0.9169
  519MOL0     H70006   4.562   7.928   2.545  0.6359  1.0599 -2.8355
  519MOL0     H70007   4.426   7.805   2.535 -1.9168 -0.3393 -2.9918
  519MOL0     H70008   4.624   7.708   2.614 -1.2320  0.5672 -0.0925
  519MOL0     H70009   4.575   7.641   2.460 -1.0198 -1.0858  3.3038
  519MOL0     H70010   4.740   7.789   2.343  0.3632  3.5577  1.2656
  519MOL0     H70011   4.812   7.831   2.502  1.8678  0.1270 -2.0257
  519MOL0     H70012   4.895   7.627   2.526  0.6017  2.6524  0.7811
  519MOL0     H70013   4.745   7.547   2.456 -2.8936  2.2405 -0.5965
  519MOL0     H70014   4.939   7.698   2.281 -2.5634  2.0573 -3.3598
  519MOL0     H70015   4.804   7.591   2.233  1.2669 -0.9992  0.0609
  519MOL0     H70016   4.879   7.334   2.408  0.8919  0.6284  1.8974
  519MOL0     H70017   5.091   7.094   2.227 -1.3770 -0.5270  0.9603
  519MOL0     H70018   5.227   7.159   2.327 -0.2814 -2.7068 -0.7216
  519MOL0     H70019   4.936   7.101   2.428 -0.3420  1.0353  0.9756
  519MOL0     H70020   5.074   7.132   2.527  2.4703 -0.4837 -1.4888
  519MOL0     H70021   5.168   6.923   2.483 -0.9370 -0.8858  2.6413
  519MOL0     H70022   5.047   6.883   2.351 -0.7001 -1.7905  1.6898
  519MOL0     H70023   4.860   6.918   2.500  1.3504 -0.7023 -2.1006
  519MOL0     H70024   4.957   6.907   2.635 -0.8230  1.3683 -0.4535
  519MOL0     H70025   5.022   6.558   2.714  0.8712  1.0049 -0.9788
  519MOL0     H70026   4.988   6.450   2.918 -0.4258  0.4276 -1.0392
  519MOL0     H70027   4.828   6.377   2.966 -3.3562  3.3516 -1.0454
  519MOL0     H70028   4.915   6.308   2.831 -2.1809 -0.6356  0.4502
  519MOL0     H70029   4.208   6.413   2.728 -2.4747 -2.5966 -0.1725
  519MOL0     H70030   4.018   6.351   2.847 -0.6583  0.4837  2.2265
  519MOL0     H70031   4.035   6.161   3.243  0.6360  0.4758  2.2175
  519MOL0     H70032   4.005   6.343   3.256  0.0719  0.5668 -1.6728
  519MOL0     H70033   3.762   6.290   3.221  0.8812  1.7183  2.0070
  519MOL0     H70034   3.796   6.115   3.193  3.2797  0.5641 -2.2854
  519MOL0     H70035   3.832   6.287   3.453 -4.0699 -0.0345  1.0615
  519MOL0     H70036   3.882   6.115   3.440  0.5480  1.0579  1.8123
  519MOL0     H70037   3.599   6.229   3.393 -1.8652  2.3718  4.4186
  519MOL0     H70038   3.655   6.066   3.389 -2.1068  1.4201 -1.7136
  519MOL0     H70039   3.705   6.236   3.627 -1.0852  1.4410 -1.6842
  519MOL0     H70040   3.668   6.055   3.602 -0.0606 -0.0048 -3.0337
  519MOL0     H70041   3.443   6.267   3.584  0.5142  1.0264 -2.4794
  519MOL0     H70042   3.445   6.090   3.556 -1.3000  0.0552  0.6377
  519MOL0     H70043   3.519   6.233   3.812 -0.9824 -1.0770  2.8346
  519MOL0     H70044   3.515   6.050   3.790 -0.1105 -0.0623  1.0584
  519MOL0     H70045   3.283   6.242   3.782  1.3157  0.9917 -0.8988
  519MOL0     H70046   3.299   6.114   3.895 -5.0152  0.1873  0.3582
  519MOL0     H70047   4.241   6.249   3.196 -1.8963  0.5458  0.4577
  519MOL0     H70048   4.443   6.332   3.088  2.2842  1.9191 -3.2722
  519MOL0     H70049   4.527   6.629   2.684 -0.8636 -1.1653  0.6817
  519MOL0     H70050   4.692   6.737   2.534 -5.6845  0.2595  2.0688
  519MOL0     H70051   4.469   7.800   1.998 -1.2631  2.2427  0.2123
  519MOL0     H70052   4.709   7.721   1.986  1.6789 -0.3791 -0.1380
  519MOL0     H70053   5.028   7.674   1.892 -0.2149  1.1094 -1.8429
  519MOL0     H70054   5.233   7.525   1.840  0.8892 -0.4920  0.2284
  519MOL0     H70055   5.395   7.408   1.947 -1.2780  1.9677  2.1003
  519MOL0     H70056   5.535   7.403   1.854 -1.5424 -2.2761  1.1645
  519MOL0     H70057   5.523   7.530   2.143  2.3871 -1.3544  2.3888
  519MOL0     H70058   5.661   7.522   2.037  0.9527 -2.3258  0.0126
  519MOL0     H70059   5.688   7.340   2.173  0.8485 -0.6489 -0.8910
  519MOL0     H70060   5.613   7.264   2.033 -1.3178 -0.1696  0.5609
  519MOL0     H70061   5.389   7.283   2.170  0.6020  3.7397 -0.3923
  519MOL0     H70062   5.472   7.325   2.308 -2.7543 -2.6719  1.9043
  519MOL0     H70063   5.565   6.914   2.302 -3.2401  0.1111  1.0865
  519MOL0     H70064   5.482   7.823   2.001  0.2080 -0.1250  1.9832
  519MOL0     H70065   5.296   7.987   2.010  1.4304 -0.4471  0.3392
  520MOL0     O70066   4.480   8.380   1.341  0.2762 -0.5859 -0.1540
  520MOL0     C70067   4.367   8.334   1.318 -0.2756 -0.3221  0.1906
  520MOL0     O70068   4.334   8.234   1.226 -0.2599 -0.2226 -0.6570
  520MOL0     C70069   4.438   8.181   1.153 -0.5053 -0.6156  0.1066
  520MOL0     C70070   4.432   8.159   1.013 -0.9538 -0.8371 -0.4204
  520MOL0     C70071   4.527   8.091   0.939 -0.3144  1.0131 -0.0687
  520MOL0     C70072   4.654   8.074   0.992  0.0290  0.6968 -1.0268
  520MOL0     O70073   4.747   8.043   0.900 -0.0172 -0.7842 -0.1605
  520MOL0     C70074   4.883   8.033   0.922  0.1128  0.3479 -0.5394
  520MOL0     C70075   4.907   7.878   0.920  0.9281  0.3319 -0.4159
  520MOL0     C70076   5.055   7.828   0.879  0.8545  0.1597 -0.5492
  520MOL0     C70077   5.189   7.890   0.944 -0.2460 -0.0918  0.7214
  520MOL0     C70078   5.183   7.896   1.101  0.5746 -0.0965  0.2177
  520MOL0     C70079   5.322   7.954   1.156  1.0362  1.3496  0.4129
  520MOL0     C70080   5.432   7.845   1.151  0.4659 -1.1557  0.1171
  520MOL0     C70081   5.564   7.918   1.174 -0.6751  0.4583  0.1739
  520MOL0     N70082   5.679   7.831   1.205 -0.2037 -0.0204  0.8712
  520MOL0     C70083   5.673   7.735   1.305  0.1551 -0.1505  0.0517
  520MOL0     C70084   5.783   7.659   1.295  0.0926 -0.5418 -0.4017
  520MOL0     C70085   5.820   7.535   1.362 -0.7086 -0.5532  0.2517
  520MOL0     C70086   5.708   7.439   1.406 -0.1720  0.4767 -0.0086
  520MOL0     C70087   5.779   7.304   1.432  0.6652 -0.1693  0.6567
  520MOL0     C70088   5.692   7.204   1.507  0.6818  0.5617 -0.7471
  520MOL0     O70089   5.646   7.262   1.632 -0.0170  1.0014  0.4044
  520MOL0     C70090   5.556   7.178   1.702 -0.3145  0.7192  0.4698
  520MOL0     C70091   5.424   7.190   1.719  0.0771 -0.5361 -1.1798
  520MOL0     C70092   5.341   7.123   1.820  0.7726 -0.3412  0.1565
  520MOL0     C70093   5.197   7.176   1.847 -0.1352 -0.1656 -0.9253
  520MOL0     C70094   5.418   7.032   1.898 -0.3440 -0.4727 -0.6119
  520MOL0     C70095   5.353   6.949   2.006  0.3640  1.4436  0.3207
  520MOL0     O70096   5.423   6.835   2.041  0.7105 -0.1207 -0.1102
  520MOL0     C70097   5.397   6.751   2.148  0.7205 -0.4333 -0.3839
  520MOL0     C70098   5.301   6.757   2.250  0.4611 -0.6442 -1.5339
  520MOL0     C70099   5.285   6.656   2.345  0.3417 -0.2046  0.3266
  520MOL0     C70100   5.384   6.551   2.351 -0.1369 -0.9422 -0.0898
  520MOL0     O70101   5.396   6.453   2.440  0.1931  0.6911  0.0013
  520MOL0     C70102   5.277   6.428   2.510 -0.1674  0.6645  0.8902
  520MOL0     C70103   5.291   6.301   2.596  0.5413 -0.0684 -0.1462
  520MOL0     C70104   5.353   6.181   2.515  0.1648  0.1426 -1.2294
  520MOL0     C70105   5.370   6.059   2.611  0.5760  0.3308  0.4911
  520MOL0     C70106   5.244   5.974   2.642 -0.2221 -1.0700 -0.1192
  520MOL0     C70107   5.283   5.835   2.694  0.2041 -0.6885 -0.0452
  520MOL0     C70108   5.148   5.762   2.723 -0.9110  0.2000 -0.5628
  520MOL0     C70109   5.141   5.610   2.771 -0.0926 -0.0339  0.4374
  520MOL0    Cl70110   4.965   5.559   2.788  0.0853  0.0299  0.4021
  520MOL0     C70111   5.480   6.541   2.249 -0.5977  1.1074  0.5701
  520MOL0     C70112   5.487   6.642   2.154  0.1988  0.1953  0.1551
  520MOL0     O70113   5.245   6.980   2.051  0.1557 -0.1258  0.0337
  520MOL0     C70114   5.550   7.006   1.877 -0.7410  0.1331  0.5091
  520MOL0     C70115   5.623   7.088   1.782  0.0040 -0.0785 -1.0323
  520MOL0     N70116   5.857   7.717   1.197 -0.2487  0.0556  0.1457
  520MOL0     N70117   5.800   7.823   1.143 -0.2714  0.0624 -0.8286
  520MOL0     C70118   4.667   8.094   1.129  0.1345 -0.5709 -0.3741
  520MOL0     C70119   4.562   8.149   1.215 -1.0356  0.0104  0.1542
  520MOL0     C70120   4.256   8.394   1.382  0.0629  1.0535  0.3406
  520MOL0     C70121   4.271   8.513   1.462 -0.0651 -1.5286 -0.6418
  520MOL0     C70122   4.160   8.567   1.524 -0.2532  0.6831 -0.2908
  520MOL0     C70123   4.030   8.518   1.502 -0.1577  0.1097  0.9063
  520MOL0     O70124   3.924   8.587   1.549 -0.0950  0.4600 -0.4219
  520MOL0     C70125   3.869   8.529   1.668 -0.9219 -0.9732 -0.6603
  520MOL0     C70126   3.828   8.656   1.757 -0.1176  0.2941  0.9713
  520MOL0     C70127   3.953   8.746   1.787  0.0926  0.2812  0.2589
  520MOL0     C70128   3.957   8.831   1.915  0.1431  0.0470 -0.5590
  520MOL0     C70129   3.841   8.919   1.933  1.1036  0.9185  0.0908
  520MOL0     C70130   3.738   8.978   1.950 -0.4644  0.8215 -0.7117
  520MOL0     C70131   4.015   8.420   1.410 -0.4668  0.3094 -0.1139
  520MOL0     C70132   4.125   8.344   1.362 -0.7470  0.2883  0.0223
  520MOL0     H70133   4.338   8.191   0.969  0.2757  3.8781 -0.1073
  520MOL0     H70134   4.502   8.062   0.837 -2.5882  1.6809  0.2382
  520MOL0     H70135   4.934   8.095   0.847  0.9981  1.9242  1.2657
  520MOL0     H70136   4.913   8.081   1.016  1.7698 -0.6407 -0.5132
  520MOL0     H70137   4.873   7.822   1.008 -1.7080  1.5892 -0.5398
  520MOL0     H70138   4.848   7.831   0.841 -1.6166 -1.9073  2.5833
  520MOL0     H70139   5.058   7.723   0.909  2.1995  0.0155 -1.1362
  520MOL0     H70140   5.053   7.834   0.770 -0.3924  1.0442 -0.4939
  520MOL0     H70141   5.271   7.836   0.897 -0.4485  1.8990 -2.1914
  520MOL0     H70142   5.191   7.994   0.911  0.0913 -0.3439 -0.0562
  520MOL0     H70143   5.101   7.963   1.128  0.2659  0.8611 -2.7655
  520MOL0     H70144   5.149   7.805   1.150  0.8195  0.3001  1.1589
  520MOL0     H70145   5.350   8.034   1.086  1.4409 -0.7231 -1.9444
  520MOL0     H70146   5.317   8.002   1.254 -0.8761  3.7377 -0.7530
  520MOL0     H70147   5.405   7.770   1.226  3.4275 -2.3297  0.1573
  520MOL0     H70148   5.442   7.812   1.047 -0.2526  0.2295 -0.4229
  520MOL0     H70149   5.560   7.978   1.265  2.7808 -0.7865  1.3089
  520MOL0     H70150   5.594   7.975   1.086 -2.7145 -3.7220 -3.6673
  520MOL0     H70151   5.592   7.710   1.373  1.0406 -0.0806  1.1554
  520MOL0     H70152   5.900   7.481   1.310 -1.7482 -1.3619 -0.5474
  520MOL0     H70153   5.863   7.572   1.456 -3.3989  2.3209  0.5309
  520MOL0     H70154   5.645   7.434   1.317 -2.1747  0.6649  1.3216
  520MOL0     H70155   5.658   7.482   1.493  1.4111  0.7703  0.7831
  520MOL0     H70156   5.868   7.330   1.490  1.8353  0.0985 -1.1832
  520MOL0     H70157   5.805   7.248   1.342  0.2835 -1.8181  1.5193
  520MOL0     H70158   5.739   7.108   1.530 -1.7221 -0.5752 -0.3318
  520MOL0     H70159   5.604   7.181   1.447  1.4094  1.2606 -2.1238
  520MOL0     H70160   5.366   7.259   1.658 -2.3703  0.5224  2.0583
  520MOL0     H70161   5.177   7.276   1.806  0.0179 -0.5712 -2.0266
  520MOL0     H70162   5.117   7.108   1.818 -0.4956 -0.0173 -0.2852
  520MOL0     H70163   5.180   7.187   1.954 -1.8114  0.0557 -1.1834
  520MOL0     H70164   5.262   6.856   2.267  4.2322  0.6440  0.7536
  520MOL0     H70165   5.208   6.677   2.419 -1.8933 -2.5529 -1.1885
  520MOL0     H70166   5.266   6.515   2.575 -0.5653  1.7590 -0.5893
  520MOL0     H70167   5.188   6.420   2.447  1.1610  2.4190 -1.3124
  520MOL0     H70168   5.365   6.320   2.675 -0.0762  0.9227  0.2032
  520MOL0     H70169   5.196   6.286   2.648 -0.6591 -1.3340 -2.5350
  520MOL0     H70170   5.448   6.213   2.469  1.1740  0.8107  1.1801
  520MOL0     H70171   5.288   6.145   2.435 -0.5434 -2.1678  0.2864
  520MOL0     H70172   5.428   5.988   2.550 -2.6231  1.1659 -4.0244
  520MOL0     H70173   5.419   6.089   2.704 -1.0714 -2.4055  2.3953
  520MOL0     H70174   5.183   5.968   2.552 -1.5553  0.6448  0.6164
  520MOL0     H70175   5.188   6.028   2.719 -2.1219 -0.6702 -1.7088
  520MOL0     H70176   5.340   5.783   2.616  1.1290 -0.2692  0.3374
  520MOL0     H70177   5.337   5.846   2.788  1.5829 -1.1541 -0.7612
  520MOL0     H70178   5.085   5.776   2.635 -0.9768 -1.0519 -0.7347
  520MOL0     H70179   5.101   5.810   2.809 -2.1069  2.7305 -2.5066
  520MOL0     H70180   5.184   5.582   2.868  3.6670  0.2656 -0.9818
  520MOL0     H70181   5.182   5.542   2.697  0.4072  0.4493  0.2614
  520MOL0     H70182   5.554   6.463   2.241 -2.8126 -0.9446 -1.0987
  520MOL0     H70183   5.564   6.632   2.078  0.1921 -0.2076  0.1986
  520MOL0     H70184   5.606   6.938   1.940 -0.2652  0.1247  0.0841
  520MOL0     H70185   5.731   7.079   1.773  0.0259 -2.1594  0.5064
  520MOL0     H70186   4.764   8.073   1.174  1.1179  2.4152 -0.8631
  520MOL0     H70187   4.574   8.155   1.323 -3.4082 -0.6556  0.5190
  520MOL0     H70188   4.369   8.559   1.473  0.5491 -2.1597 -2.9037
  520MOL0     H70189   4.175   8.657   1.582  2.1020 -0.8451  1.6761
  520MOL0     H70190   3.779   8.473   1.640 -1.0500 -1.8735  1.3662
  520MOL0     H70191   3.943   8.467   1.719 -2.7263 -1.5873  1.3366
  520MOL0     H70192   3.790   8.605   1.846  0.9185 -2.2389  0.0667
  520MOL0     H70193   3.751   8.719   1.713  0.5582  2.1507  2.3047
  520MOL0     H70194   3.950   8.824   1.711  1.1630  1.9095  1.7961
  520MOL0     H70195   4.044   8.686   1.781  1.9368  3.0493 -1.3362
  520MOL0     H70196   4.045   8.896   1.921 -0.3813  1.3347 -4.3569
  520MOL0     H70197   3.964   8.759   1.998  0.1419  0.5849 -0.0883
  520MOL0     H70198   3.649   9.035   1.966 -3.0450 -3.5598  2.6569
  520MOL0     H70199   3.913   8.393   1.386  0.2028 -1.3454 -1.3214
  520MOL0     H70200   4.113   8.258   1.297 -0.8972 -0.1617  0.6422
  521MOL0     O70201   1.090   1.625   4.124  0.5428  0.9336  0.4498
  521MOL0     C70202   1.058   1.529   4.196  0.1871 -0.4341 -0.2175
  521MOL0     O70203   1.055   1.395   4.161 -0.9656 -0.3774 -0.2594
  521MOL0     C70204   1.115   1.338   4.045 -0.6514 -0.1322 -1.0155
  521MOL0     C70205   1.192   1.407   3.954 -0.1889  0.9196 -0.2197
  521MOL0     C70206   1.243   1.343   3.833 -0.1168  1.2880  0.2195
  521MOL0     C70207   1.233   1.199   3.818  0.7957 -0.1695  0.0100
  521MOL0     O70208   1.291   1.134   3.712  0.2381 -0.6335 -0.8924
  521MOL0     C70209   1.191   1.086   3.610 -0.8012  0.0524 -0.3992
  521MOL0     C70210   1.277   0.991   3.538 -0.1773 -0.4680 -0.1000
  521MOL0     C70211   1.218   0.946   3.412  0.6990 -0.0792  0.6233
  521MOL0     C70212   1.321   0.882   3.321  0.6541 -0.7365  0.6736
  521MOL0     C70213   1.269   0.767   3.234  0.4463  0.0710  0.2479
  521MOL0     C70214   1.125   0.791   3.179 -0.0584 -0.1634 -0.2692
  521MOL0     C70215   1.091   0.698   3.062 -0.0969 -0.9004  1.2150
  521MOL0     C70216   1.133   0.550   3.079  0.1607  0.2709  0.6870
  521MOL0     N70217   1.032   0.467   3.012 -0.9746 -0.2846  0.4013
  521MOL0     C70218   1.052   0.416   2.888  0.0967  0.2012 -0.6782
  521MOL0     C70219   0.935   0.351   2.854 -0.1917  0.6241 -0.2665
  521MOL0     C70220   0.921   0.289   2.721 -0.6120  0.1644  0.2817
  521MOL0     C70221   0.820   0.363   2.635  0.4948 -0.3480  0.4181
  521MOL0     C70222   0.681   0.298   2.662 -0.0683  0.1823  0.5744
  521MOL0     C70223   0.567   0.386   2.593  0.5851 -0.4942 -0.1994
  521MOL0     O70224   0.539   0.512   2.656 -0.4477  0.6229  0.0746
  521MOL0     C70225   0.448   0.519   2.764  0.5729 -1.3053  0.3424
  521MOL0     C70226   0.412   0.656   2.790 -0.0152 -0.1741 -0.7782
  521MOL0     C70227   0.310   0.690   2.883  1.0845 -0.3899 -0.8084
  521MOL0     C70228   0.269   0.842   2.902 -0.5723  0.1589 -0.2847
  521MOL0     C70229   0.243   0.587   2.959 -0.2217 -0.4671 -0.0303
  521MOL0     C70230   0.145   0.610   3.063  1.1928 -0.3421  0.0982
  521MOL0     O70231   0.093   0.496   3.115  0.7415 -0.4547  0.5569
  521MOL0     C70232   0.039   0.503   3.245  0.2322 -0.1584  0.2994
  521MOL0     C70233   0.129   0.476   3.345 -0.2082  0.4527  0.0096
  521MOL0     C70234   0.080   0.486   3.482  0.8348 -0.5679  0.6881
  521MOL0     C70235  -0.063   0.501   3.506  0.7820 -0.4033 -0.6750
  521MOL0     O70236  -0.087   0.531   3.637 -0.4576  0.9127 -0.3558
  521MOL0     C70237  -0.224   0.561   3.672  0.0552 -0.2407  0.7000
  521MOL0     C70238  -0.261   0.705   3.647  0.6251  0.1248 -0.9541
  521MOL0     C70239  -0.393   0.747   3.710  0.3126 -0.1886 -0.1577
  521MOL0     C70240  -0.428   0.890   3.672 -0.4632  0.1304 -0.0838
  521MOL0     C70241  -0.561   0.954   3.724 -0.0591  0.2364  0.1977
  521MOL0     C70242  -0.681   0.886   3.661 -0.0200 -0.4050  0.7891
  521MOL0     C70243  -0.818   0.967   3.694 -0.4196  1.1076 -0.1736
  521MOL0     C70244  -0.942   0.902   3.632  0.4014  1.0211  0.5121
  521MOL0    Cl70245  -0.926   0.725   3.645 -0.0051  0.1051  0.0488
  521MOL0     C70246  -0.146   0.511   3.394 -0.0432 -0.3033 -0.2249
  521MOL0     C70247  -0.094   0.511   3.269 -0.7878  0.4127  0.6664
  521MOL0     O70248   0.122   0.720   3.097 -0.2868 -0.0976 -0.9761
  521MOL0     C70249   0.271   0.456   2.925 -0.8725  0.6662  0.6057
  521MOL0     C70250   0.372   0.425   2.831 -0.6330  0.3744 -0.7790
  521MOL0     N70251   0.862   0.337   2.977 -0.5325 -0.4854  1.1558
  521MOL0     N70252   0.913   0.423   3.062 -0.3583 -0.3080 -0.0271
  521MOL0     C70253   1.156   1.135   3.920  1.0367  0.0196  0.5427
  521MOL0     C70254   1.097   1.199   4.023  0.4858  0.7915 -0.1590
  521MOL0     C70255   1.011   1.570   4.337  0.8443 -0.5837  0.4289
  521MOL0     C70256   1.006   1.705   4.372 -0.2670 -0.1089  0.2185
  521MOL0     C70257   0.958   1.743   4.499 -0.9758  0.7406 -0.0534
  521MOL0     C70258   0.935   1.641   4.598 -1.0477  1.4858 -0.4862
  521MOL0     O70259   0.900   1.662   4.729 -0.2870  0.2103 -0.2290
  521MOL0     C70260   0.820   1.779   4.754  0.4884 -0.1689  0.6501
  521MOL0     C70261   0.788   1.783   4.896 -0.0447 -0.1217  0.0625
  521MOL0     C70262   0.915   1.777   4.988  0.8586  0.3316 -1.4101
  521MOL0     C70263   0.864   1.785   5.140 -0.6517  0.6367 -0.2720
  521MOL0     C70264   0.804   1.917   5.164  0.1239  0.1406 -0.2187
  521MOL0     C70265   0.750   2.028   5.168  0.6686  0.4439 -0.1637
  521MOL0     C70266   0.943   1.509   4.562 -0.4361  0.5390  0.0410
  521MOL0     C70267   0.971   1.478   4.433 -0.5452  0.8668  0.5014
  521MOL0     H70268   1.212   1.513   3.948  1.8008  0.5995  0.1478
  521MOL0     H70269   1.304   1.397   3.762  1.4304  1.5876  1.6952
  521MOL0     H70270   1.106   1.030   3.650  0.7829 -3.7160 -1.8531
  521MOL0     H70271   1.157   1.165   3.542 -1.3995  0.1577  0.0126
  521MOL0     H70272   1.381   1.023   3.526 -0.5477  1.3172  1.0349
  521MOL0     H70273   1.276   0.905   3.606  0.0508  0.9118  1.7268
  521MOL0     H70274   1.144   0.874   3.447 -0.3445  1.3232  1.4201
  521MOL0     H70275   1.156   1.027   3.371 -0.0722  1.4948  4.3844
  521MOL0     H70276   1.348   0.965   3.255 -2.4280 -0.7588 -0.8005
  521MOL0     H70277   1.411   0.858   3.378  1.0041  0.6905  0.7530
  521MOL0     H70278   1.334   0.745   3.149 -1.8204 -0.8060 -1.3526
  521MOL0     H70279   1.278   0.672   3.289  4.7764  0.5310  0.6300
  521MOL0     H70280   1.057   0.766   3.260 -1.0920  2.0774 -0.3559
  521MOL0     H70281   1.109   0.895   3.148 -0.7079 -0.1173  0.2143
  521MOL0     H70282   0.983   0.692   3.042  0.0344 -2.1711  0.7904
  521MOL0     H70283   1.142   0.740   2.975 -2.6933  2.7062  1.1968
  521MOL0     H70284   1.144   0.519   3.183  0.0638 -2.1027  0.0535
  521MOL0     H70285   1.227   0.533   3.025 -2.2271 -0.6290 -3.7170
  521MOL0     H70286   1.128   0.436   2.813  1.5160  1.9989  1.1484
  521MOL0     H70287   1.015   0.272   2.668 -0.0957  1.4350  0.7577
  521MOL0     H70288   0.882   0.190   2.746 -0.9118 -0.1054 -1.1693
  521MOL0     H70289   0.840   0.365   2.527 -0.8113  3.8491  0.0583
  521MOL0     H70290   0.812   0.470   2.657 -1.1612  0.3846 -3.0616
  521MOL0     H70291   0.665   0.300   2.770 -0.8727 -0.8585  0.4888
  521MOL0     H70292   0.676   0.191   2.641 -1.8497  0.3166  0.1936
  521MOL0     H70293   0.474   0.328   2.589  1.0547 -1.3386  0.6495
  521MOL0     H70294   0.600   0.412   2.492  0.7220  1.5037  0.3256
  521MOL0     H70295   0.457   0.732   2.727  5.7202  0.1108  2.9478
  521MOL0     H70296   0.287   0.883   3.002 -0.3660  1.6339 -0.8902
  521MOL0     H70297   0.327   0.909   2.837  0.2276  1.4140  1.6243
  521MOL0     H70298   0.161   0.839   2.886 -1.0877 -0.8054  2.7333
  521MOL0     H70299   0.235   0.461   3.329  0.1819  2.5953  0.4031
  521MOL0     H70300   0.158   0.479   3.557  2.4395 -1.3189 -0.9589
  521MOL0     H70301  -0.287   0.489   3.621  0.8189 -1.7580  1.7959
  521MOL0     H70302  -0.241   0.544   3.779  2.3215 -2.2027  0.8338
  521MOL0     H70303  -0.190   0.770   3.700 -1.2766  2.4870 -1.1280
  521MOL0     H70304  -0.258   0.718   3.539  0.0337 -1.6898 -1.2222
  521MOL0     H70305  -0.381   0.735   3.819  1.6262 -0.5496 -0.3251
  521MOL0     H70306  -0.483   0.687   3.692 -0.6687  0.8203  1.1414
  521MOL0     H70307  -0.342   0.950   3.701 -2.2456  2.6503  0.2840
  521MOL0     H70308  -0.427   0.887   3.563  2.5467 -3.1886 -0.1241
  521MOL0     H70309  -0.574   1.060   3.700  0.3294  0.4874  1.0680
  521MOL0     H70310  -0.569   0.950   3.833  0.8848  2.1759  0.3837
  521MOL0     H70311  -0.682   0.867   3.553 -3.4444  2.4302  0.1279
  521MOL0     H70312  -0.694   0.788   3.708  0.4935 -0.6466  0.4388
  521MOL0     H70313  -0.801   1.065   3.649  3.0765  0.2331 -1.1274
  521MOL0     H70314  -0.835   0.958   3.801 -0.4346 -1.1090 -0.3192
  521MOL0     H70315  -0.932   0.937   3.529 -0.0509 -0.8749 -0.2230
  521MOL0     H70316  -1.040   0.942   3.660 -0.1889  0.3181 -0.4735
  521MOL0     H70317  -0.253   0.523   3.404  0.1507  1.0445  0.3088
  521MOL0     H70318  -0.160   0.524   3.184 -1.1459 -0.4275  0.8152
  521MOL0     H70319   0.228   0.365   2.966  2.7234 -2.9153 -2.6128
  521MOL0     H70320   0.392   0.319   2.817 -0.0556  0.3553  0.1298
  521MOL0     H70321   1.131   1.031   3.899 -1.7944  0.5025  1.1182
  521MOL0     H70322   1.037   1.150   4.099 -0.2881  0.3360 -1.0345
  521MOL0     H70323   1.038   1.778   4.298 -1.2548 -0.5792 -0.7179
  521MOL0     H70324   0.948   1.850   4.518  0.0595  1.1226 -1.4993
  521MOL0     H70325   0.878   1.869   4.728  1.2922 -1.1716 -1.2920
  521MOL0     H70326   0.729   1.778   4.693  1.3594 -0.1827 -0.6887
  521MOL0     H70327   0.726   1.693   4.903 -2.2642  1.4086  1.8173
  521MOL0     H70328   0.732   1.875   4.917  1.9263  1.6034 -1.7551
  521MOL0     H70329   0.992   1.853   4.967  3.6840 -1.8031  0.4637
  521MOL0     H70330   0.956   1.676   4.995 -2.4509 -1.0011  1.7077
  521MOL0     H70331   0.944   1.767   5.214 -1.1483 -1.3346 -0.1669
  521MOL0     H70332   0.795   1.702   5.158  2.0511 -1.5161  0.9429
  521MOL0     H70333   0.711   2.123   5.140  0.4170  1.0231  1.9860
  521MOL0     H70334   0.916   1.428   4.630  1.4758  0.6866  1.0439
  521MOL0     H70335   0.961   1.372   4.409 -0.2366  0.9004  0.2117
  522MOL0     O70336   7.661   5.119   9.226 -0.6939  0.8034 -0.1594
  522MOL0     C70337   7.720   5.163   9.327 -0.6659  0.4647  0.8704
  522MOL0     O70338   7.814   5.091   9.406 -0.2635  0.3179 -0.0473
  522MOL0     C70339   7.875   4.976   9.371  0.5372  0.2541 -0.1023
  522MOL0     C70340   7.903   4.926   9.246  1.1338  0.4728  0.7137
  522MOL0     C70341   7.958   4.802   9.220  0.0794 -0.2228  1.1519
  522MOL0     C70342   8.010   4.719   9.319 -0.1993 -0.1002 -0.5537
  522MOL0     O70343   8.065   4.599   9.288 -0.2520 -0.3351 -0.2170
  522MOL0     C70344   8.017   4.484   9.367 -0.7936  0.1196 -0.1275
  522MOL0     C70345   8.052   4.363   9.300 -0.0152 -0.2127  0.3945
  522MOL0     C70346   7.976   4.342   9.166  0.8519 -0.4836 -0.0710
  522MOL0     C70347   7.986   4.189   9.131 -0.3057  0.6977 -0.1692
  522MOL0     C70348   7.898   4.141   9.019  0.4349 -0.4944  0.3965
  522MOL0     C70349   7.976   4.156   8.889  0.1127 -0.8265 -0.7105
  522MOL0     C70350   7.887   4.132   8.766  0.3921  0.0270 -0.0001
  522MOL0     C70351   7.978   4.160   8.642 -0.1726  0.1795  0.0590
  522MOL0     N70352   7.910   4.135   8.520  0.1712 -0.2057 -0.9988
  522MOL0     C70353   7.967   4.085   8.407  0.4439  0.1895 -0.0685
  522MOL0     C70354   7.873   4.067   8.317  0.4376 -0.0330  0.3366
  522MOL0     C70355   7.876   4.020   8.167  0.3108 -0.9151 -0.6738
  522MOL0     C70356   7.985   3.913   8.135 -0.4428  0.4238  0.1196
  522MOL0     C70357   7.949   3.781   8.201  0.2254  0.2888  0.0287
  522MOL0     C70358   8.049   3.670   8.167  0.2093 -0.3093  0.4117
  522MOL0     O70359   8.170   3.699   8.239  0.4502  0.8467  0.8359
  522MOL0     C70360   8.254   3.594   8.266 -1.1986 -0.4508  0.5856
  522MOL0     C70361   8.282   3.515   8.159 -0.1152  0.0247  1.0258
  522MOL0     C70362   8.347   3.400   8.175 -0.5315  0.0428 -0.9383
  522MOL0     C70363   8.382   3.321   8.049 -0.0792  0.1776 -0.4268
  522MOL0     C70364   8.383   3.350   8.308  0.1652  0.4157  0.5931
  522MOL0     C70365   8.407   3.206   8.344 -0.6996 -0.7336 -0.3296
  522MOL0     O70366   8.450   3.191   8.486 -0.7185 -0.6488 -0.4495
  522MOL0     C70367   8.444   3.071   8.550  0.3708 -0.7093  0.4979
  522MOL0     C70368   8.404   3.067   8.683  0.5511 -0.7835 -0.3701
  522MOL0     C70369   8.378   2.952   8.762 -1.2647 -0.0928  0.4054
  522MOL0     C70370   8.414   2.827   8.707  1.1406  0.4364  0.4450
  522MOL0     O70371   8.393   2.723   8.791 -0.5950 -1.6121 -0.1824
  522MOL0     C70372   8.429   2.595   8.760 -0.4790 -0.4023 -0.2691
  522MOL0     C70373   8.577   2.573   8.797  0.1065  0.0964 -0.0159
  522MOL0     C70374   8.619   2.597   8.950 -0.8464 -0.4323  0.2484
  522MOL0     C70375   8.748   2.517   8.986  0.2391  0.5388  0.6687
  522MOL0     C70376   8.745   2.473   9.129  0.0096  0.6399  0.7228
  522MOL0     C70377   8.861   2.378   9.148  0.6981 -0.5598 -0.2450
  522MOL0     C70378   8.853   2.302   9.288  0.3059 -0.0622  0.2370
  522MOL0     C70379   8.990   2.234   9.329  0.4842  0.5938 -0.3042
  522MOL0    Cl70380   8.979   2.198   9.499  0.2748 -0.2961 -0.5778
  522MOL0     C70381   8.461   2.824   8.571 -0.4057  0.1362 -0.0239
  522MOL0     C70382   8.476   2.943   8.496  0.2053  0.2501 -0.2059
  522MOL0     O70383   8.405   3.117   8.264 -0.6884 -0.0765 -0.3560
  522MOL0     C70384   8.372   3.446   8.410  0.5067  0.0067 -0.4193
  522MOL0     C70385   8.307   3.565   8.388 -0.9403  0.0552 -0.1713
  522MOL0     N70386   7.759   4.105   8.382  0.1676  0.0859  0.1021
  522MOL0     N70387   7.781   4.145   8.502 -1.4576 -0.1347 -0.1274
  522MOL0     C70388   7.991   4.774   9.450 -0.0204 -0.3873 -0.1728
  522MOL0     C70389   7.911   4.890   9.475 -0.4559  0.6996 -0.1076
  522MOL0     C70390   7.697   5.299   9.374 -0.4723  0.6572  0.2959
  522MOL0     C70391   7.773   5.364   9.468  0.1014  0.2105 -0.6026
  522MOL0     C70392   7.758   5.504   9.489  0.3574  0.0392 -1.1725
  522MOL0     C70393   7.652   5.573   9.433 -0.5363 -0.4648 -0.3686
  522MOL0     O70394   7.641   5.708   9.438  0.5520 -0.6411  0.8156
  522MOL0     C70395   7.746   5.795   9.492 -0.2928  0.9320 -0.1456
  522MOL0     C70396   7.733   5.809   9.635 -0.4745 -0.4263 -0.7269
  522MOL0     C70397   7.872   5.805   9.703  0.6197 -0.0859 -0.7697
  522MOL0     C70398   7.870   5.817   9.861  0.8285 -0.4960  0.3329
  522MOL0     C70399   7.788   5.715   9.929 -0.1031 -0.3041 -0.5248
  522MOL0     C70400   7.706   5.633   9.954  0.5172 -0.3323 -0.9121
  522MOL0     C70401   7.564   5.504   9.345  0.1116  0.0586 -0.0174
  522MOL0     C70402   7.594   5.370   9.316 -0.4043 -0.0277 -0.1432
  522MOL0     H70403   7.845   4.977   9.170  0.2155 -2.6524 -0.8643
  522MOL0     H70404   7.970   4.764   9.119 -0.6467 -1.3145  1.4552
  522MOL0     H70405   8.053   4.497   9.469 -2.9049  1.8578  0.4905
  522MOL0     H70406   7.909   4.486   9.388 -0.6470 -2.3595  1.2467
  522MOL0     H70407   8.161   4.365   9.289  0.2914  1.8951  2.7732
  522MOL0     H70408   8.006   4.281   9.356 -1.8521  1.9199  2.1851
  522MOL0     H70409   7.873   4.374   9.185  1.2067  1.2020 -0.8042
  522MOL0     H70410   8.018   4.410   9.091  1.2776 -1.0114 -0.3141
  522MOL0     H70411   8.091   4.159   9.119 -0.9157 -2.6453  1.6592
  522MOL0     H70412   7.951   4.128   9.214 -0.7532 -1.0877 -1.6114
  522MOL0     H70413   7.870   4.038   9.044 -0.1812 -0.0653  1.5344
  522MOL0     H70414   7.808   4.203   9.010  0.3081 -0.7247  0.0468
  522MOL0     H70415   8.018   4.256   8.883  0.5481 -0.9686 -0.0958
  522MOL0     H70416   8.065   4.092   8.886 -1.7902 -3.7495  0.4780
  522MOL0     H70417   7.845   4.031   8.762 -1.7409  0.8727 -0.6304
  522MOL0     H70418   7.798   4.196   8.756  0.4395 -0.1317 -1.7267
  522MOL0     H70419   8.072   4.105   8.641  0.7764  1.6265 -2.8406
  522MOL0     H70420   8.002   4.267   8.639 -0.5669  0.4735  3.4854
  522MOL0     H70421   8.067   4.061   8.372  0.4973  0.6761 -0.2556
  522MOL0     H70422   7.782   3.972   8.140  0.0392 -0.9408  0.2709
  522MOL0     H70423   7.878   4.098   8.091 -2.2763 -1.3605 -1.2660
  522MOL0     H70424   8.077   3.962   8.168 -1.0860  1.6686  0.1064
  522MOL0     H70425   7.979   3.887   8.029  1.3906 -1.6124  0.4467
  522MOL0     H70426   7.851   3.744   8.168  2.2255 -3.4921 -2.3957
  522MOL0     H70427   7.951   3.788   8.310  1.5465  1.1457 -0.0366
  522MOL0     H70428   8.069   3.662   8.060  2.1362 -2.7719  0.8796
  522MOL0     H70429   7.999   3.581   8.205 -2.7443 -0.1971 -2.6629
  522MOL0     H70430   8.254   3.546   8.059  1.5088  0.7529  0.7601
  522MOL0     H70431   8.344   3.363   7.956  1.5780  3.2250  0.1517
  522MOL0     H70432   8.491   3.329   8.043 -0.1807  0.8021 -1.6144
  522MOL0     H70433   8.343   3.220   8.065 -1.9308  0.5410 -2.3002
  522MOL0     H70434   8.372   3.167   8.711  0.5986 -0.9219  0.1975
  522MOL0     H70435   8.343   2.961   8.864 -0.6561 -1.3640  0.7562
  522MOL0     H70436   8.372   2.530   8.827 -6.3411  1.6254 -2.6200
  522MOL0     H70437   8.402   2.570   8.657  0.8168  0.0626 -0.7476
  522MOL0     H70438   8.601   2.468   8.779  2.9857  0.2303  2.4357
  522MOL0     H70439   8.637   2.634   8.729 -0.5296  1.5464  0.6702
  522MOL0     H70440   8.531   2.557   9.002 -2.4741  2.6490  0.0779
  522MOL0     H70441   8.622   2.705   8.965 -4.2073  0.6912 -4.7038
  522MOL0     H70442   8.761   2.431   8.920 -0.8417 -0.2673  1.4661
  522MOL0     H70443   8.837   2.575   8.960  1.1060  0.4175  3.0940
  522MOL0     H70444   8.655   2.415   9.151  1.2471 -1.0947  1.4344
  522MOL0     H70445   8.749   2.562   9.192  0.6992 -0.4349  2.2611
  522MOL0     H70446   8.859   2.297   9.074 -2.8297 -0.7087 -0.1473
  522MOL0     H70447   8.958   2.428   9.137  0.1305  0.8053  0.7334
  522MOL0     H70448   8.766   2.236   9.290  0.2206  0.0481  0.1988
  522MOL0     H70449   8.829   2.373   9.367  2.2681 -0.1314  0.9467
  522MOL0     H70450   9.079   2.298   9.321  0.2960  1.5929  3.5914
  522MOL0     H70451   9.006   2.140   9.276 -1.9711 -0.2149  0.2715
  522MOL0     H70452   8.486   2.730   8.523  4.3653  0.3099  1.5939
  522MOL0     H70453   8.502   2.935   8.390 -1.3704 -1.7017 -0.5002
  522MOL0     H70454   8.404   3.435   8.513  3.8318  1.5476 -1.1315
  522MOL0     H70455   8.307   3.647   8.459  2.9712  2.0058 -2.1101
  522MOL0     H70456   8.020   4.698   9.522 -1.7896 -2.9036 -1.9210
  522MOL0     H70457   7.910   4.919   9.580  1.6851  1.2058 -0.1669
  522MOL0     H70458   7.853   5.315   9.523 -1.4702 -0.1729  1.4731
  522MOL0     H70459   7.833   5.558   9.546  0.7209  0.7085 -2.2505
  522MOL0     H70460   7.842   5.748   9.468 -2.5745 -4.3395 -0.3156
  522MOL0     H70461   7.736   5.894   9.446 -2.7300  0.8898  0.1842
  522MOL0     H70462   7.678   5.724   9.676  3.8318 -2.9657  0.5101
  522MOL0     H70463   7.683   5.905   9.648  1.3096  0.6231 -1.2526
  522MOL0     H70464   7.930   5.887   9.658  2.0789  0.2053  1.4862
  522MOL0     H70465   7.933   5.717   9.681  0.9718 -0.2608  0.8097
  522MOL0     H70466   7.836   5.919   9.883  3.5173  0.7762 -0.9645
  522MOL0     H70467   7.971   5.796   9.897  1.7227 -0.6289 -2.0566
  522MOL0     H70468   7.638   5.553   9.977  0.5205 -0.6893 -2.0701
  522MOL0     H70469   7.493   5.567   9.293  2.1489 -0.3178 -3.6017
  522MOL0     H70470   7.538   5.335   9.229 -1.2390 -1.3678  0.8898
  523MOL0     O70471   9.216  10.001   8.356  1.4160 -0.3351 -0.4611
  523MOL0     C70472   9.103   9.973   8.414  0.5755  0.3172 -0.1317
  523MOL0     O70473   9.096   9.870   8.510  0.1124  0.1230  0.1869
  523MOL0     C70474   9.207   9.798   8.524  0.6848  0.1018  0.1474
  523MOL0     C70475   9.294   9.820   8.622 -0.0027  0.2389 -0.3836
  523MOL0     C70476   9.406   9.741   8.650 -0.1670  0.1389 -0.7995
  523MOL0     C70477   9.431   9.632   8.561  0.1238 -0.0716 -0.0857
  523MOL0     O70478   9.530   9.545   8.582 -0.3210 -0.1641 -0.7202
  523MOL0     C70479   9.613   9.573   8.697 -0.0771  0.8743 -1.8607
  523MOL0     C70480   9.715   9.462   8.724  0.4933  1.1570 -0.2100
  523MOL0     C70481   9.650   9.338   8.787  0.5736 -0.6715  0.0583
  523MOL0     C70482   9.673   9.332   8.936 -1.0729 -0.2097  0.8720
  523MOL0     C70483   9.584   9.232   9.008  0.1308 -1.1377 -0.8677
  523MOL0     C70484   9.577   9.091   8.949 -1.1683 -0.2482 -0.4061
  523MOL0     C70485   9.473   9.027   9.027  0.2997  0.7177 -0.1824
  523MOL0     C70486   9.467   8.880   8.999 -0.0107 -0.3608  0.8865
  523MOL0     N70487   9.403   8.794   9.097  0.6335  0.7498 -0.8227
  523MOL0     C70488   9.489   8.731   9.189  0.7411 -1.5974 -0.1376
  523MOL0     C70489   9.400   8.643   9.257  0.2556 -0.3080  0.4308
  523MOL0     C70490   9.416   8.555   9.376 -0.6211 -0.2970 -0.0175
  523MOL0     C70491   9.446   8.416   9.327 -0.0418 -0.2438 -0.7928
  523MOL0     C70492   9.432   8.315   9.445  0.2435  0.7889 -0.7476
  523MOL0     C70493   9.448   8.173   9.389 -0.1824  0.7054  0.0347
  523MOL0     O70494   9.592   8.153   9.360  0.1774 -0.3697  0.0242
  523MOL0     C70495   9.620   8.026   9.328  0.0095 -0.3844  0.6745
  523MOL0     C70496   9.540   7.944   9.251 -0.0268 -0.0595  0.6314
  523MOL0     C70497   9.586   7.821   9.206 -0.9742  0.8863  0.1756
  523MOL0     C70498   9.505   7.755   9.097 -0.2098  0.4880 -0.2749
  523MOL0     C70499   9.703   7.762   9.265  0.0009  0.8902  0.2378
  523MOL0     C70500   9.731   7.616   9.261  0.3206  0.4834  0.2894
  523MOL0     O70501   9.854   7.574   9.282  0.1849 -0.1753 -0.2088
  523MOL0     C70502   9.897   7.444   9.230  0.9427 -0.7073  0.2427
  523MOL0     C70503  10.000   7.444   9.141 -0.3448 -0.2804 -0.3610
  523MOL0     C70504  10.044   7.328   9.073 -1.2242  0.6609 -0.2307
  523MOL0     C70505   9.978   7.209   9.089 -1.1989  0.1607 -0.0902
  523MOL0     O70506  10.009   7.094   9.021 -0.2455 -0.6088  0.1404
  523MOL0     C70507  10.053   7.107   8.882  0.0892  0.4495  0.1056
  523MOL0     C70508  10.078   6.968   8.827  0.2455  0.2357 -0.2543
  523MOL0     C70509  10.141   6.972   8.688  0.2235  0.1918  0.4725
  523MOL0     C70510  10.066   7.052   8.588  0.8014 -0.6253 -0.9373
  523MOL0     C70511   9.928   6.997   8.548  0.0218  0.6269  0.6638
  523MOL0     C70512   9.899   7.053   8.409  0.5980  0.6245 -0.3432
  523MOL0     C70513   9.758   6.984   8.360 -0.3290 -1.0239  0.4610
  523MOL0     C70514   9.652   7.010   8.467  0.0321 -0.4421  0.1912
  523MOL0    Cl70515   9.491   6.943   8.415  0.1483  0.3651  0.3656
  523MOL0     C70516   9.866   7.208   9.178  0.3169  0.1015 -0.4592
  523MOL0     C70517   9.825   7.324   9.253 -0.7202  0.1492  0.2156
  523MOL0     O70518   9.639   7.546   9.238  0.1724  0.5065  0.3467
  523MOL0     C70519   9.782   7.848   9.356  0.4636  0.9559 -1.2310
  523MOL0     C70520   9.740   7.975   9.374 -0.0197 -0.6810  0.3153
  523MOL0     N70521   9.275   8.653   9.197  1.2088 -0.0059 -0.5555
  523MOL0     N70522   9.280   8.746   9.112 -0.1021  0.2117  0.0292
  523MOL0     C70523   9.344   9.605   8.465  0.1618  0.6988  0.3605
  523MOL0     C70524   9.222   9.679   8.440 -0.3814  0.2818  0.5304
  523MOL0     C70525   8.970  10.049   8.386  1.0164  0.1505 -0.4063
  523MOL0     C70526   8.854  10.034   8.466 -0.4911  0.8403  0.4985
  523MOL0     C70527   8.739  10.093   8.430 -0.4181 -0.0668 -0.5997
  523MOL0     C70528   8.731  10.183   8.327 -0.1342 -0.2792  0.2230
  523MOL0     O70529   8.610  10.252   8.330 -0.2498 -0.0693 -0.0598
  523MOL0     C70530   8.601  10.366   8.240  0.0341  0.7733 -0.6504
  523MOL0     C70531   8.460  10.429   8.223 -0.1146  0.6564 -0.1003
  523MOL0     C70532   8.355  10.319   8.188 -0.0807  0.0041 -0.0554
  523MOL0     C70533   8.311  10.225   8.299  0.2407  0.6297 -0.3299
  523MOL0     C70534   8.170  10.174   8.283 -0.9393 -1.0707  0.6420
  523MOL0     C70535   8.071  10.108   8.277 -0.1252 -1.0760 -0.8217
  523MOL0     C70536   8.850  10.211   8.253  0.2521 -0.1074 -0.0827
  523MOL0     C70537   8.959  10.135   8.277  0.0909  1.7014  0.5765
  523MOL0     H70538   9.289   9.906   8.688 -3.6253 -0.0576 -0.0843
  523MOL0     H70539   9.458   9.762   8.743 -0.5030 -0.7460 -0.4042
  523MOL0     H70540   9.672   9.664   8.683  4.2476 -1.5357 -0.9801
  523MOL0     H70541   9.553   9.579   8.788  1.4735 -0.1692 -0.7257
  523MOL0     H70542   9.737   9.441   8.619  1.4925  0.3109  0.1408
  523MOL0     H70543   9.809   9.495   8.769  1.7371  1.7982 -3.0765
  523MOL0     H70544   9.544   9.363   8.786  0.6170 -0.4847 -0.0547
  523MOL0     H70545   9.668   9.248   8.728 -1.0262 -0.4136 -0.8604
  523MOL0     H70546   9.776   9.297   8.953 -1.2903 -0.9757  0.6414
  523MOL0     H70547   9.667   9.429   8.987 -3.1940  0.2854 -0.2335
  523MOL0     H70548   9.620   9.227   9.111 -0.4420 -0.9754 -0.6578
  523MOL0     H70549   9.485   9.278   9.003 -0.9243 -3.3432 -1.7157
  523MOL0     H70550   9.574   9.092   8.840 -1.8539  1.9123 -0.4210
  523MOL0     H70551   9.670   9.042   8.978 -1.0216  1.7718  3.1326
  523MOL0     H70552   9.488   9.039   9.135  1.1434 -1.1460 -0.0597
  523MOL0     H70553   9.373   9.063   8.999  0.7797  0.4779 -2.3821
  523MOL0     H70554   9.567   8.836   8.989 -0.4819 -2.1761  3.2584
  523MOL0     H70555   9.417   8.862   8.903  1.2433  0.1945  0.1009
  523MOL0     H70556   9.591   8.760   9.214  0.8232 -0.3533 -1.7565
  523MOL0     H70557   9.505   8.589   9.431 -1.5511  1.9530  0.2053
  523MOL0     H70558   9.332   8.568   9.446 -0.1082  2.6574  0.2040
  523MOL0     H70559   9.534   8.408   9.261  0.5141  0.7576 -0.1944
  523MOL0     H70560   9.377   8.390   9.246 -2.0155 -1.2023  1.0869
  523MOL0     H70561   9.333   8.326   9.490  0.8314  1.8259  0.3713
  523MOL0     H70562   9.494   8.330   9.535 -1.2048  1.4267  0.1827
  523MOL0     H70563   9.389   8.168   9.297 -0.3388 -1.5266  0.1947
  523MOL0     H70564   9.404   8.101   9.458 -0.9312  0.6374 -0.5002
  523MOL0     H70565   9.441   7.973   9.219  0.1405 -1.8640 -1.7922
  523MOL0     H70566   9.440   7.824   9.042 -0.9172  0.8219  0.9395
  523MOL0     H70567   9.574   7.710   9.025  1.7904  1.2809  1.0554
  523MOL0     H70568   9.436   7.684   9.143 -0.9838  1.8687  0.7539
  523MOL0     H70569  10.055   7.537   9.128 -0.8058  0.3780  2.0257
  523MOL0     H70570  10.131   7.329   9.008 -2.5594 -0.1141 -2.1104
  523MOL0     H70571   9.980   7.165   8.825  0.2982  0.7865  0.1814
  523MOL0     H70572  10.147   7.162   8.881 -2.0987  4.7245 -3.1881
  523MOL0     H70573  10.136   6.915   8.902 -1.7682 -1.5469  0.1544
  523MOL0     H70574   9.985   6.910   8.818  0.8660 -0.6335 -1.2948
  523MOL0     H70575  10.142   6.872   8.645 -1.1818  1.2855 -2.2988
  523MOL0     H70576  10.243   7.012   8.686 -0.8769  3.1994 -1.8560
  523MOL0     H70577  10.050   7.150   8.634  1.8026 -1.0282  0.2930
  523MOL0     H70578  10.128   7.072   8.500 -1.5910  1.7167 -2.2397
  523MOL0     H70579   9.853   7.030   8.621  0.5913  0.4862  1.3324
  523MOL0     H70580   9.921   6.887   8.544  4.0697  0.2519 -0.2401
  523MOL0     H70581   9.890   7.162   8.406  0.7256  0.6093 -2.7274
  523MOL0     H70582   9.986   7.034   8.346  0.6678  1.4495 -0.5098
  523MOL0     H70583   9.761   6.876   8.344 -1.9521 -0.8990 -0.9850
  523MOL0     H70584   9.726   7.025   8.263 -1.4069  1.8852  1.9304
  523MOL0     H70585   9.639   7.114   8.497 -0.3416 -1.5312  4.4502
  523MOL0     H70586   9.681   6.955   8.557 -0.5563  1.1097  1.3841
  523MOL0     H70587   9.824   7.112   9.206 -1.2747  0.1825 -2.3267
  523MOL0     H70588   9.731   7.306   9.303 -0.8761  0.9969  0.2300
  523MOL0     H70589   9.870   7.819   9.412 -0.6074 -0.1954 -0.0924
  523MOL0     H70590   9.807   8.048   9.421 -0.1800 -1.6110  2.0753
  523MOL0     H70591   9.353   9.516   8.404 -0.9238  0.3558  0.6681
  523MOL0     H70592   9.138   9.652   8.377 -0.4960 -0.4360  0.9862
  523MOL0     H70593   8.855   9.979   8.560  2.0859  1.9971  1.2384
  523MOL0     H70594   8.650  10.067   8.487  1.4863  0.9835  3.2727
  523MOL0     H70595   8.671  10.438   8.284  0.7298 -0.9179  1.1341
  523MOL0     H70596   8.632  10.339   8.139  0.6617 -0.5617 -0.1272
  523MOL0     H70597   8.463  10.514   8.154 -3.2338 -0.0903 -1.3164
  523MOL0     H70598   8.423  10.467   8.319  1.8195 -1.3522  1.5494
  523MOL0     H70599   8.402  10.264   8.106  0.6369  0.7787 -0.1702
  523MOL0     H70600   8.268  10.376   8.155  1.2439  2.3197  0.2281
  523MOL0     H70601   8.321  10.280   8.394 -2.3884  1.6971 -0.5768
  523MOL0     H70602   8.371  10.134   8.308 -1.6391 -0.4825  4.2433
  523MOL0     H70603   7.983  10.047   8.282 -1.6416  0.8743 -2.1651
  523MOL0     H70604   8.863  10.288   8.178  2.4827 -1.3005 -0.9899
  523MOL0     H70605   9.048  10.147   8.216 -0.3216 -3.0505 -1.3494
  524MOL0     O70606  10.969   3.773   6.653 -0.1111  1.6355 -0.3703
  524MOL0     C70607  11.032   3.667   6.676 -0.0394 -1.1401  0.8651
  524MOL0     O70608  11.075   3.623   6.790  0.1087  0.8322 -1.0688
  524MOL0     C70609  11.080   3.709   6.902  0.2382  0.6259  0.8503
  524MOL0     C70610  11.087   3.639   7.019 -0.2564  0.9049 -0.2408
  524MOL0     C70611  11.073   3.706   7.148 -0.3896 -0.3559  0.8548
  524MOL0     C70612  11.052   3.849   7.150  0.6117  0.4128  0.1905
  524MOL0     O70613  11.040   3.907   7.275 -0.3714 -0.4480  0.1592
  524MOL0     C70614  11.073   3.835   7.394  0.8726  0.2067 -0.8086
  524MOL0     C70615  11.100   3.945   7.500  1.3043  0.2684  0.7676
  524MOL0     C70616  11.144   3.883   7.633 -0.2231  0.1461  0.3447
  524MOL0     C70617  11.188   3.990   7.729  0.1569 -0.3566  0.3538
  524MOL0     C70618  11.239   3.932   7.856  0.1420  0.2215 -0.4431
  524MOL0     C70619  11.207   4.025   7.971  0.2793  0.5626  0.6141
  524MOL0     C70620  11.257   3.968   8.097 -0.5345 -0.5970  0.4443
  524MOL0     C70621  11.200   3.836   8.141  0.7145 -0.8243  0.5486
  524MOL0     N70622  11.215   3.801   8.279 -0.1096 -0.0810 -0.4670
  524MOL0     C70623  11.171   3.893   8.386 -0.2595  1.0647  0.1777
  524MOL0     C70624  11.251   3.850   8.491 -0.0663  0.9483  0.1835
  524MOL0     C70625  11.244   3.892   8.629  0.0350  0.3338  0.8095
  524MOL0     C70626  11.379   3.899   8.690  0.3577 -0.5161  0.7011
  524MOL0     C70627  11.390   3.917   8.844 -0.9886 -0.0263 -0.1875
  524MOL0     C70628  11.351   3.792   8.920 -0.3128  0.5540  0.3806
  524MOL0     O70629  11.376   3.662   8.866  0.1518  0.1337  0.5390
  524MOL0     C70630  11.500   3.630   8.855 -0.0495  0.2619 -0.0738
  524MOL0     C70631  11.515   3.500   8.798  0.0633  0.3284 -0.4531
  524MOL0     C70632  11.636   3.421   8.784  0.1291  0.7700 -0.0476
  524MOL0     C70633  11.632   3.273   8.728  0.2940 -0.9283  1.2895
  524MOL0     C70634  11.748   3.487   8.840  0.3419 -0.2057  0.7026
  524MOL0     C70635  11.877   3.417   8.820  0.4720 -0.1154 -0.8305
  524MOL0     O70636  11.899   3.358   8.702  0.0867 -0.0110  0.5909
  524MOL0     C70637  12.011   3.280   8.698 -0.6039  0.5389  0.4605
  524MOL0     C70638  12.003   3.145   8.727  0.5433  0.8574  0.1968
  524MOL0     C70639  12.109   3.063   8.742 -0.1666 -0.6563  0.0220
  524MOL0     C70640  12.234   3.116   8.734 -0.5469  0.0616 -0.7947
  524MOL0     O70641  12.351   3.055   8.748 -0.6884 -0.4384 -0.2277
  524MOL0     C70642  12.351   2.923   8.785  0.5853  1.1052  0.1160
  524MOL0     C70643  12.487   2.857   8.802 -0.2708  1.2002  0.6543
  524MOL0     C70644  12.588   2.886   8.695  1.2143 -0.1140 -0.1351
  524MOL0     C70645  12.736   2.897   8.745 -0.0179 -1.1131  0.1285
  524MOL0     C70646  12.820   2.938   8.633  1.0921 -1.3343 -0.4345
  524MOL0     C70647  12.961   2.964   8.680  1.3522 -0.0416 -0.0825
  524MOL0     C70648  12.967   3.079   8.786  0.0743 -0.2630 -0.3677
  524MOL0     C70649  13.118   3.121   8.792 -0.2220  0.4384  1.1297
  524MOL0    Cl70650  13.208   2.996   8.886  0.6234 -0.2849  0.6066
  524MOL0     C70651  12.248   3.257   8.719 -0.3588 -0.2666 -0.4052
  524MOL0     C70652  12.140   3.342   8.689  0.0701  1.7754  0.0667
  524MOL0     O70653  11.955   3.414   8.917  0.2491 -0.3077 -0.2014
  524MOL0     C70654  11.738   3.615   8.897  0.1210 -0.4257 -0.0451
  524MOL0     C70655  11.622   3.684   8.900  0.2629 -0.2887 -0.4574
  524MOL0     N70656  11.323   3.733   8.444 -0.0836  0.4680  0.5855
  524MOL0     N70657  11.299   3.706   8.318 -0.1024 -0.1410  0.2140
  524MOL0     C70658  11.059   3.923   7.031  0.5521 -0.9908 -0.1653
  524MOL0     C70659  11.062   3.846   6.909  0.1924  0.6468 -0.1489
  524MOL0     C70660  11.058   3.587   6.559  0.2422  1.1417  0.2899
  524MOL0     C70661  11.027   3.633   6.433  0.0846 -0.3064  0.9846
  524MOL0     C70662  11.043   3.548   6.316  0.6847  0.2838  0.1880
  524MOL0     C70663  11.096   3.415   6.324  0.4985 -0.4082  0.0160
  524MOL0     O70664  11.117   3.354   6.205 -0.0091  0.0778  0.9086
  524MOL0     C70665  11.166   3.215   6.200 -0.0960 -0.5804 -0.0080
  524MOL0     C70666  11.318   3.221   6.225 -0.0540  0.5471 -0.1516
  524MOL0     C70667  11.383   3.329   6.127  0.1052  0.1350 -0.4865
  524MOL0     C70668  11.534   3.333   6.157 -0.2959  0.7357  0.0075
  524MOL0     C70669  11.606   3.393   6.050  0.9424  0.6433  0.4510
  524MOL0     C70670  11.643   3.463   5.957  0.0830  0.1825 -0.6387
  524MOL0     C70671  11.123   3.374   6.449  0.2411 -0.1387 -0.3021
  524MOL0     C70672  11.112   3.457   6.564 -0.6837 -0.0670  0.4980
  524MOL0     H70673  11.089   3.531   7.015 -1.1690  0.9149 -1.6980
  524MOL0     H70674  11.064   3.648   7.239  0.3534  0.6817  1.6188
  524MOL0     H70675  10.993   3.769   7.428  0.0966  1.1788 -0.7157
  524MOL0     H70676  11.163   3.780   7.364 -0.0477 -0.1231 -3.2426
  524MOL0     H70677  11.178   4.012   7.463 -1.9087  1.9607 -3.8792
  524MOL0     H70678  11.010   4.002   7.522  1.4489  0.1454  1.7166
  524MOL0     H70679  11.059   3.832   7.678 -1.9571  0.8657 -1.8672
  524MOL0     H70680  11.228   3.815   7.621  1.1716  1.1414  3.5277
  524MOL0     H70681  11.268   4.056   7.693 -0.7173 -0.3231 -1.6544
  524MOL0     H70682  11.109   4.064   7.748 -0.5520 -0.8685 -0.5439
  524MOL0     H70683  11.205   3.828   7.863  1.8796 -0.3015  0.8256
  524MOL0     H70684  11.347   3.930   7.842  0.5757  1.8563  2.0963
  524MOL0     H70685  11.261   4.118   7.955 -0.2492  1.0760  1.7206
  524MOL0     H70686  11.100   4.049   7.981 -0.1270  0.4108 -2.3712
  524MOL0     H70687  11.366   3.964   8.094 -0.4362 -0.3041  2.4252
  524MOL0     H70688  11.223   4.033   8.178  3.0985 -0.9115  2.4298
  524MOL0     H70689  11.243   3.757   8.078 -0.1420  0.1975 -1.4106
  524MOL0     H70690  11.093   3.836   8.119  0.6427 -1.9369  0.8246
  524MOL0     H70691  11.090   3.966   8.379 -0.8515  0.5904  1.6472
  524MOL0     H70692  11.191   3.988   8.632 -0.7160 -0.0147 -0.5904
  524MOL0     H70693  11.177   3.818   8.674 -3.4358  1.1586 -2.4076
  524MOL0     H70694  11.435   3.970   8.628 -1.3459  0.5222  0.2689
  524MOL0     H70695  11.423   3.803   8.660 -2.3802 -0.2124 -6.1155
  524MOL0     H70696  11.322   3.999   8.871 -4.7532 -2.9145 -0.0718
  524MOL0     H70697  11.488   3.944   8.884 -0.6843  2.4677 -2.3449
  524MOL0     H70698  11.243   3.788   8.938 -0.8227 -1.3218 -2.3404
  524MOL0     H70699  11.401   3.790   9.017  0.8470 -0.9827 -0.1971
  524MOL0     H70700  11.421   3.459   8.763 -0.7178  1.5766  0.0627
  524MOL0     H70701  11.535   3.230   8.757 -0.3407  0.2611  1.0446
  524MOL0     H70702  11.634   3.292   8.620 -0.1296  0.9131  1.5546
  524MOL0     H70703  11.706   3.196   8.750  4.1101  1.7336 -1.1740
  524MOL0     H70704  11.913   3.085   8.721  2.2820 -2.2653  2.5569
  524MOL0     H70705  12.094   2.957   8.755 -0.3110 -0.6333  0.0398
  524MOL0     H70706  12.298   2.910   8.880  0.5459  2.3747  0.2825
  524MOL0     H70707  12.297   2.874   8.703  3.2526  3.7269 -3.5379
  524MOL0     H70708  12.521   2.880   8.904  4.1918 -0.5153 -0.2163
  524MOL0     H70709  12.468   2.750   8.799 -0.3429  1.2286 -2.0971
  524MOL0     H70710  12.562   2.974   8.636  2.8256 -0.1350 -0.9238
  524MOL0     H70711  12.582   2.806   8.620 -1.4109  0.6145 -0.8003
  524MOL0     H70712  12.734   2.975   8.821  0.7749 -0.0729 -0.8791
  524MOL0     H70713  12.782   2.804   8.779  5.3643  1.6830  1.5940
  524MOL0     H70714  12.777   3.031   8.594  1.7059 -1.0709 -0.4996
  524MOL0     H70715  12.824   2.862   8.555 -3.2535  0.2312 -2.5063
  524MOL0     H70716  12.997   2.865   8.710  3.7314  0.1136 -2.0848
  524MOL0     H70717  13.031   2.986   8.599  0.9182 -2.0792 -1.0831
  524MOL0     H70718  12.924   3.048   8.882  4.2443 -0.4339  1.6635
  524MOL0     H70719  12.909   3.169   8.764  0.0496 -0.0809  0.4183
  524MOL0     H70720  13.119   3.219   8.841  2.1639  0.9941  0.1212
  524MOL0     H70721  13.170   3.127   8.696  0.5882  1.8518  1.6204
  524MOL0     H70722  12.352   3.289   8.715 -0.5658  0.4588 -0.0046
  524MOL0     H70723  12.149   3.449   8.675  1.7546  1.7652  0.7690
  524MOL0     H70724  11.831   3.661   8.929  0.7449 -0.9930 -1.0252
  524MOL0     H70725  11.634   3.781   8.948  2.4212 -1.7345  2.1670
  524MOL0     H70726  11.059   4.030   7.051 -0.5076 -1.2648  1.6404
  524MOL0     H70727  11.034   3.900   6.819 -1.1988 -0.4753 -0.4207
  524MOL0     H70728  10.977   3.729   6.427 -1.2447 -1.0611 -1.6925
  524MOL0     H70729  11.013   3.584   6.218 -0.9708  0.6640  0.8052
  524MOL0     H70730  11.125   3.152   6.279  1.5525 -1.5040  0.1618
  524MOL0     H70731  11.149   3.181   6.097 -2.6704 -0.5002  0.3437
  524MOL0     H70732  11.358   3.120   6.211 -1.1158 -0.5410  3.5936
  524MOL0     H70733  11.353   3.244   6.325  0.7202  0.6177 -0.4359
  524MOL0     H70734  11.346   3.430   6.147  4.0337  1.5766  0.3121
  524MOL0     H70735  11.360   3.310   6.022 -0.3345 -1.0233 -0.1932
  524MOL0     H70736  11.573   3.231   6.148 -0.9873  0.4146  0.5472
  524MOL0     H70737  11.563   3.365   6.258  1.8211  0.6383 -0.5219
  524MOL0     H70738  11.694   3.517   5.880  3.1504 -2.7437 -0.9248
  524MOL0     H70739  11.171   3.277   6.444 -0.5040 -0.5157 -0.2823
  524MOL0     H70740  11.139   3.407   6.656 -1.5575  0.0914  0.8476
  525MOL0     O70741   9.016   5.277   4.864  0.5831  0.3793 -0.5186
  525MOL0     C70742   8.903   5.234   4.892  1.0056  0.0735 -0.9778
  525MOL0     O70743   8.833   5.135   4.829 -0.1831  1.2580  0.1940
  525MOL0     C70744   8.896   5.067   4.733 -0.0993 -0.7129 -0.6380
  525MOL0     C70745   8.954   5.118   4.613 -0.1292  0.0212 -0.1965
  525MOL0     C70746   9.015   5.033   4.521 -0.5564  0.4014  0.3524
  525MOL0     C70747   9.016   4.898   4.536  0.9731  0.4227  0.3733
  525MOL0     O70748   9.062   4.812   4.444 -0.3117  0.1631  0.5527
  525MOL0     C70749   8.973   4.708   4.398 -0.9634 -0.0326 -0.4559
  525MOL0     C70750   9.003   4.660   4.255 -0.4957 -0.3570 -0.1131
  525MOL0     C70751   9.018   4.767   4.153 -0.2106  0.4019 -0.1744
  525MOL0     C70752   9.047   4.716   4.013  0.3864 -0.5522  1.2374
  525MOL0     C70753   8.945   4.615   3.948  0.3758  0.3783 -0.3291
  525MOL0     C70754   8.988   4.567   3.806 -0.3924  0.2876  0.3610
  525MOL0     C70755   8.877   4.488   3.734  0.3836 -0.6322  0.0798
  525MOL0     C70756   8.919   4.473   3.585 -0.3032 -0.1361  0.0965
  525MOL0     N70757   8.899   4.587   3.490 -1.1558  0.3376 -0.8839
  525MOL0     C70758   8.997   4.678   3.470 -1.4005 -0.7173  0.9228
  525MOL0     C70759   8.933   4.787   3.420 -0.1399  0.7883  0.7729
  525MOL0     C70760   8.991   4.915   3.379  0.4197 -0.0275 -0.1716
  525MOL0     C70761   9.056   4.898   3.238 -0.3876 -0.1759 -0.4326
  525MOL0     C70762   9.027   5.034   3.164 -0.2569 -0.3149 -0.5919
  525MOL0     C70763   9.146   5.042   3.065 -0.7169 -0.6910 -0.1454
  525MOL0     O70764   9.121   4.969   2.943 -0.2367  0.1776  0.4697
  525MOL0     C70765   9.189   5.004   2.827 -0.8867 -1.0560  0.1658
  525MOL0     C70766   9.294   5.104   2.819 -0.1824  0.5950 -0.4629
  525MOL0     C70767   9.353   5.136   2.701  0.1682 -0.3094  0.4006
  525MOL0     C70768   9.470   5.237   2.716  0.8473  0.1271  0.0832
  525MOL0     C70769   9.292   5.091   2.584  0.1833 -0.9032 -0.1182
  525MOL0     C70770   9.343   5.131   2.450 -0.6354 -0.8625  0.7933
  525MOL0     O70771   9.265   5.100   2.342 -0.3599  0.8087  0.2767
  525MOL0     C70772   9.290   5.131   2.212 -0.3582  0.2479  0.1346
  525MOL0     C70773   9.188   5.107   2.120 -0.1694  0.2039  0.2089
  525MOL0     C70774   9.215   5.122   1.983  0.6139  0.2687  0.4676
  525MOL0     C70775   9.344   5.140   1.935 -0.4642 -0.5149 -0.2030
  525MOL0     O70776   9.385   5.146   1.809  0.7804 -0.3101  0.3367
  525MOL0     C70777   9.290   5.123   1.699 -0.6330 -0.5584 -1.0660
  525MOL0     C70778   9.198   5.246   1.650 -0.3294 -0.5347  0.4203
  525MOL0     C70779   9.294   5.365   1.620  0.3324 -0.6087 -0.3788
  525MOL0     C70780   9.240   5.504   1.658 -0.4222 -1.2143 -0.7497
  525MOL0     C70781   9.209   5.527   1.801  0.6632  0.2566  0.0980
  525MOL0     C70782   9.147   5.670   1.822  1.1720  0.6505  0.4882
  525MOL0     C70783   9.148   5.710   1.972 -0.1776  0.1212 -0.1005
  525MOL0     C70784   9.051   5.821   2.009 -0.2906 -1.2745 -0.3366
  525MOL0    Cl70785   9.013   5.942   1.884 -0.2764  0.0843  0.0620
  525MOL0     C70786   9.444   5.155   2.029  0.1930 -1.4105 -0.9458
  525MOL0     C70787   9.419   5.162   2.164  0.1746 -0.1582 -0.1219
  525MOL0     O70788   9.442   5.209   2.441 -0.2091  0.4366  0.4545
  525MOL0     C70789   9.184   5.001   2.589  0.6254 -0.2197 -0.1578
  525MOL0     C70790   9.133   4.962   2.712  0.2012 -0.1227  0.0047
  525MOL0     N70791   8.800   4.758   3.429 -0.3927 -0.5565  0.1380
  525MOL0     N70792   8.780   4.643   3.476  0.0450  0.3129 -1.2813
  525MOL0     C70793   8.970   4.849   4.656  0.3512  0.3496 -0.3656
  525MOL0     C70794   8.918   4.929   4.753 -0.0673  0.4870 -1.3412
  525MOL0     C70795   8.855   5.276   5.018 -0.1108 -0.2673  0.6918
  525MOL0     C70796   8.899   5.395   5.067 -0.7003  0.4284 -0.1673
  525MOL0     C70797   8.836   5.453   5.173  0.0542 -0.9680 -0.8408
  525MOL0     C70798   8.728   5.390   5.233  0.7841 -0.2827 -0.1486
  525MOL0     O70799   8.665   5.467   5.334  0.5368 -0.2111 -0.7641
  525MOL0     C70800   8.572   5.407   5.431 -0.0091  0.6517  0.2989
  525MOL0     C70801   8.535   5.516   5.532 -1.0844  0.8576 -0.0607
  525MOL0     C70802   8.410   5.472   5.614 -0.9454 -0.0568  0.2748
  525MOL0     C70803   8.443   5.385   5.727 -0.6595  0.2324 -0.7641
  525MOL0     C70804   8.548   5.438   5.820  0.3399 -0.3119  0.2630
  525MOL0     C70805   8.624   5.486   5.895  0.5568 -0.4615 -0.7595
  525MOL0     C70806   8.677   5.267   5.182 -1.1913 -0.2026 -0.4762
  525MOL0     C70807   8.747   5.211   5.078  0.8958 -0.3886 -0.2033
  525MOL0     H70808   8.963   5.226   4.610 -2.3974  0.5640  4.4348
  525MOL0     H70809   9.078   5.070   4.440  1.5241 -0.7944  1.3444
  525MOL0     H70810   8.983   4.621   4.463  2.0734  2.3482  2.6734
  525MOL0     H70811   8.869   4.741   4.398 -1.1608 -0.4388 -3.1001
  525MOL0     H70812   9.092   4.596   4.247 -1.7475 -2.1216 -0.4938
  525MOL0     H70813   8.913   4.608   4.222 -1.5250  0.2132  1.6807
  525MOL0     H70814   8.924   4.824   4.153  0.6370  2.0330 -3.1536
  525MOL0     H70815   9.094   4.842   4.178 -1.4326  2.2223 -1.6015
  525MOL0     H70816   9.028   4.802   3.947 -3.8190 -2.9952 -1.1659
  525MOL0     H70817   9.152   4.685   4.012  0.8773  1.0000 -0.0298
  525MOL0     H70818   8.943   4.520   4.001  5.0121  1.3375  2.1164
  525MOL0     H70819   8.843   4.657   3.947  0.6606  1.1721 -2.6691
  525MOL0     H70820   9.012   4.657   3.748  2.2544 -1.0474 -0.7729
  525MOL0     H70821   9.081   4.511   3.818  0.2305  1.3243  0.4614
  525MOL0     H70822   8.854   4.390   3.776 -1.8561 -0.6818 -1.0636
  525MOL0     H70823   8.783   4.544   3.734  0.3934 -0.6001 -0.5872
  525MOL0     H70824   8.871   4.382   3.547 -0.9373 -1.0947  2.9056
  525MOL0     H70825   9.022   4.438   3.582 -0.3626 -0.3734  0.6999
  525MOL0     H70826   9.105   4.674   3.479 -1.5140 -1.9951  2.0819
  525MOL0     H70827   8.908   4.986   3.366 -1.8646 -2.5542 -0.3946
  525MOL0     H70828   9.068   4.950   3.447 -0.0619  3.4271 -1.1823
  525MOL0     H70829   9.009   4.816   3.184 -1.3561 -3.1571  4.3502
  525MOL0     H70830   9.158   4.861   3.251 -0.0391  0.8684 -0.0334
  525MOL0     H70831   9.047   5.126   3.219  0.3038 -0.4923 -0.4951
  525MOL0     H70832   8.925   5.036   3.124 -1.0809  2.4746  1.3593
  525MOL0     H70833   9.239   5.025   3.121  0.1442  2.6859 -0.3398
  525MOL0     H70834   9.142   5.147   3.033  0.8483 -0.8141 -0.8873
  525MOL0     H70835   9.338   5.148   2.908  0.1775 -0.4704 -0.1055
  525MOL0     H70836   9.567   5.186   2.712  1.7435  1.5906  1.6391
  525MOL0     H70837   9.475   5.322   2.648  1.5198 -1.4293 -1.9275
  525MOL0     H70838   9.470   5.282   2.816 -2.6070 -1.5600  0.9909
  525MOL0     H70839   9.089   5.086   2.158 -0.6342  2.3090  0.2815
  525MOL0     H70840   9.136   5.106   1.910  1.1632 -3.1630  0.4517
  525MOL0     H70841   9.351   5.093   1.613 -0.4434  0.7984 -1.4383
  525MOL0     H70842   9.236   5.033   1.728  1.2197 -1.8968 -1.5980
  525MOL0     H70843   9.131   5.223   1.566  0.6696 -1.0373 -0.2675
  525MOL0     H70844   9.144   5.269   1.742  1.7914  0.5450  1.4686
  525MOL0     H70845   9.325   5.356   1.516 -2.8218 -1.0330 -1.3806
  525MOL0     H70846   9.385   5.352   1.679 -1.9844 -1.0861  3.4187
  525MOL0     H70847   9.315   5.577   1.627 -2.1561  0.7211 -0.6113
  525MOL0     H70848   9.154   5.525   1.593 -0.3927 -1.7819 -0.9777
  525MOL0     H70849   9.299   5.510   1.861 -0.3331 -1.7955  1.0729
  525MOL0     H70850   9.140   5.447   1.827 -0.1525 -0.0133 -2.5856
  525MOL0     H70851   9.202   5.741   1.760  0.0606 -1.9431 -3.8952
  525MOL0     H70852   9.047   5.672   1.777  1.4785  1.9658 -0.1863
  525MOL0     H70853   9.250   5.741   1.997  0.5381 -3.9391  2.9235
  525MOL0     H70854   9.121   5.618   2.024 -1.7000  0.3263 -0.4654
  525MOL0     H70855   9.099   5.883   2.086 -0.4316  1.8280 -2.5687
  525MOL0     H70856   8.958   5.774   2.042 -0.7735 -0.8445 -1.0691
  525MOL0     H70857   9.551   5.164   2.012  0.8513 -1.7594  2.3292
  525MOL0     H70858   9.509   5.175   2.223  1.7872  0.1204 -2.4947
  525MOL0     H70859   9.140   4.963   2.497 -4.6450 -0.1702  2.0126
  525MOL0     H70860   9.041   4.905   2.710 -0.1046  0.3881 -1.1981
  525MOL0     H70861   8.982   4.746   4.689  4.6094  0.3453 -1.3232
  525MOL0     H70862   8.895   4.881   4.848  2.3603 -0.8578 -1.3669
  525MOL0     H70863   8.975   5.457   5.021  3.7297 -3.3082  1.2420
  525MOL0     H70864   8.863   5.554   5.202  3.4389 -1.4329 -1.8910
  525MOL0     H70865   8.475   5.390   5.383  0.4470  1.1562 -0.8227
  525MOL0     H70866   8.610   5.321   5.487  1.3266  1.5240  0.7671
  525MOL0     H70867   8.535   5.609   5.474  1.0802  0.2828 -1.1105
  525MOL0     H70868   8.624   5.526   5.595 -0.1307  0.4917 -1.3137
  525MOL0     H70869   8.327   5.433   5.555 -3.3248 -0.8421  3.7785
  525MOL0     H70870   8.372   5.562   5.663  0.8568  0.3489  1.0203
  525MOL0     H70871   8.469   5.283   5.696 -1.0075  0.2220 -1.0314
  525MOL0     H70872   8.349   5.368   5.782 -0.3653 -0.7942 -0.5528
  525MOL0     H70873   8.685   5.533   5.970  1.4983 -1.7027 -0.7311
  525MOL0     H70874   8.599   5.224   5.245 -1.2165  4.3646  3.2255
  525MOL0     H70875   8.710   5.117   5.039  2.5610 -0.5557 -1.4503
  526MOL0     O70876   6.132   4.831   6.113  0.0385 -1.2021  0.8410
  526MOL0     C70877   6.069   4.753   6.040  1.3536 -0.6526  0.1528
  526MOL0     O70878   6.053   4.618   6.060 -0.0400 -0.3602  0.0864
  526MOL0     C70879   6.123   4.558   6.163 -0.0931  0.0998 -0.6210
  526MOL0     C70880   6.205   4.444   6.137  0.9787 -0.2561 -0.0786
  526MOL0     C70881   6.278   4.385   6.244  0.3188 -0.2580  0.5159
  526MOL0     C70882   6.269   4.434   6.373 -0.0737  0.2555 -0.5552
  526MOL0     O70883   6.340   4.355   6.469  0.8771  0.1132  0.4364
  526MOL0     C70884   6.309   4.370   6.605  0.3751 -0.4495  0.0659
  526MOL0     C70885   6.385   4.269   6.694  0.8141  0.7674  0.3867
  526MOL0     C70886   6.364   4.128   6.645 -0.5317  0.7896 -0.7653
  526MOL0     C70887   6.454   4.083   6.541 -0.2206  0.7044  0.7414
  526MOL0     C70888   6.435   3.932   6.517  0.4321 -0.8163 -0.4669
  526MOL0     C70889   6.314   3.907   6.434  0.1338 -0.3339  0.5133
  526MOL0     C70890   6.326   3.934   6.281 -0.4626 -0.2116 -0.1630
  526MOL0     C70891   6.203   3.887   6.209  0.3649  0.2527  0.3271
  526MOL0     N70892   6.212   3.928   6.069  0.1581 -0.0206  0.7761
  526MOL0     C70893   6.295   3.878   5.971  0.1348  0.8207 -0.9340
  526MOL0     C70894   6.259   3.953   5.864 -0.2447  0.0641  0.0323
  526MOL0     C70895   6.320   3.943   5.722 -0.3280  0.0254 -0.6736
  526MOL0     C70896   6.461   3.999   5.733  0.4524  0.3985  0.1009
  526MOL0     C70897   6.508   4.034   5.585 -0.1602  0.6895 -0.6672
  526MOL0     C70898   6.651   4.083   5.579 -1.2104 -0.0156  0.0890
  526MOL0     O70899   6.754   3.986   5.622  0.5730  0.5824 -0.5927
  526MOL0     C70900   6.800   3.891   5.543 -0.4132  0.6038  1.0475
  526MOL0     C70901   6.776   3.878   5.409 -0.7623  0.2054  0.1836
  526MOL0     C70902   6.824   3.783   5.323  0.5443  0.7217 -0.3204
  526MOL0     C70903   6.795   3.785   5.179 -1.1409  0.5681  0.2534
  526MOL0     C70904   6.911   3.691   5.384  0.7594 -0.4238  0.2910
  526MOL0     C70905   6.990   3.596   5.301  0.2076 -0.3002  0.1980
  526MOL0     O70906   7.011   3.476   5.359  0.2698 -1.2163  0.0264
  526MOL0     C70907   7.071   3.380   5.286 -0.9303  0.0341 -0.0846
  526MOL0     C70908   7.191   3.343   5.342  0.1376  0.0616  0.3903
  526MOL0     C70909   7.275   3.251   5.279 -0.3362  0.2534 -0.1554
  526MOL0     C70910   7.253   3.186   5.160  1.0570 -0.0104 -0.9554
  526MOL0     O70911   7.349   3.103   5.107 -0.2511  0.5627 -0.8048
  526MOL0     C70912   7.376   3.105   4.969  0.2999  0.2047  0.0169
  526MOL0     C70913   7.295   2.987   4.906 -1.0677  0.6339  0.2897
  526MOL0     C70914   7.288   3.021   4.758  0.9219 -0.2418 -0.5943
  526MOL0     C70915   7.231   2.906   4.667 -0.3701  0.3824  0.1369
  526MOL0     C70916   7.210   2.923   4.521 -0.4480 -0.0004 -0.0685
  526MOL0     C70917   7.361   2.919   4.461 -0.3099  0.0620  0.0467
  526MOL0     C70918   7.371   2.843   4.331  0.2304  1.0295 -0.7093
  526MOL0     C70919   7.476   2.892   4.227  0.0122 -0.5594  0.9111
  526MOL0    Cl70920   7.636   2.880   4.309  0.0365 -0.4421  0.4040
  526MOL0     C70921   7.131   3.218   5.103  0.2150 -0.1147  0.0709
  526MOL0     C70922   7.035   3.311   5.161  0.2959  0.0423  0.5695
  526MOL0     O70923   7.028   3.635   5.189 -0.4450  0.1249  0.2879
  526MOL0     C70924   6.944   3.709   5.523 -0.5480  0.5649 -0.4358
  526MOL0     C70925   6.889   3.803   5.602  0.6935  0.1013  0.9740
  526MOL0     N70926   6.175   4.058   5.888 -0.0993 -0.1868 -0.3001
  526MOL0     N70927   6.142   4.026   6.010  0.1667 -0.1545  0.6780
  526MOL0     C70928   6.176   4.535   6.401 -0.1243  0.0207 -0.0361
  526MOL0     C70929   6.103   4.600   6.300  0.6725 -0.8451  0.9492
  526MOL0     C70930   6.019   4.807   5.905  0.1338  1.0421 -0.4169
  526MOL0     C70931   5.890   4.768   5.856 -0.4997  0.2493  0.7711
  526MOL0     C70932   5.851   4.811   5.734  0.6003  0.1733  0.4352
  526MOL0     C70933   5.928   4.893   5.653  0.0472 -0.7310 -0.8503
  526MOL0     O70934   5.868   4.940   5.536 -0.5884  0.1425 -0.0180
  526MOL0     C70935   5.864   5.079   5.526 -0.3481  0.5217 -0.5731
  526MOL0     C70936   5.889   5.130   5.386 -1.1853 -0.9760  0.1516
  526MOL0     C70937   5.852   5.285   5.391 -0.1427 -0.9041 -0.0400
  526MOL0     C70938   5.872   5.353   5.248  0.0230  0.1611  0.4089
  526MOL0     C70939   5.788   5.290   5.151 -0.5799  0.1072 -0.3522
  526MOL0     C70940   5.705   5.237   5.075  0.2336  0.1283 -0.6837
  526MOL0     C70941   6.055   4.931   5.697  0.5079 -0.1563 -0.1698
  526MOL0     C70942   6.109   4.886   5.820  0.6289  0.1271  0.6061
  526MOL0     H70943   6.218   4.416   6.033  2.6505 -0.3183  0.1166
  526MOL0     H70944   6.337   4.297   6.223  2.7975  1.4258  0.0176
  526MOL0     H70945   6.344   4.469   6.637  2.6341 -1.1009 -0.2306
  526MOL0     H70946   6.200   4.367   6.617 -0.0024  0.9304 -2.3435
  526MOL0     H70947   6.492   4.289   6.681  2.0601 -3.8256  1.7495
  526MOL0     H70948   6.380   4.274   6.803  1.4477  1.4700  0.3917
  526MOL0     H70949   6.382   4.077   6.740 -0.0374  0.6601 -0.9261
  526MOL0     H70950   6.261   4.114   6.612 -0.4467 -0.1027 -0.6777
  526MOL0     H70951   6.448   4.143   6.450  1.5481 -0.3159 -0.1014
  526MOL0     H70952   6.557   4.098   6.572  0.9528  0.4781 -2.6532
  526MOL0     H70953   6.515   3.886   6.458  0.6035  1.5160 -2.2220
  526MOL0     H70954   6.428   3.883   6.614  0.5461  0.9490  0.4612
  526MOL0     H70955   6.301   3.799   6.447 -1.5565 -0.1168  0.8059
  526MOL0     H70956   6.224   3.951   6.477  1.8292  1.3153  2.6142
  526MOL0     H70957   6.331   4.044   6.278 -0.7972 -0.1495  1.0693
  526MOL0     H70958   6.418   3.899   6.233 -1.0233 -2.8956  0.5876
  526MOL0     H70959   6.108   3.921   6.252  2.1869  6.3826  0.4832
  526MOL0     H70960   6.210   3.778   6.210  0.6429  0.2070 -1.9032
  526MOL0     H70961   6.370   3.800   5.984 -1.5824 -1.0651 -1.8375
  526MOL0     H70962   6.320   3.844   5.675  0.9227  0.6185 -2.0155
  526MOL0     H70963   6.264   4.007   5.654 -0.0233  0.6486 -0.3456
  526MOL0     H70964   6.533   3.924   5.766  0.8670  0.0367 -1.5476
  526MOL0     H70965   6.461   4.088   5.796 -1.6896  1.2451 -0.9855
  526MOL0     H70966   6.447   4.112   5.538  0.1958  1.8543  0.7373
  526MOL0     H70967   6.490   3.944   5.524 -1.5366 -0.6983  1.6448
  526MOL0     H70968   6.654   4.168   5.648  4.5633  0.1351  0.1184
  526MOL0     H70969   6.668   4.118   5.477 -2.2030  0.6779  0.1465
  526MOL0     H70970   6.709   3.945   5.356  0.2733  2.0079  1.0329
  526MOL0     H70971   6.880   3.832   5.128  1.5676 -1.4314  2.6195
  526MOL0     H70972   6.773   3.683   5.149 -0.0265 -0.0350  1.4213
  526MOL0     H70973   6.702   3.841   5.164 -1.3540  0.1118 -0.1617
  526MOL0     H70974   7.216   3.376   5.442 -0.3717  1.7027  0.0017
  526MOL0     H70975   7.354   3.212   5.342  0.2270 -0.8109 -1.4708
  526MOL0     H70976   7.350   3.192   4.908  3.3193 -2.5635 -6.0791
  526MOL0     H70977   7.480   3.087   4.942 -0.9241 -4.2462 -2.8253
  526MOL0     H70978   7.364   2.903   4.920 -0.0841  1.4613  0.5377
  526MOL0     H70979   7.194   2.969   4.944 -3.0295  1.4073 -3.9914
  526MOL0     H70980   7.382   3.054   4.713  0.7298 -1.3540 -1.8894
  526MOL0     H70981   7.208   3.096   4.757 -0.2239 -1.4380 -1.4221
  526MOL0     H70982   7.304   2.825   4.683 -0.4503 -0.0399 -1.3885
  526MOL0     H70983   7.133   2.877   4.706 -0.4116  2.1294  1.3934
  526MOL0     H70984   7.144   3.008   4.505 -1.0672 -1.0568 -4.2603
  526MOL0     H70985   7.152   2.839   4.482 -0.8537 -1.2027  2.8157
  526MOL0     H70986   7.390   3.020   4.428  0.3205 -0.5848 -1.4936
  526MOL0     H70987   7.440   2.871   4.519 -1.3061 -0.7819  0.7217
  526MOL0     H70988   7.269   2.847   4.293 -0.1934  0.6841  0.3841
  526MOL0     H70989   7.383   2.736   4.351 -1.5524  1.2591  2.0599
  526MOL0     H70990   7.444   2.988   4.185  0.8239  0.0513  1.6386
  526MOL0     H70991   7.471   2.825   4.142  0.2430 -0.8184  1.1015
  526MOL0     H70992   7.107   3.193   5.000 -0.1249  1.1706 -0.1803
  526MOL0     H70993   6.943   3.339   5.110 -1.3248 -3.5301  1.1798
  526MOL0     H70994   7.027   3.651   5.563 -1.7556  0.9854  3.0778
  526MOL0     H70995   6.906   3.810   5.709 -0.6208 -0.6667  1.2635
  526MOL0     H70996   6.162   4.573   6.502 -1.4951  1.5607 -0.7711
  526MOL0     H70997   6.038   4.680   6.332 -0.6907 -1.9343  0.9568
  526MOL0     H70998   5.831   4.705   5.922 -1.7101  0.9775  0.4240
  526MOL0     H70999   5.753   4.769   5.715 -0.3207  2.7358 -0.8211
  526MOL0     H71000   5.763   5.091   5.566 -0.5669 -2.6947  0.1405
  526MOL0     H71001   5.939   5.122   5.592 -1.7641 -0.8937  2.1412
  526MOL0     H71002   5.831   5.076   5.310  3.5824 -2.7998 -2.6014
  526MOL0     H71003   5.991   5.114   5.351 -1.4948 -1.8187 -0.3855
  526MOL0     H71004   5.918   5.327   5.468  1.5471 -0.1669 -1.7946
  526MOL0     H71005   5.745   5.303   5.406 -0.0768 -1.4535  1.2295
  526MOL0     H71006   5.972   5.329   5.211  1.1612  2.9166  1.4588
  526MOL0     H71007   5.870   5.462   5.238  2.3035  0.3478  1.4503
  526MOL0     H71008   5.622   5.206   5.016 -1.4507  1.8537  0.6727
  526MOL0     H71009   6.115   4.997   5.636 -1.5279  2.5625  0.5681
  526MOL0     H71010   6.212   4.910   5.841  1.2526 -0.7833 -1.2243
  527MOL0     O71011  10.197   8.739   9.236  0.4496 -0.1906 -0.7856
  527MOL0     C71012  10.184   8.653   9.333  0.7743  0.4804  0.2299
  527MOL0     O71013  10.130   8.528   9.319  0.1406  0.6762 -0.2452
  527MOL0     C71014  10.064   8.494   9.204 -0.1497 -0.0844 -0.5373
  527MOL0     C71015  10.136   8.486   9.084  0.3850  0.4905  0.3288
  527MOL0     C71016  10.077   8.447   8.963 -0.4427  0.0259  0.3595
  527MOL0     C71017   9.949   8.412   8.956  0.1534 -0.4557 -0.0791
  527MOL0     O71018   9.903   8.360   8.840 -0.0131 -0.0571 -0.1423
  527MOL0     C71019   9.781   8.278   8.837  0.4650  0.2040  0.2105
  527MOL0     C71020   9.766   8.214   8.699  0.4183  0.2088  1.0985
  527MOL0     C71021   9.644   8.127   8.684 -0.3414  0.5783 -0.0463
  527MOL0     C71022   9.682   7.989   8.621 -0.7340 -0.0053  0.1382
  527MOL0     C71023   9.710   7.889   8.731  0.3046  0.4508  1.2307
  527MOL0     C71024   9.750   7.754   8.668 -0.6309 -0.1905  0.2463
  527MOL0     C71025   9.766   7.662   8.794  0.6530 -0.8423 -0.3377
  527MOL0     C71026   9.828   7.528   8.768 -0.1831  0.5783 -0.3168
  527MOL0     N71027   9.972   7.533   8.734 -0.1539 -0.7362 -0.0388
  527MOL0     C71028  10.041   7.494   8.629 -0.7218 -0.7660 -0.3251
  527MOL0     C71029  10.173   7.512   8.655 -0.6687 -0.6816 -0.3061
  527MOL0     C71030  10.293   7.467   8.564  0.2517 -0.4884 -0.4554
  527MOL0     C71031  10.310   7.321   8.596  0.1946  0.0702 -0.4594
  527MOL0     C71032  10.428   7.264   8.511 -0.6167  0.6510  0.1018
  527MOL0     C71033  10.418   7.279   8.360 -0.0806 -0.2121 -0.1171
  527MOL0     O71034  10.294   7.220   8.317  1.3637 -0.2498  0.2168
  527MOL0     C71035  10.282   7.190   8.185 -0.3641  0.3933  0.4667
  527MOL0     C71036  10.344   7.269   8.082  0.0869  0.1019  0.3006
  527MOL0     C71037  10.315   7.257   7.947 -0.0203  0.1958  0.0423
  527MOL0     C71038  10.374   7.353   7.846  1.0352 -0.5336 -0.4854
  527MOL0     C71039  10.231   7.145   7.910 -0.4125 -0.7761 -1.1180
  527MOL0     C71040  10.188   7.104   7.780 -1.3770  0.8786 -0.6501
  527MOL0     O71041  10.109   6.985   7.762  0.2067 -0.6304 -0.1995
  527MOL0     C71042  10.096   6.920   7.640  0.7041 -0.5559  0.0178
  527MOL0     C71043   9.977   6.942   7.563  0.6972 -0.1935  0.5604
  527MOL0     C71044   9.968   6.879   7.436 -0.3922 -0.2228 -0.2555
  527MOL0     C71045  10.072   6.793   7.381  0.2513 -0.0789 -0.1791
  527MOL0     O71046  10.074   6.719   7.267  0.6340  0.5056 -0.5335
  527MOL0     C71047   9.981   6.755   7.164  0.0663  0.0810  0.4856
  527MOL0     C71048   9.995   6.656   7.042 -0.7449 -0.4549 -0.2071
  527MOL0     C71049  10.017   6.502   7.065 -0.2871  0.0865 -0.0849
  527MOL0     C71050   9.903   6.432   7.138  2.1576 -0.0997 -0.3611
  527MOL0     C71051   9.778   6.451   7.050  0.3473 -0.1788 -0.9236
  527MOL0     C71052   9.662   6.367   7.117 -0.4884 -0.3557  0.2526
  527MOL0     C71053   9.523   6.370   7.048  0.6158  0.6249 -0.2244
  527MOL0     C71054   9.531   6.319   6.904  1.6519  1.3257 -0.0703
  527MOL0    Cl71055   9.372   6.255   6.856 -0.1408  0.0336  0.5143
  527MOL0     C71056  10.185   6.784   7.468  0.8424 -0.0948  0.8418
  527MOL0     C71057  10.196   6.837   7.592  0.4598 -0.7002 -0.5647
  527MOL0     O71058  10.224   7.165   7.687 -0.2408 -0.3891  0.2091
  527MOL0     C71059  10.181   7.065   8.018  0.5555  0.3475 -0.3310
  527MOL0     C71060  10.194   7.089   8.151 -0.0252 -0.1957 -0.4780
  527MOL0     N71061  10.181   7.541   8.796 -0.8871 -0.2311  0.3954
  527MOL0     N71062  10.063   7.574   8.828  0.0698  1.3019 -0.4663
  527MOL0     C71063   9.882   8.410   9.083 -0.2996  0.2290 -0.3154
  527MOL0     C71064   9.937   8.444   9.203  0.5718  0.5611 -1.1824
  527MOL0     C71065  10.249   8.692   9.456  0.3232 -0.6377 -0.0763
  527MOL0     C71066  10.263   8.823   9.496 -0.3226 -0.5579  0.2043
  527MOL0     C71067  10.339   8.848   9.611  0.9193 -1.2525  0.2269
  527MOL0     C71068  10.382   8.754   9.697 -0.1377  0.8706  0.3497
  527MOL0     O71069  10.460   8.793   9.803  0.3004 -0.3181  0.2109
  527MOL0     C71070  10.529   8.697   9.879 -0.0671  0.0989  0.0033
  527MOL0     C71071  10.452   8.649  10.003  0.1655 -0.1518 -0.4925
  527MOL0     C71072  10.486   8.501  10.029  0.7446  0.2431 -0.4023
  527MOL0     C71073  10.428   8.458  10.165 -0.1822 -0.5688  0.7913
  527MOL0     C71074  10.460   8.318  10.198  0.4533  0.2006  0.8653
  527MOL0     C71075  10.484   8.201  10.223  0.5344  0.2814 -0.4416
  527MOL0     C71076  10.347   8.623   9.670 -0.1582 -0.0366 -0.2353
  527MOL0     C71077  10.295   8.594   9.542 -0.0183 -0.1433  0.0416
  527MOL0     H71078  10.243   8.505   9.075  0.4665 -0.7244 -1.8241
  527MOL0     H71079  10.128   8.442   8.867 -1.0980 -1.8864  0.0770
  527MOL0     H71080   9.792   8.200   8.913 -0.5009  1.2578  1.4590
  527MOL0     H71081   9.693   8.339   8.859  1.2526  2.8488 -3.2030
  527MOL0     H71082   9.754   8.299   8.631  0.2373 -1.6421 -1.3141
  527MOL0     H71083   9.855   8.169   8.654 -0.2688 -0.0996  0.0039
  527MOL0     H71084   9.596   8.115   8.781 -0.3156  1.4610  0.0860
  527MOL0     H71085   9.568   8.179   8.625  0.7062  0.7026 -1.3594
  527MOL0     H71086   9.610   7.944   8.552  0.9485  1.1991 -2.6077
  527MOL0     H71087   9.777   7.989   8.565 -0.3960 -1.3600  0.6549
  527MOL0     H71088   9.790   7.931   8.794  2.1973 -1.4663  0.2557
  527MOL0     H71089   9.618   7.881   8.790 -0.2664 -2.1497  0.1402
  527MOL0     H71090   9.673   7.715   8.600  0.9328 -0.0493 -1.6943
  527MOL0     H71091   9.843   7.770   8.614  0.2337  2.0614  2.2482
  527MOL0     H71092   9.833   7.721   8.857 -2.8842  0.1958  2.8011
  527MOL0     H71093   9.666   7.657   8.839 -0.1869  1.0750 -1.8430
  527MOL0     H71094   9.787   7.468   8.686 -0.6422 -1.2692  1.1788
  527MOL0     H71095   9.819   7.471   8.862  3.3268 -1.2004 -0.8781
  527MOL0     H71096  10.004   7.445   8.540  1.0744 -2.0898 -0.3851
  527MOL0     H71097  10.256   7.480   8.462  0.6846  2.4007 -0.3430
  527MOL0     H71098  10.378   7.534   8.581  0.5668 -1.5131  2.5331
  527MOL0     H71099  10.212   7.280   8.570 -0.6450  2.4280 -1.2642
  527MOL0     H71100  10.330   7.307   8.703  1.0142  1.8442 -0.3514
  527MOL0     H71101  10.449   7.160   8.535  2.5192  1.3867  1.0176
  527MOL0     H71102  10.514   7.324   8.543  0.4154 -1.2963  1.1455
  527MOL0     H71103  10.500   7.217   8.325 -1.2466 -1.4282 -0.7872
  527MOL0     H71104  10.417   7.382   8.323 -1.2941  0.4956  1.7122
  527MOL0     H71105  10.407   7.353   8.110 -0.6139  0.9173 -0.4664
  527MOL0     H71106  10.433   7.299   7.772  2.2783 -0.6037  0.5059
  527MOL0     H71107  10.297   7.412   7.797  1.8676  1.3300  0.3520
  527MOL0     H71108  10.451   7.417   7.889  0.9442  0.0416 -1.1682
  527MOL0     H71109   9.897   6.999   7.607 -2.3366 -2.2320 -1.8904
  527MOL0     H71110   9.885   6.901   7.370 -1.0262  0.1927  0.6721
  527MOL0     H71111   9.882   6.741   7.208 -1.7986 -0.1871 -3.3769
  527MOL0     H71112   9.989   6.858   7.127  1.7985 -0.2861 -0.2292
  527MOL0     H71113   9.905   6.665   6.981 -1.2879 -0.3029  0.6032
  527MOL0     H71114  10.080   6.701   6.989 -0.1403  1.4938  2.2023
  527MOL0     H71115  10.094   6.502   7.142 -0.2295  1.7030 -0.1043
  527MOL0     H71116  10.056   6.457   6.973  1.6174  0.3624  0.5644
  527MOL0     H71117   9.928   6.327   7.156 -2.1239 -1.1201  0.7812
  527MOL0     H71118   9.887   6.465   7.242 -0.3327 -2.2903  0.0768
  527MOL0     H71119   9.797   6.432   6.944 -1.1514 -3.1067 -0.7635
  527MOL0     H71120   9.749   6.556   7.046  2.0610  0.5041  1.5878
  527MOL0     H71121   9.695   6.263   7.114  1.7782  0.2434 -4.5749
  527MOL0     H71122   9.657   6.405   7.219  2.1451 -0.5341  0.5153
  527MOL0     H71123   9.473   6.467   7.052 -0.6342  0.1722 -2.8943
  527MOL0     H71124   9.458   6.304   7.107 -0.7304  1.9317 -0.2019
  527MOL0     H71125   9.612   6.246   6.897  1.8742  1.7396 -3.1674
  527MOL0     H71126   9.560   6.403   6.839  1.4492  1.6886  0.3032
  527MOL0     H71127  10.261   6.711   7.441 -2.2545 -2.1991 -3.2377
  527MOL0     H71128  10.284   6.827   7.656 -0.1570  0.9792  0.6355
  527MOL0     H71129  10.104   6.990   7.998 -0.3271  0.6718  1.6423
  527MOL0     H71130  10.132   7.028   8.215 -2.0616  1.4921 -0.7492
  527MOL0     H71131   9.778   8.381   9.090 -0.2378 -0.0544 -0.5710
  527MOL0     H71132   9.871   8.433   9.289  0.4674 -0.6023 -1.3990
  527MOL0     H71133  10.240   8.907   9.431  0.2573 -0.7348 -0.2339
  527MOL0     H71134  10.358   8.954   9.625  0.1756 -0.9244 -1.0359
  527MOL0     H71135  10.567   8.608   9.828 -0.7401 -2.3048  3.3267
  527MOL0     H71136  10.624   8.737   9.917  1.0357 -1.8770 -0.5045
  527MOL0     H71137  10.347   8.649   9.974  0.3530  0.8256 -1.2313
  527MOL0     H71138  10.477   8.708  10.092  1.6373  2.4963 -2.5015
  527MOL0     H71139  10.595   8.491  10.030  0.7930  0.7898  0.0150
  527MOL0     H71140  10.449   8.444   9.943  2.1802  0.3104 -1.0992
  527MOL0     H71141  10.319   8.459  10.156 -0.1341  0.6779  0.1634
  527MOL0     H71142  10.448   8.525  10.249 -0.7027 -3.6005  3.5198
  527MOL0     H71143  10.513   8.110  10.272  5.3296  1.4896 -0.5320
  527MOL0     H71144  10.374   8.545   9.740 -1.5147  0.0267  0.3849
  527MOL0     H71145  10.275   8.490   9.516 -2.1955  0.0832  0.5641
  528MOL0     O71146   3.760   6.538   5.774  0.1269  1.4696  0.6060
  528MOL0     C71147   3.888   6.552   5.775  0.7318 -0.3118 -0.5568
  528MOL0     O71148   3.960   6.615   5.685  0.0725 -0.2137  0.3252
  528MOL0     C71149   3.876   6.684   5.594 -0.6262  0.3358 -0.1407
  528MOL0     C71150   3.811   6.805   5.630  0.1528 -0.2587 -0.0403
  528MOL0     C71151   3.737   6.878   5.533  0.0983 -0.2069  0.4284
  528MOL0     C71152   3.710   6.830   5.401 -0.6924 -1.0586  0.6399
  528MOL0     O71153   3.644   6.916   5.311 -0.7628  0.1279  0.3000
  528MOL0     C71154   3.530   6.854   5.249 -0.2823  0.1410  0.3459
  528MOL0     C71155   3.441   6.973   5.211 -1.0546 -0.3735 -0.0309
  528MOL0     C71156   3.381   7.054   5.323  0.0548  0.2676 -0.8340
  528MOL0     C71157   3.239   6.987   5.352 -0.4787  0.5318  0.0565
  528MOL0     C71158   3.177   7.059   5.474 -0.6579 -0.3913 -0.0527
  528MOL0     C71159   3.044   6.995   5.526  0.1697 -0.1721  0.8369
  528MOL0     C71160   2.933   6.985   5.409  0.1913 -0.8032  0.6419
  528MOL0     C71161   2.788   7.009   5.459 -0.0590 -0.1129 -0.3485
  528MOL0     N71162   2.754   6.929   5.581  0.0161 -1.5937 -0.3690
  528MOL0     C71163   2.709   6.986   5.698  0.3136  0.3483 -0.5320
  528MOL0     C71164   2.670   6.876   5.770  0.6985 -1.2437 -0.3786
  528MOL0     C71165   2.608   6.893   5.906 -0.3317  0.0203 -0.8427
  528MOL0     C71166   2.457   6.838   5.925  0.3557 -0.2405 -0.1890
  528MOL0     C71167   2.419   6.811   6.071 -0.3910 -0.3481 -0.0194
  528MOL0     C71168   2.466   6.918   6.175 -0.5998 -0.0566 -0.3840
  528MOL0     O71169   2.455   6.860   6.309 -0.4305 -0.1843  0.3261
  528MOL0     C71170   2.559   6.777   6.351 -1.4239 -0.6881 -0.5691
  528MOL0     C71171   2.677   6.731   6.287  0.2306  0.7717  0.3620
  528MOL0     C71172   2.772   6.651   6.361  0.6342  0.3493 -0.0298
  528MOL0     C71173   2.883   6.612   6.274 -0.6934  0.3526  0.0787
  528MOL0     C71174   2.755   6.620   6.498  0.0516  0.1395  0.5760
  528MOL0     C71175   2.855   6.548   6.575  1.2889 -0.9213  0.4559
  528MOL0     O71176   2.989   6.564   6.542 -0.7145  0.4260 -0.0160
  528MOL0     C71177   3.070   6.506   6.632 -0.2620 -1.0286 -1.2077
  528MOL0     C71178   3.087   6.591   6.743  0.4996 -0.1472  1.0040
  528MOL0     C71179   3.189   6.567   6.831 -0.0951  0.0609 -0.7139
  528MOL0     C71180   3.265   6.448   6.829 -0.3245  0.8716 -0.2599
  528MOL0     O71181   3.351   6.433   6.938  0.5094  0.7027  0.3540
  528MOL0     C71182   3.448   6.340   6.913 -0.7649 -0.5449 -0.0329
  528MOL0     C71183   3.541   6.325   7.035  0.7894 -0.4069  0.1228
  528MOL0     C71184   3.654   6.234   7.001 -0.9836 -0.3527  0.3827
  528MOL0     C71185   3.771   6.236   7.103 -0.0744 -0.1570  0.0889
  528MOL0     C71186   3.863   6.121   7.071 -0.0772  0.0393  0.6951
  528MOL0     C71187   3.959   6.146   6.944  0.0645  0.0855 -0.1245
  528MOL0     C71188   4.065   6.254   6.959 -0.1363  0.4940  0.3464
  528MOL0     C71189   4.146   6.262   6.834 -1.0111  0.0170 -0.5464
  528MOL0    Cl71190   4.052   6.279   6.687  0.0396 -0.2527  0.4643
  528MOL0     C71191   3.249   6.362   6.719 -0.2879 -0.7730 -0.9421
  528MOL0     C71192   3.153   6.396   6.623 -0.0457 -0.8057  0.5349
  528MOL0     O71193   2.815   6.482   6.667  0.2958 -0.1373  0.0871
  528MOL0     C71194   2.641   6.671   6.562  0.7109 -1.0540 -0.2037
  528MOL0     C71195   2.546   6.747   6.489  1.2211 -0.4028 -1.0616
  528MOL0     N71196   2.673   6.763   5.696 -0.5596  1.1489 -0.8605
  528MOL0     N71197   2.735   6.795   5.588 -0.7421  0.3531 -0.1849
  528MOL0     C71198   3.765   6.705   5.367 -0.7788 -0.4813 -0.0296
  528MOL0     C71199   3.846   6.627   5.463 -0.0285 -0.7139  0.3131
  528MOL0     C71200   3.966   6.509   5.894  0.2273  0.5460 -0.3859
  528MOL0     C71201   4.110   6.519   5.885 -0.4158  0.3146 -0.0009
  528MOL0     C71202   4.184   6.474   5.997 -0.3187  0.9918 -0.0871
  528MOL0     C71203   4.122   6.420   6.114 -0.9270 -0.1406 -0.0275
  528MOL0     O71204   4.185   6.382   6.234  0.3619 -0.1553 -0.3265
  528MOL0     C71205   4.325   6.376   6.249 -0.2732 -0.9994 -0.0873
  528MOL0     C71206   4.371   6.466   6.373 -0.4157 -0.4899 -1.0325
  528MOL0     C71207   4.323   6.420   6.510 -0.3321 -0.2486  0.7264
  528MOL0     C71208   4.371   6.284   6.564 -0.2151 -0.6223  0.8857
  528MOL0     C71209   4.509   6.301   6.612  0.8511  0.6487 -0.8380
  528MOL0     C71210   4.623   6.311   6.658 -0.3035  0.3145  0.3557
  528MOL0     C71211   3.981   6.409   6.120  0.0699 -1.1171 -0.2045
  528MOL0     C71212   3.908   6.454   6.008  0.1304  0.0161  0.2609
  528MOL0     H71213   3.839   6.863   5.717 -2.7517 -0.6713  1.2841
  528MOL0     H71214   3.681   6.970   5.546  1.2762  0.6199 -0.1772
  528MOL0     H71215   3.542   6.787   5.163 -1.0779 -0.5613  0.7578
  528MOL0     H71216   3.477   6.793   5.323  0.0125 -0.7943 -0.1985
  528MOL0     H71217   3.512   7.043   5.167 -1.1151 -0.9940 -1.1413
  528MOL0     H71218   3.370   6.941   5.134  1.5839  0.1849 -2.9079
  528MOL0     H71219   3.448   7.045   5.409 -0.5020  0.0851 -0.4069
  528MOL0     H71220   3.385   7.162   5.308 -1.3469  0.6887  1.2727
  528MOL0     H71221   3.173   6.995   5.266 -1.5084  0.5320  0.8269
  528MOL0     H71222   3.261   6.884   5.381  1.6884  1.2561  1.2306
  528MOL0     H71223   3.244   7.063   5.560 -0.6970 -0.8737  0.0005
  528MOL0     H71224   3.153   7.161   5.441 -2.3414 -0.0149  2.0662
  528MOL0     H71225   3.056   6.890   5.556 -1.5564 -1.5992 -2.8264
  528MOL0     H71226   2.996   7.065   5.596 -1.8091  2.2041 -2.6063
  528MOL0     H71227   2.961   7.060   5.334 -0.2877 -0.4655  0.8019
  528MOL0     H71228   2.948   6.884   5.370 -1.2665 -1.3399  1.4068
  528MOL0     H71229   2.727   6.975   5.374 -1.5850 -1.8589  1.3380
  528MOL0     H71230   2.760   7.113   5.477 -0.9368 -0.7100  2.1487
  528MOL0     H71231   2.714   7.083   5.745 -0.4475  0.4013 -0.5406
  528MOL0     H71232   2.670   6.853   5.987  0.0815  1.5266 -0.3784
  528MOL0     H71233   2.603   7.001   5.921 -2.0128 -0.0850 -0.4352
  528MOL0     H71234   2.444   6.746   5.867  1.9748 -0.6289  0.0138
  528MOL0     H71235   2.387   6.912   5.887 -0.2296  0.0481  1.4010
  528MOL0     H71236   2.459   6.715   6.106 -1.6916 -0.5148  1.1079
  528MOL0     H71237   2.311   6.792   6.065 -0.2166 -1.0406 -1.2666
  528MOL0     H71238   2.404   7.007   6.156 -0.8074 -0.1126 -0.0003
  528MOL0     H71239   2.568   6.957   6.177 -0.2191 -0.1622  6.2936
  528MOL0     H71240   2.695   6.751   6.182  2.6879 -0.8411  0.3835
  528MOL0     H71241   2.963   6.657   6.332 -2.3749  2.0756  1.1865
  528MOL0     H71242   2.898   6.506   6.250  0.5510  0.3250  0.9098
  528MOL0     H71243   2.883   6.661   6.176 -0.7601  2.0790  0.9051
  528MOL0     H71244   3.031   6.683   6.737 -1.9694 -1.6681 -3.4232
  528MOL0     H71245   3.206   6.641   6.909  1.2096 -1.9537  0.9987
  528MOL0     H71246   3.403   6.241   6.902 -0.4316 -0.6947 -0.0577
  528MOL0     H71247   3.510   6.359   6.824  0.7366  1.4034  1.3436
  528MOL0     H71248   3.575   6.424   7.063  1.7297 -0.3549 -1.1318
  528MOL0     H71249   3.482   6.278   7.115  4.2084 -3.0561  1.3348
  528MOL0     H71250   3.702   6.251   6.905  1.1825  1.1352  1.6342
  528MOL0     H71251   3.609   6.135   6.998 -0.4683 -0.5810 -0.0125
  528MOL0     H71252   3.822   6.332   7.103  0.9186 -0.5535  3.3511
  528MOL0     H71253   3.735   6.220   7.205 -1.2939  3.4164  0.3638
  528MOL0     H71254   3.803   6.036   7.038 -0.1624  0.6351 -0.7406
  528MOL0     H71255   3.920   6.085   7.157  0.2984  0.2331  0.5303
  528MOL0     H71256   4.009   6.054   6.912  2.5322  2.3525 -3.4879
  528MOL0     H71257   3.896   6.187   6.865 -0.5811  1.3669  1.0206
  528MOL0     H71258   4.138   6.226   7.036  0.2435  2.0415  0.5714
  528MOL0     H71259   4.036   6.355   6.987  0.5734 -0.0412  3.4003
  528MOL0     H71260   4.208   6.173   6.827  0.4408  1.0019 -0.8323
  528MOL0     H71261   4.226   6.336   6.847 -1.2918  0.4039 -0.9567
  528MOL0     H71262   3.292   6.264   6.701 -0.9596 -1.1081 -0.7574
  528MOL0     H71263   3.140   6.318   6.549  1.0533  0.5927 -1.2002
  528MOL0     H71264   2.632   6.635   6.664  1.5954 -0.6773  0.0102
  528MOL0     H71265   2.456   6.786   6.536  1.3474 -1.0783 -0.2281
  528MOL0     H71266   3.754   6.656   5.271  3.9153 -1.5176 -0.3001
  528MOL0     H71267   3.906   6.543   5.428  0.4753  0.4912 -1.9262
  528MOL0     H71268   4.155   6.566   5.798 -1.4356  1.1661 -0.0845
  528MOL0     H71269   4.291   6.483   5.981 -0.6418  1.7005 -2.1310
  528MOL0     H71270   4.359   6.274   6.264 -0.7730 -0.9135  2.0076
  528MOL0     H71271   4.376   6.410   6.159 -2.5508  0.1563 -1.0237
  528MOL0     H71272   4.329   6.566   6.365  0.0030 -0.0686  1.2780
  528MOL0     H71273   4.480   6.474   6.375 -0.4623  0.1124  0.1518
  528MOL0     H71274   4.216   6.398   6.504  0.2196 -2.6609 -1.7247
  528MOL0     H71275   4.326   6.503   6.581 -1.7601 -2.0465  3.0545
  528MOL0     H71276   4.342   6.207   6.492 -2.9866 -0.6223  1.8677
  528MOL0     H71277   4.320   6.266   6.659 -0.1662 -1.1066  0.8211
  528MOL0     H71278   4.718   6.305   6.709  0.0036  1.7549 -0.0041
  528MOL0     H71279   3.933   6.362   6.205 -1.5897 -0.3182 -0.6582
  528MOL0     H71280   3.801   6.464   6.026  0.4014 -0.3114  2.1934
  529MOL0     O71281   9.615   8.054   3.215  0.1224  1.0705  1.1520
  529MOL0     C71282   9.657   8.139   3.147  0.9083  0.1642 -0.1636
  529MOL0     O71283   9.591   8.219   3.058 -0.4168  0.3879  0.9871
  529MOL0     C71284   9.452   8.185   3.046 -0.5869 -0.3267 -0.6012
  529MOL0     C71285   9.403   8.104   2.946  0.4794 -0.2405  0.1736
  529MOL0     C71286   9.265   8.076   2.936 -0.4086 -1.0518 -0.3027
  529MOL0     C71287   9.180   8.126   3.027 -0.3355 -0.4489 -0.1922
  529MOL0     O71288   9.053   8.100   2.988  0.6405 -1.1002  0.0627
  529MOL0     C71289   8.956   8.195   3.025  0.7324  0.8470 -0.5526
  529MOL0     C71290   8.859   8.224   2.914  0.9170  0.0456 -0.1316
  529MOL0     C71291   8.743   8.318   2.933 -1.4624  0.4839 -0.7301
  529MOL0     C71292   8.772   8.467   2.933  0.2156 -0.0219 -0.5358
  529MOL0     C71293   8.808   8.533   2.798 -0.2874 -0.1575 -0.3626
  529MOL0     C71294   8.813   8.684   2.828  0.1673 -0.0562  0.0161
  529MOL0     C71295   8.878   8.758   2.709  0.0372 -0.9545  0.5792
  529MOL0     C71296   8.889   8.917   2.730  0.5903 -0.8062 -0.3074
  529MOL0     N71297   8.995   8.965   2.823  0.0969  0.1614  0.6681
  529MOL0     C71298   8.985   9.058   2.928  0.6631 -0.2748 -0.9211
  529MOL0     C71299   9.116   9.073   2.963  0.1942 -0.3625  0.6433
  529MOL0     C71300   9.169   9.161   3.067  0.2026  0.7078 -0.3954
  529MOL0     C71301   9.197   9.101   3.198  0.7574  0.4377  0.0377
  529MOL0     C71302   9.316   9.009   3.212 -0.5939  0.6410 -0.8740
  529MOL0     C71303   9.340   8.966   3.361  0.3001 -0.2242  0.4037
  529MOL0     O71304   9.463   8.918   3.386 -1.0311 -0.0592 -0.0761
  529MOL0     C71305   9.569   9.017   3.394  0.0048  1.7240 -0.9389
  529MOL0     C71306   9.564   9.150   3.374 -0.5937  0.2779 -0.8945
  529MOL0     C71307   9.672   9.233   3.347  0.1405 -1.0851 -1.3966
  529MOL0     C71308   9.644   9.377   3.309 -0.1505  0.0032  0.0687
  529MOL0     C71309   9.798   9.184   3.383  0.4889  0.7279  0.8161
  529MOL0     C71310   9.923   9.265   3.373  0.7070  0.0172 -0.6777
  529MOL0     O71311   9.908   9.396   3.401  0.6365 -0.7173  0.5714
  529MOL0     C71312  10.016   9.474   3.423  0.1200  0.3270  0.0890
  529MOL0     C71313  10.155   9.444   3.412 -0.7099  0.3202 -0.2211
  529MOL0     C71314  10.245   9.526   3.471 -0.7952 -0.6288 -0.3585
  529MOL0     C71315  10.207   9.660   3.511 -0.0439  1.0943 -0.5284
  529MOL0     O71316  10.299   9.751   3.539  0.2250 -0.0767  0.1831
  529MOL0     C71317  10.417   9.703   3.599 -0.5661  1.1091  0.3590
  529MOL0     C71318  10.511   9.823   3.630  0.2449 -0.1990  0.8350
  529MOL0     C71319  10.640   9.771   3.690  0.1688  0.2726 -0.5626
  529MOL0     C71320  10.739   9.883   3.697 -1.1230 -0.1186  0.2269
  529MOL0     C71321  10.808   9.910   3.561 -0.6820  0.7699  0.6299
  529MOL0     C71322  10.936  10.006   3.582  0.2738  0.5959 -0.7551
  529MOL0     C71323  10.913  10.130   3.681 -0.8618 -0.1861 -0.0695
  529MOL0     C71324  10.837  10.251   3.623  0.3806  0.3952 -1.1961
  529MOL0    Cl71325  10.956  10.375   3.567 -0.4271 -0.0927  0.4123
  529MOL0     C71326  10.075   9.690   3.509 -0.2411  0.4496  0.9554
  529MOL0     C71327   9.981   9.595   3.472  0.2646 -0.4434  0.5222
  529MOL0     O71328  10.026   9.202   3.374  0.6682 -0.2103  0.6090
  529MOL0     C71329   9.810   9.048   3.425 -0.3855 -1.3586 -0.0627
  529MOL0     C71330   9.689   8.969   3.424  0.2375 -0.4505 -0.0139
  529MOL0     N71331   9.193   8.994   2.885 -0.4976  0.9318 -0.5090
  529MOL0     N71332   9.122   8.920   2.812 -0.2711 -0.3819 -0.4152
  529MOL0     C71333   9.229   8.203   3.138  0.4684 -0.2138 -0.9954
  529MOL0     C71334   9.366   8.235   3.149 -0.3448  1.0160 -0.4909
  529MOL0     C71335   9.805   8.153   3.164 -0.4724 -1.0436  0.3067
  529MOL0     C71336   9.889   8.248   3.101 -0.4619  0.0758 -0.6792
  529MOL0     C71337  10.030   8.259   3.128  0.6595  0.1292  0.6454
  529MOL0     C71338  10.086   8.174   3.214 -0.5221 -0.4543  0.3670
  529MOL0     O71339  10.218   8.158   3.253 -0.1241 -0.0832  0.1213
  529MOL0     C71340  10.304   8.264   3.217 -0.3929  0.1756 -0.6088
  529MOL0     C71341  10.431   8.258   3.311  0.3080 -0.0998  0.5002
  529MOL0     C71342  10.432   8.169   3.439  0.2956  0.7620 -0.7675
  529MOL0     C71343  10.565   8.173   3.515 -0.9724  0.3608 -1.1435
  529MOL0     C71344  10.590   8.049   3.597  0.7146  1.0243 -0.7115
  529MOL0     C71345  10.611   7.964   3.684 -0.0140 -0.2664 -0.3633
  529MOL0     C71346  10.004   8.093   3.290  0.6103 -0.2448 -1.2617
  529MOL0     C71347   9.871   8.080   3.260 -0.1981 -0.2649 -0.8023
  529MOL0     H71348   9.478   8.059   2.881  1.4293  0.8257  0.4934
  529MOL0     H71349   9.223   8.024   2.850 -0.2707 -2.0087  0.1996
  529MOL0     H71350   8.903   8.151   3.111  1.4061 -1.0811 -1.0748
  529MOL0     H71351   9.011   8.287   3.045  1.1847  1.4391 -3.9510
  529MOL0     H71352   8.895   8.261   2.818 -1.4619 -1.0519 -1.5390
  529MOL0     H71353   8.835   8.123   2.879  4.2346 -0.4885 -1.1326
  529MOL0     H71354   8.684   8.298   2.843  0.0692 -1.5213 -1.3539
  529MOL0     H71355   8.687   8.288   3.022 -1.4104 -1.9917 -1.4745
  529MOL0     H71356   8.683   8.522   2.967  2.5425  3.5510  0.2662
  529MOL0     H71357   8.848   8.470   3.011 -0.5820 -0.6285  0.2788
  529MOL0     H71358   8.907   8.503   2.763 -1.0785 -1.2492 -1.8066
  529MOL0     H71359   8.739   8.503   2.717  0.7253 -0.5287 -1.1066
  529MOL0     H71360   8.710   8.716   2.844  0.2455  0.2063  0.0207
  529MOL0     H71361   8.870   8.717   2.915  2.3301  2.7905 -2.2633
  529MOL0     H71362   8.984   8.732   2.705  0.6718  1.2342  1.4334
  529MOL0     H71363   8.820   8.744   2.617 -0.2746  1.1310  0.3962
  529MOL0     H71364   8.788   8.943   2.763  0.1816 -2.8514  0.1862
  529MOL0     H71365   8.906   8.969   2.635 -2.8315  0.5558 -0.3291
  529MOL0     H71366   8.898   9.100   2.977  2.4498 -0.4409  2.7266
  529MOL0     H71367   9.259   9.211   3.032  1.6598  1.2519  3.6157
  529MOL0     H71368   9.095   9.238   3.092 -0.8216 -0.8457  1.7515
  529MOL0     H71369   9.114   9.041   3.238  2.1870 -0.7691  1.3371
  529MOL0     H71370   9.201   9.188   3.264 -0.8017 -1.3858  2.7526
  529MOL0     H71371   9.407   9.068   3.199  3.2417 -3.0237  4.7745
  529MOL0     H71372   9.329   8.926   3.143  4.2624  2.4818 -2.5686
  529MOL0     H71373   9.271   8.882   3.367 -0.9974  0.8066  0.4756
  529MOL0     H71374   9.303   9.030   3.443 -0.8057 -0.6973  0.2965
  529MOL0     H71375   9.461   9.185   3.368 -0.0326  2.1336 -0.3661
  529MOL0     H71376   9.666   9.449   3.388 -0.9214  0.3511 -0.0260
  529MOL0     H71377   9.706   9.402   3.222  2.0524 -2.8673  0.6530
  529MOL0     H71378   9.540   9.389   3.278  0.5640  1.3492 -2.0960
  529MOL0     H71379  10.194   9.348   3.382 -1.1940 -0.1300  0.5606
  529MOL0     H71380  10.339   9.473   3.484  0.3607  1.6577  1.2466
  529MOL0     H71381  10.401   9.644   3.690 -1.1683  1.7494  0.6741
  529MOL0     H71382  10.477   9.637   3.535 -3.6125 -1.5387 -0.0696
  529MOL0     H71383  10.517   9.875   3.534  0.3223 -0.2541  0.8095
  529MOL0     H71384  10.454   9.879   3.705  0.2118 -2.7540  2.8495
  529MOL0     H71385  10.684   9.699   3.620 -0.3603  1.6840 -2.3980
  529MOL0     H71386  10.633   9.718   3.786 -1.3659  0.5712 -0.4845
  529MOL0     H71387  10.678   9.971   3.722 -1.4829 -0.1018 -0.6601
  529MOL0     H71388  10.814   9.855   3.771 -1.6470 -1.9594  0.0948
  529MOL0     H71389  10.734   9.945   3.489  1.1696  1.4686 -1.0208
  529MOL0     H71390  10.834   9.813   3.518  3.9820  3.0031 -2.3578
  529MOL0     H71391  11.010   9.938   3.624 -0.6067 -0.3996 -0.7705
  529MOL0     H71392  10.961  10.045   3.483 -0.2925 -0.0737 -1.1694
  529MOL0     H71393  11.013  10.160   3.715 -1.8209  1.1326  1.7722
  529MOL0     H71394  10.852  10.102   3.767 -1.1365  2.4772  0.6764
  529MOL0     H71395  10.785  10.286   3.713 -0.1787 -1.0454 -0.9285
  529MOL0     H71396  10.769  10.226   3.541 -0.7844 -0.2326 -0.0763
  529MOL0     H71397  10.037   9.791   3.523 -2.0374 -0.2169  1.1486
  529MOL0     H71398   9.880   9.635   3.474 -0.4124 -2.0809  1.5864
  529MOL0     H71399   9.902   8.995   3.444  0.2948 -0.5670 -1.0333
  529MOL0     H71400   9.703   8.867   3.458  1.2687 -0.6089 -0.8606
  529MOL0     H71401   9.147   8.240   3.200  0.3847 -0.8733 -0.7060
  529MOL0     H71402   9.399   8.282   3.241 -1.7869 -0.3107  0.7632
  529MOL0     H71403   9.850   8.308   3.019  0.8213  1.4802 -0.3121
  529MOL0     H71404  10.084   8.330   3.066 -0.4488 -1.1281 -1.9421
  529MOL0     H71405  10.330   8.268   3.111  0.2924  2.2440 -0.4138
  529MOL0     H71406  10.252   8.360   3.223  0.4324  0.5776  0.4093
  529MOL0     H71407  10.429   8.364   3.340 -0.3862  0.0423 -0.0133
  529MOL0     H71408  10.517   8.238   3.248 -0.7971 -0.1687 -1.0485
  529MOL0     H71409  10.418   8.065   3.408  0.5774  0.5815 -0.3008
  529MOL0     H71410  10.347   8.189   3.505  0.8581  0.8970 -0.0736
  529MOL0     H71411  10.567   8.255   3.588  1.3558 -0.0873 -0.6509
  529MOL0     H71412  10.648   8.179   3.444  1.6839 -2.5471  1.4457
  529MOL0     H71413  10.636   7.889   3.756  1.3381  1.0018  0.5716
  529MOL0     H71414  10.053   8.033   3.366 -0.6084  1.2429  0.8194
  529MOL0     H71415   9.826   7.995   3.308  1.1734 -1.8164 -2.1394
  530MOL0     O71416   0.005  11.176   8.149 -0.1945  0.1275 -0.2501
  530MOL0     C71417  -0.078  11.093   8.198  0.0664  0.4918  0.7712
  530MOL0     O71418  -0.216  11.098   8.184 -0.4270  0.3492  0.0043
  530MOL0     C71419  -0.291  11.194   8.126  0.8327  0.3284 -0.4403
  530MOL0     C71420  -0.254  11.328   8.147  0.0098 -0.4391  0.5343
  530MOL0     C71421  -0.335  11.432   8.105  0.5269 -0.0748  0.8577
  530MOL0     C71422  -0.464  11.406   8.047 -0.3528 -0.1951  0.4102
  530MOL0     O71423  -0.547  11.516   8.018 -0.1478  0.6144 -0.3906
  530MOL0     C71424  -0.618  11.500   7.895 -1.0001 -0.2449  0.3096
  530MOL0     C71425  -0.767  11.453   7.923 -0.6564  0.1778 -0.0584
  530MOL0     C71426  -0.851  11.407   7.798 -0.5289  0.0556 -0.0425
  530MOL0     C71427  -0.990  11.353   7.843 -0.5674  0.4177 -0.4288
  530MOL0     C71428  -0.978  11.206   7.899  1.0607  0.0427 -0.4200
  530MOL0     C71429  -1.105  11.194   7.991  0.2543 -0.4839  0.0550
  530MOL0     C71430  -1.174  11.057   8.000 -1.3434 -0.0143  0.2559
  530MOL0     C71431  -1.234  11.000   7.866 -0.1082  0.1716  0.8202
  530MOL0     N71432  -1.174  10.877   7.822  0.9596  0.3429  0.5989
  530MOL0     C71433  -1.078  10.800   7.886 -0.1696  0.6227 -0.3925
  530MOL0     C71434  -1.079  10.692   7.814 -0.2418  0.5468 -0.1025
  530MOL0     C71435  -1.001  10.564   7.848  0.1816 -0.0212  0.5100
  530MOL0     C71436  -0.856  10.578   7.808 -0.5550  0.2350 -0.2783
  530MOL0     C71437  -0.777  10.445   7.807 -0.6983  0.6270 -0.0353
  530MOL0     C71438  -0.794  10.375   7.949  0.2517 -0.8924  0.5810
  530MOL0     O71439  -0.713  10.259   7.953 -0.8145 -0.0827  0.0613
  530MOL0     C71440  -0.752  10.160   8.042  0.3086  0.1361  0.2867
  530MOL0     C71441  -0.873  10.089   8.024 -0.0788 -0.7699  0.0892
  530MOL0     C71442  -0.894   9.971   8.087 -0.8261 -0.0239  0.7251
  530MOL0     C71443  -1.024   9.900   8.063 -0.6292  0.0667 -0.1816
  530MOL0     C71444  -0.798   9.914   8.179  0.5757 -0.7568  0.4066
  530MOL0     C71445  -0.823   9.804   8.281  0.7272 -0.1814 -0.1176
  530MOL0     O71446  -0.740   9.818   8.396 -0.4921 -1.3012  0.8191
  530MOL0     C71447  -0.742   9.722   8.493  0.5801  0.4168 -0.7712
  530MOL0     C71448  -0.628   9.664   8.528  0.0028 -0.0484  0.4307
  530MOL0     C71449  -0.619   9.586   8.642  0.7641 -0.0021 -0.4305
  530MOL0     C71450  -0.731   9.562   8.728 -0.9415  0.0998 -0.0669
  530MOL0     O71451  -0.708   9.503   8.845 -0.7184  0.7156  0.7498
  530MOL0     C71452  -0.819   9.468   8.922  0.9154 -0.0127 -0.5287
  530MOL0     C71453  -0.789   9.370   9.036 -0.0735  1.1905  1.0434
  530MOL0     C71454  -0.887   9.385   9.146 -0.0725  0.7087 -0.2278
  530MOL0     C71455  -0.840   9.297   9.265  0.0866  0.8785  0.0892
  530MOL0     C71456  -0.936   9.320   9.382  0.6759  0.7053 -0.6618
  530MOL0     C71457  -1.091   9.307   9.343  0.9825 -0.9714  0.2305
  530MOL0     C71458  -1.125   9.164   9.297  0.0848  0.3359  0.0812
  530MOL0     C71459  -1.279   9.156   9.304  0.6840 -0.2168  0.0461
  530MOL0    Cl71460  -1.353   9.301   9.216  0.0864  0.0266 -0.1193
  530MOL0     C71461  -0.847   9.616   8.685  0.9208 -0.5538 -0.3530
  530MOL0     C71462  -0.861   9.696   8.572  0.7654 -0.1480 -0.0263
  530MOL0     O71463  -0.901   9.711   8.263 -0.5034  0.1003  0.2582
  530MOL0     C71464  -0.681   9.993   8.199  0.8192 -0.4946 -0.2051
  530MOL0     C71465  -0.655  10.106   8.118 -0.7557  0.7331 -0.0480
  530MOL0     N71466  -1.175  10.699   7.715 -0.1533 -0.9174  0.2366
  530MOL0     N71467  -1.226  10.816   7.710  0.2894 -0.4196  0.5490
  530MOL0     C71468  -0.497  11.268   8.033  0.0886  0.1190  0.2845
  530MOL0     C71469  -0.411  11.163   8.077 -0.2508  0.3844 -0.0546
  530MOL0     C71470  -0.029  10.977   8.277  0.2336 -0.1280 -0.4032
  530MOL0     C71471   0.078  10.993   8.365 -0.1728  0.2456  0.4806
  530MOL0     C71472   0.132  10.879   8.432  0.2858  0.4570  0.3358
  530MOL0     C71473   0.077  10.746   8.413 -0.9364  0.7385  0.4435
  530MOL0     O71474   0.108  10.646   8.502 -0.0166  0.3855 -0.1918
  530MOL0     C71475   0.226  10.656   8.589 -0.8288 -0.0999 -0.3160
  530MOL0     C71476   0.252  10.530   8.657 -0.1145  0.1550 -0.1315
  530MOL0     C71477   0.395  10.515   8.715 -0.6689 -0.5619  0.2486
  530MOL0     C71478   0.436  10.377   8.743  0.5318 -0.0155 -0.7249
  530MOL0     C71479   0.575  10.390   8.788 -0.4821  0.1920 -0.2904
  530MOL0     C71480   0.692  10.405   8.813 -0.0156 -0.5890 -0.6483
  530MOL0     C71481  -0.035  10.733   8.327 -0.1090 -0.2601  0.3774
  530MOL0     C71482  -0.086  10.846   8.260  0.1428 -0.4506 -0.1544
  530MOL0     H71483  -0.158  11.352   8.191 -0.5809 -2.7381  3.3843
  530MOL0     H71484  -0.305  11.535   8.091  0.8259 -0.5080 -2.7607
  530MOL0     H71485  -0.626  11.591   7.834 -2.7221 -0.1958  0.5612
  530MOL0     H71486  -0.569  11.425   7.833 -2.0744  0.1939 -1.1329
  530MOL0     H71487  -0.744  11.365   7.983  1.4122  2.1311  2.2250
  530MOL0     H71488  -0.814  11.527   7.989  1.3140  0.9260  0.5947
  530MOL0     H71489  -0.858  11.489   7.726 -0.7465 -0.9791 -1.2334
  530MOL0     H71490  -0.796  11.328   7.745  3.2403  1.4140  1.4712
  530MOL0     H71491  -1.040  11.427   7.906 -0.5293  1.9287 -2.0886
  530MOL0     H71492  -1.052  11.348   7.753 -2.2312 -1.0873  0.7298
  530MOL0     H71493  -0.974  11.137   7.813 -1.0086  0.2685 -0.7493
  530MOL0     H71494  -0.890  11.191   7.961 -0.6174  1.2120  2.4080
  530MOL0     H71495  -1.079  11.204   8.096 -2.8333  0.6034  0.8276
  530MOL0     H71496  -1.181  11.270   7.969  2.7794  2.1832  0.0917
  530MOL0     H71497  -1.115  10.987   8.060 -0.6458  0.3450  0.0038
  530MOL0     H71498  -1.252  11.092   8.068  0.3499  2.0841  1.2460
  530MOL0     H71499  -1.237  11.075   7.786  2.3651 -0.6631 -0.1287
  530MOL0     H71500  -1.337  10.966   7.881 -0.0917  0.2471  1.1254
  530MOL0     H71501  -1.007  10.819   7.966  1.4980 -1.6853 -1.2480
  530MOL0     H71502  -1.013  10.546   7.955  0.1378  1.6740  0.8212
  530MOL0     H71503  -1.044  10.486   7.785  0.0897  2.1723 -2.3242
  530MOL0     H71504  -0.806  10.662   7.857 -1.6595  0.5816  0.2646
  530MOL0     H71505  -0.857  10.602   7.701 -0.8085 -1.1836 -0.6230
  530MOL0     H71506  -0.677  10.470   7.773 -0.5101 -0.7679 -0.5610
  530MOL0     H71507  -0.822  10.382   7.730 -0.7946 -0.8389  1.1733
  530MOL0     H71508  -0.899  10.349   7.955  0.4424 -1.4536  1.7745
  530MOL0     H71509  -0.756  10.444   8.026 -0.8881 -2.4765  2.6467
  530MOL0     H71510  -0.949  10.128   7.958  0.2291  1.2299  0.8540
  530MOL0     H71511  -1.086   9.972   8.009  1.2739 -0.6384 -3.5731
  530MOL0     H71512  -1.003   9.817   7.996 -0.9375 -2.0070  2.1563
  530MOL0     H71513  -1.064   9.870   8.160 -2.3951  2.8745  0.0984
  530MOL0     H71514  -0.543   9.679   8.463  0.7486 -1.7755  0.9336
  530MOL0     H71515  -0.522   9.547   8.673  0.0694  0.1896  2.2146
  530MOL0     H71516  -0.861   9.559   8.967 -1.5393 -1.2878 -0.0737
  530MOL0     H71517  -0.893   9.413   8.864  1.0928 -2.0723  1.0659
  530MOL0     H71518  -0.780   9.267   9.002 -1.4202 -0.0667  4.1432
  530MOL0     H71519  -0.695   9.395   9.085  1.0576 -1.9435  0.7013
  530MOL0     H71520  -0.982   9.347   9.107 -0.4248  0.4324  0.8812
  530MOL0     H71521  -0.898   9.489   9.176 -2.6792  0.7412 -1.0517
  530MOL0     H71522  -0.845   9.190   9.240 -0.8468  1.6543 -3.7082
  530MOL0     H71523  -0.739   9.318   9.303  0.8322 -4.0858  1.6740
  530MOL0     H71524  -0.919   9.420   9.422  1.4139  0.0723  0.6589
  530MOL0     H71525  -0.910   9.255   9.466 -1.0900  0.9432  0.1209
  530MOL0     H71526  -1.153   9.343   9.426  1.1171 -0.8891  0.2963
  530MOL0     H71527  -1.110   9.376   9.260 -1.5131  0.0323  1.5241
  530MOL0     H71528  -1.072   9.090   9.357  0.8199  0.9652  0.2339
  530MOL0     H71529  -1.096   9.161   9.191  0.2705  2.3506  0.0260
  530MOL0     H71530  -1.313   9.173   9.407 -0.8892  1.8174 -0.7635
  530MOL0     H71531  -1.318   9.065   9.257 -0.9136  0.6358 -0.3216
  530MOL0     H71532  -0.933   9.612   8.752  0.0700  1.7005 -1.2104
  530MOL0     H71533  -0.953   9.749   8.547  0.2366  0.4010  2.7366
  530MOL0     H71534  -0.610   9.949   8.269  1.8408 -3.4914 -2.8829
  530MOL0     H71535  -0.555  10.145   8.132  0.2611 -1.5478 -0.3646
  530MOL0     H71536  -0.593  11.238   7.993 -1.5814  1.0840  3.2153
  530MOL0     H71537  -0.443  11.060   8.064  0.9489  0.1266 -1.1967
  530MOL0     H71538   0.110  11.094   8.389 -2.8528  2.1118 -2.8458
  530MOL0     H71539   0.201  10.891   8.516 -1.1380  0.1435  1.5818
  530MOL0     H71540   0.309  10.680   8.522  0.8897 -1.1005  1.3516
  530MOL0     H71541   0.234  10.736   8.663  2.1206  0.2400 -0.8823
  530MOL0     H71542   0.227  10.446   8.592 -0.1634  0.0411  0.0361
  530MOL0     H71543   0.179  10.530   8.738  1.2008 -1.7971  1.1246
  530MOL0     H71544   0.396  10.570   8.809 -2.0561 -0.3735  0.1678
  530MOL0     H71545   0.453  10.562   8.635 -0.9609 -0.3089  0.1833
  530MOL0     H71546   0.432  10.321   8.649 -1.4646 -0.4747 -0.4106
  530MOL0     H71547   0.385  10.318   8.820  2.5058 -0.3813  0.3566
  530MOL0     H71548   0.794  10.418   8.843 -0.7155  2.3450  0.7748
  530MOL0     H71549  -0.076  10.633   8.317  0.5568 -0.3725 -1.7662
  530MOL0     H71550  -0.175  10.837   8.199 -0.1634  4.3070 -0.7715
  531MOL0     O71551   1.400   5.575   2.954 -0.5080  0.4297  0.3611
  531MOL0     C71552   1.318   5.494   2.996 -0.2725 -0.6452 -0.3583
  531MOL0     O71553   1.222   5.431   2.928 -0.4884 -0.7442 -0.0588
  531MOL0     C71554   1.233   5.404   2.794  1.1110 -0.0517 -1.0865
  531MOL0     C71555   1.112   5.377   2.734 -0.4494 -0.1263 -0.0559
  531MOL0     C71556   1.105   5.323   2.606 -0.3913 -0.0886 -0.6782
  531MOL0     C71557   1.233   5.301   2.539  0.7754 -0.1051 -1.2379
  531MOL0     O71558   1.221   5.229   2.417  0.4661  0.2981  0.6952
  531MOL0     C71559   1.327   5.137   2.372  0.9808 -1.2269 -0.8921
  531MOL0     C71560   1.296   5.073   2.244  1.2653 -0.7654  0.1388
  531MOL0     C71561   1.155   5.016   2.241 -0.9713 -0.2949 -0.1720
  531MOL0     C71562   1.139   4.905   2.133 -0.0587  0.2813 -0.5660
  531MOL0     C71563   0.997   4.866   2.108  0.0579 -0.4058 -0.8137
  531MOL0     C71564   0.989   4.777   1.976  1.0620  0.7872  1.3017
  531MOL0     C71565   0.848   4.729   1.960 -0.4036 -0.1058 -0.1639
  531MOL0     C71566   0.811   4.617   2.059  0.2029  0.0280  0.5466
  531MOL0     N71567   0.755   4.502   1.988 -0.1843 -0.5706 -1.0731
  531MOL0     C71568   0.824   4.404   1.920  0.6396 -0.2653 -0.0508
  531MOL0     C71569   0.728   4.313   1.893  0.0637  0.5729 -0.3919
  531MOL0     C71570   0.737   4.180   1.820 -0.3338 -0.4363 -0.3819
  531MOL0     C71571   0.809   4.194   1.684 -1.4103  0.1294 -0.3566
  531MOL0     C71572   0.837   4.052   1.627 -0.2561  0.2999 -0.2364
  531MOL0     C71573   0.854   4.049   1.477 -0.1017  0.4024 -0.4326
  531MOL0     O71574   0.746   4.102   1.405  0.8980 -0.3181 -0.2303
  531MOL0     C71575   0.706   4.025   1.310 -0.2371  0.5027  0.4351
  531MOL0     C71576   0.563   4.020   1.313 -0.5728  0.3655 -1.0236
  531MOL0     C71577   0.490   3.956   1.215 -0.7027 -0.4252  0.1008
  531MOL0     C71578   0.338   3.972   1.219 -0.1100  0.4896 -0.1401
  531MOL0     C71579   0.560   3.888   1.112 -0.3546  0.5146  0.1054
  531MOL0     C71580   0.485   3.802   1.016 -0.1027 -0.5981  0.6665
  531MOL0     O71581   0.360   3.759   1.053 -0.6893  0.4483 -0.0214
  531MOL0     C71582   0.273   3.687   0.973 -0.2573 -0.0739 -1.5719
  531MOL0     C71583   0.154   3.755   0.925 -0.2106  0.1657  0.4661
  531MOL0     C71584   0.046   3.689   0.879  0.4120 -1.5996  0.6753
  531MOL0     C71585   0.044   3.547   0.874  0.2596 -0.1157 -0.0141
  531MOL0     O71586  -0.060   3.465   0.829 -0.4456  0.8076  0.5511
  531MOL0     C71587  -0.170   3.523   0.751 -1.1698  0.0686 -0.7771
  531MOL0     C71588  -0.246   3.431   0.653 -0.0366  0.5370  0.3675
  531MOL0     C71589  -0.269   3.292   0.721 -1.0001 -0.8083  0.0340
  531MOL0     C71590  -0.358   3.193   0.650 -0.2470  0.1818 -0.2554
  531MOL0     C71591  -0.403   3.085   0.760 -0.4960 -0.0980  0.0867
  531MOL0     C71592  -0.492   2.988   0.699 -0.0103  0.7096 -0.5188
  531MOL0     C71593  -0.529   2.872   0.787 -0.1206 -0.4080  0.7049
  531MOL0     C71594  -0.620   2.912   0.905 -0.3823  0.0795  0.7183
  531MOL0    Cl71595  -0.754   3.007   0.857  0.2392 -0.5703 -0.0398
  531MOL0     C71596   0.160   3.474   0.925  0.2872 -0.1787 -0.1924
  531MOL0     C71597   0.272   3.540   0.980 -0.2935 -0.3254 -0.9898
  531MOL0     O71598   0.541   3.769   0.907 -0.4593  0.6680 -0.0755
  531MOL0     C71599   0.696   3.886   1.106 -0.8891 -0.7283  0.2391
  531MOL0     C71600   0.770   3.957   1.201  0.2165  0.1236 -0.0331
  531MOL0     N71601   0.604   4.350   1.952  1.5686  0.1683  0.5042
  531MOL0     N71602   0.619   4.464   2.009 -0.0635 -0.4139  0.0827
  531MOL0     C71603   1.358   5.318   2.601  0.0861  0.6449 -0.2276
  531MOL0     C71604   1.351   5.382   2.722 -0.0536  0.6247  0.7507
  531MOL0     C71605   1.310   5.486   3.145  0.2645 -0.3481 -0.5985
  531MOL0     C71606   1.410   5.562   3.224  1.0589  0.3326  0.6540
  531MOL0     C71607   1.395   5.563   3.364  0.5846  0.1666 -0.7326
  531MOL0     C71608   1.301   5.485   3.432  0.2076 -0.0834  0.8362
  531MOL0     O71609   1.295   5.504   3.563 -0.7004 -0.5047 -0.4453
  531MOL0     C71610   1.191   5.445   3.638  0.0132  0.7097 -0.3746
  531MOL0     C71611   1.212   5.503   3.775 -0.0924  0.2621 -0.2620
  531MOL0     C71612   1.183   5.660   3.773 -0.3110  0.5636  0.6234
  531MOL0     C71613   1.158   5.717   3.919 -0.5067  0.4582  0.2262
  531MOL0     C71614   1.030   5.661   3.958  0.2465  0.7073 -0.0420
  531MOL0     C71615   0.937   5.586   3.987  0.1537  0.0518 -0.0830
  531MOL0     C71616   1.225   5.396   3.352  0.2678  0.3709  0.1871
  531MOL0     C71617   1.218   5.397   3.209 -0.0556  0.4202 -1.3303
  531MOL0     H71618   1.014   5.384   2.781 -0.2922 -1.7959  0.5907
  531MOL0     H71619   1.010   5.294   2.564 -1.1093  0.2170  0.7038
  531MOL0     H71620   1.417   5.198   2.358  0.3924  0.2208  1.2330
  531MOL0     H71621   1.342   5.058   2.446  0.9693 -1.2698 -0.9350
  531MOL0     H71622   1.310   5.159   2.178 -0.1103  1.2597  2.3140
  531MOL0     H71623   1.365   4.994   2.215  0.4235  0.0504 -4.9612
  531MOL0     H71624   1.126   4.968   2.335  1.2395 -1.1941  0.1227
  531MOL0     H71625   1.093   5.104   2.220 -2.3282 -0.6344  2.1407
  531MOL0     H71626   1.186   4.944   2.043  3.6563 -3.4739 -0.5645
  531MOL0     H71627   1.189   4.811   2.156 -3.5339 -1.6798 -0.3453
  531MOL0     H71628   0.960   4.810   2.194  0.2501  1.6763  0.7184
  531MOL0     H71629   0.925   4.948   2.102  0.5782 -0.0188 -2.1978
  531MOL0     H71630   1.004   4.846   1.893 -3.2312  1.0135  0.5087
  531MOL0     H71631   1.067   4.699   1.974  0.1028 -0.1745  0.0782
  531MOL0     H71632   0.775   4.810   1.954  0.5327  0.6632 -1.8068
  531MOL0     H71633   0.849   4.685   1.860  0.3714 -3.4022  1.1368
  531MOL0     H71634   0.734   4.649   2.129 -0.4630 -3.9756  1.8938
  531MOL0     H71635   0.894   4.584   2.122 -0.8717 -2.1107  0.9349
  531MOL0     H71636   0.930   4.415   1.900  0.0906  2.3986 -2.0908
  531MOL0     H71637   0.787   4.104   1.881  0.2326  0.0516 -0.2292
  531MOL0     H71638   0.633   4.148   1.806  0.1626 -1.6652 -1.4374
  531MOL0     H71639   0.897   4.259   1.697 -1.1060  0.1266 -2.1347
  531MOL0     H71640   0.744   4.243   1.611 -0.2333 -0.4292 -1.8543
  531MOL0     H71641   0.748   3.999   1.661 -0.3316  1.9297  2.3149
  531MOL0     H71642   0.925   4.007   1.675 -1.0928  0.2958  1.3508
  531MOL0     H71643   0.870   3.944   1.449 -0.1068  0.8049 -2.0034
  531MOL0     H71644   0.941   4.099   1.433  1.4549 -2.7854 -1.2856
  531MOL0     H71645   0.510   4.074   1.390  1.0675 -0.1049  0.4953
  531MOL0     H71646   0.302   4.054   1.282 -0.8937  0.9388 -1.1365
  531MOL0     H71647   0.303   4.002   1.120 -2.8403  1.4775  1.0217
  531MOL0     H71648   0.292   3.876   1.243  0.3433 -0.3833 -2.5111
  531MOL0     H71649   0.138   3.862   0.921 -1.4933  0.0058 -3.2829
  531MOL0     H71650  -0.047   3.737   0.851  0.4845 -1.0393  1.3628
  531MOL0     H71651  -0.256   3.544   0.815 -1.3214  2.8301 -1.7480
  531MOL0     H71652  -0.129   3.613   0.705  4.6394 -1.1024  1.3168
  531MOL0     H71653  -0.343   3.474   0.623 -0.6350 -1.0243 -0.0395
  531MOL0     H71654  -0.197   3.396   0.562 -0.8918 -1.1027  0.4972
  531MOL0     H71655  -0.326   3.310   0.813 -1.3358 -1.6111 -0.0114
  531MOL0     H71656  -0.170   3.248   0.738  0.0124  1.2593 -0.0691
  531MOL0     H71657  -0.447   3.248   0.619  0.9635  1.7328 -1.1076
  531MOL0     H71658  -0.309   3.141   0.567  0.6361 -2.1692  1.6283
  531MOL0     H71659  -0.442   3.132   0.851  1.8207  1.6484  0.2805
  531MOL0     H71660  -0.315   3.026   0.787 -0.4145 -2.1159 -3.8656
  531MOL0     H71661  -0.586   3.032   0.667 -0.1041  0.7915 -0.1418
  531MOL0     H71662  -0.435   2.940   0.619  2.0782  0.7528  0.8623
  531MOL0     H71663  -0.440   2.824   0.828  0.7889  0.9307  0.3543
  531MOL0     H71664  -0.590   2.807   0.724 -1.0158  2.5184 -1.6885
  531MOL0     H71665  -0.563   2.973   0.976  0.6001  1.4915 -1.1888
  531MOL0     H71666  -0.659   2.820   0.949 -2.2540 -0.4156 -1.7640
  531MOL0     H71667   0.156   3.365   0.923 -1.8927 -0.1905  1.6002
  531MOL0     H71668   0.361   3.496   1.022 -0.4346  1.8394  1.8360
  531MOL0     H71669   0.759   3.838   1.031  1.0297 -0.3879  1.5563
  531MOL0     H71670   0.878   3.954   1.190  0.7437 -1.1715  4.0158
  531MOL0     H71671   1.453   5.290   2.558  0.0282 -0.2235  0.1838
  531MOL0     H71672   1.451   5.391   2.765  0.5396  0.4802 -0.5534
  531MOL0     H71673   1.479   5.618   3.161  2.3651 -0.4088  1.3953
  531MOL0     H71674   1.470   5.621   3.417 -0.1706  1.8869 -1.4493
  531MOL0     H71675   1.090   5.464   3.599 -1.8047 -0.8818  3.0860
  531MOL0     H71676   1.193   5.336   3.645 -3.1977  0.4405 -1.7604
  531MOL0     H71677   1.319   5.497   3.799  0.0634  0.9429 -0.7672
  531MOL0     H71678   1.152   5.438   3.840  1.5636 -2.5652 -1.3621
  531MOL0     H71679   1.099   5.666   3.703  0.1147 -1.7085 -0.1754
  531MOL0     H71680   1.267   5.715   3.730 -1.4830  0.8779 -1.4020
  531MOL0     H71681   1.158   5.826   3.930 -2.2532  0.3591  1.6043
  531MOL0     H71682   1.244   5.679   3.976 -0.1439  3.5657  1.9756
  531MOL0     H71683   0.862   5.524   4.032 -1.9944  2.3017 -0.3527
  531MOL0     H71684   1.143   5.337   3.391  0.3365 -0.5158 -0.9528
  531MOL0     H71685   1.142   5.334   3.165  1.1842 -3.0088  1.0077
  532MOL0     O71686   4.914   2.378   7.831  0.5541  0.3726 -0.4482
  532MOL0     C71687   4.922   2.276   7.895  0.4352  1.5593  0.6981
  532MOL0     O71688   4.841   2.168   7.880  0.0194 -0.0965  0.0692
  532MOL0     C71689   4.742   2.158   7.787 -0.4039 -0.1990 -0.1836
  532MOL0     C71690   4.652   2.260   7.745 -1.2157 -0.5779 -0.1363
  532MOL0     C71691   4.567   2.238   7.633  0.3338 -0.4028  1.0314
  532MOL0     C71692   4.563   2.113   7.574  1.0821 -0.2299 -0.7846
  532MOL0     O71693   4.496   2.096   7.458  0.0555 -0.4457  0.1989
  532MOL0     C71694   4.532   2.188   7.351 -0.2515 -0.3764  0.1537
  532MOL0     C71695   4.497   2.131   7.215 -1.0225 -0.4983 -0.2544
  532MOL0     C71696   4.544   1.992   7.203 -0.7166  0.9968 -0.2937
  532MOL0     C71697   4.700   1.981   7.206 -1.1498  0.5915  0.3482
  532MOL0     C71698   4.730   1.836   7.165 -0.4309 -0.3208  0.0380
  532MOL0     C71699   4.877   1.814   7.167 -0.7881  0.6520  0.4767
  532MOL0     C71700   4.956   1.886   7.059  0.1189  0.2363 -0.5063
  532MOL0     C71701   5.103   1.855   7.058  0.1082 -0.1348  0.3282
  532MOL0     N71702   5.127   1.712   7.032  0.6288  0.5985 -0.7273
  532MOL0     C71703   5.124   1.645   6.914 -0.4399  0.9134 -0.0594
  532MOL0     C71704   5.138   1.515   6.954 -0.4420 -0.0951 -0.8553
  532MOL0     C71705   5.144   1.394   6.868  0.0072 -0.0191 -0.3025
  532MOL0     C71706   5.288   1.355   6.843  0.1965  0.8053  0.3258
  532MOL0     C71707   5.367   1.329   6.971 -0.7856 -0.6191  0.4942
  532MOL0     C71708   5.321   1.213   7.060 -0.4256  0.0757 -0.0984
  532MOL0     O71709   5.301   1.099   6.984 -0.2112 -0.3888  0.7077
  532MOL0     C71710   5.197   1.016   7.029 -0.3628 -0.1638  0.9230
  532MOL0     C71711   5.069   1.029   6.974  0.0255  0.0291  0.2816
  532MOL0     C71712   4.969   0.940   7.006  0.7399 -0.3141 -0.8443
  532MOL0     C71713   4.845   0.942   6.920 -0.2295 -0.2036  0.6232
  532MOL0     C71714   4.993   0.842   7.110  0.0462  0.3244 -0.1229
  532MOL0     C71715   4.899   0.743   7.158 -0.2745  0.1202  1.0954
  532MOL0     O71716   4.953   0.624   7.172  0.4205  0.7617  0.2001
  532MOL0     C71717   4.870   0.535   7.240 -0.0007 -1.0347 -0.3561
  532MOL0     C71718   4.765   0.467   7.178  0.1972 -0.1117  0.6176
  532MOL0     C71719   4.675   0.388   7.248  0.0693  0.4453  0.5004
  532MOL0     C71720   4.694   0.369   7.383  0.6947  0.0181  0.6177
  532MOL0     O71721   4.624   0.287   7.459  0.1413 -0.1195 -1.0321
  532MOL0     C71722   4.612   0.150   7.410 -0.3203  0.2626 -0.0320
  532MOL0     C71723   4.612   0.059   7.530 -0.1682  0.6986  0.3198
  532MOL0     C71724   4.747   0.035   7.610 -0.5245 -0.2472 -0.2897
  532MOL0     C71725   4.849  -0.068   7.538  0.0389 -0.8312 -0.3095
  532MOL0     C71726   4.940  -0.141   7.636  0.1570 -0.4502  0.2984
  532MOL0     C71727   5.019  -0.250   7.574 -0.1346  0.6861  0.3361
  532MOL0     C71728   4.957  -0.390   7.608  1.4228  0.2987 -1.0819
  532MOL0     C71729   5.048  -0.509   7.563  0.2899 -0.9882  0.6255
  532MOL0    Cl71730   4.979  -0.672   7.593  0.1117 -0.2054  0.0822
  532MOL0     C71731   4.807   0.421   7.441  0.2280  0.6701  1.0504
  532MOL0     C71732   4.891   0.511   7.370  0.7608  0.3724  0.7370
  532MOL0     O71733   4.793   0.776   7.198 -0.3637  0.2087 -0.1213
  532MOL0     C71734   5.128   0.830   7.169 -0.0534  0.1051  0.5536
  532MOL0     C71735   5.231   0.912   7.122 -0.6106 -0.0495  1.2547
  532MOL0     N71736   5.160   1.517   7.095 -0.1378 -0.4218 -0.1348
  532MOL0     N71737   5.141   1.636   7.135  0.6447  0.5302 -0.7735
  532MOL0     C71738   4.640   2.007   7.627  0.2898 -0.1954 -0.6435
  532MOL0     C71739   4.732   2.032   7.729 -0.6077  0.6633  0.4533
  532MOL0     C71740   5.017   2.260   8.004 -0.7229 -0.1691  0.6319
  532MOL0     C71741   5.029   2.358   8.099 -0.3780  0.5007  0.4157
  532MOL0     C71742   5.109   2.341   8.213 -0.6241 -0.0250 -0.4169
  532MOL0     C71743   5.186   2.224   8.221  0.2450  0.1898 -1.0064
  532MOL0     O71744   5.248   2.172   8.338  1.1768 -0.6574  0.1038
  532MOL0     C71745   5.280   2.267   8.441  0.5266 -0.2768  0.9324
  532MOL0     C71746   5.192   2.248   8.559  0.9809  0.8028 -0.4510
  532MOL0     C71747   5.097   2.118   8.558 -0.0771 -0.8915 -0.1016
  532MOL0     C71748   5.174   1.984   8.571 -0.4382 -0.4342  0.2421
  532MOL0     C71749   5.107   1.863   8.505  0.2555  0.1572 -0.1681
  532MOL0     C71750   5.055   1.773   8.435  0.5668  0.6260 -0.6263
  532MOL0     C71751   5.183   2.134   8.108  0.1385 -0.0690  0.2826
  532MOL0     C71752   5.092   2.145   8.006  0.4478 -1.0374  0.3887
  532MOL0     H71753   4.647   2.364   7.774  1.7341  0.6831 -3.4087
  532MOL0     H71754   4.507   2.320   7.595  2.9843  1.5774  0.8114
  532MOL0     H71755   4.490   2.288   7.367 -0.1274 -0.3753  0.4736
  532MOL0     H71756   4.640   2.203   7.350 -0.3626  0.6083 -1.1354
  532MOL0     H71757   4.391   2.124   7.190 -0.7675 -1.1826 -1.2061
  532MOL0     H71758   4.553   2.189   7.141  0.0285 -1.0361  0.1028
  532MOL0     H71759   4.507   1.924   7.280  1.2868  0.1242 -0.0528
  532MOL0     H71760   4.510   1.969   7.101 -0.6767 -0.4027 -0.0019
  532MOL0     H71761   4.742   2.055   7.138 -1.3636  1.5422  1.2069
  532MOL0     H71762   4.737   1.998   7.308  0.1914  4.6835 -0.6446
  532MOL0     H71763   4.694   1.772   7.247  1.4855 -1.4944  0.0519
  532MOL0     H71764   4.673   1.814   7.074 -2.6638 -4.0171  2.0588
  532MOL0     H71765   4.908   1.836   7.270 -0.8916 -2.7691  1.3498
  532MOL0     H71766   4.906   1.708   7.161  2.9046  1.5195  0.1747
  532MOL0     H71767   4.917   1.844   6.965  0.1435 -2.5613  0.6144
  532MOL0     H71768   4.926   1.991   7.061 -0.1316  0.1620 -0.0676
  532MOL0     H71769   5.149   1.888   7.152 -0.1527 -1.9474  1.1262
  532MOL0     H71770   5.133   1.911   6.969 -1.8854  1.2842  0.4724
  532MOL0     H71771   5.104   1.684   6.815 -2.2795  1.9333  0.6560
  532MOL0     H71772   5.086   1.315   6.918  0.6446 -0.6587 -0.5468
  532MOL0     H71773   5.092   1.423   6.776 -2.3515 -2.9089 -0.0452
  532MOL0     H71774   5.340   1.440   6.797 -1.1318  1.0179 -0.8900
  532MOL0     H71775   5.284   1.276   6.768 -1.3042 -0.0912  1.3120
  532MOL0     H71776   5.377   1.423   7.025  1.4308  0.7503 -2.0501
  532MOL0     H71777   5.464   1.302   6.928 -0.9905 -3.2941  1.5015
  532MOL0     H71778   5.235   1.245   7.119 -0.6446  0.5092 -0.6420
  532MOL0     H71779   5.399   1.183   7.131 -0.6059  1.4443  0.7153
  532MOL0     H71780   5.054   1.100   6.894  4.1134  0.3226 -0.4415
  532MOL0     H71781   4.841   0.851   6.860 -0.2392  2.3387 -3.5961
  532MOL0     H71782   4.750   0.944   6.974 -1.1189 -1.4328 -0.8385
  532MOL0     H71783   4.848   1.028   6.853 -2.0800 -2.0554 -2.0263
  532MOL0     H71784   4.759   0.477   7.070 -2.1422 -1.5771  0.5486
  532MOL0     H71785   4.598   0.329   7.200 -1.4219  1.7129  1.2567
  532MOL0     H71786   4.517   0.135   7.357  0.3748 -1.1514 -0.9449
  532MOL0     H71787   4.702   0.126   7.353  0.4428 -1.7206  1.8884
  532MOL0     H71788   4.540   0.086   7.607  0.2809  0.8658  0.6917
  532MOL0     H71789   4.576  -0.038   7.496  2.2730  0.5226 -2.1791
  532MOL0     H71790   4.725  -0.005   7.709  0.3300 -2.4037 -0.9179
  532MOL0     H71791   4.800   0.126   7.638  3.0793 -2.6130  1.3789
  532MOL0     H71792   4.789  -0.141   7.484 -0.6393  0.3854 -1.2511
  532MOL0     H71793   4.918  -0.012   7.474  0.5888  0.8545  1.6312
  532MOL0     H71794   4.884  -0.184   7.720 -0.9476  1.0178  0.3582
  532MOL0     H71795   5.012  -0.075   7.684  0.8944  0.6487 -2.1470
  532MOL0     H71796   5.030  -0.235   7.467 -0.9628 -2.2496 -0.2303
  532MOL0     H71797   5.118  -0.247   7.620 -0.3737 -0.2418  0.9434
  532MOL0     H71798   4.862  -0.402   7.556  0.9654 -0.5189 -0.1125
  532MOL0     H71799   4.946  -0.400   7.717  4.5954 -0.3888 -0.7242
  532MOL0     H71800   5.140  -0.501   7.622  1.3522 -0.2652 -1.0406
  532MOL0     H71801   5.069  -0.490   7.457 -1.5477  1.2233  0.5727
  532MOL0     H71802   4.844   0.379   7.534 -0.9559 -0.1803  1.1604
  532MOL0     H71803   4.973   0.556   7.424  1.9967 -0.6991 -0.1711
  532MOL0     H71804   5.153   0.756   7.244 -1.0748 -0.6250  0.2040
  532MOL0     H71805   5.334   0.908   7.157 -0.2031  0.0729  0.0966
  532MOL0     H71806   4.633   1.910   7.579 -2.4563 -1.1732  1.4337
  532MOL0     H71807   4.797   1.960   7.777 -0.5724 -0.0762 -0.6526
  532MOL0     H71808   4.982   2.454   8.080 -0.4770  0.8299  2.1541
  532MOL0     H71809   5.106   2.414   8.293 -1.2139 -0.3275 -0.1605
  532MOL0     H71810   5.384   2.257   8.476  1.3230  3.4554  0.0954
  532MOL0     H71811   5.259   2.372   8.417 -1.5258 -0.7868  0.3236
  532MOL0     H71812   5.118   2.328   8.562  1.4931  1.2597  1.9402
  532MOL0     H71813   5.252   2.253   8.650  2.4854 -1.3742 -1.2261
  532MOL0     H71814   5.045   2.128   8.462 -3.4751  1.2803  1.7749
  532MOL0     H71815   5.024   2.112   8.639 -0.2111  1.9429  0.0792
  532MOL0     H71816   5.179   1.956   8.677 -0.5232  0.2827  0.4411
  532MOL0     H71817   5.274   2.000   8.530 -0.7188  2.6063  0.4623
  532MOL0     H71818   5.019   1.695   8.371  2.1967 -0.0629 -0.7518
  532MOL0     H71819   5.250   2.049   8.110  0.6354  0.3260  0.8945
  532MOL0     H71820   5.083   2.076   7.923 -0.7105 -0.5201  0.0783
  533MOL0     O71821   5.130   0.683   5.952 -0.9047  0.2126  0.6445
  533MOL0     C71822   5.105   0.772   6.031 -0.0267 -0.2551 -0.0548
  533MOL0     O71823   5.072   0.763   6.168 -0.0806 -0.4335 -0.3402
  533MOL0     C71824   5.049   0.631   6.215 -0.8017  0.1487  0.0713
  533MOL0     C71825   5.145   0.528   6.190  0.2868  0.1124 -0.8468
  533MOL0     C71826   5.117   0.399   6.233  0.6135 -0.5387  0.2138
  533MOL0     C71827   4.989   0.372   6.290  0.0852 -0.5212  0.8760
  533MOL0     O71828   4.955   0.235   6.324  0.6216  0.7970 -0.2473
  533MOL0     C71829   5.011   0.129   6.249  0.2027 -0.0635  0.3941
  533MOL0     C71830   4.925  -0.004   6.253  0.4623 -0.6685  0.7576
  533MOL0     C71831   4.799   0.015   6.170  0.4210  0.6186  0.3804
  533MOL0     C71832   4.816   0.093   6.038  0.2170  0.2770 -0.3172
  533MOL0     C71833   4.693   0.065   5.952 -0.2726  0.3472 -0.6510
  533MOL0     C71834   4.570   0.169   5.960 -0.2695  0.9395 -0.4563
  533MOL0     C71835   4.512   0.195   5.824  0.0325  0.3872 -0.2369
  533MOL0     C71836   4.593   0.296   5.738  0.2097 -0.3447 -0.2234
  533MOL0     N71837   4.521   0.304   5.611 -0.1515  0.6745 -0.0631
  533MOL0     C71838   4.474   0.203   5.525 -0.0071  0.9764  0.2057
  533MOL0     C71839   4.451   0.263   5.404  0.2223  0.2967  1.1293
  533MOL0     C71840   4.440   0.171   5.282 -0.8804 -0.6048 -0.8254
  533MOL0     C71841   4.363   0.237   5.162 -1.0373  0.0269 -1.3039
  533MOL0     C71842   4.217   0.250   5.210  0.4614  0.4577 -0.0358
  533MOL0     C71843   4.154   0.332   5.110 -0.1131 -0.2530  0.2087
  533MOL0     O71844   4.012   0.348   5.148  0.3216  0.4498 -0.5272
  533MOL0     C71845   3.924   0.245   5.155  0.2160  0.4453 -0.7842
  533MOL0     C71846   3.941   0.121   5.108  0.6107  0.8730  0.3382
  533MOL0     C71847   3.849   0.015   5.103  0.9784 -0.6573 -0.2826
  533MOL0     C71848   3.902  -0.114   5.042  1.2898  0.0429  0.4641
  533MOL0     C71849   3.731   0.041   5.181 -0.1175  0.5834 -0.7472
  533MOL0     C71850   3.624  -0.051   5.183  0.6524 -0.7361  0.3222
  533MOL0     O71851   3.600  -0.102   5.065 -0.3548 -0.8423  1.0541
  533MOL0     C71852   3.520  -0.210   5.064  0.9995 -1.0961  0.3629
  533MOL0     C71853   3.569  -0.322   5.114  0.2831  0.4541  0.2912
  533MOL0     C71854   3.488  -0.440   5.119 -0.0689 -0.6077  0.2847
  533MOL0     C71855   3.368  -0.443   5.044 -0.0417 -0.0001 -0.4108
  533MOL0     O71856   3.300  -0.559   5.032  0.2301 -0.7927 -0.0688
  533MOL0     C71857   3.159  -0.547   5.043 -0.0577  0.1946 -0.4808
  533MOL0     C71858   3.090  -0.657   5.142 -0.3464 -0.7399 -0.0302
  533MOL0     C71859   2.942  -0.638   5.123  0.9168 -0.2815  0.5129
  533MOL0     C71860   2.864  -0.719   5.226 -0.9225 -0.5299  0.3682
  533MOL0     C71861   2.715  -0.674   5.219  0.3041 -0.9246  0.2115
  533MOL0     C71862   2.607  -0.739   5.287 -0.2186  1.0020  0.9350
  533MOL0     C71863   2.469  -0.702   5.230  0.3937  0.9742 -0.2004
  533MOL0     C71864   2.436  -0.555   5.230  0.7072  1.0079 -0.4404
  533MOL0    Cl71865   2.293  -0.513   5.130  0.1415 -0.2410 -0.0226
  533MOL0     C71866   3.320  -0.331   4.985 -0.0491 -0.0854  0.0704
  533MOL0     C71867   3.400  -0.209   4.993  0.2687 -0.5917 -0.5096
  533MOL0     O71868   3.572  -0.081   5.290 -0.0278 -0.4486 -0.8695
  533MOL0     C71869   3.708   0.170   5.238  0.6201  0.0110  0.7210
  533MOL0     C71870   3.809   0.266   5.231  0.8316  0.6060 -0.3496
  533MOL0     N71871   4.448   0.402   5.430  0.1986 -0.2247 -0.4876
  533MOL0     N71872   4.482   0.424   5.553  0.5020 -0.0368 -0.0058
  533MOL0     C71873   4.900   0.475   6.318 -0.1804  0.0898 -0.5513
  533MOL0     C71874   4.934   0.609   6.287  0.6419 -0.1198  0.6788
  533MOL0     C71875   5.096   0.906   5.971  0.0567  0.1645 -0.8705
  533MOL0     C71876   5.084   0.912   5.829  0.0158 -0.4243 -0.6300
  533MOL0     C71877   5.082   1.038   5.763  0.8630 -0.2113  0.0149
  533MOL0     C71878   5.084   1.164   5.841 -0.2163  0.7061 -0.7410
  533MOL0     O71879   5.063   1.292   5.797 -0.2606 -0.2880 -0.1004
  533MOL0     C71880   5.088   1.311   5.658  0.5024  0.2112 -0.5177
  533MOL0     C71881   5.058   1.454   5.626  0.2835 -1.0426 -0.4420
  533MOL0     C71882   4.900   1.482   5.617 -0.8473  0.4544  0.7661
  533MOL0     C71883   4.875   1.627   5.555  0.3815  0.3590 -0.6171
  533MOL0     C71884   4.876   1.728   5.667 -0.6818  0.7441 -0.0053
  533MOL0     C71885   4.894   1.801   5.761 -0.0402  0.4762  0.1863
  533MOL0     C71886   5.084   1.148   5.982 -0.3598  0.1998 -0.0811
  533MOL0     C71887   5.097   1.020   6.048 -0.0081 -0.4776  0.4644
  533MOL0     H71888   5.239   0.550   6.141  0.9406 -2.0890 -0.7020
  533MOL0     H71889   5.204   0.335   6.224  2.6994  2.2727 -1.0626
  533MOL0     H71890   5.023   0.157   6.144 -0.4276  0.7749  0.5416
  533MOL0     H71891   5.099   0.097   6.306 -0.2815  1.3598  2.0032
  533MOL0     H71892   5.000  -0.078   6.224  1.1161  0.6546 -1.1198
  533MOL0     H71893   4.900  -0.029   6.357  6.1194 -1.1536  2.3881
  533MOL0     H71894   4.765  -0.087   6.151  1.2216  0.5735 -0.9320
  533MOL0     H71895   4.718   0.066   6.223  1.3115 -1.3197  4.0038
  533MOL0     H71896   4.830   0.200   6.051 -1.7385  0.6012 -0.4816
  533MOL0     H71897   4.907   0.065   5.985  1.1642  3.0703 -0.3193
  533MOL0     H71898   4.724   0.047   5.848  0.6271 -2.7314  0.0499
  533MOL0     H71899   4.654  -0.034   5.978  1.3802 -0.0518  0.4230
  533MOL0     H71900   4.497   0.124   6.028 -0.4941 -0.3089 -1.4844
  533MOL0     H71901   4.615   0.258   6.005  2.0935 -0.8352  0.9694
  533MOL0     H71902   4.501   0.101   5.768  1.4459  0.4878 -0.7200
  533MOL0     H71903   4.413   0.235   5.844 -0.2189 -0.2143 -0.2536
  533MOL0     H71904   4.700   0.284   5.719  0.2848  1.9954 -1.5756
  533MOL0     H71905   4.578   0.390   5.792  0.3905  0.0825 -0.9037
  533MOL0     H71906   4.465   0.098   5.549  1.4797  0.4532 -1.2958
  533MOL0     H71907   4.541   0.144   5.250 -0.1067 -0.9406  1.6818
  533MOL0     H71908   4.402   0.071   5.305  1.7425 -1.3600  0.6634
  533MOL0     H71909   4.378   0.174   5.073  3.1572 -3.6400  1.5821
  533MOL0     H71910   4.413   0.334   5.153 -2.5751  0.9669 -0.1419
  533MOL0     H71911   4.213   0.311   5.301 -1.0678 -0.3383  0.4562
  533MOL0     H71912   4.167   0.155   5.227 -0.5904  0.8516 -0.8165
  533MOL0     H71913   4.175   0.282   5.015  1.9820 -0.2691  0.6530
  533MOL0     H71914   4.203   0.429   5.111 -2.4223  0.9795  0.9320
  533MOL0     H71915   4.035   0.099   5.058  0.6219  1.7624 -0.0508
  533MOL0     H71916   3.950  -0.173   5.121  0.0711 -2.9963 -0.9114
  533MOL0     H71917   3.821  -0.178   5.005  2.5443 -0.4052 -1.6302
  533MOL0     H71918   3.957  -0.092   4.950 -1.4166  1.2045 -0.9768
  533MOL0     H71919   3.666  -0.333   5.161 -0.6385 -0.9891  1.9955
  533MOL0     H71920   3.526  -0.535   5.153 -2.2745 -2.0359 -1.0070
  533MOL0     H71921   3.124  -0.453   5.087  3.8073  2.2644 -1.3210
  533MOL0     H71922   3.112  -0.549   4.945  0.1335 -2.6770 -0.5954
  533MOL0     H71923   3.129  -0.748   5.097 -1.8188 -0.9417 -0.9807
  533MOL0     H71924   3.116  -0.635   5.246  0.7129 -0.7398 -0.2836
  533MOL0     H71925   2.897  -0.673   5.030 -0.1962 -3.3454  2.0602
  533MOL0     H71926   2.918  -0.533   5.140  2.7547  0.7652 -2.6174
  533MOL0     H71927   2.877  -0.821   5.189  2.1608  0.6256 -2.2405
  533MOL0     H71928   2.911  -0.690   5.321  0.1915  1.1112 -0.6424
  533MOL0     H71929   2.688  -0.658   5.114 -2.5483  0.9153  1.1121
  533MOL0     H71930   2.726  -0.570   5.252  2.3507 -0.1488 -2.4718
  533MOL0     H71931   2.619  -0.847   5.279  0.2490  1.1846 -1.4556
  533MOL0     H71932   2.610  -0.712   5.393 -2.5400 -2.1493  1.9422
  533MOL0     H71933   2.394  -0.753   5.291  4.5150 -4.2778  1.1698
  533MOL0     H71934   2.456  -0.736   5.127  2.0630  2.0065 -0.7934
  533MOL0     H71935   2.525  -0.506   5.188  1.5973  1.4801  1.8082
  533MOL0     H71936   2.414  -0.510   5.327 -2.7401  1.0014 -1.1118
  533MOL0     H71937   3.224  -0.313   4.938  0.4286  0.6657 -0.6489
  533MOL0     H71938   3.349  -0.119   4.960 -2.2985 -1.5815  0.5005
  533MOL0     H71939   3.611   0.193   5.280  1.7368  4.7538  1.3424
  533MOL0     H71940   3.802   0.365   5.277 -0.1037  0.4925 -0.2125
  533MOL0     H71941   4.813   0.447   6.376  2.7097 -3.3784  2.6905
  533MOL0     H71942   4.868   0.691   6.313  0.6114 -0.5434  2.0402
  533MOL0     H71943   5.066   0.830   5.760  1.1678  0.0435 -1.5372
  533MOL0     H71944   5.081   1.027   5.655  5.5949 -3.3351 -0.0219
  533MOL0     H71945   5.192   1.290   5.633  0.3440 -1.0314 -0.2176
  533MOL0     H71946   5.018   1.246   5.605  1.5413 -3.2595  1.9714
  533MOL0     H71947   5.111   1.487   5.537 -1.5136 -1.0763 -1.5735
  533MOL0     H71948   5.095   1.528   5.698  1.3457 -1.9107 -0.0642
  533MOL0     H71949   4.850   1.472   5.714 -0.2625 -2.0046  0.8792
  533MOL0     H71950   4.860   1.408   5.547 -0.7193  1.7516 -0.7428
  533MOL0     H71951   4.786   1.615   5.493  1.8112 -1.6675 -2.4486
  533MOL0     H71952   4.952   1.650   5.481  0.2245 -2.1173 -1.6545
  533MOL0     H71953   4.916   1.855   5.851  1.1032  0.0826  0.1641
  533MOL0     H71954   5.080   1.240   6.039 -1.1120 -1.7040  3.1903
  533MOL0     H71955   5.105   1.013   6.156  0.1587 -0.7418  0.4341
  534MOL0     O71956   5.704   1.013   9.585  0.8857  0.0860  0.6669
  534MOL0     C71957   5.621   0.942   9.634 -0.3376 -0.4139  0.3568
  534MOL0     O71958   5.490   0.979   9.640  0.2080 -0.2057 -0.5457
  534MOL0     C71959   5.439   1.093   9.580  0.1171 -0.0187  0.2462
  534MOL0     C71960   5.494   1.166   9.471  0.1683  0.2845  0.6880
  534MOL0     C71961   5.426   1.279   9.419 -0.6311  0.1624  0.0216
  534MOL0     C71962   5.298   1.323   9.470 -0.4628 -0.9394  0.0624
  534MOL0     O71963   5.222   1.425   9.427  0.5949  0.0949  0.3438
  534MOL0     C71964   5.252   1.496   9.304 -0.3260  0.4975  0.4324
  534MOL0     C71965   5.137   1.599   9.279 -0.1315  0.5847 -0.3108
  534MOL0     C71966   5.134   1.662   9.134  0.0548  0.3440  0.2646
  534MOL0     C71967   4.988   1.686   9.098 -0.7673 -0.1015  0.7982
  534MOL0     C71968   4.979   1.773   8.972 -0.1463 -0.0654 -1.1774
  534MOL0     C71969   4.845   1.798   8.906 -0.1927 -0.0458  0.3788
  534MOL0     C71970   4.747   1.873   8.985  0.5067 -0.5895 -0.5702
  534MOL0     C71971   4.597   1.860   8.938 -0.1254 -0.5613 -0.6435
  534MOL0     N71972   4.498   1.935   9.017 -0.4274  0.3524  0.1977
  534MOL0     C71973   4.403   1.883   9.102  0.7434 -0.0745  0.4233
  534MOL0     C71974   4.346   1.990   9.157 -0.0349 -0.7424  0.7476
  534MOL0     C71975   4.234   1.972   9.267 -0.3155  0.2877  0.3737
  534MOL0     C71976   4.119   2.057   9.238 -0.0791 -0.0502 -0.1302
  534MOL0     C71977   4.010   2.044   9.331 -0.2391  0.0005 -0.6388
  534MOL0     C71978   3.896   2.142   9.311  0.5635 -0.0973 -0.3335
  534MOL0     O71979   3.944   2.277   9.330 -0.4565 -0.4666 -0.1395
  534MOL0     C71980   3.883   2.366   9.246  0.1711 -0.1513 -0.0776
  534MOL0     C71981   3.745   2.392   9.239  0.2102 -0.6280  0.2705
  534MOL0     C71982   3.686   2.479   9.146 -0.8574 -0.2488  0.7463
  534MOL0     C71983   3.542   2.462   9.117 -0.4229 -0.9178 -0.2573
  534MOL0     C71984   3.764   2.552   9.059 -0.3385  0.2966  0.8019
  534MOL0     C71985   3.723   2.639   8.950 -0.2121 -0.2338  0.9522
  534MOL0     O71986   3.811   2.732   8.917  0.0059 -0.8692  0.4595
  534MOL0     C71987   3.791   2.798   8.803 -0.6977 -0.3945 -0.4773
  534MOL0     C71988   3.786   2.737   8.676  0.2233  0.7197 -0.2208
  534MOL0     C71989   3.762   2.814   8.563  0.3410  0.1802 -0.0180
  534MOL0     C71990   3.727   2.945   8.579  0.0947  0.1783  1.4027
  534MOL0     O71991   3.694   3.012   8.463  0.0909 -0.2830  0.3051
  534MOL0     C71992   3.631   3.143   8.461 -0.7130  0.3986 -0.4962
  534MOL0     C71993   3.586   3.177   8.313 -0.1214 -0.7458 -0.4328
  534MOL0     C71994   3.472   3.096   8.260 -0.1182  0.1884 -0.6626
  534MOL0     C71995   3.426   3.147   8.125  0.0271 -0.1421 -0.0319
  534MOL0     C71996   3.281   3.113   8.083 -0.8595 -0.8897  0.8355
  534MOL0     C71997   3.188   3.226   8.117 -0.8159 -0.2593  0.4035
  534MOL0     C71998   3.051   3.206   8.061 -0.9314 -0.2083 -0.3256
  534MOL0     C71999   2.963   3.323   8.110  0.7372  0.8860  0.0951
  534MOL0    Cl72000   3.006   3.475   8.008 -0.1763 -0.0709  0.0870
  534MOL0     C72001   3.725   3.007   8.697 -0.4162  0.6660 -0.5986
  534MOL0     C72002   3.755   2.933   8.814  0.3950 -0.4045  0.0743
  534MOL0     O72003   3.627   2.607   8.886 -0.6550  0.0561  0.3047
  534MOL0     C72004   3.905   2.531   9.067  0.5719 -0.3087 -0.2698
  534MOL0     C72005   3.966   2.437   9.151  0.9588 -0.5150 -0.3983
  534MOL0     N72006   4.396   2.106   9.094  0.3887  0.9855 -0.8091
  534MOL0     N72007   4.486   2.067   9.010  0.4864  0.7164 -0.4825
  534MOL0     C72008   5.258   1.254   9.584  0.1683  0.2204 -0.3916
  534MOL0     C72009   5.322   1.148   9.639  0.4401  0.9322  0.4470
  534MOL0     C72010   5.653   0.798   9.666 -0.8596  0.2215 -0.1760
  534MOL0     C72011   5.761   0.742   9.590 -0.2790  0.5537 -0.1683
  534MOL0     C72012   5.775   0.601   9.584  0.4758  0.0411  0.8410
  534MOL0     C72013   5.689   0.518   9.653  0.2877 -0.4244 -0.1105
  534MOL0     O72014   5.709   0.387   9.643  0.0886 -0.6446 -0.0086
  534MOL0     C72015   5.624   0.293   9.713 -1.0865 -0.5487  0.0044
  534MOL0     C72016   5.647   0.142   9.672 -0.0761  0.2894  0.3329
  534MOL0     C72017   5.773   0.096   9.748 -0.0309 -0.2172 -0.1747
  534MOL0     C72018   5.898   0.158   9.684 -0.3427 -0.3461 -0.3814
  534MOL0     C72019   5.995   0.058   9.646  0.2167 -0.3038  0.4485
  534MOL0     C72020   6.070  -0.023   9.589  1.4326 -1.2808 -0.4925
  534MOL0     C72021   5.586   0.574   9.735  0.0802 -0.4492 -0.3761
  534MOL0     C72022   5.574   0.712   9.749  0.2796  0.1088  0.2854
  534MOL0     H72023   5.585   1.140   9.418 -0.1003 -0.4171  0.5678
  534MOL0     H72024   5.470   1.327   9.332 -1.1815  0.6944  0.0306
  534MOL0     H72025   5.350   1.544   9.305  1.4685 -2.5021 -3.7395
  534MOL0     H72026   5.245   1.429   9.218 -1.8942 -1.8515  2.2472
  534MOL0     H72027   5.040   1.552   9.299  0.1586  0.2301  0.2868
  534MOL0     H72028   5.163   1.672   9.356  2.2248 -0.6625  0.1850
  534MOL0     H72029   5.187   1.757   9.144 -2.5840  1.6376  5.5287
  534MOL0     H72030   5.171   1.594   9.057 -2.9864 -2.2370  0.8714
  534MOL0     H72031   4.944   1.586   9.087  0.2102 -0.9274  3.5453
  534MOL0     H72032   4.940   1.736   9.182  2.3883 -0.9130  3.2997
  534MOL0     H72033   5.026   1.871   8.979  0.0705 -0.2517  0.4185
  534MOL0     H72034   5.039   1.723   8.896  0.1504 -1.3626 -0.1450
  534MOL0     H72035   4.858   1.856   8.815  2.0997 -0.7881  0.1550
  534MOL0     H72036   4.806   1.699   8.879  1.4698 -0.1973 -1.7633
  534MOL0     H72037   4.755   1.834   9.086 -1.7317 -3.2564 -1.2859
  534MOL0     H72038   4.773   1.979   8.983 -2.3280  0.1848 -1.3045
  534MOL0     H72039   4.574   1.753   8.927 -1.3268 -0.0849 -3.5755
  534MOL0     H72040   4.592   1.895   8.834 -0.0486  1.4228 -0.0006
  534MOL0     H72041   4.383   1.778   9.120 -1.1316 -0.0340 -1.1177
  534MOL0     H72042   4.203   1.868   9.256  1.5616 -0.3615  0.7986
  534MOL0     H72043   4.276   1.979   9.368 -0.5829  2.0809  0.3873
  534MOL0     H72044   4.078   2.044   9.137 -0.9184  0.6571  0.0998
  534MOL0     H72045   4.163   2.157   9.245  0.1632 -0.1964  0.5109
  534MOL0     H72046   4.057   2.066   9.428 -0.6959  2.1890 -0.8515
  534MOL0     H72047   3.973   1.941   9.329 -1.7712  0.2287  3.9071
  534MOL0     H72048   3.826   2.110   9.388  0.4330 -0.5238 -0.6257
  534MOL0     H72049   3.857   2.144   9.209 -0.7460  0.5966  0.1511
  534MOL0     H72050   3.680   2.329   9.298 -1.8422 -3.1054 -4.1804
  534MOL0     H72051   3.487   2.553   9.088  0.0951 -0.6382 -0.3788
  534MOL0     H72052   3.538   2.394   9.031  0.6660 -1.5143  0.1505
  534MOL0     H72053   3.479   2.401   9.182 -3.5528 -1.5158 -3.4656
  534MOL0     H72054   3.801   2.630   8.663  2.3399  1.0919 -1.2244
  534MOL0     H72055   3.766   2.756   8.471 -0.8325 -1.4502  0.8929
  534MOL0     H72056   3.546   3.129   8.527 -1.1161  0.1931 -1.0470
  534MOL0     H72057   3.700   3.212   8.510  0.0495 -3.2927  4.2849
  534MOL0     H72058   3.534   3.273   8.325 -0.6805 -1.0065 -0.7311
  534MOL0     H72059   3.668   3.182   8.241  0.6124  1.1292  0.4611
  534MOL0     H72060   3.390   3.103   8.332  1.7871  0.4814  1.6070
  534MOL0     H72061   3.501   2.991   8.260 -2.6083 -0.6235  1.9999
  534MOL0     H72062   3.426   3.256   8.125 -2.2477 -0.0945  0.6594
  534MOL0     H72063   3.498   3.109   8.052  1.2560 -2.2650  2.1307
  534MOL0     H72064   3.249   3.019   8.128  1.4245 -2.6157 -0.8687
  534MOL0     H72065   3.282   3.102   7.974  0.0363  0.4746  0.6828
  534MOL0     H72066   3.184   3.246   8.225  1.1231  1.9278  0.1398
  534MOL0     H72067   3.228   3.320   8.077 -1.7150 -0.8268 -1.9636
  534MOL0     H72068   3.004   3.117   8.103 -0.4718 -0.2303  0.1598
  534MOL0     H72069   3.064   3.214   7.953  1.8324  1.5587  0.0166
  534MOL0     H72070   2.970   3.346   8.217  0.8152  2.0737 -0.1547
  534MOL0     H72071   2.863   3.291   8.080  1.1561  0.5673 -1.0174
  534MOL0     H72072   3.708   3.115   8.697  0.1930  0.7673 -0.3737
  534MOL0     H72073   3.750   2.985   8.909  0.8916  0.5066 -0.3876
  534MOL0     H72074   3.972   2.584   8.999 -2.0134  2.2886 -1.0040
  534MOL0     H72075   4.075   2.435   9.146  0.9731  0.0745 -0.3583
  534MOL0     H72076   5.167   1.295   9.627 -0.2210 -0.2831 -0.7241
  534MOL0     H72077   5.288   1.116   9.737  1.3071  0.6491  0.6660
  534MOL0     H72078   5.821   0.805   9.526  0.2835  1.1706  0.9488
  534MOL0     H72079   5.835   0.550   9.509 -2.0230 -0.5160 -0.8992
  534MOL0     H72080   5.634   0.315   9.819 -1.9374  0.8938 -0.1943
  534MOL0     H72081   5.520   0.316   9.687 -1.0284 -0.2706  0.0204
  534MOL0     H72082   5.662   0.124   9.565  0.4769 -4.6282  0.9950
  534MOL0     H72083   5.559   0.080   9.691 -0.4231 -0.5607 -3.2528
  534MOL0     H72084   5.777  -0.013   9.747 -1.4941 -0.3088  1.1551
  534MOL0     H72085   5.768   0.130   9.852  0.7473 -2.0068  0.4875
  534MOL0     H72086   5.939   0.231   9.754 -1.2469 -0.1859 -0.0069
  534MOL0     H72087   5.882   0.217   9.593  1.2093  1.0178  0.1749
  534MOL0     H72088   6.137  -0.097   9.552  1.0320 -2.1088  0.4031
  534MOL0     H72089   5.504   0.520   9.781  1.0918 -1.2691  0.5320
  534MOL0     H72090   5.489   0.744   9.810  0.7712 -4.0826  3.6871
  535MOL0     O72091   7.164   8.067   7.473 -0.2916 -0.1000  0.8589
  535MOL0     C72092   7.133   7.954   7.447  0.3998 -0.3284  0.3757
  535MOL0     O72093   7.075   7.916   7.325 -0.1484 -0.3317  0.0259
  535MOL0     C72094   7.057   8.010   7.225  0.1809 -0.3362  0.4852
  535MOL0     C72095   6.927   8.057   7.200 -0.7623 -0.5110  0.1881
  535MOL0     C72096   6.904   8.160   7.098  0.1637  0.8982 -0.2116
  535MOL0     C72097   7.010   8.212   7.024  0.7901 -0.3224 -0.0171
  535MOL0     O72098   6.978   8.297   6.926  0.6920 -0.2081  0.3759
  535MOL0     C72099   7.072   8.392   6.887  0.1582 -0.6772 -0.0286
  535MOL0     C72100   7.154   8.348   6.758 -0.6476 -0.3942 -0.0134
  535MOL0     C72101   7.243   8.466   6.707  0.7088  0.1860  0.2113
  535MOL0     C72102   7.256   8.479   6.552  0.1228 -0.5008 -1.2137
  535MOL0     C72103   7.341   8.367   6.480 -0.3895  0.3901  0.6258
  535MOL0     C72104   7.472   8.358   6.547 -0.6034 -0.2951 -0.5120
  535MOL0     C72105   7.553   8.260   6.464 -0.6855 -0.4329  0.7775
  535MOL0     C72106   7.496   8.115   6.461  0.1863 -0.3304  0.1016
  535MOL0     N72107   7.579   8.019   6.399 -1.1315 -0.0733  0.3045
  535MOL0     C72108   7.621   8.043   6.267 -0.0919  0.6160 -1.5183
  535MOL0     C72109   7.719   7.955   6.251 -0.1543  0.2656 -0.0342
  535MOL0     C72110   7.793   7.951   6.115  0.0614 -0.4658 -1.1789
  535MOL0     C72111   7.744   7.832   6.027 -0.3540  0.4374  0.5024
  535MOL0     C72112   7.783   7.703   6.094 -0.0550  0.4403 -0.3630
  535MOL0     C72113   7.732   7.578   6.027 -0.9578 -0.1525  0.2614
  535MOL0     O72114   7.802   7.545   5.914 -0.6631 -0.6503  0.5995
  535MOL0     C72115   7.923   7.481   5.938  0.5540 -0.2802 -0.2250
  535MOL0     C72116   7.927   7.354   6.007 -0.0097  0.3782 -0.5042
  535MOL0     C72117   8.059   7.293   6.020 -0.7001  0.2821  0.2695
  535MOL0     C72118   8.066   7.155   6.087 -0.6704  0.8555 -0.0598
  535MOL0     C72119   8.176   7.353   5.962 -0.5019 -0.8718  0.1040
  535MOL0     C72120   8.313   7.291   5.958 -0.4811  0.0894  0.0158
  535MOL0     O72121   8.367   7.301   5.833  0.2541 -0.8145  0.5752
  535MOL0     C72122   8.488   7.248   5.804 -0.6433  1.0635  0.1828
  535MOL0     C72123   8.514   7.173   5.689 -0.4268 -0.5828  0.4883
  535MOL0     C72124   8.634   7.110   5.656 -0.5534  0.2697  0.4512
  535MOL0     C72125   8.749   7.132   5.736 -0.3295  0.5129  0.8385
  535MOL0     O72126   8.866   7.067   5.724  0.3118  0.4780  0.0760
  535MOL0     C72127   8.854   6.925   5.683  0.0511 -0.0334 -0.3385
  535MOL0     C72128   8.994   6.901   5.614 -0.0468 -0.3560  0.0823
  535MOL0     C72129   8.980   6.915   5.467 -0.0589  0.0079 -1.3492
  535MOL0     C72130   9.119   6.941   5.403  0.0732  0.0051  0.1826
  535MOL0     C72131   9.215   6.824   5.433 -0.2243  0.3302  1.1177
  535MOL0     C72132   9.353   6.857   5.359  0.0120  0.5136 -0.6695
  535MOL0     C72133   9.450   6.735   5.365  0.3635  0.9418 -0.7970
  535MOL0     C72134   9.494   6.674   5.504  0.6950 -0.0546 -0.9995
  535MOL0    Cl72135   9.572   6.799   5.604 -0.3383  0.0642 -0.1678
  535MOL0     C72136   8.729   7.205   5.855 -0.3777 -0.3245  0.3505
  535MOL0     C72137   8.600   7.260   5.887 -0.2940  0.0071 -0.6351
  535MOL0     O72138   8.361   7.226   6.054  0.4545 -0.3754 -0.2354
  535MOL0     C72139   8.168   7.488   5.917  0.0624  0.4240 -0.4013
  535MOL0     C72140   8.042   7.549   5.897  0.7113  0.0293 -0.7300
  535MOL0     N72141   7.741   7.888   6.364  0.2607  0.2548 -0.3121
  535MOL0     N72142   7.658   7.927   6.461  0.0349  0.3697 -0.8311
  535MOL0     C72143   7.136   8.172   7.057 -0.2375 -0.6008  0.2406
  535MOL0     C72144   7.160   8.074   7.157  0.2740 -0.1518 -0.0454
  535MOL0     C72145   7.141   7.856   7.560  0.1760  0.2820  0.0230
  535MOL0     C72146   7.174   7.896   7.688  0.5093  0.1204  0.4732
  535MOL0     C72147   7.163   7.808   7.793 -0.2879  0.1096  0.1735
  535MOL0     C72148   7.129   7.674   7.764 -0.2729 -0.3808 -0.1081
  535MOL0     O72149   7.122   7.579   7.858 -0.0759 -0.4268 -0.2434
  535MOL0     C72150   7.176   7.589   7.989  0.5821  0.0948 -0.1993
  535MOL0     C72151   7.201   7.454   8.065  0.1570 -0.4192 -0.6254
  535MOL0     C72152   7.320   7.466   8.168 -0.5926  0.3560  0.3631
  535MOL0     C72153   7.340   7.334   8.244  0.0761  0.2581  0.2109
  535MOL0     C72154   7.395   7.225   8.159 -0.9506 -0.6550 -0.2211
  535MOL0     C72155   7.436   7.135   8.093  0.2644  0.0485 -0.6319
  535MOL0     C72156   7.103   7.631   7.634  0.4744  0.4671  0.0906
  535MOL0     C72157   7.095   7.725   7.532 -0.3041 -0.2209 -0.6874
  535MOL0     H72158   6.834   8.041   7.253 -1.0210  2.1505  0.6582
  535MOL0     H72159   6.803   8.192   7.076 -0.0946 -0.1261 -0.5746
  535MOL0     H72160   7.026   8.490   6.870  3.4935  1.1878  0.9362
  535MOL0     H72161   7.132   8.417   6.975 -1.7355  2.3788  0.5382
  535MOL0     H72162   7.214   8.258   6.770 -1.2285 -1.2614 -2.8836
  535MOL0     H72163   7.081   8.323   6.680  0.7723 -2.4911 -0.7650
  535MOL0     H72164   7.190   8.559   6.732 -1.2731 -0.8133 -0.0952
  535MOL0     H72165   7.339   8.448   6.756  1.6906 -0.4777 -1.8658
  535MOL0     H72166   7.156   8.479   6.508  0.7349 -0.1569 -2.6667
  535MOL0     H72167   7.298   8.579   6.539 -1.5038  0.8394  2.3489
  535MOL0     H72168   7.278   8.278   6.486 -2.7296  1.8529 -0.8070
  535MOL0     H72169   7.349   8.396   6.375 -1.8808 -2.3946 -0.3417
  535MOL0     H72170   7.523   8.454   6.532 -0.1470 -0.6100 -0.9816
  535MOL0     H72171   7.460   8.330   6.652 -1.5842  2.3219  0.1716
  535MOL0     H72172   7.562   8.287   6.359  0.1273 -0.4577  0.8354
  535MOL0     H72173   7.650   8.259   6.514 -2.1318  1.9818  3.9208
  535MOL0     H72174   7.399   8.109   6.412  0.3577 -0.2252 -0.2521
  535MOL0     H72175   7.483   8.076   6.563 -1.5571  2.4973  1.0899
  535MOL0     H72176   7.583   8.111   6.191 -0.0870  1.1593 -1.0397
  535MOL0     H72177   7.778   8.040   6.054  0.1094  1.7811  1.8640
  535MOL0     H72178   7.902   7.950   6.123  0.0722  1.5335 -0.6302
  535MOL0     H72179   7.790   7.841   5.928 -1.0890 -0.4928  0.0517
  535MOL0     H72180   7.637   7.821   6.007 -1.2147  1.4162  3.9740
  535MOL0     H72181   7.735   7.709   6.192  1.7587  0.2593  0.5739
  535MOL0     H72182   7.892   7.704   6.102 -0.1635 -1.4048  3.6405
  535MOL0     H72183   7.629   7.598   5.997 -0.8499  3.4568  1.8415
  535MOL0     H72184   7.729   7.492   6.095 -0.9383 -0.7958 -0.5364
  535MOL0     H72185   7.838   7.307   6.047 -0.7348  1.3910 -0.9075
  535MOL0     H72186   7.972   7.105   6.061 -0.0367 -1.8724  2.4038
  535MOL0     H72187   8.137   7.082   6.048 -0.7374  1.7973 -2.1063
  535MOL0     H72188   8.081   7.172   6.194  1.9018 -4.7634  0.7871
  535MOL0     H72189   8.429   7.168   5.623 -2.1977 -1.2768  2.7035
  535MOL0     H72190   8.656   7.053   5.567  2.0359  1.9562 -0.0972
  535MOL0     H72191   8.855   6.863   5.773 -1.0938 -0.7838 -0.8301
  535MOL0     H72192   8.763   6.900   5.628 -1.7097  2.9819  0.9382
  535MOL0     H72193   9.064   6.965   5.668 -1.2564  1.4411 -0.4018
  535MOL0     H72194   9.019   6.795   5.623 -0.5333 -0.7329 -2.3579
  535MOL0     H72195   8.914   7.002   5.457  0.8750  0.8548 -0.3221
  535MOL0     H72196   8.937   6.835   5.405  0.7861  0.6868 -2.8575
  535MOL0     H72197   9.102   6.954   5.296  2.2485 -1.4992 -0.4106
  535MOL0     H72198   9.167   7.032   5.441 -0.9594 -0.2014  2.1232
  535MOL0     H72199   9.174   6.728   5.399 -2.7421  1.3523  1.0227
  535MOL0     H72200   9.234   6.820   5.541 -0.0228  2.1232  1.1770
  535MOL0     H72201   9.341   6.892   5.256 -1.0665 -3.9703 -2.3007
  535MOL0     H72202   9.409   6.931   5.417 -0.1595  0.2996 -0.2251
  535MOL0     H72203   9.542   6.776   5.322 -1.2339  5.7802 -0.2889
  535MOL0     H72204   9.423   6.652   5.300  0.7584 -0.1056  0.3522
  535MOL0     H72205   9.561   6.588   5.497  0.8424  0.0126 -0.4281
  535MOL0     H72206   9.406   6.636   5.556 -0.1016 -1.2907 -3.1204
  535MOL0     H72207   8.810   7.195   5.927 -1.5038 -1.2522  1.5579
  535MOL0     H72208   8.583   7.302   5.986 -2.3597 -1.1150 -0.4495
  535MOL0     H72209   8.254   7.538   5.872 -0.3286  0.1276 -1.5162
  535MOL0     H72210   8.038   7.644   5.844 -4.7296  0.8982  0.6091
  535MOL0     H72211   7.217   8.216   7.000  0.0134 -1.2005  0.1239
  535MOL0     H72212   7.256   8.034   7.188  0.6592  0.9523  0.2269
  535MOL0     H72213   7.194   7.999   7.714 -1.3964  1.6910 -3.4898
  535MOL0     H72214   7.186   7.843   7.893  3.8763 -1.1263 -0.1566
  535MOL0     H72215   7.277   7.628   7.978  1.1188 -1.5435 -1.5080
  535MOL0     H72216   7.120   7.662   8.048  1.8242  1.7465 -0.9719
  535MOL0     H72217   7.215   7.368   7.999 -0.1874 -0.0305 -1.2089
  535MOL0     H72218   7.108   7.423   8.113 -0.9181 -3.2177 -4.0437
  535MOL0     H72219   7.290   7.550   8.232  0.0945  0.7983  0.1190
  535MOL0     H72220   7.412   7.499   8.118 -0.1021  3.3097  2.8898
  535MOL0     H72221   7.241   7.310   8.284  0.5248  0.3017  1.3884
  535MOL0     H72222   7.409   7.350   8.327  2.4929  0.6200 -1.7669
  535MOL0     H72223   7.484   7.054   8.043  4.6090  1.7915  0.2231
  535MOL0     H72224   7.066   7.530   7.627  1.5275  0.0525  0.3208
  535MOL0     H72225   7.051   7.699   7.436  0.3688 -0.3589 -0.9648
  536MOL0     O72226   2.115   3.450  10.691  0.4129 -0.0431 -0.1766
  536MOL0     C72227   2.065   3.547  10.631  0.2128 -0.0999 -0.2017
  536MOL0     O72228   2.014   3.539  10.505  1.0705 -0.6598  0.2889
  536MOL0     C72229   2.021   3.416  10.442 -0.3375 -0.5144  0.3645
  536MOL0     C72230   1.913   3.358  10.373  0.2754 -0.8748  0.0614
  536MOL0     C72231   1.924   3.249  10.294  0.6484 -0.4943 -0.2102
  536MOL0     C72232   2.056   3.183  10.273  0.4183  0.3117 -0.5730
  536MOL0     O72233   2.058   3.059  10.211  0.2977 -0.8014  0.3428
  536MOL0     C72234   2.174   2.988  10.170  0.5296 -0.0340 -0.9046
  536MOL0     C72235   2.223   2.914  10.294 -0.6472  0.7810  0.5876
  536MOL0     C72236   2.354   2.845  10.290 -0.3490  0.0433 -0.4132
  536MOL0     C72237   2.370   2.740  10.412 -0.3818 -0.6159  1.2351
  536MOL0     C72238   2.517   2.668  10.391 -0.7650  0.0303 -0.0124
  536MOL0     C72239   2.586   2.641  10.532  0.8954 -0.4075  0.6773
  536MOL0     C72240   2.593   2.771  10.620  0.7457 -0.2908 -0.1851
  536MOL0     C72241   2.716   2.752  10.713  0.1522 -0.6419 -0.1244
  536MOL0     N72242   2.722   2.846  10.822  0.1414  0.8268 -0.0896
  536MOL0     C72243   2.817   2.942  10.829 -0.5615  0.6380 -0.2571
  536MOL0     C72244   2.773   3.017  10.933 -1.3551 -0.1377 -0.0872
  536MOL0     C72245   2.855   3.136  10.982 -0.1757 -0.7164  1.3121
  536MOL0     C72246   2.800   3.269  10.922  0.3607 -0.0473 -0.7430
  536MOL0     C72247   2.814   3.273  10.762 -0.3041 -0.1561 -0.7543
  536MOL0     C72248   2.948   3.336  10.730  0.9598  0.7088  0.5643
  536MOL0     O72249   3.054   3.225  10.725  0.0634 -0.0777  0.1736
  536MOL0     C72250   3.162   3.278  10.669 -0.6621 -0.5726  1.1050
  536MOL0     C72251   3.171   3.300  10.527  0.0994 -0.3867 -0.5517
  536MOL0     C72252   3.286   3.344  10.469 -0.6894  0.6492 -0.1296
  536MOL0     C72253   3.278   3.362  10.324 -0.3724  0.1518  0.4185
  536MOL0     C72254   3.398   3.378  10.549 -0.6140  0.8072  0.2894
  536MOL0     C72255   3.506   3.449  10.500  0.1066  0.4445  0.0355
  536MOL0     O72256   3.633   3.415  10.534  0.3377 -0.3891 -0.4496
  536MOL0     C72257   3.731   3.509  10.517 -0.0827 -0.6355 -0.2212
  536MOL0     C72258   3.809   3.484  10.403 -0.3578  0.7443  0.5735
  536MOL0     C72259   3.919   3.563  10.369 -0.5665  0.0276  1.0809
  536MOL0     C72260   3.950   3.681  10.449 -0.8231 -0.1168  0.1061
  536MOL0     O72261   4.057   3.766  10.408  0.0173  0.7308  0.3008
  536MOL0     C72262   4.055   3.896  10.459  0.7623 -0.0742  1.6926
  536MOL0     C72263   4.149   3.981  10.377 -0.8673 -0.2189 -0.1460
  536MOL0     C72264   4.297   3.949  10.382  0.5206  0.2646  0.2997
  536MOL0     C72265   4.390   4.052  10.303 -0.5676 -0.2219  0.2296
  536MOL0     C72266   4.425   4.175  10.392  0.3707  0.7548 -0.3826
  536MOL0     C72267   4.573   4.159  10.435 -1.5265  0.6393  1.1759
  536MOL0     C72268   4.670   4.178  10.317 -0.3077  1.0990  0.7359
  536MOL0     C72269   4.816   4.210  10.367  0.7997  0.2973  0.7074
  536MOL0    Cl72270   4.807   4.343  10.476 -0.3281  0.1316  0.0456
  536MOL0     C72271   3.866   3.706  10.568 -0.0442 -0.7514 -0.4175
  536MOL0     C72272   3.763   3.617  10.602  0.5837 -0.4725  0.6808
  536MOL0     O72273   3.472   3.557  10.448 -0.5730  0.3403  0.0629
  536MOL0     C72274   3.403   3.339  10.683  0.2091  0.5666  0.5756
  536MOL0     C72275   3.281   3.297  10.741  0.6629 -0.3525  0.6617
  536MOL0     N72276   2.661   2.967  10.993  0.1080  0.6787 -0.1180
  536MOL0     N72277   2.624   2.865  10.913  0.1138 -0.4448  0.8859
  536MOL0     C72278   2.168   3.228  10.343 -0.7472 -0.2095 -0.3617
  536MOL0     C72279   2.146   3.351  10.417  0.0313  0.5467  0.4867
  536MOL0     C72280   2.038   3.666  10.702 -0.2013 -0.4903 -0.1755
  536MOL0     C72281   2.084   3.668  10.839  0.6509 -0.6880  0.3520
  536MOL0     C72282   2.068   3.783  10.924 -0.4105  0.0561 -0.8496
  536MOL0     C72283   2.017   3.901  10.873 -0.4964 -0.3793 -0.3455
  536MOL0     O72284   2.016   4.003  10.962  0.6566 -0.2233  0.0971
  536MOL0     C72285   1.918   4.116  10.951 -0.5241  0.9393 -1.0982
  536MOL0     C72286   1.962   4.232  11.041 -0.3612 -0.0303 -0.3934
  536MOL0     C72287   1.850   4.336  11.072 -0.4746 -0.4290 -0.9794
  536MOL0     C72288   1.778   4.389  10.958  0.4485  0.0642  0.2043
  536MOL0     C72289   1.850   4.479  10.875 -0.3502  0.0080 -0.4472
  536MOL0     C72290   1.908   4.558  10.800  0.1086  0.1573 -0.5755
  536MOL0     C72291   1.966   3.898  10.739  0.0605  0.4855 -0.6460
  536MOL0     C72292   1.969   3.780  10.662 -0.6206 -0.6085  0.2662
  536MOL0     H72293   1.817   3.407  10.388  1.5959  1.8066  0.2838
  536MOL0     H72294   1.836   3.207  10.247  0.9664  0.5494 -1.8073
  536MOL0     H72295   2.152   2.910  10.097 -1.8905 -0.0619 -0.2150
  536MOL0     H72296   2.251   3.062  10.144  0.8147 -0.1626 -0.4224
  536MOL0     H72297   2.218   2.981  10.380  1.5311  1.9837 -0.1292
  536MOL0     H72298   2.150   2.833  10.301  1.3802 -1.4427 -1.7488
  536MOL0     H72299   2.348   2.787  10.198 -1.0255 -0.3371 -0.1371
  536MOL0     H72300   2.431   2.922  10.300 -0.3598 -0.0679  0.6461
  536MOL0     H72301   2.359   2.788  10.510 -0.5039  0.2192  0.8202
  536MOL0     H72302   2.301   2.655  10.404 -1.8370  0.5702  0.8600
  536MOL0     H72303   2.507   2.571  10.340 -0.8058 -0.4226  0.8248
  536MOL0     H72304   2.586   2.722  10.326  2.2161 -1.6038  1.5512
  536MOL0     H72305   2.512   2.572  10.573  0.9195 -1.3834 -0.8412
  536MOL0     H72306   2.685   2.596  10.517 -0.1980 -3.0566  0.7672
  536MOL0     H72307   2.612   2.860  10.559 -2.6011  1.7061  1.3726
  536MOL0     H72308   2.498   2.792  10.670  1.7172  1.4864  1.0246
  536MOL0     H72309   2.810   2.747  10.658 -1.4005 -0.5607 -2.9341
  536MOL0     H72310   2.688   2.662  10.770  0.9164 -1.9794 -1.7822
  536MOL0     H72311   2.907   2.961  10.771  0.7203  2.3177  2.1121
  536MOL0     H72312   2.857   3.153  11.090 -1.7733  0.3361  1.1997
  536MOL0     H72313   2.955   3.121  10.940 -1.5219  0.1192 -2.5978
  536MOL0     H72314   2.848   3.357  10.967 -1.4600 -0.4578  2.2137
  536MOL0     H72315   2.696   3.278  10.953  0.0174 -0.2832 -1.7886
  536MOL0     H72316   2.735   3.334  10.718 -0.0716  1.0147  0.3714
  536MOL0     H72317   2.799   3.173  10.720 -1.4052  0.1790 -1.1971
  536MOL0     H72318   2.975   3.424  10.789  3.3369  3.5179 -4.1466
  536MOL0     H72319   2.930   3.379  10.631 -0.1265 -2.8955 -0.9692
  536MOL0     H72320   3.085   3.288  10.461  0.0779 -0.5248 -0.4996
  536MOL0     H72321   3.370   3.323  10.278 -1.0774 -1.4741  0.3309
  536MOL0     H72322   3.203   3.315  10.260 -1.3223  3.0500 -0.7858
  536MOL0     H72323   3.279   3.470  10.307 -0.1587 -0.0085 -0.6856
  536MOL0     H72324   3.780   3.398  10.344  1.5693 -0.3725  1.1668
  536MOL0     H72325   3.970   3.544  10.275  2.4971  1.5423  2.2860
  536MOL0     H72326   3.954   3.939  10.464  1.2680  1.0443  3.1941
  536MOL0     H72327   4.096   3.886  10.560 -0.2974  1.6660  2.3350
  536MOL0     H72328   4.122   3.978  10.271 -0.4715  1.1025 -0.3070
  536MOL0     H72329   4.140   4.083  10.417  2.2991 -0.9224  2.8710
  536MOL0     H72330   4.302   3.845  10.347 -0.4499  0.0206  0.8576
  536MOL0     H72331   4.326   3.943  10.488 -3.3433  1.5490  1.5692
  536MOL0     H72332   4.478   3.997  10.271 -0.8605 -0.6115  0.0797
  536MOL0     H72333   4.335   4.088  10.215  0.1420  0.5855  0.1068
  536MOL0     H72334   4.357   4.175  10.478 -1.6261  0.4710 -1.8702
  536MOL0     H72335   4.397   4.266  10.338 -1.4941  1.6620  1.9183
  536MOL0     H72336   4.593   4.232  10.514  0.5200 -0.7859  2.0695
  536MOL0     H72337   4.590   4.061  10.482  0.2384 -0.7765 -2.1222
  536MOL0     H72338   4.645   4.266  10.257 -0.4526  0.3696 -0.2996
  536MOL0     H72339   4.664   4.086  10.258 -2.0940 -0.2368  2.8396
  536MOL0     H72340   4.874   4.229  10.276  0.9232  0.8523  0.8991
  536MOL0     H72341   4.864   4.129  10.422 -0.0834  0.1269  1.2356
  536MOL0     H72342   3.892   3.780  10.643 -0.2262 -1.6620  0.5600
  536MOL0     H72343   3.709   3.631  10.695 -3.2833 -1.6116 -1.2099
  536MOL0     H72344   3.486   3.361  10.748 -1.6836 -1.7531  4.0959
  536MOL0     H72345   3.263   3.270  10.845  0.0575  2.8098  1.4814
  536MOL0     H72346   2.270   3.194  10.360 -0.2291  0.7442 -1.4499
  536MOL0     H72347   2.228   3.404  10.465 -1.2136  4.2565 -1.0959
  536MOL0     H72348   2.138   3.580  10.873  1.4593 -0.2822  0.1322
  536MOL0     H72349   2.096   3.773  11.029  1.2939 -2.3640 -1.4468
  536MOL0     H72350   1.926   4.149  10.847  2.0664 -0.0144 -1.2746
  536MOL0     H72351   1.817   4.093  10.988  1.9121 -3.2452  4.4423
  536MOL0     H72352   2.042   4.273  10.979 -1.7368  0.2942 -2.0294
  536MOL0     H72353   2.006   4.204  11.138 -0.0881  4.8263  1.1715
  536MOL0     H72354   1.902   4.420  11.119 -2.5156  1.6051 -2.1526
  536MOL0     H72355   1.780   4.300  11.148  0.3314 -0.2863 -0.1474
  536MOL0     H72356   1.691   4.427  11.012  1.4651 -2.3209  3.9131
  536MOL0     H72357   1.737   4.319  10.884  1.4862  0.3924 -0.7154
  536MOL0     H72358   1.953   4.631  10.736  3.1282  0.7928  1.9834
  536MOL0     H72359   1.935   3.984  10.681 -0.5011  0.0297 -1.0405
  536MOL0     H72360   1.927   3.795  10.563 -1.4055 -1.0523  0.5256
  537MOL0     O72361   3.776   4.740   1.822 -0.8500  0.0578  0.3780
  537MOL0     C72362   3.679   4.697   1.756  0.0570 -0.5311 -0.5434
  537MOL0     O72363   3.615   4.578   1.789  0.0512 -0.0058  0.0371
  537MOL0     C72364   3.666   4.516   1.894 -0.0743  0.6628 -0.6258
  537MOL0     C72365   3.603   4.534   2.017  0.0708  0.1118  0.2686
  537MOL0     C72366   3.646   4.456   2.130 -0.6392  0.1146 -0.6245
  537MOL0     C72367   3.745   4.358   2.118 -0.4306 -0.3117 -0.1451
  537MOL0     O72368   3.784   4.292   2.231 -0.5491 -0.2819 -0.1935
  537MOL0     C72369   3.848   4.165   2.216  0.0245 -0.1091  0.0970
  537MOL0     C72370   3.854   4.086   2.349  0.7960  0.1274  0.6731
  537MOL0     C72371   3.722   4.078   2.426 -0.2156  0.1026  0.0349
  537MOL0     C72372   3.744   3.982   2.551  1.0124 -0.2398  0.8608
  537MOL0     C72373   3.812   4.059   2.664  0.5227 -0.0617 -1.0031
  537MOL0     C72374   3.868   3.970   2.769 -0.6199  1.0959 -0.3473
  537MOL0     C72375   3.772   3.890   2.857  0.0077 -0.9861  0.2298
  537MOL0     C72376   3.836   3.791   2.959  0.7670 -0.3297 -0.1371
  537MOL0     N72377   3.749   3.680   2.997 -0.1149 -0.5332 -0.1294
  537MOL0     C72378   3.745   3.633   3.122 -1.1182  0.8675  0.5417
  537MOL0     C72379   3.641   3.543   3.118 -0.0888  0.2560  0.0265
  537MOL0     C72380   3.597   3.471   3.248  1.2602 -0.1549  0.4718
  537MOL0     C72381   3.547   3.326   3.204 -1.2515  0.6040 -0.4018
  537MOL0     C72382   3.502   3.253   3.327 -0.0360  0.7963 -0.6146
  537MOL0     C72383   3.487   3.102   3.319  0.3902 -0.5226  0.2409
  537MOL0     O72384   3.447   3.050   3.439 -0.0203  0.3826  0.2937
  537MOL0     C72385   3.451   2.912   3.436  0.3661  0.5636 -0.6474
  537MOL0     C72386   3.462   2.846   3.563 -0.3187  1.0787  0.5598
  537MOL0     C72387   3.447   2.710   3.577 -0.5942  0.6360 -0.2157
  537MOL0     C72388   3.447   2.652   3.724  0.0930 -0.3913  0.2606
  537MOL0     C72389   3.448   2.631   3.455 -0.0592 -0.3819 -0.6483
  537MOL0     C72390   3.424   2.480   3.460 -0.0244  0.4443 -0.3577
  537MOL0     O72391   3.476   2.409   3.356 -0.7829 -0.0586 -0.5275
  537MOL0     C72392   3.439   2.275   3.338 -0.4067  0.1440 -0.4256
  537MOL0     C72393   3.309   2.237   3.357  0.7300 -0.0340 -0.1602
  537MOL0     C72394   3.270   2.100   3.359 -0.5190  0.4128 -0.2708
  537MOL0     C72395   3.361   2.004   3.323 -0.5596  0.1608 -0.7335
  537MOL0     O72396   3.320   1.874   3.304  0.3094 -0.3331  0.0098
  537MOL0     C72397   3.292   1.798   3.425 -0.0890 -0.4589  0.2560
  537MOL0     C72398   3.426   1.733   3.459 -0.6983  0.4023 -0.1141
  537MOL0     C72399   3.408   1.647   3.582  0.3542  0.1454  0.6039
  537MOL0     C72400   3.535   1.581   3.621 -0.4225  0.4976 -0.7250
  537MOL0     C72401   3.523   1.515   3.760 -0.7148 -0.5825 -0.5618
  537MOL0     C72402   3.476   1.370   3.755 -0.1381  0.2178 -0.7970
  537MOL0     C72403   3.592   1.277   3.729 -0.2944  0.0735 -0.4047
  537MOL0     C72404   3.634   1.186   3.844  0.0072  0.1961 -0.0956
  537MOL0    Cl72405   3.748   1.069   3.787 -0.1132 -0.1639  0.5432
  537MOL0     C72406   3.491   2.044   3.281  0.5285  0.4408  0.2618
  537MOL0     C72407   3.530   2.177   3.288  0.1103  1.1332  0.2228
  537MOL0     O72408   3.384   2.429   3.565  0.8147  0.1400  0.3396
  537MOL0     C72409   3.467   2.694   3.335 -0.4711  1.0466 -0.2967
  537MOL0     C72410   3.463   2.832   3.322 -0.6312  0.3628  0.4445
  537MOL0     N72411   3.585   3.543   2.990  0.4583 -0.0017 -0.1581
  537MOL0     N72412   3.652   3.627   2.919 -0.4363 -0.8069  0.2255
  537MOL0     C72413   3.794   4.328   1.990 -0.4313 -0.5017 -0.5495
  537MOL0     C72414   3.756   4.413   1.883  0.1081  0.0859 -0.3427
  537MOL0     C72415   3.613   4.768   1.646  0.7503  0.3991  0.2921
  537MOL0     C72416   3.528   4.707   1.555  0.5345  0.4651 -0.1044
  537MOL0     C72417   3.472   4.776   1.442 -0.5711  0.0575  0.5109
  537MOL0     C72418   3.499   4.914   1.427 -0.3763  0.4835 -0.4417
  537MOL0     O72419   3.441   4.972   1.312  0.7998  0.4087 -0.0888
  537MOL0     C72420   3.463   5.110   1.296 -0.6097  0.0953 -0.5985
  537MOL0     C72421   3.360   5.166   1.204 -0.4275 -0.6421  0.6243
  537MOL0     C72422   3.378   5.088   1.068  0.8214 -0.2747 -0.3119
  537MOL0     C72423   3.313   5.171   0.959 -0.3410 -0.1281  0.3315
  537MOL0     C72424   3.170   5.194   0.980 -0.1464 -0.0870 -0.0073
  537MOL0     C72425   3.057   5.192   0.997 -0.6379 -0.1893 -0.5802
  537MOL0     C72426   3.593   4.970   1.516  0.7283 -0.4867  0.0193
  537MOL0     C72427   3.650   4.897   1.621 -0.0723 -0.2640  0.2591
  537MOL0     H72428   3.536   4.618   2.029 -2.5729 -1.8705  0.3384
  537MOL0     H72429   3.624   4.492   2.230  0.3114  0.5812 -0.5670
  537MOL0     H72430   3.794   4.103   2.144 -0.1733 -2.1602  1.9099
  537MOL0     H72431   3.950   4.190   2.185  0.7679 -2.3546  0.6002
  537MOL0     H72432   3.882   3.983   2.329 -1.9275 -0.6603  0.4556
  537MOL0     H72433   3.934   4.132   2.408  1.7301  0.0858 -0.5155
  537MOL0     H72434   3.689   4.175   2.466  1.2013  0.5163  0.2339
  537MOL0     H72435   3.657   4.032   2.351  0.8488 -0.9579 -0.2602
  537MOL0     H72436   3.646   3.947   2.585  0.4481  0.9569  0.4950
  537MOL0     H72437   3.806   3.895   2.527  0.0211 -1.1401  1.4915
  537MOL0     H72438   3.894   4.119   2.621  0.2127 -2.8905 -6.4948
  537MOL0     H72439   3.729   4.113   2.710  0.6416 -0.8104  0.1240
  537MOL0     H72440   3.925   3.894   2.715 -3.1717 -0.2887 -1.2842
  537MOL0     H72441   3.928   4.031   2.838 -0.2430 -2.4788  2.8435
  537MOL0     H72442   3.719   3.965   2.918 -0.1177 -2.4952  2.0587
  537MOL0     H72443   3.699   3.832   2.800  1.0234 -1.5333 -0.5431
  537MOL0     H72444   3.870   3.845   3.048 -1.2264  1.4080 -0.3727
  537MOL0     H72445   3.925   3.749   2.912  0.6088  2.0224 -2.7515
  537MOL0     H72446   3.794   3.666   3.213 -0.3789  1.6043 -0.1098
  537MOL0     H72447   3.679   3.479   3.320  1.9364 -3.0708  0.1565
  537MOL0     H72448   3.507   3.526   3.276  1.0272  0.2484 -0.9940
  537MOL0     H72449   3.634   3.278   3.160  0.6173 -0.8802  4.2400
  537MOL0     H72450   3.478   3.323   3.119 -0.7100  3.7151 -1.0768
  537MOL0     H72451   3.400   3.291   3.340  0.2562  0.9846  1.5865
  537MOL0     H72452   3.558   3.283   3.416  1.2533 -0.4344 -0.9694
  537MOL0     H72453   3.578   3.052   3.283 -0.6446 -1.2349 -1.5129
  537MOL0     H72454   3.406   3.078   3.250 -0.1905 -0.1425  0.7778
  537MOL0     H72455   3.449   2.920   3.642 -2.8093 -0.6183  1.8605
  537MOL0     H72456   3.460   2.726   3.804  1.1186 -1.1879  0.8570
  537MOL0     H72457   3.351   2.601   3.737 -1.1746  1.4446 -1.3312
  537MOL0     H72458   3.522   2.573   3.735 -0.0459 -0.6334 -0.5118
  537MOL0     H72459   3.224   2.305   3.360  1.0917  0.4245 -0.2756
  537MOL0     H72460   3.165   2.072   3.373 -0.4077  0.4420  0.7066
  537MOL0     H72461   3.235   1.846   3.505  0.6215 -1.2912  1.2802
  537MOL0     H72462   3.219   1.718   3.407  1.7477 -2.4651  1.2181
  537MOL0     H72463   3.461   1.675   3.373 -1.4738 -0.7961  0.3518
  537MOL0     H72464   3.499   1.809   3.485  1.1636 -1.8111  1.4879
  537MOL0     H72465   3.336   1.566   3.567  0.0826 -1.2627  6.7410
  537MOL0     H72466   3.372   1.720   3.655  2.7216  5.1234 -2.6430
  537MOL0     H72467   3.561   1.502   3.549  0.8845  0.3870 -0.1515
  537MOL0     H72468   3.618   1.651   3.633 -0.3861  0.1348  1.5858
  537MOL0     H72469   3.460   1.579   3.822  0.1429  1.3269 -1.5705
  537MOL0     H72470   3.616   1.520   3.819 -1.1461 -4.0216  0.6596
  537MOL0     H72471   3.439   1.355   3.857 -0.1761  2.6872 -0.3867
  537MOL0     H72472   3.385   1.361   3.694 -1.8807  4.7944  0.6874
  537MOL0     H72473   3.686   1.322   3.698 -0.3448  0.3775 -0.1120
  537MOL0     H72474   3.565   1.217   3.641  0.7965 -0.9685 -0.0633
  537MOL0     H72475   3.540   1.134   3.862 -0.7903  1.3551 -0.8217
  537MOL0     H72476   3.665   1.230   3.939 -1.8357 -0.3869  0.8169
  537MOL0     H72477   3.565   1.974   3.243 -0.0633  1.4299 -2.9515
  537MOL0     H72478   3.634   2.205   3.279  0.3748 -0.4253 -2.8585
  537MOL0     H72479   3.464   2.636   3.243 -0.4131 -0.9744  0.9151
  537MOL0     H72480   3.463   2.873   3.222  4.2721 -0.1195  0.0249
  537MOL0     H72481   3.873   4.257   1.967 -1.7276 -1.8986 -0.8394
  537MOL0     H72482   3.796   4.394   1.783 -0.0345 -1.1589 -0.1708
  537MOL0     H72483   3.477   4.615   1.584 -2.4142  2.6127  2.0839
  537MOL0     H72484   3.406   4.728   1.371  1.6890 -1.3265 -0.7691
  537MOL0     H72485   3.459   5.157   1.394  1.1548 -0.6485 -0.1260
  537MOL0     H72486   3.566   5.126   1.264  0.2781 -1.4975  1.2426
  537MOL0     H72487   3.356   5.275   1.195  0.2190 -0.7809 -1.9839
  537MOL0     H72488   3.259   5.149   1.242 -0.7702 -1.8901 -0.7750
  537MOL0     H72489   3.328   4.991   1.074  0.4139  0.0000  1.8160
  537MOL0     H72490   3.485   5.068   1.058  1.5512  2.8295  0.0475
  537MOL0     H72491   3.342   5.117   0.869  0.1134  0.6320  0.0107
  537MOL0     H72492   3.367   5.266   0.950  1.7641 -1.0546  2.1234
  537MOL0     H72493   2.951   5.196   1.010 -0.5903 -0.1319 -0.2137
  537MOL0     H72494   3.632   5.070   1.498  1.6116 -0.5401  1.4489
  537MOL0     H72495   3.720   4.949   1.686  1.2668  0.2739 -1.5236
  538MOL0     O72496   0.073  11.042   6.331  0.1425  0.4581 -0.2233
  538MOL0     C72497  -0.008  10.993   6.255  0.2711 -0.6251 -0.5789
  538MOL0     O72498  -0.110  11.066   6.200  0.4266  0.3596  0.2641
  538MOL0     C72499  -0.109  11.197   6.235 -0.2471 -0.5381  0.3448
  538MOL0     C72500  -0.220  11.254   6.309 -0.1250 -0.5444  0.5512
  538MOL0     C72501  -0.217  11.390   6.347  0.8964  0.5079 -0.9976
  538MOL0     C72502  -0.116  11.477   6.309  0.7458  0.5271  0.2602
  538MOL0     O72503  -0.137  11.608   6.333 -0.0112  0.0650  0.4295
  538MOL0     C72504  -0.058  11.713   6.273  0.2390 -0.5203  0.4824
  538MOL0     C72505  -0.110  11.839   6.350 -0.1109 -0.3768 -0.0123
  538MOL0     C72506  -0.096  11.966   6.277 -0.2152  0.5487 -0.0431
  538MOL0     C72507  -0.107  12.101   6.353  0.6109 -0.1710 -0.4063
  538MOL0     C72508  -0.054  12.208   6.255 -0.3699  0.5963 -0.0458
  538MOL0     C72509  -0.126  12.348   6.279 -0.6630  1.1483 -0.2543
  538MOL0     C72510  -0.259  12.366   6.199  0.4078 -0.8833 -1.1501
  538MOL0     C72511  -0.346  12.468   6.274 -0.0768 -0.2936 -0.0794
  538MOL0     N72512  -0.329  12.602   6.236 -0.3412  0.0859 -0.5871
  538MOL0     C72513  -0.243  12.693   6.280  0.1411  0.7613  0.7611
  538MOL0     C72514  -0.268  12.807   6.202 -0.5202 -0.3491 -1.1860
  538MOL0     C72515  -0.206  12.945   6.244  0.6315  0.7335  0.0006
  538MOL0     C72516  -0.199  12.961   6.396 -0.2299 -0.1627 -0.5480
  538MOL0     C72517  -0.197  13.108   6.442 -0.0222  0.4695 -0.7228
  538MOL0     C72518  -0.182  13.133   6.601  0.0801 -0.3306 -0.4437
  538MOL0     O72519  -0.296  13.083   6.677 -0.2820 -0.0889 -0.5636
  538MOL0     C72520  -0.274  13.005   6.789  0.0681  0.5016 -0.2024
  538MOL0     C72521  -0.349  12.885   6.808  0.5391 -0.3346  0.3763
  538MOL0     C72522  -0.333  12.809   6.922  0.5496 -0.7320  0.0230
  538MOL0     C72523  -0.419  12.687   6.934  0.0577  0.1163  0.0805
  538MOL0     C72524  -0.226  12.837   7.017  0.1371 -0.1194  0.6537
  538MOL0     C72525  -0.192  12.769   7.141  0.3958 -0.0266 -0.0585
  538MOL0     O72526  -0.293  12.697   7.202  1.4082  0.2798 -0.2659
  538MOL0     C72527  -0.308  12.655   7.330 -0.4468 -0.8240  0.8155
  538MOL0     C72528  -0.379  12.532   7.352  0.9402 -0.8053 -0.3385
  538MOL0     C72529  -0.389  12.479   7.481 -0.4048 -0.6213 -0.6783
  538MOL0     C72530  -0.311  12.538   7.586 -0.0743  0.4492 -0.1962
  538MOL0     O72531  -0.306  12.481   7.712  1.0756  0.6522  0.0614
  538MOL0     C72532  -0.423  12.485   7.798 -0.2320  0.9019  0.0393
  538MOL0     C72533  -0.389  12.454   7.944  0.1060 -0.1095 -0.0444
  538MOL0     C72534  -0.517  12.445   8.037  0.7071  0.2757 -0.0209
  538MOL0     C72535  -0.633  12.545   8.013 -0.4522 -0.3424  0.3519
  538MOL0     C72536  -0.746  12.533   8.111 -0.8978  0.0917 -0.4200
  538MOL0     C72537  -0.875  12.593   8.059  0.2132 -0.4036  0.3071
  538MOL0     C72538  -0.994  12.545   8.145 -0.7645  0.2792  0.5734
  538MOL0     C72539  -1.126  12.579   8.071 -0.1109 -0.9071  0.1358
  538MOL0    Cl72540  -1.148  12.753   8.073  0.0525 -0.6719 -0.3350
  538MOL0     C72541  -0.238  12.654   7.568 -0.5450 -0.8206  1.4841
  538MOL0     C72542  -0.243  12.714   7.439 -0.1328 -0.2820 -0.4034
  538MOL0     O72543  -0.073  12.768   7.176  0.3186 -0.3751  0.1797
  538MOL0     C72544  -0.135  12.942   6.975  0.1471  0.2681  0.1591
  538MOL0     C72545  -0.166  13.028   6.874 -0.5839  0.2603 -0.1233
  538MOL0     N72546  -0.368  12.783   6.116 -0.0183  0.7172  0.7445
  538MOL0     N72547  -0.399  12.659   6.134 -0.3534 -0.0200 -0.3773
  538MOL0     C72548  -0.020  11.428   6.224 -0.0080 -0.0746  0.0147
  538MOL0     C72549  -0.015  11.291   6.182  0.2716 -0.3903  0.1712
  538MOL0     C72550   0.024  10.866   6.192  0.5701 -0.1216  0.1863
  538MOL0     C72551   0.109  10.773   6.255 -0.5723 -0.4363 -0.3165
  538MOL0     C72552   0.157  10.662   6.184 -0.0719  0.9378 -1.0016
  538MOL0     C72553   0.113  10.632   6.060  0.2710  0.3178  0.5363
  538MOL0     O72554   0.165  10.523   5.991 -0.1651  0.5331 -0.0769
  538MOL0     C72555   0.103  10.396   5.998  0.1633 -0.2782  0.7282
  538MOL0     C72556   0.170  10.316   5.884 -0.1969  0.3015  0.3477
  538MOL0     C72557   0.112  10.166   5.872 -0.3665  0.3223  0.3505
  538MOL0     C72558   0.089  10.086   6.005  0.0166 -0.2074  0.0726
  538MOL0     C72559   0.107   9.933   5.994 -0.3581 -1.0330 -0.0193
  538MOL0     C72560   0.106   9.812   5.981  0.3997  1.1303  0.5559
  538MOL0     C72561   0.023  10.716   5.993 -0.2861  0.2044  0.2077
  538MOL0     C72562  -0.019  10.824   6.063 -0.2850 -0.7434  0.5088
  538MOL0     H72563  -0.300  11.185   6.331  0.1672 -2.2943 -3.0575
  538MOL0     H72564  -0.303  11.426   6.402  1.7329  0.5683  0.3113
  538MOL0     H72565   0.050  11.697   6.285  0.2097 -3.9023 -2.3572
  538MOL0     H72566  -0.082  11.719   6.167  0.5927 -0.0206  0.4250
  538MOL0     H72567  -0.217  11.816   6.357  0.5624 -3.9721  0.6214
  538MOL0     H72568  -0.071  11.843   6.452  0.9804 -1.0460 -0.3880
  538MOL0     H72569   0.008  11.973   6.243  0.0445  1.1363  0.8417
  538MOL0     H72570  -0.160  11.966   6.189  1.8046 -0.1648 -1.5970
  538MOL0     H72571  -0.209  12.123   6.388  1.3176  0.6995  1.1871
  538MOL0     H72572  -0.048  12.121   6.443  2.5807 -0.4595 -1.5838
  538MOL0     H72573   0.050  12.211   6.286 -1.2784  2.6794  3.3834
  538MOL0     H72574  -0.069  12.178   6.151 -0.3136  0.5331 -0.0359
  538MOL0     H72575  -0.138  12.368   6.386  3.6790 -1.2721  0.9345
  538MOL0     H72576  -0.059  12.428   6.246 -1.1248  1.7782  0.3162
  538MOL0     H72577  -0.248  12.412   6.101  0.2242 -1.5099 -1.4735
  538MOL0     H72578  -0.316  12.273   6.189  1.1673 -1.5435  0.3401
  538MOL0     H72579  -0.346  12.449   6.382  2.3493 -3.0434 -0.4313
  538MOL0     H72580  -0.445  12.434   6.243 -0.6133  0.4992  0.7092
  538MOL0     H72581  -0.182  12.688   6.370 -0.6787  1.5705  1.3943
  538MOL0     H72582  -0.112  12.955   6.188 -0.9789  0.2470 -3.0560
  538MOL0     H72583  -0.274  13.020   6.201 -0.1677  0.1262  0.1785
  538MOL0     H72584  -0.104  12.920   6.430  0.6852  1.5258 -0.9479
  538MOL0     H72585  -0.276  12.899   6.442  0.2685  0.4524  1.1631
  538MOL0     H72586  -0.274  13.179   6.410  0.8604  2.4957  1.3960
  538MOL0     H72587  -0.098  13.145   6.415  0.5282 -1.1042 -0.9834
  538MOL0     H72588  -0.176  13.242   6.613  2.6274 -0.1763 -2.3861
  538MOL0     H72589  -0.083  13.094   6.625 -0.1887 -0.9214 -0.2810
  538MOL0     H72590  -0.409  12.863   6.720  1.4158 -0.7153 -0.1398
  538MOL0     H72591  -0.493  12.699   7.013 -1.3449  3.4146 -1.5216
  538MOL0     H72592  -0.476  12.679   6.841  3.4244  1.4557 -2.2945
  538MOL0     H72593  -0.351  12.603   6.938  0.1537  0.2330  0.9508
  538MOL0     H72594  -0.427  12.495   7.262 -0.5478  1.0160 -0.3620
  538MOL0     H72595  -0.460  12.399   7.500 -0.5745 -0.0928  1.0894
  538MOL0     H72596  -0.455  12.589   7.803  0.5123  1.1360 -0.0068
  538MOL0     H72597  -0.502  12.421   7.758 -1.0133  0.4923  2.1542
  538MOL0     H72598  -0.335  12.359   7.945  2.8102  1.3351  0.1524
  538MOL0     H72599  -0.313  12.521   7.985  1.9051 -0.1232 -3.0634
  538MOL0     H72600  -0.489  12.453   8.143 -1.0713  2.1433  0.3746
  538MOL0     H72601  -0.550  12.343   8.015 -0.1752  0.2919  1.1269
  538MOL0     H72602  -0.603  12.650   8.013  1.0310 -0.7387  0.3185
  538MOL0     H72603  -0.669  12.524   7.912  2.6569 -0.0957 -0.9428
  538MOL0     H72604  -0.725  12.572   8.211 -0.0412 -0.5006 -0.3533
  538MOL0     H72605  -0.764  12.426   8.126 -1.9599  0.6357  3.0281
  538MOL0     H72606  -0.888  12.701   8.067 -0.7981 -0.5382  0.6249
  538MOL0     H72607  -0.891  12.557   7.957 -2.0202 -0.1039  0.5084
  538MOL0     H72608  -0.986  12.593   8.243  0.0841  0.9481  0.1869
  538MOL0     H72609  -0.989  12.437   8.163  1.6801  0.2659  0.1317
  538MOL0     H72610  -1.211  12.543   8.129 -2.8945  3.2686 -0.8480
  538MOL0     H72611  -1.136  12.552   7.966  1.3254 -2.8901  0.4543
  538MOL0     H72612  -0.163  12.687   7.640  0.5563 -2.6848  1.2472
  538MOL0     H72613  -0.175  12.798   7.431  2.8893 -2.4664  0.5310
  538MOL0     H72614  -0.042  12.951   7.030  0.6038 -3.9239  0.4013
  538MOL0     H72615  -0.105  13.115   6.852 -0.0802 -0.1982 -0.5633
  538MOL0     H72616   0.067  11.488   6.201  2.2895 -2.4607  1.7726
  538MOL0     H72617   0.054  11.247   6.111 -0.9114 -0.6387 -0.8487
  538MOL0     H72618   0.145  10.779   6.357 -0.4734 -1.2769 -0.2976
  538MOL0     H72619   0.227  10.595   6.233 -0.4720  3.2931  3.2890
  538MOL0     H72620   0.117  10.347   6.094 -0.7676 -1.8279  0.1071
  538MOL0     H72621  -0.000  10.405   5.961  1.5444  0.8463 -3.4316
  538MOL0     H72622   0.279  10.306   5.893  0.2259 -4.4060 -4.6301
  538MOL0     H72623   0.144  10.354   5.785  0.7935  0.0113 -0.0387
  538MOL0     H72624   0.180  10.112   5.805 -2.0850  0.1147 -1.3395
  538MOL0     H72625   0.012  10.162   5.826 -1.0497  2.3847  1.5380
  538MOL0     H72626  -0.014  10.101   6.037  0.0224 -0.7328  0.3608
  538MOL0     H72627   0.159  10.132   6.075  1.9882  0.1116 -2.0007
  538MOL0     H72628   0.112   9.705   5.973 -0.4338  1.1661 -0.7701
  538MOL0     H72629  -0.013  10.709   5.891  1.4699 -2.0335 -0.3468
  538MOL0     H72630  -0.092  10.885   6.012 -0.1052 -1.1222 -0.2243
  539MOL0     O72631   2.145   0.271   4.643 -0.5604  0.0017 -0.4548
  539MOL0     C72632   2.069   0.192   4.686  0.0603  0.0600  0.3180
  539MOL0     O72633   2.092   0.060   4.689 -0.6456  0.0044  0.4390
  539MOL0     C72634   2.204  -0.000   4.624  0.3294 -0.4678 -0.0004
  539MOL0     C72635   2.273  -0.084   4.707 -0.0479 -0.4062 -0.3537
  539MOL0     C72636   2.381  -0.149   4.642 -0.1731 -0.2358  0.0823
  539MOL0     C72637   2.429  -0.116   4.513 -0.3557 -1.3522  0.3142
  539MOL0     O72638   2.555  -0.145   4.452  0.3365 -0.5198  0.4346
  539MOL0     C72639   2.646  -0.228   4.521 -0.7889 -0.6355 -1.0266
  539MOL0     C72640   2.757  -0.276   4.436  0.0635  0.1737  0.5497
  539MOL0     C72641   2.818  -0.150   4.371  0.1701 -0.2380  0.2506
  539MOL0     C72642   2.949  -0.179   4.304  1.1217 -0.9869  0.1849
  539MOL0     C72643   3.024  -0.054   4.257  0.2309 -0.0930 -0.2583
  539MOL0     C72644   3.168  -0.088   4.198 -0.0353 -0.1799 -0.4622
  539MOL0     C72645   3.210  -0.001   4.082 -0.2409 -0.2267  0.2891
  539MOL0     C72646   3.133  -0.004   3.954  0.5456 -0.2293 -0.4100
  539MOL0     N72647   3.177   0.108   3.876  0.3049  0.2504  0.3839
  539MOL0     C72648   3.281   0.115   3.785  0.4719  0.1999 -0.1463
  539MOL0     C72649   3.292   0.250   3.755  0.2588  1.0571  0.7009
  539MOL0     C72650   3.387   0.319   3.666 -0.2685  0.0144  0.2524
  539MOL0     C72651   3.322   0.431   3.580 -0.7787 -0.1106 -0.0147
  539MOL0     C72652   3.361   0.418   3.431 -0.4403 -0.9843 -0.6068
  539MOL0     C72653   3.287   0.536   3.359  0.1416 -0.6268 -0.9665
  539MOL0     O72654   3.363   0.655   3.372  0.2844  0.2662  0.6409
  539MOL0     C72655   3.314   0.762   3.304 -0.4674 -0.0546 -0.9241
  539MOL0     C72656   3.394   0.882   3.314  0.6880  0.3327 -0.3551
  539MOL0     C72657   3.342   1.006   3.282 -0.5244 -0.6176 -0.3580
  539MOL0     C72658   3.431   1.123   3.301  0.2623 -0.5802 -0.1782
  539MOL0     C72659   3.209   1.013   3.221 -0.5848 -0.6186 -0.0399
  539MOL0     C72660   3.160   1.139   3.165  0.1935  0.7947 -0.5429
  539MOL0     O72661   3.255   1.230   3.125  0.2698 -0.3254  0.7510
  539MOL0     C72662   3.201   1.350   3.087 -0.1421 -0.3070 -0.4797
  539MOL0     C72663   3.266   1.471   3.132  0.4943 -0.4308 -0.3760
  539MOL0     C72664   3.224   1.596   3.089  0.0614  1.2292 -1.0829
  539MOL0     C72665   3.116   1.602   2.986 -0.9214  1.4347 -1.4400
  539MOL0     O72666   3.072   1.712   2.945  0.4177 -1.0164 -0.4060
  539MOL0     C72667   3.057   1.818   3.043 -0.9699 -1.2159  0.8486
  539MOL0     C72668   2.969   1.934   2.985 -0.3282  0.3880 -0.0554
  539MOL0     C72669   2.971   2.055   3.080 -0.2916 -0.6081  0.0421
  539MOL0     C72670   2.887   2.165   3.013 -0.1866 -0.4211 -0.2913
  539MOL0     C72671   2.828   2.283   3.101 -0.1375  0.3981 -0.6635
  539MOL0     C72672   2.938   2.360   3.179 -0.4023 -0.6797  0.1804
  539MOL0     C72673   2.879   2.479   3.262 -0.0907  0.3729 -0.8115
  539MOL0     C72674   2.989   2.539   3.353  0.2293  0.4851 -0.7897
  539MOL0    Cl72675   3.137   2.596   3.272 -0.0866 -0.0531 -0.1898
  539MOL0     C72676   3.076   1.482   2.924 -0.4350  0.4184  0.3924
  539MOL0     C72677   3.122   1.364   2.978 -0.5829  0.2023  1.2554
  539MOL0     O72678   3.036   1.145   3.175  0.3128  0.4719 -0.6692
  539MOL0     C72679   3.130   0.896   3.214 -0.8164  0.1818  0.4256
  539MOL0     C72680   3.188   0.768   3.250 -0.8226  0.0531 -0.5872
  539MOL0     N72681   3.205   0.321   3.834  0.6718 -0.3316 -0.5046
  539MOL0     N72682   3.143   0.237   3.906  0.4428  0.4971  0.1698
  539MOL0     C72683   2.354  -0.018   4.446  0.2118 -0.3257  0.8440
  539MOL0     C72684   2.242   0.044   4.500  0.3484  0.1657 -0.5413
  539MOL0     C72685   1.931   0.237   4.714 -0.5893 -0.2643 -0.2486
  539MOL0     C72686   1.881   0.359   4.671 -0.1014 -0.2844 -0.8514
  539MOL0     C72687   1.746   0.403   4.718  0.3099  0.0327 -0.5462
  539MOL0     C72688   1.670   0.319   4.803  0.6108 -0.5549 -0.2848
  539MOL0     O72689   1.547   0.356   4.851  0.4202 -0.4472 -0.0672
  539MOL0     C72690   1.444   0.323   4.749 -0.9630 -0.5360  0.1583
  539MOL0     C72691   1.436   0.418   4.620 -0.9095 -0.2579 -0.2695
  539MOL0     C72692   1.403   0.570   4.651 -0.6102 -0.5229  0.1877
  539MOL0     C72693   1.259   0.582   4.692 -0.3233 -0.3290 -0.1711
  539MOL0     C72694   1.206   0.726   4.720 -0.1447  0.2816  0.3582
  539MOL0     C72695   1.177   0.846   4.722 -0.6780  0.4395 -0.1036
  539MOL0     C72696   1.723   0.195   4.828 -0.4039  0.8021 -0.6127
  539MOL0     C72697   1.853   0.150   4.788 -0.0148  0.9695 -1.5757
  539MOL0     H72698   2.261  -0.099   4.814  2.1248 -1.0722 -0.1417
  539MOL0     H72699   2.433  -0.221   4.705  4.3469 -0.0363 -2.9333
  539MOL0     H72700   2.683  -0.162   4.600 -2.7452  0.8477 -1.2921
  539MOL0     H72701   2.587  -0.310   4.564  1.0420 -1.0759  0.8477
  539MOL0     H72702   2.823  -0.331   4.504  0.0025  1.0770  1.3631
  539MOL0     H72703   2.728  -0.346   4.356 -1.2637 -3.2950  3.7425
  539MOL0     H72704   2.756  -0.099   4.296 -1.6208 -2.5852 -0.0042
  539MOL0     H72705   2.836  -0.091   4.461  0.2688  2.1283 -1.2411
  539MOL0     H72706   3.010  -0.235   4.375  0.5801 -1.2363  0.4657
  539MOL0     H72707   2.937  -0.253   4.225  1.7296 -1.7142  0.7593
  539MOL0     H72708   2.972   0.003   4.180  3.3759  1.3207 -1.5384
  539MOL0     H72709   3.047   0.019   4.335  0.5819  2.0757 -2.2538
  539MOL0     H72710   3.239  -0.084   4.282  0.8233 -3.1920 -0.9206
  539MOL0     H72711   3.168  -0.196   4.181 -2.7236 -0.3293  0.0413
  539MOL0     H72712   3.218   0.099   4.126 -0.2470  0.3652 -0.9937
  539MOL0     H72713   3.315  -0.020   4.057 -0.6241  1.0604 -2.7661
  539MOL0     H72714   3.029   0.022   3.976  1.3692  1.6756  1.6001
  539MOL0     H72715   3.135  -0.098   3.899 -0.3892  0.0851 -1.0119
  539MOL0     H72716   3.352   0.040   3.751 -0.5216  0.8842 -4.2803
  539MOL0     H72717   3.462   0.372   3.726 -1.6062 -1.0918  3.0660
  539MOL0     H72718   3.436   0.254   3.594 -1.4974  1.1655 -1.7213
  539MOL0     H72719   3.342   0.530   3.622 -3.2333  0.5603 -0.2868
  539MOL0     H72720   3.216   0.405   3.575 -1.0494  0.5985  1.3337
  539MOL0     H72721   3.329   0.329   3.376  1.6149 -0.6082 -2.5749
  539MOL0     H72722   3.469   0.433   3.425 -0.1900 -1.2215  2.2473
  539MOL0     H72723   3.197   0.566   3.413  0.4209 -2.3647  0.5688
  539MOL0     H72724   3.270   0.505   3.255 -3.5461 -1.6744 -0.1819
  539MOL0     H72725   3.480   0.874   3.379 -0.5086  0.2258  1.2832
  539MOL0     H72726   3.502   1.101   3.381  0.0843  2.5955  1.0194
  539MOL0     H72727   3.476   1.150   3.205  0.1251 -0.5920 -0.2450
  539MOL0     H72728   3.376   1.210   3.338 -2.1379 -0.8618 -2.7333
  539MOL0     H72729   3.347   1.454   3.203 -0.4729  0.5359  1.0220
  539MOL0     H72730   3.255   1.683   3.146  0.8675  0.9535 -1.0928
  539MOL0     H72731   3.011   1.772   3.131  0.5866 -0.4245  2.1338
  539MOL0     H72732   3.150   1.862   3.082  0.6999 -4.2097  0.5177
  539MOL0     H72733   3.020   1.950   2.890 -1.1688 -3.6382 -1.3707
  539MOL0     H72734   2.871   1.896   2.956 -0.3947 -0.4029  1.1507
  539MOL0     H72735   3.073   2.092   3.095 -0.9353  1.8267 -1.1154
  539MOL0     H72736   2.933   2.028   3.179  1.8806 -2.3599  0.4849
  539MOL0     H72737   2.948   2.210   2.934  1.3264  0.0171  1.0677
  539MOL0     H72738   2.799   2.117   2.970 -1.3978 -0.9600  2.5404
  539MOL0     H72739   2.757   2.243   3.175  0.3462 -1.9440 -1.3883
  539MOL0     H72740   2.764   2.337   3.031  1.7300  3.4596 -0.2077
  539MOL0     H72741   2.985   2.289   3.248 -1.9227 -0.9789  0.9467
  539MOL0     H72742   3.008   2.409   3.110  1.6542  0.1261  2.6658
  539MOL0     H72743   2.795   2.445   3.323 -1.2136 -0.0681 -2.5364
  539MOL0     H72744   2.847   2.562   3.199  2.0054  2.2036  0.3641
  539MOL0     H72745   3.008   2.470   3.436  1.0417 -0.8685 -2.0792
  539MOL0     H72746   2.955   2.628   3.409 -1.2308  0.7175 -1.9909
  539MOL0     H72747   3.011   1.477   2.838  2.8555 -2.2913 -2.2341
  539MOL0     H72748   3.099   1.269   2.931  1.0600 -0.2271  1.2456
  539MOL0     H72749   3.029   0.896   3.173 -0.7264  2.0041  0.1135
  539MOL0     H72750   3.124   0.681   3.260  0.2415 -0.5540  1.7171
  539MOL0     H72751   2.395   0.005   4.348 -0.0621 -1.7579  0.3617
  539MOL0     H72752   2.178   0.109   4.441  0.7748 -1.9833 -3.6413
  539MOL0     H72753   1.943   0.421   4.607 -1.5539 -2.2469 -4.5139
  539MOL0     H72754   1.704   0.502   4.703 -1.2024 -0.0633  2.2969
  539MOL0     H72755   1.451   0.217   4.724  2.6710 -1.0142  2.4466
  539MOL0     H72756   1.343   0.327   4.791 -1.4728 -1.1175 -0.9959
  539MOL0     H72757   1.350   0.384   4.561 -1.0104  2.9737 -2.2201
  539MOL0     H72758   1.527   0.402   4.562  0.1867  0.5991  1.1665
  539MOL0     H72759   1.419   0.633   4.563 -2.0499 -1.2926 -0.6596
  539MOL0     H72760   1.472   0.611   4.726 -0.6305  2.3912 -1.2654
  539MOL0     H72761   1.238   0.517   4.778  2.2379 -2.7777 -1.2586
  539MOL0     H72762   1.191   0.556   4.611 -0.0603 -1.0441 -0.1691
  539MOL0     H72763   1.153   0.950   4.730  2.4614  1.2636 -0.1026
  539MOL0     H72764   1.660   0.127   4.885  0.5556  1.2139  1.0082
  539MOL0     H72765   1.882   0.049   4.816 -0.9619  1.5930  2.1828
  540MOL0     O72766   8.141   4.487   8.797 -0.5733 -0.3339  0.1332
  540MOL0     C72767   8.201   4.595   8.810 -0.5370 -0.2055  0.8366
  540MOL0     O72768   8.203   4.697   8.723 -0.5075  0.1891  0.0119
  540MOL0     C72769   8.110   4.714   8.628  0.2137 -0.1583 -0.3589
  540MOL0     C72770   8.117   4.836   8.560  0.1396 -0.1498 -0.3034
  540MOL0     C72771   8.037   4.880   8.466  0.7143  0.6548  0.7763
  540MOL0     C72772   7.942   4.791   8.414  1.0081  0.8272  0.7303
  540MOL0     O72773   7.865   4.829   8.301  0.8934  0.3388 -0.2385
  540MOL0     C72774   7.915   4.927   8.209  0.6816  0.4969  0.7390
  540MOL0     C72775   7.817   4.925   8.083  0.4741 -0.0130  0.9493
  540MOL0     C72776   7.763   4.787   8.053  0.0052 -0.5025 -0.0036
  540MOL0     C72777   7.677   4.798   7.925  0.1000 -0.8327 -0.8845
  540MOL0     C72778   7.650   4.663   7.860  0.3728 -0.7014  0.2956
  540MOL0     C72779   7.559   4.573   7.938  0.3142 -0.2478 -0.9984
  540MOL0     C72780   7.538   4.432   7.886 -0.3360 -0.5466  0.1214
  540MOL0     C72781   7.597   4.330   7.984  0.4708 -0.0805  0.2678
  540MOL0     N72782   7.740   4.344   7.994 -0.1051 -0.1720  0.4277
  540MOL0     C72783   7.799   4.387   8.104 -0.0416 -0.8175 -1.2127
  540MOL0     C72784   7.932   4.348   8.083 -0.1279 -0.0528 -0.3068
  540MOL0     C72785   8.046   4.331   8.175  0.6431  0.9751 -0.9300
  540MOL0     C72786   8.105   4.473   8.216  0.2329  0.8716  0.3170
  540MOL0     C72787   8.257   4.487   8.225  0.0560  0.0791 -0.9477
  540MOL0     C72788   8.313   4.451   8.365  0.3079 -0.3895 -0.4922
  540MOL0     O72789   8.288   4.309   8.399  0.7144 -0.1384  0.3032
  540MOL0     C72790   8.330   4.269   8.522  0.3200 -0.1333  0.1674
  540MOL0     C72791   8.316   4.131   8.548  0.5898  0.0148 -0.2934
  540MOL0     C72792   8.350   4.071   8.675 -0.3264  0.2163 -0.7359
  540MOL0     C72793   8.331   3.916   8.684 -0.2816 -0.4239  0.8630
  540MOL0     C72794   8.411   4.152   8.779  0.2645  0.0227  0.5565
  540MOL0     C72795   8.444   4.102   8.906 -1.0042  0.0814  0.6857
  540MOL0     O72796   8.498   3.983   8.906  0.1036 -0.5526 -0.4435
  540MOL0     C72797   8.480   3.907   9.023 -0.1192  0.4156  0.0473
  540MOL0     C72798   8.354   3.881   9.086  0.6766 -0.1219  0.9379
  540MOL0     C72799   8.343   3.780   9.181  0.9793  0.7443 -0.4663
  540MOL0     C72800   8.467   3.720   9.228  0.2222  0.7242 -0.5765
  540MOL0     O72801   8.485   3.637   9.335  0.8317 -0.1383 -0.4827
  540MOL0     C72802   8.361   3.627   9.419 -0.2965  0.0621  0.4003
  540MOL0     C72803   8.388   3.517   9.525 -0.5485  0.3824 -0.6714
  540MOL0     C72804   8.253   3.485   9.588  1.2556 -0.0356 -0.4819
  540MOL0     C72805   8.214   3.591   9.694  0.2291 -0.2075 -0.5462
  540MOL0     C72806   8.095   3.543   9.779 -0.0791 -0.9248  0.4065
  540MOL0     C72807   8.017   3.651   9.863 -0.5649  0.0615 -0.0894
  540MOL0     C72808   7.888   3.593   9.917  0.2615 -0.5624 -0.6858
  540MOL0     C72809   7.900   3.466   9.987  0.1901 -0.3674  0.9319
  540MOL0    Cl72810   7.749   3.411  10.072 -0.4733  0.1478  0.1077
  540MOL0     C72811   8.589   3.751   9.161  0.4089  0.0190 -0.4767
  540MOL0     C72812   8.595   3.849   9.072 -0.2469  0.1837  0.0194
  540MOL0     O72813   8.432   4.172   9.005 -0.1759 -0.5009 -0.4726
  540MOL0     C72814   8.433   4.283   8.741 -0.1571 -1.0893 -0.2327
  540MOL0     C72815   8.384   4.351   8.625 -0.2831 -1.2349 -0.7197
  540MOL0     N72816   7.944   4.307   7.956 -1.2982 -0.3528  0.3945
  540MOL0     N72817   7.832   4.309   7.897 -0.4704 -0.1775 -0.3212
  540MOL0     C72818   7.920   4.671   8.490 -0.4128  0.5940 -1.0632
  540MOL0     C72819   8.005   4.631   8.593  0.0576 -0.1331  0.0864
  540MOL0     C72820   8.283   4.611   8.929 -0.2753 -0.0827 -0.8019
  540MOL0     C72821   8.303   4.507   9.024 -0.8346  0.6814  0.9004
  540MOL0     C72822   8.379   4.529   9.139 -0.3432  1.0064  0.1865
  540MOL0     C72823   8.444   4.650   9.166  0.4439  0.0775  1.2484
  540MOL0     O72824   8.523   4.650   9.275 -0.4586 -0.1373  0.2361
  540MOL0     C72825   8.458   4.672   9.395 -0.0203 -0.2054 -1.3965
  540MOL0     C72826   8.477   4.555   9.489 -0.4475  0.9098  0.6475
  540MOL0     C72827   8.623   4.523   9.507  0.0743  0.3697 -0.7501
  540MOL0     C72828   8.630   4.415   9.612 -1.5263 -0.1018 -0.0874
  540MOL0     C72829   8.696   4.457   9.743  0.3953  0.5623 -0.6516
  540MOL0     C72830   8.746   4.496   9.848  0.3393  0.2370  0.2859
  540MOL0     C72831   8.433   4.751   9.067 -0.4470  0.1612  0.0129
  540MOL0     C72832   8.361   4.726   8.951 -0.2238  0.1494 -0.1857
  540MOL0     H72833   8.209   4.879   8.600  0.3396 -1.1561  0.3875
  540MOL0     H72834   8.053   4.977   8.420 -1.6675  0.2586 -1.0671
  540MOL0     H72835   7.905   5.025   8.255 -3.8321 -1.2445  4.2654
  540MOL0     H72836   8.016   4.898   8.178  1.2580 -1.1314  3.7462
  540MOL0     H72837   7.738   5.001   8.087  0.7588  0.3154  0.4140
  540MOL0     H72838   7.874   4.962   7.997 -0.7629  1.0779  0.5530
  540MOL0     H72839   7.849   4.721   8.043  0.4391 -0.2743  1.8654
  540MOL0     H72840   7.696   4.738   8.124 -1.2195 -1.1116 -1.5127
  540MOL0     H72841   7.582   4.844   7.953 -0.8364 -1.5859 -2.6814
  540MOL0     H72842   7.724   4.863   7.850  0.3039  1.1746  0.8987
  540MOL0     H72843   7.619   4.665   7.755  4.2359 -0.4601 -0.9832
  540MOL0     H72844   7.743   4.605   7.856  0.3405 -0.8936  1.7041
  540MOL0     H72845   7.585   4.565   8.044 -6.6773  0.2272  1.2359
  540MOL0     H72846   7.469   4.634   7.940  1.9835  2.3579  0.1083
  540MOL0     H72847   7.434   4.399   7.876  1.1397 -5.8050 -0.7077
  540MOL0     H72848   7.575   4.426   7.784 -0.1730  0.7719  0.0879
  540MOL0     H72849   7.583   4.231   7.940  3.1747 -2.4973  4.1753
  540MOL0     H72850   7.554   4.320   8.084  2.0329  0.9930  1.0851
  540MOL0     H72851   7.758   4.413   8.201  4.1260  2.2283  0.0064
  540MOL0     H72852   8.003   4.289   8.266  1.3084  1.4357 -0.3881
  540MOL0     H72853   8.115   4.257   8.135 -1.7654 -1.2792 -1.1458
  540MOL0     H72854   8.032   4.511   8.289  0.5777  2.0017  0.0943
  540MOL0     H72855   8.102   4.540   8.129  1.1493  0.3012 -0.1624
  540MOL0     H72856   8.278   4.594   8.209  1.8745  0.5204  3.1013
  540MOL0     H72857   8.306   4.419   8.156  0.6279 -0.3180 -0.1538
  540MOL0     H72858   8.254   4.509   8.437 -1.1742  1.6510 -3.1556
  540MOL0     H72859   8.418   4.478   8.383 -0.3178  0.2345  2.7912
  540MOL0     H72860   8.288   4.066   8.466 -0.0537 -2.8660  2.0091
  540MOL0     H72861   8.428   3.869   8.671  0.7124  1.8171 -0.5160
  540MOL0     H72862   8.280   3.882   8.775 -0.5080 -0.2218  0.8134
  540MOL0     H72863   8.267   3.888   8.600  0.0699 -0.0048  0.4511
  540MOL0     H72864   8.264   3.933   9.055 -0.7580 -2.2346  1.3477
  540MOL0     H72865   8.245   3.766   9.226  0.7042 -1.2442 -1.5525
  540MOL0     H72866   8.341   3.723   9.466 -0.3326  0.4594 -0.4182
  540MOL0     H72867   8.289   3.578   9.353  1.2149 -4.3377  1.6732
  540MOL0     H72868   8.438   3.432   9.478 -0.5017 -0.7879  1.4073
  540MOL0     H72869   8.461   3.557   9.596 -3.5101  1.4807  1.9709
  540MOL0     H72870   8.250   3.386   9.635  0.7096 -1.0429 -2.5301
  540MOL0     H72871   8.166   3.475   9.522 -1.5004 -0.1581  2.8886
  540MOL0     H72872   8.298   3.604   9.762  1.3891  1.7015 -2.2291
  540MOL0     H72873   8.186   3.685   9.645  0.7905  0.0017 -0.4770
  540MOL0     H72874   8.130   3.471   9.853  5.7404 -0.2262 -1.1483
  540MOL0     H72875   8.026   3.506   9.703  2.4808  1.3831 -3.3788
  540MOL0     H72876   8.070   3.704   9.942 -2.1517  1.4951  0.0679
  540MOL0     H72877   7.977   3.728   9.797 -1.6404  0.9254  1.4798
  540MOL0     H72878   7.809   3.589   9.842  0.4706  1.1139 -1.0333
  540MOL0     H72879   7.844   3.660   9.991  0.2846 -1.2729 -0.0110
  540MOL0     H72880   7.986   3.469  10.054  0.8538 -1.1564  0.1412
  540MOL0     H72881   7.924   3.385   9.918  2.5233  1.5401 -0.6365
  540MOL0     H72882   8.680   3.701   9.191  1.9514  1.4956 -2.4229
  540MOL0     H72883   8.691   3.888   9.042 -0.6443  2.1823  1.1899
  540MOL0     H72884   8.468   4.353   8.816 -0.0866 -1.2409 -0.1216
  540MOL0     H72885   8.404   4.456   8.609 -1.2981 -0.9892 -0.4235
  540MOL0     H72886   7.838   4.603   8.469  0.8527 -0.4335 -2.8742
  540MOL0     H72887   7.972   4.538   8.636 -2.0980 -0.3443 -1.8225
  540MOL0     H72888   8.245   4.416   9.013  1.0222 -0.2710 -2.5363
  540MOL0     H72889   8.398   4.446   9.206  0.6040 -0.3138 -1.6016
  540MOL0     H72890   8.510   4.757   9.441  0.1763  1.3659 -4.3146
  540MOL0     H72891   8.355   4.709   9.382 -0.4863  0.3949  2.5932
  540MOL0     H72892   8.430   4.467   9.444 -3.6446  2.4833  0.5905
  540MOL0     H72893   8.436   4.565   9.590 -0.7420  1.8238  0.4492
  540MOL0     H72894   8.676   4.610   9.546  0.9781 -0.4267 -0.1704
  540MOL0     H72895   8.670   4.489   9.414 -0.0230 -0.4671 -0.5081
  540MOL0     H72896   8.698   4.345   9.563  0.2015  1.7445 -0.4757
  540MOL0     H72897   8.533   4.367   9.624 -0.8326 -1.6397 -0.3748
  540MOL0     H72898   8.784   4.536   9.940 -1.4413  0.5548  0.9077
  540MOL0     H72899   8.487   4.845   9.064 -3.8188  2.2289 -0.8692
  540MOL0     H72900   8.373   4.801   8.874 -0.2720  0.6054  0.2433
  541MOL0     O72901   8.130   7.793   7.053 -0.0609 -0.7265 -0.7424
  541MOL0     C72902   8.036   7.758   6.989  0.7300 -1.1411 -0.4630
  541MOL0     O72903   7.989   7.816   6.873  0.4607  0.7938 -0.2254
  541MOL0     C72904   8.062   7.899   6.804  0.0875  0.1443 -0.8443
  541MOL0     C72905   8.060   7.888   6.669 -0.4934 -0.6694 -0.3442
  541MOL0     C72906   8.141   7.981   6.592  0.0863  0.9919  0.0667
  541MOL0     C72907   8.210   8.085   6.656 -0.1235  0.8071  0.4507
  541MOL0     O72908   8.286   8.159   6.589 -0.2003 -0.3441 -0.0710
  541MOL0     C72909   8.430   8.143   6.626  0.9046 -0.6175 -0.1181
  541MOL0     C72910   8.508   8.097   6.492 -1.2176  0.2148 -0.3352
  541MOL0     C72911   8.539   8.206   6.390 -0.1511  0.4201  0.0317
  541MOL0     C72912   8.623   8.131   6.284  0.2333  0.2645  1.1161
  541MOL0     C72913   8.624   8.221   6.159 -0.3120  1.2698 -0.5230
  541MOL0     C72914   8.702   8.353   6.186  0.3326 -0.2858 -0.4928
  541MOL0     C72915   8.717   8.436   6.060 -0.2112 -1.2376  0.2689
  541MOL0     C72916   8.596   8.491   5.989  0.5597  0.0840  0.2969
  541MOL0     N72917   8.620   8.557   5.862 -0.4343  0.4755  0.1209
  541MOL0     C72918   8.597   8.505   5.737 -0.3908  1.0232 -1.6309
  541MOL0     C72919   8.688   8.569   5.658 -0.0808  0.7653  0.4239
  541MOL0     C72920   8.719   8.544   5.518  0.5064  0.4394  0.0690
  541MOL0     C72921   8.606   8.578   5.434 -0.0639  0.1965  0.5529
  541MOL0     C72922   8.612   8.527   5.285 -0.2558 -1.0475  1.2191
  541MOL0     C72923   8.725   8.597   5.209  0.1438  0.0473  0.5278
  541MOL0     O72924   8.693   8.576   5.066 -0.9263  0.4728  0.2891
  541MOL0     C72925   8.798   8.614   4.983  0.0668 -0.2792  0.5240
  541MOL0     C72926   8.781   8.724   4.900 -0.2092 -0.2272  0.7725
  541MOL0     C72927   8.886   8.774   4.819  0.2440 -0.3922 -0.2854
  541MOL0     C72928   8.888   8.900   4.727  0.0306 -0.1355 -0.0923
  541MOL0     C72929   9.000   8.692   4.808 -0.5526 -0.1048 -0.4033
  541MOL0     C72930   9.129   8.729   4.735  1.1661  0.2090  0.5228
  541MOL0     O72931   9.190   8.639   4.660  0.4142 -0.4008  0.6662
  541MOL0     C72932   9.300   8.668   4.580 -0.6217 -0.1798 -1.3671
  541MOL0     C72933   9.288   8.727   4.460 -0.5462  0.6455  0.1506
  541MOL0     C72934   9.395   8.756   4.379  0.5927  0.3454  0.2507
  541MOL0     C72935   9.529   8.728   4.422 -0.5454 -0.1245 -0.6704
  541MOL0     O72936   9.640   8.752   4.334 -0.4063  0.4695 -0.6333
  541MOL0     C72937   9.778   8.730   4.378  0.9173 -0.1269 -0.5032
  541MOL0     C72938   9.804   8.846   4.471  0.3530 -0.1782 -0.3278
  541MOL0     C72939   9.944   8.903   4.474 -0.3637  0.5817 -0.4773
  541MOL0     C72940   9.960   8.988   4.602 -0.4192  0.4845 -0.1971
  541MOL0     C72941  10.086   9.078   4.629 -0.2237  0.3542  0.5116
  541MOL0     C72942  10.222   9.006   4.614  0.8139 -0.4046 -0.6147
  541MOL0     C72943  10.263   8.909   4.730 -0.1093 -0.3611 -0.2631
  541MOL0     C72944  10.270   8.958   4.877  0.1641 -1.4705  0.4623
  541MOL0    Cl72945  10.378   9.100   4.887  0.4400  0.4923  1.0934
  541MOL0     C72946   9.548   8.669   4.548  0.3375  0.4468 -0.2081
  541MOL0     C72947   9.433   8.646   4.630 -0.6613  0.3792  0.3914
  541MOL0     O72948   9.171   8.845   4.745 -1.0678  0.5677 -0.4353
  541MOL0     C72949   9.007   8.568   4.883 -0.7630 -0.1430 -0.3539
  541MOL0     C72950   8.911   8.536   4.978  0.6595  0.2396  0.1269
  541MOL0     N72951   8.758   8.653   5.744  0.2639 -0.5203  0.3925
  541MOL0     N72952   8.716   8.651   5.865 -0.3344  1.0176 -0.2412
  541MOL0     C72953   8.183   8.111   6.786 -0.1584 -0.7088 -0.1850
  541MOL0     C72954   8.110   8.020   6.863  0.0459 -0.5556 -0.4240
  541MOL0     C72955   7.952   7.657   7.045  0.5729 -0.7282  0.3188
  541MOL0     C72956   7.994   7.596   7.166  0.2896 -0.4418 -0.0540
  541MOL0     C72957   7.915   7.490   7.211 -0.6148 -0.5739  0.2520
  541MOL0     C72958   7.808   7.439   7.138  0.4833  1.1972 -0.2378
  541MOL0     O72959   7.759   7.321   7.189  0.2547  0.7153 -0.1287
  541MOL0     C72960   7.614   7.300   7.168 -0.7398  0.6402 -0.4465
  541MOL0     C72961   7.558   7.199   7.271 -0.1180  0.2243 -0.6111
  541MOL0     C72962   7.615   7.054   7.267  0.2941 -0.3024 -0.3411
  541MOL0     C72963   7.568   6.959   7.384 -0.6942  0.2429  0.3016
  541MOL0     C72964   7.425   6.965   7.403 -0.6748  0.1859  0.2805
  541MOL0     C72965   7.312   6.960   7.436 -0.6847  0.8289 -0.2830
  541MOL0     C72966   7.762   7.506   7.021  0.0525 -0.9624 -0.1230
  541MOL0     C72967   7.834   7.618   6.984  1.4052  0.0784  0.0996
  541MOL0     H72968   8.000   7.804   6.636 -1.9868  0.0593  0.4150
  541MOL0     H72969   8.151   7.978   6.484  0.7167  1.6533  0.0995
  541MOL0     H72970   8.464   8.241   6.658  0.8738 -1.4904  2.9170
  541MOL0     H72971   8.447   8.066   6.703 -0.6458 -2.4000 -1.4478
  541MOL0     H72972   8.610   8.067   6.519 -0.4534  0.2464 -2.9084
  541MOL0     H72973   8.455   8.017   6.440 -1.0840  0.3600 -0.6975
  541MOL0     H72974   8.451   8.255   6.347  0.3567  0.6169 -0.7922
  541MOL0     H72975   8.598   8.281   6.443 -2.7209  2.1775  0.5848
  541MOL0     H72976   8.719   8.101   6.329 -0.7552 -1.7063  2.0497
  541MOL0     H72977   8.565   8.041   6.260  1.7507 -0.9168  1.6596
  541MOL0     H72978   8.679   8.165   6.082 -1.2095 -1.0834  0.4408
  541MOL0     H72979   8.524   8.223   6.116 -0.6277  3.8985  0.1978
  541MOL0     H72980   8.652   8.402   6.270  1.9369  0.0439  0.3224
  541MOL0     H72981   8.805   8.342   6.222  0.3504  0.2187 -0.3709
  541MOL0     H72982   8.776   8.525   6.081 -1.2021  0.1538 -2.2971
  541MOL0     H72983   8.775   8.391   5.979 -1.4187  1.2200 -2.1168
  541MOL0     H72984   8.540   8.564   6.047 -1.2339  1.1765 -2.5813
  541MOL0     H72985   8.538   8.399   5.973  2.5093 -0.9164 -1.6175
  541MOL0     H72986   8.542   8.416   5.710  2.8833 -1.3434 -1.0500
  541MOL0     H72987   8.817   8.589   5.500  0.0142  0.8078 -1.8520
  541MOL0     H72988   8.742   8.438   5.506 -1.0599  0.2432 -1.4761
  541MOL0     H72989   8.585   8.685   5.438 -0.0582  0.3544 -2.1048
  541MOL0     H72990   8.515   8.532   5.474  0.1372 -1.1576 -0.4760
  541MOL0     H72991   8.518   8.547   5.234 -0.0882  1.7632  1.8901
  541MOL0     H72992   8.628   8.418   5.287  0.2896 -1.1384 -2.1498
  541MOL0     H72993   8.821   8.561   5.246  0.4039 -1.5179 -1.5120
  541MOL0     H72994   8.709   8.705   5.222 -3.7777 -0.2674 -0.3670
  541MOL0     H72995   8.687   8.777   4.906  0.9448  2.2243 -1.3519
  541MOL0     H72996   8.905   8.878   4.621  1.3830  0.0316  0.0776
  541MOL0     H72997   8.792   8.951   4.736 -1.3180 -2.5114 -0.0322
  541MOL0     H72998   8.957   8.975   4.767 -2.0106  2.4157 -1.0529
  541MOL0     H72999   9.188   8.737   4.418 -0.1581 -0.3628 -1.0818
  541MOL0     H73000   9.373   8.800   4.282  0.4372 -0.8914 -0.2867
  541MOL0     H73001   9.809   8.640   4.432  0.1686 -2.2177 -3.3686
  541MOL0     H73002   9.840   8.744   4.289  2.1619 -4.3748 -0.5478
  541MOL0     H73003   9.734   8.926   4.449  1.3185  0.2954 -1.8176
  541MOL0     H73004   9.790   8.817   4.576  3.0598 -0.6009 -0.0043
  541MOL0     H73005   9.956   8.966   4.386 -0.6829  0.6606 -0.4651
  541MOL0     H73006  10.005   8.812   4.476 -0.3317  0.5216 -2.6639
  541MOL0     H73007   9.865   9.042   4.611 -0.9714 -0.1490 -1.8122
  541MOL0     H73008   9.960   8.919   4.686 -1.0293  1.3106  0.5054
  541MOL0     H73009  10.075   9.124   4.728  1.2663  1.9214 -0.0203
  541MOL0     H73010  10.086   9.150   4.547 -1.1597 -0.2726 -0.0594
  541MOL0     H73011  10.219   8.956   4.517 -0.6736 -0.2705 -0.6495
  541MOL0     H73012  10.296   9.088   4.614  1.1818 -0.7319 -0.5447
  541MOL0     H73013  10.365   8.873   4.715 -0.2801 -2.6352  3.1093
  541MOL0     H73014  10.204   8.818   4.727  0.2140 -0.5596 -0.8002
  541MOL0     H73015  10.304   8.875   4.939 -0.3570 -0.8253  1.6329
  541MOL0     H73016  10.172   8.988   4.916  0.4852  3.7965 -1.9602
  541MOL0     H73017   9.645   8.635   4.583 -0.2357 -3.0779 -1.6450
  541MOL0     H73018   9.455   8.599   4.725  1.4181 -2.7031 -1.4499
  541MOL0     H73019   9.095   8.504   4.883 -0.6670 -0.4026  4.4777
  541MOL0     H73020   8.921   8.444   5.034 -0.8316  0.4321  0.7572
  541MOL0     H73021   8.214   8.207   6.824  1.1434 -0.5780 -1.4681
  541MOL0     H73022   8.106   8.048   6.968  3.7510  0.6769 -0.4697
  541MOL0     H73023   8.072   7.635   7.231  1.3956 -1.7886 -0.5214
  541MOL0     H73024   7.940   7.437   7.302  0.5904 -0.9924 -0.2917
  541MOL0     H73025   7.562   7.395   7.185  0.5249  0.9424  2.1723
  541MOL0     H73026   7.589   7.279   7.064  1.2045  1.7931 -1.2046
  541MOL0     H73027   7.452   7.187   7.247  0.4902 -1.0239 -2.9608
  541MOL0     H73028   7.575   7.241   7.370 -1.3749 -0.6003 -0.0335
  541MOL0     H73029   7.722   7.079   7.269  0.2302 -0.0694  0.0858
  541MOL0     H73030   7.595   7.015   7.167 -0.2286  2.8086 -1.5862
  541MOL0     H73031   7.634   6.982   7.469  3.2562  0.2716 -2.4916
  541MOL0     H73032   7.584   6.853   7.359  0.2567  0.0164  1.7168
  541MOL0     H73033   7.216   6.976   7.480  0.4341  1.1920  2.1633
  541MOL0     H73034   7.682   7.471   6.956  0.0453  3.0930 -2.6499
  541MOL0     H73035   7.792   7.658   6.892 -4.1233 -1.5982  1.4932
  542MOL0     O73036   1.038   2.858   2.583 -0.0135 -0.1373 -1.3473
  542MOL0     C73037   1.075   2.757   2.641  0.2269  0.4047  0.2636
  542MOL0     O73038   1.166   2.741   2.738  0.4176  0.8762 -0.3905
  542MOL0     C73039   1.225   2.854   2.808  1.6010  1.0097  0.3738
  542MOL0     C73040   1.319   2.824   2.908  0.0884 -0.0747 -0.1372
  542MOL0     C73041   1.377   2.911   2.997 -0.6212  0.1074 -1.4198
  542MOL0     C73042   1.340   3.047   2.969  0.3386 -0.3991  0.1159
  542MOL0     O73043   1.393   3.143   3.046  0.0297  0.6817 -0.0009
  542MOL0     C73044   1.535   3.158   3.016  0.7222  0.2976  0.7351
  542MOL0     C73045   1.541   3.250   2.892  0.1785 -0.5438 -0.0338
  542MOL0     C73046   1.688   3.314   2.868  0.5027  0.2176 -0.0067
  542MOL0     C73047   1.737   3.403   2.983 -0.3815  0.1879 -0.3491
  542MOL0     C73048   1.656   3.534   2.999 -0.2843  0.0396  0.2691
  542MOL0     C73049   1.646   3.633   2.877 -0.7009 -0.1706  0.4652
  542MOL0     C73050   1.785   3.681   2.837  0.1390  0.2369 -0.1058
  542MOL0     C73051   1.776   3.759   2.698  0.1026  0.3261  0.2110
  542MOL0     N73052   1.903   3.791   2.653 -0.1811 -0.2775  0.1677
  542MOL0     C73053   2.020   3.799   2.733  0.3814 -0.3615  0.7858
  542MOL0     C73054   2.121   3.810   2.642  0.1609 -0.0995  0.1566
  542MOL0     C73055   2.272   3.823   2.669  0.0199  0.1983 -0.5520
  542MOL0     C73056   2.313   3.895   2.801  0.4171  1.0808 -0.3407
  542MOL0     C73057   2.467   3.915   2.794 -0.5787 -0.5076  0.1518
  542MOL0     C73058   2.525   3.998   2.916 -0.1929 -0.1095 -0.4420
  542MOL0     O73059   2.470   3.932   3.035 -0.5657  0.3249  0.2891
  542MOL0     C73060   2.532   3.943   3.160 -0.2185  0.3470  1.4066
  542MOL0     C73061   2.624   4.040   3.185  0.5596 -0.0999  0.0707
  542MOL0     C73062   2.688   4.041   3.305 -1.0389  0.5002  0.5399
  542MOL0     C73063   2.797   4.143   3.322  0.4909  0.2435  0.1878
  542MOL0     C73064   2.652   3.946   3.398 -0.0887  0.3450 -0.7257
  542MOL0     C73065   2.707   3.931   3.535 -0.1834  0.5193 -0.5742
  542MOL0     O73066   2.634   3.867   3.629  0.4224 -0.1641 -0.3245
  542MOL0     C73067   2.697   3.797   3.736  0.4415  0.1473  0.1135
  542MOL0     C73068   2.777   3.866   3.832 -1.1265  0.0909  0.1608
  542MOL0     C73069   2.840   3.795   3.929  0.4939  0.1906 -0.7854
  542MOL0     C73070   2.810   3.656   3.961 -0.3600 -0.5564 -0.7488
  542MOL0     O73071   2.846   3.590   4.078  0.4551 -0.1065  0.2938
  542MOL0     C73072   2.961   3.645   4.146 -0.6153 -0.5869 -0.0222
  542MOL0     C73073   2.981   3.556   4.265 -1.2669  0.3299 -0.2119
  542MOL0     C73074   3.038   3.417   4.220 -0.4742 -0.4570  0.5205
  542MOL0     C73075   3.114   3.350   4.332  1.0624  0.6013 -0.1610
  542MOL0     C73076   3.152   3.203   4.269 -0.2920 -0.3258  1.6005
  542MOL0     C73077   3.198   3.105   4.368  0.3187  0.0037 -1.1655
  542MOL0     C73078   3.234   2.963   4.294 -0.5064 -0.4418 -0.0880
  542MOL0     C73079   3.268   2.866   4.402 -0.3498  0.0727 -1.2319
  542MOL0    Cl73080   3.111   2.803   4.474 -0.0278  0.3504  0.0877
  542MOL0     C73081   2.734   3.590   3.872  0.2873  0.7168 -0.5467
  542MOL0     C73082   2.669   3.660   3.765  0.3648 -0.0485  0.1001
  542MOL0     O73083   2.820   3.973   3.556  0.5212 -0.4370  0.6324
  542MOL0     C73084   2.552   3.857   3.376 -0.5444 -0.6704 -0.1321
  542MOL0     C73085   2.490   3.850   3.255  0.0411 -0.1134  0.0360
  542MOL0     N73086   2.067   3.805   2.517  0.7036 -0.1580  0.0123
  542MOL0     N73087   1.937   3.799   2.524 -0.1121  0.5973  0.7973
  542MOL0     C73088   1.247   3.077   2.872 -0.0859  0.7295 -0.1246
  542MOL0     C73089   1.186   2.988   2.791  0.2530 -0.2118  0.7749
  542MOL0     C73090   1.016   2.630   2.599  0.9282  0.1578 -0.4892
  542MOL0     C73091   1.044   2.509   2.664 -0.1329 -0.4241 -0.3280
  542MOL0     C73092   0.986   2.388   2.627 -0.3829 -0.0573 -1.0591
  542MOL0     C73093   0.885   2.386   2.531  0.2850 -0.5275  0.4275
  542MOL0     O73094   0.838   2.265   2.479 -0.6384  0.3372 -0.4161
  542MOL0     C73095   0.832   2.233   2.340 -0.7769  0.0795  0.2396
  542MOL0     C73096   0.870   2.084   2.315  0.1216  0.7252 -0.4608
  542MOL0     C73097   0.909   2.076   2.171  0.1717  0.2325  0.1750
  542MOL0     C73098   0.803   2.111   2.061  0.0144 -0.5958  0.1666
  542MOL0     C73099   0.665   2.061   2.079 -0.1950  0.0917 -0.8730
  542MOL0     C73100   0.544   2.032   2.085  0.3348  0.2515  0.0325
  542MOL0     C73101   0.852   2.503   2.462 -0.8275  0.6024  0.9121
  542MOL0     C73102   0.915   2.631   2.496  0.0461 -0.1062 -0.0829
  542MOL0     H73103   1.354   2.722   2.913  2.7305  0.7656  0.1475
  542MOL0     H73104   1.455   2.888   3.068 -0.2145  1.8716 -1.2507
  542MOL0     H73105   1.577   3.208   3.104  1.6905 -0.0119  0.4587
  542MOL0     H73106   1.591   3.064   3.012  2.4029  1.3095 -1.3295
  542MOL0     H73107   1.514   3.189   2.805  1.1017 -2.1627  0.7624
  542MOL0     H73108   1.469   3.331   2.902 -0.0395 -0.6557 -0.6398
  542MOL0     H73109   1.753   3.226   2.860 -1.0635 -0.9960  0.1732
  542MOL0     H73110   1.686   3.376   2.778  0.7035  2.4291  1.4604
  542MOL0     H73111   1.744   3.346   3.076  1.5081 -1.6949 -1.5249
  542MOL0     H73112   1.842   3.424   2.961 -0.0311 -0.9693  0.1230
  542MOL0     H73113   1.554   3.499   3.016  0.5488 -2.6534  0.2432
  542MOL0     H73114   1.682   3.589   3.089 -0.3054  1.2677 -0.4516
  542MOL0     H73115   1.596   3.588   2.791 -2.7389 -0.1048  1.5594
  542MOL0     H73116   1.582   3.713   2.915 -2.0258 -2.2742  3.0469
  542MOL0     H73117   1.831   3.747   2.910  0.4331  0.6811 -0.6887
  542MOL0     H73118   1.852   3.596   2.823  2.2082  1.7190  0.4101
  542MOL0     H73119   1.709   3.845   2.702  1.5304  1.4971 -0.3900
  542MOL0     H73120   1.730   3.682   2.635 -2.1779  3.2473 -1.9421
  542MOL0     H73121   2.025   3.800   2.841 -3.0609 -4.2156  1.2335
  542MOL0     H73122   2.300   3.717   2.663 -0.0993  0.1531 -0.3448
  542MOL0     H73123   2.317   3.880   2.588  0.6521  1.0487  0.3685
  542MOL0     H73124   2.280   3.829   2.881  0.4908  0.3485 -0.9073
  542MOL0     H73125   2.250   3.984   2.811 -1.0010 -0.0301  0.9369
  542MOL0     H73126   2.500   3.974   2.709 -1.2186  2.5066  1.8458
  542MOL0     H73127   2.513   3.816   2.800 -0.0378 -0.3552 -1.2890
  542MOL0     H73128   2.491   4.102   2.908  0.4870  0.3106  1.4767
  542MOL0     H73129   2.632   3.999   2.936 -0.7639 -3.2051  4.4973
  542MOL0     H73130   2.640   4.119   3.113 -1.7812 -1.4964 -2.1475
  542MOL0     H73131   2.892   4.097   3.352  2.0417  0.2565 -3.9808
  542MOL0     H73132   2.815   4.195   3.227 -2.4265 -3.0736 -2.4117
  542MOL0     H73133   2.773   4.210   3.406  3.1868 -1.1744  2.2468
  542MOL0     H73134   2.796   3.972   3.826  1.7148 -0.3076  0.8201
  542MOL0     H73135   2.911   3.845   3.994  1.4020  1.0127 -2.3258
  542MOL0     H73136   3.052   3.629   4.087 -1.3703 -1.8673 -0.9020
  542MOL0     H73137   2.943   3.748   4.176 -1.3040 -0.4820 -0.7521
  542MOL0     H73138   3.050   3.604   4.335  1.9748 -3.3268 -0.6042
  542MOL0     H73139   2.888   3.534   4.318 -0.1698  0.4347  1.8440
  542MOL0     H73140   3.102   3.425   4.132 -1.5440 -3.0818 -0.5860
  542MOL0     H73141   2.951   3.363   4.181  0.0549 -0.4836 -0.6802
  542MOL0     H73142   3.206   3.404   4.356  1.2712  1.2323 -2.2004
  542MOL0     H73143   3.047   3.344   4.419 -0.7661 -4.9268 -1.5769
  542MOL0     H73144   3.228   3.221   4.191 -1.5361  2.1595  0.8303
  542MOL0     H73145   3.069   3.168   4.208  2.4835 -1.4888 -1.8879
  542MOL0     H73146   3.292   3.143   4.409  0.2593  0.2961 -1.2968
  542MOL0     H73147   3.131   3.093   4.454  3.1416  1.4247  1.4111
  542MOL0     H73148   3.316   2.974   4.223  2.6292 -0.4540  3.2325
  542MOL0     H73149   3.154   2.928   4.229  1.1094  0.2979 -2.6092
  542MOL0     H73150   3.326   2.906   4.485  0.7970 -0.0272 -1.9707
  542MOL0     H73151   3.325   2.781   4.363 -3.5628 -1.9031 -2.0591
  542MOL0     H73152   2.711   3.484   3.879 -0.2584  0.8170 -0.7619
  542MOL0     H73153   2.600   3.608   3.700 -0.8718  1.4265  0.1768
  542MOL0     H73154   2.515   3.784   3.447  1.0602 -3.6866 -2.1982
  542MOL0     H73155   2.412   3.777   3.235  0.8971 -0.5756 -1.7960
  542MOL0     H73156   1.215   3.181   2.879  0.8946  1.0036  0.7663
  542MOL0     H73157   1.124   3.032   2.714 -1.1327 -0.4431  1.7136
  542MOL0     H73158   1.112   2.494   2.747 -0.3128 -3.7265 -0.6254
  542MOL0     H73159   1.022   2.292   2.664 -0.6811  0.9175  2.1387
  542MOL0     H73160   0.726   2.241   2.314 -1.0408 -2.1258  0.4441
  542MOL0     H73161   0.895   2.304   2.286  1.2526 -1.2520  0.7400
  542MOL0     H73162   0.788   2.016   2.338 -1.3184  3.0203  1.8065
  542MOL0     H73163   0.954   2.054   2.378  0.4041  1.3028 -0.5539
  542MOL0     H73164   0.937   1.973   2.147 -0.5404 -0.3323  1.6791
  542MOL0     H73165   1.007   2.121   2.152 -0.6245  0.9458 -2.7228
  542MOL0     H73166   0.832   2.072   1.963  2.1154  0.3598  0.3623
  542MOL0     H73167   0.803   2.218   2.040  0.8642 -0.5806  0.2106
  542MOL0     H73168   0.442   2.001   2.084  0.6924 -0.9751 -1.0456
  542MOL0     H73169   0.776   2.482   2.387 -0.6090  0.5009  0.7155
  542MOL0     H73170   0.897   2.720   2.437  0.7713 -1.9226 -3.3280
  543MOL0     O73171   3.549   7.903   1.539 -0.2486 -0.5825  0.6480
  543MOL0     C73172   3.660   7.895   1.606  0.3882  1.2136 -0.9868
  543MOL0     O73173   3.784   7.906   1.551  0.6325  0.3503 -0.2246
  543MOL0     C73174   3.801   7.932   1.416  0.5318  0.6493  0.6021
  543MOL0     C73175   3.823   8.062   1.372 -0.7569  1.6458 -0.0910
  543MOL0     C73176   3.830   8.091   1.234  0.9906 -0.5482 -0.1921
  543MOL0     C73177   3.830   7.987   1.136  1.2555 -0.9844  0.1666
  543MOL0     O73178   3.832   8.030   1.007 -0.2356  0.2673  0.6000
  543MOL0     C73179   3.796   7.936   0.904  0.8486 -0.2689  0.4693
  543MOL0     C73180   3.929   7.880   0.845 -0.7656  0.5527 -0.5088
  543MOL0     C73181   4.013   7.992   0.778  0.7452 -0.4466 -0.3789
  543MOL0     C73182   4.137   7.942   0.691 -0.1557 -0.0483  0.4500
  543MOL0     C73183   4.231   8.056   0.671  0.6447  0.1245 -0.4479
  543MOL0     C73184   4.338   8.003   0.576  0.6871 -0.8919  0.4196
  543MOL0     C73185   4.433   8.123   0.523  0.0019  0.7685  1.0864
  543MOL0     C73186   4.578   8.078   0.534 -1.4529  0.2143  0.5169
  543MOL0     N73187   4.670   8.192   0.520 -0.0807  0.0495 -0.9391
  543MOL0     C73188   4.726   8.237   0.403  0.7994  0.9247  0.4478
  543MOL0     C73189   4.822   8.314   0.430 -0.7096  0.3729  0.2834
  543MOL0     C73190   4.919   8.385   0.346  0.5886 -0.8864  0.2300
  543MOL0     C73191   4.874   8.539   0.359  0.4769 -0.6838  0.8553
  543MOL0     C73192   4.994   8.620   0.390  0.2527 -0.0293 -0.5585
  543MOL0     C73193   4.952   8.768   0.419 -0.0162  0.2724 -0.0613
  543MOL0     O73194   4.910   8.839   0.307 -0.6160 -0.7912 -0.5195
  543MOL0     C73195   5.001   8.867   0.212  0.2645  0.6853  0.8027
  543MOL0     C73196   5.141   8.856   0.215  1.2119 -0.6666  0.2405
  543MOL0     C73197   5.216   8.869   0.099  0.4413  0.3263 -0.2431
  543MOL0     C73198   5.364   8.846   0.120 -0.8013 -0.0257  0.4938
  543MOL0     C73199   5.158   8.903  -0.027  0.3247  0.6132  0.1487
  543MOL0     C73200   5.237   8.916  -0.162  0.2638 -0.1400 -0.0578
  543MOL0     O73201   5.187   8.867  -0.276  0.4128  0.4463  0.3186
  543MOL0     C73202   5.265   8.873  -0.390  0.4125 -0.0597  0.3055
  543MOL0     C73203   5.294   8.993  -0.452  0.4686 -0.3522 -0.9450
  543MOL0     C73204   5.357   9.009  -0.573 -0.1360  0.2985 -0.7808
  543MOL0     C73205   5.396   8.901  -0.648 -0.4738 -0.4442  0.7502
  543MOL0     O73206   5.465   8.898  -0.772  0.5976  0.3789  0.3501
  543MOL0     C73207   5.473   9.021  -0.849  0.1373  0.0337 -0.8267
  543MOL0     C73208   5.549   8.982  -0.975  0.4404 -1.0269 -0.5956
  543MOL0     C73209   5.540   9.093  -1.082 -0.4901  0.9295 -0.0407
  543MOL0     C73210   5.672   9.182  -1.079  0.0569  0.8501 -0.4799
  543MOL0     C73211   5.667   9.336  -1.117  0.2262 -0.2959 -0.0195
  543MOL0     C73212   5.614   9.337  -1.268 -0.3178 -0.6631 -0.2595
  543MOL0     C73213   5.603   9.480  -1.315 -0.3298  1.0742 -0.5583
  543MOL0     C73214   5.513   9.482  -1.440  0.5827  0.5855  0.3088
  543MOL0    Cl73215   5.576   9.385  -1.574 -0.1922 -0.0933 -0.3044
  543MOL0     C73216   5.375   8.778  -0.586 -0.0325  0.2287 -0.7831
  543MOL0     C73217   5.311   8.760  -0.464  0.5992  0.2485  0.3201
  543MOL0     O73218   5.320   9.004  -0.155 -0.9745 -0.3736 -0.3941
  543MOL0     C73219   5.015   8.905  -0.031 -1.3026 -1.2140 -0.4732
  543MOL0     C73220   4.941   8.884   0.087  0.4684  0.1814  0.5797
  543MOL0     N73221   4.849   8.307   0.569  0.3735 -0.8237 -0.4761
  543MOL0     N73222   4.750   8.239   0.614 -0.0493  0.4101 -0.5337
  543MOL0     C73223   3.806   7.856   1.176  0.5317 -0.3608 -0.2264
  543MOL0     C73224   3.793   7.834   1.318 -0.3347  0.7633  0.0758
  543MOL0     C73225   3.663   7.912   1.758 -0.3177 -0.1212  0.1932
  543MOL0     C73226   3.543   7.907   1.830  0.3036  0.7932 -0.4007
  543MOL0     C73227   3.552   7.913   1.969  0.1942  0.0901 -0.4573
  543MOL0     C73228   3.680   7.911   2.029  0.2948  0.2987  0.1252
  543MOL0     O73229   3.682   7.893   2.168  0.3814  0.1838 -0.2637
  543MOL0     C73230   3.795   7.833   2.244  0.4042  0.0769  0.4362
  543MOL0     C73231   3.803   7.692   2.230  0.7383  0.0884  0.4705
  543MOL0     C73232   3.689   7.634   2.334 -0.1668  0.0639 -0.0061
  543MOL0     C73233   3.663   7.482   2.298 -0.2797  0.8111 -0.6478
  543MOL0     C73234   3.567   7.475   2.194  0.6441 -0.2893  0.4064
  543MOL0     C73235   3.473   7.463   2.112  0.2199  0.0700 -0.5040
  543MOL0     C73236   3.799   7.935   1.957 -0.1485 -0.2244 -1.6427
  543MOL0     C73237   3.786   7.928   1.824  0.2574  0.0429  0.2042
  543MOL0     H73238   3.840   8.137   1.449  1.8488 -1.3291  2.5112
  543MOL0     H73239   3.852   8.190   1.196  0.7683  0.0282  1.1294
  543MOL0     H73240   3.729   7.856   0.937 -1.8304  2.5075  2.3148
  543MOL0     H73241   3.751   7.998   0.827  0.3446 -1.2035 -0.0027
  543MOL0     H73242   3.983   7.841   0.932 -1.4825 -1.1947 -0.8164
  543MOL0     H73243   3.898   7.805   0.772  1.9700  0.4639 -1.7162
  543MOL0     H73244   3.942   8.040   0.710 -2.8961 -0.5084  3.0273
  543MOL0     H73245   4.044   8.067   0.851 -2.3440  0.1905  0.4436
  543MOL0     H73246   4.184   7.853   0.735  2.2733 -0.2750 -2.3146
  543MOL0     H73247   4.092   7.901   0.600  1.0190 -1.2300  0.3684
  543MOL0     H73248   4.173   8.139   0.629 -2.3840 -1.2002  0.8219
  543MOL0     H73249   4.278   8.076   0.768 -0.2261  0.0528 -0.0065
  543MOL0     H73250   4.377   7.918   0.633 -3.8050 -1.6945  2.7887
  543MOL0     H73251   4.281   7.956   0.496 -2.4367 -1.0247  2.5115
  543MOL0     H73252   4.417   8.161   0.422  2.4689  3.0609  1.4583
  543MOL0     H73253   4.425   8.205   0.594  2.3590  0.9652  1.1894
  543MOL0     H73254   4.587   7.996   0.463 -0.9835  0.5104  0.2205
  543MOL0     H73255   4.592   8.035   0.633  0.9398 -1.8306 -0.5874
  543MOL0     H73256   4.692   8.213   0.303  1.4569  3.9185 -0.5887
  543MOL0     H73257   5.016   8.373   0.396  0.7076  2.5194  1.1166
  543MOL0     H73258   4.914   8.361   0.240  0.6723  2.6519 -0.6841
  543MOL0     H73259   4.799   8.552   0.437 -0.1054 -3.9192  0.9998
  543MOL0     H73260   4.836   8.566   0.259  2.3196 -0.6812  0.1124
  543MOL0     H73261   5.069   8.615   0.310  1.1513  2.2209  0.0687
  543MOL0     H73262   5.030   8.591   0.489  0.0855  2.8820  0.4446
  543MOL0     H73263   5.040   8.817   0.463 -0.4050 -0.4979  1.6064
  543MOL0     H73264   4.871   8.767   0.492 -2.2393  1.7827 -2.3385
  543MOL0     H73265   5.196   8.861   0.308  3.6305  2.3670 -1.1835
  543MOL0     H73266   5.414   8.943   0.120 -1.3698  0.2800 -0.4774
  543MOL0     H73267   5.392   8.801   0.216  1.8902  0.0461 -0.1859
  543MOL0     H73268   5.405   8.778   0.045 -0.3791  0.7053  0.0460
  543MOL0     H73269   5.265   9.085  -0.402 -0.2237  0.7569 -3.2536
  543MOL0     H73270   5.382   9.108  -0.609 -2.1101  0.6498 -1.2842
  543MOL0     H73271   5.378   9.072  -0.868  1.6913  3.1881 -0.7372
  543MOL0     H73272   5.532   9.093  -0.792 -2.1573  1.4218 -0.0926
  543MOL0     H73273   5.656   8.969  -0.957  0.9579  0.0972 -2.6031
  543MOL0     H73274   5.501   8.890  -1.011  1.9566 -1.5361 -1.3679
  543MOL0     H73275   5.449   9.154  -1.084 -1.2275 -0.1383  0.2594
  543MOL0     H73276   5.540   9.040  -1.178  1.3306  0.4765  0.1719
  543MOL0     H73277   5.727   9.178  -0.984 -0.9707  1.2409  0.1541
  543MOL0     H73278   5.732   9.143  -1.161  0.4333  3.1498 -1.3739
  543MOL0     H73279   5.765   9.382  -1.101  1.0568 -0.9212 -2.7526
  543MOL0     H73280   5.584   9.384  -1.066 -0.9495 -3.4619  1.2994
  543MOL0     H73281   5.684   9.284  -1.333  0.4980 -0.4195  0.3961
  543MOL0     H73282   5.517   9.287  -1.272 -0.2088 -0.9677  0.7257
  543MOL0     H73283   5.699   9.519  -1.350  0.3895  1.6542  1.8611
  543MOL0     H73284   5.569   9.543  -1.232  2.7082 -0.9884  2.5688
  543MOL0     H73285   5.508   9.584  -1.478 -4.0762  0.2896 -0.4607
  543MOL0     H73286   5.411   9.451  -1.416  1.4538 -2.4748  0.4953
  543MOL0     H73287   5.404   8.696  -0.651 -1.0496 -1.4860  0.8435
  543MOL0     H73288   5.273   8.665  -0.428  0.2735  0.1250 -0.3321
  543MOL0     H73289   4.959   8.929  -0.120 -1.9957 -1.9461 -0.2537
  543MOL0     H73290   4.833   8.880   0.087  0.3238  2.3745  1.9512
  543MOL0     H73291   3.825   7.771   1.110 -0.5635 -1.3675  0.7124
  543MOL0     H73292   3.785   7.734   1.360  0.2059  1.4637  1.9567
  543MOL0     H73293   3.444   7.916   1.787  0.8120  2.0978 -1.3731
  543MOL0     H73294   3.462   7.895   2.027 -0.1488 -1.5712 -1.4263
  543MOL0     H73295   3.889   7.876   2.208  2.4715 -3.0966  1.6381
  543MOL0     H73296   3.782   7.848   2.352  2.5662 -2.2654  1.1088
  543MOL0     H73297   3.902   7.654   2.260  0.4626 -2.4897 -1.5324
  543MOL0     H73298   3.785   7.656   2.129 -0.5333 -0.7821  0.9816
  543MOL0     H73299   3.597   7.693   2.325  0.6146  1.7192  2.0119
  543MOL0     H73300   3.718   7.635   2.439  0.4418 -1.5044 -0.1263
  543MOL0     H73301   3.620   7.430   2.384 -0.1630 -0.5757 -1.4133
  543MOL0     H73302   3.752   7.423   2.272 -0.6664  1.0775 -2.7730
  543MOL0     H73303   3.387   7.462   2.049  1.2403 -4.0127 -2.1494
  543MOL0     H73304   3.896   7.949   2.003 -0.1321  0.0799 -1.7672
  543MOL0     H73305   3.876   7.946   1.767 -0.7097  0.0627 -1.3632
  544MOL0     O73306   4.515   5.274  10.500 -0.1498  0.0704  0.4404
  544MOL0     C73307   4.552   5.363  10.571  0.1146  0.3175  0.8896
  544MOL0     O73308   4.676   5.399  10.594 -0.1468 -0.9442  0.8715
  544MOL0     C73309   4.780   5.348  10.521 -0.2974  0.0865 -0.2507
  544MOL0     C73310   4.881   5.296  10.594  0.5481  0.0955  0.2498
  544MOL0     C73311   4.998   5.279  10.527  0.7843  0.6984  1.1716
  544MOL0     C73312   5.001   5.286  10.382  0.1117  0.3384  1.1793
  544MOL0     O73313   5.114   5.251  10.305  0.3377  0.2704 -0.6318
  544MOL0     C73314   5.236   5.218  10.374  0.2365  1.0481 -0.3741
  544MOL0     C73315   5.334   5.220  10.267  0.4105  0.4833  0.2192
  544MOL0     C73316   5.385   5.362  10.237 -0.4107  0.0807 -0.1875
  544MOL0     C73317   5.477   5.341  10.124  0.4527  0.1751 -0.5371
  544MOL0     C73318   5.543   5.482  10.090 -0.7597  0.0659  0.3895
  544MOL0     C73319   5.675   5.516  10.169  0.4574  0.6535 -0.9505
  544MOL0     C73320   5.752   5.653  10.150  0.0110 -1.1166 -0.1289
  544MOL0     C73321   5.828   5.661  10.017 -0.2109 -0.0050  0.3044
  544MOL0     N73322   5.916   5.780  10.042  0.6805 -0.4392  1.2620
  544MOL0     C73323   6.006   5.807  10.137 -0.8373  0.0690 -0.0294
  544MOL0     C73324   6.058   5.928  10.115 -0.2667  0.8858  0.7679
  544MOL0     C73325   6.147   5.982  10.213 -0.2909 -0.3302  0.4615
  544MOL0     C73326   6.265   6.066  10.155  0.3612  0.4420  0.3722
  544MOL0     C73327   6.378   6.081  10.259 -1.2262 -0.4745 -0.3466
  544MOL0     C73328   6.488   6.168  10.198  0.1530  0.3839 -0.2659
  544MOL0     O73329   6.455   6.307  10.216 -0.0296 -0.0152  0.4864
  544MOL0     C73330   6.562   6.394  10.230  0.0204  0.0104 -0.1575
  544MOL0     C73331   6.543   6.517  10.279  0.2185 -0.5412  0.0213
  544MOL0     C73332   6.647   6.618  10.280 -0.8786  0.7043 -0.2116
  544MOL0     C73333   6.607   6.760  10.325  0.1428  0.9803  0.2672
  544MOL0     C73334   6.781   6.575  10.260  0.1208 -0.5799 -0.1520
  544MOL0     C73335   6.902   6.657  10.287  1.0171  0.0858 -0.3014
  544MOL0     O73336   6.919   6.769  10.216  0.1836  0.0549 -1.1038
  544MOL0     C73337   7.033   6.846  10.250  1.1488  0.2964  0.4440
  544MOL0     C73338   7.172   6.803  10.249  0.5762  0.7836 -0.0701
  544MOL0     C73339   7.273   6.881  10.298  1.1238  0.1732 -0.1141
  544MOL0     C73340   7.238   7.011  10.346  0.4888 -1.1390  0.9006
  544MOL0     O73341   7.338   7.109  10.367  0.0928  0.8878 -0.0377
  544MOL0     C73342   7.379   7.133  10.504 -0.4422 -0.6368  0.1130
  544MOL0     C73343   7.517   7.191  10.490 -0.5113 -0.5264  0.4111
  544MOL0     C73344   7.520   7.348  10.491 -0.0948  0.5425  0.5452
  544MOL0     C73345   7.620   7.417  10.406 -0.9857 -0.2401  0.8690
  544MOL0     C73346   7.620   7.573  10.412 -0.2642 -0.0372  0.5035
  544MOL0     C73347   7.677   7.626  10.541 -0.4563  0.6036 -0.2852
  544MOL0     C73348   7.832   7.639  10.540 -1.5126 -1.1020  0.1221
  544MOL0     C73349   7.868   7.767  10.459  0.0208 -0.5922 -0.5815
  544MOL0    Cl73350   8.041   7.787  10.453 -0.1436 -0.5087  0.0731
  544MOL0     C73351   7.107   7.053  10.343 -0.3402  0.2638 -0.2586
  544MOL0     C73352   7.002   6.970  10.310  0.4111 -0.0705 -0.0910
  544MOL0     O73353   6.977   6.615  10.377  0.1866  0.1783  1.4995
  544MOL0     C73354   6.801   6.441  10.216  0.1751  0.6636 -0.0754
  544MOL0     C73355   6.688   6.350  10.189  0.4234 -0.9237  0.1612
  544MOL0     N73356   6.007   5.975   9.998 -0.1560  0.4391 -0.2499
  544MOL0     N73357   5.920   5.891   9.958  0.1192 -0.2141  0.8911
  544MOL0     C73358   4.884   5.319  10.312 -0.3212 -0.1652  0.0546
  544MOL0     C73359   4.777   5.360  10.383 -0.6373  0.6758 -0.0803
  544MOL0     C73360   4.448   5.444  10.634 -0.6782 -0.2303  0.7847
  544MOL0     C73361   4.319   5.400  10.602 -0.0742 -0.0656 -0.6182
  544MOL0     C73362   4.209   5.470  10.654  0.2814  0.0223 -0.9663
  544MOL0     C73363   4.232   5.600  10.718 -0.3061 -0.3686  0.0124
  544MOL0     O73364   4.126   5.683  10.743 -0.6662  0.3348 -0.3363
  544MOL0     C73365   4.146   5.805  10.825 -0.2110  0.4244 -0.3363
  544MOL0     C73366   4.020   5.863  10.884 -0.2080  0.6834  0.0534
  544MOL0     C73367   4.039   6.009  10.938 -0.8641 -0.5852 -0.0413
  544MOL0     C73368   4.102   6.115  10.842 -0.4045  0.2453  0.4864
  544MOL0     C73369   4.071   6.256  10.889  0.0630  0.4828  0.3456
  544MOL0     C73370   4.049   6.361  10.945  0.5195  1.3206  0.5103
  544MOL0     C73371   4.364   5.643  10.740 -0.2099 -0.3706  1.0178
  544MOL0     C73372   4.470   5.571  10.691 -0.3474  0.7262 -0.3705
  544MOL0     H73373   4.871   5.292  10.702  1.4875  5.3433  0.8056
  544MOL0     H73374   5.072   5.245  10.599  0.7671 -3.8371 -0.6506
  544MOL0     H73375   5.250   5.286  10.458 -1.4247  1.2369 -0.2201
  544MOL0     H73376   5.240   5.119  10.421  1.6066  0.4585 -1.6284
  544MOL0     H73377   5.409   5.152  10.309 -0.2724 -0.5294 -0.1505
  544MOL0     H73378   5.291   5.165  10.183  3.5587  1.4460 -2.2104
  544MOL0     H73379   5.298   5.423  10.210 -3.1090 -3.7978 -1.1026
  544MOL0     H73380   5.430   5.402  10.328 -4.0824  1.0625  1.3895
  544MOL0     H73381   5.553   5.267  10.153 -1.5099 -1.4006  0.9138
  544MOL0     H73382   5.417   5.317  10.037  2.2699  2.3552 -2.5335
  544MOL0     H73383   5.568   5.481   9.984  1.4542  1.5065  0.8278
  544MOL0     H73384   5.478   5.568  10.113 -1.3756 -0.8165  2.1437
  544MOL0     H73385   5.649   5.500  10.274  1.0456 -1.5302 -1.0756
  544MOL0     H73386   5.745   5.436  10.142  0.4352 -0.0944  1.0629
  544MOL0     H73387   5.673   5.727  10.164 -0.6075 -2.0459  1.7279
  544MOL0     H73388   5.831   5.656  10.226  2.2635  2.2389 -2.3173
  544MOL0     H73389   5.754   5.679   9.938 -0.1975 -4.2723 -0.9125
  544MOL0     H73390   5.882   5.567  10.004  1.8166  0.7172  2.7429
  544MOL0     H73391   6.027   5.750  10.227 -1.1866  1.2904  0.8476
  544MOL0     H73392   6.090   6.044  10.283 -1.4936 -0.7930 -0.0914
  544MOL0     H73393   6.193   5.892  10.254  2.3694  1.2802  1.2722
  544MOL0     H73394   6.230   6.167  10.129  3.0629  1.3647 -0.0241
  544MOL0     H73395   6.315   6.017  10.071 -0.0361 -0.0842  0.4443
  544MOL0     H73396   6.426   5.990  10.296 -0.9840  0.6951  2.4771
  544MOL0     H73397   6.328   6.122  10.347  0.7498  0.0763  0.5750
  544MOL0     H73398   6.494   6.152  10.090  1.6613  1.1165 -0.3158
  544MOL0     H73399   6.582   6.148  10.249  1.4881 -1.4066 -3.1767
  544MOL0     H73400   6.449   6.530  10.331 -0.5799  0.0943 -1.4942
  544MOL0     H73401   6.693   6.825  10.344  1.9286 -2.2971  5.7781
  544MOL0     H73402   6.543   6.799  10.245 -1.0741 -0.8143  0.3192
  544MOL0     H73403   6.560   6.766  10.424 -0.3662  5.0938 -0.0206
  544MOL0     H73404   7.196   6.709  10.199  1.1878 -0.4663  2.3977
  544MOL0     H73405   7.378   6.856  10.293  0.6540 -1.8712 -0.7411
  544MOL0     H73406   7.312   7.198  10.561  0.8571  0.6851  0.2088
  544MOL0     H73407   7.389   7.036  10.553 -3.6408 -0.1777  1.9638
  544MOL0     H73408   7.575   7.147  10.572  0.7878 -1.5376 -1.0100
  544MOL0     H73409   7.552   7.146  10.397 -2.4584 -1.7931  0.2245
  544MOL0     H73410   7.535   7.381  10.595  1.1372 -1.8640  1.1929
  544MOL0     H73411   7.428   7.395  10.455  1.6423  2.8419 -1.2065
  544MOL0     H73412   7.713   7.372  10.441  0.1722 -0.8106 -2.5708
  544MOL0     H73413   7.609   7.392  10.300 -1.2919  2.3271  0.2413
  544MOL0     H73414   7.520   7.615  10.404  0.5474  2.4312  2.1717
  544MOL0     H73415   7.676   7.606  10.324  1.1075  2.4963  2.1956
  544MOL0     H73416   7.622   7.720  10.543 -2.6048 -0.5716 -0.6103
  544MOL0     H73417   7.652   7.564  10.627  0.5747  1.1180  0.4113
  544MOL0     H73418   7.877   7.553  10.490  0.6007  2.0982 -4.0541
  544MOL0     H73419   7.874   7.660  10.639 -0.5264 -0.6152 -0.3893
  544MOL0     H73420   7.841   7.855  10.519  2.0201  0.7991 -1.5921
  544MOL0     H73421   7.827   7.768  10.358  2.5223 -0.5924 -1.6729
  544MOL0     H73422   7.080   7.155  10.365 -2.8572  0.3709 -3.1115
  544MOL0     H73423   6.900   7.009  10.313  0.8478  1.0972  0.3083
  544MOL0     H73424   6.904   6.406  10.209  0.2863  0.3013  2.4304
  544MOL0     H73425   6.714   6.253  10.150  0.9629 -1.1065  0.9621
  544MOL0     H73426   4.890   5.332  10.204  0.0154  0.1638  0.1095
  544MOL0     H73427   4.686   5.379  10.327 -1.0292 -4.0397 -1.4461
  544MOL0     H73428   4.284   5.315  10.545 -1.9717  0.6115 -0.5127
  544MOL0     H73429   4.109   5.434  10.634 -0.7402  3.0608 -1.7890
  544MOL0     H73430   4.224   5.794  10.901  0.0525 -0.4046 -0.7111
  544MOL0     H73431   4.179   5.879  10.752  0.7490  0.4776  0.1362
  544MOL0     H73432   3.990   5.785  10.954  1.6660  0.4016  0.5920
  544MOL0     H73433   3.937   5.857  10.813 -0.7667  0.8176  0.6896
  544MOL0     H73434   4.114   6.015  11.018 -2.3493 -2.3939  1.5828
  544MOL0     H73435   3.945   6.047  10.978 -1.6464  1.1539 -3.1779
  544MOL0     H73436   4.053   6.090  10.748  1.9421  0.9038 -0.9771
  544MOL0     H73437   4.210   6.102  10.843 -0.4186 -0.3996 -1.8363
  544MOL0     H73438   4.034   6.451  11.002 -4.0506 -0.2153  2.2073
  544MOL0     H73439   4.381   5.739  10.789 -0.9686  0.2969  0.0214
  544MOL0     H73440   4.567   5.620  10.689 -0.9195  1.9050 -0.0343
  545MOL0     O73441   3.230  11.324   9.158 -0.3863  0.3795 -0.1531
  545MOL0     C73442   3.303  11.408   9.100 -0.1873 -0.8294 -0.1310
  545MOL0     O73443   3.272  11.453   8.975 -0.3959 -0.1706 -0.5068
  545MOL0     C73444   3.176  11.385   8.902  0.1970  0.2234 -0.0001
  545MOL0     C73445   3.039  11.412   8.900  0.1221 -0.0888  0.0392
  545MOL0     C73446   2.945  11.342   8.826  0.0562 -0.7008  0.4167
  545MOL0     C73447   2.980  11.247   8.734  1.3488  0.3693  0.5568
  545MOL0     O73448   2.878  11.178   8.667 -0.1547 -0.2500  0.7760
  545MOL0     C73449   2.920  11.055   8.605 -0.1694 -0.6653 -0.7278
  545MOL0     C73450   2.807  10.994   8.525 -0.5926 -0.9214  0.3361
  545MOL0     C73451   2.727  11.094   8.431  0.8520  0.3148  0.0537
  545MOL0     C73452   2.627  11.006   8.353 -0.8107  0.2116 -0.5672
  545MOL0     C73453   2.540  11.096   8.268 -0.5986  0.5650 -0.0463
  545MOL0     C73454   2.446  11.016   8.178  0.0449 -0.0371 -0.2006
  545MOL0     C73455   2.508  10.917   8.080 -0.3557 -0.1433 -0.9043
  545MOL0     C73456   2.420  10.893   7.957  0.0563 -0.1029 -0.3198
  545MOL0     N73457   2.451  10.779   7.875  0.7319 -0.8317  0.0087
  545MOL0     C73458   2.372  10.733   7.773 -0.2700 -0.5880  2.0048
  545MOL0     C73459   2.454  10.643   7.706 -0.7301 -0.2000  0.8831
  545MOL0     C73460   2.434  10.564   7.573 -0.2811 -1.1656 -0.3674
  545MOL0     C73461   2.473  10.638   7.437 -0.5473  0.1468 -0.5465
  545MOL0     C73462   2.398  10.562   7.327 -0.1502 -0.3634  0.2993
  545MOL0     C73463   2.420  10.626   7.190 -0.1371  0.1274 -0.3922
  545MOL0     O73464   2.393  10.523   7.088  0.0877 -0.7582  0.6045
  545MOL0     C73465   2.412  10.557   6.954 -0.8153  0.6455 -0.7715
  545MOL0     C73466   2.489  10.670   6.898  0.2254  0.6161 -0.2173
  545MOL0     C73467   2.504  10.679   6.757  0.1716  0.8677 -0.5226
  545MOL0     C73468   2.592  10.788   6.705  0.6120 -0.5422  0.4915
  545MOL0     C73469   2.451  10.575   6.675 -0.5903  1.0506 -0.9162
  545MOL0     C73470   2.479  10.559   6.535  0.3808 -0.1954  1.1859
  545MOL0     O73471   2.449  10.670   6.458  0.4469 -0.0764  0.1979
  545MOL0     C73472   2.455  10.658   6.322 -1.4609  0.2055 -0.8137
  545MOL0     C73473   2.570  10.693   6.251  0.4697 -0.5020  0.2106
  545MOL0     C73474   2.584  10.676   6.113 -0.4121 -0.3263 -0.6772
  545MOL0     C73475   2.475  10.621   6.041  0.0238  0.5592  0.3419
  545MOL0     O73476   2.482  10.586   5.907  0.0742 -0.4817  0.0721
  545MOL0     C73477   2.611  10.545   5.852 -1.3225 -0.6241 -0.0507
  545MOL0     C73478   2.589  10.497   5.707 -0.6561 -0.6718 -0.1906
  545MOL0     C73479   2.716  10.425   5.658  0.2187  0.6234 -0.0308
  545MOL0     C73480   2.817  10.515   5.591 -0.2135  0.5207  0.0417
  545MOL0     C73481   2.941  10.427   5.550 -0.0787 -0.5058 -0.6505
  545MOL0     C73482   2.929  10.339   5.424  0.2194 -0.8886 -0.2543
  545MOL0     C73483   3.059  10.272   5.394 -0.8048  0.0989 -0.0663
  545MOL0     C73484   3.095  10.149   5.479 -0.1697 -0.2067  0.1952
  545MOL0    Cl73485   2.950  10.055   5.532  0.0785 -0.2124  0.4694
  545MOL0     C73486   2.367  10.567   6.118  0.4068  0.1266  0.1294
  545MOL0     C73487   2.360  10.592   6.257 -0.0952 -1.0996 -0.5250
  545MOL0     O73488   2.511  10.448   6.495  0.1814  0.6967 -0.0461
  545MOL0     C73489   2.375  10.473   6.732 -0.1618 -0.1373 -0.2728
  545MOL0     C73490   2.355  10.462   6.870 -0.0473 -0.6481 -1.1074
  545MOL0     N73491   2.581  10.640   7.776 -0.2006 -0.0515  0.1688
  545MOL0     N73492   2.572  10.730   7.866  0.2939  1.0791 -0.0181
  545MOL0     C73493   3.115  11.209   8.732  0.3933 -0.7847 -0.5689
  545MOL0     C73494   3.216  11.274   8.813 -0.1851 -0.9566  0.2527
  545MOL0     C73495   3.402  11.481   9.173 -0.8087 -0.1473 -0.0991
  545MOL0     C73496   3.439  11.614   9.122  0.5697 -0.0523  0.4164
  545MOL0     C73497   3.519  11.700   9.205  0.1835 -0.1706  0.9876
  545MOL0     C73498   3.574  11.633   9.319 -0.0990 -0.3466 -0.3343
  545MOL0     O73499   3.670  11.689   9.395  0.1215 -0.1713 -0.2647
  545MOL0     C73500   3.658  11.827   9.414 -0.0341 -1.1514 -0.8195
  545MOL0     C73501   3.745  11.886   9.518 -0.5971 -0.6211  0.1756
  545MOL0     C73502   3.700  11.822   9.649  0.5901 -0.1020 -0.3727
  545MOL0     C73503   3.810  11.727   9.710 -0.1947  0.8083 -0.9118
  545MOL0     C73504   3.931  11.801   9.772 -0.4216 -0.0125 -0.7666
  545MOL0     C73505   4.016  11.862   9.833 -0.9323 -0.8780 -0.7697
  545MOL0     C73506   3.546  11.505   9.360 -0.9654 -0.2538  0.4377
  545MOL0     C73507   3.459  11.428   9.286 -0.4270  0.9376 -0.4473
  545MOL0     H73508   3.002  11.487   8.969 -3.5238 -0.9793 -0.7553
  545MOL0     H73509   2.839  11.362   8.825  0.0548 -0.5561 -1.9721
  545MOL0     H73510   3.007  11.069   8.540  0.1035 -3.0321 -0.9643
  545MOL0     H73511   2.950  10.987   8.686 -1.3385  0.2761  0.5408
  545MOL0     H73512   2.842  10.912   8.462  0.2399  0.2314 -0.7474
  545MOL0     H73513   2.732  10.947   8.591 -2.7094  0.6518 -0.8225
  545MOL0     H73514   2.669  11.171   8.484 -0.3628 -1.2135  1.0157
  545MOL0     H73515   2.792  11.148   8.361 -0.2698  0.8856 -0.5796
  545MOL0     H73516   2.687  10.942   8.288 -1.4227 -0.3559 -0.5754
  545MOL0     H73517   2.572  10.945   8.425 -0.3226 -0.4574 -0.7470
  545MOL0     H73518   2.482  11.159   8.336 -0.8952  0.7245 -0.4455
  545MOL0     H73519   2.601  11.165   8.209  1.2115 -1.2133 -0.3602
  545MOL0     H73520   2.399  10.957   8.256 -0.0555 -2.1266 -1.7657
  545MOL0     H73521   2.370  11.085   8.140 -2.6707 -0.1355  4.3755
  545MOL0     H73522   2.605  10.955   8.048  0.1491 -0.1081  0.5962
  545MOL0     H73523   2.516  10.822   8.134 -0.4514  1.0348  1.2701
  545MOL0     H73524   2.425  10.982   7.894  3.2897  0.1269  0.0762
  545MOL0     H73525   2.321  10.875   8.000  0.6642 -4.4799 -0.2832
  545MOL0     H73526   2.272  10.772   7.754 -0.4763 -0.6232  2.9680
  545MOL0     H73527   2.497  10.475   7.573  0.9961 -0.2830  0.2002
  545MOL0     H73528   2.329  10.533   7.571 -0.9489  0.7804  1.0522
  545MOL0     H73529   2.582  10.625   7.430 -0.2500  2.7678 -1.7581
  545MOL0     H73530   2.438  10.741   7.433 -1.6336 -0.0569  1.6619
  545MOL0     H73531   2.289  10.552   7.339 -0.2606 -2.6926 -1.6714
  545MOL0     H73532   2.429  10.457   7.318  0.0265 -0.2126 -1.1100
  545MOL0     H73533   2.523  10.656   7.168  0.5776 -1.5954  0.3978
  545MOL0     H73534   2.361  10.717   7.174  1.2309  1.1077 -0.0829
  545MOL0     H73535   2.520  10.756   6.956 -1.2478  0.8294  0.2894
  545MOL0     H73536   2.529  10.851   6.643  0.4254 -2.1754 -1.0811
  545MOL0     H73537   2.621  10.854   6.787 -0.4394 -2.4152  2.4726
  545MOL0     H73538   2.685  10.761   6.653  1.0152 -0.5941  1.2346
  545MOL0     H73539   2.654  10.730   6.310 -0.3581 -0.3053  1.2946
  545MOL0     H73540   2.672  10.706   6.056  1.7732 -0.6017  2.2841
  545MOL0     H73541   2.696  10.614   5.855 -0.8002 -1.1677 -1.5606
  545MOL0     H73542   2.647  10.464   5.917 -0.2937 -0.6718 -0.6567
  545MOL0     H73543   2.503  10.429   5.710 -0.2427 -1.1757  0.7802
  545MOL0     H73544   2.556  10.574   5.637 -1.3639  0.1466  1.0045
  545MOL0     H73545   2.683  10.359   5.578  0.9775  0.4300 -0.1926
  545MOL0     H73546   2.762  10.365   5.737  3.4180  1.8283 -0.8182
  545MOL0     H73547   2.773  10.539   5.494  1.0238 -3.0712 -1.5990
  545MOL0     H73548   2.833  10.603   5.654  0.8918  0.4365 -0.0876
  545MOL0     H73549   2.955  10.355   5.632 -0.5246  0.9035  0.7236
  545MOL0     H73550   3.031  10.488   5.546 -0.8567  0.6198 -2.2615
  545MOL0     H73551   2.847  10.269   5.437 -0.7605  0.5899  2.4291
  545MOL0     H73552   2.897  10.385   5.330 -1.3690 -1.2446  0.0975
  545MOL0     H73553   3.144  10.341   5.390 -1.7509  1.2279 -2.9254
  545MOL0     H73554   3.042  10.230   5.294 -2.7728  1.9577 -0.5607
  545MOL0     H73555   3.147  10.184   5.568  0.6157 -2.4126  0.6553
  545MOL0     H73556   3.161  10.085   5.419  0.7221  0.8820 -0.0229
  545MOL0     H73557   2.294  10.500   6.073  0.2848 -0.0470  0.5817
  545MOL0     H73558   2.274  10.566   6.319 -0.8519  3.1108  0.5175
  545MOL0     H73559   2.332  10.394   6.672 -0.0456 -2.2943  2.3082
  545MOL0     H73560   2.296  10.387   6.921  1.4618  0.0138  1.8285
  545MOL0     H73561   3.141  11.121   8.674  0.7921 -1.3642  0.4408
  545MOL0     H73562   3.318  11.237   8.807 -0.4385 -1.8594  1.2381
  545MOL0     H73563   3.413  11.658   9.027 -0.1505  2.8916  1.8753
  545MOL0     H73564   3.536  11.804   9.179 -0.6813  0.0194  1.1379
  545MOL0     H73565   3.697  11.876   9.325 -0.8106 -3.0545 -2.2871
  545MOL0     H73566   3.559  11.870   9.432  1.2504  1.4110  0.6733
  545MOL0     H73567   3.718  11.990   9.541  2.5341  0.2147  0.5228
  545MOL0     H73568   3.851  11.884   9.491 -0.6646 -2.2271 -0.0186
  545MOL0     H73569   3.603  11.771   9.648  0.5010 -0.4186  4.1445
  545MOL0     H73570   3.671  11.900   9.720  2.6662 -0.0306  0.4754
  545MOL0     H73571   3.844  11.654   9.636 -1.6746  0.1941 -1.0167
  545MOL0     H73572   3.757  11.668   9.786  1.6194 -0.1575 -0.3152
  545MOL0     H73573   4.088  11.919   9.889 -0.9027 -1.3105 -0.3678
  545MOL0     H73574   3.606  11.477   9.446 -0.2691 -0.5314 -0.1333
  545MOL0     H73575   3.440  11.328   9.322 -1.1837 -0.2364 -3.7707
  546MOL0     O73576   9.388   7.992   6.435 -0.3071 -0.2069 -0.9560
  546MOL0     C73577   9.366   8.069   6.347  0.0031 -0.0189 -0.0292
  546MOL0     O73578   9.411   8.055   6.219 -0.4633  0.4603 -0.0966
  546MOL0     C73579   9.509   7.964   6.183  0.4233 -0.4540 -0.7939
  546MOL0     C73580   9.612   7.903   6.255 -0.4293 -0.6049  0.0359
  546MOL0     C73581   9.685   7.792   6.212  0.0147 -0.0467 -0.1903
  546MOL0     C73582   9.666   7.759   6.078 -0.6395 -0.2090  0.2121
  546MOL0     O73583   9.742   7.671   6.017 -0.6048  0.3147  0.0059
  546MOL0     C73584   9.866   7.638   6.075 -1.2031  0.0658 -0.3219
  546MOL0     C73585   9.946   7.563   5.962  0.3837  0.2970 -0.4266
  546MOL0     C73586  10.094   7.537   6.010  0.6190  0.1232  0.3308
  546MOL0     C73587  10.182   7.658   5.998 -0.0557  0.0753 -0.5707
  546MOL0     C73588  10.329   7.627   5.995 -0.4035  0.8576  1.0187
  546MOL0     C73589  10.381   7.598   5.851 -0.0248 -0.6623  0.2522
  546MOL0     C73590  10.509   7.507   5.842 -0.3332  0.9568 -0.2902
  546MOL0     C73591  10.488   7.361   5.894  0.1509 -0.8839 -0.0775
  546MOL0     N73592  10.600   7.280   5.856 -0.1790 -0.1427 -0.3137
  546MOL0     C73593  10.716   7.277   5.926 -0.2283  0.3711 -0.1885
  546MOL0     C73594  10.794   7.199   5.847  0.4319 -0.3883 -0.3379
  546MOL0     C73595  10.941   7.158   5.882  0.2131  0.2701 -0.4282
  546MOL0     C73596  11.040   7.229   5.787 -0.1486  0.3743  0.4738
  546MOL0     C73597  11.174   7.257   5.860 -0.7626  0.2020 -0.8090
  546MOL0     C73598  11.169   7.384   5.945  0.1720  0.0608  0.3851
  546MOL0     O73599  11.282   7.395   6.027 -0.1652  0.3098 -0.2656
  546MOL0     C73600  11.330   7.518   6.051 -0.3992 -1.0444 -1.1504
  546MOL0     C73601  11.271   7.642   6.052  0.0598 -0.8020  0.2363
  546MOL0     C73602  11.343   7.756   6.081 -0.2173 -0.7460  0.8120
  546MOL0     C73603  11.268   7.888   6.088  1.5775 -0.0709 -0.9587
  546MOL0     C73604  11.484   7.754   6.111 -0.3114  0.0236  0.1728
  546MOL0     C73605  11.582   7.871   6.116  1.3423 -0.0633 -0.0031
  546MOL0     O73606  11.583   7.972   6.021  0.0261  0.3528  0.7386
  546MOL0     C73607  11.685   8.060   6.009  1.1356  0.1977 -0.1873
  546MOL0     C73608  11.718   8.146   6.112  0.2175  0.9933  0.6864
  546MOL0     C73609  11.809   8.254   6.088  0.2225  0.6915 -0.4951
  546MOL0     C73610  11.870   8.278   5.961 -0.4588 -0.0300 -0.0648
  546MOL0     O73611  11.940   8.391   5.924 -1.0796 -0.6210  0.0670
  546MOL0     C73612  12.002   8.468   6.031 -0.4686  0.4858 -0.6386
  546MOL0     C73613  12.121   8.558   5.992  0.5987 -0.9149  0.0115
  546MOL0     C73614  12.085   8.649   5.870  0.2119  0.6972  0.2018
  546MOL0     C73615  12.168   8.786   5.895 -0.2087  0.3850 -0.1729
  546MOL0     C73616  12.149   8.892   5.774 -0.1113  0.5574 -0.2518
  546MOL0     C73617  12.223   9.028   5.806 -0.4416 -0.1782  0.0670
  546MOL0     C73618  12.205   9.132   5.690 -0.9271 -0.3488 -0.8221
  546MOL0     C73619  12.070   9.185   5.667  0.9702 -0.1469 -0.8965
  546MOL0    Cl73620  11.991   9.264   5.818  0.1496  0.0028 -0.0846
  546MOL0     C73621  11.832   8.193   5.860  0.1278 -0.2464  0.0372
  546MOL0     C73622  11.728   8.096   5.882 -0.0010  0.2449 -0.2718
  546MOL0     O73623  11.668   7.857   6.197  0.5671  0.0034 -1.5961
  546MOL0     C73624  11.541   7.632   6.103  0.2623 -0.9588 -0.0552
  546MOL0     C73625  11.465   7.519   6.068  0.4072 -0.7930  0.0460
  546MOL0     N73626  10.718   7.147   5.750 -0.0264  0.3038  0.2605
  546MOL0     N73627  10.600   7.199   5.749 -0.3326 -0.3940  0.1981
  546MOL0     C73628   9.577   7.830   5.997  0.6364  0.1091 -0.0932
  546MOL0     C73629   9.499   7.927   6.051  0.0836 -0.6732  0.0968
  546MOL0     C73630   9.250   8.162   6.371 -1.0825  0.4664 -0.3671
  546MOL0     C73631   9.240   8.273   6.290 -0.4245 -0.0483  0.6698
  546MOL0     C73632   9.141   8.363   6.327  0.8982  0.0414  0.7386
  546MOL0     C73633   9.056   8.353   6.427 -0.8042  0.6952 -0.5998
  546MOL0     O73634   8.958   8.444   6.442 -0.0586 -0.1980  0.6986
  546MOL0     C73635   8.872   8.445   6.560 -0.2298  0.4626 -0.0027
  546MOL0     C73636   8.773   8.566   6.544  0.7926 -1.1276  0.0160
  546MOL0     C73637   8.657   8.575   6.646  0.5779  1.2753  0.3326
  546MOL0     C73638   8.685   8.669   6.765  0.1505  0.0487  0.5159
  546MOL0     C73639   8.693   8.813   6.739 -0.4047 -0.6813 -0.4370
  546MOL0     C73640   8.714   8.929   6.719  0.0602  0.0352 -1.1509
  546MOL0     C73641   9.068   8.240   6.513 -0.2249 -0.2009  0.5110
  546MOL0     C73642   9.170   8.145   6.482 -0.3432 -0.4997  0.2801
  546MOL0     H73643   9.643   7.914   6.358  1.3291 -0.9130 -0.4392
  546MOL0     H73644   9.754   7.751   6.285  1.7320  1.5932 -0.7999
  546MOL0     H73645   9.919   7.722   6.119 -2.1003  0.1124  0.7344
  546MOL0     H73646   9.852   7.575   6.164  1.1485  1.0833  0.8494
  546MOL0     H73647   9.888   7.471   5.950  2.2403 -1.2965  1.8191
  546MOL0     H73648   9.954   7.628   5.875  7.6646 -2.3322 -2.5419
  546MOL0     H73649  10.094   7.508   6.116 -0.9673  2.3877  1.0181
  546MOL0     H73650  10.134   7.450   5.956 -2.6738 -2.1597  1.2691
  546MOL0     H73651  10.163   7.708   5.902  0.0088  1.6748  0.2281
  546MOL0     H73652  10.145   7.719   6.080 -3.8169 -3.8871  1.0318
  546MOL0     H73653  10.384   7.716   6.025  0.6177  1.1500 -1.4535
  546MOL0     H73654  10.347   7.545   6.065  1.4144 -0.8518 -1.2957
  546MOL0     H73655  10.294   7.553   5.802 -1.8030  1.5353  1.2304
  546MOL0     H73656  10.397   7.692   5.797  0.6802 -0.6139  0.5385
  546MOL0     H73657  10.533   7.498   5.736  1.8108  0.9873  0.1486
  546MOL0     H73658  10.592   7.548   5.900  0.0109 -1.9229  1.4476
  546MOL0     H73659  10.398   7.315   5.851  0.5134 -2.3884  0.7155
  546MOL0     H73660  10.472   7.354   6.002 -2.0640  0.1420 -0.2789
  546MOL0     H73661  10.744   7.321   6.021  3.1826 -0.8319 -0.4650
  546MOL0     H73662  10.956   7.163   5.990  0.5530 -2.0506 -0.3240
  546MOL0     H73663  10.947   7.050   5.866 -1.0326  0.1740 -0.3556
  546MOL0     H73664  10.988   7.324   5.767 -1.8381 -0.2714  1.5504
  546MOL0     H73665  11.051   7.162   5.701 -1.6101  0.7282 -0.0210
  546MOL0     H73666  11.249   7.269   5.782 -3.3961 -1.5116 -3.8861
  546MOL0     H73667  11.202   7.181   5.933 -0.9203 -0.7457 -1.7204
  546MOL0     H73668  11.086   7.380   6.016 -1.1880 -1.7683 -1.2225
  546MOL0     H73669  11.153   7.480   5.895  1.1867  0.7207  1.2735
  546MOL0     H73670  11.164   7.640   6.031 -0.1117  0.5780  0.8405
  546MOL0     H73671  11.283   7.937   6.185  3.2961  0.5811 -1.5198
  546MOL0     H73672  11.298   7.960   6.012  2.0056  1.4598  0.5884
  546MOL0     H73673  11.162   7.869   6.070  1.6178 -1.2645 -0.1027
  546MOL0     H73674  11.668   8.129   6.206 -3.8712 -0.2499 -1.4501
  546MOL0     H73675  11.835   8.325   6.165  1.4409 -0.7975  0.5192
  546MOL0     H73676  11.915   8.528   6.060 -2.5372 -0.7540 -3.7510
  546MOL0     H73677  12.023   8.402   6.116 -3.5606  0.4095  0.1886
  546MOL0     H73678  12.123   8.619   6.083 -5.6915  0.5790 -0.4037
  546MOL0     H73679  12.211   8.498   5.973  0.4155 -0.5315 -2.4035
  546MOL0     H73680  11.978   8.668   5.859 -0.4091 -2.2028  0.3662
  546MOL0     H73681  12.106   8.591   5.780 -1.3457  0.8017 -0.2604
  546MOL0     H73682  12.150   8.846   5.984  0.0721  1.0332 -0.5418
  546MOL0     H73683  12.273   8.759   5.908 -1.4321 -5.9913 -0.2495
  546MOL0     H73684  12.041   8.908   5.762 -0.4204 -0.8456  0.4794
  546MOL0     H73685  12.183   8.831   5.689 -1.0303 -3.4568  2.0011
  546MOL0     H73686  12.188   9.068   5.902  2.6200 -1.8518  2.0470
  546MOL0     H73687  12.330   9.005   5.810 -0.3741  0.1815  0.3813
  546MOL0     H73688  12.244   9.073   5.606  0.9305 -0.2207 -0.1052
  546MOL0     H73689  12.270   9.220   5.698 -1.6235  0.3180 -2.1331
  546MOL0     H73690  12.004   9.101   5.642 -0.9226  1.1582 -0.4847
  546MOL0     H73691  12.067   9.255   5.583 -1.2900 -1.0208 -1.6262
  546MOL0     H73692  11.858   8.221   5.759  0.1294 -3.0490 -0.8149
  546MOL0     H73693  11.695   8.045   5.791  1.4918 -1.2458 -0.0376
  546MOL0     H73694  11.648   7.617   6.109  0.9803  3.3693  1.6924
  546MOL0     H73695  11.515   7.424   6.047  0.6618 -0.3049 -1.6884
  546MOL0     H73696   9.562   7.787   5.898  1.4483 -0.7567  0.1456
  546MOL0     H73697   9.421   7.962   5.984 -0.4047 -2.2809 -0.2281
  546MOL0     H73698   9.303   8.282   6.202  0.5403 -2.6980  0.9995
  546MOL0     H73699   9.138   8.453   6.267  0.0640 -0.0518  0.6283
  546MOL0     H73700   8.807   8.360   6.582 -1.5653  1.6347  0.7644
  546MOL0     H73701   8.934   8.464   6.647 -1.6501 -0.4594  1.2495
  546MOL0     H73702   8.731   8.575   6.443 -0.4183  5.3252  0.6238
  546MOL0     H73703   8.831   8.657   6.530 -1.3678  0.1618 -1.3683
  546MOL0     H73704   8.641   8.476   6.690 -0.3283  1.4102  0.3264
  546MOL0     H73705   8.568   8.616   6.597  1.0736  3.9974  1.5162
  546MOL0     H73706   8.778   8.644   6.817 -0.6872 -1.7777  1.2357
  546MOL0     H73707   8.613   8.643   6.843  0.9707 -4.1399  0.1366
  546MOL0     H73708   8.752   9.029   6.715  0.9579 -0.1707  0.8859
  546MOL0     H73709   9.003   8.221   6.598 -1.8021 -1.3162 -0.8887
  546MOL0     H73710   9.168   8.057   6.546  1.9306 -0.2318  0.8369
  547MOL0     O73711   9.212   1.024   3.052 -0.1396 -0.1032 -0.4764
  547MOL0     C73712   9.230   1.078   2.945 -0.5044  0.9749 -0.0512
  547MOL0     O73713   9.347   1.061   2.878 -0.5053 -0.0830  0.0219
  547MOL0     C73714   9.453   0.978   2.921  0.8166 -0.6849 -0.6123
  547MOL0     C73715   9.463   0.856   2.850  0.8080  0.8952 -0.1605
  547MOL0     C73716   9.562   0.756   2.892  0.7826  0.7268  0.3770
  547MOL0     C73717   9.640   0.793   3.005  0.6177  0.9808  0.0744
  547MOL0     O73718   9.747   0.710   3.049 -0.5872  0.3368  0.3350
  547MOL0     C73719   9.878   0.755   2.995 -0.2208  0.1907  0.2193
  547MOL0     C73720   9.916   0.684   2.863  1.1604 -0.0434  0.2588
  547MOL0     C73721  10.063   0.687   2.819 -0.8911  0.0545 -0.0194
  547MOL0     C73722  10.100   0.801   2.751  0.1480 -0.0412  0.1073
  547MOL0     C73723  10.249   0.801   2.702 -0.1736  0.0230  0.0609
  547MOL0     C73724  10.293   0.941   2.658 -0.4190  0.1778  0.5859
  547MOL0     C73725  10.439   0.977   2.675 -0.0928  0.2746  0.2477
  547MOL0     C73726  10.471   1.086   2.567 -0.1537  0.8497 -0.7205
  547MOL0     N73727  10.576   1.176   2.604  0.0604 -0.1371 -0.3458
  547MOL0     C73728  10.584   1.234   2.727  0.1012  0.4604  0.4674
  547MOL0     C73729  10.681   1.322   2.707 -0.1396 -0.6241 -0.0717
  547MOL0     C73730  10.726   1.425   2.807  0.0250 -0.3204  1.0534
  547MOL0     C73731  10.839   1.373   2.896  0.3361 -0.0508  0.8160
  547MOL0     C73732  10.970   1.361   2.807  0.1943  0.2945 -0.2146
  547MOL0     C73733  11.082   1.467   2.837  0.7623 -0.0632  0.4595
  547MOL0     O73734  11.114   1.448   2.974  0.3442 -0.3422 -0.9092
  547MOL0     C73735  11.207   1.531   3.029  0.3253 -0.1976 -0.2909
  547MOL0     C73736  11.286   1.484   3.131  0.0165  0.7020 -0.4987
  547MOL0     C73737  11.382   1.562   3.196 -1.2320 -1.0410  0.1985
  547MOL0     C73738  11.460   1.492   3.298  0.1504 -0.0537 -0.0464
  547MOL0     C73739  11.395   1.702   3.165 -1.0779 -0.8050 -0.4570
  547MOL0     C73740  11.493   1.792   3.228  0.7248 -0.5287  1.2535
  547MOL0     O73741  11.444   1.923   3.257 -0.3559 -0.1429 -0.1480
  547MOL0     C73742  11.541   2.012   3.297  0.7566  0.2428  0.0884
  547MOL0     C73743  11.599   2.002   3.426 -0.7561 -0.3791 -0.0511
  547MOL0     C73744  11.694   2.090   3.457 -0.5053  0.1401 -0.1188
  547MOL0     C73745  11.725   2.204   3.375 -0.2637  0.7155 -0.0058
  547MOL0     O73746  11.811   2.307   3.427  0.0108  0.2873  0.3404
  547MOL0     C73747  11.797   2.442   3.381  0.8263 -0.6380  0.4879
  547MOL0     C73748  11.873   2.522   3.476 -0.1899  0.1753 -1.4191
  547MOL0     C73749  12.025   2.552   3.430 -0.3467 -0.0754  0.4258
  547MOL0     C73750  12.093   2.651   3.521 -0.7312 -0.1907 -0.5639
  547MOL0     C73751  12.210   2.714   3.449 -0.5689  0.8122  0.4351
  547MOL0     C73752  12.300   2.780   3.549 -0.7439 -1.9193 -0.6822
  547MOL0     C73753  12.430   2.854   3.491 -0.0436 -0.2223  0.2762
  547MOL0     C73754  12.537   2.871   3.601  0.4825 -0.4386  0.3743
  547MOL0    Cl73755  12.602   2.706   3.624 -0.0099 -0.0012  0.0113
  547MOL0     C73756  11.651   2.218   3.256  0.5158  0.2039  0.0270
  547MOL0     C73757  11.569   2.114   3.218 -0.0186  0.0615  0.1904
  547MOL0     O73758  11.609   1.764   3.218  0.2114 -0.2021 -0.6010
  547MOL0     C73759  11.298   1.758   3.070 -0.2836  0.3027  0.4785
  547MOL0     C73760  11.209   1.671   3.000 -0.8516 -0.3734 -0.1966
  547MOL0     N73761  10.735   1.304   2.583  0.0667 -0.2095  0.1150
  547MOL0     N73762  10.664   1.229   2.509  0.3394  0.4573  0.0776
  547MOL0     C73763   9.613   0.913   3.075 -0.0334  0.1126 -0.2279
  547MOL0     C73764   9.528   1.007   3.033  0.3237 -0.5337  0.5989
  547MOL0     C73765   9.135   1.169   2.888 -0.5897 -1.1290 -0.1963
  547MOL0     C73766   9.040   1.222   2.965 -0.2665  0.4629  0.2605
  547MOL0     C73767   8.946   1.311   2.917  0.4189 -0.4034  0.1252
  547MOL0     C73768   8.944   1.347   2.777 -0.0837  0.6985 -1.4061
  547MOL0     O73769   8.849   1.440   2.724 -0.4108  0.3175 -0.2130
  547MOL0     C73770   8.812   1.456   2.584  0.2934  1.4765 -0.1193
  547MOL0     C73771   8.672   1.517   2.582 -0.1635  0.1874  0.0033
  547MOL0     C73772   8.630   1.552   2.444  0.6071  0.3708  1.0329
  547MOL0     C73773   8.482   1.609   2.454  0.1765 -0.1349  0.4959
  547MOL0     C73774   8.460   1.722   2.543 -0.3024  0.5226 -0.6929
  547MOL0     C73775   8.471   1.819   2.619  0.7177 -0.7148 -0.0593
  547MOL0     C73776   9.044   1.297   2.703 -0.7133  0.3240 -0.2622
  547MOL0     C73777   9.142   1.203   2.754  0.2861 -0.9029 -0.0064
  547MOL0     H73778   9.399   0.838   2.765  1.0267 -2.5912  0.2847
  547MOL0     H73779   9.587   0.658   2.852 -1.0193 -0.3345  1.7352
  547MOL0     H73780   9.890   0.863   2.988 -0.1373  0.0949 -2.1130
  547MOL0     H73781   9.943   0.724   3.077  0.6618 -3.5140 -1.6239
  547MOL0     H73782   9.898   0.577   2.875  3.3118 -0.2945  1.9470
  547MOL0     H73783   9.848   0.726   2.789 -1.9214 -5.1046 -0.2752
  547MOL0     H73784  10.127   0.662   2.904 -1.4837 -1.2383  0.0697
  547MOL0     H73785  10.089   0.601   2.757  0.4564  0.9344 -0.7122
  547MOL0     H73786  10.030   0.828   2.672  0.2383  0.9516  0.3442
  547MOL0     H73787  10.103   0.876   2.831  2.4452 -2.1946  2.2241
  547MOL0     H73788  10.308   0.776   2.790 -0.5158  1.7966  0.8503
  547MOL0     H73789  10.280   0.730   2.625 -0.5863  1.9855 -2.0337
  547MOL0     H73790  10.281   0.934   2.550  0.6246 -1.4265  0.5353
  547MOL0     H73791  10.230   1.019   2.701 -2.7280 -1.7239  0.8144
  547MOL0     H73792  10.454   1.005   2.779  0.4136  0.5562  0.1009
  547MOL0     H73793  10.492   0.884   2.652  3.2962  2.1790 -0.2902
  547MOL0     H73794  10.384   1.143   2.533 -0.9660 -0.1595 -0.3872
  547MOL0     H73795  10.509   1.038   2.476 -2.7180 -2.9463 -0.0336
  547MOL0     H73796  10.514   1.231   2.809  0.1169 -0.0192  0.4692
  547MOL0     H73797  10.762   1.516   2.758  2.0719  0.1767  3.2858
  547MOL0     H73798  10.640   1.454   2.868 -2.1721 -3.5253 -0.2605
  547MOL0     H73799  10.824   1.271   2.933 -1.7555 -0.3295 -0.6400
  547MOL0     H73800  10.839   1.435   2.986  0.9272  0.6693  0.3340
  547MOL0     H73801  10.951   1.384   2.701 -0.7602  1.8765  0.2633
  547MOL0     H73802  11.015   1.264   2.828 -0.5606  0.2907  1.5810
  547MOL0     H73803  11.035   1.565   2.825 -1.8430 -1.1882  0.7221
  547MOL0     H73804  11.166   1.460   2.767 -0.2648 -0.6351 -0.7553
  547MOL0     H73805  11.270   1.381   3.163 -1.4302  0.7272 -1.0565
  547MOL0     H73806  11.419   1.516   3.396 -0.2261  1.2128 -0.4955
  547MOL0     H73807  11.469   1.384   3.282  3.1540  0.3511 -1.9903
  547MOL0     H73808  11.562   1.532   3.293  0.9578 -1.8169  1.1776
  547MOL0     H73809  11.563   1.929   3.498 -2.9134  2.6157  2.1919
  547MOL0     H73810  11.746   2.082   3.552 -2.3816  1.9488  1.1556
  547MOL0     H73811  11.829   2.456   3.278  0.2890 -1.9540  0.1346
  547MOL0     H73812  11.696   2.485   3.372  1.7641  1.3671 -1.7585
  547MOL0     H73813  11.832   2.623   3.470  0.4193  0.7648  2.0481
  547MOL0     H73814  11.859   2.494   3.581 -0.2967  3.0818 -0.5712
  547MOL0     H73815  12.032   2.576   3.323  3.3983 -1.6794  0.1568
  547MOL0     H73816  12.085   2.461   3.436  1.3826  0.7366 -2.5156
  547MOL0     H73817  12.022   2.729   3.551  3.5581  2.8316  3.1048
  547MOL0     H73818  12.129   2.608   3.615 -2.2673  0.5919  0.4066
  547MOL0     H73819  12.188   2.789   3.373  3.1510  1.6946  0.0158
  547MOL0     H73820  12.270   2.637   3.399 -1.8828  0.9192 -1.3960
  547MOL0     H73821  12.231   2.847   3.602 -2.4801 -4.1450  0.0762
  547MOL0     H73822  12.327   2.707   3.627 -2.0879  2.0783  4.0402
  547MOL0     H73823  12.386   2.951   3.463 -0.9400 -0.7038  0.0028
  547MOL0     H73824  12.459   2.792   3.405  0.6307  0.6351 -0.1359
  547MOL0     H73825  12.490   2.902   3.695 -1.5408 -2.2091  0.0194
  547MOL0     H73826  12.616   2.940   3.571  0.6096 -0.9356 -0.4645
  547MOL0     H73827  11.677   2.294   3.184  0.5399 -0.7096 -0.9462
  547MOL0     H73828  11.535   2.122   3.115  1.3474  3.4353 -0.1530
  547MOL0     H73829  11.306   1.865   3.056  0.1624  0.5731  2.5846
  547MOL0     H73830  11.133   1.719   2.939 -1.2366 -0.5660  0.1264
  547MOL0     H73831   9.659   0.939   3.170 -1.1371  1.2762  0.0226
  547MOL0     H73832   9.504   1.095   3.092  3.4301  2.1905 -1.7855
  547MOL0     H73833   9.033   1.191   3.069  3.0846 -0.8751  0.2064
  547MOL0     H73834   8.867   1.353   2.979  0.4500 -1.8378  1.2057
  547MOL0     H73835   8.874   1.523   2.525 -0.4452  2.2630 -0.0346
  547MOL0     H73836   8.817   1.360   2.532  1.6302  0.7278  1.2868
  547MOL0     H73837   8.652   1.598   2.653  0.0341 -1.9208  2.6329
  547MOL0     H73838   8.610   1.432   2.613 -0.3567 -0.0137 -0.9106
  547MOL0     H73839   8.629   1.465   2.378 -0.0042  3.4756 -3.5241
  547MOL0     H73840   8.695   1.629   2.400 -0.7648  0.9515 -0.0749
  547MOL0     H73841   8.410   1.531   2.480 -2.3860  0.9503 -2.6987
  547MOL0     H73842   8.453   1.648   2.356  0.1355  2.5536  1.5112
  547MOL0     H73843   8.467   1.904   2.684 -2.1499  1.0500 -2.2854
  547MOL0     H73844   9.051   1.326   2.598  5.1709  0.1195 -0.2335
  547MOL0     H73845   9.213   1.157   2.686  1.4596  0.5140  0.2061
  548MOL0     O73846   7.019   8.677   2.094 -0.8121  0.4185  0.3487
  548MOL0     C73847   7.112   8.638   2.023 -0.8993  0.1843 -0.7265
  548MOL0     O73848   7.218   8.724   1.989 -0.3750  1.0211 -0.0142
  548MOL0     C73849   7.208   8.849   2.039  0.2227 -0.8594  0.0997
  548MOL0     C73850   7.215   8.945   1.949 -0.9823  0.6170 -0.6495
  548MOL0     C73851   7.228   9.080   1.987  0.3755  0.7888  0.3408
  548MOL0     C73852   7.214   9.119   2.115 -0.0082 -0.6085 -0.7379
  548MOL0     O73853   7.208   9.259   2.146  0.0951  0.5251  0.7486
  548MOL0     C73854   7.185   9.298   2.285  0.2471 -0.1365  1.0702
  548MOL0     C73855   7.207   9.457   2.287  0.0461 -0.0928 -0.2715
  548MOL0     C73856   7.124   9.542   2.181  0.2886  0.7841  0.2010
  548MOL0     C73857   6.969   9.502   2.194 -0.9781  0.2872 -1.0365
  548MOL0     C73858   6.878   9.553   2.085 -0.4287  0.1963 -0.1783
  548MOL0     C73859   6.839   9.706   2.098 -0.2886  0.7796 -0.1254
  548MOL0     C73860   6.715   9.736   2.019 -0.0619  0.2711  0.6752
  548MOL0     C73861   6.698   9.888   2.009 -0.0766  0.4496  0.8115
  548MOL0     N73862   6.679   9.944   2.144 -0.2416  0.2094 -0.2362
  548MOL0     C73863   6.572   9.922   2.231 -0.4365 -0.4505  1.0315
  548MOL0     C73864   6.599   9.991   2.348  0.4146 -0.2663 -0.5952
  548MOL0     C73865   6.536   9.980   2.488 -0.5781  0.2288 -0.9544
  548MOL0     C73866   6.451  10.097   2.498  0.3378 -1.1991 -0.1711
  548MOL0     C73867   6.415  10.120   2.644 -0.7363 -0.7170 -0.0559
  548MOL0     C73868   6.309  10.227   2.677 -0.7254 -0.1238 -0.1661
  548MOL0     O73869   6.361  10.343   2.627 -0.8146  0.4401  0.6557
  548MOL0     C73870   6.275  10.428   2.569  0.3441 -0.2358  0.4728
  548MOL0     C73871   6.286  10.458   2.427 -0.5779 -0.1142 -0.1683
  548MOL0     C73872   6.192  10.536   2.356 -0.1707  0.2941  0.8836
  548MOL0     C73873   6.218  10.553   2.202 -0.0726 -0.8216 -0.1697
  548MOL0     C73874   6.077  10.574   2.426  0.1485  0.0479  0.1019
  548MOL0     C73875   5.970  10.646   2.364  0.9592  0.1716  0.1938
  548MOL0     O73876   5.856  10.664   2.436  0.3227 -0.3335 -0.5981
  548MOL0     C73877   5.809  10.795   2.450  0.8815  1.0405 -0.0628
  548MOL0     C73878   5.882  10.904   2.455 -0.2093 -0.3491 -0.6420
  548MOL0     C73879   5.830  11.028   2.469  0.0775 -0.3561 -0.8238
  548MOL0     C73880   5.688  11.042   2.464 -0.5486  0.4028 -0.0350
  548MOL0     O73881   5.620  11.165   2.469 -0.5926 -0.5989  0.1701
  548MOL0     C73882   5.689  11.291   2.454 -0.5633 -0.1204 -0.4905
  548MOL0     C73883   5.596  11.406   2.473  0.9049  0.3960  0.8498
  548MOL0     C73884   5.584  11.438   2.625  0.1324 -0.2090 -0.5743
  548MOL0     C73885   5.697  11.534   2.679 -0.2875 -0.6119  0.4921
  548MOL0     C73886   5.669  11.591   2.822 -0.4662  0.0887 -0.5249
  548MOL0     C73887   5.590  11.497   2.917  1.2378  0.7431 -0.2444
  548MOL0     C73888   5.559  11.566   3.052 -0.6050 -0.1606 -0.3769
  548MOL0     C73889   5.433  11.659   3.040 -0.5700  0.9538  0.5189
  548MOL0    Cl73890   5.283  11.571   3.092 -0.3340  0.1021  0.4489
  548MOL0     C73891   5.611  10.929   2.473  0.3081  0.7379 -0.0766
  548MOL0     C73892   5.676  10.807   2.462 -0.0965 -0.2484 -0.3675
  548MOL0     O73893   5.986  10.695   2.253  0.2747 -0.2872 -0.2767
  548MOL0     C73894   6.067  10.548   2.570 -0.0294  0.1261  0.0133
  548MOL0     C73895   6.172  10.486   2.642  0.3539 -0.4081  0.1164
  548MOL0     N73896   6.713  10.070   2.325  0.4410  0.3035  0.8737
  548MOL0     N73897   6.760  10.038   2.207 -0.7212 -0.3102 -0.4695
  548MOL0     C73898   7.203   9.021   2.216  0.4705 -0.8404  0.5944
  548MOL0     C73899   7.195   8.891   2.178 -0.5394 -0.7456 -0.3416
  548MOL0     C73900   7.111   8.497   1.980 -0.7023  0.2425  0.1255
  548MOL0     C73901   7.227   8.439   1.919 -0.7738 -0.4201 -1.0642
  548MOL0     C73902   7.223   8.306   1.878  0.6266  0.2238 -0.0984
  548MOL0     C73903   7.114   8.224   1.898  0.6185  0.0359 -0.7840
  548MOL0     O73904   7.123   8.098   1.856 -0.4230 -0.1657 -0.2213
  548MOL0     C73905   7.039   7.988   1.901  0.2282  0.5215  0.2053
  548MOL0     C73906   7.058   7.949   2.053 -0.1773  0.4272 -0.5992
  548MOL0     C73907   7.203   7.934   2.087 -1.6910  0.1603  0.6800
  548MOL0     C73908   7.233   7.859   2.217  0.8059  0.1143 -0.9278
  548MOL0     C73909   7.242   7.945   2.339  0.4050  0.1035  0.0420
  548MOL0     C73910   7.257   8.015   2.431 -0.0451  0.4575  0.2093
  548MOL0     C73911   6.996   8.285   1.943  1.2124  0.0476  0.1991
  548MOL0     C73912   6.991   8.416   1.989  0.3415 -0.3721 -0.5196
  548MOL0     H73913   7.215   8.912   1.846  2.1064 -0.2877 -0.4717
  548MOL0     H73914   7.227   9.155   1.909  0.9255 -0.8100 -1.2585
  548MOL0     H73915   7.085   9.269   2.318 -0.3959  1.2015  0.3420
  548MOL0     H73916   7.262   9.265   2.355  1.4815  0.7323  0.1691
  548MOL0     H73917   7.180   9.473   2.392  0.9492 -5.7244  1.1532
  548MOL0     H73918   7.308   9.497   2.270 -0.9687  2.3638 -0.9499
  548MOL0     H73919   7.136   9.650   2.186 -0.6239  1.0443 -2.1567
  548MOL0     H73920   7.162   9.496   2.089 -1.7716 -2.1818  0.6784
  548MOL0     H73921   6.951   9.395   2.184  1.0485 -0.2351  0.3680
  548MOL0     H73922   6.932   9.548   2.286  1.5551 -0.6422  0.5636
  548MOL0     H73923   6.921   9.524   1.988  0.7335  0.5779  0.2131
  548MOL0     H73924   6.785   9.496   2.092 -0.6956  0.4660 -1.3466
  548MOL0     H73925   6.830   9.713   2.207  1.2847 -0.3770  0.1095
  548MOL0     H73926   6.923   9.771   2.071  2.6833 -1.7845  2.1980
  548MOL0     H73927   6.718   9.688   1.921 -1.4958  0.5721  0.4531
  548MOL0     H73928   6.625   9.689   2.060 -0.6213 -0.6628 -1.4698
  548MOL0     H73929   6.612   9.930   1.955  0.8505  3.7880  1.7159
  548MOL0     H73930   6.789   9.934   1.970  1.5725 -1.3598  2.3235
  548MOL0     H73931   6.497   9.847   2.206  1.8512 -2.0319 -1.6055
  548MOL0     H73932   6.474   9.891   2.505  0.6307 -0.0188  3.1317
  548MOL0     H73933   6.599   9.979   2.577  0.2741 -1.2520 -1.5510
  548MOL0     H73934   6.361  10.089   2.436  1.0455 -0.2011 -1.3852
  548MOL0     H73935   6.504  10.189   2.472 -1.4696 -0.3295 -1.0027
  548MOL0     H73936   6.509  10.137   2.697 -0.5357  0.3343 -0.7048
  548MOL0     H73937   6.362  10.031   2.677 -0.2766 -0.1627  2.3169
  548MOL0     H73938   6.315  10.241   2.786 -0.4185  2.0883 -0.4065
  548MOL0     H73939   6.206  10.202   2.649 -1.0370  1.1961 -0.2541
  548MOL0     H73940   6.370  10.431   2.363 -0.7675  0.0327 -0.4814
  548MOL0     H73941   6.256  10.655   2.186 -0.8686 -0.4083  0.5222
  548MOL0     H73942   6.288  10.482   2.157  2.0214  0.7346  0.4704
  548MOL0     H73943   6.131  10.546   2.136  0.6920 -0.0135 -1.3112
  548MOL0     H73944   5.990  10.900   2.448 -0.1144  2.2663 -1.5624
  548MOL0     H73945   5.900  11.111   2.479  0.6080 -0.9771  0.8894
  548MOL0     H73946   5.769  11.292   2.527  0.8428 -1.0447 -1.9334
  548MOL0     H73947   5.730  11.304   2.353 -1.8806  0.9969 -0.9214
  548MOL0     H73948   5.654  11.487   2.428 -0.7193  2.3455  2.0828
  548MOL0     H73949   5.506  11.388   2.413  2.8509 -1.7558 -1.6828
  548MOL0     H73950   5.587  11.350   2.689 -1.8289  0.2156  0.2006
  548MOL0     H73951   5.489  11.493   2.632  0.3291 -0.0060  0.7344
  548MOL0     H73952   5.795  11.486   2.675  0.4214  0.8309 -2.8692
  548MOL0     H73953   5.711  11.616   2.608  0.6064  1.1675  2.5870
  548MOL0     H73954   5.617  11.685   2.801 -1.2179 -0.1142  0.3495
  548MOL0     H73955   5.767  11.621   2.861  0.9420 -1.0275 -2.9414
  548MOL0     H73956   5.498  11.473   2.861 -0.2842  0.5191  2.2038
  548MOL0     H73957   5.643  11.404   2.935  0.6739  0.5817  0.6422
  548MOL0     H73958   5.647  11.620   3.087 -1.7458  1.1179  0.6165
  548MOL0     H73959   5.556  11.499   3.139  5.0959 -0.3541  0.0353
  548MOL0     H73960   5.411  11.702   2.942 -1.0546 -2.7694 -1.1760
  548MOL0     H73961   5.446  11.749   3.101 -0.5116  1.2300  0.1036
  548MOL0     H73962   5.503  10.933   2.470  0.2692  4.6516 -3.6066
  548MOL0     H73963   5.609  10.722   2.453 -0.7225  0.1993 -0.0137
  548MOL0     H73964   5.976  10.577   2.622 -0.6486 -1.0421 -0.3716
  548MOL0     H73965   6.179  10.467   2.749  0.1751  2.1551  0.6537
  548MOL0     H73966   7.197   9.033   2.324  0.4487 -2.3036  0.7712
  548MOL0     H73967   7.186   8.810   2.249  1.3819 -1.4938 -0.9081
  548MOL0     H73968   7.317   8.499   1.906 -0.3190 -0.9160 -0.3025
  548MOL0     H73969   7.314   8.254   1.850 -1.0073 -2.2575 -1.2013
  548MOL0     H73970   6.936   8.018   1.881  0.0898  2.6976  3.4289
  548MOL0     H73971   7.061   7.911   1.826 -2.3193 -0.2853  0.1947
  548MOL0     H73972   7.025   7.845   2.068  0.0771  0.3243 -0.7538
  548MOL0     H73973   7.000   8.017   2.116 -1.0896 -2.4473  1.8875
  548MOL0     H73974   7.246   8.035   2.082 -0.8124 -0.1405  1.7456
  548MOL0     H73975   7.258   7.878   2.012  0.1061 -1.6810  3.2205
  548MOL0     H73976   7.329   7.814   2.193  1.5367  1.8260 -1.3781
  548MOL0     H73977   7.156   7.782   2.226 -0.6747  1.5339 -0.7763
  548MOL0     H73978   7.255   8.086   2.511 -3.9025  2.1916 -1.1644
  548MOL0     H73979   6.898   8.239   1.933  0.4953  1.6728 -0.6786
  548MOL0     H73980   6.892   8.459   2.004 -0.8990 -2.5803 -1.6847
  549MOL0     O73981   0.654   7.800   9.352 -0.0206  0.1635  0.0658
  549MOL0     C73982   0.612   7.908   9.310  0.3113  0.1431  1.0956
  549MOL0     O73983   0.591   8.018   9.389 -0.3228 -0.6149 -0.6563
  549MOL0     C73984   0.605   8.006   9.524  0.6616 -0.7648  0.2386
  549MOL0     C73985   0.717   7.955   9.585 -0.3975 -0.1916  0.1104
  549MOL0     C73986   0.736   7.954   9.723 -0.7975 -0.5121 -0.3559
  549MOL0     C73987   0.645   8.016   9.806  1.0227  0.0951  0.1530
  549MOL0     O73988   0.649   8.016   9.937  0.0582  0.4088 -0.4535
  549MOL0     C73989   0.781   8.029  10.001 -0.1701  0.0698 -0.5683
  549MOL0     C73990   0.762   8.076  10.150  1.1724  0.1424  1.0860
  549MOL0     C73991   0.879   8.103  10.233 -0.4677  0.0977  0.4286
  549MOL0     C73992   0.851   8.121  10.383 -0.7035  0.4980  0.3934
  549MOL0     C73993   0.754   8.242  10.421  0.2067  0.2527  0.1779
  549MOL0     C73994   0.727   8.250  10.575  0.2002  0.3790  0.4320
  549MOL0     C73995   0.706   8.398  10.632  0.7541  0.0832 -0.0016
  549MOL0     C73996   0.845   8.466  10.644  0.5210  1.2165  0.0063
  549MOL0     N73997   0.904   8.437  10.774 -0.5108 -0.5951 -0.5512
  549MOL0     C73998   0.989   8.340  10.810  0.5205  0.3303  0.4108
  549MOL0     C73999   1.014   8.353  10.940  0.5282  0.0954 -0.1597
  549MOL0     C74000   1.076   8.252  11.022  0.0706 -0.3223  0.3618
  549MOL0     C74001   1.090   8.296  11.166  1.1872  0.5025  0.4987
  549MOL0     C74002   0.980   8.249  11.257 -0.4885  0.0724  0.2202
  549MOL0     C74003   1.024   8.291  11.402 -0.2262 -0.1015  0.3301
  549MOL0     O74004   0.991   8.200  11.517 -0.5440  0.3602 -0.4593
  549MOL0     C74005   0.863   8.184  11.573  0.6161 -0.9812 -0.5407
  549MOL0     C74006   0.755   8.260  11.528 -0.1723  0.1876  0.0108
  549MOL0     C74007   0.621   8.235  11.582  0.2005  0.3641 -1.1483
  549MOL0     C74008   0.507   8.311  11.528  0.2660  0.4393  0.7828
  549MOL0     C74009   0.597   8.124  11.668  0.2346  0.2397 -0.5099
  549MOL0     C74010   0.457   8.082  11.718 -0.4341  0.6245 -0.0085
  549MOL0     O74011   0.470   7.977  11.803 -0.5356 -0.0156  0.0429
  549MOL0     C74012   0.360   7.914  11.851  0.1500  1.1899 -0.0821
  549MOL0     C74013   0.360   7.774  11.865 -0.6890  0.2106  0.6091
  549MOL0     C74014   0.244   7.699  11.899 -1.1113 -0.0800 -0.2610
  549MOL0     C74015   0.128   7.768  11.930 -0.1140  0.6581 -0.4409
  549MOL0     O74016   0.003   7.710  11.953 -0.7524 -0.5927  0.4669
  549MOL0     C74017  -0.037   7.624  11.840  0.8974  0.6780 -0.0508
  549MOL0     C74018  -0.183   7.583  11.833 -0.5547 -0.2701 -0.1373
  549MOL0     C74019  -0.282   7.697  11.855 -0.8303  0.1410  0.8481
  549MOL0     C74020  -0.417   7.646  11.827 -0.3603 -0.2158 -0.3039
  549MOL0     C74021  -0.515   7.760  11.807 -0.4270 -0.1141 -0.5669
  549MOL0     C74022  -0.544   7.837  11.938 -0.7476  0.5592  0.7721
  549MOL0     C74023  -0.660   7.936  11.909  1.0278  0.6928  0.7503
  549MOL0     C74024  -0.660   8.056  12.003 -0.2419 -0.1539  0.3815
  549MOL0    Cl74025  -0.712   7.992  12.171 -0.4322 -0.1767  0.2730
  549MOL0     C74026   0.127   7.901  11.936  0.3976  0.3676 -0.1917
  549MOL0     C74027   0.243   7.969  11.901  0.2069  0.3927 -0.1791
  549MOL0     O74028   0.358   8.135  11.685 -1.3377 -0.0795  0.0498
  549MOL0     C74029   0.717   8.050  11.706  0.0828  0.0499  0.0297
  549MOL0     C74030   0.840   8.083  11.665 -0.1019  0.6910 -0.7394
  549MOL0     N74031   0.947   8.470  10.977  0.8096  0.0557  0.6670
  549MOL0     N74032   0.891   8.522  10.876 -0.1796 -0.1533  0.1125
  549MOL0     C74033   0.538   8.082   9.744 -0.4529  0.2525 -0.4151
  549MOL0     C74034   0.517   8.082   9.602 -0.5602  0.6213 -0.0525
  549MOL0     C74035   0.583   7.909   9.159 -0.2148 -0.9566 -0.1153
  549MOL0     C74036   0.519   8.030   9.102  0.1510 -0.1865  0.4266
  549MOL0     C74037   0.491   8.039   8.967 -0.0231  0.9457 -0.4193
  549MOL0     C74038   0.518   7.925   8.888 -0.5707  0.9909 -0.8638
  549MOL0     O74039   0.455   7.918   8.767  0.5525 -0.2130  0.1307
  549MOL0     C74040   0.431   7.790   8.699  0.3457  0.7300 -0.8668
  549MOL0     C74041   0.554   7.739   8.628 -0.3905  0.4713 -1.0265
  549MOL0     C74042   0.563   7.789   8.483  0.0672  0.4270 -0.3462
  549MOL0     C74043   0.697   7.756   8.404 -0.4491 -0.3436 -0.6969
  549MOL0     C74044   0.754   7.623   8.430 -0.4817 -0.7123 -0.7441
  549MOL0     C74045   0.783   7.509   8.464 -1.0795 -0.0925  0.1870
  549MOL0     C74046   0.574   7.812   8.951  0.1421  0.1279  0.3483
  549MOL0     C74047   0.606   7.804   9.080  0.8738 -0.3851 -0.9366
  549MOL0     H74048   0.791   7.927   9.511 -2.0060 -3.2076 -0.5190
  549MOL0     H74049   0.827   7.912   9.765 -0.5359  0.1526 -0.2526
  549MOL0     H74050   0.832   7.932   9.996  1.9406  1.0612  0.2493
  549MOL0     H74051   0.856   8.083   9.943  2.6813 -1.8220  1.1044
  549MOL0     H74052   0.694   8.161  10.144  2.8205  1.4095 -1.7526
  549MOL0     H74053   0.702   7.995  10.193 -0.3830  2.3207  3.2797
  549MOL0     H74054   0.952   8.023  10.226 -0.0448  0.5086  0.0408
  549MOL0     H74055   0.923   8.194  10.190  3.7369 -1.2369  1.5315
  549MOL0     H74056   0.801   8.031  10.421 -0.2753 -0.3764 -1.0258
  549MOL0     H74057   0.942   8.125  10.444 -1.7164 -0.2838  2.0407
  549MOL0     H74058   0.792   8.339  10.387 -0.8217  0.1656 -1.3100
  549MOL0     H74059   0.658   8.223  10.373 -1.4302  0.4247  3.1809
  549MOL0     H74060   0.639   8.190  10.600  0.9406 -0.3477  1.3262
  549MOL0     H74061   0.804   8.199  10.633 -0.4733 -2.0016 -0.6485
  549MOL0     H74062   0.639   8.450  10.563 -0.6310  0.1972  1.3811
  549MOL0     H74063   0.652   8.386  10.726 -0.4615 -0.3717 -0.7428
  549MOL0     H74064   0.837   8.573  10.619 -2.0415  0.7779 -1.5156
  549MOL0     H74065   0.915   8.431  10.568  0.5810  0.3202  0.4708
  549MOL0     H74066   1.021   8.257  10.748 -1.9685  1.0798 -2.0804
  549MOL0     H74067   1.016   8.161  11.011  0.5000 -0.3267 -3.2786
  549MOL0     H74068   1.178   8.234  10.987  2.3264  2.9952  4.3652
  549MOL0     H74069   1.096   8.406  11.161  0.3078  0.5493  0.3239
  549MOL0     H74070   1.179   8.241  11.196  0.2263 -3.3174 -2.8667
  549MOL0     H74071   0.970   8.141  11.244 -0.9033  0.1692 -0.2692
  549MOL0     H74072   0.888   8.301  11.229 -1.0621  0.3363  2.3554
  549MOL0     H74073   0.996   8.395  11.421  2.8338  0.9998 -0.5889
  549MOL0     H74074   1.132   8.308  11.394 -0.3823 -0.1101 -2.9553
  549MOL0     H74075   0.752   8.326  11.442 -1.6803 -2.5067 -2.1752
  549MOL0     H74076   0.466   8.248  11.449 -0.6926  3.5309 -1.3859
  549MOL0     H74077   0.428   8.354  11.589  0.2071  1.0492  0.2819
  549MOL0     H74078   0.547   8.392  11.466 -0.1362  1.5431  1.9288
  549MOL0     H74079   0.455   7.727  11.843  0.0778  2.1822 -0.4946
  549MOL0     H74080   0.236   7.591  11.892 -0.2818 -0.1121 -0.8371
  549MOL0     H74081  -0.007   7.674  11.747  0.1212 -2.0994 -1.9252
  549MOL0     H74082   0.012   7.526  11.839 -0.1676  0.1206  0.7916
  549MOL0     H74083  -0.197   7.536  11.735 -1.1435  3.9288 -2.2903
  549MOL0     H74084  -0.196   7.514  11.916 -1.6073 -1.1315 -0.9893
  549MOL0     H74085  -0.264   7.781  11.787  2.0648  0.3103  1.6704
  549MOL0     H74086  -0.287   7.733  11.959  3.9611  0.1314  1.3271
  549MOL0     H74087  -0.422   7.572  11.747 -2.3336  1.5651 -1.9512
  549MOL0     H74088  -0.452   7.594  11.918 -0.2755  2.0346  1.0768
  549MOL0     H74089  -0.602   7.718  11.756  0.2938 -2.1884 -0.1993
  549MOL0     H74090  -0.468   7.830  11.737  1.0825  1.7376  2.0922
  549MOL0     H74091  -0.566   7.763  12.015  0.8593 -0.7886 -0.0057
  549MOL0     H74092  -0.454   7.891  11.968  0.5898 -0.9888 -0.2661
  549MOL0     H74093  -0.751   7.879  11.929  2.3840 -0.7839  3.2980
  549MOL0     H74094  -0.664   7.968  11.805  0.4525 -2.5951 -0.3454
  549MOL0     H74095  -0.730   8.130  11.963 -0.0417 -0.9151 -1.4712
  549MOL0     H74096  -0.560   8.102  11.999  0.0376 -0.8322 -2.4569
  549MOL0     H74097   0.034   7.953  11.957  0.2225 -0.4971  1.3518
  549MOL0     H74098   0.245   8.077  11.914 -1.9014  0.3936  0.4915
  549MOL0     H74099   0.709   7.960  11.766  2.5719 -0.0287  0.3584
  549MOL0     H74100   0.924   8.015  11.676 -2.0714 -1.9052 -0.7166
  549MOL0     H74101   0.470   8.133   9.811 -2.2545 -0.2957 -1.7395
  549MOL0     H74102   0.426   8.128   9.564  0.2356  0.5020 -2.2122
  549MOL0     H74103   0.484   8.108   9.169  0.0068 -0.3059  0.4902
  549MOL0     H74104   0.450   8.132   8.928 -1.3479  0.9301  0.8735
  549MOL0     H74105   0.395   7.720   8.775  0.1176  0.7375 -0.9681
  549MOL0     H74106   0.351   7.799   8.625  0.4783 -0.4008 -1.1792
  549MOL0     H74107   0.543   7.631   8.638 -0.5638  0.6482  1.2416
  549MOL0     H74108   0.642   7.770   8.685  1.0644 -0.6514 -2.5421
  549MOL0     H74109   0.527   7.892   8.474 -0.9255  0.1474  0.3318
  549MOL0     H74110   0.500   7.720   8.426  0.3232 -0.7570  0.7563
  549MOL0     H74111   0.777   7.829   8.419 -0.2523 -0.6346 -0.3337
  549MOL0     H74112   0.670   7.766   8.298 -2.8223  2.4195  0.0277
  549MOL0     H74113   0.808   7.408   8.489  0.9099 -0.7061 -3.5500
  549MOL0     H74114   0.596   7.724   8.892 -0.1480  0.5629 -0.4161
  549MOL0     H74115   0.647   7.712   9.121 -2.1616  0.0801  4.0953
  550MOL0     O74116   6.541   0.169   9.669  0.4161 -0.6038  0.1247
  550MOL0     C74117   6.462   0.150   9.576  0.1229  0.7217  0.0143
  550MOL0     O74118   6.344   0.225   9.559 -0.5712 -1.0645  0.4634
  550MOL0     C74119   6.321   0.290   9.670 -0.2224 -0.3048 -2.0173
  550MOL0     C74120   6.259   0.236   9.778 -0.1205 -0.5279 -0.1832
  550MOL0     C74121   6.246   0.303   9.898  0.2354 -0.3528 -0.2555
  550MOL0     C74122   6.295   0.436   9.913 -0.7640  0.0617  0.3653
  550MOL0     O74123   6.275   0.496  10.033  0.7052  0.3283  0.0544
  550MOL0     C74124   6.268   0.639  10.045 -0.0673 -0.3179 -0.4175
  550MOL0     C74125   6.131   0.671  10.102 -0.1234 -0.6265  1.3072
  550MOL0     C74126   6.100   0.571  10.218  0.1552  0.4274  0.0435
  550MOL0     C74127   5.967   0.616  10.290  0.5700 -0.0092  0.8128
  550MOL0     C74128   5.929   0.514  10.393 -0.0202  0.8870 -0.8679
  550MOL0     C74129   5.818   0.429  10.347  0.8209  0.6653  0.2099
  550MOL0     C74130   5.833   0.349  10.219  0.4942  1.5203  0.4903
  550MOL0     C74131   5.733   0.236  10.201  0.5035  0.1541  0.0706
  550MOL0     N74132   5.590   0.263  10.196  0.5802 -0.3223 -0.0530
  550MOL0     C74133   5.490   0.179  10.209  0.5800  0.4973 -0.2323
  550MOL0     C74134   5.373   0.247  10.187 -0.1406  0.4961  0.3861
  550MOL0     C74135   5.235   0.198  10.194 -0.8165  0.1450 -0.0164
  550MOL0     C74136   5.157   0.255  10.320  0.3599  0.6438  0.5018
  550MOL0     C74137   5.165   0.404  10.338 -0.4259  0.4656  0.6745
  550MOL0     C74138   5.043   0.450  10.412  0.5261 -0.6497 -0.0766
  550MOL0     O74139   5.051   0.593  10.455  0.7000 -0.3635  0.0145
  550MOL0     C74140   5.134   0.635  10.559 -0.6692 -0.0970 -0.5042
  550MOL0     C74141   5.187   0.555  10.667  0.2741 -0.6726  0.9562
  550MOL0     C74142   5.242   0.608  10.782  0.0522  0.1416 -0.6422
  550MOL0     C74143   5.265   0.497  10.887 -0.7961 -0.1512 -0.8416
  550MOL0     C74144   5.260   0.749  10.792  0.2198  0.7557  0.0784
  550MOL0     C74145   5.326   0.815  10.909  0.9965  0.1576  0.0243
  550MOL0     O74146   5.333   0.951  10.903 -0.5864 -0.2908  0.1029
  550MOL0     C74147   5.308   1.022  11.019 -0.1367 -0.3762  0.0215
  550MOL0     C74148   5.236   0.975  11.136  0.4039 -0.3781 -0.3238
  550MOL0     C74149   5.198   1.063  11.234  0.1341  0.5620 -0.0237
  550MOL0     C74150   5.249   1.191  11.237 -0.2177 -0.2678 -0.3640
  550MOL0     O74151   5.237   1.288  11.341 -0.6944 -0.2421 -1.2275
  550MOL0     C74152   5.283   1.241  11.469  0.0636 -1.0114 -0.3576
  550MOL0     C74153   5.431   1.246  11.467  1.2368  0.3367  0.1306
  550MOL0     C74154   5.493   1.379  11.434  0.6636 -0.5599  0.4970
  550MOL0     C74155   5.642   1.394  11.456  0.3048 -0.1880  0.3936
  550MOL0     C74156   5.671   1.392  11.612  0.2032 -0.4773 -0.7114
  550MOL0     C74157   5.810   1.417  11.651 -0.0026 -0.4772 -0.0015
  550MOL0     C74158   5.816   1.418  11.808 -0.1122  0.1137  0.2659
  550MOL0     C74159   5.953   1.456  11.864  0.9090 -0.6341 -1.0033
  550MOL0    Cl74160   6.081   1.344  11.810 -0.1451  0.4491  0.1851
  550MOL0     C74161   5.327   1.233  11.129  0.6854  0.4938  0.3467
  550MOL0     C74162   5.345   1.156  11.014 -0.2338 -0.0309  0.3703
  550MOL0     O74163   5.354   0.748  11.014  0.3400 -0.0571  0.1413
  550MOL0     C74164   5.228   0.830  10.675 -0.3309  0.8710 -0.5683
  550MOL0     C74165   5.169   0.767  10.568 -0.3286  0.6464  0.1122
  550MOL0     N74166   5.405   0.373  10.161  0.2942  0.6105  0.5453
  550MOL0     N74167   5.531   0.380  10.155 -0.1102  0.2978  1.5936
  550MOL0     C74168   6.355   0.490   9.799 -0.3036 -0.1701  0.0298
  550MOL0     C74169   6.371   0.415   9.687  0.1603  0.4626 -0.2128
  550MOL0     C74170   6.499   0.059   9.457  1.1202 -0.3105  0.0785
  550MOL0     C74171   6.412   0.067   9.346  0.0517  0.0126  0.8335
  550MOL0     C74172   6.429  -0.010   9.228  1.1935  0.1227  0.7754
  550MOL0     C74173   6.530  -0.107   9.230  0.3911  0.4561  0.2448
  550MOL0     O74174   6.555  -0.193   9.126  0.7122 -0.0133 -0.4358
  550MOL0     C74175   6.449  -0.295   9.116 -0.3271 -0.3604  0.2516
  550MOL0     C74176   6.481  -0.369   8.991  0.5880  0.1159 -0.1609
  550MOL0     C74177   6.358  -0.442   8.956  1.4829 -0.1856  0.2485
  550MOL0     C74178   6.384  -0.534   8.841 -0.7156  0.1165  0.1656
  550MOL0     C74179   6.318  -0.667   8.851 -0.1523 -0.0811 -0.1012
  550MOL0     C74180   6.260  -0.775   8.857 -0.4555  0.2543  0.7247
  550MOL0     C74181   6.614  -0.113   9.341  0.2371 -0.5140 -0.0801
  550MOL0     C74182   6.601  -0.030   9.452  0.1065  1.1549 -0.8039
  550MOL0     H74183   6.222   0.134   9.785  1.6578 -1.1856  0.5994
  550MOL0     H74184   6.194   0.251   9.978 -2.6161  0.0456 -1.7185
  550MOL0     H74185   6.344   0.679  10.113 -2.2648 -0.1735  2.1461
  550MOL0     H74186   6.285   0.687   9.948  0.1463 -1.6564 -1.0652
  550MOL0     H74187   6.144   0.774  10.136 -0.6473 -0.6556  1.6123
  550MOL0     H74188   6.048   0.674  10.030 -2.0561  0.2209  3.4240
  550MOL0     H74189   6.081   0.469  10.185 -2.2578  0.7679  0.2353
  550MOL0     H74190   6.183   0.573  10.290  1.1040  0.6845 -1.0181
  550MOL0     H74191   5.982   0.717  10.327  0.1348  1.7668 -3.2536
  550MOL0     H74192   5.885   0.612  10.217  0.8456  0.6062  0.4613
  550MOL0     H74193   6.016   0.458  10.428 -0.5493  0.3298 -0.4302
  550MOL0     H74194   5.894   0.554  10.489  0.1957 -2.5211  0.7971
  550MOL0     H74195   5.802   0.366  10.434  1.2796 -2.8777 -2.0683
  550MOL0     H74196   5.736   0.500  10.334 -0.7302 -1.0560  0.1671
  550MOL0     H74197   5.813   0.419  10.137 -2.5623  0.0354 -0.1469
  550MOL0     H74198   5.929   0.297  10.225 -1.1719 -1.7880  0.8217
  550MOL0     H74199   5.736   0.166  10.285 -3.1894  0.8380  0.9314
  550MOL0     H74200   5.767   0.190  10.109  0.4192 -0.2638  0.2477
  550MOL0     H74201   5.490   0.074  10.237 -1.6055  0.9333  1.6143
  550MOL0     H74202   5.178   0.239  10.110 -1.4223  0.7600  0.6830
  550MOL0     H74203   5.238   0.090  10.182  0.4355 -0.1077  2.0297
  550MOL0     H74204   5.177   0.198  10.411 -1.1270 -1.0110 -0.1500
  550MOL0     H74205   5.058   0.222  10.288  0.9631 -1.1572  0.3955
  550MOL0     H74206   5.187   0.449  10.240 -1.4359  3.1213  1.5863
  550MOL0     H74207   5.244   0.425  10.411  1.3399 -2.3468 -0.2608
  550MOL0     H74208   5.025   0.381  10.495 -2.0221 -1.2176 -1.0091
  550MOL0     H74209   4.956   0.439  10.346  1.3589 -1.3034 -1.0956
  550MOL0     H74210   5.163   0.453  10.641 -3.0347  1.0241 -4.1050
  550MOL0     H74211   5.201   0.508  10.976  0.1998  0.3357 -0.1657
  550MOL0     H74212   5.267   0.396  10.846  1.1031 -0.0892 -0.9789
  550MOL0     H74213   5.364   0.525  10.925 -2.9247  3.9781  2.6464
  550MOL0     H74214   5.193   0.876  11.144  1.4063 -1.0262 -2.2719
  550MOL0     H74215   5.111   1.038  11.295 -0.8513  1.8845 -0.8382
  550MOL0     H74216   5.240   1.306  11.545  2.5344 -1.8759  1.9627
  550MOL0     H74217   5.250   1.142  11.501 -2.9493  0.4974  1.6348
  550MOL0     H74218   5.450   1.217  11.571  0.4761  2.1049  0.8031
  550MOL0     H74219   5.474   1.166  11.407 -0.7399  0.7969 -2.0355
  550MOL0     H74220   5.444   1.460  11.489 -0.2305 -1.3389  0.8687
  550MOL0     H74221   5.481   1.397  11.327 -3.0724  0.3309  0.9587
  550MOL0     H74222   5.697   1.315  11.403 -0.4846 -1.5199  1.4848
  550MOL0     H74223   5.671   1.492  11.417  0.6943 -0.8906 -1.1692
  550MOL0     H74224   5.633   1.300  11.657  1.6055  0.1982  2.0801
  550MOL0     H74225   5.608   1.471  11.653 -1.2219 -1.6046 -0.6640
  550MOL0     H74226   5.889   1.347  11.619  2.4980  1.0600  2.3768
  550MOL0     H74227   5.841   1.516  11.616 -2.2682  0.5844  0.8697
  550MOL0     H74228   5.793   1.318  11.845 -0.2289  1.0797  3.0019
  550MOL0     H74229   5.740   1.488  11.843  0.2114 -0.0616  1.3332
  550MOL0     H74230   5.940   1.435  11.971  0.2588 -0.9279 -1.1368
  550MOL0     H74231   5.980   1.560  11.843  2.4565 -0.4585  1.4597
  550MOL0     H74232   5.365   1.332  11.108 -0.6538  1.3306  1.6906
  550MOL0     H74233   5.409   1.182  10.931  1.6085 -1.7284  1.1892
  550MOL0     H74234   5.249   0.936  10.678  1.0741  0.6026 -0.1225
  550MOL0     H74235   5.128   0.824  10.484  1.7115 -1.7132 -2.6991
  550MOL0     H74236   6.391   0.592   9.797  1.5813 -0.7974  0.2354
  550MOL0     H74237   6.436   0.452   9.608  3.5385  0.5016  2.3225
  550MOL0     H74238   6.327   0.133   9.338 -1.8174 -2.4332 -1.5129
  550MOL0     H74239   6.374   0.011   9.137  4.0094 -2.2477 -1.6725
  550MOL0     H74240   6.454  -0.364   9.201 -2.1059 -2.3908 -1.1818
  550MOL0     H74241   6.350  -0.249   9.109  0.3806  1.9617  3.3504
  550MOL0     H74242   6.564  -0.435   9.015  2.1827  2.2985  0.5753
  550MOL0     H74243   6.517  -0.307   8.908  2.9078 -2.6610 -1.3740
  550MOL0     H74244   6.279  -0.374   8.921  0.5614 -2.0834 -1.6063
  550MOL0     H74245   6.305  -0.492   9.037  1.1975  2.4499  1.8136
  550MOL0     H74246   6.491  -0.556   8.834 -0.6533  0.2162  0.7042
  550MOL0     H74247   6.346  -0.485   8.751 -0.3603  0.1656  0.0394
  550MOL0     H74248   6.218  -0.873   8.857  0.2198 -0.0364  1.3581
  550MOL0     H74249   6.692  -0.188   9.338 -1.5154 -2.3956 -1.4959
  550MOL0     H74250   6.677  -0.036   9.530 -2.6647 -1.0276  1.9776
  551MOL0     O74251   7.603   7.972  10.369  0.4844  0.3647 -0.4996
  551MOL0     C74252   7.615   7.950  10.248  0.5129  0.2799  0.9466
  551MOL0     O74253   7.711   8.011  10.172 -0.2545  0.7539 -0.4832
  551MOL0     C74254   7.776   8.114  10.242 -0.0463 -1.1807  0.1991
  551MOL0     C74255   7.909   8.100  10.292 -0.6243  0.1584  0.0512
  551MOL0     C74256   7.969   8.209  10.356  0.5027  0.0357 -1.0585
  551MOL0     C74257   7.897   8.326  10.365  0.4771 -0.2808 -0.2833
  551MOL0     O74258   7.951   8.441  10.415 -0.6145  0.6005  0.8334
  551MOL0     C74259   8.042   8.493  10.321 -1.0514 -0.5184  0.0982
  551MOL0     C74260   7.989   8.593  10.211 -0.7383 -1.0843  0.6491
  551MOL0     C74261   7.910   8.712  10.275 -0.6665  1.1426  0.3086
  551MOL0     C74262   7.910   8.834  10.188  0.3215 -0.0234  0.6678
  551MOL0     C74263   7.787   8.933  10.211 -0.8605 -0.3458  0.3888
  551MOL0     C74264   7.790   8.988  10.356 -0.6207 -0.4072 -0.0216
  551MOL0     C74265   7.935   9.037  10.403  0.2086  0.1679 -0.9011
  551MOL0     C74266   7.984   9.170  10.322 -0.2219  0.0371 -0.2649
  551MOL0     N74267   7.882   9.270  10.364 -0.5243  0.7010 -0.1267
  551MOL0     C74268   7.767   9.301  10.289  0.4063  0.1179  0.5810
  551MOL0     C74269   7.681   9.362  10.373 -0.1949  0.1073  0.1019
  551MOL0     C74270   7.530   9.392  10.351  0.0768  0.9238  0.2690
  551MOL0     C74271   7.436   9.275  10.407 -0.6630 -0.2324 -0.1016
  551MOL0     C74272   7.280   9.299  10.388  0.4142  0.5712 -0.9304
  551MOL0     C74273   7.227   9.321  10.241 -0.6556 -0.2012  0.2712
  551MOL0     O74274   7.303   9.249  10.142 -0.3509 -0.2771  0.1799
  551MOL0     C74275   7.269   9.122  10.114 -0.7631  0.5847 -0.3046
  551MOL0     C74276   7.170   9.048  10.173  0.5494  0.0756 -0.2974
  551MOL0     C74277   7.143   8.917  10.131 -0.5500  0.0011  0.0099
  551MOL0     C74278   7.031   8.842  10.205 -0.7115 -0.0147  0.3926
  551MOL0     C74279   7.218   8.862  10.026 -0.2899 -0.0425 -0.0150
  551MOL0     C74280   7.174   8.731   9.972 -0.2370  0.1600  0.3855
  551MOL0     O74281   7.039   8.731   9.944 -0.2402 -0.4254 -0.0242
  551MOL0     C74282   6.963   8.637   9.889  1.1214 -0.0625 -0.3781
  551MOL0     C74283   6.983   8.493   9.906 -0.4373 -1.0673  0.1520
  551MOL0     C74284   6.907   8.405   9.826 -0.3217  0.0192 -0.3359
  551MOL0     C74285   6.807   8.451   9.742  0.0226 -0.8225 -0.3132
  551MOL0     O74286   6.727   8.350   9.679  0.2646 -0.0967  0.4561
  551MOL0     C74287   6.587   8.382   9.669 -0.5002 -0.8371  0.1415
  551MOL0     C74288   6.498   8.259   9.640  0.1584  0.3690 -0.2932
  551MOL0     C74289   6.477   8.182   9.773 -0.1846  0.1869  1.5775
  551MOL0     C74290   6.390   8.055   9.760 -0.7969 -0.0061 -0.2334
  551MOL0     C74291   6.432   7.954   9.662 -0.3265  0.2619 -0.7557
  551MOL0     C74292   6.572   7.892   9.692 -1.2098 -0.5171 -0.4004
  551MOL0     C74293   6.636   7.819   9.569 -0.0350 -0.0431  0.0166
  551MOL0     C74294   6.779   7.794   9.576  0.0048 -0.8375 -0.1126
  551MOL0    Cl74295   6.843   7.791   9.411  0.6119  0.1218  0.0753
  551MOL0     C74296   6.796   8.589   9.728 -0.4365  0.9686  0.4864
  551MOL0     C74297   6.875   8.679   9.792  0.3089 -0.1408  0.1344
  551MOL0     O74298   7.254   8.652   9.929  0.0226  0.4071  0.1084
  551MOL0     C74299   7.329   8.931   9.974 -0.3011  0.6458 -0.7843
  551MOL0     C74300   7.349   9.065  10.009  0.0815 -0.2296 -0.3314
  551MOL0     N74301   7.737   9.376  10.496  0.0043 -0.5542  1.1254
  551MOL0     N74302   7.852   9.313  10.488  0.0867  0.2318  0.8525
  551MOL0     C74303   7.774   8.340  10.314  0.7972  0.9832 -0.4615
  551MOL0     C74304   7.710   8.235  10.254 -0.5030  0.0449  0.2239
  551MOL0     C74305   7.529   7.844  10.201 -0.1674 -1.0631 -0.6789
  551MOL0     C74306   7.545   7.763  10.089 -0.3189  0.2086  0.1593
  551MOL0     C74307   7.480   7.648  10.069 -0.4599  0.8060 -0.4719
  551MOL0     C74308   7.356   7.622  10.132 -0.1093  0.9318 -0.4561
  551MOL0     O74309   7.266   7.527  10.094  0.4088  0.3654  0.3017
  551MOL0     C74310   7.200   7.441  10.189  0.5650 -0.1821  0.1069
  551MOL0     C74311   7.045   7.488  10.194  0.6361 -0.0169  0.0482
  551MOL0     C74312   6.950   7.417  10.093 -0.1120  0.7221 -0.8862
  551MOL0     C74313   6.798   7.441  10.094  0.7035 -0.0491  0.1298
  551MOL0     C74314   6.742   7.364   9.980  0.3358 -0.0287  0.6425
  551MOL0     C74315   6.687   7.297   9.896 -0.3918  1.0967  0.3975
  551MOL0     C74316   7.331   7.704  10.240 -0.7217 -0.4452 -0.1814
  551MOL0     C74317   7.407   7.813  10.270  0.9797 -0.1870 -0.2813
  551MOL0     H74318   7.950   8.001  10.276 -1.5718 -0.1419 -0.5834
  551MOL0     H74319   8.070   8.221  10.394  0.2120  1.9997 -0.7946
  551MOL0     H74320   8.108   8.559  10.379  0.7600 -0.7132 -1.6374
  551MOL0     H74321   8.110   8.422  10.273 -1.2524 -0.6927  0.0717
  551MOL0     H74322   8.071   8.637  10.153 -3.2992 -0.3301 -2.7021
  551MOL0     H74323   7.938   8.538  10.131  1.0174  0.8478 -1.9551
  551MOL0     H74324   7.812   8.675  10.307 -0.2942 -0.0121  0.1969
  551MOL0     H74325   7.955   8.731  10.374 -2.6932  0.1763  1.4796
  551MOL0     H74326   8.006   8.886  10.192 -2.5928  6.1925  2.2474
  551MOL0     H74327   7.908   8.807  10.082  2.1485 -4.1763  1.5055
  551MOL0     H74328   7.791   9.017  10.141  2.6016 -1.4719 -1.0262
  551MOL0     H74329   7.697   8.875  10.190 -1.5170  1.9097 -4.3275
  551MOL0     H74330   7.705   9.057  10.361  0.7754  1.3388  2.0232
  551MOL0     H74331   7.767   8.906  10.424 -0.5719 -1.5046 -1.2895
  551MOL0     H74332   7.911   9.065  10.506  0.7664  2.7575 -1.4055
  551MOL0     H74333   8.011   8.960  10.390  1.5219  1.6554 -2.4137
  551MOL0     H74334   7.992   9.157  10.214  1.7265 -1.8992  0.0316
  551MOL0     H74335   8.086   9.193  10.356  0.3455  0.0913 -1.9339
  551MOL0     H74336   7.731   9.271  10.191 -0.0006  1.5812  0.2476
  551MOL0     H74337   7.491   9.485  10.393  1.8931  2.5752 -1.4961
  551MOL0     H74338   7.509   9.394  10.244  3.5006 -0.4400 -0.5581
  551MOL0     H74339   7.463   9.263  10.512 -3.9481  2.0410  1.1501
  551MOL0     H74340   7.476   9.186  10.357  2.6373  0.6423  0.7362
  551MOL0     H74341   7.246   9.374  10.460  1.9937  1.3252 -0.9280
  551MOL0     H74342   7.255   9.200  10.428  6.4602  0.0040  2.8156
  551MOL0     H74343   7.233   9.428  10.219 -3.6740 -0.0180  0.0049
  551MOL0     H74344   7.122   9.294  10.233 -0.3855 -0.8285 -1.8114
  551MOL0     H74345   7.102   9.080  10.252 -2.5163  0.3060 -2.8406
  551MOL0     H74346   7.051   8.735  10.213  0.0499 -0.0204 -1.2427
  551MOL0     H74347   7.033   8.880  10.308  0.8316  0.1812  0.3161
  551MOL0     H74348   6.931   8.862  10.167 -0.8319 -1.1135  0.1160
  551MOL0     H74349   7.052   8.465   9.986 -1.4778  3.3207  2.9477
  551MOL0     H74350   6.910   8.298   9.845 -0.0366 -0.3843 -2.4143
  551MOL0     H74351   6.542   8.430   9.757  0.0967  1.1201 -0.5718
  551MOL0     H74352   6.584   8.458   9.591  0.9538  2.8334  3.3560
  551MOL0     H74353   6.402   8.293   9.598 -0.6867 -0.5862  0.7999
  551MOL0     H74354   6.539   8.189   9.566 -1.5310 -1.3837  0.3347
  551MOL0     H74355   6.428   8.252   9.841 -1.5802  1.5093 -0.6704
  551MOL0     H74356   6.571   8.150   9.817 -0.2598  0.5246  1.9911
  551MOL0     H74357   6.379   8.002   9.855 -4.0929 -2.1839 -1.6232
  551MOL0     H74358   6.287   8.082   9.732 -1.4636  0.6603  2.5122
  551MOL0     H74359   6.428   7.995   9.561  3.4176  0.4519 -0.9490
  551MOL0     H74360   6.361   7.871   9.668  1.1603 -1.0952 -1.4221
  551MOL0     H74361   6.636   7.969   9.735  0.1687 -2.6501  1.5786
  551MOL0     H74362   6.554   7.814   9.767 -0.8925 -2.2124 -2.0288
  551MOL0     H74363   6.619   7.887   9.485  2.3032  0.1029 -0.4067
  551MOL0     H74364   6.574   7.732   9.543  4.0407 -3.2686 -0.0980
  551MOL0     H74365   6.789   7.693   9.619 -2.7008 -0.3639  1.8901
  551MOL0     H74366   6.837   7.864   9.637  0.3971 -2.2681  1.2269
  551MOL0     H74367   6.718   8.620   9.659  0.6909  0.7509 -0.9304
  551MOL0     H74368   6.874   8.787   9.791  1.2330 -0.0942  1.6657
  551MOL0     H74369   7.387   8.890   9.892 -0.3181  2.7601 -1.9230
  551MOL0     H74370   7.434   9.121   9.971 -0.5435 -0.8376 -2.7858
  551MOL0     H74371   7.717   8.433  10.320 -2.0012 -0.6510 -0.2025
  551MOL0     H74372   7.613   8.241  10.206 -0.4131  1.3639  0.1676
  551MOL0     H74373   7.628   7.801  10.030 -0.1966  1.1200  0.8857
  551MOL0     H74374   7.515   7.584   9.988 -0.5237 -1.3531  1.1206
  551MOL0     H74375   7.206   7.338  10.154 -0.0003 -0.2690  0.2498
  551MOL0     H74376   7.258   7.440  10.281  1.4044  1.4308 -0.3663
  551MOL0     H74377   7.040   7.596  10.175  2.5568 -0.2721 -2.5206
  551MOL0     H74378   7.014   7.462  10.296  1.2875  0.2910  0.3267
  551MOL0     H74379   6.978   7.313  10.115  3.0052  1.5978 -0.3362
  551MOL0     H74380   6.988   7.435   9.992  1.7233  0.1893 -0.3186
  551MOL0     H74381   6.790   7.547  10.070  2.2677  0.5151  1.8475
  551MOL0     H74382   6.750   7.418  10.189  2.4998 -0.5489  0.9617
  551MOL0     H74383   6.636   7.242   9.820  0.9383 -0.7957  0.7944
  551MOL0     H74384   7.250   7.674  10.305 -0.2267 -1.5306 -0.0362
  551MOL0     H74385   7.378   7.865  10.361 -1.7203 -0.0035 -1.1716
  552MOL0     O74386  10.199   7.359   1.297  0.1537 -0.2720 -0.5173
  552MOL0     C74387  10.230   7.260   1.364  0.4094  0.1828  0.1988
  552MOL0     O74388  10.170   7.225   1.476  0.0144 -0.1552 -0.4087
  552MOL0     C74389  10.068   7.295   1.532  0.5236 -0.1187  0.3802
  552MOL0     C74390   9.992   7.221   1.622 -0.0272 -0.4417 -0.2457
  552MOL0     C74391   9.871   7.272   1.674  0.3387  0.2680  0.6793
  552MOL0     C74392   9.829   7.405   1.652 -0.1484  0.0625  1.2546
  552MOL0     O74393   9.726   7.458   1.719 -0.1446 -0.0973  1.1813
  552MOL0     C74394   9.757   7.493   1.854 -0.5854  0.1067 -0.8158
  552MOL0     C74395   9.637   7.498   1.958 -0.8117  0.4030 -0.1236
  552MOL0     C74396   9.654   7.571   2.093  0.1866 -0.6793 -0.3328
  552MOL0     C74397   9.697   7.720   2.086  0.6387  0.4740  0.2959
  552MOL0     C74398   9.699   7.794   2.221 -0.1326  0.3668 -0.8374
  552MOL0     C74399   9.782   7.696   2.318 -0.0626  0.2885  0.4370
  552MOL0     C74400   9.821   7.750   2.456  0.6028 -0.1206 -1.0902
  552MOL0     C74401   9.906   7.874   2.446  0.1393  0.5484 -0.2943
  552MOL0     N74402   9.959   7.913   2.579 -0.1145 -0.7627  0.2815
  552MOL0     C74403  10.053   7.837   2.647 -0.2865 -0.3603 -0.5530
  552MOL0     C74404  10.072   7.917   2.757 -0.1715 -0.5733  0.1278
  552MOL0     C74405  10.165   7.903   2.867 -0.1285 -0.2497 -0.7222
  552MOL0     C74406  10.085   7.892   2.999 -0.6264 -0.1309  0.0412
  552MOL0     C74407  10.183   7.838   3.106 -0.9907 -0.3258 -0.4440
  552MOL0     C74408  10.175   7.686   3.129 -0.0038 -0.2294  0.2949
  552MOL0     O74409  10.069   7.646   3.223 -0.0331  0.1246 -0.1749
  552MOL0     C74410  10.037   7.512   3.221  0.6114  0.6320 -0.0971
  552MOL0     C74411   9.956   7.463   3.128 -0.4272 -0.6274 -0.1288
  552MOL0     C74412   9.909   7.332   3.134 -0.2302  0.5768 -0.7799
  552MOL0     C74413   9.808   7.286   3.038 -0.2544 -0.0850  0.3815
  552MOL0     C74414   9.957   7.241   3.236  0.1922 -0.7667  0.7400
  552MOL0     C74415   9.901   7.103   3.252  0.0007  0.2037 -0.3150
  552MOL0     O74416   9.878   7.064   3.383 -0.0633  0.8777 -0.1800
  552MOL0     C74417   9.828   6.938   3.382  0.1910  0.2978 -0.6608
  552MOL0     C74418   9.915   6.830   3.388  0.2094 -0.0651 -1.0298
  552MOL0     C74419   9.855   6.694   3.402 -0.7522 -0.2335  0.2964
  552MOL0     C74420   9.719   6.677   3.399  0.6484 -0.1154  0.5921
  552MOL0     O74421   9.673   6.546   3.414  0.2782  0.0801 -0.9563
  552MOL0     C74422   9.539   6.509   3.429  1.1405  0.1123 -0.2745
  552MOL0     C74423   9.489   6.517   3.579  0.1209 -0.6631  0.5733
  552MOL0     C74424   9.558   6.421   3.674 -0.2243  0.4907  0.1851
  552MOL0     C74425   9.709   6.442   3.687  0.7578  0.0696 -0.7674
  552MOL0     C74426   9.756   6.576   3.735 -0.4047 -0.3444 -0.1434
  552MOL0     C74427   9.721   6.607   3.875 -0.4158 -0.8867 -1.3064
  552MOL0     C74428   9.743   6.762   3.920 -0.2308 -0.1449  0.5328
  552MOL0     C74429   9.613   6.838   3.939  0.5785 -0.2311 -0.2124
  552MOL0    Cl74430   9.511   6.864   3.788  0.0862  0.1044 -0.1018
  552MOL0     C74431   9.635   6.786   3.384 -0.0864  0.1085  0.5304
  552MOL0     C74432   9.691   6.913   3.390  0.7630 -0.5769 -0.3325
  552MOL0     O74433   9.885   7.035   3.156  0.2334 -0.1333  0.1558
  552MOL0     C74434  10.041   7.304   3.332 -0.4925 -0.3755  0.6859
  552MOL0     C74435  10.073   7.439   3.328 -0.2727  0.0501  0.4095
  552MOL0     N74436  10.001   8.031   2.737 -0.4942 -0.8224 -0.2118
  552MOL0     N74437   9.941   8.033   2.629 -0.8013 -0.1511  0.0660
  552MOL0     C74438   9.917   7.481   1.575 -0.0776 -0.8303 -0.9425
  552MOL0     C74439  10.031   7.435   1.507  0.0253 -0.4650 -0.0782
  552MOL0     C74440  10.337   7.161   1.305 -0.3431 -0.7517 -0.4346
  552MOL0     C74441  10.401   7.196   1.187  0.2359 -0.8013 -0.0379
  552MOL0     C74442  10.493   7.127   1.126  0.1934 -0.4863  0.0127
  552MOL0     C74443  10.542   7.006   1.190 -0.4231  0.4293 -0.1327
  552MOL0     O74444  10.649   6.933   1.136  0.3053  0.4289  0.2913
  552MOL0     C74445  10.759   7.010   1.080 -0.0854  0.8145 -0.6475
  552MOL0     C74446  10.887   6.933   1.102 -0.0964  0.6743 -0.1801
  552MOL0     C74447  11.016   7.000   1.068  0.3203  0.0892 -0.0399
  552MOL0     C74448  11.126   6.910   1.064 -0.1307  0.4321  0.3608
  552MOL0     C74449  11.141   6.841   0.932 -0.2028  0.7104 -0.1093
  552MOL0     C74450  11.144   6.792   0.821 -0.4621  0.4231 -0.0250
  552MOL0     C74451  10.480   6.958   1.301  0.5776 -0.3532 -1.5304
  552MOL0     C74452  10.373   7.033   1.355  0.6753 -1.1085 -0.0585
  552MOL0     H74453  10.031   7.125   1.655  2.4544  1.4252  2.7828
  552MOL0     H74454   9.817   7.213   1.747  0.0876 -3.4209 -2.2343
  552MOL0     H74455   9.834   7.426   1.892  0.0483  0.7178 -0.9996
  552MOL0     H74456   9.810   7.589   1.854 -0.9609  0.3189 -0.4979
  552MOL0     H74457   9.544   7.531   1.912 -1.1970 -1.7146 -0.9921
  552MOL0     H74458   9.622   7.391   1.979  2.0009  0.0034  0.3219
  552MOL0     H74459   9.564   7.557   2.154  2.3866  1.1807  3.7778
  552MOL0     H74460   9.732   7.512   2.143  0.1392 -0.5852 -0.1466
  552MOL0     H74461   9.797   7.717   2.041  0.6166 -0.1530  0.2776
  552MOL0     H74462   9.623   7.774   2.026  2.4596  2.5646 -0.2340
  552MOL0     H74463   9.751   7.888   2.199 -0.7193  0.4237 -2.0824
  552MOL0     H74464   9.604   7.812   2.272 -0.7658 -1.4080 -1.3058
  552MOL0     H74465   9.715   7.611   2.328  0.7482 -0.5117 -0.6630
  552MOL0     H74466   9.870   7.657   2.266 -1.7745  0.0585 -2.5033
  552MOL0     H74467   9.729   7.788   2.503  1.7196  0.5181  0.6846
  552MOL0     H74468   9.865   7.670   2.517 -0.2511 -1.1589 -1.7858
  552MOL0     H74469   9.854   7.957   2.397  1.5051  1.0028 -1.0047
  552MOL0     H74470   9.994   7.839   2.392 -0.6853 -0.6993 -0.8699
  552MOL0     H74471  10.112   7.748   2.633  2.1193  0.6773  2.1410
  552MOL0     H74472  10.205   7.807   2.833  0.9457  1.0398 -3.3438
  552MOL0     H74473  10.240   7.983   2.874 -1.0403  0.5978 -0.2691
  552MOL0     H74474  10.000   7.824   2.985  0.6114 -2.2721  2.1477
  552MOL0     H74475  10.054   7.995   3.022  0.3130 -0.2448  1.9711
  552MOL0     H74476  10.166   7.877   3.206  0.6923  0.2041 -0.3238
  552MOL0     H74477  10.281   7.873   3.071 -0.8046  0.6529  0.9657
  552MOL0     H74478  10.267   7.668   3.186  0.8248  0.1827 -0.8619
  552MOL0     H74479  10.170   7.633   3.033  2.2052 -1.1543  0.6199
  552MOL0     H74480   9.917   7.537   3.059 -1.0641  1.2412  2.1298
  552MOL0     H74481   9.722   7.234   3.080  0.1927 -1.0949  0.0862
  552MOL0     H74482   9.777   7.370   2.976 -0.4954  0.3220  1.0451
  552MOL0     H74483   9.851   7.223   2.959 -1.3542 -0.1686 -0.1675
  552MOL0     H74484  10.023   6.835   3.382  0.4054  0.7586  1.5383
  552MOL0     H74485   9.928   6.614   3.397 -0.2774  0.1346  1.1409
  552MOL0     H74486   9.462   6.558   3.369 -2.9235 -1.6549  2.9476
  552MOL0     H74487   9.514   6.408   3.395 -0.5499  0.2348  0.4857
  552MOL0     H74488   9.496   6.621   3.613 -1.3859 -0.1445 -0.5616
  552MOL0     H74489   9.384   6.486   3.577  0.1863 -0.9508 -1.9785
  552MOL0     H74490   9.538   6.317   3.644  3.0165 -0.9331  2.3836
  552MOL0     H74491   9.516   6.437   3.774  1.8109 -1.9914  1.5626
  552MOL0     H74492   9.749   6.367   3.755 -2.4491  0.1585  1.4235
  552MOL0     H74493   9.757   6.414   3.593 -1.5311 -0.0186 -1.9878
  552MOL0     H74494   9.711   6.653   3.671 -0.8642  0.3562  0.9901
  552MOL0     H74495   9.866   6.573   3.741 -0.4094 -0.6998 -0.2710
  552MOL0     H74496   9.615   6.588   3.894 -0.4728  0.6739  0.0583
  552MOL0     H74497   9.782   6.544   3.940 -2.8067  0.8425  2.9977
  552MOL0     H74498   9.792   6.806   3.833  1.3926 -3.4080 -0.3744
  552MOL0     H74499   9.812   6.777   4.004  0.7696 -1.8082  0.0588
  552MOL0     H74500   9.638   6.937   3.980 -1.8666 -0.6980  2.7526
  552MOL0     H74501   9.544   6.794   4.012  1.1976  3.3949  2.8685
  552MOL0     H74502   9.529   6.766   3.384  0.0762 -1.2083  2.8635
  552MOL0     H74503   9.621   6.995   3.381  2.9965  1.5668  0.6658
  552MOL0     H74504  10.065   7.245   3.420  0.0058 -1.9605 -0.4758
  552MOL0     H74505  10.146   7.484   3.394  0.7933  0.5670 -1.0664
  552MOL0     H74506   9.881   7.581   1.556 -0.6523 -0.4037  1.9713
  552MOL0     H74507  10.084   7.515   1.456 -1.0659 -1.3547 -2.7615
  552MOL0     H74508  10.366   7.288   1.143  0.5502 -0.2167  0.9015
  552MOL0     H74509  10.545   7.152   1.034 -0.3827 -0.9251 -0.4356
  552MOL0     H74510  10.740   7.023   0.973  2.5502  1.9701 -1.0504
  552MOL0     H74511  10.766   7.110   1.125 -0.8232  1.2439 -1.4254
  552MOL0     H74512  10.868   6.837   1.054  3.4317 -1.8269  2.8177
  552MOL0     H74513  10.895   6.917   1.210  1.0667  1.4455 -0.1370
  552MOL0     H74514  11.052   7.050   1.158  2.0751 -2.2544  0.6508
  552MOL0     H74515  11.005   7.062   0.978  1.6583  0.5658  0.1019
  552MOL0     H74516  11.117   6.839   1.147  1.2300  0.3169  0.4292
  552MOL0     H74517  11.223   6.956   1.083 -0.2185  0.3141  1.1204
  552MOL0     H74518  11.153   6.759   0.720 -0.0942  3.0968 -0.9312
  552MOL0     H74519  10.525   6.867   1.341  0.5334 -0.2465 -1.2386
  552MOL0     H74520  10.323   6.996   1.444 -0.1655 -1.3352 -0.6147
  553MOL0     O74521   7.722   9.805   8.806 -0.9671 -0.6346  0.9075
  553MOL0     C74522   7.653   9.801   8.709  0.7283  0.8001  0.2008
  553MOL0     O74523   7.673   9.731   8.588 -0.6376  0.3379  0.2049
  553MOL0     C74524   7.773   9.636   8.564  0.0781  0.7087  0.1282
  553MOL0     C74525   7.902   9.652   8.621  1.5158  0.9335  1.2004
  553MOL0     C74526   8.005   9.558   8.586 -0.4975 -0.5577 -0.0506
  553MOL0     C74527   7.983   9.451   8.500 -0.5847 -0.7629  0.1940
  553MOL0     O74528   8.084   9.360   8.476 -0.4362  0.0034 -0.4248
  553MOL0     C74529   8.049   9.222   8.469 -0.2426 -0.1711  0.4149
  553MOL0     C74530   8.016   9.147   8.607 -0.7127 -0.6794  0.5519
  553MOL0     C74531   8.050   8.995   8.599 -0.1244 -0.4155  0.0002
  553MOL0     C74532   7.936   8.912   8.517 -0.1029 -0.4925 -0.6600
  553MOL0     C74533   7.976   8.765   8.536 -0.4104 -0.4748  1.0190
  553MOL0     C74534   7.880   8.675   8.458  0.4047  0.1454  0.9463
  553MOL0     C74535   7.935   8.532   8.458  0.0422  0.1136  0.0768
  553MOL0     C74536   7.823   8.437   8.395  0.9670  0.1659  1.2147
  553MOL0     N74537   7.777   8.472   8.260 -0.2164 -0.0799  1.5098
  553MOL0     C74538   7.646   8.487   8.217 -0.5259 -1.0254  0.8202
  553MOL0     C74539   7.657   8.530   8.089 -0.4365 -0.5652 -1.1331
  553MOL0     C74540   7.548   8.563   7.988 -0.4480 -1.0164 -0.2037
  553MOL0     C74541   7.536   8.715   7.991  0.2089  0.8101 -0.5609
  553MOL0     C74542   7.428   8.781   7.901 -0.0034 -0.0836 -0.4970
  553MOL0     C74543   7.292   8.725   7.943 -0.8591  0.2155 -0.7182
  553MOL0     O74544   7.214   8.794   7.853  0.1982 -0.3522  0.3551
  553MOL0     C74545   7.089   8.746   7.840  0.8292  0.6990  0.1214
  553MOL0     C74546   7.013   8.803   7.739  0.3420  0.1928 -0.2662
  553MOL0     C74547   6.875   8.771   7.717 -0.2636 -0.6964 -0.2518
  553MOL0     C74548   6.798   8.864   7.627  0.6421  1.5279 -0.3041
  553MOL0     C74549   6.819   8.661   7.782 -0.0421  0.4243 -0.7606
  553MOL0     C74550   6.671   8.602   7.766 -0.4596 -0.6325  1.0030
  553MOL0     O74551   6.645   8.490   7.837 -0.8921  0.3374  0.2787
  553MOL0     C74552   6.530   8.419   7.819  0.5135  0.5005  0.1395
  553MOL0     C74553   6.546   8.293   7.753 -0.2175  0.0282 -0.1699
  553MOL0     C74554   6.435   8.221   7.717  1.7037 -0.2926 -0.6254
  553MOL0     C74555   6.305   8.282   7.747 -0.9914 -0.4653  0.0845
  553MOL0     O74556   6.190   8.223   7.714 -0.4533 -0.2978  0.1511
  553MOL0     C74557   6.166   8.101   7.786  0.3392 -0.0235  0.2721
  553MOL0     C74558   6.089   8.008   7.689  0.5833 -0.0437 -0.0833
  553MOL0     C74559   5.953   8.059   7.621  0.3418 -0.8736 -0.2682
  553MOL0     C74560   5.961   8.066   7.461 -0.0357  1.0357  0.2313
  553MOL0     C74561   5.822   8.087   7.389 -0.0426 -0.7202 -0.7810
  553MOL0     C74562   5.843   8.103   7.238  0.6717 -0.4314 -0.0692
  553MOL0     C74563   5.929   7.990   7.167  0.8640 -0.3184  0.0076
  553MOL0     C74564   5.922   7.973   7.016 -0.2696 -0.9543 -0.4312
  553MOL0    Cl74565   6.010   8.112   6.937  0.0944 -0.3636  0.0851
  553MOL0     C74566   6.295   8.407   7.813 -0.1861  0.0957  0.2863
  553MOL0     C74567   6.414   8.477   7.851  0.4130  0.3456 -0.6343
  553MOL0     O74568   6.592   8.665   7.690  0.2400 -0.0364 -0.1499
  553MOL0     C74569   6.903   8.587   7.865  0.0483  0.5325 -0.5171
  553MOL0     C74570   7.033   8.637   7.906 -0.6174 -0.5136  0.4164
  553MOL0     N74571   7.797   8.535   8.064  0.3412  0.7174  0.7771
  553MOL0     N74572   7.868   8.494   8.163  0.0082  0.4846  0.5919
  553MOL0     C74573   7.855   9.445   8.441 -0.0427 -0.1327  0.7101
  553MOL0     C74574   7.751   9.529   8.484  1.1948  0.2354 -0.4135
  553MOL0     C74575   7.545   9.900   8.713 -0.2463 -0.0578 -0.1085
  553MOL0     C74576   7.496   9.941   8.834  0.2782 -0.5112 -0.1656
  553MOL0     C74577   7.400  10.053   8.849  0.1911  0.3380  0.2267
  553MOL0     C74578   7.334  10.100   8.735  0.7711  0.2542  0.1489
  553MOL0     O74579   7.236  10.196   8.721  0.0809  0.1993 -0.5530
  553MOL0     C74580   7.188  10.242   8.849 -1.0823 -0.2613  0.1171
  553MOL0     C74581   7.063  10.318   8.830  0.1586  0.7333 -0.7566
  553MOL0     C74582   7.087  10.435   8.732 -0.3996 -0.5100 -0.1969
  553MOL0     C74583   6.961  10.494   8.671  0.5277 -0.1904  1.3461
  553MOL0     C74584   6.992  10.601   8.580  0.3184 -0.3814  0.8580
  553MOL0     C74585   7.015  10.679   8.483  0.0882  0.3527 -0.1832
  553MOL0     C74586   7.385  10.058   8.614 -0.0388  0.2865  0.0513
  553MOL0     C74587   7.491   9.960   8.599 -0.2000 -0.2765  0.0056
  553MOL0     H74588   7.914   9.741   8.682  0.7151  1.3582  0.7564
  553MOL0     H74589   8.105   9.557   8.629 -0.7859 -3.6497  0.7874
  553MOL0     H74590   7.969   9.195   8.400 -0.1043 -2.8933  1.2052
  553MOL0     H74591   8.139   9.176   8.425 -0.2331  3.0195 -3.3687
  553MOL0     H74592   8.077   9.194   8.685  1.7473  1.3355 -2.3564
  553MOL0     H74593   7.914   9.163   8.643 -0.8598  1.1825 -0.5488
  553MOL0     H74594   8.149   8.972   8.558 -1.2430 -1.6532 -2.2073
  553MOL0     H74595   8.048   8.956   8.701  0.3792 -3.4014 -1.0274
  553MOL0     H74596   7.833   8.928   8.550  0.0366  2.7818 -1.4937
  553MOL0     H74597   7.934   8.935   8.410 -3.1432 -1.7863 -1.0015
  553MOL0     H74598   8.069   8.761   8.479 -0.8546  1.7496  0.0402
  553MOL0     H74599   7.998   8.732   8.638 -2.3215 -3.8119  0.5190
  553MOL0     H74600   7.783   8.681   8.508  1.4308  2.1039  2.8513
  553MOL0     H74601   7.876   8.719   8.358  0.0979  1.1572  1.3959
  553MOL0     H74602   8.020   8.538   8.389 -0.5949 -1.1572 -0.8699
  553MOL0     H74603   7.974   8.490   8.551  2.8234  1.3851 -0.4143
  553MOL0     H74604   7.737   8.437   8.462 -1.2725 -0.7081 -1.4774
  553MOL0     H74605   7.868   8.338   8.382 -0.0648 -0.4177  1.9334
  553MOL0     H74606   7.550   8.474   8.267  0.5632 -1.8764  2.7653
  553MOL0     H74607   7.572   8.537   7.885  1.3188  0.4846 -0.2233
  553MOL0     H74608   7.458   8.511   8.023  0.2221 -1.3466  1.1258
  553MOL0     H74609   7.626   8.766   7.955  0.7344  0.8494  0.7284
  553MOL0     H74610   7.523   8.741   8.097  3.2180 -0.0902  0.1233
  553MOL0     H74611   7.457   8.768   7.797  0.4665  0.9280 -0.4994
  553MOL0     H74612   7.423   8.889   7.914 -0.5102  0.1624 -2.4535
  553MOL0     H74613   7.279   8.739   8.050  0.3826 -0.9367 -0.3971
  553MOL0     H74614   7.291   8.619   7.917  0.8450 -0.0346  0.1223
  553MOL0     H74615   7.060   8.891   7.697  1.0832  0.1177  0.3802
  553MOL0     H74616   6.794   8.829   7.524  1.9076  0.4624 -0.0198
  553MOL0     H74617   6.696   8.881   7.664  0.3223 -1.4529  0.4556
  553MOL0     H74618   6.865   8.949   7.611  3.1183 -0.7013 -2.7684
  553MOL0     H74619   6.648   8.263   7.730 -0.2558  1.8386 -3.2122
  553MOL0     H74620   6.442   8.125   7.668  0.4172 -0.6369 -0.1855
  553MOL0     H74621   6.263   8.063   7.819  1.2378  0.5854 -1.5389
  553MOL0     H74622   6.113   8.111   7.881  0.3082  2.0711  0.0835
  553MOL0     H74623   6.156   7.987   7.604  1.0433 -3.4811  1.0124
  553MOL0     H74624   6.080   7.914   7.744 -0.1354 -0.5302 -1.0108
  553MOL0     H74625   5.924   8.155   7.665  0.8454 -0.2979 -1.1556
  553MOL0     H74626   5.874   7.989   7.650 -1.4878  0.9253 -0.6509
  553MOL0     H74627   6.045   8.128   7.429  1.5707 -3.0395 -4.9913
  553MOL0     H74628   5.975   7.965   7.421  2.2454  1.8615 -1.2845
  553MOL0     H74629   5.783   8.173   7.445  0.1558  0.7334 -2.7682
  553MOL0     H74630   5.756   8.001   7.401 -0.7946 -0.6033 -3.4749
  553MOL0     H74631   5.748   8.108   7.183  1.5373 -0.6833 -1.6330
  553MOL0     H74632   5.900   8.196   7.227 -0.8883  0.2461 -5.1482
  553MOL0     H74633   5.888   7.893   7.199 -0.6510  0.6529  1.1601
  553MOL0     H74634   6.034   7.999   7.197  0.3153 -0.3249  2.1290
  553MOL0     H74635   5.820   7.972   6.978 -0.5294 -2.4053  0.2533
  553MOL0     H74636   5.968   7.875   7.002 -1.0510 -1.0540 -2.5874
  553MOL0     H74637   6.198   8.450   7.834  0.4846  1.1241  1.4400
  553MOL0     H74638   6.411   8.573   7.902  0.4570 -0.5995  1.2245
  553MOL0     H74639   6.871   8.487   7.892  2.6069 -0.1067  0.3788
  553MOL0     H74640   7.090   8.577   7.976 -4.1781  0.0262  4.1919
  553MOL0     H74641   7.834   9.368   8.367  0.7816  3.1799 -3.3557
  553MOL0     H74642   7.650   9.517   8.446  0.8711  2.0111 -0.2000
  553MOL0     H74643   7.541   9.905   8.926 -1.5112  0.9836  1.3856
  553MOL0     H74644   7.370  10.088   8.948 -1.1022  2.3490 -0.8058
  553MOL0     H74645   7.166  10.158   8.916 -1.1113  0.5201  1.1049
  553MOL0     H74646   7.265  10.302   8.898 -0.2627 -1.8055  0.8158
  553MOL0     H74647   7.032  10.367   8.922  0.5519  2.3504 -1.4547
  553MOL0     H74648   6.987  10.245   8.800  1.6262 -2.8812  3.3148
  553MOL0     H74649   7.152  10.396   8.652 -0.6225 -3.0573  0.7542
  553MOL0     H74650   7.132  10.511   8.796 -2.0087  0.6635 -0.4307
  553MOL0     H74651   6.894  10.530   8.749 -0.7812 -1.8670  1.0583
  553MOL0     H74652   6.898  10.414   8.629  0.7489  0.7432 -0.8922
  553MOL0     H74653   7.035  10.751   8.406 -2.6935  0.5529 -0.8445
  553MOL0     H74654   7.336  10.093   8.525 -0.6290  0.4895  0.4544
  553MOL0     H74655   7.529   9.925   8.503 -2.4718  2.8027 -2.2125
  554MOL0     O74656   8.270   6.783   2.319 -0.5262 -0.4899  0.2833
  554MOL0     C74657   8.178   6.710   2.362  0.1479 -0.8772  0.1700
  554MOL0     O74658   8.154   6.583   2.344  0.1855 -0.4043  0.3009
  554MOL0     C74659   8.255   6.510   2.291 -0.5769 -0.9571  0.1735
  554MOL0     C74660   8.256   6.462   2.159  0.4582  0.4570 -0.4082
  554MOL0     C74661   8.350   6.381   2.107 -0.0634 -0.0904 -0.3083
  554MOL0     C74662   8.459   6.351   2.186  0.2228  0.9450 -0.5748
  554MOL0     O74663   8.566   6.275   2.125 -0.4249 -0.3361 -0.2324
  554MOL0     C74664   8.633   6.197   2.224 -0.8558  0.7176 -0.5179
  554MOL0     C74665   8.725   6.094   2.153 -0.6143 -0.0951 -0.4816
  554MOL0     C74666   8.645   5.998   2.068 -0.9752 -0.1584  0.8639
  554MOL0     C74667   8.600   5.863   2.133  0.0597 -0.8941 -0.8203
  554MOL0     C74668   8.537   5.754   2.038  0.5212  0.0858  0.4524
  554MOL0     C74669   8.421   5.801   1.951  0.3986 -0.2724  0.8278
  554MOL0     C74670   8.317   5.864   2.044  0.0419 -0.1478  0.4526
  554MOL0     C74671   8.192   5.910   1.977  1.0546 -0.0744  1.0036
  554MOL0     N74672   8.098   5.975   2.067 -0.0543 -0.6266 -0.2101
  554MOL0     C74673   8.139   6.087   2.148  0.2459  0.2066 -0.7672
  554MOL0     C74674   8.032   6.109   2.229 -0.8970  0.2404  1.2987
  554MOL0     C74675   8.018   6.207   2.339 -0.3900 -0.2404  0.5647
  554MOL0     C74676   7.906   6.320   2.321 -0.0338 -0.4788 -0.6839
  554MOL0     C74677   7.758   6.276   2.316 -0.3549 -0.5513  0.0030
  554MOL0     C74678   7.721   6.196   2.440  0.2932 -0.2632 -0.6335
  554MOL0     O74679   7.594   6.134   2.414 -0.0187 -0.3245 -0.0826
  554MOL0     C74680   7.503   6.116   2.515 -0.8692  0.2555 -0.6939
  554MOL0     C74681   7.510   6.163   2.651  1.2298  0.6427 -0.4858
  554MOL0     C74682   7.401   6.135   2.746  0.3894  0.5280  0.6618
  554MOL0     C74683   7.387   6.229   2.871  0.4127  0.4158  0.9081
  554MOL0     C74684   7.304   6.047   2.714  1.0148  0.7122 -0.0472
  554MOL0     C74685   7.222   5.984   2.821 -0.4642 -0.3935 -0.4500
  554MOL0     O74686   7.094   5.948   2.775 -0.0943  0.3309 -0.2829
  554MOL0     C74687   7.030   5.867   2.860 -0.1736  0.6378  0.2042
  554MOL0     C74688   7.064   5.740   2.874  0.1330  0.6367  1.1008
  554MOL0     C74689   7.023   5.656   2.979  0.2373 -0.3457 -0.2751
  554MOL0     C74690   6.926   5.692   3.072  0.1240 -0.1388 -0.2236
  554MOL0     O74691   6.884   5.595   3.154 -0.4609 -0.4457 -0.4987
  554MOL0     C74692   6.839   5.638   3.284  0.1609  0.7116  0.7329
  554MOL0     C74693   6.690   5.661   3.268 -0.5842  0.1926  0.3070
  554MOL0     C74694   6.600   5.535   3.262  0.3818 -0.6325  0.5454
  554MOL0     C74695   6.470   5.595   3.192 -0.2946  1.3694 -0.5031
  554MOL0     C74696   6.366   5.485   3.160 -0.2494 -0.3436  0.5360
  554MOL0     C74697   6.304   5.428   3.302 -0.4369 -0.6422  0.0728
  554MOL0     C74698   6.221   5.294   3.274 -0.3811  0.0331  0.7546
  554MOL0     C74699   6.095   5.330   3.195 -0.4463 -0.0376 -0.6352
  554MOL0    Cl74700   5.998   5.441   3.287  0.2549 -0.1266 -0.0259
  554MOL0     C74701   6.877   5.830   3.059  0.3354  0.6277  0.2669
  554MOL0     C74702   6.929   5.908   2.953 -0.3827  0.2723  0.1919
  554MOL0     O74703   7.274   5.966   2.936  0.7063 -0.0387 -0.1999
  554MOL0     C74704   7.294   5.995   2.581 -0.6768  1.3916 -0.6219
  554MOL0     C74705   7.389   6.029   2.486  0.3484 -0.2588 -0.5064
  554MOL0     N74706   7.931   6.009   2.199  0.0012 -0.8599  0.8898
  554MOL0     N74707   7.977   5.938   2.100  0.1974  0.4081  1.2675
  554MOL0     C74708   8.465   6.406   2.315  0.5685  0.2981  0.1345
  554MOL0     C74709   8.366   6.489   2.366  0.7095  0.1222  0.3615
  554MOL0     C74710   8.091   6.795   2.452 -0.0873 -0.2534 -0.1538
  554MOL0     C74711   8.125   6.927   2.491  0.2698  0.2208 -1.2947
  554MOL0     C74712   8.045   7.001   2.567 -0.8058  0.7214  0.0901
  554MOL0     C74713   7.931   6.952   2.629  0.0655  0.2375  0.4832
  554MOL0     O74714   7.858   7.030   2.713  0.3583 -0.7188 -0.0859
  554MOL0     C74715   7.809   6.966   2.826  0.3124  0.5364 -0.0476
  554MOL0     C74716   7.655   6.992   2.860  1.1212  0.2158 -0.3217
  554MOL0     C74717   7.568   6.934   2.755 -0.7168  0.0935 -0.6328
  554MOL0     C74718   7.438   6.879   2.815  0.5447 -0.4850 -0.3929
  554MOL0     C74719   7.460   6.751   2.885  0.0550  0.1667  0.1209
  554MOL0     C74720   7.493   6.645   2.931 -0.9943  0.2807  0.4388
  554MOL0     C74721   7.887   6.826   2.583 -0.2630 -0.0069 -0.1802
  554MOL0     C74722   7.969   6.751   2.497 -1.2520 -0.4088 -0.7996
  554MOL0     H74723   8.189   6.507   2.087  1.9568  2.3885 -0.6912
  554MOL0     H74724   8.338   6.342   2.007 -0.1230 -0.8184 -0.0231
  554MOL0     H74725   8.692   6.255   2.296 -1.9360 -1.3224  2.1803
  554MOL0     H74726   8.567   6.144   2.293  0.6403  0.8437  1.0666
  554MOL0     H74727   8.788   6.166   2.101  0.0868 -0.7664 -0.5776
  554MOL0     H74728   8.784   6.040   2.227 -2.2611 -0.3437  0.7141
  554MOL0     H74729   8.559   6.043   2.019  1.1074  0.9941 -2.0456
  554MOL0     H74730   8.710   5.970   1.984  1.1894  0.1999  2.3500
  554MOL0     H74731   8.685   5.835   2.196  1.0148  2.1516 -0.6018
  554MOL0     H74732   8.517   5.883   2.201  1.6990 -0.8567  1.2615
  554MOL0     H74733   8.611   5.706   1.973  0.4702  0.6403 -0.0183
  554MOL0     H74734   8.496   5.675   2.102 -1.5955  0.2982 -0.5343
  554MOL0     H74735   8.452   5.865   1.869  1.7031  0.1870  1.6434
  554MOL0     H74736   8.384   5.703   1.919  3.9531 -1.5070  0.0291
  554MOL0     H74737   8.294   5.806   2.133 -2.0648  1.1459  0.8269
  554MOL0     H74738   8.353   5.962   2.075  0.8414 -0.6283  1.0559
  554MOL0     H74739   8.143   5.821   1.937  1.2221 -0.8243  2.3785
  554MOL0     H74740   8.208   5.986   1.900 -3.1343  0.6443  0.6343
  554MOL0     H74741   8.239   6.129   2.153  0.2760  0.3584 -2.2112
  554MOL0     H74742   8.014   6.153   2.434  0.3147 -2.2745 -0.5069
  554MOL0     H74743   8.115   6.257   2.340  0.5737 -1.9927  1.8828
  554MOL0     H74744   7.932   6.371   2.227  1.3504  0.2051  0.0267
  554MOL0     H74745   7.912   6.386   2.408 -4.4409 -0.3384 -0.2575
  554MOL0     H74746   7.745   6.211   2.228 -2.6070  0.8232 -0.7679
  554MOL0     H74747   7.689   6.359   2.301 -1.9469 -1.7223  0.5896
  554MOL0     H74748   7.728   6.258   2.530  1.4559 -2.4226  0.8575
  554MOL0     H74749   7.792   6.114   2.452 -1.4111 -2.1204 -2.4633
  554MOL0     H74750   7.583   6.235   2.685 -0.1338  1.1638  1.4850
  554MOL0     H74751   7.295   6.288   2.872  0.2402  0.3699 -2.4754
  554MOL0     H74752   7.390   6.171   2.964  1.5735 -0.3217  0.4313
  554MOL0     H74753   7.469   6.299   2.882 -0.1058  1.6390 -2.0364
  554MOL0     H74754   7.129   5.708   2.793 -2.7601  1.8926 -1.9295
  554MOL0     H74755   7.052   5.552   2.976 -0.0127 -0.4763 -4.9062
  554MOL0     H74756   6.855   5.556   3.355 -0.5397  0.2502  0.3665
  554MOL0     H74757   6.892   5.725   3.325  1.0313 -0.8142  3.0488
  554MOL0     H74758   6.655   5.722   3.352  1.9323 -0.3071  1.8171
  554MOL0     H74759   6.674   5.721   3.178  1.2206  0.5379  0.1646
  554MOL0     H74760   6.584   5.497   3.364  2.5742 -3.0745  0.1110
  554MOL0     H74761   6.652   5.460   3.201  0.3467 -2.0348  2.1509
  554MOL0     H74762   6.419   5.672   3.250 -1.2427 -0.0771  0.6543
  554MOL0     H74763   6.509   5.634   3.098  2.9277 -1.2585 -0.4721
  554MOL0     H74764   6.417   5.408   3.102 -1.1570 -0.1581 -0.5520
  554MOL0     H74765   6.281   5.523   3.101 -0.3277 -2.3944 -0.7949
  554MOL0     H74766   6.386   5.399   3.368 -0.9604  0.5850  1.3173
  554MOL0     H74767   6.246   5.509   3.346 -1.3815 -1.7474  0.9130
  554MOL0     H74768   6.181   5.248   3.365 -0.4366  0.3032  0.8700
  554MOL0     H74769   6.281   5.218   3.223  1.9982  0.8766  2.1247
  554MOL0     H74770   6.041   5.235   3.181  0.5294 -0.8236  0.7672
  554MOL0     H74771   6.114   5.362   3.092 -2.4016 -1.6861 -1.5888
  554MOL0     H74772   6.803   5.883   3.119  1.7091  2.6465  0.2705
  554MOL0     H74773   6.900   6.013   2.949  2.3208  1.0685 -2.4904
  554MOL0     H74774   7.216   5.927   2.549 -0.3008  1.1314 -1.0141
  554MOL0     H74775   7.367   5.997   2.384 -0.7357 -0.7054 -0.1512
  554MOL0     H74776   8.547   6.386   2.382 -0.5334 -0.3566  1.3395
  554MOL0     H74777   8.386   6.533   2.463  0.3434  0.6428  0.2059
  554MOL0     H74778   8.217   6.970   2.453  0.3201  0.7051 -0.6382
  554MOL0     H74779   8.086   7.098   2.591  1.1268 -0.0560  0.1516
  554MOL0     H74780   7.822   6.858   2.817  2.8915  0.8338 -0.6149
  554MOL0     H74781   7.873   6.995   2.909  2.2378 -2.8245 -0.1769
  554MOL0     H74782   7.634   7.099   2.869 -1.1492 -0.3248  2.1100
  554MOL0     H74783   7.623   6.947   2.955  2.3504  0.4958  0.2406
  554MOL0     H74784   7.607   6.858   2.687 -2.1033 -0.3549 -0.9577
  554MOL0     H74785   7.536   7.019   2.694 -1.7037 -0.6002 -1.1164
  554MOL0     H74786   7.370   6.862   2.731  1.3425 -1.5682 -0.8429
  554MOL0     H74787   7.379   6.944   2.879  0.4713  0.0410 -0.9784
  554MOL0     H74788   7.527   6.554   2.976  2.0626  0.6612 -0.8655
  554MOL0     H74789   7.785   6.794   2.601 -0.3957  0.0377 -0.8217
  554MOL0     H74790   7.933   6.654   2.464  0.9317 -1.6106  0.1152
  555MOL0     O74791   6.401  10.525   8.158  0.5367  0.1572 -0.4988
  555MOL0     C74792   6.489  10.461   8.213  0.0989 -0.1713 -0.5804
  555MOL0     O74793   6.582  10.392   8.156 -0.3653 -0.4675 -0.1641
  555MOL0     C74794   6.568  10.378   8.017  0.2520 -0.3628 -0.4817
  555MOL0     C74795   6.492  10.267   7.973  0.0789 -0.2545 -0.0979
  555MOL0     C74796   6.483  10.238   7.838  0.2399 -0.2347 -0.2361
  555MOL0     C74797   6.535  10.330   7.745 -0.7357 -0.6525 -1.0398
  555MOL0     O74798   6.525  10.307   7.607 -0.0637  0.1032  0.1924
  555MOL0     C74799   6.538  10.422   7.515 -0.9813  0.5384 -0.7043
  555MOL0     C74800   6.676  10.419   7.458  0.0680  0.6453  0.7023
  555MOL0     C74801   6.680  10.409   7.303 -0.5304  0.0802  0.0228
  555MOL0     C74802   6.676  10.549   7.240 -0.1183  0.4403 -0.5617
  555MOL0     C74803   6.702  10.564   7.088  0.3175 -0.9741  0.3160
  555MOL0     C74804   6.846  10.548   7.052 -0.1683 -0.4944 -0.6475
  555MOL0     C74805   6.871  10.523   6.902  0.7740 -0.4624 -0.2514
  555MOL0     C74806   7.027  10.540   6.871  0.7439  0.0016  0.3152
  555MOL0     N74807   7.114  10.439   6.910  0.0663  1.2887  0.1701
  555MOL0     C74808   7.223  10.407   6.837 -0.1771  0.3150  0.1241
  555MOL0     C74809   7.276  10.299   6.911 -1.8712 -0.4143 -0.1369
  555MOL0     C74810   7.397  10.226   6.869 -0.9709  0.5719 -1.1530
  555MOL0     C74811   7.536  10.299   6.870 -0.2158 -0.9883 -0.0905
  555MOL0     C74812   7.649  10.218   6.804 -0.0006  0.1158 -0.7694
  555MOL0     C74813   7.682  10.099   6.896  0.7602  0.5009 -0.4088
  555MOL0     O74814   7.790  10.035   6.834 -0.3794 -0.2690  0.3831
  555MOL0     C74815   7.884   9.960   6.913 -0.2972  0.2517 -0.0496
  555MOL0     C74816   7.855   9.905   7.039 -0.5480  0.6977 -0.8772
  555MOL0     C74817   7.950   9.824   7.112  0.3447 -0.2816  0.4751
  555MOL0     C74818   7.907   9.752   7.227  0.1263  0.7142 -0.2490
  555MOL0     C74819   8.080   9.816   7.063 -0.6184 -0.3675  0.2271
  555MOL0     C74820   8.196   9.747   7.126  0.5297  0.2565 -0.1104
  555MOL0     O74821   8.313   9.744   7.054  0.2315  0.1181 -0.0028
  555MOL0     C74822   8.412   9.673   7.116 -0.1968 -0.0827  0.1927
  555MOL0     C74823   8.440   9.546   7.067 -0.0469  0.4230  0.2677
  555MOL0     C74824   8.556   9.489   7.112 -0.1456  1.2540 -1.1871
  555MOL0     C74825   8.635   9.542   7.218 -0.6501 -0.9363 -0.8434
  555MOL0     O74826   8.741   9.474   7.273 -0.1607  1.6286  0.4403
  555MOL0     C74827   8.761   9.499   7.414  0.3376 -0.1723  0.2750
  555MOL0     C74828   8.799   9.367   7.486 -0.0005  0.0552 -0.0690
  555MOL0     C74829   8.688   9.271   7.489  0.2581 -0.4250  0.1637
  555MOL0     C74830   8.733   9.138   7.550 -0.7313  0.2663 -0.6096
  555MOL0     C74831   8.619   9.039   7.566  0.3178 -0.4401  0.5201
  555MOL0     C74832   8.656   8.925   7.656  0.3339 -0.2574 -0.0928
  555MOL0     C74833   8.772   8.837   7.608  0.1360  0.6949  0.3482
  555MOL0     C74834   8.722   8.729   7.517 -0.6241 -0.5666 -0.3315
  555MOL0    Cl74835   8.837   8.626   7.438 -0.5106 -0.1924 -0.5710
  555MOL0     C74836   8.605   9.673   7.255 -0.0889 -0.4178 -1.1745
  555MOL0     C74837   8.503   9.743   7.196 -0.7651 -0.9095 -0.4886
  555MOL0     O74838   8.178   9.680   7.225 -0.9859  0.1176  0.4104
  555MOL0     C74839   8.105   9.872   6.936 -0.0884  0.1422 -0.0736
  555MOL0     C74840   8.010   9.934   6.856  0.1450 -0.7432 -0.2967
  555MOL0     N74841   7.191  10.275   7.024 -0.7604  0.6691 -0.4251
  555MOL0     N74842   7.089  10.342   7.004  0.4803  0.3594  0.2371
  555MOL0     C74843   6.615  10.433   7.794 -0.5691 -0.5432  0.9318
  555MOL0     C74844   6.638  10.458   7.932  0.2499  0.4269  0.9226
  555MOL0     C74845   6.495  10.443   8.364  0.2227 -0.2892 -0.0619
  555MOL0     C74846   6.402  10.508   8.456  0.4019  0.0112 -0.8976
  555MOL0     C74847   6.406  10.491   8.603 -0.2768  0.8071 -0.4243
  555MOL0     C74848   6.503  10.406   8.661 -0.5309 -0.3721  0.2266
  555MOL0     O74849   6.513  10.375   8.796  0.3386 -0.7712 -0.7194
  555MOL0     C74850   6.449  10.460   8.887 -0.6434  0.0056 -0.5178
  555MOL0     C74851   6.501  10.435   9.031 -0.0213  0.0186 -0.3746
  555MOL0     C74852   6.510  10.555   9.123  0.1156  0.2106 -0.2454
  555MOL0     C74853   6.604  10.541   9.243  0.8735  0.8219  0.0801
  555MOL0     C74854   6.744  10.526   9.202  0.2381 -0.0501  0.1366
  555MOL0     C74855   6.861  10.511   9.203  0.3071 -0.7310 -0.1713
  555MOL0     C74856   6.589  10.344   8.566  0.2118 -0.5021 -0.9170
  555MOL0     C74857   6.575  10.352   8.427 -0.0966  0.1657  0.6324
  555MOL0     H74858   6.427  10.211   8.039  1.0036 -2.4337 -0.9298
  555MOL0     H74859   6.442  10.139   7.822 -2.0241  1.0328 -3.1601
  555MOL0     H74860   6.463  10.423   7.436  0.9684  0.0439 -2.6469
  555MOL0     H74861   6.517  10.508   7.579 -0.3237 -0.7789  1.4136
  555MOL0     H74862   6.739  10.502   7.491 -1.2607  1.4492  1.2966
  555MOL0     H74863   6.722  10.328   7.498  0.2400  0.8920  1.0818
  555MOL0     H74864   6.776  10.361   7.283  0.9806  2.3575  1.3338
  555MOL0     H74865   6.596  10.347   7.271 -0.2605 -0.6340  0.6685
  555MOL0     H74866   6.579  10.592   7.266 -1.6505 -4.1213  2.4948
  555MOL0     H74867   6.751  10.608   7.294 -1.8837  2.9528 -0.6595
  555MOL0     H74868   6.638  10.489   7.042  1.4691 -2.0177  0.3701
  555MOL0     H74869   6.661  10.658   7.048 -0.0390 -0.6072  1.4830
  555MOL0     H74870   6.892  10.647   7.064 -2.2056  0.3645  0.4916
  555MOL0     H74871   6.901  10.473   7.110  4.5417  0.6837 -3.0687
  555MOL0     H74872   6.840  10.422   6.875 -1.6516  0.1957 -0.1380
  555MOL0     H74873   6.817  10.594   6.839  1.8638  1.7840  1.2223
  555MOL0     H74874   7.065  10.631   6.919  1.9613 -0.0765 -0.4758
  555MOL0     H74875   7.033  10.556   6.763 -0.8105 -0.0174  0.2033
  555MOL0     H74876   7.255  10.437   6.738  0.2488 -1.3201 -0.2682
  555MOL0     H74877   7.409  10.131   6.922  1.0043  2.1347  1.4458
  555MOL0     H74878   7.369  10.203   6.766 -1.9489  0.9279 -0.9823
  555MOL0     H74879   7.561  10.335   6.970 -0.9679  1.8657 -0.8407
  555MOL0     H74880   7.518  10.385   6.805 -2.8812 -4.7607 -5.0913
  555MOL0     H74881   7.739  10.278   6.786  0.7818  1.0864  4.5141
  555MOL0     H74882   7.611  10.185   6.707 -3.2087  2.1745 -0.3544
  555MOL0     H74883   7.591  10.039   6.905  0.1033  1.2092 -2.0028
  555MOL0     H74884   7.702  10.120   7.001 -0.0444 -1.7978  0.2616
  555MOL0     H74885   7.761   9.915   7.093  1.5550  1.1806  3.1155
  555MOL0     H74886   7.919   9.643   7.224 -0.6111  0.6377 -1.9367
  555MOL0     H74887   7.962   9.790   7.314  1.7032  0.6518 -1.1715
  555MOL0     H74888   7.804   9.781   7.248  0.0116  0.4716 -0.4715
  555MOL0     H74889   8.369   9.504   6.996 -2.7228  1.3007  2.2651
  555MOL0     H74890   8.569   9.384   7.086 -2.8069  0.8209 -1.0542
  555MOL0     H74891   8.833   9.581   7.416 -1.0944  1.3089 -2.6827
  555MOL0     H74892   8.672   9.531   7.470 -0.9075 -3.6173  0.5216
  555MOL0     H74893   8.893   9.326   7.448  0.5208  0.2018  1.0306
  555MOL0     H74894   8.831   9.403   7.585  1.1878  2.0305 -1.0899
  555MOL0     H74895   8.650   9.243   7.390  1.4777 -1.5982 -0.0100
  555MOL0     H74896   8.601   9.317   7.536 -0.4967 -0.3546 -1.2478
  555MOL0     H74897   8.806   9.094   7.481 -2.9068 -0.0891 -2.8182
  555MOL0     H74898   8.773   9.153   7.651 -2.7003 -0.5670  0.3610
  555MOL0     H74899   8.575   9.000   7.474  0.9368 -0.0843  0.0585
  555MOL0     H74900   8.539   9.093   7.616  1.8847  3.4515 -0.7828
  555MOL0     H74901   8.690   8.962   7.753  0.6383  0.3659 -0.4316
  555MOL0     H74902   8.568   8.861   7.664 -0.3475  0.2694 -2.4706
  555MOL0     H74903   8.812   8.781   7.693 -0.5593 -1.4151 -0.6562
  555MOL0     H74904   8.855   8.892   7.563  0.2603  0.2938  0.0831
  555MOL0     H74905   8.647   8.777   7.453 -2.1370 -2.6100 -0.1919
  555MOL0     H74906   8.659   8.667   7.581 -0.8772  0.4171  0.3886
  555MOL0     H74907   8.665   9.728   7.327 -1.4844  0.8751 -0.9271
  555MOL0     H74908   8.495   9.850   7.216  0.9321 -0.8757  0.1474
  555MOL0     H74909   8.201   9.872   6.884 -0.6975 -2.7177 -1.3674
  555MOL0     H74910   8.032   9.979   6.760 -0.7031  0.6878  0.1479
  555MOL0     H74911   6.673  10.501   7.733 -0.3081 -2.4379 -1.0449
  555MOL0     H74912   6.701  10.539   7.970 -0.8141  2.3399 -1.1681
  555MOL0     H74913   6.316  10.556   8.409  0.8833 -0.9245 -2.8604
  555MOL0     H74914   6.325  10.530   8.664  0.8255  2.0408  0.2795
  555MOL0     H74915   6.473  10.564   8.866  2.6492 -0.7141 -0.8523
  555MOL0     H74916   6.340  10.453   8.878 -0.8465 -0.5545  1.7797
  555MOL0     H74917   6.598  10.385   9.027 -1.4177 -3.0068  0.6684
  555MOL0     H74918   6.430  10.365   9.076 -0.0888 -1.6122 -2.7858
  555MOL0     H74919   6.415  10.567   9.176  0.9048 -0.4192  1.3711
  555MOL0     H74920   6.525  10.652   9.075 -1.2738  1.2404  1.3208
  555MOL0     H74921   6.576  10.446   9.289  1.7175  0.7135  0.3764
  555MOL0     H74922   6.588  10.626   9.310  2.6065  0.9667  0.3645
  555MOL0     H74923   6.966  10.490   9.201  0.8518  1.1684 -4.8150
  555MOL0     H74924   6.661  10.270   8.599  0.7366 -0.1711 -1.3043
  555MOL0     H74925   6.643  10.292   8.367  2.3808  3.0630  0.2711
  556MOL0     O74926   3.668   1.250   4.692  0.3541  0.4259 -0.1389
  556MOL0     C74927   3.750   1.165   4.698  1.0015 -0.5475 -0.3807
  556MOL0     O74928   3.858   1.153   4.605  1.0249 -0.7005 -0.1523
  556MOL0     C74929   3.870   1.246   4.505  0.7642  0.7835 -0.8221
  556MOL0     C74930   3.893   1.203   4.374 -0.7631 -0.5911 -1.0634
  556MOL0     C74931   3.868   1.299   4.275  0.1938  0.1150  0.2003
  556MOL0     C74932   3.845   1.435   4.299  0.0999  0.1007 -0.2561
  556MOL0     O74933   3.837   1.521   4.185 -1.0085 -0.2670  0.2263
  556MOL0     C74934   3.811   1.661   4.202  0.2115  1.1419 -0.5024
  556MOL0     C74935   3.663   1.690   4.231 -0.0979  0.4248  0.3051
  556MOL0     C74936   3.643   1.833   4.193  0.5059  0.2887  0.0644
  556MOL0     C74937   3.575   1.837   4.054 -0.0596 -0.1380  0.0016
  556MOL0     C74938   3.557   1.970   3.994  0.4092 -0.6228 -0.0584
  556MOL0     C74939   3.472   1.970   3.868 -0.5033  0.3960 -0.4897
  556MOL0     C74940   3.458   2.107   3.807 -0.3802 -0.4532  0.7924
  556MOL0     C74941   3.376   2.094   3.679  0.0590  0.3454  0.8048
  556MOL0     N74942   3.233   2.100   3.702 -1.0797  0.3108 -0.1274
  556MOL0     C74943   3.151   2.199   3.672 -0.3919 -0.7509 -0.2608
  556MOL0     C74944   3.023   2.151   3.674  0.4925 -0.5927 -0.0479
  556MOL0     C74945   2.905   2.233   3.629  0.1163 -0.9889 -0.3752
  556MOL0     C74946   2.783   2.148   3.586  0.0406  0.5663 -0.0912
  556MOL0     C74947   2.815   2.069   3.461 -1.0845 -0.6415  0.5541
  556MOL0     C74948   2.703   1.972   3.417  0.3303  0.1966 -0.1662
  556MOL0     O74949   2.765   1.873   3.336  0.3373 -0.3448 -0.4810
  556MOL0     C74950   2.811   1.759   3.402  0.1275  0.3933  0.2031
  556MOL0     C74951   2.821   1.644   3.325  0.1973  0.0247  0.3250
  556MOL0     C74952   2.866   1.526   3.390  0.0681 -0.1346  0.2052
  556MOL0     C74953   2.888   1.398   3.304  0.4929 -0.0277  0.0562
  556MOL0     C74954   2.912   1.534   3.524 -0.0761 -0.1699 -0.6462
  556MOL0     C74955   2.986   1.411   3.594  0.1223 -0.5498 -0.0620
  556MOL0     O74956   2.967   1.282   3.560  0.5298  0.0781 -0.2193
  556MOL0     C74957   3.035   1.196   3.637  0.0949  0.6591 -1.2605
  556MOL0     C74958   3.013   1.170   3.771  0.0377  0.0681  0.5262
  556MOL0     C74959   3.089   1.075   3.843  0.0486 -0.5132 -0.4157
  556MOL0     C74960   3.190   1.013   3.781 -0.4522 -1.1573 -0.7558
  556MOL0     O74961   3.253   0.933   3.878 -0.2532  0.4399 -0.5326
  556MOL0     C74962   3.375   0.867   3.835 -0.1157  0.0327 -0.1123
  556MOL0     C74963   3.434   0.769   3.944  0.6555 -0.3156 -0.1227
  556MOL0     C74964   3.331   0.663   3.984 -0.0092  0.0968 -0.5257
  556MOL0     C74965   3.403   0.593   4.095  0.2487 -0.2544 -0.2580
  556MOL0     C74966   3.376   0.671   4.223 -1.2597 -0.6845 -0.5512
  556MOL0     C74967   3.444   0.595   4.349 -0.1172 -0.6461 -0.5780
  556MOL0     C74968   3.459   0.441   4.335  0.1723 -0.1016 -0.5451
  556MOL0     C74969   3.486   0.376   4.468 -0.4343 -0.1228 -0.1147
  556MOL0    Cl74970   3.510   0.208   4.439 -0.1679 -0.3773 -0.0390
  556MOL0     C74971   3.222   1.042   3.651 -0.0584 -0.5267  1.3563
  556MOL0     C74972   3.140   1.128   3.579 -0.4798 -0.0890 -0.6868
  556MOL0     O74973   3.074   1.455   3.670 -0.6850  0.4302  0.6257
  556MOL0     C74974   2.913   1.657   3.589  0.0087 -0.0318  0.0000
  556MOL0     C74975   2.862   1.768   3.528  0.2320  0.0017 -0.0330
  556MOL0     N74976   3.034   2.012   3.718  0.4396 -0.2791  0.5140
  556MOL0     N74977   3.161   1.996   3.727 -0.0516  0.9960 -0.5696
  556MOL0     C74978   3.845   1.473   4.433 -0.6195  0.9170  0.2716
  556MOL0     C74979   3.852   1.377   4.536  0.1812 -0.5114 -0.1137
  556MOL0     C74980   3.758   1.067   4.814  1.0791  0.3604 -0.3982
  556MOL0     C74981   3.681   1.097   4.929  0.3307 -0.0456  0.1296
  556MOL0     C74982   3.697   1.016   5.038 -0.2960  0.1206 -0.9874
  556MOL0     C74983   3.771   0.907   5.047 -0.1762  0.6701  0.7627
  556MOL0     O74984   3.772   0.838   5.162 -0.5028 -0.2036 -0.4158
  556MOL0     C74985   3.853   0.720   5.171  0.4896 -0.2000  0.2104
  556MOL0     C74986   3.874   0.672   5.310  1.2123  1.3196  0.5511
  556MOL0     C74987   3.989   0.732   5.386  0.3928  0.6541  0.4678
  556MOL0     C74988   4.032   0.667   5.515  0.7761  0.0916  0.2717
  556MOL0     C74989   3.919   0.668   5.616  0.3235  0.4400 -0.3276
  556MOL0     C74990   3.820   0.657   5.686  0.3059  0.3969 -0.3657
  556MOL0     C74991   3.830   0.867   4.925  0.6777  0.4727  0.3480
  556MOL0     C74992   3.826   0.944   4.808 -0.0569  0.0828  0.6753
  556MOL0     H74993   3.905   1.097   4.353 -1.3893 -1.5175  2.5281
  556MOL0     H74994   3.869   1.275   4.169  0.6643  3.9918 -0.8376
  556MOL0     H74995   3.877   1.700   4.280  0.1156 -1.7908  1.1925
  556MOL0     H74996   3.833   1.709   4.106  0.1215  0.8335 -0.6812
  556MOL0     H74997   3.601   1.620   4.174  0.3119  0.0334  0.3369
  556MOL0     H74998   3.652   1.662   4.336 -1.7473 -0.5383 -0.0853
  556MOL0     H74999   3.566   1.871   4.261  0.0088 -1.5713  0.6098
  556MOL0     H75000   3.736   1.890   4.205 -0.5736  1.8932  1.1839
  556MOL0     H75001   3.627   1.762   3.994 -2.6370 -0.2612 -2.2093
  556MOL0     H75002   3.474   1.799   4.067 -0.2774  0.4918  0.1897
  556MOL0     H75003   3.522   2.035   4.075  0.3350 -0.6216 -0.0906
  556MOL0     H75004   3.645   2.024   3.959 -0.7610  1.3252 -0.1867
  556MOL0     H75005   3.509   1.898   3.795 -3.3489 -0.1699 -1.5171
  556MOL0     H75006   3.380   1.927   3.908 -0.7612 -0.6532 -2.1151
  556MOL0     H75007   3.411   2.176   3.877  0.9419  0.3184  0.9602
  556MOL0     H75008   3.558   2.144   3.780 -0.1367 -1.9648 -0.5525
  556MOL0     H75009   3.409   2.011   3.615  0.8476  0.4145  1.1080
  556MOL0     H75010   3.395   2.187   3.625 -1.0780  1.0083  1.5171
  556MOL0     H75011   3.183   2.302   3.656  0.4331 -0.2146  3.7302
  556MOL0     H75012   2.877   2.293   3.716 -3.1492  0.2823 -2.1395
  556MOL0     H75013   2.934   2.300   3.548  0.9065 -0.5155  0.2766
  556MOL0     H75014   2.698   2.209   3.555  1.2052  1.9078 -0.7323
  556MOL0     H75015   2.749   2.082   3.666 -0.9489 -0.7873 -1.5904
  556MOL0     H75016   2.909   2.019   3.482 -0.8294 -0.3233  0.1802
  556MOL0     H75017   2.843   2.139   3.382  2.9014  1.4897  3.5059
  556MOL0     H75018   2.624   2.027   3.365 -2.1901 -2.2497  0.8469
  556MOL0     H75019   2.659   1.927   3.506 -0.9327  0.9327 -0.3921
  556MOL0     H75020   2.795   1.647   3.220  0.5296 -1.1114  0.1967
  556MOL0     H75021   2.813   1.329   3.342  0.4825  0.9385  1.9114
  556MOL0     H75022   2.881   1.425   3.198  1.0929 -1.3512 -0.3400
  556MOL0     H75023   2.990   1.362   3.320  0.1434 -1.2296 -0.3053
  556MOL0     H75024   2.929   1.225   3.812  0.1075  0.3905  0.2343
  556MOL0     H75025   3.071   1.045   3.946  0.8184  0.6807  0.0794
  556MOL0     H75026   3.362   0.792   3.756  0.1329 -0.9413  0.7474
  556MOL0     H75027   3.433   0.950   3.793 -1.2039  0.4894 -0.7558
  556MOL0     H75028   3.517   0.721   3.893  2.1249  1.0127  0.9064
  556MOL0     H75029   3.462   0.831   4.030 -1.1388  1.7545 -0.9237
  556MOL0     H75030   3.303   0.598   3.901 -1.6908  0.1631 -0.0444
  556MOL0     H75031   3.244   0.716   4.026 -0.4494 -1.4469  0.5983
  556MOL0     H75032   3.358   0.494   4.102 -0.8046  0.3133  1.4202
  556MOL0     H75033   3.512   0.585   4.096  0.3861 -1.6648 -4.6085
  556MOL0     H75034   3.269   0.680   4.243 -0.5956 -0.8943  4.1071
  556MOL0     H75035   3.415   0.773   4.221  1.1456 -1.5669 -0.9917
  556MOL0     H75036   3.546   0.634   4.349  0.2005 -1.4529 -0.5130
  556MOL0     H75037   3.398   0.619   4.445 -0.0376  0.0728 -0.7146
  556MOL0     H75038   3.520   0.413   4.249 -0.4844  0.0839 -1.0770
  556MOL0     H75039   3.357   0.407   4.314 -0.3872  0.9947  0.2835
  556MOL0     H75040   3.403   0.391   4.538  1.1733  4.7480  1.1296
  556MOL0     H75041   3.575   0.425   4.506  0.0304  0.7763 -2.2529
  556MOL0     H75042   3.296   0.987   3.593 -1.7192  0.0372 -1.5363
  556MOL0     H75043   3.177   1.137   3.477 -0.4502 -3.8787 -1.1496
  556MOL0     H75044   2.949   1.657   3.692 -1.1895 -5.0948  0.6884
  556MOL0     H75045   2.871   1.853   3.594  0.4541 -0.7154  0.8748
  556MOL0     H75046   3.848   1.577   4.463 -1.0419  0.6632  1.2315
  556MOL0     H75047   3.854   1.415   4.637 -0.2293  1.7769 -0.8878
  556MOL0     H75048   3.612   1.181   4.940  0.1333 -0.4685  2.6468
  556MOL0     H75049   3.646   1.045   5.129  2.3944  0.5400  0.4990
  556MOL0     H75050   3.822   0.636   5.109  2.1812 -0.9210  0.3128
  556MOL0     H75051   3.952   0.746   5.132 -0.0099 -1.7601 -2.2586
  556MOL0     H75052   3.882   0.563   5.301 -2.0384  1.1522 -2.5635
  556MOL0     H75053   3.789   0.687   5.378 -0.1663 -1.9972 -0.2174
  556MOL0     H75054   3.979   0.839   5.402  4.5366  1.0678  1.5419
  556MOL0     H75055   4.077   0.726   5.321  0.0828  2.1413 -0.1210
  556MOL0     H75056   4.113   0.729   5.555  0.6719 -1.5318  3.3002
  556MOL0     H75057   4.069   0.566   5.495  0.5510 -0.1382  0.9928
  556MOL0     H75058   3.737   0.646   5.752 -0.8957  1.5452 -1.6181
  556MOL0     H75059   3.881   0.771   4.927  2.0956  1.1175 -1.4369
  556MOL0     H75060   3.862   0.906   4.713  0.3842 -2.2452  1.6764
  557MOL0     O75061   7.604   4.195   2.799  0.3618  0.0746 -0.3114
  557MOL0     C75062   7.673   4.137   2.885 -0.0043 -0.4735  0.2955
  557MOL0     O75063   7.795   4.180   2.930  0.1019  0.5910 -0.0186
  557MOL0     C75064   7.847   4.281   2.860  0.5757 -1.0349  0.5469
  557MOL0     C75065   7.839   4.414   2.901 -0.1101  0.4704  0.1107
  557MOL0     C75066   7.903   4.523   2.836 -0.0687  0.4431  0.1068
  557MOL0     C75067   7.977   4.491   2.723 -0.3876 -0.6404  0.5712
  557MOL0     O75068   8.051   4.584   2.651 -0.2817 -0.0492 -0.3662
  557MOL0     C75069   8.099   4.694   2.726  0.1682 -0.4831 -0.2040
  557MOL0     C75070   8.227   4.755   2.667  1.5398  0.9958  0.1756
  557MOL0     C75071   8.202   4.833   2.545  0.2272 -0.0578 -0.1197
  557MOL0     C75072   8.272   4.972   2.523  0.0719 -0.4086  0.0839
  557MOL0     C75073   8.200   5.043   2.414  0.4990 -0.1063 -0.1631
  557MOL0     C75074   8.258   5.178   2.392 -0.5033 -0.1688 -0.4406
  557MOL0     C75075   8.165   5.276   2.316  0.0170 -0.7059  0.6826
  557MOL0     C75076   8.231   5.410   2.277  0.1238  0.9743 -0.7885
  557MOL0     N75077   8.339   5.374   2.184 -0.2691  0.3359  0.2608
  557MOL0     C75078   8.312   5.329   2.059 -0.9606  0.5843 -0.9517
  557MOL0     C75079   8.433   5.322   1.999  1.2576  0.6899 -0.3085
  557MOL0     C75080   8.449   5.276   1.859  0.2050 -0.5078 -0.8826
  557MOL0     C75081   8.489   5.392   1.769 -0.3495 -0.5017 -0.1916
  557MOL0     C75082   8.361   5.458   1.718  0.1777  0.5327 -0.4193
  557MOL0     C75083   8.370   5.567   1.608 -0.6574 -0.6327  0.0404
  557MOL0     O75084   8.310   5.688   1.653 -0.0012 -0.2465  0.0411
  557MOL0     C75085   8.276   5.775   1.564 -0.0966 -0.2435  0.1848
  557MOL0     C75086   8.175   5.862   1.605  0.3431  0.2335  0.3824
  557MOL0     C75087   8.128   5.967   1.515  0.8453 -0.0010 -0.4661
  557MOL0     C75088   8.027   6.063   1.575 -0.0129 -0.6364 -1.3084
  557MOL0     C75089   8.188   5.978   1.389  0.0565  0.2735  0.2565
  557MOL0     C75090   8.151   6.072   1.287 -0.2747 -0.1059 -0.2896
  557MOL0     O75091   8.141   6.019   1.159 -0.1289  0.8532  0.4657
  557MOL0     C75092   8.113   6.100   1.052 -0.8031 -0.8039  0.3793
  557MOL0     C75093   8.074   6.233   1.061  0.7190 -0.8425  0.3887
  557MOL0     C75094   8.043   6.297   0.932 -0.3204  0.3369  0.6073
  557MOL0     C75095   8.049   6.230   0.806 -0.7048 -0.0352 -0.4015
  557MOL0     O75096   8.011   6.290   0.690  0.2926  0.3326  0.1182
  557MOL0     C75097   7.975   6.431   0.693 -0.7346  0.8437  0.2681
  557MOL0     C75098   7.931   6.468   0.554  0.3876  0.8048  0.6942
  557MOL0     C75099   7.919   6.624   0.541  0.5654 -0.0879  0.2257
  557MOL0     C75100   7.927   6.667   0.395 -0.2733 -1.3526  0.1085
  557MOL0     C75101   7.864   6.808   0.371  0.6813  0.9721  0.2703
  557MOL0     C75102   7.953   6.925   0.412 -0.1414 -0.7197  0.9088
  557MOL0     C75103   7.890   7.064   0.391  0.1529 -0.2648  0.3128
  557MOL0     C75104   7.779   7.074   0.494  0.3467 -0.5685  0.0536
  557MOL0    Cl75105   7.739   7.245   0.533 -0.2218 -0.2147  0.5970
  557MOL0     C75106   8.092   6.102   0.808 -0.1123 -0.2964  0.1359
  557MOL0     C75107   8.126   6.034   0.926  0.5277 -0.0440  0.1823
  557MOL0     O75108   8.175   6.190   1.319  0.4017 -0.1610 -0.1332
  557MOL0     C75109   8.283   5.882   1.343  0.6832  0.0852 -0.8027
  557MOL0     C75110   8.333   5.787   1.435 -0.0297  0.4525  0.2190
  557MOL0     N75111   8.523   5.382   2.082 -0.2678  0.6388 -0.1170
  557MOL0     N75112   8.473   5.405   2.199  0.1003  0.1419 -0.5835
  557MOL0     C75113   7.984   4.356   2.675 -0.2499 -0.5374 -0.0178
  557MOL0     C75114   7.924   4.251   2.747 -0.2442  0.5806 -0.2301
  557MOL0     C75115   7.619   4.008   2.943 -0.3488  0.7657  0.2140
  557MOL0     C75116   7.515   3.936   2.885  0.5865  0.0947  0.1889
  557MOL0     C75117   7.495   3.802   2.917  0.4017  0.4496  0.9123
  557MOL0     C75118   7.569   3.742   3.026  0.3447  0.5229  0.5404
  557MOL0     O75119   7.540   3.606   3.038 -0.0683 -0.4538 -0.4123
  557MOL0     C75120   7.614   3.523   3.124  0.6154  0.6926  0.6484
  557MOL0     C75121   7.531   3.401   3.174 -0.6289 -0.4695 -0.5616
  557MOL0     C75122   7.444   3.332   3.069 -0.0904 -0.2425 -0.0397
  557MOL0     C75123   7.379   3.207   3.124  0.2424 -0.7203 -0.8643
  557MOL0     C75124   7.352   3.108   3.020  0.2679 -0.6155 -0.0834
  557MOL0     C75125   7.334   3.038   2.922  0.4303  0.0782  0.2394
  557MOL0     C75126   7.644   3.819   3.110  0.4096 -1.0375  0.7680
  557MOL0     C75127   7.675   3.947   3.060 -0.3340  0.4062 -0.9962
  557MOL0     H75128   7.777   4.438   2.987  1.3175  0.4662  1.1870
  557MOL0     H75129   7.888   4.626   2.866 -0.1582 -0.0115  1.7038
  557MOL0     H75130   8.030   4.775   2.751  0.1260 -1.1604  2.1815
  557MOL0     H75131   8.130   4.657   2.825  1.0738  0.8062  0.0193
  557MOL0     H75132   8.273   4.815   2.747  1.4727  1.5828 -0.2182
  557MOL0     H75133   8.297   4.673   2.652  2.1960  1.4582  0.6197
  557MOL0     H75134   8.232   4.768   2.462  0.8282 -0.0086  0.0517
  557MOL0     H75135   8.095   4.846   2.530 -0.3435 -1.2344  2.3564
  557MOL0     H75136   8.267   5.029   2.616  4.5691  1.6846 -0.7052
  557MOL0     H75137   8.370   4.952   2.478  0.2538 -3.2594  1.5358
  557MOL0     H75138   8.187   4.976   2.329  0.3597 -2.5936  1.7354
  557MOL0     H75139   8.103   5.062   2.459  1.5428 -0.6874  2.5066
  557MOL0     H75140   8.294   5.219   2.486 -0.5981 -0.7930 -0.1286
  557MOL0     H75141   8.349   5.177   2.331  0.4109  0.7629  0.8685
  557MOL0     H75142   8.125   5.224   2.229 -1.1768 -0.7149  1.2216
  557MOL0     H75143   8.090   5.305   2.389 -0.2901 -1.4206  0.6591
  557MOL0     H75144   8.270   5.470   2.360 -2.1725 -0.1245  1.1994
  557MOL0     H75145   8.155   5.470   2.227 -0.3456 -0.2022 -1.5346
  557MOL0     H75146   8.212   5.311   2.021 -1.8796 -2.4266  2.3420
  557MOL0     H75147   8.514   5.188   1.853 -1.1928 -1.6194 -0.4882
  557MOL0     H75148   8.354   5.240   1.818 -3.2460  4.7741  1.4560
  557MOL0     H75149   8.541   5.351   1.682 -1.3374 -1.3954 -0.3740
  557MOL0     H75150   8.557   5.459   1.822  0.1283 -0.1533 -1.2085
  557MOL0     H75151   8.303   5.518   1.790 -0.8383 -0.2901 -0.5206
  557MOL0     H75152   8.286   5.386   1.682 -1.2220  1.9708 -0.5165
  557MOL0     H75153   8.325   5.528   1.516  1.6637  2.0085 -2.4418
  557MOL0     H75154   8.469   5.593   1.570 -1.6371  1.9189 -0.9877
  557MOL0     H75155   8.138   5.853   1.706  0.7072 -0.9752  0.4316
  557MOL0     H75156   7.929   6.024   1.548 -0.7578  0.6102 -0.4933
  557MOL0     H75157   8.024   6.062   1.684 -0.5012 -0.5661 -1.3215
  557MOL0     H75158   8.032   6.163   1.532 -2.5230  0.4228  0.6186
  557MOL0     H75159   8.054   6.278   1.158 -2.4210 -1.4886  0.1770
  557MOL0     H75160   8.041   6.406   0.928  0.4962  0.3620  0.7356
  557MOL0     H75161   7.891   6.459   0.757 -0.9737  1.1692 -0.1818
  557MOL0     H75162   8.068   6.481   0.718 -0.0899 -0.6465  1.0150
  557MOL0     H75163   8.011   6.430   0.490 -2.4601 -1.8403 -1.6053
  557MOL0     H75164   7.839   6.420   0.519  0.6633  1.7361 -1.4421
  557MOL0     H75165   8.006   6.675   0.583 -1.1483  2.1912  1.2078
  557MOL0     H75166   7.828   6.661   0.589 -1.2236 -0.3050 -2.6914
  557MOL0     H75167   8.029   6.667   0.357 -0.8967 -0.2892 -1.7274
  557MOL0     H75168   7.876   6.592   0.334  0.3191 -1.0372 -0.7885
  557MOL0     H75169   7.765   6.807   0.416  0.3279 -0.2512 -0.4922
  557MOL0     H75170   7.852   6.811   0.263 -2.4323 -1.1869  0.4433
  557MOL0     H75171   7.990   6.922   0.515 -0.2588  0.2385  0.9894
  557MOL0     H75172   8.047   6.916   0.357  0.6736 -0.1189  2.1592
  557MOL0     H75173   7.848   7.083   0.292  0.0899 -0.7897  0.2349
  557MOL0     H75174   7.956   7.146   0.421  2.4228 -1.5538 -0.8747
  557MOL0     H75175   7.818   7.034   0.589 -0.0737 -0.6792  0.1822
  557MOL0     H75176   7.690   7.017   0.468  0.0347 -1.1253  2.1766
  557MOL0     H75177   8.089   6.047   0.714 -2.7043  0.4606 -0.2813
  557MOL0     H75178   8.168   5.935   0.935 -1.6850 -0.9278  1.3569
  557MOL0     H75179   8.341   5.884   1.251  2.1272  0.5238  0.0705
  557MOL0     H75180   8.405   5.710   1.412 -1.1766 -1.6123  2.9842
  557MOL0     H75181   8.053   4.338   2.594  2.2477  3.3450  0.9448
  557MOL0     H75182   7.953   4.148   2.728  2.0853  1.5066 -2.2407
  557MOL0     H75183   7.446   3.975   2.811  3.4271  1.4105 -1.9621
  557MOL0     H75184   7.437   3.743   2.846  1.4518  0.2991  0.1587
  557MOL0     H75185   7.704   3.497   3.067  1.6762  3.0876  1.0846
  557MOL0     H75186   7.643   3.576   3.215  2.7156  2.0682 -0.7223
  557MOL0     H75187   7.476   3.429   3.264  1.1483 -0.3228  0.5122
  557MOL0     H75188   7.602   3.326   3.211 -0.6551 -0.8196 -1.1909
  557MOL0     H75189   7.517   3.303   2.993 -0.5907  0.2322 -0.7085
  557MOL0     H75190   7.382   3.405   3.015  0.4021  0.4536  0.3206
  557MOL0     H75191   7.286   3.248   3.165  1.4808  2.3615 -0.8224
  557MOL0     H75192   7.432   3.158   3.206 -4.1189 -2.6417  1.1596
  557MOL0     H75193   7.326   2.981   2.831 -0.9358  1.6621 -0.7026
  557MOL0     H75194   7.690   3.779   3.200 -0.8840 -2.5745  0.7825
  557MOL0     H75195   7.750   4.001   3.117  0.4846  0.5641 -2.1912
  558MOL0     O75196  11.027   0.408  10.719 -0.1614 -0.2660 -0.5962
  558MOL0     C75197  10.952   0.503  10.705  0.6002 -0.3949 -0.1616
  558MOL0     O75198  10.824   0.503  10.768 -0.7750  0.1088 -0.1358
  558MOL0     C75199  10.804   0.396  10.851  0.1562  0.7985  0.4655
  558MOL0     C75200  10.820   0.405  10.994  0.2812 -0.2625 -0.1186
  558MOL0     C75201  10.806   0.287  11.073  0.0592  0.5567  0.4130
  558MOL0     C75202  10.767   0.167  11.021 -0.4434 -0.2482  0.6884
  558MOL0     O75203  10.756   0.065  11.112 -1.2172  0.0774 -0.2731
  558MOL0     C75204  10.663  -0.040  11.089  0.6393 -0.1861  0.3651
  558MOL0     C75205  10.511  -0.017  11.077 -0.3863 -0.4890  0.2971
  558MOL0     C75206  10.436  -0.134  11.003 -0.5218  0.2856  0.4071
  558MOL0     C75207  10.299  -0.153  11.075 -0.9212 -0.8004 -0.2887
  558MOL0     C75208  10.185  -0.202  10.972 -0.6331  0.4211  0.6360
  558MOL0     C75209  10.039  -0.188  11.022 -0.2192  0.2820  0.0570
  558MOL0     C75210  10.002  -0.261  11.150 -0.3661 -0.0018 -0.0736
  558MOL0     C75211   9.874  -0.190  11.206  0.5928 -0.3647 -0.4543
  558MOL0     N75212   9.836  -0.254  11.337 -0.0166 -0.0529 -0.1988
  558MOL0     C75213   9.777  -0.378  11.334  0.0085 -0.1146 -0.3135
  558MOL0     C75214   9.763  -0.412  11.466  1.5219 -0.0633  0.9147
  558MOL0     C75215   9.683  -0.528  11.527 -0.1371 -0.2201 -0.0848
  558MOL0     C75216   9.761  -0.657  11.527  0.6415 -0.4137  0.5744
  558MOL0     C75217   9.657  -0.768  11.565 -0.7166 -0.4267 -0.5058
  558MOL0     C75218   9.728  -0.898  11.566  0.2345 -0.4251  0.5025
  558MOL0     O75219   9.618  -0.988  11.581 -0.1385 -0.5170  0.1151
  558MOL0     C75220   9.611  -1.059  11.699  0.2680 -0.1439  0.9298
  558MOL0     C75221   9.504  -1.144  11.708  0.0963  0.3738 -0.7438
  558MOL0     C75222   9.482  -1.221  11.823 -0.2451  0.4084  0.4282
  558MOL0     C75223   9.348  -1.306  11.813 -0.2775 -0.1846  0.0953
  558MOL0     C75224   9.573  -1.225  11.929  0.7116  0.4923 -0.6514
  558MOL0     C75225   9.576  -1.321  12.049  0.4878 -1.1131  0.6293
  558MOL0     O75226   9.616  -1.275  12.164 -0.4637  0.0495  0.4123
  558MOL0     C75227   9.612  -1.360  12.278 -0.4702  1.4376  0.2988
  558MOL0     C75228   9.516  -1.461  12.306  0.5169  0.8128  0.1584
  558MOL0     C75229   9.519  -1.538  12.421  0.4988  0.3490  0.0294
  558MOL0     C75230   9.621  -1.527  12.515 -0.0777 -0.3214  0.2139
  558MOL0     O75231   9.603  -1.589  12.638 -0.0280 -0.1300  0.7071
  558MOL0     C75232   9.545  -1.500  12.740  0.1791 -0.2701  0.1232
  558MOL0     C75233   9.666  -1.478  12.838  1.6967 -0.5194  0.1807
  558MOL0     C75234   9.644  -1.395  12.966  0.2266  0.3535  0.7053
  558MOL0     C75235   9.782  -1.383  13.040  0.6092 -0.0884  1.6988
  558MOL0     C75236   9.741  -1.313  13.178 -0.5571  0.2942  0.3496
  558MOL0     C75237   9.867  -1.293  13.272 -0.4703  0.6215  1.1346
  558MOL0     C75238   9.956  -1.182  13.221  0.2954 -0.3000  0.6037
  558MOL0     C75239  10.093  -1.179  13.298  0.7025  0.3665  0.1195
  558MOL0    Cl75240  10.056  -1.147  13.468  0.1807 -0.2111  0.0449
  558MOL0     C75241   9.720  -1.434  12.491  0.0725  0.0222 -0.0923
  558MOL0     C75242   9.721  -1.359  12.369 -0.5894  0.0262 -0.6535
  558MOL0     O75243   9.541  -1.435  12.024  0.1554 -0.2497 -0.1366
  558MOL0     C75244   9.680  -1.141  11.916 -1.0108 -0.0008 -0.0863
  558MOL0     C75245   9.699  -1.063  11.807  0.8667  0.0541 -0.2304
  558MOL0     N75246   9.814  -0.303  11.541 -0.1071 -0.2561  0.6736
  558MOL0     N75247   9.869  -0.215  11.464  0.7663  0.6182  0.5884
  558MOL0     C75248  10.746   0.161  10.881  0.6712  0.3084 -0.5828
  558MOL0     C75249  10.764   0.270  10.796  0.6433 -0.1105 -0.5127
  558MOL0     C75250  10.979   0.620  10.618 -0.2305  0.2996  0.0599
  558MOL0     C75251  11.094   0.631  10.541 -0.0872 -0.5553  0.7887
  558MOL0     C75252  11.110   0.738  10.451 -0.1989 -0.1908 -0.2370
  558MOL0     C75253  11.018   0.843  10.435  0.6718  0.2252  0.4018
  558MOL0     O75254  11.058   0.939  10.343 -0.4131 -0.4795 -0.6333
  558MOL0     C75255  10.979   1.054  10.366  0.2402 -0.3029  0.2919
  558MOL0     C75256  11.021   1.170  10.283 -0.7542 -0.6771 -0.3537
  558MOL0     C75257  11.059   1.143  10.135  0.5805  1.2431  0.3294
  558MOL0     C75258  11.098   1.277  10.076 -0.7973 -0.2524 -0.3282
  558MOL0     C75259  11.139   1.256   9.938 -0.1622 -0.0599 -0.5141
  558MOL0     C75260  11.166   1.240   9.820  0.2866 -0.4225 -0.5549
  558MOL0     C75261  10.902   0.832  10.521 -0.6261 -0.6684 -0.3073
  558MOL0     C75262  10.883   0.725  10.613 -0.9919 -0.2074 -0.2925
  558MOL0     H75263  10.860   0.491  11.047 -0.3378  1.4895 -2.3611
  558MOL0     H75264  10.827   0.293  11.179 -0.6797  0.2666  0.5779
  558MOL0     H75265  10.689  -0.082  10.991  0.0865  0.0491  0.1113
  558MOL0     H75266  10.681  -0.115  11.166  2.0016  1.3699  1.6422
  558MOL0     H75267  10.468   0.010  11.174 -0.8868  5.1945 -1.1863
  558MOL0     H75268  10.493   0.075  11.021  1.6512  0.7656  1.5747
  558MOL0     H75269  10.418  -0.118  10.897  1.8492  2.2830  0.2011
  558MOL0     H75270  10.506  -0.217  11.018  0.8250  1.9256  5.1097
  558MOL0     H75271  10.310  -0.217  11.163 -0.2187 -0.2807  0.0111
  558MOL0     H75272  10.278  -0.054  11.116 -0.4332 -0.9963  0.4401
  558MOL0     H75273  10.196  -0.154  10.875 -1.9392 -0.5592 -0.0258
  558MOL0     H75274  10.202  -0.309  10.954 -1.1711  0.4285  0.0744
  558MOL0     H75275  10.024  -0.080  11.030 -0.7713  0.2090  0.0033
  558MOL0     H75276   9.970  -0.216  10.943  1.8404  0.6457 -1.9921
  558MOL0     H75277   9.972  -0.362  11.121 -2.6219  0.4647  0.4323
  558MOL0     H75278  10.080  -0.269  11.226  0.2737  3.7578 -0.1361
  558MOL0     H75279   9.791  -0.175  11.137 -0.0062  2.3285  0.7104
  558MOL0     H75280   9.902  -0.087  11.230 -0.7522 -0.1977  0.5609
  558MOL0     H75281   9.748  -0.433  11.246  1.9050 -0.9795 -0.4320
  558MOL0     H75282   9.657  -0.508  11.631 -0.5673 -4.0719  0.7089
  558MOL0     H75283   9.596  -0.544  11.462 -1.7749 -1.3841  2.2777
  558MOL0     H75284   9.832  -0.649  11.609  2.0121  0.3360 -0.6421
  558MOL0     H75285   9.802  -0.680  11.428 -2.4874  5.3803 -2.6316
  558MOL0     H75286   9.575  -0.777  11.493 -0.6569  1.0507 -0.7890
  558MOL0     H75287   9.607  -0.749  11.661 -0.8882 -0.0028 -0.6727
  558MOL0     H75288   9.806  -0.900  11.642 -0.9929 -0.8053  1.7741
  558MOL0     H75289   9.772  -0.929  11.470 -0.0827  2.0337 -0.5262
  558MOL0     H75290   9.416  -1.139  11.643  0.2077  0.4095 -0.8919
  558MOL0     H75291   9.300  -1.292  11.910 -0.5689  1.7635 -0.2879
  558MOL0     H75292   9.270  -1.268  11.747 -0.8287  1.2134  1.4724
  558MOL0     H75293   9.364  -1.413  11.801 -1.7856 -0.4629  0.3808
  558MOL0     H75294   9.434  -1.482  12.237 -0.2419 -0.1363  1.3104
  558MOL0     H75295   9.433  -1.602  12.437  0.5356  0.6042  1.3418
  558MOL0     H75296   9.510  -1.405  12.700  0.7979 -0.3376 -0.6062
  558MOL0     H75297   9.465  -1.547  12.798 -0.1537 -0.4935 -0.5113
  558MOL0     H75298   9.702  -1.577  12.868 -3.5392 -2.0762  2.5164
  558MOL0     H75299   9.739  -1.427  12.774 -0.2149 -1.4498 -2.9321
  558MOL0     H75300   9.580  -1.445  13.040  1.1120 -0.7824  0.7302
  558MOL0     H75301   9.616  -1.293  12.938 -2.5069  0.2717  2.6421
  558MOL0     H75302   9.824  -1.483  13.055 -0.9266 -1.6308 -2.6380
  558MOL0     H75303   9.844  -1.311  12.985 -2.6225  3.1949  1.9842
  558MOL0     H75304   9.673  -1.377  13.236  0.7771 -1.1209  0.3972
  558MOL0     H75305   9.690  -1.216  13.170  1.4982  1.6689  2.4864
  558MOL0     H75306   9.831  -1.270  13.373  0.4984  1.4317  1.3163
  558MOL0     H75307   9.916  -1.390  13.274 -2.0710 -0.2988 -0.7882
  558MOL0     H75308   9.896  -1.091  13.233  0.3624 -0.3217  1.1026
  558MOL0     H75309   9.982  -1.190  13.115  3.1924  0.4593  1.1838
  558MOL0     H75310  10.156  -1.097  13.263  2.4144 -0.8296  0.2752
  558MOL0     H75311  10.136  -1.280  13.295  0.0326  0.0909 -1.0611
  558MOL0     H75312   9.799  -1.420  12.564 -1.3083 -1.1870  1.7219
  558MOL0     H75313   9.810  -1.298  12.356  0.3691 -0.4254  2.8561
  558MOL0     H75314   9.748  -1.123  11.999 -2.1577 -1.8250  1.3538
  558MOL0     H75315   9.773  -0.984  11.819  0.2623  0.6421 -0.3351
  558MOL0     H75316  10.730   0.060  10.843  4.3441  0.1540 -2.1247
  558MOL0     H75317  10.760   0.256  10.688  0.6986  2.4192 -0.9003
  558MOL0     H75318  11.166   0.550  10.552  0.6035  0.2623  2.8629
  558MOL0     H75319  11.198   0.728  10.389  0.3933 -0.4063  0.6177
  558MOL0     H75320  10.874   1.040  10.340 -0.0878  3.1762 -0.7146
  558MOL0     H75321  10.988   1.100  10.465  0.4157  0.3261 -0.0105
  558MOL0     H75322  11.115   1.196  10.331  0.8485 -2.5546 -2.2968
  558MOL0     H75323  10.948   1.251  10.292 -0.2998  0.1306 -2.9896
  558MOL0     H75324  10.977   1.102  10.076  1.0836  3.5194 -2.1609
  558MOL0     H75325  11.153   1.089  10.114 -0.0847  1.1319 -2.9207
  558MOL0     H75326  11.172   1.320  10.144 -3.6886 -0.1454  3.0733
  558MOL0     H75327  11.013   1.345  10.082 -0.0568  0.5820  1.7786
  558MOL0     H75328  11.187   1.223   9.717  2.0319 -1.4399 -0.0691
  558MOL0     H75329  10.824   0.907  10.522  0.9032  0.9672 -0.3952
  558MOL0     H75330  10.790   0.719  10.669  0.3047  1.1692  2.1913
  559MOL0     O75331   8.355   7.569   4.054  0.3861 -0.0145  0.2147
  559MOL0     C75332   8.444   7.645   4.026  0.1374  1.2092 -0.1823
  559MOL0     O75333   8.431   7.777   4.001  0.3771  0.5578  0.7405
  559MOL0     C75334   8.307   7.826   4.043  0.1878  1.1039  0.3748
  559MOL0     C75335   8.296   7.887   4.169 -0.2011 -0.8521  1.5193
  559MOL0     C75336   8.172   7.937   4.195  0.0842  0.0188 -0.7472
  559MOL0     C75337   8.073   7.952   4.099  0.6675 -0.9904 -0.1006
  559MOL0     O75338   7.958   8.016   4.120 -0.0199 -0.5768 -1.2232
  559MOL0     C75339   7.884   8.010   4.249 -0.3253  0.2931 -0.5008
  559MOL0     C75340   7.738   8.004   4.233  0.5974  0.0400  0.3014
  559MOL0     C75341   7.675   8.115   4.146  0.2977 -0.4061  0.7015
  559MOL0     C75342   7.546   8.078   4.074 -0.4874 -0.5919 -0.0763
  559MOL0     C75343   7.480   8.178   3.985 -0.6295  0.2052 -0.6705
  559MOL0     C75344   7.534   8.171   3.852  0.0542  0.6005  0.1940
  559MOL0     C75345   7.471   8.270   3.749  0.2749  0.6875 -0.0620
  559MOL0     C75346   7.468   8.419   3.793  0.6926  0.1532 -0.5899
  559MOL0     N75347   7.400   8.501   3.701 -0.4894 -1.1251  1.1395
  559MOL0     C75348   7.438   8.510   3.567 -0.3535 -0.4651  0.7665
  559MOL0     C75349   7.383   8.627   3.515  0.0468 -0.5217 -0.1073
  559MOL0     C75350   7.388   8.676   3.370 -0.2440  0.0025  0.3700
  559MOL0     C75351   7.274   8.616   3.282  0.2304 -0.0705  0.2326
  559MOL0     C75352   7.335   8.512   3.191 -0.0792 -0.2034 -0.0818
  559MOL0     C75353   7.239   8.453   3.099 -0.1868  0.6597 -0.2038
  559MOL0     O75354   7.308   8.355   3.014  0.0172 -0.1286 -0.1407
  559MOL0     C75355   7.233   8.265   2.954 -0.8273 -0.1294  0.3370
  559MOL0     C75356   7.317   8.160   2.909  0.7574 -0.2431 -0.4523
  559MOL0     C75357   7.269   8.047   2.847  0.6469  1.2061  0.5390
  559MOL0     C75358   7.388   7.947   2.831 -0.3732 -0.2207 -0.8354
  559MOL0     C75359   7.129   8.042   2.830 -0.5428  0.0798  0.2482
  559MOL0     C75360   7.067   7.937   2.765  1.3775  0.7427 -0.2697
  559MOL0     O75361   6.931   7.926   2.758 -0.0396 -0.0533  0.4338
  559MOL0     C75362   6.852   7.815   2.728  0.0089 -0.3897  0.8479
  559MOL0     C75363   6.895   7.687   2.676  0.5088  0.0056  0.2588
  559MOL0     C75364   6.799   7.589   2.635  0.3256 -0.3158  0.3723
  559MOL0     C75365   6.661   7.615   2.648 -1.4421 -1.0455 -0.4296
  559MOL0     O75366   6.581   7.518   2.600 -0.2757  1.1365  0.4220
  559MOL0     C75367   6.442   7.500   2.630  0.2540 -0.9269 -0.4518
  559MOL0     C75368   6.400   7.367   2.590 -0.8189 -0.0173 -0.2767
  559MOL0     C75369   6.453   7.257   2.693  0.2636 -0.4926 -0.0301
  559MOL0     C75370   6.389   7.123   2.664 -0.1273 -0.6786  0.2916
  559MOL0     C75371   6.445   7.008   2.757 -0.7397 -0.4361  0.2619
  559MOL0     C75372   6.342   6.908   2.803 -0.6817 -0.0770  0.2952
  559MOL0     C75373   6.292   6.819   2.685  0.0786 -0.2728  0.2419
  559MOL0     C75374   6.230   6.696   2.747  0.6635 -0.0234 -1.2051
  559MOL0    Cl75375   6.077   6.752   2.825 -0.4600  0.1487  0.3509
  559MOL0     C75376   6.626   7.734   2.720  0.6431 -0.2682  0.9115
  559MOL0     C75377   6.720   7.834   2.740 -0.1872 -0.3559  0.3575
  559MOL0     O75378   7.143   7.845   2.717  0.6452  0.1435 -0.1932
  559MOL0     C75379   7.051   8.148   2.873  0.6791 -0.8164  0.6115
  559MOL0     C75380   7.097   8.256   2.936 -0.1957 -1.4636 -0.5080
  559MOL0     N75381   7.314   8.687   3.620  0.0107  0.1540 -0.4465
  559MOL0     N75382   7.325   8.612   3.723  0.3675 -0.4671  0.0441
  559MOL0     C75383   8.084   7.899   3.979 -0.1912  0.3195  1.2225
  559MOL0     C75384   8.208   7.826   3.951  0.0672 -0.5904  0.1018
  559MOL0     C75385   8.581   7.578   4.016 -0.3205 -0.4358 -0.1852
  559MOL0     C75386   8.660   7.598   3.897 -0.9504 -0.4222 -1.1339
  559MOL0     C75387   8.798   7.560   3.893  0.3845  0.3312 -0.2944
  559MOL0     C75388   8.857   7.497   4.005 -0.2428 -0.3147 -0.4392
  559MOL0     O75389   8.994   7.466   4.005  0.0543 -0.1315  0.1548
  559MOL0     C75390   9.078   7.555   3.922  0.1418 -0.7107 -0.0137
  559MOL0     C75391   9.227   7.557   3.974  0.2691  0.4820 -0.2132
  559MOL0     C75392   9.288   7.423   3.925  0.5606  0.3011 -1.0502
  559MOL0     C75393   9.424   7.398   3.977  0.2710 -0.1047  0.2050
  559MOL0     C75394   9.502   7.523   3.977 -0.0243  0.3832  0.3430
  559MOL0     C75395   9.575   7.621   3.972  0.8415 -0.0263 -1.5518
  559MOL0     C75396   8.781   7.472   4.118 -0.0994  0.1517 -0.2706
  559MOL0     C75397   8.655   7.515   4.121  0.7080 -1.1867 -0.3014
  559MOL0     H75398   8.375   7.893   4.243  2.4301 -1.9079 -1.0215
  559MOL0     H75399   8.159   7.968   4.298  4.1013 -1.1090  0.2671
  559MOL0     H75400   7.926   7.933   4.315 -1.7990  0.2398  0.4187
  559MOL0     H75401   7.906   8.107   4.294  1.0473  0.2088 -0.9516
  559MOL0     H75402   7.712   7.907   4.191 -2.2524  0.0304  1.8259
  559MOL0     H75403   7.693   8.002   4.333  2.3637  0.8538  1.1583
  559MOL0     H75404   7.646   8.198   4.211 -0.7988  0.0309 -0.3133
  559MOL0     H75405   7.741   8.158   4.071 -3.5930  1.0671 -2.2231
  559MOL0     H75406   7.576   7.996   4.008  2.3489 -1.7209  2.4041
  559MOL0     H75407   7.475   8.042   4.148 -0.0722 -2.8002 -0.6825
  559MOL0     H75408   7.374   8.154   3.990 -0.8454  1.0636 -0.8210
  559MOL0     H75409   7.493   8.277   4.030  0.7423  0.3442 -1.3195
  559MOL0     H75410   7.638   8.203   3.848 -0.1098  1.1200  0.0730
  559MOL0     H75411   7.510   8.071   3.813  4.2908 -1.2138  1.7264
  559MOL0     H75412   7.529   8.256   3.657  0.3747  2.3578 -0.2963
  559MOL0     H75413   7.367   8.250   3.723 -0.5482  4.3852 -0.2324
  559MOL0     H75414   7.568   8.464   3.800  0.5518  0.7327 -1.9507
  559MOL0     H75415   7.414   8.431   3.887  2.7327  0.7194  0.5722
  559MOL0     H75416   7.492   8.434   3.511 -1.5179 -0.7930  0.0557
  559MOL0     H75417   7.362   8.782   3.365  2.0292  0.5401 -1.7475
  559MOL0     H75418   7.491   8.680   3.332 -0.6497  2.4967 -0.6578
  559MOL0     H75419   7.224   8.703   3.239 -1.3974 -1.0710  0.0276
  559MOL0     H75420   7.197   8.563   3.338  0.5736 -0.8235  0.0029
  559MOL0     H75421   7.381   8.428   3.244 -0.2243 -0.9171 -1.0586
  559MOL0     H75422   7.406   8.559   3.122  0.5459 -1.0801 -0.0546
  559MOL0     H75423   7.180   8.525   3.042  2.0075 -0.1771 -3.8709
  559MOL0     H75424   7.165   8.394   3.155 -2.3919  0.2999 -3.2186
  559MOL0     H75425   7.422   8.184   2.922  1.3464 -2.8211  0.1774
  559MOL0     H75426   7.385   7.867   2.904 -0.3797 -0.0252 -0.6194
  559MOL0     H75427   7.402   7.901   2.733  1.3632 -4.1830  1.0656
  559MOL0     H75428   7.481   7.995   2.863 -1.0272 -0.9920  2.5526
  559MOL0     H75429   6.995   7.667   2.640  0.3652 -0.6003  0.1824
  559MOL0     H75430   6.833   7.496   2.591  1.0610  1.0629 -2.1393
  559MOL0     H75431   6.414   7.513   2.735  0.3060 -1.5925 -0.3524
  559MOL0     H75432   6.389   7.584   2.585 -0.3306  0.1304  2.0628
  559MOL0     H75433   6.291   7.364   2.576 -0.3985 -0.8707 -5.0488
  559MOL0     H75434   6.447   7.350   2.492 -1.0658  1.5438 -0.7071
  559MOL0     H75435   6.442   7.297   2.794  1.4345 -2.1017  0.7782
  559MOL0     H75436   6.560   7.243   2.676  0.9905  2.7391  1.0376
  559MOL0     H75437   6.279   7.124   2.670 -0.0877 -0.0065  1.1728
  559MOL0     H75438   6.405   7.095   2.560  1.4180 -0.1683  0.3719
  559MOL0     H75439   6.485   7.051   2.849  1.2592  2.0172 -1.6130
  559MOL0     H75440   6.536   6.968   2.711 -0.3924 -0.8782  1.3108
  559MOL0     H75441   6.393   6.839   2.871 -2.1635 -1.0684  0.4360
  559MOL0     H75442   6.252   6.956   2.842 -1.7454  2.3847 -4.3600
  559MOL0     H75443   6.374   6.795   2.617  0.7834  2.7598 -0.1281
  559MOL0     H75444   6.214   6.878   2.637  0.5848  0.1553 -0.0669
  559MOL0     H75445   6.290   6.654   2.827 -2.3858  0.5862  1.6287
  559MOL0     H75446   6.205   6.615   2.677 -2.0728 -1.0751  0.8158
  559MOL0     H75447   6.520   7.754   2.734  0.8978  0.1903  2.3985
  559MOL0     H75448   6.691   7.934   2.770 -0.7869  0.6212 -3.0503
  559MOL0     H75449   6.945   8.163   2.854  1.5393  1.6463 -3.8081
  559MOL0     H75450   7.032   8.335   2.972 -0.5108 -0.5582 -2.8919
  559MOL0     H75451   8.008   7.915   3.904  1.4206 -0.8408 -0.7511
  559MOL0     H75452   8.228   7.773   3.859  2.3184 -1.5966  1.0793
  559MOL0     H75453   8.625   7.655   3.811  1.3901  1.9544 -0.6395
  559MOL0     H75454   8.856   7.578   3.803  0.0440 -2.2072 -1.1119
  559MOL0     H75455   9.070   7.527   3.817  2.3003 -0.2071 -0.3463
  559MOL0     H75456   9.034   7.655   3.925  0.9371 -0.3014 -1.2958
  559MOL0     H75457   9.229   7.586   4.079  0.4134 -0.3634  0.0214
  559MOL0     H75458   9.276   7.637   3.917  0.7075  1.9345  2.0672
  559MOL0     H75459   9.283   7.429   3.816 -0.3252  1.2478 -0.9766
  559MOL0     H75460   9.230   7.335   3.953 -1.8744  0.5624 -4.6802
  559MOL0     H75461   9.463   7.322   3.909  1.1852 -0.0721  0.6835
  559MOL0     H75462   9.415   7.352   4.076 -0.5490  0.1577  0.2609
  559MOL0     H75463   9.643   7.702   3.954 -1.4984  1.7012 -3.3597
  559MOL0     H75464   8.822   7.443   4.214  1.4492  0.1377 -0.9061
  559MOL0     H75465   8.610   7.495   4.218 -0.9675 -0.9650 -0.9993
  560MOL0     O75466   9.604   7.550  10.508  0.7100 -0.0344  0.4204
  560MOL0     C75467   9.624   7.511  10.623  0.0825  0.6101 -0.6432
  560MOL0     O75468   9.595   7.589  10.735 -0.2887  0.0540  0.3758
  560MOL0     C75469   9.556   7.720  10.723  0.8072  0.4510  0.3423
  560MOL0     C75470   9.462   7.764  10.821 -0.0289  0.0282  0.0960
  560MOL0     C75471   9.414   7.891  10.824  0.3177 -0.4619 -0.1204
  560MOL0     C75472   9.461   7.980  10.720  0.3245  0.2046  0.6040
  560MOL0     O75473   9.406   8.106  10.706 -0.9941 -0.0392 -0.0560
  560MOL0     C75474   9.263   8.102  10.704  0.0204 -0.1986 -0.4320
  560MOL0     C75475   9.214   8.253  10.699  0.5374  0.7723  0.4158
  560MOL0     C75476   9.087   8.273  10.615 -0.2040 -0.6092 -0.1278
  560MOL0     C75477   9.116   8.247  10.461 -0.7175 -0.3389 -0.1714
  560MOL0     C75478   9.006   8.160  10.405  0.7950 -0.7683 -0.3711
  560MOL0     C75479   9.068   8.097  10.274  0.6664  0.9963  0.2617
  560MOL0     C75480   8.972   7.996  10.192 -0.2979 -0.3695  0.1360
  560MOL0     C75481   8.913   8.067  10.071  0.0146 -0.6941  0.1905
  560MOL0     N75482   8.836   7.970   9.986 -2.2139  0.1930 -0.3351
  560MOL0     C75483   8.705   7.949   9.972  0.1291  0.0157  0.0767
  560MOL0     C75484   8.687   7.875   9.862  0.5022  0.4622  0.0769
  560MOL0     C75485   8.553   7.834   9.802 -0.8937 -1.0702  0.2359
  560MOL0     C75486   8.478   7.732   9.879 -0.8983  1.2279 -0.7613
  560MOL0     C75487   8.559   7.602   9.909  0.3824 -0.2293 -0.6980
  560MOL0     C75488   8.474   7.494   9.992  0.2086 -0.2379 -0.7890
  560MOL0     O75489   8.523   7.355   9.993  0.3546 -0.4897 -0.2577
  560MOL0     C75490   8.610   7.331  10.097  0.0766  0.0980  0.0167
  560MOL0     C75491   8.568   7.319  10.232  0.3432 -0.6903 -0.2382
  560MOL0     C75492   8.655   7.262  10.331 -0.7009 -0.6185  0.8387
  560MOL0     C75493   8.605   7.224  10.463 -0.5394  0.4151 -1.1854
  560MOL0     C75494   8.791   7.220  10.285 -0.0591 -0.2940  0.0791
  560MOL0     C75495   8.892   7.150  10.361 -0.5067  0.8239  0.2841
  560MOL0     O75496   8.965   7.049  10.309  0.1624 -0.0099  0.1931
  560MOL0     C75497   9.018   6.937  10.366  0.0194 -0.1636  0.2197
  560MOL0     C75498   9.007   6.905  10.505  0.0636 -0.3729 -0.1306
  560MOL0     C75499   9.071   6.789  10.545  0.2324  0.0751  0.5097
  560MOL0     C75500   9.144   6.711  10.459 -0.3174 -0.9829 -0.2603
  560MOL0     O75501   9.210   6.608  10.518 -0.0042  0.4502 -0.0694
  560MOL0     C75502   9.231   6.483  10.435 -1.1125 -1.1603 -0.0920
  560MOL0     C75503   9.106   6.415  10.397  0.0171 -0.2645 -0.5019
  560MOL0     C75504   9.129   6.274  10.337  0.6516  0.1929 -0.4252
  560MOL0     C75505   8.998   6.237  10.259 -0.3446 -0.2764  0.6173
  560MOL0     C75506   9.018   6.112  10.172  0.7712  0.5357 -0.1616
  560MOL0     C75507   9.019   5.991  10.259 -0.4054 -0.3671 -0.6650
  560MOL0     C75508   8.999   5.859  10.187 -0.8200 -0.6808  0.9048
  560MOL0     C75509   8.959   5.744  10.278 -0.3540 -0.3129 -0.8152
  560MOL0    Cl75510   9.023   5.582  10.214 -0.0741  0.1586  0.1890
  560MOL0     C75511   9.154   6.751  10.327  1.5237 -0.4880  0.1132
  560MOL0     C75512   9.088   6.863  10.272 -1.0971  0.2809  0.0849
  560MOL0     O75513   8.915   7.197  10.469 -0.0757  0.5385 -0.1292
  560MOL0     C75514   8.823   7.255  10.156 -0.3127  0.5610  0.2929
  560MOL0     C75515   8.735   7.295  10.054  0.1351  1.2511 -0.2739
  560MOL0     N75516   8.807   7.834   9.815 -0.3958 -0.2452  0.0894
  560MOL0     N75517   8.893   7.885   9.893 -0.3012  0.5517 -0.7253
  560MOL0     C75518   9.549   7.938  10.627  0.2791  0.4705  0.1418
  560MOL0     C75519   9.602   7.810  10.631  0.4318  1.1635  0.1039
  560MOL0     C75520   9.699   7.381  10.654 -0.3805 -0.5195 -0.4757
  560MOL0     C75521   9.727   7.352  10.791  0.1261  0.1915  0.1329
  560MOL0     C75522   9.819   7.249  10.812  0.2045  0.1808  1.0091
  560MOL0     C75523   9.859   7.156  10.714  0.7707 -0.5030 -0.1473
  560MOL0     O75524   9.930   7.041  10.749  0.1783 -0.0948 -0.4485
  560MOL0     C75525  10.041   7.016  10.675 -1.5431 -0.6866  0.7269
  560MOL0     C75526  10.153   7.079  10.750 -0.1794 -0.2986 -0.7760
  560MOL0     C75527  10.187   7.000  10.879  0.0679 -0.2931  0.2170
  560MOL0     C75528  10.276   7.069  10.981 -0.3262  0.8108 -0.0284
  560MOL0     C75529  10.351   6.972  11.057 -0.3732  1.1088  0.1351
  560MOL0     C75530  10.429   6.890  11.116  0.3761  0.1462 -0.7228
  560MOL0     C75531   9.817   7.183  10.580 -1.2869  0.2666  0.8121
  560MOL0     C75532   9.742   7.295  10.549  0.4470  0.7784 -0.4752
  560MOL0     H75533   9.432   7.693  10.898  1.1900 -0.3247  0.2683
  560MOL0     H75534   9.353   7.932  10.904  0.5501 -0.4939  0.0733
  560MOL0     H75535   9.233   8.054  10.610  0.1267 -1.9056  0.3659
  560MOL0     H75536   9.223   8.052  10.792 -0.8634  0.3672 -0.4963
  560MOL0     H75537   9.195   8.293  10.799  0.4945  2.6200 -0.2917
  560MOL0     H75538   9.295   8.310  10.653 -0.3500 -1.5490 -4.6881
  560MOL0     H75539   9.014   8.211  10.669  2.4119 -1.2689  2.9366
  560MOL0     H75540   9.054   8.378  10.619  0.9458 -0.2768  1.3822
  560MOL0     H75541   9.137   8.342  10.411  1.2521  0.5856  2.2056
  560MOL0     H75542   9.210   8.191  10.451 -1.7075 -2.4221  1.3301
  560MOL0     H75543   8.966   8.085  10.475 -0.3591 -0.6228 -0.8503
  560MOL0     H75544   8.913   8.211  10.377 -0.4628 -1.7575  1.7646
  560MOL0     H75545   9.096   8.175  10.202  0.9512  0.8684  0.2342
  560MOL0     H75546   9.161   8.045  10.298 -0.1883 -0.7966 -0.1720
  560MOL0     H75547   9.042   7.929  10.141  2.5014  2.1644  0.3285
  560MOL0     H75548   8.901   7.938  10.251  0.3136  0.7093  2.0126
  560MOL0     H75549   8.996   8.108  10.012 -0.2078 -3.0582 -1.9340
  560MOL0     H75550   8.848   8.145  10.112  1.6066 -1.2050  4.1316
  560MOL0     H75551   8.625   7.996  10.028 -1.5348 -5.0972  2.6796
  560MOL0     H75552   8.497   7.928   9.800  2.6465  1.2451 -1.5379
  560MOL0     H75553   8.565   7.794   9.701 -1.1700  1.5755 -0.9347
  560MOL0     H75554   8.387   7.698   9.828 -1.6622 -2.0920  2.4004
  560MOL0     H75555   8.453   7.773   9.977 -1.7840  0.4980 -0.6669
  560MOL0     H75556   8.649   7.628   9.965  0.4010  2.0976 -1.7112
  560MOL0     H75557   8.588   7.559   9.812  2.7687  1.0598 -0.6330
  560MOL0     H75558   8.373   7.482   9.952 -0.8319 -0.3609  1.6544
  560MOL0     H75559   8.469   7.532  10.095  5.3110 -0.7705 -0.1029
  560MOL0     H75560   8.469   7.357  10.256 -1.0014 -2.6139 -2.3257
  560MOL0     H75561   8.623   7.119  10.484 -0.7426  0.3210 -1.4814
  560MOL0     H75562   8.653   7.281  10.543 -0.3048 -1.4566  0.0589
  560MOL0     H75563   8.498   7.244  10.476 -1.0078 -0.4719 -3.2927
  560MOL0     H75564   8.941   6.968  10.565 -0.9934 -0.4841 -1.1309
  560MOL0     H75565   9.062   6.761  10.650 -1.5075 -0.5065  0.2290
  560MOL0     H75566   9.295   6.499  10.348 -0.8682 -1.2139  0.0767
  560MOL0     H75567   9.288   6.420  10.504  1.5721 -0.5325 -1.5794
  560MOL0     H75568   9.034   6.413  10.479  0.0182 -0.6505 -0.5068
  560MOL0     H75569   9.067   6.488  10.325 -1.5557 -1.1049 -0.5457
  560MOL0     H75570   9.137   6.198  10.416  1.6390 -0.1335 -0.8111
  560MOL0     H75571   9.224   6.260  10.284  1.6497  2.0091  0.8130
  560MOL0     H75572   8.931   6.218  10.343  0.0576 -2.0690  0.5849
  560MOL0     H75573   8.969   6.323  10.199  0.0785 -0.6233 -0.1029
  560MOL0     H75574   9.107   6.118  10.108  0.2564 -1.5630 -1.1471
  560MOL0     H75575   8.934   6.097  10.105 -1.2641 -0.7746  2.5194
  560MOL0     H75576   9.100   5.974  10.330  0.1601  0.3706 -1.1146
  560MOL0     H75577   8.937   5.999  10.330  0.4653  0.4634  0.2706
  560MOL0     H75578   9.093   5.825  10.144 -0.6670 -1.2498  1.6602
  560MOL0     H75579   8.928   5.875  10.106 -2.9640  0.3214  2.8380
  560MOL0     H75580   8.850   5.746  10.288 -0.5102  3.0412 -1.7434
  560MOL0     H75581   8.997   5.759  10.379  1.2387 -6.1121 -0.2395
  560MOL0     H75582   9.195   6.680  10.256  0.4109 -1.7795  0.7132
  560MOL0     H75583   9.106   6.897  10.171 -0.6109 -0.9702 -0.2638
  560MOL0     H75584   8.913   7.207  10.118 -1.2474 -1.0804  0.0410
  560MOL0     H75585   8.779   7.296   9.955 -1.9018  0.5064 -1.2572
  560MOL0     H75586   9.582   8.002  10.546 -1.2998  0.3127 -0.6560
  560MOL0     H75587   9.673   7.768  10.560  0.4470  0.3513  0.5851
  560MOL0     H75588   9.690   7.406  10.878 -3.0731 -1.7014  0.1054
  560MOL0     H75589   9.834   7.214  10.913 -0.4581  0.2562  1.1387
  560MOL0     H75590  10.043   6.910  10.652 -0.7347 -0.6991  0.8311
  560MOL0     H75591  10.034   7.066  10.578 -2.2273 -0.8030  0.7149
  560MOL0     H75592  10.133   7.179  10.790 -1.4759 -0.4641 -0.9397
  560MOL0     H75593  10.239   7.086  10.683 -1.1870  0.9959 -1.9853
  560MOL0     H75594  10.247   6.919  10.835 -2.3490 -1.7084 -0.6709
  560MOL0     H75595  10.107   6.952  10.936 -0.2857 -1.3214 -1.0725
  560MOL0     H75596  10.209   7.125  11.048 -0.6320  0.5113 -0.0820
  560MOL0     H75597  10.339   7.148  10.939  1.6953 -0.0254  1.2967
  560MOL0     H75598  10.497   6.826  11.167 -0.0017 -0.4940 -1.0115
  560MOL0     H75599   9.840   7.102  10.511  3.1094  0.1879  2.0717
  560MOL0     H75600   9.700   7.298  10.449  2.5820 -1.3586 -1.5395
  561MOL0     O75601   9.624   0.100   1.390 -0.1137  0.5817  0.0220
  561MOL0     C75602   9.611   0.224   1.374  0.6811  1.3532  0.8112
  561MOL0     O75603   9.668   0.313   1.442  0.1235 -0.3891  0.2726
  561MOL0     C75604   9.773   0.274   1.520 -0.6185  0.3738  0.2054
  561MOL0     C75605   9.914   0.298   1.498 -0.0029 -0.1757  0.0034
  561MOL0     C75606  10.007   0.256   1.592 -0.8273  0.7859 -0.5227
  561MOL0     C75607   9.968   0.180   1.703  0.8083  0.1878 -0.4197
  561MOL0     O75608  10.054   0.125   1.799  0.1093  0.3824  0.6680
  561MOL0     C75609  10.179   0.061   1.756  1.0297 -0.6514 -0.5126
  561MOL0     C75610  10.139  -0.047   1.657  0.2837  0.3350  0.8105
  561MOL0     C75611  10.050  -0.162   1.724  0.3543  0.0643  0.7726
  561MOL0     C75612  10.096  -0.211   1.858 -0.0793 -0.2838  1.1314
  561MOL0     C75613  10.020  -0.331   1.904  0.4289  0.5878 -0.8146
  561MOL0     C75614   9.884  -0.305   1.954  1.6805  0.0047  0.1362
  561MOL0     C75615   9.867  -0.233   2.082  0.2549  0.0712  0.1485
  561MOL0     C75616   9.913  -0.306   2.206 -0.3797 -0.3179 -0.9381
  561MOL0     N75617   9.849  -0.246   2.322  0.4001  0.5383  0.0070
  561MOL0     C75618   9.835  -0.302   2.451  0.3780  0.1178 -0.3151
  561MOL0     C75619   9.767  -0.210   2.526  0.1974  0.1149 -0.4885
  561MOL0     C75620   9.706  -0.215   2.663  0.4689  0.9096  0.2143
  561MOL0     C75621   9.798  -0.270   2.777  0.3136  0.0395  0.8025
  561MOL0     C75622   9.713  -0.274   2.906  0.6384  0.5140  0.5109
  561MOL0     C75623   9.780  -0.343   3.030  0.2092 -1.9494  1.2313
  561MOL0     O75624   9.768  -0.489   3.014 -0.6289  0.3811  0.0340
  561MOL0     C75625   9.773  -0.570   3.130  0.6797  0.9751 -1.0638
  561MOL0     C75626   9.829  -0.530   3.256 -0.2297  0.5457 -0.8297
  561MOL0     C75627   9.814  -0.601   3.380 -0.3858  0.1734  1.0700
  561MOL0     C75628   9.848  -0.544   3.509 -0.6396 -0.1647 -0.0003
  561MOL0     C75629   9.761  -0.730   3.375 -1.0805  0.0700 -0.3600
  561MOL0     C75630   9.767  -0.827   3.482  0.4042 -0.0288 -0.0739
  561MOL0     O75631   9.654  -0.890   3.506  0.1635  1.2345 -0.2078
  561MOL0     C75632   9.637  -0.988   3.603 -0.3495 -0.4206 -1.1815
  561MOL0     C75633   9.684  -0.978   3.738 -0.0732  0.8824 -0.3058
  561MOL0     C75634   9.645  -1.079   3.833 -0.5758 -0.4289 -0.4829
  561MOL0     C75635   9.577  -1.188   3.794 -0.4008 -0.5020  0.2451
  561MOL0     O75636   9.526  -1.282   3.886  0.2945  0.2343  0.5434
  561MOL0     C75637   9.419  -1.236   3.962  0.1022 -0.7818 -0.5354
  561MOL0     C75638   9.354  -1.355   4.038  0.1716  0.1101  0.2706
  561MOL0     C75639   9.227  -1.406   3.957  0.2691  0.0496  0.3714
  561MOL0     C75640   9.164  -1.515   4.052  0.8139 -0.3460  0.5150
  561MOL0     C75641   9.069  -1.614   3.970 -0.3434 -0.0250 -0.2092
  561MOL0     C75642   8.974  -1.690   4.063  0.5097 -0.3255  0.0891
  561MOL0     C75643   8.834  -1.719   4.007 -0.3043  0.2952  0.8632
  561MOL0     C75644   8.837  -1.823   3.888  0.0899  0.3516  0.5316
  561MOL0    Cl75645   8.857  -1.730   3.727  0.1099  0.1473 -0.0277
  561MOL0     C75646   9.546  -1.202   3.656 -0.7544 -0.2759  0.3756
  561MOL0     C75647   9.583  -1.107   3.558  0.3186 -1.1328  0.0634
  561MOL0     O75648   9.863  -0.832   3.548 -0.6862  0.2624 -0.1516
  561MOL0     C75649   9.712  -0.778   3.253  0.3141  0.5586 -0.1578
  561MOL0     C75650   9.711  -0.704   3.134  0.2685 -0.4781  0.0379
  561MOL0     N75651   9.762  -0.092   2.451 -0.5478 -0.2168  0.4830
  561MOL0     N75652   9.814  -0.112   2.333 -0.2899  0.5039  0.0556
  561MOL0     C75653   9.832   0.164   1.727  0.0529 -0.0968  0.4431
  561MOL0     C75654   9.736   0.216   1.644  0.8782  0.1830  0.4477
  561MOL0     C75655   9.538   0.275   1.257 -0.3731  0.5127  0.9268
  561MOL0     C75656   9.504   0.409   1.250 -0.5511 -0.6790  0.3333
  561MOL0     C75657   9.429   0.453   1.140 -0.6614 -0.0257 -0.0484
  561MOL0     C75658   9.384   0.377   1.036 -0.0724  0.6710 -0.2903
  561MOL0     O75659   9.325   0.437   0.935  0.6396  0.0256 -0.3726
  561MOL0     C75660   9.289   0.374   0.814 -0.6944  0.3075 -0.3149
  561MOL0     C75661   9.223   0.484   0.729 -0.4560  0.4155  0.5918
  561MOL0     C75662   9.163   0.414   0.604  0.4428  0.0438 -0.1301
  561MOL0     C75663   9.070   0.512   0.526 -0.1419  0.0460 -1.2031
  561MOL0     C75664   9.070   0.465   0.389  0.6286  0.0685  0.1825
  561MOL0     C75665   9.060   0.429   0.274  0.1727 -0.3729  0.0623
  561MOL0     C75666   9.422   0.240   1.044 -0.1347 -0.0895 -0.2113
  561MOL0     C75667   9.498   0.188   1.156 -0.9093 -0.5104  0.0406
  561MOL0     H75668   9.930   0.362   1.412  2.3953  3.2947  2.7474
  561MOL0     H75669  10.115   0.261   1.576 -1.0185  3.3584 -1.6313
  561MOL0     H75670  10.245   0.139   1.717  0.1260 -0.5435 -1.8862
  561MOL0     H75671  10.233   0.032   1.847  2.2684  1.7010 -0.4304
  561MOL0     H75672  10.088  -0.005   1.570 -0.1048 -0.8654  0.4307
  561MOL0     H75673  10.233  -0.096   1.631  0.8504  0.6356  2.2135
  561MOL0     H75674   9.946  -0.128   1.733 -0.0064 -0.4305 -1.0514
  561MOL0     H75675  10.058  -0.244   1.652  1.3989  0.3774  0.5136
  561MOL0     H75676  10.204  -0.228   1.850 -0.5744 -3.2337 -0.7996
  561MOL0     H75677  10.085  -0.129   1.930  0.8743  1.2344 -0.3786
  561MOL0     H75678  10.027  -0.394   1.815 -0.8906  1.5221 -1.6311
  561MOL0     H75679  10.080  -0.379   1.982  0.6172 -1.5382 -2.1956
  561MOL0     H75680   9.841  -0.247   1.872 -0.3444  2.6434  2.8460
  561MOL0     H75681   9.836  -0.403   1.963 -0.4632  0.7564 -2.0048
  561MOL0     H75682   9.910  -0.134   2.070 -2.0214  0.7965 -3.1257
  561MOL0     H75683   9.762  -0.210   2.098  0.4211  1.3763 -0.5728
  561MOL0     H75684  10.021  -0.290   2.214 -0.5550  0.6399 -0.3202
  561MOL0     H75685   9.890  -0.412   2.196 -1.2019  0.0189 -3.1824
  561MOL0     H75686   9.853  -0.405   2.479 -1.1820 -0.4606 -1.3036
  561MOL0     H75687   9.669  -0.117   2.695 -2.1918 -0.6409  2.2302
  561MOL0     H75688   9.616  -0.276   2.656 -0.6308  2.4259  0.5090
  561MOL0     H75689   9.879  -0.204   2.810 -1.0689  0.5998  3.2612
  561MOL0     H75690   9.819  -0.375   2.754 -3.7927 -1.0380  1.1980
  561MOL0     H75691   9.614  -0.319   2.895  0.8295 -0.1205  1.3050
  561MOL0     H75692   9.696  -0.169   2.932 -1.8604  0.7148 -1.5997
  561MOL0     H75693   9.726  -0.308   3.119  0.6384  1.8683  0.1678
  561MOL0     H75694   9.882  -0.304   3.034 -0.6872  0.7325  0.4111
  561MOL0     H75695   9.873  -0.431   3.266  1.5173 -0.0877 -1.7943
  561MOL0     H75696   9.940  -0.582   3.554 -1.8171 -2.9431  0.2701
  561MOL0     H75697   9.849  -0.435   3.512  2.5123 -0.0493 -1.4071
  561MOL0     H75698   9.771  -0.576   3.580  2.1890 -1.6528  2.6633
  561MOL0     H75699   9.745  -0.891   3.761  1.8523 -0.2874 -0.7504
  561MOL0     H75700   9.659  -1.066   3.939 -1.6602  1.8364 -0.5363
  561MOL0     H75701   9.454  -1.164   4.037 -2.6490 -1.1414  1.2094
  561MOL0     H75702   9.338  -1.185   3.910 -0.9965 -2.2372 -0.3333
  561MOL0     H75703   9.432  -1.432   4.029 -0.1568 -0.2097  0.1204
  561MOL0     H75704   9.328  -1.333   4.142 -2.4095  1.8506 -0.6548
  561MOL0     H75705   9.248  -1.467   3.869 -0.5810  2.1053 -1.3584
  561MOL0     H75706   9.158  -1.323   3.934  2.2946  1.2909 -1.5951
  561MOL0     H75707   9.243  -1.577   4.095  0.5430 -1.7523 -0.9179
  561MOL0     H75708   9.116  -1.456   4.131 -0.7334 -0.5466 -0.2384
  561MOL0     H75709   9.134  -1.684   3.916 -1.4741 -0.4057 -1.1374
  561MOL0     H75710   9.011  -1.561   3.894 -0.2846  1.9275  1.0502
  561MOL0     H75711   9.027  -1.782   4.088  2.2757  0.2882 -1.1793
  561MOL0     H75712   8.973  -1.632   4.155  0.3891 -0.8762  0.4344
  561MOL0     H75713   8.783  -1.632   3.965  3.0573  1.3570 -1.3877
  561MOL0     H75714   8.773  -1.766   4.085 -2.2827 -1.0839 -1.3612
  561MOL0     H75715   8.751  -1.885   3.860  0.9823 -1.0077  0.6912
  561MOL0     H75716   8.925  -1.889   3.888  0.7116  1.1699  0.9527
  561MOL0     H75717   9.493  -1.293   3.630 -3.3310  0.9614  0.9398
  561MOL0     H75718   9.562  -1.118   3.452  0.7227  0.8817 -0.2817
  561MOL0     H75719   9.684  -0.883   3.249  1.7648  0.1319  0.4332
  561MOL0     H75720   9.671  -0.736   3.038  0.4591  0.1324 -0.2556
  561MOL0     H75721   9.803   0.115   1.819 -0.0316  0.0983  0.5194
  561MOL0     H75722   9.630   0.214   1.666  0.4358 -0.8433 -1.5360
  561MOL0     H75723   9.529   0.478   1.330  1.4643  1.1861 -1.7855
  561MOL0     H75724   9.405   0.559   1.141  0.8190  0.3247  0.2573
  561MOL0     H75725   9.379   0.338   0.764 -0.3239  0.5858  0.1369
  561MOL0     H75726   9.225   0.289   0.837 -1.1779  0.9103  0.6918
  561MOL0     H75727   9.288   0.566   0.697  4.5526 -2.2391  2.7794
  561MOL0     H75728   9.147   0.529   0.793  1.2827  3.6878  0.5591
  561MOL0     H75729   9.101   0.330   0.639  1.5072 -1.3554 -1.4940
  561MOL0     H75730   9.243   0.370   0.544  1.2581  0.2349  0.7971
  561MOL0     H75731   9.099   0.617   0.535 -1.5493  0.5619 -2.2321
  561MOL0     H75732   8.976   0.503   0.581  2.0082 -0.3265  2.8054
  561MOL0     H75733   9.047   0.397   0.173 -0.8914 -1.5878  0.5531
  561MOL0     H75734   9.389   0.178   0.962  0.1322  1.4060 -1.4982
  561MOL0     H75735   9.520   0.083   1.172 -0.8980 -0.8325 -1.9478
  562MOL0     O75736   2.203   7.267   7.068  0.8223  0.3958  0.5757
  562MOL0     C75737   2.222   7.157   7.111 -0.5717  0.8661  1.0136
  562MOL0     O75738   2.162   7.043   7.066 -0.7062  0.0659 -0.4762
  562MOL0     C75739   2.112   7.041   6.938 -0.3667  0.6865  1.1649
  562MOL0     C75740   2.191   6.982   6.834 -0.1713 -0.8748 -0.2490
  562MOL0     C75741   2.138   6.970   6.712 -0.7407 -0.0336  0.4515
  562MOL0     C75742   2.014   7.021   6.680 -0.1227 -0.6764 -0.6673
  562MOL0     O75743   1.950   7.010   6.552 -0.0879  0.3956 -0.0474
  562MOL0     C75744   2.040   7.015   6.440 -0.4054  0.6246  0.1618
  562MOL0     C75745   1.964   6.960   6.319 -0.3845  1.3552 -1.5415
  562MOL0     C75746   2.022   6.930   6.181  0.6594 -0.4734 -0.3373
  562MOL0     C75747   1.934   6.846   6.092  0.0103  0.3373  0.7224
  562MOL0     C75748   1.955   6.700   6.079 -0.0072 -0.2660 -0.6147
  562MOL0     C75749   1.907   6.620   6.201 -0.0602  0.7317 -0.6671
  562MOL0     C75750   1.755   6.655   6.256 -1.0932  0.3951  0.2072
  562MOL0     C75751   1.641   6.635   6.161  0.4779 -0.1675  1.2134
  562MOL0     N75752   1.531   6.566   6.228  0.0586  0.4844 -0.1684
  562MOL0     C75753   1.445   6.476   6.164 -0.2080 -0.1454 -0.5849
  562MOL0     C75754   1.367   6.425   6.262 -0.7664  0.4583 -0.0106
  562MOL0     C75755   1.269   6.316   6.229 -0.7359  0.1892  0.0041
  562MOL0     C75756   1.169   6.347   6.113 -0.5850  0.1153  0.4800
  562MOL0     C75757   1.068   6.467   6.139  0.0039 -0.3342  0.4353
  562MOL0     C75758   0.965   6.487   6.022 -0.0840  0.5980  0.0555
  562MOL0     O75759   0.861   6.382   6.029 -0.6269  0.5026  0.1437
  562MOL0     C75760   0.773   6.410   5.927 -0.2629 -0.0734 -1.0723
  562MOL0     C75761   0.638   6.409   5.964 -0.6889  0.4193  0.1178
  562MOL0     C75762   0.539   6.447   5.872  1.2939  0.1937 -0.0038
  562MOL0     C75763   0.399   6.473   5.937 -0.9153  0.8042 -1.4806
  562MOL0     C75764   0.572   6.461   5.733 -0.4845 -0.6553 -0.5626
  562MOL0     C75765   0.475   6.475   5.624  0.0741  0.2245 -0.6604
  562MOL0     O75766   0.522   6.477   5.489  0.3422 -0.4997  0.0842
  562MOL0     C75767   0.421   6.496   5.403 -0.6755 -0.0439  0.4320
  562MOL0     C75768   0.413   6.619   5.342  0.1719  0.1625  0.2359
  562MOL0     C75769   0.297   6.654   5.262  0.0529 -0.2542  0.4521
  562MOL0     C75770   0.198   6.567   5.247  0.1752  0.0042 -1.3415
  562MOL0     O75771   0.084   6.596   5.182  0.0596 -0.2513 -0.0785
  562MOL0     C75772  -0.008   6.668   5.263 -0.3763  0.6149  0.1059
  562MOL0     C75773  -0.090   6.576   5.362  0.0676  0.8589 -0.6773
  562MOL0     C75774  -0.162   6.466   5.288 -0.2250  0.3394  0.3300
  562MOL0     C75775  -0.227   6.515   5.155 -0.7162  0.3449  0.0445
  562MOL0     C75776  -0.315   6.394   5.105 -0.0461  0.8973  0.6677
  562MOL0     C75777  -0.427   6.349   5.201 -0.7374 -0.1834  0.3655
  562MOL0     C75778  -0.510   6.244   5.126 -0.0759 -0.0043  0.0590
  562MOL0     C75779  -0.613   6.182   5.231  0.4506 -1.0395 -0.3443
  562MOL0    Cl75780  -0.674   6.305   5.351  0.5059 -0.4126 -0.1122
  562MOL0     C75781   0.217   6.435   5.308 -0.1815  0.2912  0.2010
  562MOL0     C75782   0.331   6.397   5.376  0.2594 -0.1482  0.6877
  562MOL0     O75783   0.356   6.481   5.659 -0.0756  0.0375 -1.0218
  562MOL0     C75784   0.714   6.449   5.701  0.9371 -0.8974  0.6099
  562MOL0     C75785   0.813   6.421   5.792 -0.3768 -0.2899 -0.3490
  562MOL0     N75786   1.412   6.481   6.386  0.6146 -0.4040 -0.3987
  562MOL0     N75787   1.497   6.570   6.356 -0.4043 -0.0528 -0.4084
  562MOL0     C75788   1.946   7.099   6.779 -0.1299 -0.1888  0.7434
  562MOL0     C75789   1.999   7.115   6.906 -0.0024  0.0190  1.0844
  562MOL0     C75790   2.309   7.161   7.231  0.1696 -1.0112  0.1001
  562MOL0     C75791   2.400   7.278   7.252  0.2181 -0.0407 -0.6562
  562MOL0     C75792   2.491   7.281   7.361  0.4805 -0.2538 -0.0354
  562MOL0     C75793   2.507   7.172   7.450  0.5383 -0.1543  0.0944
  562MOL0     O75794   2.592   7.165   7.554  0.6097 -0.0002  0.1011
  562MOL0     C75795   2.667   7.285   7.597 -0.1592 -0.8163  0.3593
  562MOL0     C75796   2.788   7.303   7.500 -0.1122  0.7553 -0.3434
  562MOL0     C75797   2.843   7.441   7.488  0.3737 -0.4339 -0.0631
  562MOL0     C75798   2.829   7.524   7.614  0.0112 -0.3848 -0.3383
  562MOL0     C75799   2.883   7.667   7.602  0.7421 -0.0529 -0.2048
  562MOL0     C75800   2.942   7.772   7.625  0.2181 -0.9555  0.8773
  562MOL0     C75801   2.420   7.053   7.431  0.6531  0.3692 -1.3865
  562MOL0     C75802   2.319   7.055   7.329  0.4304  0.4651  0.1444
  562MOL0     H75803   2.281   6.924   6.856 -1.1195 -3.0352 -1.7461
  562MOL0     H75804   2.176   6.899   6.639 -1.1814  0.6694 -0.4839
  562MOL0     H75805   2.081   7.112   6.410  0.7647  0.2694  0.5811
  562MOL0     H75806   2.127   6.949   6.448  1.8642  3.0375 -2.3101
  562MOL0     H75807   1.923   6.865   6.352  2.0037  0.6987 -0.1968
  562MOL0     H75808   1.883   7.031   6.298 -0.5200  1.8324  0.4483
  562MOL0     H75809   2.043   7.025   6.131 -0.1238 -1.1055 -1.9396
  562MOL0     H75810   2.114   6.878   6.205 -0.2122 -2.2380 -0.6926
  562MOL0     H75811   1.831   6.858   6.127  0.4413 -1.1717  2.6659
  562MOL0     H75812   1.935   6.880   5.988 -2.2602  0.0562  0.5607
  562MOL0     H75813   1.905   6.666   5.988 -0.7061 -1.7196  0.2709
  562MOL0     H75814   2.064   6.697   6.069  0.3050 -0.2694  2.0375
  562MOL0     H75815   1.919   6.513   6.182  1.0190  0.1731  2.5716
  562MOL0     H75816   1.979   6.635   6.282 -0.8014 -0.3683  0.2247
  562MOL0     H75817   1.749   6.599   6.350  3.2195 -1.3348 -0.2998
  562MOL0     H75818   1.751   6.757   6.296  3.8973  0.6751  0.7128
  562MOL0     H75819   1.679   6.567   6.083  2.2319  0.1736  1.7162
  562MOL0     H75820   1.622   6.732   6.115  2.2317 -0.1118  0.5088
  562MOL0     H75821   1.445   6.459   6.057 -3.4331  1.6550 -1.0148
  562MOL0     H75822   1.316   6.220   6.208 -0.2266  0.2997  0.5912
  562MOL0     H75823   1.211   6.298   6.320 -2.1058  1.9124 -0.4612
  562MOL0     H75824   1.109   6.261   6.082 -2.0947  1.0421  0.7378
  562MOL0     H75825   1.233   6.370   6.028 -0.2685  1.1769  0.9811
  562MOL0     H75826   1.106   6.569   6.147 -5.4081  2.0484  0.1799
  562MOL0     H75827   1.001   6.453   6.225 -2.6017 -1.1171 -1.5765
  562MOL0     H75828   1.036   6.476   5.939  1.5277 -1.6406  1.6027
  562MOL0     H75829   0.916   6.584   6.033  0.1436  0.5357  1.9334
  562MOL0     H75830   0.619   6.398   6.070  0.5212 -0.0178  0.3118
  562MOL0     H75831   0.345   6.559   5.896  0.3331  2.0115 -0.6530
  562MOL0     H75832   0.354   6.373   5.937  6.8799 -3.4622  0.4086
  562MOL0     H75833   0.411   6.480   6.045 -0.6685 -2.4720 -1.1862
  562MOL0     H75834   0.492   6.689   5.367 -0.2706 -0.2911  3.3023
  562MOL0     H75835   0.296   6.747   5.205  1.6274 -1.2795 -1.3708
  562MOL0     H75836   0.045   6.744   5.321  0.9016  0.4469 -0.8155
  562MOL0     H75837  -0.074   6.726   5.197  0.6756  1.1706 -0.4730
  562MOL0     H75838  -0.009   6.543   5.428  0.3096 -0.3318 -1.5474
  562MOL0     H75839  -0.161   6.638   5.417 -0.2911 -0.7608  0.7490
  562MOL0     H75840  -0.239   6.420   5.351 -0.1556  1.0893  0.9708
  562MOL0     H75841  -0.104   6.375   5.272 -1.6903 -0.3470 -1.4365
  562MOL0     H75842  -0.289   6.604   5.168 -1.0221  0.1901 -0.3258
  562MOL0     H75843  -0.142   6.532   5.088 -0.0880  2.1124  1.2250
  562MOL0     H75844  -0.254   6.306   5.082  2.1433  2.9305 -2.0394
  562MOL0     H75845  -0.360   6.418   5.008 -0.3833 -1.8781  0.0595
  562MOL0     H75846  -0.388   6.296   5.288 -3.2299 -1.5192  0.7800
  562MOL0     H75847  -0.488   6.437   5.226 -0.5751 -0.1104  0.5074
  562MOL0     H75848  -0.443   6.162   5.099  1.6124  1.4879 -0.4693
  562MOL0     H75849  -0.562   6.287   5.040  1.8419 -0.1995 -1.2582
  562MOL0     H75850  -0.560   6.098   5.276  1.0177 -2.0534 -2.7479
  562MOL0     H75851  -0.700   6.139   5.179  0.0132 -1.1686  0.4831
  562MOL0     H75852   0.149   6.353   5.287  0.3352  0.5614 -2.9825
  562MOL0     H75853   0.341   6.304   5.432  5.7389  0.5269  1.3750
  562MOL0     H75854   0.737   6.444   5.595  0.6879 -0.3669  0.5254
  562MOL0     H75855   0.916   6.411   5.762  0.1418 -1.2928  1.5609
  562MOL0     H75856   1.862   7.159   6.745  1.6493  1.1410 -1.6878
  562MOL0     H75857   1.945   7.166   6.985 -1.2073 -0.0194  0.3162
  562MOL0     H75858   2.399   7.367   7.190 -0.7159 -1.7409 -3.2385
  562MOL0     H75859   2.541   7.374   7.388 -2.6044  0.9622  2.1999
  562MOL0     H75860   2.601   7.372   7.590 -1.1047 -1.6637 -3.7154
  562MOL0     H75861   2.700   7.269   7.700 -0.8444  1.1589  0.9213
  562MOL0     H75862   2.761   7.275   7.398 -2.8752  2.0340 -0.0375
  562MOL0     H75863   2.869   7.233   7.523  0.4211  0.9583 -1.5451
  562MOL0     H75864   2.795   7.495   7.406  0.1817 -0.9485 -0.2992
  562MOL0     H75865   2.951   7.439   7.472  0.3723 -1.1921 -0.0134
  562MOL0     H75866   2.867   7.461   7.695 -0.2137  2.0185  1.7853
  562MOL0     H75867   2.725   7.542   7.646 -0.0723  2.9316 -2.0387
  562MOL0     H75868   2.977   7.871   7.644  0.4637 -0.6579 -0.9237
  562MOL0     H75869   2.434   6.967   7.495 -1.4174  1.5254  0.7695
  562MOL0     H75870   2.262   6.964   7.316  2.7476 -1.3445  1.7101
  563MOL0     O75871   1.111   8.643   2.799 -1.4205 -0.2698  0.6010
  563MOL0     C75872   1.025   8.697   2.864  0.5506  0.1284 -0.3770
  563MOL0     O75873   0.930   8.776   2.817 -0.5073  0.1739  0.5290
  563MOL0     C75874   0.900   8.785   2.682 -0.5097  0.3633 -0.6388
  563MOL0     C75875   0.997   8.801   2.587 -0.1520  0.2138 -0.8537
  563MOL0     C75876   0.972   8.820   2.453  0.2349  0.0145  0.9440
  563MOL0     C75877   0.842   8.830   2.412  0.0823 -0.2940 -0.0551
  563MOL0     O75878   0.803   8.855   2.284  0.2588 -0.2227 -0.5647
  563MOL0     C75879   0.887   8.823   2.174 -0.2027 -0.3002 -0.0532
  563MOL0     C75880   0.811   8.822   2.038  0.0267  0.6096 -0.4481
  563MOL0     C75881   0.719   8.952   2.019 -0.2154  0.7441 -0.1321
  563MOL0     C75882   0.618   8.938   1.901  0.9492 -0.1155 -0.0731
  563MOL0     C75883   0.506   8.835   1.926 -1.2510  0.0871 -0.4902
  563MOL0     C75884   0.418   8.819   1.811 -0.3872  0.3143  1.3182
  563MOL0     C75885   0.466   8.728   1.695 -0.2806 -0.2521  0.3041
  563MOL0     C75886   0.413   8.768   1.557  0.0159  1.1198 -0.0839
  563MOL0     N75887   0.287   8.698   1.522 -0.3839 -0.1403  0.5426
  563MOL0     C75888   0.171   8.714   1.595 -0.2301 -0.0609  0.1117
  563MOL0     C75889   0.080   8.653   1.516  0.2558  0.1345  0.8474
  563MOL0     C75890  -0.067   8.646   1.543 -0.2807 -0.8047  0.0159
  563MOL0     C75891  -0.148   8.735   1.445  0.2013 -0.3643  0.9724
  563MOL0     C75892  -0.297   8.705   1.478 -0.5627 -1.1239  0.6178
  563MOL0     C75893  -0.345   8.560   1.429  1.0476 -0.5209 -1.0504
  563MOL0     O75894  -0.490   8.559   1.414 -0.5961 -0.5520 -0.0360
  563MOL0     C75895  -0.555   8.436   1.434  0.7040 -0.6160 -0.2648
  563MOL0     C75896  -0.497   8.321   1.382  0.3857 -0.6972 -0.3423
  563MOL0     C75897  -0.555   8.195   1.403 -1.3579 -0.7407  0.3698
  563MOL0     C75898  -0.482   8.076   1.350 -0.6943  0.8302 -0.6697
  563MOL0     C75899  -0.669   8.188   1.479  0.8397 -0.1744 -0.0802
  563MOL0     C75900  -0.747   8.064   1.513 -0.2493 -0.3179  0.8520
  563MOL0     O75901  -0.678   7.952   1.533  0.1967 -0.4533  0.1145
  563MOL0     C75902  -0.753   7.857   1.591  0.8209 -0.2946 -0.0546
  563MOL0     C75903  -0.742   7.828   1.730  0.6488 -1.4283  0.8846
  563MOL0     C75904  -0.803   7.722   1.786 -0.1617  0.9088  0.8295
  563MOL0     C75905  -0.881   7.638   1.701  0.4096 -0.2877  0.1641
  563MOL0     O75906  -0.927   7.517   1.735  0.5013 -0.7175  0.3890
  563MOL0     C75907  -0.942   7.499   1.875 -0.0958 -0.2628  0.1997
  563MOL0     C75908  -0.998   7.356   1.887  1.0006  0.0872 -1.2736
  563MOL0     C75909  -1.133   7.342   1.813  0.4867  0.2647  0.1165
  563MOL0     C75910  -1.182   7.193   1.820 -0.4909 -0.4751 -0.0635
  563MOL0     C75911  -1.242   7.160   1.968 -0.5594  0.7961  0.4813
  563MOL0     C75912  -1.360   7.251   2.007 -1.1539  0.9498  0.3189
  563MOL0     C75913  -1.412   7.195   2.140  0.6016  0.0863 -0.8412
  563MOL0     C75914  -1.537   7.275   2.175 -0.5450  0.5089 -0.7549
  563MOL0    Cl75915  -1.498   7.431   2.238 -0.9969  0.1712 -0.0447
  563MOL0     C75916  -0.912   7.670   1.570 -0.8500 -0.5294 -0.7056
  563MOL0     C75917  -0.834   7.773   1.513 -0.4538 -0.0516 -0.0913
  563MOL0     O75918  -0.870   8.069   1.523  0.2088  0.1389  0.8684
  563MOL0     C75919  -0.735   8.304   1.522  0.1668  1.0003 -0.4966
  563MOL0     C75920  -0.678   8.431   1.506  0.4263  0.4762  0.3980
  563MOL0     N75921   0.136   8.599   1.404 -0.2705 -0.5147 -0.1281
  563MOL0     N75922   0.265   8.620   1.406  0.8157 -0.1784  0.6278
  563MOL0     C75923   0.735   8.815   2.506  0.6288  0.7819  1.5073
  563MOL0     C75924   0.767   8.783   2.641  0.5159  0.4488  1.1726
  563MOL0     C75925   1.031   8.646   3.014  0.6110 -0.1696  0.2647
  563MOL0     C75926   1.119   8.549   3.048 -0.5190  0.1630 -0.3282
  563MOL0     C75927   1.123   8.507   3.186 -0.4577 -1.0688  0.3250
  563MOL0     C75928   1.043   8.559   3.282  0.2388  0.5399  0.1226
  563MOL0     O75929   1.041   8.508   3.411 -0.1397 -0.5608 -0.0565
  563MOL0     C75930   1.170   8.533   3.478 -0.0303 -0.3915  0.2945
  563MOL0     C75931   1.132   8.564   3.620 -0.1704  0.1599 -0.4216
  563MOL0     C75932   1.053   8.453   3.693  0.4165  0.4873 -0.3493
  563MOL0     C75933   1.029   8.484   3.833 -0.2042  0.5252 -0.0109
  563MOL0     C75934   0.934   8.591   3.854 -0.1735 -0.5046  0.7173
  563MOL0     C75935   0.871   8.699   3.865 -0.1717 -0.1292 -0.7564
  563MOL0     C75936   0.945   8.653   3.243  0.7380  0.8303 -0.4220
  563MOL0     C75937   0.935   8.703   3.111 -0.3318  0.2516 -0.5048
  563MOL0     H75938   1.101   8.810   2.615 -0.1631 -1.1285 -0.3125
  563MOL0     H75939   1.059   8.829   2.389 -0.9186  0.0414 -0.6709
  563MOL0     H75940   0.961   8.903   2.161 -0.0179 -0.7179 -1.6499
  563MOL0     H75941   0.927   8.724   2.196 -1.8245 -1.0774 -0.5259
  563MOL0     H75942   0.879   8.805   1.954  1.7300 -3.0534  1.4334
  563MOL0     H75943   0.736   8.742   2.034 -2.4059  2.7806 -3.1710
  563MOL0     H75944   0.675   8.972   2.117  1.0253 -0.5875  0.7457
  563MOL0     H75945   0.781   9.042   2.012 -1.8283  1.9831  0.6234
  563MOL0     H75946   0.563   9.029   1.875  0.6290 -0.1469  0.4824
  563MOL0     H75947   0.671   8.904   1.812  2.4461  0.5553  0.5294
  563MOL0     H75948   0.546   8.736   1.948  0.8923  1.4846  2.6192
  563MOL0     H75949   0.450   8.871   2.013  2.1883  2.1905  1.1000
  563MOL0     H75950   0.317   8.784   1.836 -1.3377  1.5936 -0.5158
  563MOL0     H75951   0.401   8.919   1.771  0.3288  0.5858  1.6779
  563MOL0     H75952   0.574   8.741   1.683 -0.7166  2.1984 -2.3727
  563MOL0     H75953   0.440   8.627   1.728 -2.7973  0.6095  1.1993
  563MOL0     H75954   0.495   8.723   1.500  1.6223  3.4958  0.1913
  563MOL0     H75955   0.398   8.874   1.533 -1.2577  0.8742 -0.4558
  563MOL0     H75956   0.161   8.773   1.686  3.5340  3.1187 -1.2591
  563MOL0     H75957  -0.102   8.542   1.554  0.2311 -1.1691 -1.4859
  563MOL0     H75958  -0.088   8.681   1.644 -0.0729 -0.5742 -0.0211
  563MOL0     H75959  -0.127   8.717   1.339  1.1527 -0.9545  1.2453
  563MOL0     H75960  -0.127   8.840   1.467  1.1644 -0.2136 -0.5332
  563MOL0     H75961  -0.368   8.776   1.433 -0.3265 -0.6063  1.0414
  563MOL0     H75962  -0.317   8.719   1.585  2.0249  0.0693  1.0133
  563MOL0     H75963  -0.314   8.484   1.502 -0.4368 -1.1643 -1.0657
  563MOL0     H75964  -0.295   8.537   1.334  2.6490  1.0914 -0.6661
  563MOL0     H75965  -0.407   8.334   1.322  0.3091  0.1378 -0.2878
  563MOL0     H75966  -0.395   8.105   1.290  1.8169 -0.2842  2.1751
  563MOL0     H75967  -0.448   8.030   1.443  1.0519 -1.0715 -2.1276
  563MOL0     H75968  -0.545   8.000   1.301 -0.5438 -1.3902  2.2945
  563MOL0     H75969  -0.691   7.895   1.798  0.0700 -1.0381  0.9449
  563MOL0     H75970  -0.779   7.702   1.890  0.7269 -0.4957  0.3832
  563MOL0     H75971  -0.853   7.509   1.938 -1.8362  2.1477  2.5210
  563MOL0     H75972  -1.015   7.571   1.914  0.5884  0.5587 -0.0202
  563MOL0     H75973  -0.929   7.280   1.850 -1.2454 -1.4184 -2.6523
  563MOL0     H75974  -1.019   7.334   1.992  0.7070 -1.2897 -1.5992
  563MOL0     H75975  -1.130   7.357   1.704 -4.1166 -2.4259 -0.6235
  563MOL0     H75976  -1.219   7.401   1.844 -2.6415 -1.7548 -3.7668
  563MOL0     H75977  -1.260   7.179   1.744 -2.3547  4.3819  0.6135
  563MOL0     H75978  -1.097   7.125   1.808 -1.0955 -1.2562 -0.0023
  563MOL0     H75979  -1.156   7.164   2.035 -0.4113 -1.1406  0.4416
  563MOL0     H75980  -1.268   7.054   1.965 -2.6845  1.2924  0.1500
  563MOL0     H75981  -1.324   7.353   2.026 -0.6588  0.8161  0.1020
  563MOL0     H75982  -1.433   7.261   1.926 -0.0875  3.0621 -0.4604
  563MOL0     H75983  -1.336   7.214   2.217 -0.3347  0.8836 -0.0806
  563MOL0     H75984  -1.448   7.094   2.120 -2.4541  1.2753 -1.9618
  563MOL0     H75985  -1.596   7.220   2.248 -2.4931  5.0134  1.5062
  563MOL0     H75986  -1.606   7.289   2.091 -1.5688  4.1257  0.4715
  563MOL0     H75987  -0.975   7.603   1.512 -1.5197 -4.9760  4.4109
  563MOL0     H75988  -0.836   7.798   1.407  2.6403  2.0706  0.2185
  563MOL0     H75989  -0.824   8.296   1.583  1.4493 -3.8645  1.2270
  563MOL0     H75990  -0.721   8.518   1.554 -1.7920 -0.5248  0.3824
  563MOL0     H75991   0.635   8.816   2.464  0.4736 -1.5176  1.7017
  563MOL0     H75992   0.684   8.766   2.709 -2.4026  0.1475 -2.1861
  563MOL0     H75993   1.184   8.496   2.980  0.9999  0.9156  0.4809
  563MOL0     H75994   1.200   8.439   3.222 -0.5159 -1.1146  0.3614
  563MOL0     H75995   1.229   8.441   3.479 -2.7584 -2.3301  3.2972
  563MOL0     H75996   1.228   8.619   3.443  1.8483 -0.0451  3.7536
  563MOL0     H75997   1.066   8.651   3.626  1.3835  1.3064  1.0081
  563MOL0     H75998   1.227   8.586   3.670  0.2138  2.2875 -1.9398
  563MOL0     H75999   1.098   8.354   3.680  0.3515  0.3698  0.2579
  563MOL0     H76000   0.955   8.449   3.646  0.9616  0.2966 -1.4952
  563MOL0     H76001   1.124   8.498   3.884  1.6715  0.8546 -3.3099
  563MOL0     H76002   0.968   8.402   3.873 -3.0071  2.2577 -0.4184
  563MOL0     H76003   0.821   8.794   3.868  2.8197  1.5847 -0.8633
  563MOL0     H76004   0.885   8.703   3.319  2.4303 -1.5480  2.7022
  563MOL0     H76005   0.857   8.772   3.081 -0.8201  0.4279  1.1087
  564MOL0     O76006   6.428   3.938   0.006 -0.7697 -0.2899  0.3201
  564MOL0     C76007   6.513   3.867  -0.057 -0.6744 -0.9197  0.3271
  564MOL0     O76008   6.649   3.890  -0.056  0.7196  0.8257  0.5022
  564MOL0     C76009   6.711   3.994   0.014  0.4752 -0.3560  0.3128
  564MOL0     C76010   6.810   4.077  -0.043  0.2165  0.0706 -0.4204
  564MOL0     C76011   6.866   4.180   0.026 -0.6531 -0.3257 -0.1528
  564MOL0     C76012   6.816   4.233   0.140  0.2460  0.4847 -0.0853
  564MOL0     O76013   6.877   4.333   0.204 -1.4927 -0.8319  1.1362
  564MOL0     C76014   6.896   4.460   0.135 -0.4149 -0.4889 -0.1935
  564MOL0     C76015   6.934   4.574   0.230  0.4869  0.4060 -0.0313
  564MOL0     C76016   7.076   4.567   0.287  0.5944 -0.7311  0.7880
  564MOL0     C76017   7.118   4.447   0.370 -0.6707 -0.5271  0.7492
  564MOL0     C76018   7.257   4.483   0.411  0.2780 -0.0205 -0.1301
  564MOL0     C76019   7.330   4.371   0.482  0.6278  0.6173  1.0322
  564MOL0     C76020   7.230   4.311   0.585 -0.1216 -0.2346 -0.9982
  564MOL0     C76021   7.296   4.207   0.674 -0.4624  0.0832 -0.4624
  564MOL0     N76022   7.407   4.265   0.759  0.2410  1.0197  0.0726
  564MOL0     C76023   7.541   4.238   0.739  0.1654  0.3949 -0.1697
  564MOL0     C76024   7.610   4.289   0.834  0.2954 -0.7185 -0.2131
  564MOL0     C76025   7.759   4.287   0.835  0.4635 -0.4972 -0.4555
  564MOL0     C76026   7.826   4.219   0.951  0.4494 -0.1450 -0.6333
  564MOL0     C76027   7.979   4.239   0.945 -0.3812  0.7004  0.1761
  564MOL0     C76028   8.058   4.145   1.043 -0.8916 -0.6925  0.0600
  564MOL0     O76029   8.072   4.200   1.182 -0.3599  0.8476  0.7668
  564MOL0     C76030   8.107   4.116   1.288  0.6947  0.8121  0.9213
  564MOL0     C76031   8.035   4.006   1.329 -0.0645 -0.1595  0.1318
  564MOL0     C76032   8.060   3.936   1.455  0.0880  0.3338 -0.0611
  564MOL0     C76033   7.976   3.816   1.481 -0.3972  0.2469 -0.1114
  564MOL0     C76034   8.170   3.964   1.539  1.3995 -0.0729 -0.0342
  564MOL0     C76035   8.206   3.911   1.669  0.3859 -0.0674  0.3972
  564MOL0     O76036   8.339   3.907   1.667 -1.1172 -0.5607 -0.1362
  564MOL0     C76037   8.426   3.892   1.773 -0.2769 -0.9896 -0.0364
  564MOL0     C76038   8.392   3.896   1.905 -0.7762 -0.2623 -0.3235
  564MOL0     C76039   8.487   3.887   2.011 -0.0690 -0.6470  0.2327
  564MOL0     C76040   8.617   3.852   1.985  0.3279  0.2187  0.5054
  564MOL0     O76041   8.700   3.833   2.090 -0.4971 -0.3967  0.0032
  564MOL0     C76042   8.811   3.741   2.085 -0.0606 -0.1104 -0.4109
  564MOL0     C76043   8.904   3.767   2.212  0.1497 -1.3468 -0.9824
  564MOL0     C76044   9.024   3.678   2.204 -0.1189 -0.0925 -1.2570
  564MOL0     C76045   9.120   3.709   2.315 -0.9621  1.1328 -0.0770
  564MOL0     C76046   9.259   3.652   2.292 -0.1094  0.4925 -0.4782
  564MOL0     C76047   9.358   3.666   2.409  1.2655 -0.1973  0.4905
  564MOL0     C76048   9.315   3.642   2.553 -0.6391  0.3889 -0.7578
  564MOL0     C76049   9.417   3.710   2.641 -0.0826 -0.1461 -0.5471
  564MOL0    Cl76050   9.344   3.731   2.800 -0.0708  0.1472  0.0153
  564MOL0     C76051   8.659   3.839   1.848 -0.0729  0.8635  0.2683
  564MOL0     C76052   8.558   3.855   1.746  0.6619  1.0384 -0.6921
  564MOL0     O76053   8.132   3.859   1.754  0.4916 -0.3193 -0.1588
  564MOL0     C76054   8.243   4.075   1.492  0.1830  0.9314 -0.3032
  564MOL0     C76055   8.213   4.149   1.371  0.4575  0.2599  0.8015
  564MOL0     N76056   7.516   4.371   0.897 -0.0936 -0.7165 -0.2278
  564MOL0     N76057   7.396   4.365   0.854 -0.5720  1.2546  0.3825
  564MOL0     C76058   6.719   4.148   0.200  0.1933  0.0582 -0.3189
  564MOL0     C76059   6.665   4.040   0.135 -0.7330  0.3626  0.6585
  564MOL0     C76060   6.458   3.762  -0.135  0.2980  0.7371 -0.0218
  564MOL0     C76061   6.323   3.720  -0.126 -0.8484 -0.6998  0.7153
  564MOL0     C76062   6.274   3.608  -0.199  1.0448 -1.0383  0.6580
  564MOL0     C76063   6.353   3.546  -0.297 -0.2315 -0.0022  0.2894
  564MOL0     O76064   6.308   3.438  -0.372  0.3410  0.6503  0.2984
  564MOL0     C76065   6.399   3.330  -0.381 -0.3589  0.0056  0.8158
  564MOL0     C76066   6.339   3.215  -0.460  0.2635  0.1540 -0.8446
  564MOL0     C76067   6.211   3.168  -0.380  0.1655  0.6063  0.4923
  564MOL0     C76068   6.120   3.073  -0.462  0.5775 -0.2152  0.1845
  564MOL0     C76069   6.186   2.954  -0.512  0.6989  0.6356 -1.1150
  564MOL0     C76070   6.241   2.863  -0.578 -0.0572 -0.6709  1.1615
  564MOL0     C76071   6.484   3.594  -0.318 -0.2617  0.3034  0.2674
  564MOL0     C76072   6.531   3.698  -0.242 -0.2678 -0.0752 -0.8224
  564MOL0     H76073   6.847   4.050  -0.142  0.6742  1.6095 -0.6931
  564MOL0     H76074   6.944   4.232  -0.029  2.3308 -5.7770 -1.7499
  564MOL0     H76075   6.972   4.440   0.059  0.6806 -1.8663  1.2028
  564MOL0     H76076   6.807   4.487   0.078  0.4817  2.3596 -0.3655
  564MOL0     H76077   6.923   4.663   0.167  2.0656 -0.8138 -2.1871
  564MOL0     H76078   6.859   4.588   0.308 -1.3220 -0.7163 -1.4766
  564MOL0     H76079   7.149   4.586   0.208  0.8584 -0.3994  1.1097
  564MOL0     H76080   7.082   4.658   0.348  0.3035 -0.9697  1.1856
  564MOL0     H76081   7.047   4.428   0.451  1.1483 -2.5649  1.9781
  564MOL0     H76082   7.119   4.360   0.304 -4.9176  1.3112 -2.2130
  564MOL0     H76083   7.324   4.495   0.325  1.2765  1.5942  0.8167
  564MOL0     H76084   7.260   4.575   0.470  0.3233 -0.6188  0.8336
  564MOL0     H76085   7.364   4.297   0.408 -2.5839  1.7961 -1.8629
  564MOL0     H76086   7.409   4.422   0.538  0.3403  1.8114  0.3586
  564MOL0     H76087   7.184   4.386   0.650  0.2272 -0.4811 -0.4667
  564MOL0     H76088   7.153   4.255   0.530  1.0561 -0.9424 -1.9686
  564MOL0     H76089   7.325   4.127   0.604 -0.5374  0.6405 -1.1478
  564MOL0     H76090   7.225   4.161   0.743 -0.9093 -2.5919 -2.4972
  564MOL0     H76091   7.581   4.176   0.659  1.0501 -0.9063  1.2293
  564MOL0     H76092   7.794   4.233   0.746  1.0631  1.1476 -1.2475
  564MOL0     H76093   7.793   4.391   0.836  0.6023 -0.5450 -0.2117
  564MOL0     H76094   7.809   4.111   0.954  0.0388 -0.0795 -0.5673
  564MOL0     H76095   7.793   4.261   1.047  2.8110  1.5593 -0.4793
  564MOL0     H76096   8.000   4.346   0.962 -0.9071  0.6558  1.2215
  564MOL0     H76097   8.017   4.224   0.844 -4.1345 -1.1924 -1.1274
  564MOL0     H76098   8.153   4.106   1.004 -1.0468 -2.2298  1.1266
  564MOL0     H76099   7.994   4.059   1.061  0.0890 -1.0871  1.9359
  564MOL0     H76100   7.951   3.975   1.267  2.0425 -1.2871 -2.3652
  564MOL0     H76101   8.047   3.754   1.536  0.9923  1.6199 -0.2743
  564MOL0     H76102   7.887   3.832   1.543 -1.4086  3.9960 -2.1854
  564MOL0     H76103   7.957   3.766   1.386 -0.4827  0.9530 -0.4756
  564MOL0     H76104   8.296   3.928   1.942 -0.6344 -2.0057  1.7829
  564MOL0     H76105   8.467   3.899   2.117  3.4151  1.6275  0.8031
  564MOL0     H76106   8.768   3.641   2.078  0.7505 -0.5413  0.4962
  564MOL0     H76107   8.870   3.755   1.994 -0.0154 -2.8892 -0.8747
  564MOL0     H76108   8.929   3.873   2.218 -0.1691 -1.3449  0.6406
  564MOL0     H76109   8.853   3.737   2.304  1.5448 -0.4134  0.1412
  564MOL0     H76110   9.071   3.693   2.106 -2.3305  2.3058 -2.0873
  564MOL0     H76111   8.978   3.579   2.214  2.5679 -1.1657  2.9240
  564MOL0     H76112   9.126   3.817   2.328 -1.2505  0.9683  1.6588
  564MOL0     H76113   9.090   3.666   2.411  0.6050 -1.4693 -0.6390
  564MOL0     H76114   9.307   3.691   2.202  3.0114 -1.3832  0.1970
  564MOL0     H76115   9.244   3.545   2.275  0.8220  0.5733 -2.0266
  564MOL0     H76116   9.440   3.600   2.377 -0.2805 -0.0647 -4.5110
  564MOL0     H76117   9.399   3.767   2.404  1.7425 -0.4331 -0.5761
  564MOL0     H76118   9.313   3.536   2.579 -6.0768  0.2981 -0.5227
  564MOL0     H76119   9.217   3.683   2.580 -0.1416 -0.0731  2.0703
  564MOL0     H76120   9.437   3.814   2.612 -0.6841  1.0746  2.9290
  564MOL0     H76121   9.506   3.647   2.650  0.1624  0.2052 -0.5038
  564MOL0     H76122   8.764   3.829   1.823 -0.0906 -0.1400  0.5710
  564MOL0     H76123   8.603   3.852   1.647  2.5499 -1.2228  0.1331
  564MOL0     H76124   8.331   4.095   1.552 -0.4308  0.9337  0.6003
  564MOL0     H76125   8.277   4.235   1.353 -1.6165  1.9946  1.3080
  564MOL0     H76126   6.685   4.176   0.299  3.3007  3.5726  0.0211
  564MOL0     H76127   6.588   3.978   0.180 -1.3423 -3.6183 -4.7959
  564MOL0     H76128   6.263   3.751  -0.042  0.6309  1.2521  1.1155
  564MOL0     H76129   6.171   3.578  -0.179  1.0019 -0.1024  1.9371
  564MOL0     H76130   6.494   3.359  -0.426 -0.3062  1.9400  2.0848
  564MOL0     H76131   6.419   3.295  -0.279 -2.8019 -3.8691  0.2121
  564MOL0     H76132   6.411   3.133  -0.455  1.5830  1.2325 -1.6545
  564MOL0     H76133   6.321   3.242  -0.564 -0.7863  0.9125 -0.4831
  564MOL0     H76134   6.145   3.249  -0.346  2.1189  0.8327  4.3370
  564MOL0     H76135   6.246   3.120  -0.288 -1.4642  0.1241  0.8954
  564MOL0     H76136   6.080   3.124  -0.551  2.1346  1.5508  0.4287
  564MOL0     H76137   6.031   3.047  -0.404 -0.4180 -1.4881 -1.7878
  564MOL0     H76138   6.275   2.783  -0.640  2.1414 -1.5930  3.4103
  564MOL0     H76139   6.545   3.565  -0.403  1.4681 -0.5732  1.7412
  564MOL0     H76140   6.630   3.737  -0.264 -0.2590  0.2599 -0.2138
  565MOL0     O76141   7.069   4.576   7.877 -0.0348  0.0606  0.7313
  565MOL0     C76142   6.996   4.650   7.809 -0.3039 -0.0992 -0.7397
  565MOL0     O76143   6.986   4.788   7.825 -0.2318 -0.2279 -0.1122
  565MOL0     C76144   7.088   4.840   7.901  0.1408  0.5733  0.3843
  565MOL0     C76145   7.199   4.882   7.823 -0.0587  0.6075 -0.0279
  565MOL0     C76146   7.298   4.944   7.892 -0.7681 -0.3262 -0.5323
  565MOL0     C76147   7.306   4.950   8.033 -0.5612 -0.9765 -0.3012
  565MOL0     O76148   7.422   4.996   8.096 -0.2427  0.1114 -0.4120
  565MOL0     C76149   7.439   5.138   8.108 -1.1244 -0.5495 -0.0360
  565MOL0     C76150   7.466   5.180   8.251  0.5509  0.1274 -0.3890
  565MOL0     C76151   7.471   5.322   8.254 -0.3366 -0.5726 -0.3136
  565MOL0     C76152   7.608   5.363   8.198  0.1395  0.0022 -0.8440
  565MOL0     C76153   7.641   5.507   8.253 -0.5418  0.3159  0.3643
  565MOL0     C76154   7.767   5.550   8.184  0.5935  1.4544 -0.2154
  565MOL0     C76155   7.813   5.689   8.233  0.6334  0.2920 -0.5120
  565MOL0     C76156   7.823   5.683   8.387  0.7417 -0.7168 -0.0346
  565MOL0     N76157   7.919   5.781   8.444 -0.0461 -1.3162 -0.2679
  565MOL0     C76158   8.049   5.758   8.474  0.6474 -0.2298  1.1656
  565MOL0     C76159   8.104   5.876   8.501  0.7774 -0.5353  0.0625
  565MOL0     C76160   8.251   5.893   8.549 -0.1066 -0.3095  1.3866
  565MOL0     C76161   8.342   5.936   8.436  0.2615 -0.1187  0.0677
  565MOL0     C76162   8.494   5.916   8.467 -0.3751 -0.8733  0.5216
  565MOL0     C76163   8.555   5.787   8.423  0.2615  0.0540 -0.9046
  565MOL0     O76164   8.698   5.786   8.402 -0.4217  0.3393  0.3085
  565MOL0     C76165   8.773   5.814   8.517 -0.5083  0.0457  0.5943
  565MOL0     C76166   8.761   5.725   8.626 -0.3884  0.0972  1.3696
  565MOL0     C76167   8.836   5.736   8.743  0.4682  0.2707 -0.9985
  565MOL0     C76168   8.821   5.631   8.849  0.0913  0.2912  0.5380
  565MOL0     C76169   8.900   5.864   8.771 -0.5381 -0.4644 -0.4065
  565MOL0     C76170   8.951   5.898   8.908 -0.3359  0.2950  0.4651
  565MOL0     O76171   9.041   5.993   8.902  0.1923  0.5935 -0.3510
  565MOL0     C76172   9.058   6.071   9.008 -0.0894 -0.4883 -0.2989
  565MOL0     C76173   8.983   6.193   9.023  0.2221 -0.0457  0.1663
  565MOL0     C76174   8.992   6.260   9.142 -0.1263  0.1422 -0.4753
  565MOL0     C76175   9.087   6.224   9.247 -0.2042 -0.5509 -0.1008
  565MOL0     O76176   9.108   6.289   9.361 -0.4432  0.0097 -0.2009
  565MOL0     C76177   9.063   6.425   9.378 -0.0871  0.3476  0.1192
  565MOL0     C76178   9.182   6.514   9.348  0.1550 -1.0317  0.7311
  565MOL0     C76179   9.125   6.653   9.367 -0.3376  0.4327  0.2652
  565MOL0     C76180   9.211   6.765   9.299  0.9677  0.3832  1.1146
  565MOL0     C76181   9.178   6.902   9.361  0.6302  0.0350  0.3309
  565MOL0     C76182   9.264   7.012   9.287  0.3670 -0.1863  0.3397
  565MOL0     C76183   9.207   7.137   9.332 -0.0961  0.0151 -0.4377
  565MOL0     C76184   9.245   7.196   9.473  1.3301  0.0978 -0.1561
  565MOL0    Cl76185   9.418   7.226   9.484 -0.2684 -0.3301  0.3516
  565MOL0     C76186   9.164   6.115   9.230 -0.1439  0.2649 -0.8653
  565MOL0     C76187   9.144   6.037   9.119 -0.2521  0.2943  0.7971
  565MOL0     O76188   8.893   5.868   9.011  0.6485 -0.0986  0.4239
  565MOL0     C76189   8.898   5.959   8.661  0.1007  0.0040  0.7055
  565MOL0     C76190   8.851   5.927   8.533 -0.5814  0.5702  0.9562
  565MOL0     N76191   8.011   5.971   8.470  0.1470  0.1089 -0.0611
  565MOL0     N76192   7.911   5.915   8.420  0.6760  0.6202 -0.1763
  565MOL0     C76193   7.196   4.915   8.112  0.8866 -0.4735  1.0600
  565MOL0     C76194   7.078   4.865   8.042 -0.8216  0.5170 -0.9161
  565MOL0     C76195   6.931   4.586   7.698  0.2873 -0.3759  0.4502
  565MOL0     C76196   6.935   4.452   7.675  0.8188  0.3013 -0.8519
  565MOL0     C76197   6.915   4.392   7.556 -0.5482  0.3422  0.0426
  565MOL0     C76198   6.862   4.466   7.456 -0.2246  0.7986  0.7426
  565MOL0     O76199   6.846   4.416   7.326  0.2621 -0.6631  0.2514
  565MOL0     C76200   6.858   4.272   7.298  0.4809 -0.2339 -0.4520
  565MOL0     C76201   6.994   4.235   7.249  0.2489  0.0591  0.7773
  565MOL0     C76202   7.076   4.318   7.152  0.1701 -0.6234 -0.7274
  565MOL0     C76203   7.158   4.426   7.210 -0.5935 -0.0107 -0.4358
  565MOL0     C76204   7.186   4.541   7.123  0.6710  0.3053 -0.2045
  565MOL0     C76205   7.218   4.633   7.053 -0.2142  0.2184 -0.4077
  565MOL0     C76206   6.848   4.600   7.467  0.0485 -1.1320  0.1609
  565MOL0     C76207   6.882   4.668   7.589 -0.2984  0.0359  0.3867
  565MOL0     H76208   7.215   4.872   7.716  1.6832 -0.9796  0.3343
  565MOL0     H76209   7.384   4.983   7.837 -0.2801  1.4202  1.3286
  565MOL0     H76210   7.526   5.167   8.049  0.2942 -2.3878  1.0258
  565MOL0     H76211   7.351   5.192   8.071 -1.9069 -1.7048  0.0797
  565MOL0     H76212   7.393   5.151   8.327  3.9532 -3.1177  2.0577
  565MOL0     H76213   7.550   5.125   8.295 -0.6458  0.9982  3.3711
  565MOL0     H76214   7.403   5.377   8.188  0.6709 -0.0918 -0.9782
  565MOL0     H76215   7.452   5.367   8.352 -1.9354  1.2661 -1.3869
  565MOL0     H76216   7.683   5.287   8.222  0.6005  0.4787 -0.7594
  565MOL0     H76217   7.598   5.360   8.089 -0.5347 -2.5211 -0.7857
  565MOL0     H76218   7.570   5.586   8.227  1.3704  1.2620 -2.3910
  565MOL0     H76219   7.650   5.502   8.362  1.4886  2.1096  0.3346
  565MOL0     H76220   7.850   5.480   8.199  1.2339  1.6865 -2.2856
  565MOL0     H76221   7.743   5.551   8.077 -1.9355 -0.9104  0.1815
  565MOL0     H76222   7.909   5.721   8.192  1.6919 -2.4778 -0.4464
  565MOL0     H76223   7.737   5.761   8.201  3.2649  2.6630 -1.8033
  565MOL0     H76224   7.858   5.587   8.425  3.1927  0.3911  0.7107
  565MOL0     H76225   7.722   5.706   8.423  0.4274  2.9546 -2.7052
  565MOL0     H76226   8.083   5.660   8.505  2.2030  0.1976  0.9115
  565MOL0     H76227   8.245   5.971   8.626 -1.0153 -0.4525  1.4755
  565MOL0     H76228   8.293   5.805   8.599 -0.4588 -1.7123 -0.6549
  565MOL0     H76229   8.329   6.043   8.422 -1.1428  0.3542  3.8570
  565MOL0     H76230   8.305   5.878   8.350 -0.9458 -3.1347  2.4302
  565MOL0     H76231   8.524   5.947   8.567  1.3796  2.4776 -0.9018
  565MOL0     H76232   8.541   5.986   8.398  1.8746 -2.4825  0.3033
  565MOL0     H76233   8.524   5.758   8.322  1.1152  0.1518 -1.2004
  565MOL0     H76234   8.524   5.700   8.482  1.0414  1.2977  1.4621
  565MOL0     H76235   8.720   5.626   8.612  1.0377 -0.1826 -1.5176
  565MOL0     H76236   8.753   5.654   8.932  2.6404 -1.8151  3.4431
  565MOL0     H76237   8.782   5.541   8.800 -3.5398 -0.1772  3.8014
  565MOL0     H76238   8.919   5.609   8.892  0.8541  2.0132 -0.2424
  565MOL0     H76239   8.916   6.237   8.949 -1.3790  0.0319  1.5888
  565MOL0     H76240   8.922   6.342   9.153 -1.2487 -0.9328  0.6478
  565MOL0     H76241   8.977   6.448   9.315 -0.1697 -0.1345  0.0559
  565MOL0     H76242   9.037   6.451   9.481  1.7388 -0.0915  0.7339
  565MOL0     H76243   9.259   6.497   9.424 -1.8938 -2.1381  2.7026
  565MOL0     H76244   9.233   6.496   9.253 -0.0774 -0.2906  0.4642
  565MOL0     H76245   9.145   6.672   9.473 -0.3687 -0.3687  0.4175
  565MOL0     H76246   9.018   6.666   9.350 -0.5432 -1.7958 -0.3544
  565MOL0     H76247   9.317   6.737   9.304  0.4801 -1.5496  1.5124
  565MOL0     H76248   9.187   6.765   9.192 -0.5707  0.4425  1.4410
  565MOL0     H76249   9.191   6.891   9.469 -0.4628  0.3222  0.5036
  565MOL0     H76250   9.075   6.934   9.345 -0.3273 -2.2877  1.3114
  565MOL0     H76251   9.371   6.998   9.304  0.8912  1.5505 -1.2367
  565MOL0     H76252   9.242   7.000   9.180  2.5356  0.6048 -0.2393
  565MOL0     H76253   9.098   7.146   9.324 -0.0424  1.9109  0.3134
  565MOL0     H76254   9.250   7.214   9.267 -0.2691  2.6278  2.3084
  565MOL0     H76255   9.220   7.118   9.546  3.1568 -0.3858 -0.0085
  565MOL0     H76256   9.178   7.280   9.495 -0.3296 -0.8833 -1.2475
  565MOL0     H76257   9.223   6.076   9.313 -2.1233 -0.8136  0.1007
  565MOL0     H76258   9.215   5.958   9.098  0.2207  1.3913 -2.3399
  565MOL0     H76259   8.954   6.050   8.676 -0.8361  0.2918  2.8338
  565MOL0     H76260   8.857   5.991   8.445 -2.6373 -0.3869  0.0415
  565MOL0     H76261   7.189   4.933   8.218  1.6975  1.2765  0.8553
  565MOL0     H76262   6.995   4.828   8.101 -0.6774  1.5465 -0.0460
  565MOL0     H76263   6.974   4.400   7.762 -0.2100 -1.1044 -1.2053
  565MOL0     H76264   6.946   4.287   7.551 -1.8903 -0.2419  2.5573
  565MOL0     H76265   6.834   4.212   7.387  0.2528 -3.2478 -2.3745
  565MOL0     H76266   6.785   4.246   7.221 -0.9326 -0.4230  0.8965
  565MOL0     H76267   6.985   4.138   7.200 -0.9025 -1.4065  3.6286
  565MOL0     H76268   7.058   4.214   7.335 -0.9975 -1.6316  1.3428
  565MOL0     H76269   7.012   4.361   7.075  2.1736 -0.7709 -2.5906
  565MOL0     H76270   7.147   4.255   7.097 -0.9060 -3.4618  0.8758
  565MOL0     H76271   7.256   4.392   7.243 -0.8248  0.6061  0.9430
  565MOL0     H76272   7.115   4.464   7.303  1.3970 -0.5679  0.7688
  565MOL0     H76273   7.239   4.725   7.002 -1.4641  0.3179 -0.7757
  565MOL0     H76274   6.812   4.665   7.388  4.0159  1.3019  0.0313
  565MOL0     H76275   6.894   4.774   7.606 -0.3654 -0.1533  1.7598
  566MOL0     O76276   6.789   3.638   3.951 -0.1062 -0.3715  0.0790
  566MOL0     C76277   6.862   3.593   3.868  1.3202  0.5327 -0.6210
  566MOL0     O76278   6.983   3.628   3.850  0.2496 -0.4378  0.3248
  566MOL0     C76279   7.047   3.681   3.964  0.6163 -1.0265 -0.1162
  566MOL0     C76280   7.106   3.610   4.066  0.0577  0.6344 -0.6243
  566MOL0     C76281   7.157   3.663   4.187 -0.0943  0.2454  0.5389
  566MOL0     C76282   7.155   3.803   4.201  0.7012 -0.3451  0.3882
  566MOL0     O76283   7.223   3.847   4.307  0.2596  0.1016 -1.1040
  566MOL0     C76284   7.270   3.981   4.300 -0.8817  0.2862 -0.9989
  566MOL0     C76285   7.339   4.007   4.441 -0.3766  0.2927 -0.5853
  566MOL0     C76286   7.483   3.953   4.460  0.3878  0.0955  0.6200
  566MOL0     C76287   7.523   3.977   4.604  0.1524  0.6339 -0.0292
  566MOL0     C76288   7.660   3.913   4.649 -0.1754  0.3643  0.2445
  566MOL0     C76289   7.696   3.953   4.788 -0.6164  0.0311  0.0228
  566MOL0     C76290   7.815   3.879   4.842 -0.2006  0.5717  0.2878
  566MOL0     C76291   7.836   3.907   4.983  0.6843  0.3264  0.1454
  566MOL0     N76292   7.947   3.822   5.037 -0.6162 -0.8476  0.9440
  566MOL0     C76293   8.063   3.883   5.086  1.5370 -0.1431 -0.7057
  566MOL0     C76294   8.145   3.781   5.110  0.1789  0.7949 -0.3305
  566MOL0     C76295   8.283   3.808   5.162 -0.6610 -0.1144  0.5273
  566MOL0     C76296   8.302   3.742   5.299  0.5302  0.1880  0.5811
  566MOL0     C76297   8.455   3.717   5.330 -0.8576 -0.2585  0.1259
  566MOL0     C76298   8.487   3.623   5.456 -0.6737 -0.4428  0.2774
  566MOL0     O76299   8.415   3.675   5.563 -0.6028 -0.5402 -0.8151
  566MOL0     C76300   8.414   3.619   5.685 -0.7059  0.3159 -0.0175
  566MOL0     C76301   8.444   3.698   5.795  0.1612  0.6812  0.4183
  566MOL0     C76302   8.460   3.646   5.926  0.6226 -0.5031 -0.8613
  566MOL0     C76303   8.497   3.748   6.026 -0.2191 -0.3939 -0.2063
  566MOL0     C76304   8.432   3.505   5.947  0.4278  0.4338  0.3903
  566MOL0     C76305   8.455   3.442   6.073 -1.1045  1.1611 -0.3083
  566MOL0     O76306   8.556   3.499   6.143  0.8411  0.5815  0.6231
  566MOL0     C76307   8.550   3.483   6.276  0.7299  1.4488  0.3197
  566MOL0     C76308   8.663   3.434   6.345  0.1580 -0.0910  0.7975
  566MOL0     C76309   8.666   3.440   6.481  1.1927 -0.4965 -0.1508
  566MOL0     C76310   8.545   3.460   6.547  0.3621 -0.4363 -0.4692
  566MOL0     O76311   8.535   3.460   6.692  0.2909  0.5008  0.7060
  566MOL0     C76312   8.641   3.404   6.763  0.8112  0.2214 -0.2863
  566MOL0     C76313   8.609   3.373   6.907 -0.5941 -0.4877 -0.0940
  566MOL0     C76314   8.742   3.334   6.982 -0.1241  0.7423 -0.1231
  566MOL0     C76315   8.852   3.247   6.910 -0.6074 -0.7596 -0.0401
  566MOL0     C76316   8.949   3.196   7.013 -0.7961  0.1208  0.4375
  566MOL0     C76317   9.075   3.126   6.953 -0.6763  1.6487 -0.6205
  566MOL0     C76318   9.183   3.218   6.916  0.4422 -0.3360  0.9741
  566MOL0     C76319   9.309   3.132   6.880 -0.3347  0.0615  0.5518
  566MOL0    Cl76320   9.437   3.244   6.814 -0.6787 -0.0430  0.6829
  566MOL0     C76321   8.430   3.486   6.473  0.9274  0.4441 -1.0443
  566MOL0     C76322   8.430   3.511   6.343  0.2413  0.4598 -0.4842
  566MOL0     O76323   8.408   3.329   6.104 -0.2244 -1.4950 -0.8878
  566MOL0     C76324   8.398   3.425   5.827  0.4023 -0.1786 -0.2657
  566MOL0     C76325   8.382   3.484   5.702 -0.6755 -0.3775  1.0348
  566MOL0     N76326   8.081   3.662   5.071  0.7108 -0.5292  0.1187
  566MOL0     N76327   7.962   3.685   5.032 -1.0313  0.5881 -0.3066
  566MOL0     C76328   7.102   3.885   4.092 -0.1714 -0.0729  0.2835
  566MOL0     C76329   7.038   3.825   3.979 -0.1569  0.1977 -0.1626
  566MOL0     C76330   6.785   3.500   3.780  0.4176  0.2697 -1.1382
  566MOL0     C76331   6.848   3.460   3.660 -0.6208 -0.2464  0.3407
  566MOL0     C76332   6.795   3.356   3.588  0.0340 -1.4557  0.8562
  566MOL0     C76333   6.694   3.278   3.638  0.6297  0.0229 -0.4332
  566MOL0     O76334   6.672   3.173   3.559  0.0886 -0.6235 -1.2093
  566MOL0     C76335   6.554   3.094   3.582 -0.0666 -0.1707  0.3593
  566MOL0     C76336   6.559   2.975   3.486  0.4149  0.9976 -1.0130
  566MOL0     C76337   6.487   2.990   3.353  0.7233  1.2634 -0.9760
  566MOL0     C76338   6.547   3.106   3.275 -0.2312 -1.1674 -0.0805
  566MOL0     C76339   6.698   3.089   3.273  0.1967  0.0633 -0.1359
  566MOL0     C76340   6.816   3.069   3.251  0.1526 -0.2278 -0.1314
  566MOL0     C76341   6.621   3.315   3.760  0.2523 -0.3809  0.1665
  566MOL0     C76342   6.669   3.429   3.830 -0.0237  0.3100  0.5188
  566MOL0     H76343   7.104   3.504   4.043  0.4132  0.9561 -2.2657
  566MOL0     H76344   7.203   3.602   4.264  0.2154 -0.6321 -0.3176
  566MOL0     H76345   7.349   3.990   4.224  1.5645 -2.9309  0.9221
  566MOL0     H76346   7.187   4.051   4.287 -0.4915  1.2635  1.3588
  566MOL0     H76347   7.338   4.116   4.449  1.3525  0.3102 -0.1928
  566MOL0     H76348   7.280   3.965   4.523 -0.4737  1.4246 -0.0534
  566MOL0     H76349   7.473   3.852   4.419 -3.0770  0.5001  0.0942
  566MOL0     H76350   7.549   3.995   4.383 -2.7535 -0.9412 -2.9871
  566MOL0     H76351   7.519   4.086   4.610 -0.9918  0.5694  0.6922
  566MOL0     H76352   7.453   3.952   4.685 -1.6663  0.0893 -1.7113
  566MOL0     H76353   7.649   3.804   4.647  1.0233  0.2396  0.0004
  566MOL0     H76354   7.739   3.933   4.576 -0.9159  2.4782 -0.0317
  566MOL0     H76355   7.716   4.061   4.793 -0.3463  0.0188 -0.6265
  566MOL0     H76356   7.611   3.938   4.854 -0.7286  1.2640  0.1868
  566MOL0     H76357   7.797   3.772   4.833 -0.1638  0.5946 -0.0573
  566MOL0     H76358   7.897   3.893   4.772  0.5437  0.8144  1.1812
  566MOL0     H76359   7.744   3.881   5.036  2.3837 -2.7450  1.8780
  566MOL0     H76360   7.869   4.009   5.002  1.9254 -0.4569  2.5472
  566MOL0     H76361   8.075   3.991   5.085 -3.5409  0.6523 -0.3182
  566MOL0     H76362   8.347   3.755   5.092  0.6010  2.0023 -0.0083
  566MOL0     H76363   8.300   3.916   5.159 -0.9893 -0.0712 -2.0242
  566MOL0     H76364   8.245   3.649   5.296 -1.0386  1.1281  0.3297
  566MOL0     H76365   8.261   3.805   5.378 -1.1534  1.7325 -1.3946
  566MOL0     H76366   8.507   3.812   5.347  1.7095 -1.4309 -0.7650
  566MOL0     H76367   8.507   3.658   5.254  0.8092 -1.1430  1.8867
  566MOL0     H76368   8.593   3.611   5.476 -0.6184 -1.0505 -0.3142
  566MOL0     H76369   8.462   3.522   5.422 -0.5727  0.1006 -1.5721
  566MOL0     H76370   8.466   3.804   5.785 -0.2530  0.5806 -2.6766
  566MOL0     H76371   8.461   3.720   6.125 -3.3616 -1.1776 -1.4539
  566MOL0     H76372   8.604   3.771   6.026  0.1783 -2.0719 -0.8021
  566MOL0     H76373   8.441   3.839   6.004  0.0861  0.4670  2.3111
  566MOL0     H76374   8.759   3.428   6.294 -0.4803  2.6504 -0.9366
  566MOL0     H76375   8.753   3.421   6.543  1.4702  3.2608  0.8715
  566MOL0     H76376   8.684   3.318   6.711  0.6538  0.8100 -1.4313
  566MOL0     H76377   8.718   3.481   6.775  0.7587  0.0894  0.9831
  566MOL0     H76378   8.549   3.457   6.944 -1.1936 -0.6070 -0.7898
  566MOL0     H76379   8.540   3.288   6.909 -0.3038 -0.8537 -2.5292
  566MOL0     H76380   8.711   3.275   7.069 -0.4055  3.0999  1.4764
  566MOL0     H76381   8.778   3.423   7.036 -3.4635  2.1812 -0.0172
  566MOL0     H76382   8.806   3.161   6.860 -0.3250 -1.5453  1.0036
  566MOL0     H76383   8.911   3.317   6.849  3.3575  0.5623  4.6173
  566MOL0     H76384   8.897   3.126   7.079 -2.0844  0.2405 -0.4122
  566MOL0     H76385   8.975   3.285   7.072 -3.4917  4.3390 -3.9753
  566MOL0     H76386   9.109   3.067   7.039 -1.9354  0.5716 -0.8258
  566MOL0     H76387   9.058   3.057   6.870  3.0787  3.1526 -2.8799
  566MOL0     H76388   9.207   3.287   6.998  0.0008 -0.7238  1.4400
  566MOL0     H76389   9.172   3.263   6.817 -0.5613 -1.8838  0.3540
  566MOL0     H76390   9.285   3.052   6.810 -0.9489  2.6107 -2.3694
  566MOL0     H76391   9.349   3.090   6.973 -3.7430 -2.7173  0.9303
  566MOL0     H76392   8.337   3.493   6.529  0.3652  0.2079 -1.9253
  566MOL0     H76393   8.343   3.541   6.285  2.4712  3.1207 -2.7487
  566MOL0     H76394   8.357   3.327   5.849 -1.0498 -0.1058 -2.3159
  566MOL0     H76395   8.365   3.414   5.620 -0.6015 -0.3717  1.0151
  566MOL0     H76396   7.116   3.993   4.103  2.1875 -0.1011 -1.6001
  566MOL0     H76397   6.980   3.885   3.909 -2.2373 -2.3533 -0.8132
  566MOL0     H76398   6.943   3.503   3.629 -0.8354 -0.4236 -0.5860
  566MOL0     H76399   6.832   3.350   3.486  0.1036 -2.8373  0.9564
  566MOL0     H76400   6.556   3.058   3.685  2.3513 -2.8961 -0.4905
  566MOL0     H76401   6.461   3.149   3.565 -0.5350 -1.3754 -1.3279
  566MOL0     H76402   6.524   2.880   3.529  0.6760 -0.4343 -3.6940
  566MOL0     H76403   6.662   2.939   3.475  0.1023 -0.3064  0.0208
  566MOL0     H76404   6.380   3.009   3.364  0.9170  4.2873 -3.2437
  566MOL0     H76405   6.496   2.903   3.287 -2.0771  1.5718 -1.9232
  566MOL0     H76406   6.529   3.206   3.314  2.4653  0.5947 -2.9415
  566MOL0     H76407   6.502   3.111   3.176 -0.9654  1.4879  0.3294
  566MOL0     H76408   6.918   3.060   3.220 -0.3810 -1.1577 -1.6883
  566MOL0     H76409   6.535   3.265   3.804  0.2132  0.7494  1.4330
  566MOL0     H76410   6.624   3.451   3.926 -1.2612  1.6303 -0.3233
  567MOL0     O76411   2.666   4.843   7.736 -0.3233  0.1789 -0.0508
  567MOL0     C76412   2.738   4.730   7.731  0.2831 -1.7115  0.6647
  567MOL0     O76413   2.874   4.709   7.745 -0.4274 -0.6199 -0.1082
  567MOL0     C76414   2.957   4.820   7.743 -0.2785  0.0387 -0.4073
  567MOL0     C76415   2.964   4.903   7.631  0.2693 -0.0097 -0.6168
  567MOL0     C76416   3.050   5.012   7.632 -0.5573  0.7160 -0.0751
  567MOL0     C76417   3.117   5.046   7.749  0.7777  0.3526 -0.3682
  567MOL0     O76418   3.188   5.164   7.735  0.0944 -0.7805 -0.4298
  567MOL0     C76419   3.331   5.142   7.748  0.8302  0.7266 -0.3035
  567MOL0     C76420   3.391   5.184   7.622 -0.7147  0.2432  0.1888
  567MOL0     C76421   3.530   5.139   7.608 -0.7841  1.3605  0.0989
  567MOL0     C76422   3.626   5.237   7.550 -0.0307 -0.8519 -0.7913
  567MOL0     C76423   3.776   5.189   7.530 -0.1643 -0.1456 -0.1617
  567MOL0     C76424   3.805   5.094   7.414 -0.0202 -0.4617 -0.1873
  567MOL0     C76425   3.950   5.074   7.400 -0.6963  0.4220  0.0764
  567MOL0     C76426   3.981   4.952   7.311 -0.0727 -1.0046  0.4139
  567MOL0     N76427   4.024   4.997   7.176 -0.1433  0.7182 -0.8014
  567MOL0     C76428   3.937   5.072   7.095  0.5544  0.1194  0.2344
  567MOL0     C76429   4.011   5.074   6.978 -0.2855 -0.3622 -1.0634
  567MOL0     C76430   3.987   5.157   6.859  0.0505  0.1813  0.3256
  567MOL0     C76431   3.838   5.177   6.821 -0.3076  0.5799 -0.1462
  567MOL0     C76432   3.794   5.055   6.740  0.3379 -0.3312 -0.2140
  567MOL0     C76433   3.664   5.080   6.653  0.1294 -0.1008  0.4597
  567MOL0     O76434   3.551   5.105   6.728  0.6287 -0.0353 -0.0893
  567MOL0     C76435   3.430   5.063   6.682 -0.3325  0.1994  0.4347
  567MOL0     C76436   3.320   5.104   6.755  0.9573  0.6422 -0.4307
  567MOL0     C76437   3.182   5.104   6.708  1.1384 -0.6456 -0.4177
  567MOL0     C76438   3.072   5.185   6.783  1.4279  0.1606 -0.3549
  567MOL0     C76439   3.162   5.046   6.580 -0.1560 -0.8634 -1.2652
  567MOL0     C76440   3.026   4.999   6.528 -0.5424 -0.0397  0.4217
  567MOL0     O76441   3.009   4.969   6.389 -0.1683 -0.2445 -0.2515
  567MOL0     C76442   2.889   4.932   6.332 -0.0535  0.1976 -0.4347
  567MOL0     C76443   2.870   4.982   6.201  0.0217 -0.1471 -0.7282
  567MOL0     C76444   2.765   4.924   6.119  0.0501 -0.9216 -0.3569
  567MOL0     C76445   2.663   4.850   6.184  0.6155  0.7923  0.2777
  567MOL0     O76446   2.562   4.797   6.102 -0.4367  0.0074  0.2703
  567MOL0     C76447   2.436   4.773   6.163 -0.3025 -1.2118  0.3423
  567MOL0     C76448   2.326   4.779   6.049  0.2298  0.0941 -0.0403
  567MOL0     C76449   2.360   4.682   5.932  0.3083  0.3530  0.3217
  567MOL0     C76450   2.352   4.524   5.958  0.0824  0.1022 -0.6239
  567MOL0     C76451   2.376   4.432   5.842  0.7023 -0.0677  0.3007
  567MOL0     C76452   2.523   4.436   5.800  1.2209 -0.0009 -0.7675
  567MOL0     C76453   2.562   4.316   5.722 -0.4588  0.8837  0.5243
  567MOL0     C76454   2.703   4.275   5.722 -0.6405 -0.3500  0.1767
  567MOL0    Cl76455   2.757   4.188   5.880 -0.2875 -0.0167  0.0251
  567MOL0     C76456   2.679   4.803   6.309 -0.6907 -1.3835  0.3649
  567MOL0     C76457   2.797   4.835   6.381 -0.4246 -1.1427  0.4034
  567MOL0     O76458   2.944   4.971   6.614  0.3741  1.1293 -0.1159
  567MOL0     C76459   3.273   5.012   6.507  0.0282  0.2200  0.0954
  567MOL0     C76460   3.396   5.011   6.562 -1.2611  0.7797  0.1338
  567MOL0     N76461   4.136   5.011   7.002 -0.4171 -0.3472  0.1092
  567MOL0     N76462   4.142   4.971   7.126  0.2322 -0.5609  0.1600
  567MOL0     C76463   3.094   4.975   7.871 -0.8383 -0.6948  1.1280
  567MOL0     C76464   3.020   4.862   7.864 -0.1542  0.0810 -0.7782
  567MOL0     C76465   2.656   4.614   7.703  0.0679 -0.0885 -1.0419
  567MOL0     C76466   2.531   4.613   7.637  0.5119  0.5021  0.6307
  567MOL0     C76467   2.463   4.501   7.606  0.2757 -0.0139 -0.1511
  567MOL0     C76468   2.512   4.369   7.646  1.0958  0.7070  0.4878
  567MOL0     O76469   2.456   4.248   7.620  0.1708 -0.1676 -0.0003
  567MOL0     C76470   2.427   4.222   7.481  0.5481 -0.1147 -0.0973
  567MOL0     C76471   2.316   4.117   7.471 -0.0123  0.1664 -0.3208
  567MOL0     C76472   2.191   4.145   7.554  0.0586 -0.3124  0.1782
  567MOL0     C76473   2.088   4.030   7.545 -1.5371 -0.5558 -0.1551
  567MOL0     C76474   1.948   4.066   7.565 -0.1241 -0.0010 -1.0659
  567MOL0     C76475   1.826   4.062   7.601  1.2522  0.8121 -0.1349
  567MOL0     C76476   2.629   4.368   7.721  0.2859 -0.8253 -0.8437
  567MOL0     C76477   2.705   4.492   7.749 -0.1111  0.4695 -0.1948
  567MOL0     H76478   2.902   4.888   7.543  0.1253 -0.3678 -0.4536
  567MOL0     H76479   3.069   5.076   7.546  2.0826  3.3619  2.2305
  567MOL0     H76480   3.377   5.192   7.834  0.1596 -1.1119  1.2146
  567MOL0     H76481   3.344   5.034   7.761 -3.2632 -0.1441 -2.0006
  567MOL0     H76482   3.332   5.136   7.543  0.9909 -2.3008  0.3327
  567MOL0     H76483   3.387   5.293   7.612  0.8074  0.4485  1.4064
  567MOL0     H76484   3.569   5.128   7.709  0.0604  6.0678  0.4895
  567MOL0     H76485   3.529   5.045   7.552  0.5587  1.4613 -0.1035
  567MOL0     H76486   3.598   5.271   7.450  1.6002 -1.0733 -1.3559
  567MOL0     H76487   3.638   5.310   7.630  0.6623  0.5893 -2.1647
  567MOL0     H76488   3.827   5.284   7.515 -1.4726  0.5403 -0.3783
  567MOL0     H76489   3.804   5.139   7.624  0.4187 -1.6926 -1.1268
  567MOL0     H76490   3.745   5.006   7.440 -0.0583 -0.0480  1.1962
  567MOL0     H76491   3.765   5.141   7.323  0.9854  1.4976  0.3350
  567MOL0     H76492   4.001   5.161   7.359 -0.1584 -0.6046 -1.5382
  567MOL0     H76493   3.986   5.041   7.498 -4.7740 -0.8077  1.3540
  567MOL0     H76494   3.891   4.891   7.297  0.0889 -1.2986  0.6520
  567MOL0     H76495   4.052   4.885   7.360 -0.2686 -0.7407  1.0671
  567MOL0     H76496   3.838   5.113   7.110 -1.1702 -2.8689 -1.8385
  567MOL0     H76497   4.031   5.257   6.859  0.5068 -0.0165  0.2145
  567MOL0     H76498   4.037   5.107   6.776 -1.3394 -0.4057 -0.1790
  567MOL0     H76499   3.834   5.261   6.752  2.2817 -0.4816 -1.7221
  567MOL0     H76500   3.766   5.200   6.901 -1.1660  2.6257 -1.4205
  567MOL0     H76501   3.768   4.968   6.802  0.2531 -0.7287 -0.8059
  567MOL0     H76502   3.877   5.025   6.676  0.2913 -0.2985 -0.2892
  567MOL0     H76503   3.655   4.999   6.580  0.7099 -1.5316  1.9177
  567MOL0     H76504   3.684   5.174   6.602 -0.5393  0.5160  1.3095
  567MOL0     H76505   3.342   5.166   6.841 -0.0889  1.3437 -0.6547
  567MOL0     H76506   3.022   5.114   6.850 -2.0552  1.4246 -1.4028
  567MOL0     H76507   3.114   5.275   6.827  3.4496 -1.0946  0.4521
  567MOL0     H76508   2.987   5.215   6.722  0.4586  1.3770  1.4893
  567MOL0     H76509   2.929   5.056   6.148  1.2236  0.5572  1.4768
  567MOL0     H76510   2.763   4.939   6.011  0.6342 -3.1751 -0.7396
  567MOL0     H76511   2.437   4.676   6.212  1.7005 -1.0599  0.6685
  567MOL0     H76512   2.411   4.855   6.231 -1.3273 -1.1053 -0.1360
  567MOL0     H76513   2.232   4.762   6.102  3.4471  0.7363  7.1155
  567MOL0     H76514   2.328   4.879   6.006 -0.8626  0.6631  1.1830
  567MOL0     H76515   2.462   4.705   5.900 -0.1227  1.1705 -0.4968
  567MOL0     H76516   2.285   4.708   5.858  2.4605  1.6744 -1.5384
  567MOL0     H76517   2.424   4.502   6.037 -1.9681 -0.6972  1.0926
  567MOL0     H76518   2.257   4.498   6.003 -0.7375  1.0216 -1.7560
  567MOL0     H76519   2.312   4.452   5.756  0.6154  1.5968  0.7322
  567MOL0     H76520   2.355   4.330   5.875 -1.8700 -0.0014 -0.8975
  567MOL0     H76521   2.553   4.530   5.754  0.9341  0.2260 -0.4965
  567MOL0     H76522   2.579   4.419   5.893 -0.1700 -0.9081 -0.0554
  567MOL0     H76523   2.551   4.341   5.616 -0.7931  2.9208  0.9949
  567MOL0     H76524   2.505   4.226   5.745  1.6372 -0.6144  0.1520
  567MOL0     H76525   2.767   4.356   5.686  0.1674  0.3109  2.8813
  567MOL0     H76526   2.706   4.196   5.646  2.3352 -1.6461  1.5187
  567MOL0     H76527   2.602   4.737   6.348 -2.5961  0.8921  0.6992
  567MOL0     H76528   2.817   4.804   6.483  1.9243  1.2754  0.7877
  567MOL0     H76529   3.268   4.969   6.408  1.5384  0.5127 -0.1167
  567MOL0     H76530   3.479   4.976   6.501  0.5000  3.4914  0.8207
  567MOL0     H76531   3.145   5.003   7.962 -2.7358  1.4863  1.6097
  567MOL0     H76532   3.005   4.800   7.952 -0.8161 -0.1170 -1.0216
  567MOL0     H76533   2.486   4.706   7.602 -0.7441 -1.4619 -3.6998
  567MOL0     H76534   2.371   4.506   7.549 -0.7358  1.0145  1.4741
  567MOL0     H76535   2.392   4.313   7.430  2.2509 -0.0616 -1.3050
  567MOL0     H76536   2.516   4.196   7.422 -0.4594 -0.4018 -1.5626
  567MOL0     H76537   2.361   4.024   7.508 -0.8315  0.1952  0.8003
  567MOL0     H76538   2.290   4.106   7.365  0.5845  0.6210 -0.5124
  567MOL0     H76539   2.137   4.230   7.511 -0.2440 -0.6143 -0.0433
  567MOL0     H76540   2.218   4.160   7.659  3.0450 -1.7224 -0.2767
  567MOL0     H76541   2.119   3.956   7.620  0.1451  0.1741 -0.0913
  567MOL0     H76542   2.106   3.982   7.448  0.9671 -0.9770  0.4532
  567MOL0     H76543   1.722   4.054   7.623  1.8426 -0.7120  2.5753
  567MOL0     H76544   2.670   4.273   7.754  1.9275  0.0429 -0.2194
  567MOL0     H76545   2.805   4.480   7.789  1.0086 -1.6799 -3.2425
  568MOL0     O76546  10.968  10.810   7.146  0.3816  0.8004 -0.0660
  568MOL0     C76547  11.024  10.880   7.058 -0.0621 -0.0286  0.0657
  568MOL0     O76548  10.988  10.901   6.928  0.2279  0.6129 -0.5008
  568MOL0     C76549  10.868  10.857   6.875 -0.8974 -0.3191 -0.3983
  568MOL0     C76550  10.770  10.951   6.872  0.1017 -0.0180 -0.6997
  568MOL0     C76551  10.644  10.913   6.810 -0.0886  1.0855 -0.4627
  568MOL0     C76552  10.619  10.777   6.786  0.8200 -0.8672  0.5453
  568MOL0     O76553  10.495  10.730   6.762 -0.2198  0.0256 -0.1946
  568MOL0     C76554  10.382  10.813   6.738  0.6208 -0.9197  0.3662
  568MOL0     C76555  10.383  10.866   6.596 -0.0430  0.0452  1.2614
  568MOL0     C76556  10.242  10.885   6.527  0.5774 -0.4604  0.2160
  568MOL0     C76557  10.255  10.914   6.372  0.2786 -0.9156 -0.2537
  568MOL0     C76558  10.127  10.990   6.315 -0.4337  1.3636 -0.2733
  568MOL0     C76559  10.099  10.963   6.170  0.2745  0.1016  0.1405
  568MOL0     C76560  10.219  10.990   6.085  0.4135 -0.5660 -0.1158
  568MOL0     C76561  10.185  11.031   5.943 -0.3814 -0.0944 -0.1727
  568MOL0     N76562  10.100  11.148   5.913 -0.4139 -0.0498  0.0553
  568MOL0     C76563  10.117  11.273   5.963 -0.6883  0.4892  0.4850
  568MOL0     C76564  10.004  11.340   5.937  0.1272 -0.6912 -1.0435
  568MOL0     C76565   9.973  11.487   5.967 -0.9723  0.7949  0.2216
  568MOL0     C76566  10.051  11.592   5.892  0.2126  0.3445  0.6060
  568MOL0     C76567  10.033  11.568   5.741 -0.4128 -0.5333 -0.6126
  568MOL0     C76568   9.885  11.584   5.684 -0.6442  0.0661 -1.4435
  568MOL0     O76569   9.876  11.726   5.655  0.0691 -0.5878 -0.7119
  568MOL0     C76570   9.804  11.750   5.540  0.5827 -0.0972  0.2143
  568MOL0     C76571   9.665  11.717   5.539  0.0937 -0.1889  0.0593
  568MOL0     C76572   9.589  11.741   5.424  1.7732 -0.3123 -0.3862
  568MOL0     C76573   9.447  11.677   5.429  0.2308  0.7503 -0.8349
  568MOL0     C76574   9.648  11.792   5.313 -0.8109  0.4432  0.7330
  568MOL0     C76575   9.581  11.818   5.188 -0.8779 -0.7174 -0.5532
  568MOL0     O76576   9.646  11.766   5.079 -0.0970 -0.1700 -0.7823
  568MOL0     C76577   9.600  11.788   4.948  0.4246 -0.5451  0.5812
  568MOL0     C76578   9.595  11.925   4.901  0.0838  0.5414 -0.5810
  568MOL0     C76579   9.549  11.960   4.772 -1.0694 -0.0043  0.3223
  568MOL0     C76580   9.508  11.861   4.683  1.1309  0.3034 -0.1129
  568MOL0     O76581   9.468  11.896   4.556  0.0991 -0.2309 -0.6178
  568MOL0     C76582   9.338  11.964   4.545 -0.7957  0.1523 -0.5353
  568MOL0     C76583   9.222  11.928   4.652  0.3328  0.7544 -0.2725
  568MOL0     C76584   9.101  12.034   4.648 -0.4123  0.3160  0.7199
  568MOL0     C76585   9.027  12.033   4.513  0.3125 -0.6341  0.0978
  568MOL0     C76586   8.879  12.056   4.537  1.0223  1.4807  0.1568
  568MOL0     C76587   8.837  12.199   4.563  0.1427  0.4416 -0.1914
  568MOL0     C76588   8.701  12.204   4.604  0.2124  0.1611  0.0647
  568MOL0     C76589   8.649  12.342   4.646  0.7600 -0.0765 -0.6986
  568MOL0    Cl76590   8.734  12.474   4.554  0.0057  0.0999  0.1706
  568MOL0     C76591   9.515  11.726   4.730  0.7786 -0.3159  0.1448
  568MOL0     C76592   9.557  11.690   4.860 -0.8826 -0.4560 -0.7716
  568MOL0     O76593   9.483  11.895   5.190  0.0031 -0.1691  0.2816
  568MOL0     C76594   9.781  11.839   5.318 -0.2267  0.6511  0.1598
  568MOL0     C76595   9.862  11.814   5.432  0.3005 -0.0597 -0.3619
  568MOL0     N76596   9.915  11.253   5.878 -0.0648  0.5604 -0.2784
  568MOL0     N76597   9.973  11.142   5.858  0.1927 -0.0945  0.0721
  568MOL0     C76598  10.730  10.688   6.785 -0.5447  1.1176  0.2353
  568MOL0     C76599  10.856  10.726   6.833 -0.1355  0.1942  0.1789
  568MOL0     C76600  11.157  10.936   7.080  0.2302 -0.8480 -0.2869
  568MOL0     C76601  11.229  11.001   6.975  0.7765  0.2444 -0.4716
  568MOL0     C76602  11.370  11.037   6.999 -0.1391 -0.2150 -0.4893
  568MOL0     C76603  11.419  11.017   7.129 -1.8375 -0.8353 -0.5198
  568MOL0     O76604  11.549  11.078   7.147  0.6157 -0.8030  0.4684
  568MOL0     C76605  11.595  11.087   7.280 -0.1869  0.1285  0.5171
  568MOL0     C76606  11.734  11.149   7.299 -0.2966  0.0977 -0.1780
  568MOL0     C76607  11.848  11.057   7.235  0.2887 -0.0583 -0.1385
  568MOL0     C76608  11.997  11.076   7.278  0.4437 -1.3097  0.2584
  568MOL0     C76609  12.006  11.070   7.428 -0.1309  0.3184  0.1979
  568MOL0     C76610  12.024  11.056   7.550 -0.3963 -0.1401 -0.4010
  568MOL0     C76611  11.354  10.949   7.222  0.9688  0.3801 -0.5819
  568MOL0     C76612  11.217  10.912   7.198 -0.6942 -1.0694  0.2692
  568MOL0     H76613  10.788  11.045   6.923  1.7079  0.8727 -2.7818
  568MOL0     H76614  10.562  10.984   6.811 -3.6303 -2.6052 -1.7835
  568MOL0     H76615  10.303  10.737   6.745 -1.5604  1.2153  0.4338
  568MOL0     H76616  10.373  10.897   6.808  0.1299  0.5441 -1.3734
  568MOL0     H76617  10.443  10.957   6.584  0.7401 -0.6966 -1.0283
  568MOL0     H76618  10.442  10.796   6.537 -0.7805  0.8485 -0.4829
  568MOL0     H76619  10.201  10.787   6.553  2.9612 -1.8269 -0.8512
  568MOL0     H76620  10.175  10.959   6.573 -3.2923 -2.7543 -1.2801
  568MOL0     H76621  10.326  10.997   6.369 -0.6905 -0.0785 -0.7751
  568MOL0     H76622  10.288  10.826   6.315 -2.4678 -0.0159 -3.5677
  568MOL0     H76623  10.029  10.975   6.361 -0.3790  0.2469 -0.4873
  568MOL0     H76624  10.141  11.097   6.332  1.1970  0.9260  1.5479
  568MOL0     H76625  10.047  10.870   6.147  0.5695 -0.2593  0.8786
  568MOL0     H76626  10.023  11.033   6.136 -0.3895 -1.8657 -2.7326
  568MOL0     H76627  10.282  11.074   6.116  3.6217 -2.2980 -1.4207
  568MOL0     H76628  10.295  10.912   6.081  2.0021  0.8955 -4.7040
  568MOL0     H76629  10.128  10.942   5.913 -0.8560  0.1611 -0.0372
  568MOL0     H76630  10.279  11.043   5.889  0.6446  0.1449  1.5799
  568MOL0     H76631  10.202  11.315   6.015 -0.2604  1.6193 -1.0680
  568MOL0     H76632   9.865  11.503   5.965 -1.2407 -0.9052 -1.1235
  568MOL0     H76633   9.995  11.507   6.073  1.2175 -0.4739  0.0701
  568MOL0     H76634  10.153  11.599   5.930  0.0941  3.2065  0.5789
  568MOL0     H76635  10.015  11.692   5.920 -2.0360 -0.3446  0.3979
  568MOL0     H76636  10.081  11.479   5.699  0.0445  0.1287 -1.5262
  568MOL0     H76637  10.094  11.650   5.703  1.6465 -1.2674  0.9052
  568MOL0     H76638   9.806  11.558   5.756 -0.3441  0.3277 -1.0145
  568MOL0     H76639   9.878  11.529   5.590  1.0871  1.0149 -2.1655
  568MOL0     H76640   9.612  11.691   5.631 -0.6052  0.4120 -0.1596
  568MOL0     H76641   9.464  11.571   5.413 -2.7108 -0.3637  2.0824
  568MOL0     H76642   9.393  11.686   5.524 -0.5962  1.1626 -1.3340
  568MOL0     H76643   9.378  11.720   5.356  0.4448  1.4627 -0.6322
  568MOL0     H76644   9.636  12.000   4.968  2.5943 -2.0958  1.0683
  568MOL0     H76645   9.546  12.065   4.746 -3.5381  0.6913  2.8901
  568MOL0     H76646   9.363  12.070   4.558 -1.0553  0.4952 -2.4346
  568MOL0     H76647   9.308  11.959   4.440  0.1975  0.7113 -0.8559
  568MOL0     H76648   9.182  11.830   4.626  2.1755  0.5863 -2.8260
  568MOL0     H76649   9.269  11.925   4.751  2.5047  2.4764 -1.1629
  568MOL0     H76650   9.149  12.128   4.676  2.4112 -1.4211  2.1724
  568MOL0     H76651   9.031  11.987   4.717 -1.5564 -3.1504 -2.4810
  568MOL0     H76652   9.070  12.114   4.453  4.7222 -3.0215 -0.3787
  568MOL0     H76653   9.046  11.945   4.451 -2.6571  1.5786 -4.4958
  568MOL0     H76654   8.851  11.987   4.617  2.3944  0.9930  0.2448
  568MOL0     H76655   8.820  12.012   4.455 -0.4265  0.6840  1.5722
  568MOL0     H76656   8.906  12.250   4.631 -0.3799 -0.4012  0.9937
  568MOL0     H76657   8.858  12.258   4.473 -3.1362 -0.2427 -1.5435
  568MOL0     H76658   8.666  12.133   4.680 -3.5341 -0.7739 -2.2291
  568MOL0     H76659   8.641  12.166   4.520 -2.2742 -0.1634  1.8692
  568MOL0     H76660   8.680  12.366   4.748  0.0412 -2.1602  0.0819
  568MOL0     H76661   8.540  12.341   4.639  0.6027 -1.1257  1.2371
  568MOL0     H76662   9.496  11.647   4.659 -0.4318 -0.0614  0.1647
  568MOL0     H76663   9.562  11.590   4.902  2.2646  0.3091  1.0220
  568MOL0     H76664   9.827  11.900   5.241  0.1173  0.3018  0.0846
  568MOL0     H76665   9.957  11.861   5.453 -0.2869  1.2239 -0.4632
  568MOL0     H76666  10.711  10.583   6.765  2.0111 -0.0693  3.2170
  568MOL0     H76667  10.939  10.657   6.842  1.7787  2.2899 -0.4017
  568MOL0     H76668  11.187  11.013   6.875  1.2791 -0.2564 -0.7506
  568MOL0     H76669  11.450  11.071   6.934  1.9470 -2.3431  0.7977
  568MOL0     H76670  11.521  11.143   7.338 -0.5506 -0.5224  0.6976
  568MOL0     H76671  11.597  10.986   7.323  0.5493 -1.0006 -1.9599
  568MOL0     H76672  11.755  11.163   7.405  0.7035  0.3036 -0.3892
  568MOL0     H76673  11.735  11.244   7.245 -1.0700 -0.7277 -1.7270
  568MOL0     H76674  11.836  11.057   7.127 -1.8518 -1.4882  0.0552
  568MOL0     H76675  11.830  10.954   7.267  0.4545 -0.3527 -0.9699
  568MOL0     H76676  12.032  11.176   7.249  0.3957 -0.9967  1.2372
  568MOL0     H76677  12.068  11.006   7.232 -0.5736 -0.4266 -2.8793
  568MOL0     H76678  12.003  11.052   7.655 -1.2543 -2.0872 -0.6001
  568MOL0     H76679  11.400  10.933   7.319 -4.2897 -1.3256  2.0748
  568MOL0     H76680  11.156  10.877   7.281 -0.6492  0.2743  0.8863
  569MOL0     O76681  10.790   2.874   6.410 -0.9728  0.0682 -0.1062
  569MOL0     C76682  10.807   2.990   6.443 -0.2590  0.0070  1.2066
  569MOL0     O76683  10.817   3.095   6.347  0.5979  0.1954 -0.2541
  569MOL0     C76684  10.758   3.095   6.227 -1.0178  0.1128  0.5881
  569MOL0     C76685  10.832   3.163   6.127  0.5758 -0.9098 -1.3549
  569MOL0     C76686  10.778   3.172   5.998  0.8721 -0.7019  0.1583
  569MOL0     C76687  10.647   3.122   5.968  0.5397  0.2887 -0.6515
  569MOL0     O76688  10.585   3.123   5.852  0.1651  0.1633 -0.1461
  569MOL0     C76689  10.651   3.199   5.749  0.4557 -1.1118  1.6321
  569MOL0     C76690  10.586   3.184   5.610  0.5468 -0.6309 -0.4755
  569MOL0     C76691  10.648   3.074   5.519 -0.8765  1.1705 -0.1976
  569MOL0     C76692  10.640   2.932   5.575 -1.0100 -0.7751  0.1990
  569MOL0     C76693  10.685   2.842   5.457  0.7107 -0.0687  0.5140
  569MOL0     C76694  10.830   2.812   5.468  1.2739 -0.7820  0.1200
  569MOL0     C76695  10.875   2.729   5.347  0.2626  0.1143 -0.0670
  569MOL0     C76696  10.813   2.588   5.340  0.6462 -0.4740  1.5596
  569MOL0     N76697  10.903   2.505   5.261 -0.4576  0.7361 -0.5882
  569MOL0     C76698  10.942   2.379   5.307  0.2548  0.3156  0.9517
  569MOL0     C76699  11.042   2.343   5.221 -0.5632 -0.5353 -0.1891
  569MOL0     C76700  11.123   2.215   5.210  0.4867  0.0428 -0.7686
  569MOL0     C76701  11.192   2.171   5.333 -0.6197  0.4143 -1.0126
  569MOL0     C76702  11.271   2.286   5.401 -0.5600  0.1807 -0.2058
  569MOL0     C76703  11.401   2.313   5.318  0.9673 -0.4235  0.1323
  569MOL0     O76704  11.519   2.312   5.389 -0.0185  0.4856 -0.1481
  569MOL0     C76705  11.560   2.191   5.444 -1.0434  0.0365 -0.5193
  569MOL0     C76706  11.571   2.083   5.360  0.3219  0.2398 -0.5944
  569MOL0     C76707  11.631   1.966   5.406 -0.2649  0.6589 -0.4065
  569MOL0     C76708  11.630   1.850   5.314 -0.6223 -1.1110 -0.8668
  569MOL0     C76709  11.676   1.963   5.537 -1.1318  0.1825  0.4424
  569MOL0     C76710  11.748   1.850   5.590 -0.5704  0.1325  0.6950
  569MOL0     O76711  11.732   1.824   5.721  0.2566 -0.0719 -0.3292
  569MOL0     C76712  11.781   1.720   5.793 -0.5525 -0.2537 -0.5951
  569MOL0     C76713  11.797   1.747   5.935 -0.4552 -0.3060  0.2290
  569MOL0     C76714  11.817   1.648   6.026 -0.3442  0.2145  0.0527
  569MOL0     C76715  11.833   1.515   5.976  0.4625  0.3756 -0.0384
  569MOL0     O76716  11.852   1.414   6.068 -0.5164  0.5967 -0.3573
  569MOL0     C76717  11.930   1.291   6.034  0.4059 -0.9936 -0.1568
  569MOL0     C76718  11.980   1.224   6.152  0.0566 -0.0592  0.8374
  569MOL0     C76719  11.888   1.127   6.231 -0.0840 -0.1349  0.0771
  569MOL0     C76720  11.958   1.056   6.346 -0.2978  0.6815 -0.4201
  569MOL0     C76721  12.038   0.944   6.290 -0.4675 -0.6459  0.7474
  569MOL0     C76722  11.959   0.815   6.264  0.0480  0.1797 -0.8414
  569MOL0     C76723  12.024   0.683   6.280 -0.0542 -0.4858  0.8694
  569MOL0     C76724  12.049   0.642   6.421 -0.3596  0.3285 -0.0943
  569MOL0    Cl76725  12.064   0.463   6.430 -0.3529  0.1140 -0.4492
  569MOL0     C76726  11.828   1.492   5.838  0.3518  0.5270  0.4141
  569MOL0     C76727  11.813   1.590   5.744 -0.5350 -0.0100 -0.1345
  569MOL0     O76728  11.828   1.787   5.520 -0.2492 -0.1842  0.8836
  569MOL0     C76729  11.670   2.070   5.614  0.7610  0.2978  0.0361
  569MOL0     C76730  11.598   2.184   5.573 -0.4794 -0.1221  0.1107
  569MOL0     N76731  11.077   2.444   5.137 -0.0544 -0.3613  0.4666
  569MOL0     N76732  10.991   2.542   5.161 -0.2093  0.5491 -0.5179
  569MOL0     C76733  10.576   3.059   6.080  0.1393  0.0352  0.4556
  569MOL0     C76734  10.632   3.037   6.200 -0.4905 -0.1289  0.6087
  569MOL0     C76735  10.834   3.014   6.582 -0.6852 -0.1858  0.4200
  569MOL0     C76736  10.813   2.913   6.683  0.2727 -0.6771 -0.3151
  569MOL0     C76737  10.886   2.936   6.807  0.1601 -0.0025 -0.0003
  569MOL0     C76738  10.942   3.052   6.845  0.2341 -0.1139  0.9992
  569MOL0     O76739  10.998   3.083   6.968  0.1511  0.1312 -0.5940
  569MOL0     C76740  11.035   2.983   7.068  0.2585 -0.2015  0.3546
  569MOL0     C76741  11.175   2.934   7.055 -0.9112  0.4756 -0.7145
  569MOL0     C76742  11.203   2.865   6.926  0.1734 -0.1631  0.3040
  569MOL0     C76743  11.346   2.828   6.916 -1.0073  0.3376 -0.2103
  569MOL0     C76744  11.370   2.737   6.807 -0.1465 -0.1529  1.5649
  569MOL0     C76745  11.365   2.652   6.717 -0.0072  0.7359  0.0330
  569MOL0     C76746  10.945   3.162   6.754  0.6931  0.6210 -0.2736
  569MOL0     C76747  10.896   3.136   6.625 -0.4950 -0.0092  0.7045
  569MOL0     H76748  10.922   3.219   6.151  0.2750  0.3821 -3.0778
  569MOL0     H76749  10.846   3.226   5.933  0.7702  0.0104  0.6226
  569MOL0     H76750  10.664   3.304   5.777  3.9257 -0.2639 -2.2119
  569MOL0     H76751  10.755   3.168   5.735  1.6715  2.1155  2.6805
  569MOL0     H76752  10.483   3.148   5.622  0.6712 -0.6706  0.6261
  569MOL0     H76753  10.585   3.280   5.557  0.7172  1.7684  3.4592
  569MOL0     H76754  10.592   3.086   5.426  3.2930  1.6344 -2.8631
  569MOL0     H76755  10.755   3.085   5.498 -0.2624 -0.1521  1.9384
  569MOL0     H76756  10.704   2.917   5.662 -1.4468 -2.4458  0.2562
  569MOL0     H76757  10.541   2.899   5.606 -0.4667 -2.6848  0.0186
  569MOL0     H76758  10.615   2.759   5.464  1.5546 -0.9235 -0.6670
  569MOL0     H76759  10.663   2.905   5.370 -1.3041  0.5375  1.4001
  569MOL0     H76760  10.877   2.910   5.464 -4.5016  2.4300  0.2628
  569MOL0     H76761  10.856   2.755   5.558  2.3596 -0.4030  0.0578
  569MOL0     H76762  10.853   2.786   5.257 -1.3155 -0.4100 -0.0471
  569MOL0     H76763  10.985   2.727   5.349  0.4777  2.6300 -2.9703
  569MOL0     H76764  10.711   2.595   5.302  1.8659 -0.1981 -2.1147
  569MOL0     H76765  10.803   2.555   5.443  0.3243  0.0500  1.7010
  569MOL0     H76766  10.894   2.309   5.374  0.7618  1.5775  2.7000
  569MOL0     H76767  11.055   2.138   5.173 -2.0504  2.9994 -2.7728
  569MOL0     H76768  11.199   2.227   5.132 -0.2559  3.0158 -1.1843
  569MOL0     H76769  11.246   2.079   5.309 -1.9928 -0.6741 -0.0905
  569MOL0     H76770  11.130   2.143   5.419  0.1965  1.4739 -0.0301
  569MOL0     H76771  11.294   2.241   5.498 -2.8115 -2.0294 -0.6134
  569MOL0     H76772  11.217   2.380   5.418 -0.2616 -0.1662  3.3409
  569MOL0     H76773  11.396   2.406   5.260  1.3006 -1.2714 -1.2978
  569MOL0     H76774  11.394   2.233   5.244  0.6781 -0.7990  0.5548
  569MOL0     H76775  11.516   2.089   5.266 -0.8649  1.8830  0.1633
  569MOL0     H76776  11.584   1.761   5.357  1.8515 -3.6169 -2.9469
  569MOL0     H76777  11.581   1.874   5.219  0.7310 -3.2503 -2.1874
  569MOL0     H76778  11.727   1.808   5.285 -0.4152 -1.8106  0.7509
  569MOL0     H76779  11.775   1.847   5.973  1.3119  0.0287  0.4494
  569MOL0     H76780  11.827   1.669   6.132 -1.4009 -0.1158  0.2350
  569MOL0     H76781  11.867   1.222   5.976  0.0027 -0.1139 -0.7816
  569MOL0     H76782  12.012   1.316   5.965  2.4362  2.8821  3.2578
  569MOL0     H76783  12.067   1.169   6.117  0.1510  1.1563 -0.9688
  569MOL0     H76784  12.027   1.301   6.214  2.7183  0.9414 -2.1990
  569MOL0     H76785  11.831   1.060   6.165 -0.7563 -1.1656  1.6309
  569MOL0     H76786  11.814   1.190   6.281 -1.5808 -0.4704 -1.6125
  569MOL0     H76787  12.032   1.131   6.375  2.8857 -1.9543 -1.2036
  569MOL0     H76788  11.897   1.022   6.430  0.5541 -0.1015 -0.1050
  569MOL0     H76789  12.120   0.924   6.359 -0.1419 -2.2539 -0.0744
  569MOL0     H76790  12.069   0.969   6.188 -1.0676 -2.7830  0.0050
  569MOL0     H76791  11.865   0.813   6.320  1.3843  2.5358  1.7149
  569MOL0     H76792  11.930   0.831   6.160 -2.4321 -0.8406 -0.3979
  569MOL0     H76793  12.122   0.688   6.232  0.5441  1.4952  2.1493
  569MOL0     H76794  11.964   0.605   6.235  1.7687 -1.2162 -0.4199
  569MOL0     H76795  11.965   0.674   6.484 -1.6270 -1.3340 -0.8807
  569MOL0     H76796  12.149   0.676   6.449  0.4639 -1.3116 -0.8957
  569MOL0     H76797  11.831   1.390   5.801  0.6141  0.6053  0.2110
  569MOL0     H76798  11.809   1.574   5.636  1.3546  2.1314 -0.5965
  569MOL0     H76799  11.730   2.065   5.705  1.1785 -0.3759 -0.2692
  569MOL0     H76800  11.581   2.259   5.649  0.3076 -1.6010  1.8093
  569MOL0     H76801  10.474   3.026   6.059  0.3162  0.0666 -0.5118
  569MOL0     H76802  10.576   2.979   6.273 -0.3968  1.5751  2.0946
  569MOL0     H76803  10.755   2.823   6.668 -1.2154 -0.1478  1.8605
  569MOL0     H76804  10.877   2.866   6.889 -3.0163 -0.7990 -0.8923
  569MOL0     H76805  11.009   3.031   7.163 -1.0599 -0.2800  0.0422
  569MOL0     H76806  10.972   2.895   7.055  0.1534 -0.1514  0.5178
  569MOL0     H76807  11.183   2.854   7.129  0.1863  0.8391 -0.4207
  569MOL0     H76808  11.242   3.018   7.075 -0.1659 -0.5250  1.2188
  569MOL0     H76809  11.180   2.928   6.840 -1.1857 -2.6605 -1.2771
  569MOL0     H76810  11.142   2.774   6.923  1.7805 -1.2360 -0.6862
  569MOL0     H76811  11.376   2.772   7.005 -0.3275 -3.5757 -2.6361
  569MOL0     H76812  11.410   2.915   6.901 -0.9793 -0.1247 -3.4922
  569MOL0     H76813  11.368   2.557   6.669  3.5795  0.0761  1.2600
  569MOL0     H76814  10.991   3.254   6.789 -0.4920  1.0068  0.3071
  569MOL0     H76815  10.925   3.211   6.552 -0.1857 -1.1878 -0.4223
  570MOL0     O76816   0.569  10.589   9.809  0.2469  0.2585  0.0404
  570MOL0     C76817   0.509  10.483   9.782  0.4144 -0.3666  0.5680
  570MOL0     O76818   0.536  10.412   9.672  0.4043  0.3628 -0.2124
  570MOL0     C76819   0.590  10.483   9.568 -0.0387 -0.4202 -0.5311
  570MOL0     C76820   0.727  10.515   9.554  0.1742  0.0696 -0.8408
  570MOL0     C76821   0.772  10.570   9.439 -0.5472 -1.1817 -0.2606
  570MOL0     C76822   0.703  10.613   9.335  0.2883  1.2382  0.6992
  570MOL0     O76823   0.769  10.670   9.229 -0.6564 -1.4230  0.5102
  570MOL0     C76824   0.694  10.722   9.112 -0.2404  0.7541  0.4490
  570MOL0     C76825   0.652  10.854   9.144 -0.7703 -0.8585  0.3176
  570MOL0     C76826   0.750  10.969   9.133 -0.3824  0.7431 -0.0361
  570MOL0     C76827   0.736  11.057   9.012  0.6585 -0.6272 -0.2221
  570MOL0     C76828   0.841  11.037   8.905  0.2259 -0.4623  1.2237
  570MOL0     C76829   0.817  11.105   8.772  0.7592 -0.6725  0.3482
  570MOL0     C76830   0.911  11.050   8.646 -0.4370 -0.3123  0.7690
  570MOL0     C76831   0.877  10.918   8.579  0.3762  0.4049  0.6957
  570MOL0     N76832   0.753  10.916   8.493 -0.1418  0.8647 -0.1574
  570MOL0     C76833   0.674  11.019   8.440 -0.1967  0.4722 -0.2961
  570MOL0     C76834   0.571  10.959   8.374  0.5131  0.0528 -0.0988
  570MOL0     C76835   0.461  11.038   8.302 -0.1357 -0.2579  0.9052
  570MOL0     C76836   0.413  10.956   8.175 -0.2611 -0.0905 -0.2735
  570MOL0     C76837   0.330  11.047   8.079 -0.7228  0.2266  1.2351
  570MOL0     C76838   0.403  11.171   8.021 -0.6611 -0.2133  1.4770
  570MOL0     O76839   0.517  11.114   7.940 -0.1462  0.2112 -0.2379
  570MOL0     C76840   0.618  11.202   7.907 -0.1786 -0.6967  0.2319
  570MOL0     C76841   0.745  11.147   7.880  0.4041 -0.0105  0.3536
  570MOL0     C76842   0.853  11.226   7.843  0.1670  0.1889  0.5497
  570MOL0     C76843   0.984  11.151   7.827 -1.1037  0.3300  0.5495
  570MOL0     C76844   0.844  11.370   7.836 -0.2862  0.2123  0.6168
  570MOL0     C76845   0.949  11.460   7.805 -0.5344  0.5340  0.3917
  570MOL0     O76846   1.063  11.402   7.760 -0.3187  0.8476 -0.0629
  570MOL0     C76847   1.155  11.471   7.680 -0.0084  0.4962  1.0369
  570MOL0     C76848   1.285  11.418   7.659  0.2140 -0.2851 -0.2253
  570MOL0     C76849   1.368  11.476   7.563 -0.2300 -0.2807  0.2581
  570MOL0     C76850   1.333  11.586   7.473  0.5251  0.0711  0.2767
  570MOL0     O76851   1.409  11.635   7.366 -0.6242 -1.1026 -0.3400
  570MOL0     C76852   1.519  11.567   7.324 -0.1331  0.0466 -0.3210
  570MOL0     C76853   1.569  11.623   7.184 -0.0708 -0.3881  0.8289
  570MOL0     C76854   1.470  11.622   7.064  0.1251  0.1486  0.0764
  570MOL0     C76855   1.535  11.686   6.940 -0.3647  0.5219  0.2747
  570MOL0     C76856   1.655  11.609   6.878  0.3380 -0.2376  0.5279
  570MOL0     C76857   1.635  11.460   6.838  0.8875  0.5750 -0.5912
  570MOL0     C76858   1.754  11.408   6.760 -0.5442 -0.0901 -0.3064
  570MOL0     C76859   1.761  11.252   6.745 -0.3372 -0.5795 -0.5534
  570MOL0    Cl76860   1.788  11.176   6.905  0.3393  0.1542 -0.2823
  570MOL0     C76861   1.206  11.634   7.500  0.3312 -0.2938  1.0631
  570MOL0     C76862   1.127  11.578   7.597  0.7150 -0.6496 -0.4106
  570MOL0     O76863   0.933  11.580   7.815 -0.1868 -0.4794  0.5593
  570MOL0     C76864   0.717  11.425   7.869 -0.7110 -0.4238  0.1695
  570MOL0     C76865   0.609  11.347   7.900  0.1440  0.8377  0.8604
  570MOL0     N76866   0.579  10.821   8.401 -1.1660  0.4146  0.1181
  570MOL0     N76867   0.684  10.799   8.476 -0.4003  0.0757 -0.9593
  570MOL0     C76868   0.567  10.585   9.348  1.5159  0.1638 -1.0251
  570MOL0     C76869   0.512  10.516   9.460 -0.1947  1.4514  0.4444
  570MOL0     C76870   0.387  10.453   9.856 -0.3879 -0.3645  0.2986
  570MOL0     C76871   0.330  10.557   9.936 -0.5280  0.2813 -1.2377
  570MOL0     C76872   0.233  10.518  10.020 -0.6551 -0.5449 -0.2489
  570MOL0     C76873   0.169  10.394  10.009 -0.3005 -0.6743  0.4740
  570MOL0     O76874   0.046  10.353  10.047 -0.1392  0.0679 -0.7313
  570MOL0     C76875  -0.003  10.420  10.168 -0.0214  0.3379 -0.7238
  570MOL0     C76876  -0.125  10.351  10.234 -2.0570  0.2379 -0.4204
  570MOL0     C76877  -0.226  10.274  10.146  0.4084 -0.0273  0.0099
  570MOL0     C76878  -0.248  10.328  10.005  0.0806 -0.7276  0.3657
  570MOL0     C76879  -0.379  10.276   9.966  0.1732  1.1080 -1.0539
  570MOL0     C76880  -0.490  10.241   9.931 -0.3497 -0.3797 -0.0232
  570MOL0     C76881   0.234  10.284   9.942  0.0750 -0.2858  0.3155
  570MOL0     C76882   0.352  10.319   9.870  0.5198 -0.4439  0.3259
  570MOL0     H76883   0.793  10.490   9.637 -0.0489 -0.4022 -0.8014
  570MOL0     H76884   0.876  10.602   9.441  0.1009 -2.4364 -3.9835
  570MOL0     H76885   0.756  10.735   9.023  1.2298  1.7153  1.5689
  570MOL0     H76886   0.607  10.657   9.099 -1.3880  2.5054 -1.2332
  570MOL0     H76887   0.558  10.873   9.091 -0.7532  2.4504  1.2441
  570MOL0     H76888   0.619  10.851   9.248  0.7025  1.2117  0.9113
  570MOL0     H76889   0.741  11.035   9.220 -3.7516  0.7717 -0.2850
  570MOL0     H76890   0.849  10.923   9.131 -0.5170  0.3813 -3.2848
  570MOL0     H76891   0.643  11.019   8.968  1.1312 -4.4624  1.5926
  570MOL0     H76892   0.717  11.163   9.029 -3.0886 -1.1414 -0.3111
  570MOL0     H76893   0.932  11.081   8.948  0.5476  2.6064 -2.1142
  570MOL0     H76894   0.853  10.931   8.878  0.5383 -0.0508 -0.3421
  570MOL0     H76895   0.711  11.103   8.743  0.0036  2.6774  2.2772
  570MOL0     H76896   0.839  11.212   8.784  5.0509 -1.3621  0.0216
  570MOL0     H76897   0.906  11.130   8.572  0.2799 -0.7047  0.2835
  570MOL0     H76898   1.016  11.047   8.678  0.1636 -1.0858 -1.1020
  570MOL0     H76899   0.874  10.833   8.648  0.9831  0.1282  0.3870
  570MOL0     H76900   0.957  10.881   8.515 -0.6527 -1.8272  0.6278
  570MOL0     H76901   0.693  11.124   8.458  3.5797  0.0448 -0.9174
  570MOL0     H76902   0.373  11.059   8.363 -1.2557 -1.7031 -0.1375
  570MOL0     H76903   0.520  11.125   8.273  1.8278 -1.7784  0.0967
  570MOL0     H76904   0.334  10.883   8.194 -1.7577  1.5131 -0.0642
  570MOL0     H76905   0.492  10.902   8.123 -0.2465 -2.4105  1.9593
  570MOL0     H76906   0.240  11.074   8.136 -0.4997 -1.0950  2.2790
  570MOL0     H76907   0.304  10.984   7.994  2.0257  2.2452 -1.3074
  570MOL0     H76908   0.449  11.225   8.104  1.3147 -1.8395  1.5331
  570MOL0     H76909   0.336  11.229   7.957 -0.6537 -2.5367 -0.7953
  570MOL0     H76910   0.741  11.040   7.867 -1.1478  0.3853 -3.8046
  570MOL0     H76911   1.060  11.173   7.903 -1.5361 -0.7712  1.3320
  570MOL0     H76912   0.970  11.044   7.843  0.9183 -0.4640 -2.2908
  570MOL0     H76913   1.015  11.157   7.722  3.2465  3.4398  1.6976
  570MOL0     H76914   1.315  11.324   7.705  0.3936 -1.6188 -2.8773
  570MOL0     H76915   1.463  11.426   7.550  0.1953  0.3596  0.8262
  570MOL0     H76916   1.601  11.561   7.396 -0.3158 -2.3531 -0.2085
  570MOL0     H76917   1.501  11.461   7.300 -1.8379  0.6058 -1.7461
  570MOL0     H76918   1.583  11.730   7.200 -1.7038  0.4951 -2.7561
  570MOL0     H76919   1.661  11.574   7.152 -0.0137  0.6165 -0.6032
  570MOL0     H76920   1.381  11.678   7.094  0.3619  0.3684  0.3845
  570MOL0     H76921   1.445  11.520   7.036 -1.3127  0.8098 -1.1608
  570MOL0     H76922   1.456  11.714   6.870 -0.7358  1.8043  1.1746
  570MOL0     H76923   1.587  11.775   6.976  2.0546 -0.3052 -0.9316
  570MOL0     H76924   1.729  11.618   6.958  0.6538  0.4890  0.1616
  570MOL0     H76925   1.689  11.669   6.793  3.7591  1.2541  2.7444
  570MOL0     H76926   1.619  11.410   6.934 -1.0159 -1.3068 -1.7874
  570MOL0     H76927   1.558  11.440   6.763  2.2112  2.0822 -2.4294
  570MOL0     H76928   1.847  11.452   6.798 -1.0607  1.4736 -0.7739
  570MOL0     H76929   1.748  11.450   6.659  3.0527  0.4330 -0.4528
  570MOL0     H76930   1.849  11.234   6.682 -1.4560 -1.1320 -1.9964
  570MOL0     H76931   1.677  11.205   6.694 -0.4860 -1.2488  0.2925
  570MOL0     H76932   1.166  11.724   7.454  1.4752  0.4157  1.4185
  570MOL0     H76933   1.034  11.634   7.603  0.8897 -0.3261 -0.6930
  570MOL0     H76934   0.688  11.530   7.864  2.3551  0.5575  0.9144
  570MOL0     H76935   0.509  11.384   7.921 -0.6546 -1.3744  1.2808
  570MOL0     H76936   0.510  10.623   9.264  1.1498  1.9266 -0.0132
  570MOL0     H76937   0.407  10.490   9.466  0.8564 -3.4980  1.9204
  570MOL0     H76938   0.361  10.661   9.931 -1.1796  0.4833 -1.2197
  570MOL0     H76939   0.192  10.606  10.070 -0.7040  0.1668 -1.4914
  570MOL0     H76940   0.076  10.422  10.243 -1.9486  1.9532  1.3764
  570MOL0     H76941  -0.034  10.520  10.137 -1.8935 -0.0983 -0.3678
  570MOL0     H76942  -0.174  10.436  10.283  0.4238  1.5077 -0.0168
  570MOL0     H76943  -0.090  10.282  10.312  1.7162  0.8302 -1.4127
  570MOL0     H76944  -0.314  10.278  10.211  0.6120  2.4998  0.2487
  570MOL0     H76945  -0.195  10.170  10.131  4.0603  0.8309  0.5876
  570MOL0     H76946  -0.163  10.300   9.942  1.0110 -1.4269  1.8864
  570MOL0     H76947  -0.255  10.436  10.018  3.1825 -0.2792 -0.7899
  570MOL0     H76948  -0.589  10.209   9.905 -0.5589  2.2919 -3.1676
  570MOL0     H76949   0.188  10.186   9.943 -1.6357  0.4635  2.3649
  570MOL0     H76950   0.408  10.246   9.812 -0.0220  2.7796 -4.9204
  571MOL0     O76951   3.018   6.687   9.859 -0.0909 -0.2546  0.1870
  571MOL0     C76952   2.918   6.672   9.786  0.1913  0.3370 -0.6341
  571MOL0     O76953   2.882   6.749   9.677  0.5172 -0.1923  0.5978
  571MOL0     C76954   2.961   6.844   9.637  0.2165 -0.0422  0.3533
  571MOL0     C76955   3.043   6.826   9.528  0.5820  1.3828 -0.5903
  571MOL0     C76956   3.131   6.936   9.511  0.2746 -0.9409 -0.2985
  571MOL0     C76957   3.147   7.046   9.597  0.4233 -0.5624  0.4212
  571MOL0     O76958   3.213   7.157   9.552  0.0406 -0.4082 -0.1768
  571MOL0     C76959   3.152   7.283   9.571 -0.2906  0.3690  0.6634
  571MOL0     C76960   3.221   7.402   9.510  0.1361  0.2247  0.1401
  571MOL0     C76961   3.127   7.518   9.476 -1.1366 -0.6828 -0.6459
  571MOL0     C76962   3.200   7.637   9.421  0.0210  0.4703  0.0895
  571MOL0     C76963   3.203   7.751   9.514  0.3174 -0.9148 -0.5099
  571MOL0     C76964   3.295   7.712   9.631  0.3412 -0.3936 -0.1216
  571MOL0     C76965   3.300   7.828   9.732 -0.4276  0.7141 -0.3400
  571MOL0     C76966   3.400   7.937   9.692 -1.1029 -0.5992 -0.0115
  571MOL0     N76967   3.545   7.888   9.686  0.9669  0.8285  0.7072
  571MOL0     C76968   3.605   7.797   9.769 -0.5039  0.4983 -0.4891
  571MOL0     C76969   3.727   7.783   9.700 -0.1040 -1.0143  0.8096
  571MOL0     C76970   3.829   7.683   9.745  0.3699  0.9583  0.7272
  571MOL0     C76971   3.857   7.693   9.897  0.5421  0.2841 -0.7731
  571MOL0     C76972   3.985   7.766   9.939  0.6193 -0.0684 -0.6212
  571MOL0     C76973   3.986   7.771  10.087  0.0835 -0.8013  0.2839
  571MOL0     O76974   3.895   7.877  10.133  0.2813  0.7819  0.2144
  571MOL0     C76975   3.935   8.008  10.099  0.1222  0.1152  1.1302
  571MOL0     C76976   4.049   8.070  10.137  0.1683 -0.2638 -0.0809
  571MOL0     C76977   4.076   8.207  10.108 -0.1629 -0.8210 -0.7221
  571MOL0     C76978   4.209   8.270  10.149 -0.1337 -0.2463 -0.5433
  571MOL0     C76979   3.977   8.273  10.040  0.2309 -0.3675 -0.3263
  571MOL0     C76980   4.004   8.410   9.996  0.3875  0.3259 -0.2592
  571MOL0     O76981   4.050   8.432   9.871  0.9555  0.2650 -0.5418
  571MOL0     C76982   4.117   8.548   9.840  0.1966  0.1720  0.1175
  571MOL0     C76983   4.053   8.630   9.746 -0.0152 -0.0916  0.8105
  571MOL0     C76984   4.122   8.753   9.697  0.8882  0.0057 -0.3833
  571MOL0     C76985   4.250   8.784   9.750 -0.5687 -0.2502 -0.6500
  571MOL0     O76986   4.308   8.900   9.693 -0.0455  0.1556 -0.6054
  571MOL0     C76987   4.448   8.929   9.714  0.7925 -0.1532  0.6479
  571MOL0     C76988   4.528   8.871   9.611  0.8234  0.2895  0.0939
  571MOL0     C76989   4.577   8.730   9.637  0.2823  0.4266  0.1829
  571MOL0     C76990   4.671   8.689   9.515  0.1878 -0.8761 -0.4325
  571MOL0     C76991   4.723   8.545   9.529 -0.0111  0.6718  0.1125
  571MOL0     C76992   4.826   8.535   9.646  1.0945 -0.0527  0.1217
  571MOL0     C76993   4.832   8.400   9.714  0.0344 -0.0741  0.2401
  571MOL0     C76994   4.922   8.413   9.840  1.1457 -1.4066  0.5402
  571MOL0    Cl76995   4.960   8.254   9.912 -0.2097  0.7048  0.5815
  571MOL0     C76996   4.316   8.693   9.839  0.4246  0.5372 -0.6187
  571MOL0     C76997   4.250   8.571   9.880 -0.7427 -0.4763 -0.9933
  571MOL0     O76998   3.968   8.491  10.073  0.4137 -1.8372 -0.5879
  571MOL0     C76999   3.858   8.212   9.993  0.4668  0.3122  0.6100
  571MOL0     C77000   3.837   8.078  10.029 -0.7410  0.6862  1.1087
  571MOL0     N77001   3.731   7.857   9.581 -0.1384 -0.4167  0.5431
  571MOL0     N77002   3.612   7.912   9.572  0.0702 -0.4322  0.8165
  571MOL0     C77003   3.065   7.056   9.710  0.3357  0.2761 -0.0123
  571MOL0     C77004   2.957   6.962   9.718  0.1643  0.0924 -0.4619
  571MOL0     C77005   2.820   6.568   9.833  0.2850  1.1560 -0.4380
  571MOL0     C77006   2.808   6.538   9.974 -1.5297 -1.1955 -0.2456
  571MOL0     C77007   2.709   6.448  10.027 -0.2201  0.2580 -0.4928
  571MOL0     C77008   2.636   6.369   9.933  0.0858 -0.0029 -0.1797
  571MOL0     O77009   2.557   6.277   9.995  0.4510 -0.0833  0.4359
  571MOL0     C77010   2.459   6.198   9.927 -0.1891 -0.0596  0.8328
  571MOL0     C77011   2.321   6.257   9.918  0.7841  0.3641  0.3546
  571MOL0     C77012   2.245   6.224  10.045 -0.0609  0.0321 -0.6026
  571MOL0     C77013   2.166   6.349  10.094  0.0781  0.1951  0.4507
  571MOL0     C77014   2.069   6.318  10.199 -1.1239 -1.0554  0.5452
  571MOL0     C77015   1.998   6.285  10.292  0.4974  0.4195 -0.5845
  571MOL0     C77016   2.655   6.388   9.800  0.3445  0.1859  0.2924
  571MOL0     C77017   2.735   6.493   9.754 -0.2579 -0.2629  0.2691
  571MOL0     H77018   3.042   6.736   9.467 -0.0060 -1.1492  2.8564
  571MOL0     H77019   3.189   6.924   9.420 -1.7615 -0.9452 -1.6594
  571MOL0     H77020   3.052   7.286   9.527  1.4021  1.2580 -3.6946
  571MOL0     H77021   3.146   7.300   9.678 -0.7299 -0.5946  0.8027
  571MOL0     H77022   3.289   7.431   9.590  0.6316  1.4915 -0.7073
  571MOL0     H77023   3.279   7.371   9.423  0.9364 -1.8085  1.3383
  571MOL0     H77024   3.063   7.479   9.396 -4.5594  1.7522  0.6648
  571MOL0     H77025   3.067   7.555   9.559 -2.1825  0.5308 -1.8816
  571MOL0     H77026   3.297   7.614   9.375  0.5623 -0.9096  1.8185
  571MOL0     H77027   3.147   7.663   9.328  0.9289 -2.6675 -1.4869
  571MOL0     H77028   3.252   7.834   9.463 -1.3635  0.5364  0.1611
  571MOL0     H77029   3.103   7.781   9.545  1.0361  1.5578 -0.3716
  571MOL0     H77030   3.249   7.626   9.680  0.1741 -0.7533 -0.8831
  571MOL0     H77031   3.396   7.683   9.601  0.5133  0.6338 -0.5845
  571MOL0     H77032   3.204   7.880   9.740 -0.7540 -0.1272  2.2384
  571MOL0     H77033   3.316   7.777   9.828 -3.1423  0.0488 -0.1507
  571MOL0     H77034   3.395   8.015   9.769  0.0715 -2.8122  2.4922
  571MOL0     H77035   3.364   7.966   9.593  1.3696 -1.3499 -1.2081
  571MOL0     H77036   3.574   7.760   9.867 -1.5727  0.0504 -0.9777
  571MOL0     H77037   3.789   7.583   9.728 -0.8496  1.3686  1.0503
  571MOL0     H77038   3.923   7.697   9.691  0.8561 -0.7272  1.1035
  571MOL0     H77039   3.854   7.588   9.929  2.6234 -0.8004 -3.7485
  571MOL0     H77040   3.774   7.743   9.949  0.4589 -2.0417  1.5804
  571MOL0     H77041   3.988   7.865   9.893  0.7960  0.8022  1.2160
  571MOL0     H77042   4.064   7.699   9.904  2.4961  0.4029  2.3874
  571MOL0     H77043   4.085   7.808  10.117 -0.1697  0.4872 -0.3838
  571MOL0     H77044   3.970   7.675  10.137 -4.3872 -0.3652  0.1196
  571MOL0     H77045   4.118   8.013  10.198 -0.0887 -1.2601 -0.6932
  571MOL0     H77046   4.184   8.367  10.196 -3.6048 -1.5005  0.5778
  571MOL0     H77047   4.264   8.206  10.218 -2.1591  0.6480  2.0878
  571MOL0     H77048   4.270   8.279  10.060 -0.0319 -0.5126 -0.5000
  571MOL0     H77049   3.965   8.596   9.693  1.3130 -1.3511 -0.7201
  571MOL0     H77050   4.084   8.811   9.612 -0.2601 -1.8798 -1.2274
  571MOL0     H77051   4.455   9.038   9.702 -1.1059  0.0976  1.4589
  571MOL0     H77052   4.484   8.898   9.812  3.8125 -0.2805 -0.4094
  571MOL0     H77053   4.487   8.875   9.510  1.4907 -1.8319 -0.3268
  571MOL0     H77054   4.615   8.937   9.615 -0.7079  2.3757  0.1444
  571MOL0     H77055   4.503   8.650   9.644  1.6175 -0.8935 -0.3758
  571MOL0     H77056   4.643   8.741   9.723  1.3190 -1.3298 -0.3451
  571MOL0     H77057   4.626   8.693   9.415 -0.4671 -4.5589 -0.4419
  571MOL0     H77058   4.764   8.745   9.507  0.6676 -1.5575  0.2080
  571MOL0     H77059   4.773   8.499   9.443  2.1593  0.8594  1.2183
  571MOL0     H77060   4.636   8.482   9.549 -1.0600  1.8777 -0.4992
  571MOL0     H77061   4.918   8.552   9.588  0.2642 -0.2533 -1.2922
  571MOL0     H77062   4.801   8.618   9.712  2.3948  0.2763  0.2397
  571MOL0     H77063   4.863   8.323   9.642 -0.3348  0.6963 -0.7770
  571MOL0     H77064   4.729   8.379   9.742 -0.7908  1.3214 -1.4962
  571MOL0     H77065   4.858   8.465   9.912  1.4328 -0.3784  0.0744
  571MOL0     H77066   5.010   8.466   9.802  0.2214 -0.4671 -0.3741
  571MOL0     H77067   4.421   8.697   9.867  0.3415 -2.8693  0.6002
  571MOL0     H77068   4.302   8.495   9.938  2.1456  1.7604 -0.3929
  571MOL0     H77069   3.791   8.260   9.922  3.2394  4.3044  0.3804
  571MOL0     H77070   3.764   8.009   9.989  0.8126 -0.1807 -0.3581
  571MOL0     H77071   3.087   7.134   9.782  1.6422 -1.3296  1.3839
  571MOL0     H77072   2.884   6.978   9.797  0.6508  1.2051 -0.2068
  571MOL0     H77073   2.866   6.593  10.047 -1.3714 -1.9997  0.2427
  571MOL0     H77074   2.682   6.419  10.128 -1.3252 -1.0900 -1.1362
  571MOL0     H77075   2.503   6.187   9.827  0.3871  0.4453  1.0257
  571MOL0     H77076   2.454   6.097   9.970 -0.8419 -0.3304  0.1470
  571MOL0     H77077   2.266   6.207   9.838  0.6545 -1.5544  1.5879
  571MOL0     H77078   2.319   6.363   9.890 -1.2738  0.0141 -1.0879
  571MOL0     H77079   2.307   6.188  10.128 -2.0449 -0.8601  0.5633
  571MOL0     H77080   2.177   6.143  10.014 -1.2917  1.0390 -0.6156
  571MOL0     H77081   2.109   6.382  10.007  1.1819 -2.2427 -1.3104
  571MOL0     H77082   2.234   6.427  10.129  2.4342 -1.7108  0.3827
  571MOL0     H77083   1.941   6.271  10.382 -0.3888 -1.0928 -1.3422
  571MOL0     H77084   2.601   6.327   9.728  2.3850 -0.4846 -0.7398
  571MOL0     H77085   2.742   6.515   9.648 -2.1386  1.2046  0.4070
  572MOL0     O77086   5.245   5.223   1.814 -0.4440  0.6283  0.0608
  572MOL0     C77087   5.165   5.183   1.730  0.8387  0.4387  0.0283
  572MOL0     O77088   5.095   5.069   1.732  0.0928 -0.1202 -0.2915
  572MOL0     C77089   5.080   5.002   1.852  0.2589  0.9798 -0.9741
  572MOL0     C77090   5.084   5.056   1.981  0.2737 -0.2307  0.4416
  572MOL0     C77091   5.065   4.972   2.089 -0.5860 -0.6688 -0.8027
  572MOL0     C77092   5.036   4.836   2.078 -0.5453  0.0698 -0.8654
  572MOL0     O77093   5.005   4.744   2.180 -0.6785  0.4436 -0.5097
  572MOL0     C77094   5.012   4.779   2.322 -0.1002 -0.7981 -0.3936
  572MOL0     C77095   4.872   4.792   2.372  0.7050 -0.4937  0.6205
  572MOL0     C77096   4.813   4.929   2.359 -0.1008 -0.2795 -0.1513
  572MOL0     C77097   4.874   5.028   2.461 -0.1021 -0.1295 -0.2323
  572MOL0     C77098   4.798   5.168   2.457  0.1964 -0.0294  0.2340
  572MOL0     C77099   4.873   5.284   2.519  0.4950 -0.2706 -0.1864
  572MOL0     C77100   4.803   5.423   2.507  0.3019 -0.1837  0.8196
  572MOL0     C77101   4.697   5.449   2.609  0.0811 -0.3030  0.2890
  572MOL0     N77102   4.637   5.582   2.590 -0.0381 -1.0145  0.6856
  572MOL0     C77103   4.561   5.616   2.478  0.1139 -0.0267  0.6613
  572MOL0     C77104   4.538   5.750   2.498 -0.3660  0.0038  0.3288
  572MOL0     C77105   4.462   5.838   2.395 -0.3838  0.3720  0.3793
  572MOL0     C77106   4.380   5.945   2.465  0.7474  0.2903 -0.4934
  572MOL0     C77107   4.319   6.050   2.380  1.0208 -0.6479 -0.0927
  572MOL0     C77108   4.234   6.161   2.462  0.2310  0.1546 -0.4448
  572MOL0     O77109   4.191   6.122   2.595  0.4051 -0.0802  0.0481
  572MOL0     C77110   4.065   6.068   2.603 -0.3370  0.3873 -0.7815
  572MOL0     C77111   4.004   6.075   2.729 -0.1594 -0.5192  0.3057
  572MOL0     C77112   3.876   6.031   2.750 -0.0041 -0.2221 -0.5703
  572MOL0     C77113   3.819   6.058   2.886  0.2042  1.0299 -0.9648
  572MOL0     C77114   3.805   5.959   2.646  0.8606  0.0994 -0.0693
  572MOL0     C77115   3.663   5.924   2.664  0.1945 -1.0638 -0.6481
  572MOL0     O77116   3.592   6.004   2.757 -0.3397  1.1201  0.6096
  572MOL0     C77117   3.465   5.948   2.791  0.1094 -0.5547  0.2734
  572MOL0     C77118   3.444   5.837   2.865 -0.5092 -0.3532  0.2904
  572MOL0     C77119   3.309   5.793   2.875  0.4224  0.3986  0.8328
  572MOL0     C77120   3.202   5.856   2.814  0.7053  1.3980  0.7404
  572MOL0     O77121   3.068   5.807   2.828 -0.1604  0.1898  0.2804
  572MOL0     C77122   3.031   5.781   2.964 -0.3297  0.3457  0.6418
  572MOL0     C77123   2.990   5.626   2.956  0.0793  0.2793  0.4410
  572MOL0     C77124   2.965   5.570   3.097  0.3124  0.6100 -0.2903
  572MOL0     C77125   2.924   5.417   3.083 -0.5823  0.2021  0.6492
  572MOL0     C77126   2.891   5.374   3.226 -0.1451 -0.1959  0.8938
  572MOL0     C77127   2.737   5.373   3.248  0.4389 -0.9492 -0.0249
  572MOL0     C77128   2.698   5.380   3.400  0.5545 -0.0658  0.0559
  572MOL0     C77129   2.556   5.349   3.424  0.5614 -0.7788  0.1570
  572MOL0    Cl77130   2.496   5.377   3.593 -0.2545 -0.0264  0.4159
  572MOL0     C77131   3.229   5.966   2.736 -0.2835 -0.2062 -0.2970
  572MOL0     C77132   3.364   6.018   2.720 -0.2334  0.1480 -0.3067
  572MOL0     O77133   3.614   5.832   2.600 -1.0725 -0.7757 -0.2924
  572MOL0     C77134   3.871   5.949   2.522  0.1295  0.3907 -1.2470
  572MOL0     C77135   3.998   6.002   2.500  1.0924  0.5703  0.5818
  572MOL0     N77136   4.601   5.794   2.611 -0.4917 -0.1672  0.1416
  572MOL0     N77137   4.662   5.697   2.665 -0.2541  0.2099 -0.0213
  572MOL0     C77138   5.035   4.787   1.952  0.0170  0.3521 -0.2332
  572MOL0     C77139   5.067   4.867   1.840 -0.3292  0.4027 -0.4485
  572MOL0     C77140   5.154   5.239   1.592  0.9790 -0.8480  0.4739
  572MOL0     C77141   5.040   5.221   1.508  0.3486 -0.4941 -0.2229
  572MOL0     C77142   5.038   5.285   1.383 -0.2846 -1.0904  0.0141
  572MOL0     C77143   5.153   5.352   1.335 -0.3390  0.1975  0.6070
  572MOL0     O77144   5.150   5.396   1.202 -0.1533 -0.7016 -0.1861
  572MOL0     C77145   5.261   5.468   1.147 -0.3803 -0.8361 -0.4170
  572MOL0     C77146   5.251   5.480   0.992  0.7419  0.2377  0.4108
  572MOL0     C77147   5.378   5.535   0.925 -0.2825  0.1668 -0.4064
  572MOL0     C77148   5.382   5.520   0.772  1.3042  0.0381 -0.4585
  572MOL0     C77149   5.251   5.552   0.705 -1.0011 -0.2325  0.5946
  572MOL0     C77150   5.156   5.574   0.637  0.3805  0.2292  0.2440
  572MOL0     C77151   5.263   5.373   1.421  0.5355  0.7433 -1.1388
  572MOL0     C77152   5.261   5.319   1.546  0.4808  0.3279 -0.0579
  572MOL0     H77153   5.102   5.162   1.997 -2.2039  0.3632 -0.2699
  572MOL0     H77154   5.085   5.017   2.185 -0.0262 -0.8030 -0.8570
  572MOL0     H77155   5.077   4.703   2.368  1.0970 -0.3506 -1.2918
  572MOL0     H77156   5.065   4.874   2.335 -0.8923 -0.1584 -1.6911
  572MOL0     H77157   4.808   4.715   2.328  0.8145 -0.4031  0.3014
  572MOL0     H77158   4.859   4.767   2.478 -1.4900  3.3176  1.4696
  572MOL0     H77159   4.844   4.980   2.267  1.5132  2.8293  1.9463
  572MOL0     H77160   4.704   4.923   2.369  0.0398 -1.6230  0.8869
  572MOL0     H77161   4.853   4.992   2.563 -0.4255  1.3503  0.2396
  572MOL0     H77162   4.981   5.043   2.444 -0.4989  1.5095 -1.4079
  572MOL0     H77163   4.789   5.199   2.352  2.1957  1.9296  0.5694
  572MOL0     H77164   4.701   5.152   2.504  1.3184 -1.1704  2.2807
  572MOL0     H77165   4.892   5.252   2.622  0.5064  1.0729  0.2447
  572MOL0     H77166   4.965   5.292   2.461 -1.8155  0.7564 -4.0976
  572MOL0     H77167   4.884   5.496   2.519 -0.7139  0.9764  0.7385
  572MOL0     H77168   4.764   5.434   2.406 -1.5062 -1.7470  1.2966
  572MOL0     H77169   4.746   5.452   2.707  1.2187  1.3011 -0.2798
  572MOL0     H77170   4.628   5.365   2.595  1.6207 -1.2470 -2.3022
  572MOL0     H77171   4.525   5.559   2.393 -6.3244  2.5542  1.0845
  572MOL0     H77172   4.535   5.873   2.322  0.6002 -1.2152  0.5667
  572MOL0     H77173   4.399   5.769   2.338 -0.1647  2.2160 -2.2527
  572MOL0     H77174   4.447   5.998   2.533  4.3330 -1.6273 -2.2393
  572MOL0     H77175   4.306   5.894   2.528  2.4408 -2.4241 -0.5574
  572MOL0     H77176   4.262   6.002   2.299  3.2318 -1.8123 -1.0442
  572MOL0     H77177   4.407   6.101   2.340  1.3172 -0.4067  0.8489
  572MOL0     H77178   4.148   6.211   2.417  1.2638  1.6783 -0.7773
  572MOL0     H77179   4.303   6.245   2.470  1.9346 -1.2489  0.5695
  572MOL0     H77180   4.066   6.123   2.804  1.2560  2.0619 -2.3132
  572MOL0     H77181   3.897   6.071   2.961 -1.4319  1.3347  0.7830
  572MOL0     H77182   3.751   6.144   2.896 -1.8115 -0.4280 -1.4791
  572MOL0     H77183   3.761   5.976   2.928 -2.3826  2.6263 -1.1690
  572MOL0     H77184   3.532   5.784   2.901 -0.7233 -0.2019  1.0587
  572MOL0     H77185   3.276   5.696   2.912  0.5458  0.3620  0.8473
  572MOL0     H77186   3.118   5.791   3.029 -0.2566 -0.8953  0.7612
  572MOL0     H77187   2.946   5.840   3.001 -2.8703 -3.2895  1.0894
  572MOL0     H77188   2.899   5.624   2.896  1.6576  2.0398 -2.2676
  572MOL0     H77189   3.060   5.561   2.902 -1.2547 -1.8450  1.1434
  572MOL0     H77190   2.885   5.622   3.152  0.5470 -2.3653  3.2826
  572MOL0     H77191   3.060   5.584   3.148  0.6521  2.2671 -1.3131
  572MOL0     H77192   2.841   5.404   3.013  1.6576 -4.0472 -1.6164
  572MOL0     H77193   3.020   5.378   3.047 -0.7885 -2.0728  2.3506
  572MOL0     H77194   2.947   5.442   3.291 -1.9721  0.1506  2.1912
  572MOL0     H77195   2.928   5.272   3.232 -1.0163 -0.6552 -0.8037
  572MOL0     H77196   2.690   5.463   3.206 -2.2056 -0.8757  2.7968
  572MOL0     H77197   2.687   5.291   3.195 -1.1198 -0.7413  1.0461
  572MOL0     H77198   2.716   5.481   3.439 -1.1778 -0.7200  2.8242
  572MOL0     H77199   2.757   5.310   3.460 -1.9013 -1.4886  0.9428
  572MOL0     H77200   2.548   5.241   3.405 -1.0319 -0.8418  1.0330
  572MOL0     H77201   2.489   5.402   3.357  1.0394  0.8525  0.9230
  572MOL0     H77202   3.147   6.020   2.690 -1.1335  0.8514  2.2726
  572MOL0     H77203   3.374   6.120   2.682 -0.1600  0.9670  1.7772
  572MOL0     H77204   3.829   5.883   2.447 -0.7794 -0.1159 -0.3256
  572MOL0     H77205   4.040   5.978   2.402 -1.6903 -0.7313 -0.3961
  572MOL0     H77206   5.013   4.686   1.920 -1.1310  0.4964  0.0603
  572MOL0     H77207   5.076   4.810   1.748  1.6456  0.0717 -0.0967
  572MOL0     H77208   4.951   5.166   1.536 -0.0537  0.5284  0.6077
  572MOL0     H77209   4.953   5.302   1.319 -0.0383 -0.3204 -0.1152
  572MOL0     H77210   5.267   5.569   1.189  0.6108 -0.9985 -0.1501
  572MOL0     H77211   5.354   5.416   1.168 -0.4186 -1.4146 -1.5916
  572MOL0     H77212   5.158   5.527   0.960 -0.3650 -1.8676  0.3672
  572MOL0     H77213   5.248   5.377   0.958 -0.3267 -0.0366  1.2880
  572MOL0     H77214   5.458   5.474   0.968 -1.6735 -1.6341 -0.2562
  572MOL0     H77215   5.395   5.639   0.956 -2.6677  0.6136 -0.4008
  572MOL0     H77216   5.396   5.418   0.735 -2.0011 -0.0611 -1.8026
  572MOL0     H77217   5.450   5.598   0.736 -0.7127  0.5682 -3.5686
  572MOL0     H77218   5.067   5.599   0.583 -0.9003 -0.1151  2.1104
  572MOL0     H77219   5.346   5.429   1.378  1.3498  1.9876  1.8278
  572MOL0     H77220   5.347   5.344   1.607  1.9936  0.3623 -2.1071
  573MOL0     O77221   1.328   3.379  10.253 -0.2331  0.9691 -0.4806
  573MOL0     C77222   1.278   3.284  10.303 -0.7437  1.1642  0.6275
  573MOL0     O77223   1.146   3.259  10.323  0.2192 -0.7656 -0.3000
  573MOL0     C77224   1.040   3.342  10.299 -1.5655 -0.5940  0.2270
  573MOL0     C77225   0.932   3.261  10.318 -0.1139  0.1200  0.4422
  573MOL0     C77226   0.812   3.329  10.327  0.2811 -0.2750 -0.0883
  573MOL0     C77227   0.795   3.472  10.317  0.2856  0.2856 -0.2692
  573MOL0     O77228   0.670   3.525  10.338  0.7095  0.3448  0.3560
  573MOL0     C77229   0.650   3.662  10.370  0.0293  0.0515 -0.4317
  573MOL0     C77230   0.516   3.714  10.323 -0.4066  0.0643 -0.4780
  573MOL0     C77231   0.501   3.661  10.179 -0.0455  0.7661  0.7990
  573MOL0     C77232   0.378   3.744  10.119 -0.5882  1.0340 -0.2893
  573MOL0     C77233   0.243   3.707  10.174 -0.8026  0.1698  0.0984
  573MOL0     C77234   0.180   3.580  10.104 -0.5667 -0.0478 -1.0499
  573MOL0     C77235   0.118   3.595   9.967  0.1116  0.3023  0.8453
  573MOL0     C77236   0.042   3.471   9.931  0.7376  0.0197 -0.9160
  573MOL0     N77237   0.025   3.443   9.789 -0.0388 -0.5574  0.0230
  573MOL0     C77238   0.095   3.339   9.729  0.4302  0.0411 -0.9841
  573MOL0     C77239   0.052   3.349   9.601 -0.4025  0.2545 -0.3641
  573MOL0     C77240   0.083   3.250   9.485 -1.4849 -0.5273  0.2322
  573MOL0     C77241   0.038   3.111   9.522  0.1443  0.1956  0.6370
  573MOL0     C77242  -0.111   3.095   9.499 -0.0532 -0.4728 -0.0776
  573MOL0     C77243  -0.178   2.979   9.577 -0.1220  0.6514  0.0491
  573MOL0     O77244  -0.201   3.014   9.716  0.7039 -0.2547 -0.7724
  573MOL0     C77245  -0.244   2.909   9.796 -0.6660 -0.5230  0.7512
  573MOL0     C77246  -0.376   2.899   9.822  0.1783  1.3220  0.1821
  573MOL0     C77247  -0.413   2.802   9.917 -0.8419  0.6653 -0.5415
  573MOL0     C77248  -0.562   2.804   9.948 -0.3899  0.0923  0.5474
  573MOL0     C77249  -0.326   2.708   9.979 -0.2429 -0.8350  0.1985
  573MOL0     C77250  -0.357   2.606  10.077 -0.2960  0.1549  0.8469
  573MOL0     O77251  -0.258   2.575  10.166  0.0324  1.0570  0.1611
  573MOL0     C77252  -0.288   2.499  10.267 -0.6127  0.6407  0.3314
  573MOL0     C77253  -0.231   2.368  10.264  1.3436  0.1502 -0.3085
  573MOL0     C77254  -0.263   2.287  10.380  0.0573  0.1773 -0.9105
  573MOL0     C77255  -0.368   2.323  10.467 -0.2253 -0.0805 -0.6794
  573MOL0     O77256  -0.414   2.243  10.569 -0.3051 -0.3904 -0.0057
  573MOL0     C77257  -0.311   2.247  10.673 -0.8084 -0.1260 -0.5753
  573MOL0     C77258  -0.376   2.215  10.799 -0.6740  0.5827 -0.0793
  573MOL0     C77259  -0.446   2.334  10.847  0.0888 -0.5653  0.8478
  573MOL0     C77260  -0.547   2.305  10.947 -0.0399  0.6021  0.2205
  573MOL0     C77261  -0.560   2.394  11.063 -0.0458  0.1113 -0.3362
  573MOL0     C77262  -0.640   2.521  11.030 -0.6942  0.0596 -0.1432
  573MOL0     C77263  -0.688   2.608  11.143 -1.0026  0.1643 -0.1760
  573MOL0     C77264  -0.752   2.523  11.257 -0.0159 -0.4008  0.6596
  573MOL0    Cl77265  -0.639   2.494  11.384 -0.2788 -0.2115 -0.2531
  573MOL0     C77266  -0.427   2.454  10.462 -0.4401 -0.4833  0.2677
  573MOL0     C77267  -0.378   2.540  10.366  0.7011  1.0500  0.0034
  573MOL0     O77268  -0.474   2.565  10.077  0.1826  0.5867 -0.0264
  573MOL0     C77269  -0.189   2.716   9.933 -0.0531  0.2772  0.9671
  573MOL0     C77270  -0.149   2.819   9.839  0.1768  0.6623 -0.3657
  573MOL0     N77271  -0.042   3.444   9.584 -0.4649 -0.0061  0.4854
  573MOL0     N77272  -0.073   3.487   9.703  0.1848 -0.3710  0.2270
  573MOL0     C77273   0.904   3.551  10.292 -1.3936  0.0851  0.1647
  573MOL0     C77274   1.031   3.482  10.290  0.1702 -0.5274  0.3786
  573MOL0     C77275   1.371   3.167  10.332  0.4088 -0.2335 -0.2874
  573MOL0     C77276   1.494   3.144  10.269 -0.3300 -0.3801 -0.1281
  573MOL0     C77277   1.571   3.022  10.276  0.0552 -0.4264 -1.2541
  573MOL0     C77278   1.522   2.922  10.357  1.7929 -0.8678 -0.7431
  573MOL0     O77279   1.568   2.795  10.368  0.3114 -0.1773 -0.1168
  573MOL0     C77280   1.704   2.775  10.375  0.5077  1.1911  0.0287
  573MOL0     C77281   1.724   2.631  10.441  0.2775 -0.3016  0.5013
  573MOL0     C77282   1.866   2.608  10.503  0.2137  0.1872 -0.4400
  573MOL0     C77283   1.866   2.483  10.602  1.0061  0.3550 -0.5845
  573MOL0     C77284   2.002   2.433  10.619 -0.5723  0.4493 -1.3441
  573MOL0     C77285   2.108   2.382  10.620  0.8819 -0.0827  0.4286
  573MOL0     C77286   1.402   2.941  10.426  0.2703 -0.7051 -0.5725
  573MOL0     C77287   1.324   3.064  10.413  0.2772 -0.8537  1.0384
  573MOL0     H77288   0.930   3.154  10.334  0.4385  0.3114  1.9288
  573MOL0     H77289   0.715   3.281  10.325  0.5116 -0.7359 -0.5497
  573MOL0     H77290   0.651   3.697  10.474 -3.1105 -1.8498  0.3788
  573MOL0     H77291   0.724   3.721  10.314 -0.2733 -2.3295 -3.6193
  573MOL0     H77292   0.437   3.669  10.385 -0.2608 -2.1574 -1.8086
  573MOL0     H77293   0.516   3.823  10.313 -3.2540  0.2988  0.8629
  573MOL0     H77294   0.588   3.663  10.114 -0.7892  1.2197 -0.2001
  573MOL0     H77295   0.461   3.560  10.192 -0.1405  0.8710  1.3780
  573MOL0     H77296   0.382   3.853  10.119 -0.7490  1.0519 -1.5237
  573MOL0     H77297   0.376   3.703  10.018 -1.5721 -1.3601  0.6123
  573MOL0     H77298   0.250   3.682  10.281 -1.3221  1.7831  0.5322
  573MOL0     H77299   0.175   3.789  10.154 -0.9989  0.9456  3.3558
  573MOL0     H77300   0.259   3.505  10.103  0.7754  1.3267 -0.7679
  573MOL0     H77301   0.104   3.550  10.177  0.9323  0.9175  1.0090
  573MOL0     H77302   0.049   3.679   9.976 -1.7477 -1.2759  1.9080
  573MOL0     H77303   0.190   3.616   9.886 -4.5457  2.7191 -3.2374
  573MOL0     H77304  -0.062   3.488   9.962  1.4726  4.7929 -0.3211
  573MOL0     H77305   0.079   3.386   9.989 -0.9261 -0.3192 -0.2798
  573MOL0     H77306   0.159   3.265   9.777  2.1100  0.8105 -1.9631
  573MOL0     H77307   0.031   3.293   9.399 -0.5624  1.8563  0.7894
  573MOL0     H77308   0.191   3.240   9.479 -1.5568 -1.1968 -0.0496
  573MOL0     H77309   0.066   3.094   9.626  1.0890 -1.3641  0.1575
  573MOL0     H77310   0.087   3.037   9.458 -0.2166  1.4375 -1.1359
  573MOL0     H77311  -0.123   3.075   9.392 -2.9151  0.1709  0.0261
  573MOL0     H77312  -0.164   3.190   9.512  0.9238  0.1262 -0.4156
  573MOL0     H77313  -0.119   2.887   9.572 -2.7846 -1.0838 -2.4994
  573MOL0     H77314  -0.272   2.957   9.526 -0.2005 -3.4015  1.5907
  573MOL0     H77315  -0.454   2.958   9.776 -1.1264  0.8873  1.7527
  573MOL0     H77316  -0.617   2.719   9.906  3.0618 -1.9806 -0.2127
  573MOL0     H77317  -0.577   2.796  10.056 -0.4074 -0.1331  0.5276
  573MOL0     H77318  -0.599   2.900   9.911  1.8791  2.2785  3.4244
  573MOL0     H77319  -0.156   2.338  10.191  0.4081  4.5915 -3.5111
  573MOL0     H77320  -0.228   2.185  10.381 -1.7744 -0.5986 -4.0326
  573MOL0     H77321  -0.230   2.175  10.655 -0.9871 -0.5490  0.2234
  573MOL0     H77322  -0.264   2.346  10.673 -0.0770 -0.4663 -0.6183
  573MOL0     H77323  -0.447   2.138  10.769 -0.8767  0.9004 -0.4140
  573MOL0     H77324  -0.308   2.182  10.878 -0.5793 -1.6366 -1.0107
  573MOL0     H77325  -0.494   2.394  10.769 -2.8729 -0.2623  2.7297
  573MOL0     H77326  -0.375   2.404  10.889 -0.8381  0.1511  1.2625
  573MOL0     H77327  -0.634   2.270  10.891  0.1210  0.9653 -0.2627
  573MOL0     H77328  -0.517   2.219  11.008  1.8195  2.3029  1.8674
  573MOL0     H77329  -0.464   2.411  11.112 -0.9402  0.5972  1.3392
  573MOL0     H77330  -0.620   2.338  11.135  1.1130 -0.4196  0.2450
  573MOL0     H77331  -0.577   2.582  10.964 -0.8868  2.2350  1.5526
  573MOL0     H77332  -0.725   2.486  10.972 -0.5321 -1.8207  0.7000
  573MOL0     H77333  -0.769   2.665  11.097 -4.0346 -1.5067  2.6687
  573MOL0     H77334  -0.613   2.675  11.185 -1.1241 -0.8077  1.7004
  573MOL0     H77335  -0.794   2.430  11.219 -1.7034  1.0978 -1.3732
  573MOL0     H77336  -0.834   2.583  11.297  1.0313  1.1700  0.5519
  573MOL0     H77337  -0.495   2.500  10.533 -0.3130  4.3201 -2.3359
  573MOL0     H77338  -0.396   2.646  10.378 -0.6009  0.7835  0.5489
  573MOL0     H77339  -0.116   2.646   9.974 -1.0760 -0.3613  1.7629
  573MOL0     H77340  -0.043   2.818   9.816  0.0862 -3.5049 -1.5306
  573MOL0     H77341   0.895   3.655  10.262 -0.6271 -0.5018 -2.3716
  573MOL0     H77342   1.125   3.535  10.294 -1.1953  2.2147 -1.0893
  573MOL0     H77343   1.531   3.214  10.195  1.2798  0.0631  1.0348
  573MOL0     H77344   1.676   3.022  10.250  0.5350  3.6291 -0.0679
  573MOL0     H77345   1.746   2.783  10.275 -2.4395 -0.9581 -1.5298
  573MOL0     H77346   1.752   2.856  10.431  2.2210  0.7483 -0.7411
  573MOL0     H77347   1.707   2.551  10.369 -0.6823 -1.5709  2.0686
  573MOL0     H77348   1.645   2.630  10.516 -0.2752  0.1351 -0.0584
  573MOL0     H77349   1.910   2.690  10.561 -0.0310  0.7183 -0.9953
  573MOL0     H77350   1.937   2.586  10.422  0.6859 -0.5858  0.1657
  573MOL0     H77351   1.816   2.403  10.546  1.9311  2.1029 -4.1803
  573MOL0     H77352   1.830   2.516  10.700  3.8961  6.3366 -1.0698
  573MOL0     H77353   2.191   2.320  10.592  1.3189  0.5062  0.3937
  573MOL0     H77354   1.347   2.855  10.463 -0.3741 -1.7677 -3.7113
  573MOL0     H77355   1.225   3.062  10.457 -2.0271 -2.1013 -3.6062
  574MOL0     O77356   3.194   8.560   9.234  0.1740 -0.5849 -0.4084
  574MOL0     C77357   3.121   8.638   9.300 -0.0809  0.9060  0.3429
  574MOL0     O77358   3.130   8.775   9.309 -0.1542  0.3631 -0.8910
  574MOL0     C77359   3.236   8.841   9.254 -0.5683 -0.0025 -0.6599
  574MOL0     C77360   3.293   8.942   9.333 -0.0915 -1.0307 -0.0030
  574MOL0     C77361   3.403   9.031   9.290 -0.1205 -0.2629  0.3052
  574MOL0     C77362   3.452   9.003   9.164  0.6994  0.3446 -0.0397
  574MOL0     O77363   3.550   9.069   9.108 -0.3663  0.2274  0.4391
  574MOL0     C77364   3.574   9.205   9.132  0.2006  0.6620  0.0988
  574MOL0     C77365   3.715   9.243   9.075  1.1586  0.2090 -0.3371
  574MOL0     C77366   3.772   9.376   9.109  0.1372  0.1888  0.0747
  574MOL0     C77367   3.904   9.405   9.043 -0.7792  0.4961  0.5005
  574MOL0     C77368   3.964   9.537   9.109  0.4717  0.4338  0.6957
  574MOL0     C77369   4.071   9.583   9.023  0.1582 -0.2297 -0.8511
  574MOL0     C77370   4.157   9.698   9.077  0.2227  1.0958 -0.2457
  574MOL0     C77371   4.230   9.649   9.210  0.1038 -0.5033 -0.2716
  574MOL0     N77372   4.296   9.518   9.187 -0.3638  0.0952  0.3612
  574MOL0     C77373   4.277   9.415   9.271 -0.0818 -0.9356  1.0339
  574MOL0     C77374   4.359   9.316   9.229  0.7048  0.7918 -0.1472
  574MOL0     C77375   4.385   9.197   9.322  0.0442  0.6967 -0.1361
  574MOL0     C77376   4.285   9.078   9.282  0.2268 -0.8714  0.8776
  574MOL0     C77377   4.142   9.096   9.333 -0.5441 -0.6231  0.4487
  574MOL0     C77378   4.064   8.973   9.283  0.1639  0.7623  0.0528
  574MOL0     O77379   3.926   8.989   9.257 -0.6206  0.3441 -0.8564
  574MOL0     C77380   3.843   8.948   9.361 -0.3904 -1.0109  0.6860
  574MOL0     C77381   3.788   8.820   9.350  0.1768  0.6918  0.3506
  574MOL0     C77382   3.705   8.774   9.450 -0.4043  0.1580 -0.6487
  574MOL0     C77383   3.639   8.644   9.417 -0.3352  1.1331  0.0246
  574MOL0     C77384   3.672   8.858   9.557  1.1197  0.6091 -1.3970
  574MOL0     C77385   3.576   8.832   9.661  0.6110 -1.0004 -0.0987
  574MOL0     O77386   3.509   8.939   9.717 -0.5992 -0.8346  0.2057
  574MOL0     C77387   3.389   8.914   9.776 -0.5571 -0.6812 -1.4092
  574MOL0     C77388   3.386   8.937   9.919 -0.0233 -0.4730  0.1217
  574MOL0     C77389   3.262   8.917   9.989 -0.1595  0.0444  0.4476
  574MOL0     C77390   3.153   8.863   9.927  0.1550 -0.5344 -0.4130
  574MOL0     O77391   3.041   8.849   9.996 -0.5251  0.4028 -0.4495
  574MOL0     C77392   2.910   8.889   9.939 -0.8006 -0.8958 -0.7318
  574MOL0     C77393   2.858   9.000  10.045 -0.0192  0.1744 -0.5989
  574MOL0     C77394   2.828   8.939  10.181  0.3795 -0.3509 -0.6115
  574MOL0     C77395   2.792   9.055  10.273  0.4947  0.1742 -0.2932
  574MOL0     C77396   2.728   8.999  10.398 -0.8465 -0.2462 -0.2870
  574MOL0     C77397   2.653   9.121  10.459  1.0218 -0.0876 -0.3792
  574MOL0     C77398   2.739   9.244  10.493  0.7993  0.8136  0.3730
  574MOL0     C77399   2.643   9.356  10.532  0.1621  0.2204  0.6260
  574MOL0    Cl77400   2.551   9.403  10.380 -0.1474 -0.2062  0.1346
  574MOL0     C77401   3.159   8.833   9.780 -0.6168 -0.7783 -0.3258
  574MOL0     C77402   3.272   8.863   9.710 -0.1703 -0.5757 -0.4012
  574MOL0     O77403   3.556   8.713   9.689  0.1051  0.0779  0.3751
  574MOL0     C77404   3.728   8.985   9.564  0.2423 -0.1696  0.3219
  574MOL0     C77405   3.816   9.027   9.471  0.7469 -0.0237 -0.4996
  574MOL0     N77406   4.429   9.360   9.118 -0.1879  0.2376  0.6757
  574MOL0     N77407   4.390   9.482   9.088 -0.1714 -0.2271 -0.0360
  574MOL0     C77408   3.407   8.895   9.083  0.0356  0.4748 -1.1975
  574MOL0     C77409   3.304   8.812   9.137  0.1676 -0.3939 -0.1316
  574MOL0     C77410   3.021   8.576   9.383 -0.1906  0.2340 -0.0081
  574MOL0     C77411   2.988   8.442   9.365 -1.1411 -0.4453  0.3020
  574MOL0     C77412   2.898   8.389   9.460  0.7281  0.0289 -1.0581
  574MOL0     C77413   2.856   8.470   9.568  0.2083  0.7850  0.2714
  574MOL0     O77414   2.763   8.423   9.662 -0.2943 -0.4915 -0.2924
  574MOL0     C77415   2.794   8.307   9.740  0.2986  1.4073 -0.8462
  574MOL0     C77416   2.894   8.333   9.843  0.3852  0.1990  0.2792
  574MOL0     C77417   2.859   8.436   9.953  0.0354 -0.3276  0.0615
  574MOL0     C77418   2.970   8.493  10.043  0.6207 -0.3542 -0.1747
  574MOL0     C77419   2.913   8.519  10.174 -0.8586  0.2422  0.6761
  574MOL0     C77420   2.876   8.525  10.285  0.4844  0.1994 -0.0888
  574MOL0     C77421   2.894   8.601   9.588  0.3004 -0.4941 -0.4884
  574MOL0     C77422   2.975   8.655   9.490 -0.8255 -0.6417  0.2299
  574MOL0     H77423   3.242   8.962   9.426  2.0444 -0.9725  1.2191
  574MOL0     H77424   3.433   9.123   9.340  2.9808 -0.1152 -1.5448
  574MOL0     H77425   3.499   9.272   9.090  1.2643  1.0882 -1.2100
  574MOL0     H77426   3.576   9.238   9.237 -0.4094  0.6739  0.1121
  574MOL0     H77427   3.787   9.184   9.133  1.5754 -0.6764 -1.7032
  574MOL0     H77428   3.719   9.212   8.970 -0.2387  0.5743 -0.5235
  574MOL0     H77429   3.709   9.461   9.083  3.9237  3.0199 -0.6504
  574MOL0     H77430   3.782   9.382   9.217  1.3234  1.2567 -0.0736
  574MOL0     H77431   3.957   9.315   9.074 -1.0457 -0.8115 -2.5378
  574MOL0     H77432   3.896   9.418   8.935 -1.8427  0.0864  0.5219
  574MOL0     H77433   3.897   9.621   9.127  0.7414  0.3881  2.0336
  574MOL0     H77434   3.996   9.507   9.209 -0.3249  0.7904  1.0689
  574MOL0     H77435   4.141   9.505   8.991  0.4400 -1.4419  2.3501
  574MOL0     H77436   4.012   9.624   8.941 -0.4806  1.4337  0.3789
  574MOL0     H77437   4.242   9.721   9.012  2.2323  0.8271  2.1586
  574MOL0     H77438   4.086   9.776   9.105 -1.4869 -0.3415 -0.4211
  574MOL0     H77439   4.167   9.638   9.298  1.1949  2.6182  1.0521
  574MOL0     H77440   4.303   9.722   9.247 -1.0097  1.2407 -1.3620
  574MOL0     H77441   4.219   9.406   9.362  1.8595 -1.6129  2.2710
  574MOL0     H77442   4.488   9.160   9.310  0.3063  1.3701 -0.0147
  574MOL0     H77443   4.358   9.214   9.426  0.5782  0.9208 -0.0292
  574MOL0     H77444   4.318   8.983   9.324 -0.1968 -1.1551  0.5773
  574MOL0     H77445   4.279   9.068   9.173 -1.5288 -4.5818  1.1716
  574MOL0     H77446   4.099   9.186   9.287 -2.1662  0.8593  4.3887
  574MOL0     H77447   4.132   9.114   9.441  0.2538 -0.8786  0.5746
  574MOL0     H77448   4.083   8.889   9.351  0.1456  1.0071  0.3639
  574MOL0     H77449   4.101   8.945   9.184 -1.2300  1.2766 -0.6276
  574MOL0     H77450   3.822   8.757   9.268  0.4102  0.9372  0.2544
  574MOL0     H77451   3.541   8.665   9.373  0.6711  1.4191 -2.2145
  574MOL0     H77452   3.689   8.588   9.338 -1.3990  1.0712 -0.6199
  574MOL0     H77453   3.633   8.583   9.507  0.7348 -0.7104 -1.0949
  574MOL0     H77454   3.470   8.978   9.975 -1.7551 -0.9532  3.3435
  574MOL0     H77455   3.251   8.922  10.097 -3.0959  0.1097  0.2263
  574MOL0     H77456   2.928   8.924   9.837  1.5989 -0.8591 -0.3679
  574MOL0     H77457   2.838   8.807   9.932 -4.1220  1.8345 -0.6278
  574MOL0     H77458   2.940   9.071  10.060  0.0202 -0.3970  2.4132
  574MOL0     H77459   2.766   9.053  10.018  0.1168  2.0921  2.2614
  574MOL0     H77460   2.909   8.876  10.219  0.2440  0.1097  0.4684
  574MOL0     H77461   2.739   8.875  10.180 -0.0952  0.2735  0.4549
  574MOL0     H77462   2.885   9.110  10.290  1.7831 -1.6476 -1.0593
  574MOL0     H77463   2.717   9.117  10.222  0.5109 -0.3305 -0.9412
  574MOL0     H77464   2.804   8.956  10.464  0.3502  0.2678 -1.2861
  574MOL0     H77465   2.650   8.927  10.373 -1.0855  0.3403 -1.2771
  574MOL0     H77466   2.569   9.147  10.394  1.7602  1.0869 -0.9025
  574MOL0     H77467   2.600   9.098  10.552 -2.1423  2.0514 -1.4958
  574MOL0     H77468   2.793   9.276  10.404 -0.0275  1.0639 -0.0523
  574MOL0     H77469   2.812   9.215  10.569  1.5092 -0.1755 -0.6397
  574MOL0     H77470   2.702   9.441  10.568  3.5115 -1.1226 -1.2661
  574MOL0     H77471   2.584   9.321  10.617 -1.1104 -0.3134 -0.4396
  574MOL0     H77472   3.071   8.810   9.721 -0.3063  0.2564 -1.2266
  574MOL0     H77473   3.284   8.843   9.604 -2.8814  1.3072 -1.1726
  574MOL0     H77474   3.708   9.054   9.645 -0.0174  2.1760 -1.6288
  574MOL0     H77475   3.861   9.126   9.473  0.4626  0.1293 -1.3657
  574MOL0     H77476   3.446   8.883   8.982  2.4670 -0.9261 -0.1763
  574MOL0     H77477   3.271   8.743   9.061 -2.9248  0.5062  0.2552
  574MOL0     H77478   3.035   8.386   9.285  0.2288  0.0357  0.7408
  574MOL0     H77479   2.862   8.287   9.456 -0.0446  0.2409  0.1355
  574MOL0     H77480   2.698   8.284   9.788  0.9194 -0.7380 -0.5577
  574MOL0     H77481   2.831   8.219   9.687 -0.4754  0.4720  0.1384
  574MOL0     H77482   2.989   8.358   9.795  0.3579 -1.2623 -0.6072
  574MOL0     H77483   2.916   8.237   9.892  0.5371  0.7712  1.3625
  574MOL0     H77484   2.795   8.381  10.023  3.4253 -0.9614  2.9740
  574MOL0     H77485   2.803   8.518   9.905  0.4982 -0.5651 -0.9039
  574MOL0     H77486   3.003   8.579   9.984 -1.4975 -1.3278 -3.0340
  574MOL0     H77487   3.050   8.420  10.057 -0.4478 -1.2264  1.7964
  574MOL0     H77488   2.850   8.521  10.389  0.2502 -0.1355 -0.1585
  574MOL0     H77489   2.840   8.648   9.670 -0.4067 -0.5510 -0.9129
  574MOL0     H77490   3.002   8.759   9.505 -0.0171 -1.2160  3.6871
  575MOL0     O77491   6.464   6.209   9.121  0.5005 -0.4590 -0.2734
  575MOL0     C77492   6.496   6.122   9.209  0.1712 -0.1226  0.4447
  575MOL0     O77493   6.578   6.139   9.308 -0.2475  0.1486 -0.2553
  575MOL0     C77494   6.625   6.263   9.334 -0.1697 -0.2507 -0.1013
  575MOL0     C77495   6.564   6.339   9.442  0.9031  0.3220 -0.4070
  575MOL0     C77496   6.622   6.462   9.488 -0.5899  0.2557  0.3682
  575MOL0     C77497   6.733   6.511   9.427  0.1400 -0.4999 -0.1794
  575MOL0     O77498   6.785   6.625   9.469 -0.9362 -0.9214  0.0121
  575MOL0     C77499   6.791   6.742   9.377  0.0153  0.5510 -0.1767
  575MOL0     C77500   6.945   6.763   9.368  0.0340 -0.5018  0.3434
  575MOL0     C77501   6.967   6.898   9.291 -0.5700  0.7925 -1.2058
  575MOL0     C77502   7.095   6.905   9.240 -0.3158  0.4272  0.6698
  575MOL0     C77503   7.134   7.035   9.178 -0.2280 -0.5218  2.0415
  575MOL0     C77504   7.272   7.035   9.114 -0.2646 -0.6747  0.5017
  575MOL0     C77505   7.378   7.009   9.223 -0.0398 -1.5998  0.5388
  575MOL0     C77506   7.503   7.098   9.199 -0.1751 -0.3719  0.2515
  575MOL0     N77507   7.583   7.064   9.078 -0.5140  0.6653  0.1424
  575MOL0     C77508   7.550   7.118   8.951  0.1824 -0.3936 -0.5759
  575MOL0     C77509   7.639   7.046   8.876  0.8703 -0.1829 -0.1253
  575MOL0     C77510   7.668   7.073   8.735  0.5253  0.2445 -0.3198
  575MOL0     C77511   7.819   7.095   8.697 -0.1901 -0.0679 -0.7670
  575MOL0     C77512   7.862   7.245   8.702  0.1432 -0.2612 -1.1968
  575MOL0     C77513   8.007   7.256   8.665 -0.2536 -0.4282  0.3998
  575MOL0     O77514   8.022   7.408   8.667 -0.1190 -0.1799  0.3590
  575MOL0     C77515   8.150   7.448   8.629 -0.9553 -0.4612 -0.1645
  575MOL0     C77516   8.251   7.361   8.572 -0.4254  0.3428  0.8439
  575MOL0     C77517   8.371   7.428   8.522 -0.0614  0.1710 -0.0382
  575MOL0     C77518   8.485   7.334   8.487  0.8460  0.3013  0.4267
  575MOL0     C77519   8.387   7.571   8.524 -0.5393 -0.4418 -1.3355
  575MOL0     C77520   8.518   7.645   8.496  0.3254 -0.1058 -0.0136
  575MOL0     O77521   8.526   7.764   8.555 -0.0810 -0.1164 -0.1598
  575MOL0     C77522   8.624   7.855   8.529 -0.1552  0.2213 -0.4279
  575MOL0     C77523   8.766   7.826   8.500  0.6815  0.3698  0.7276
  575MOL0     C77524   8.866   7.924   8.479 -0.3353  0.6060 -0.3949
  575MOL0     C77525   8.835   8.060   8.493 -0.0970 -1.0151  0.1715
  575MOL0     O77526   8.929   8.164   8.473 -0.4893 -0.2895  0.2389
  575MOL0     C77527   8.899   8.264   8.375 -0.9794  0.4010  0.9761
  575MOL0     C77528   8.862   8.195   8.236 -0.2390 -0.3418 -0.3419
  575MOL0     C77529   8.838   8.291   8.119  0.0877  0.7978 -0.5344
  575MOL0     C77530   8.811   8.211   7.990 -0.8283 -0.4824  0.6401
  575MOL0     C77531   8.815   8.310   7.867 -0.4674  0.3671 -0.7193
  575MOL0     C77532   8.820   8.234   7.737  0.3270 -0.2845  0.3103
  575MOL0     C77533   8.833   8.323   7.605 -0.5125 -0.0576 -0.1595
  575MOL0     C77534   8.740   8.285   7.498 -0.0280 -0.3766  0.1990
  575MOL0    Cl77535   8.757   8.110   7.478  0.0454 -0.0058  0.4103
  575MOL0     C77536   8.702   8.092   8.526 -0.0635  0.5688  1.1573
  575MOL0     C77537   8.596   7.992   8.538 -0.6029 -0.1027  0.0084
  575MOL0     O77538   8.599   7.582   8.425  0.3794 -0.2081 -1.3491
  575MOL0     C77539   8.283   7.647   8.588  0.8826 -0.2731  0.1815
  575MOL0     C77540   8.176   7.584   8.640 -0.7144  0.4323  0.3586
  575MOL0     N77541   7.722   6.963   8.954  0.8960  0.2297  0.6703
  575MOL0     N77542   7.682   6.964   9.079  0.6026 -0.4676  0.5349
  575MOL0     C77543   6.787   6.440   9.325 -0.1371 -0.4426 -0.7140
  575MOL0     C77544   6.731   6.323   9.273  0.2191 -0.3388 -0.2569
  575MOL0     C77545   6.438   5.989   9.204  1.1102  1.2628 -0.5480
  575MOL0     C77546   6.421   5.918   9.322 -0.6361  1.4203 -0.5996
  575MOL0     C77547   6.349   5.796   9.325 -0.4701  0.5419  1.1809
  575MOL0     C77548   6.306   5.731   9.204  0.3633  0.2757 -0.1695
  575MOL0     O77549   6.236   5.613   9.193 -0.4411  0.5935  0.1258
  575MOL0     C77550   6.197   5.538   9.312 -0.2233  0.7588  0.0681
  575MOL0     C77551   6.077   5.452   9.272  0.8855  0.0111  0.4336
  575MOL0     C77552   6.016   5.364   9.380  0.7456 -0.0744  0.6160
  575MOL0     C77553   5.898   5.265   9.337 -0.4720  0.5637 -0.3181
  575MOL0     C77554   5.945   5.184   9.231  0.1007  0.0102  0.0224
  575MOL0     C77555   5.971   5.116   9.140 -0.1528  0.0762  0.5630
  575MOL0     C77556   6.337   5.792   9.088  0.3225  0.5603  0.4112
  575MOL0     C77557   6.395   5.919   9.085 -0.0245  0.1293 -0.6397
  575MOL0     H77558   6.490   6.283   9.499  2.3534 -1.0935  0.1632
  575MOL0     H77559   6.574   6.508   9.574 -0.2535 -2.6063  2.2185
  575MOL0     H77560   6.744   6.722   9.280 -1.0884 -3.2083  0.9606
  575MOL0     H77561   6.739   6.830   9.416  1.6642  1.1085  0.8564
  575MOL0     H77562   6.993   6.778   9.465 -0.7935  0.5978  0.6095
  575MOL0     H77563   6.994   6.675   9.325 -0.5802 -1.6390  1.8522
  575MOL0     H77564   6.888   6.902   9.215 -3.7048  0.0785  1.7699
  575MOL0     H77565   6.956   6.981   9.361 -0.7798  1.8297 -2.4281
  575MOL0     H77566   7.169   6.878   9.316  0.1191  0.6262  0.3240
  575MOL0     H77567   7.110   6.831   9.161  1.2278 -0.8159  2.0532
  575MOL0     H77568   7.058   7.069   9.107 -2.0959  1.5034  4.8036
  575MOL0     H77569   7.128   7.107   9.259 -1.0397  0.0748  1.4626
  575MOL0     H77570   7.276   6.957   9.037  0.1869  0.0863 -0.2691
  575MOL0     H77571   7.281   7.134   9.068 -2.3777 -0.6962 -0.0618
  575MOL0     H77572   7.343   7.037   9.322 -0.4798 -1.9472  0.4826
  575MOL0     H77573   7.408   6.904   9.218 -0.7146 -1.7388 -3.1210
  575MOL0     H77574   7.577   7.078   9.278  1.6600 -3.9930 -2.0946
  575MOL0     H77575   7.468   7.201   9.203 -0.0198 -0.3277  0.5194
  575MOL0     H77576   7.471   7.179   8.909 -0.7894 -2.0674 -1.3050
  575MOL0     H77577   7.632   6.977   8.698  3.0458 -0.4530 -1.1761
  575MOL0     H77578   7.600   7.147   8.692 -0.8182 -0.6778  0.1281
  575MOL0     H77579   7.839   7.067   8.593  2.9144  0.8662 -0.5224
  575MOL0     H77580   7.889   7.040   8.762 -2.7059 -3.8049 -0.9161
  575MOL0     H77581   7.838   7.300   8.793 -1.9286  0.1041 -1.9075
  575MOL0     H77582   7.807   7.291   8.619 -0.1313  2.2092  0.2628
  575MOL0     H77583   8.021   7.218   8.563  0.6176  0.8365  0.0317
  575MOL0     H77584   8.082   7.214   8.732  1.6896  0.1553 -1.3285
  575MOL0     H77585   8.248   7.253   8.578 -1.4731  0.0428 -2.7895
  575MOL0     H77586   8.564   7.351   8.561  0.3648 -3.1186  1.9228
  575MOL0     H77587   8.455   7.229   8.499  1.9837 -0.0394  0.3257
  575MOL0     H77588   8.511   7.343   8.381  0.1615 -0.8658  0.1431
  575MOL0     H77589   8.799   7.722   8.502 -0.1846 -0.0909 -2.4831
  575MOL0     H77590   8.970   7.902   8.458 -0.5115  1.1778 -2.0196
  575MOL0     H77591   8.816   8.328   8.405 -1.4471  0.0955  0.3539
  575MOL0     H77592   8.993   8.319   8.360  0.8900 -1.7101  3.7636
  575MOL0     H77593   8.945   8.132   8.202  1.1786  0.1891  1.9162
  575MOL0     H77594   8.774   8.132   8.249 -0.3957 -0.2061 -0.7353
  575MOL0     H77595   8.932   8.344   8.105  1.9324 -1.8394  1.0150
  575MOL0     H77596   8.752   8.350   8.153 -1.8729 -2.1732  0.0209
  575MOL0     H77597   8.885   8.131   7.984 -2.4335 -2.1445  1.7882
  575MOL0     H77598   8.714   8.162   8.002 -0.8864 -0.5834 -0.2102
  575MOL0     H77599   8.907   8.368   7.876 -0.3215  0.0883 -0.3929
  575MOL0     H77600   8.728   8.375   7.870  2.9054  5.4584 -0.8916
  575MOL0     H77601   8.901   8.161   7.734  0.1673 -0.4376 -2.1502
  575MOL0     H77602   8.721   8.189   7.731  0.0139  0.2215 -7.3594
  575MOL0     H77603   8.933   8.321   7.561  0.2573  1.7405  1.3243
  575MOL0     H77604   8.812   8.425   7.639  1.4905  0.5426 -0.5880
  575MOL0     H77605   8.755   8.337   7.403  3.2069 -0.6212  0.4714
  575MOL0     H77606   8.636   8.310   7.523 -0.6572 -4.8034  3.1341
  575MOL0     H77607   8.680   8.197   8.541  2.3889  1.5381 -1.1595
  575MOL0     H77608   8.497   8.027   8.565  0.0495  2.1125 -0.2178
  575MOL0     H77609   8.299   7.752   8.607  0.0165 -0.5197  2.6984
  575MOL0     H77610   8.110   7.642   8.703 -3.7640 -1.9837 -0.3641
  575MOL0     H77611   6.871   6.488   9.275  1.2178 -1.8487  0.1304
  575MOL0     H77612   6.775   6.272   9.188  0.0115 -0.5668 -0.2296
  575MOL0     H77613   6.463   5.950   9.417 -0.6342 -1.8840  0.6249
  575MOL0     H77614   6.327   5.757   9.424 -1.3843  0.6774  1.0355
  575MOL0     H77615   6.276   5.472   9.349  0.7953  1.2554 -1.1854
  575MOL0     H77616   6.165   5.599   9.397 -1.2593  0.6476 -0.2294
  575MOL0     H77617   6.098   5.396   9.181 -0.1865  2.8750 -1.7216
  575MOL0     H77618   5.995   5.522   9.252  1.2324  0.9067  1.9490
  575MOL0     H77619   5.985   5.417   9.470  2.5397  3.5046 -0.6839
  575MOL0     H77620   6.095   5.296   9.416 -1.8407 -2.5128  2.1495
  575MOL0     H77621   5.808   5.326   9.323 -0.6652  0.0734 -1.2383
  575MOL0     H77622   5.882   5.199   9.423  1.7163 -1.1828 -1.1315
  575MOL0     H77623   5.975   5.071   9.043 -1.2485  5.4354 -2.3357
  575MOL0     H77624   6.307   5.736   9.000  1.8754  0.6857 -0.2249
  575MOL0     H77625   6.407   5.975   8.993 -4.7773 -0.5503 -1.9470
  576MOL0     O77626  10.758   2.976   7.303  0.2739 -0.4780  0.3184
  576MOL0     C77627  10.669   3.046   7.354 -0.8271  0.1053 -0.0039
  576MOL0     O77628  10.574   3.007   7.441 -0.3143 -1.0712 -0.1846
  576MOL0     C77629  10.568   2.881   7.482  0.3576  0.2573 -0.0088
  576MOL0     C77630  10.479   2.795   7.414  0.3895 -0.6212  1.8964
  576MOL0     C77631  10.477   2.661   7.439 -0.1072 -0.3701  0.8774
  576MOL0     C77632  10.563   2.614   7.539  0.1798 -0.2313  0.1726
  576MOL0     O77633  10.538   2.480   7.569  0.8284  0.7049  0.2507
  576MOL0     C77634  10.650   2.410   7.627 -0.0684 -0.7739  0.3385
  576MOL0     C77635  10.763   2.406   7.518 -0.5789 -0.0528  0.1093
  576MOL0     C77636  10.777   2.263   7.478  0.6272 -0.5546 -0.2305
  576MOL0     C77637  10.836   2.273   7.336 -0.1646  0.9430  0.2143
  576MOL0     C77638  10.834   2.126   7.271  0.7166 -0.1234 -0.5354
  576MOL0     C77639  10.716   2.106   7.170  0.4991  0.1315 -0.1604
  576MOL0     C77640  10.744   2.012   7.042  0.3057 -0.1879 -0.7723
  576MOL0     C77641  10.608   2.014   6.963 -0.0546  0.1185  0.0894
  576MOL0     N77642  10.501   1.938   7.036 -0.0762 -0.0292 -0.3139
  576MOL0     C77643  10.510   1.804   7.060  0.3868  0.3016  0.3575
  576MOL0     C77644  10.397   1.766   7.115  0.5425  0.5845  0.3836
  576MOL0     C77645  10.374   1.626   7.159 -0.6539 -0.0563 -0.0319
  576MOL0     C77646  10.275   1.552   7.079  0.5967 -0.3815  0.3232
  576MOL0     C77647  10.257   1.406   7.124 -0.2974 -0.6582  0.3538
  576MOL0     C77648  10.202   1.371   7.258  0.3878 -0.2629  0.3479
  576MOL0     O77649  10.148   1.236   7.267  0.4248  0.0701  0.0864
  576MOL0     C77650  10.092   1.182   7.380  0.0369  0.3362  0.6076
  576MOL0     C77651  10.073   1.039   7.384 -0.9281 -0.2922 -1.0132
  576MOL0     C77652  10.034   0.972   7.509 -1.1314 -0.4758  0.7797
  576MOL0     C77653  10.025   0.824   7.515  0.5958 -0.2736  0.4880
  576MOL0     C77654   9.994   1.055   7.621  0.3954  0.0870 -0.5847
  576MOL0     C77655   9.937   1.001   7.754  0.0073  0.1721 -0.2409
  576MOL0     O77656   9.884   0.873   7.770  0.0709  0.1365  0.5601
  576MOL0     C77657   9.838   0.842   7.889 -0.6724  0.5858  0.8800
  576MOL0     C77658   9.701   0.858   7.915  0.5788 -0.2705 -0.0903
  576MOL0     C77659   9.647   0.839   8.050 -0.2959  0.3422  0.1142
  576MOL0     C77660   9.741   0.777   8.128  1.0120  0.8783 -0.8893
  576MOL0     O77661   9.695   0.730   8.250  0.2182 -1.2438  0.6294
  576MOL0     C77662   9.756   0.778   8.370 -0.3726 -0.2111  0.8707
  576MOL0     C77663   9.714   0.686   8.487 -0.2125  0.1795 -0.4249
  576MOL0     C77664   9.831   0.672   8.590  0.1411  0.0480  0.1669
  576MOL0     C77665   9.787   0.562   8.692 -0.0609  0.0501  0.4630
  576MOL0     C77666   9.671   0.606   8.788 -0.3905 -0.7518 -0.4457
  576MOL0     C77667   9.589   0.481   8.827  0.2225  0.3856 -1.2546
  576MOL0     C77668   9.477   0.521   8.931 -0.2864 -0.1739 -0.0290
  576MOL0     C77669   9.388   0.633   8.869 -0.8254  1.0199  0.0545
  576MOL0    Cl77670   9.222   0.613   8.929  0.5898  0.0036 -0.1212
  576MOL0     C77671   9.875   0.754   8.106 -0.2061 -0.0976 -0.3510
  576MOL0     C77672   9.919   0.768   7.982 -0.3061 -0.1440 -1.2067
  576MOL0     O77673   9.931   1.084   7.843  0.8311 -0.3882 -0.1206
  576MOL0     C77674   9.996   1.199   7.601  0.1717  0.4757  0.1513
  576MOL0     C77675  10.048   1.257   7.483  0.4230  0.5047 -0.2482
  576MOL0     N77676  10.321   1.877   7.123 -0.2551 -0.0115  0.1507
  576MOL0     N77677  10.384   1.985   7.081  0.5830  0.0251  0.5610
  576MOL0     C77678  10.653   2.692   7.606 -0.5576 -0.4838 -0.3188
  576MOL0     C77679  10.662   2.828   7.573 -0.1707  0.2512 -0.7556
  576MOL0     C77680  10.660   3.182   7.305  0.4401  0.1187 -0.3666
  576MOL0     C77681  10.761   3.240   7.220  0.5640 -1.1110 -0.1530
  576MOL0     C77682  10.748   3.369   7.190 -0.3911 -0.4705 -0.6582
  576MOL0     C77683  10.642   3.448   7.234  0.3563  0.3397 -0.1178
  576MOL0     O77684  10.616   3.570   7.181  0.3427  0.2280  0.5508
  576MOL0     C77685  10.710   3.672   7.182 -0.2365 -0.1507  0.0754
  576MOL0     C77686  10.667   3.761   7.300  1.0386 -0.5672  0.2568
  576MOL0     C77687  10.516   3.813   7.273 -0.5663  0.1634 -0.6281
  576MOL0     C77688  10.493   3.915   7.152  0.1687  0.5147 -0.4070
  576MOL0     C77689  10.383   4.013   7.162 -0.4358 -0.7330  1.5244
  576MOL0     C77690  10.296   4.096   7.162 -0.4740  0.0372 -1.3873
  576MOL0     C77691  10.531   3.390   7.279 -0.1787  0.3005 -0.3742
  576MOL0     C77692  10.541   3.256   7.314  0.2378  0.7957 -0.5602
  576MOL0     H77693  10.407   2.849   7.353  2.3379 -0.6211 -0.5430
  576MOL0     H77694  10.400   2.603   7.387  1.4934 -1.8742  0.0860
  576MOL0     H77695  10.659   2.461   7.723 -2.7550  0.6775 -0.0581
  576MOL0     H77696  10.615   2.309   7.651 -4.0878  0.0039 -1.2848
  576MOL0     H77697  10.737   2.467   7.431 -0.8472  1.1300  0.9847
  576MOL0     H77698  10.854   2.453   7.555 -0.4313  0.9750 -1.4595
  576MOL0     H77699  10.844   2.199   7.535  2.8918 -0.0802 -2.1887
  576MOL0     H77700  10.678   2.217   7.469 -0.6237  1.1089  3.1981
  576MOL0     H77701  10.808   2.351   7.265  1.7554  2.2358  0.8187
  576MOL0     H77702  10.942   2.281   7.359 -0.5374 -2.1380  3.9345
  576MOL0     H77703  10.929   2.120   7.217  1.7450  2.3990  0.8349
  576MOL0     H77704  10.825   2.047   7.346  0.4989 -0.7763 -1.2274
  576MOL0     H77705  10.613   2.095   7.205  0.2360  0.3586 -0.8449
  576MOL0     H77706  10.708   2.202   7.117  1.4641  0.6726  0.6216
  576MOL0     H77707  10.826   2.060   6.986  2.2959 -1.9554  0.4760
  576MOL0     H77708  10.779   1.911   7.064  0.2882 -0.6467 -2.6618
  576MOL0     H77709  10.614   1.964   6.866  0.5843  0.2346  0.0643
  576MOL0     H77710  10.560   2.112   6.950  0.8267  0.8928  2.1737
  576MOL0     H77711  10.600   1.743   7.053 -0.6475 -1.2653  0.2976
  576MOL0     H77712  10.468   1.570   7.158  1.1357  2.7471 -1.6268
  576MOL0     H77713  10.333   1.632   7.260 -2.5380 -1.6142 -0.6496
  576MOL0     H77714  10.313   1.554   6.977  1.6686 -3.9614  0.5223
  576MOL0     H77715  10.178   1.602   7.075  0.5821 -0.4557 -0.3701
  576MOL0     H77716  10.360   1.369   7.124 -0.1060 -0.1800 -1.2710
  576MOL0     H77717  10.197   1.356   7.047 -1.4101  0.6698  0.3133
  576MOL0     H77718  10.127   1.448   7.279  0.4483 -0.3564  0.9163
  576MOL0     H77719  10.284   1.381   7.330 -1.2395 -0.1563  2.2773
  576MOL0     H77720  10.092   0.971   7.302  3.0173 -6.1783  3.8550
  576MOL0     H77721  10.068   0.775   7.427 -0.6485 -0.6059  0.0427
  576MOL0     H77722  10.071   0.795   7.610  1.2339  1.0078  0.5937
  576MOL0     H77723   9.919   0.798   7.524  0.5568  0.2379  1.7127
  576MOL0     H77724   9.642   0.897   7.832 -0.9451  1.3106  1.6274
  576MOL0     H77725   9.548   0.856   8.090  0.1448  1.6600  0.7079
  576MOL0     H77726   9.865   0.783   8.357 -0.7124  0.7305 -2.1976
  576MOL0     H77727   9.726   0.878   8.403 -0.8337 -0.6085  1.6968
  576MOL0     H77728   9.624   0.723   8.537  0.4338  0.1029  0.8405
  576MOL0     H77729   9.690   0.592   8.438  3.3461 -0.5976 -0.9208
  576MOL0     H77730   9.856   0.770   8.631  0.6931 -0.4072  0.9580
  576MOL0     H77731   9.915   0.640   8.528  1.1478  0.0532  1.4689
  576MOL0     H77732   9.753   0.477   8.633  1.5235 -1.3943  1.5268
  576MOL0     H77733   9.876   0.537   8.751 -1.1714  0.9799  2.6460
  576MOL0     H77734   9.596   0.676   8.748  0.0286  0.2249  0.4271
  576MOL0     H77735   9.719   0.650   8.875 -0.3895 -0.1478 -0.7401
  576MOL0     H77736   9.528   0.448   8.743 -2.1600 -1.3897  1.0124
  576MOL0     H77737   9.665   0.411   8.865  3.8016  4.1581 -0.6580
  576MOL0     H77738   9.516   0.541   9.032  1.5935 -2.3969 -0.2296
  576MOL0     H77739   9.409   0.437   8.947 -1.4486  0.9193  1.1054
  576MOL0     H77740   9.378   0.631   8.761  0.0076  0.7092 -0.0248
  576MOL0     H77741   9.426   0.730   8.904 -0.5596  1.7662 -2.1345
  576MOL0     H77742   9.945   0.721   8.182 -1.6805 -2.9961 -0.1252
  576MOL0     H77743  10.025   0.749   7.965  0.3925 -2.0055  3.5408
  576MOL0     H77744   9.952   1.272   7.668  0.4966 -0.2596  1.1818
  576MOL0     H77745  10.041   1.365   7.474  1.1901  0.8355  2.3103
  576MOL0     H77746  10.716   2.660   7.688 -0.1155 -0.8087 -0.7762
  576MOL0     H77747  10.721   2.901   7.628  0.6696  0.3889 -1.8118
  576MOL0     H77748  10.855   3.197   7.189  1.5231  0.6467  0.2185
  576MOL0     H77749  10.825   3.408   7.124  2.0701 -1.6417  1.3515
  576MOL0     H77750  10.808   3.625   7.194 -0.7943 -1.9788 -1.9270
  576MOL0     H77751  10.726   3.718   7.084  1.7583  0.5301  0.6792
  576MOL0     H77752  10.724   3.852   7.315  0.1419  0.1328 -0.4503
  576MOL0     H77753  10.677   3.694   7.386  1.3788 -2.0467 -0.8882
  576MOL0     H77754  10.492   3.869   7.364  2.4858  2.2024 -0.9457
  576MOL0     H77755  10.447   3.728   7.267 -0.4386  0.0232 -0.1620
  576MOL0     H77756  10.479   3.872   7.053  1.3515 -2.4294  0.5651
  576MOL0     H77757  10.591   3.964   7.148  2.3754 -2.4865  4.8595
  576MOL0     H77758  10.213   4.165   7.156 -2.5548 -2.3436 -1.6644
  576MOL0     H77759  10.444   3.451   7.300  1.3572  1.9029  1.9931
  576MOL0     H77760  10.462   3.213   7.375  2.3793 -0.8324  1.2193
  577MOL0     O77761   5.131   4.035   8.869  0.5946 -0.2235  0.1671
  577MOL0     C77762   5.051   4.057   8.774 -0.4339  0.1142  0.0086
  577MOL0     O77763   4.966   4.170   8.771  0.0795 -0.1912  0.6342
  577MOL0     C77764   4.954   4.250   8.878 -0.0302  0.4623 -0.3418
  577MOL0     C77765   4.852   4.223   8.975 -0.3655 -0.3325 -0.6082
  577MOL0     C77766   4.838   4.299   9.092  0.2303  1.2041  0.8833
  577MOL0     C77767   4.923   4.405   9.122  0.3518  0.3714  0.7800
  577MOL0     O77768   4.911   4.474   9.244  0.5046 -0.0559 -0.2250
  577MOL0     C77769   4.927   4.615   9.243  0.5892  0.6856 -0.3721
  577MOL0     C77770   4.780   4.662   9.210 -0.8129  0.3882  0.8499
  577MOL0     C77771   4.778   4.811   9.199  0.5694  0.0118  0.0071
  577MOL0     C77772   4.637   4.865   9.226 -0.1763  1.0117  0.4535
  577MOL0     C77773   4.631   5.023   9.228 -0.3586  1.2672 -0.2538
  577MOL0     C77774   4.484   5.062   9.187 -0.6387  0.3662 -0.3802
  577MOL0     C77775   4.463   5.213   9.212  0.4589 -0.1664 -0.2420
  577MOL0     C77776   4.323   5.269   9.164 -0.6140 -0.3778 -0.0687
  577MOL0     N77777   4.329   5.411   9.133 -0.0769  0.1838 -0.1557
  577MOL0     C77778   4.329   5.511   9.229  0.5114  0.6408  0.0277
  577MOL0     C77779   4.362   5.623   9.161  0.6536  0.1292 -0.9327
  577MOL0     C77780   4.364   5.762   9.210  0.0245  0.6839 -0.4113
  577MOL0     C77781   4.260   5.845   9.128  0.1966 -0.3004 -0.2166
  577MOL0     C77782   4.283   5.999   9.164  0.4628 -0.4049 -0.1570
  577MOL0     C77783   4.220   6.079   9.035  0.0066 -1.2932 -0.4594
  577MOL0     O77784   4.082   6.044   9.006 -0.5561  0.0407 -0.5719
  577MOL0     C77785   4.031   6.084   8.886  0.6045 -0.1979  0.6291
  577MOL0     C77786   4.092   6.179   8.796 -0.2833  0.7914 -0.3063
  577MOL0     C77787   4.032   6.222   8.677  0.3055  0.2978  0.6784
  577MOL0     C77788   4.127   6.288   8.580  0.5999  0.0604 -0.5564
  577MOL0     C77789   3.903   6.177   8.638 -0.1923  0.5214  0.0815
  577MOL0     C77790   3.831   6.209   8.506  0.1377  0.0730 -0.0959
  577MOL0     O77791   3.710   6.142   8.478  0.5700  0.4998  0.1492
  577MOL0     C77792   3.642   6.157   8.367  0.3805 -0.0420  0.8709
  577MOL0     C77793   3.588   6.043   8.316  0.3242 -0.3527 -0.2688
  577MOL0     C77794   3.522   6.043   8.192  0.3032  0.1593  0.2369
  577MOL0     C77795   3.493   6.164   8.130  0.7462  0.1448  1.1073
  577MOL0     O77796   3.430   6.153   8.011  0.3897  0.2305 -0.5773
  577MOL0     C77797   3.423   6.267   7.917 -0.5625  0.3493  0.3438
  577MOL0     C77798   3.328   6.225   7.805  0.8382  0.3967  0.6037
  577MOL0     C77799   3.192   6.149   7.837  0.0519 -1.3153 -0.7810
  577MOL0     C77800   3.088   6.244   7.907 -0.2629  1.2228 -1.5693
  577MOL0     C77801   2.951   6.182   7.924  0.6062  0.5854  0.3631
  577MOL0     C77802   2.877   6.154   7.799 -0.2004  0.5223  0.1258
  577MOL0     C77803   2.870   6.255   7.692  0.0695 -0.7060 -0.1660
  577MOL0     C77804   2.795   6.214   7.564  0.1275 -0.0110 -0.6421
  577MOL0    Cl77805   2.629   6.146   7.611 -0.3107  0.3847 -0.0398
  577MOL0     C77806   3.548   6.281   8.181 -0.0604 -0.3129 -0.8683
  577MOL0     C77807   3.626   6.275   8.300  0.2000 -0.3798 -0.7406
  577MOL0     O77808   3.865   6.304   8.442 -0.0512  0.7370 -0.8589
  577MOL0     C77809   3.848   6.089   8.723  0.3228  0.3225  0.2369
  577MOL0     C77810   3.911   6.043   8.844  0.9237 -0.3439  0.0950
  577MOL0     N77811   4.370   5.587   9.026  0.3953  0.4046 -0.5720
  577MOL0     N77812   4.360   5.457   9.012  0.3637 -0.3897  0.1464
  577MOL0     C77813   5.020   4.439   9.021 -0.4466 -0.3763 -0.7448
  577MOL0     C77814   5.034   4.363   8.905 -0.8843 -0.3166  0.9123
  577MOL0     C77815   5.055   3.983   8.648  0.2130 -0.5527 -0.1878
  577MOL0     C77816   5.169   3.907   8.628 -0.1392 -0.6558 -0.2425
  577MOL0     C77817   5.194   3.852   8.496  0.3636 -0.5663 -0.4989
  577MOL0     C77818   5.103   3.856   8.392  0.5302 -0.1458  0.6184
  577MOL0     O77819   5.140   3.800   8.273 -0.4583  0.6732  0.5503
  577MOL0     C77820   5.045   3.817   8.161  0.1085  0.0760 -0.9796
  577MOL0     C77821   5.115   3.785   8.028  0.0376  0.7473  1.0305
  577MOL0     C77822   5.167   3.635   8.018 -0.2998 -0.0207  0.1175
  577MOL0     C77823   5.088   3.526   7.947  0.2643 -0.4185  0.9031
  577MOL0     C77824   5.078   3.567   7.807  0.8054  0.9587 -0.0126
  577MOL0     C77825   5.071   3.613   7.696 -0.4128 -0.5166  0.0465
  577MOL0     C77826   4.979   3.915   8.415  0.3660  0.0032 -0.5722
  577MOL0     C77827   4.951   3.984   8.546 -0.4018  0.6132  0.3271
  577MOL0     H77828   4.807   4.126   8.956  3.5247 -2.5346  0.1500
  577MOL0     H77829   4.756   4.278   9.160 -1.1046  0.0639 -0.9648
  577MOL0     H77830   4.957   4.633   9.347  1.6879 -3.0299  0.1013
  577MOL0     H77831   5.000   4.651   9.171  0.2045  0.2823 -0.9746
  577MOL0     H77832   4.746   4.606   9.122  0.6063 -0.1514  0.6139
  577MOL0     H77833   4.728   4.636   9.302 -0.9812 -1.8417  0.1928
  577MOL0     H77834   4.846   4.853   9.274 -0.3614  0.4681  0.6098
  577MOL0     H77835   4.814   4.847   9.102  0.6655 -0.7479 -0.2405
  577MOL0     H77836   4.583   4.834   9.136 -0.0746 -2.1198  1.3787
  577MOL0     H77837   4.587   4.824   9.313  0.3878 -1.0295 -0.1402
  577MOL0     H77838   4.656   5.056   9.329  6.7789 -0.5329 -0.8722
  577MOL0     H77839   4.709   5.062   9.162 -0.9684 -1.2060 -2.6425
  577MOL0     H77840   4.492   5.051   9.079  3.6884  0.7716 -0.2788
  577MOL0     H77841   4.406   5.001   9.233  0.3356 -1.5929 -1.2522
  577MOL0     H77842   4.473   5.241   9.317  0.0614 -1.2962  0.1174
  577MOL0     H77843   4.535   5.267   9.150  1.3258 -0.0508  0.8358
  577MOL0     H77844   4.251   5.241   9.242  0.5694  0.3995  1.3457
  577MOL0     H77845   4.294   5.201   9.083  0.1121 -0.0917 -0.5799
  577MOL0     H77846   4.295   5.513   9.332 -1.4177 -1.0451 -0.5138
  577MOL0     H77847   4.336   5.760   9.316 -1.4625 -2.0928 -0.7458
  577MOL0     H77848   4.464   5.804   9.220  1.5384 -2.7257  0.3883
  577MOL0     H77849   4.153   5.824   9.140 -0.1288  0.9518 -0.6825
  577MOL0     H77850   4.286   5.835   9.022 -0.7594  3.8969 -1.0642
  577MOL0     H77851   4.390   6.022   9.174  0.8135 -2.6682  2.4730
  577MOL0     H77852   4.253   6.016   9.268  0.3855  0.6879 -0.3446
  577MOL0     H77853   4.278   6.056   8.945 -1.5880 -2.2728 -1.2862
  577MOL0     H77854   4.224   6.187   9.053 -0.5503 -1.8117  3.7720
  577MOL0     H77855   4.191   6.222   8.802  2.0058 -3.6808 -1.6098
  577MOL0     H77856   4.082   6.279   8.481  1.5584 -1.7265 -0.8699
  577MOL0     H77857   4.124   6.396   8.596  0.7794 -0.2354  1.7813
  577MOL0     H77858   4.230   6.251   8.579  1.0314  1.1447  0.8266
  577MOL0     H77859   3.585   5.947   8.366 -3.3284  0.7466  2.0410
  577MOL0     H77860   3.488   5.947   8.155  1.3859 -0.4993  0.9318
  577MOL0     H77861   3.369   6.348   7.968 -2.6211 -0.5592 -0.2670
  577MOL0     H77862   3.520   6.297   7.876 -0.0239 -1.4321  0.2127
  577MOL0     H77863   3.302   6.306   7.736  0.8184  0.4681  0.6941
  577MOL0     H77864   3.390   6.163   7.739  0.1170  2.0196 -1.7273
  577MOL0     H77865   3.190   6.065   7.907  0.6662 -2.3322 -1.9439
  577MOL0     H77866   3.148   6.125   7.740 -2.3227  2.8895 -0.9625
  577MOL0     H77867   3.136   6.243   8.005 -0.7488 -0.9096 -1.3062
  577MOL0     H77868   3.076   6.343   7.861 -3.6874  0.6358 -2.2440
  577MOL0     H77869   2.888   6.250   7.983  0.1383  0.5443 -0.0849
  577MOL0     H77870   2.956   6.090   7.983 -2.8621  0.0855  0.0511
  577MOL0     H77871   2.940   6.075   7.757  0.3105  0.0616  1.6807
  577MOL0     H77872   2.789   6.114   7.850  1.7148  0.0655  3.3133
  577MOL0     H77873   2.971   6.292   7.674  1.0630 -1.3683  3.3089
  577MOL0     H77874   2.816   6.337   7.741  1.2631  1.0944 -1.7448
  577MOL0     H77875   2.841   6.138   7.500 -1.4354  0.2417 -2.1517
  577MOL0     H77876   2.772   6.304   7.506 -0.5971  0.3193  0.1362
  577MOL0     H77877   3.534   6.377   8.133  1.6602  0.1315 -0.5465
  577MOL0     H77878   3.668   6.364   8.345  0.0208 -0.9613  0.6338
  577MOL0     H77879   3.749   6.048   8.705 -0.2001  1.3959  0.5997
  577MOL0     H77880   3.854   5.987   8.918  0.2189  0.8064  0.4521
  577MOL0     H77881   5.088   4.522   9.039 -2.6994  1.6353 -1.0152
  577MOL0     H77882   5.114   4.388   8.835  0.3067 -1.2387  1.9062
  577MOL0     H77883   5.249   3.904   8.701  1.4470  3.8361 -1.4802
  577MOL0     H77884   5.292   3.805   8.492  1.6077  1.7528  0.2431
  577MOL0     H77885   4.953   3.758   8.166 -1.2028  1.8089 -2.7284
  577MOL0     H77886   5.008   3.920   8.160 -1.2093 -0.3889 -1.8577
  577MOL0     H77887   5.192   3.862   8.041  0.0139  0.6640  1.7457
  577MOL0     H77888   5.047   3.808   7.945  1.8478  0.7176 -0.5239
  577MOL0     H77889   5.170   3.600   8.121 -1.7676  0.2272  0.2724
  577MOL0     H77890   5.269   3.630   7.979  0.0782  2.0532  0.6979
  577MOL0     H77891   4.988   3.517   7.992 -0.4670  3.3200  0.3661
  577MOL0     H77892   5.138   3.429   7.951 -0.1540 -0.6115  2.0015
  577MOL0     H77893   5.066   3.654   7.597  1.9120 -1.9206 -0.7309
  577MOL0     H77894   4.900   3.903   8.342  0.5661  1.3867 -1.0546
  577MOL0     H77895   4.855   4.030   8.568 -0.3770  1.3178 -0.9926
  578MOL0     O77896   4.326   8.607   3.818 -0.5817  0.3360 -0.0912
  578MOL0     C77897   4.216   8.603   3.867 -0.0924 -1.1302  0.5083
  578MOL0     O77898   4.187   8.541   3.988  0.4218 -0.4958  0.3777
  578MOL0     C77899   4.280   8.460   4.053  0.2522 -0.0110 -0.6012
  578MOL0     C77900   4.376   8.516   4.135  0.4473  0.0141  0.9341
  578MOL0     C77901   4.456   8.434   4.211  0.3880  0.1654  0.1125
  578MOL0     C77902   4.445   8.299   4.211  0.7985 -0.0635 -0.1862
  578MOL0     O77903   4.536   8.231   4.280  0.2089  0.5924 -0.4952
  578MOL0     C77904   4.522   8.083   4.302 -0.1096  0.7337 -0.1176
  578MOL0     C77905   4.656   8.058   4.369 -0.2220  0.6588  0.1526
  578MOL0     C77906   4.634   7.922   4.451 -0.1096 -0.9295  0.6849
  578MOL0     C77907   4.617   7.793   4.370  0.3292  0.1112 -0.0913
  578MOL0     C77908   4.619   7.673   4.457  0.1673  0.9535 -0.7041
  578MOL0     C77909   4.528   7.568   4.395  0.7239  1.2755 -0.5254
  578MOL0     C77910   4.592   7.489   4.281 -0.4436  0.4410  0.8718
  578MOL0     C77911   4.521   7.367   4.233 -0.0521  1.1431  0.1350
  578MOL0     N77912   4.584   7.316   4.114  0.6800  0.8357  0.0871
  578MOL0     C77913   4.703   7.246   4.110 -0.2696 -0.5443 -0.0183
  578MOL0     C77914   4.720   7.222   3.983 -0.0479  0.2101  0.1230
  578MOL0     C77915   4.838   7.154   3.912  0.3106 -0.4449 -0.9334
  578MOL0     C77916   4.980   7.212   3.931  0.5885 -1.0330 -1.0232
  578MOL0     C77917   5.013   7.313   3.820  0.3604  0.8801 -0.1550
  578MOL0     C77918   5.040   7.245   3.684 -0.6233 -0.3999 -1.0825
  578MOL0     O77919   5.089   7.347   3.587 -0.0341 -0.2725 -0.0165
  578MOL0     C77920   4.995   7.441   3.531  0.3609  0.0804 -0.2349
  578MOL0     C77921   4.867   7.453   3.566  0.5785 -0.5261 -0.3605
  578MOL0     C77922   4.770   7.515   3.488 -0.1382 -0.8477 -0.3671
  578MOL0     C77923   4.626   7.501   3.532  0.2526 -1.0386  1.0344
  578MOL0     C77924   4.808   7.590   3.372 -1.2275  0.5334  0.4715
  578MOL0     C77925   4.720   7.665   3.282 -0.1859 -0.5398  0.1375
  578MOL0     O77926   4.768   7.735   3.178  0.0569 -0.2892  0.0388
  578MOL0     C77927   4.677   7.797   3.088  0.1888 -1.2284 -0.0473
  578MOL0     C77928   4.627   7.723   2.983 -0.3195 -0.2987 -0.0224
  578MOL0     C77929   4.535   7.800   2.900 -0.0362 -0.2881 -0.3370
  578MOL0     C77930   4.517   7.940   2.901  0.4951 -0.6942  0.0276
  578MOL0     O77931   4.427   7.999   2.811  0.1162 -0.4501  0.2019
  578MOL0     C77932   4.444   8.133   2.756 -0.3696  0.6261 -0.1839
  578MOL0     C77933   4.311   8.185   2.717  0.3297 -0.3269 -0.0444
  578MOL0     C77934   4.223   8.233   2.842  0.3743  0.1536 -0.4794
  578MOL0     C77935   4.070   8.238   2.818 -0.4656 -0.5359  0.5528
  578MOL0     C77936   3.982   8.276   2.935  0.3655  0.0363  0.5331
  578MOL0     C77937   3.991   8.415   2.996  0.3881 -0.0054 -0.1984
  578MOL0     C77938   3.977   8.400   3.151  0.6088  0.5920 -0.0359
  578MOL0     C77939   3.921   8.532   3.216 -0.8490 -0.1348 -1.3834
  578MOL0    Cl77940   3.758   8.567   3.149  0.1780  0.4392 -0.1827
  578MOL0     C77941   4.574   8.005   3.005 -0.4329  0.1123  0.4386
  578MOL0     C77942   4.661   7.943   3.094 -1.0652  0.2565 -0.1606
  578MOL0     O77943   4.597   7.642   3.291 -0.1839 -0.2189  0.1824
  578MOL0     C77944   4.955   7.589   3.346  1.4099 -0.1671 -0.4274
  578MOL0     C77945   5.039   7.505   3.417 -0.9738 -0.2449 -0.7018
  578MOL0     N77946   4.606   7.260   3.911  0.1433  0.4301 -0.3139
  578MOL0     N77947   4.515   7.307   3.991 -0.4284  0.5447 -0.0465
  578MOL0     C77948   4.348   8.239   4.121  0.8105  0.2239 -0.3500
  578MOL0     C77949   4.259   8.324   4.046 -0.0062  1.5222 -0.0340
  578MOL0     C77950   4.106   8.688   3.799  0.3407 -0.0495  0.6425
  578MOL0     C77951   3.970   8.675   3.842 -0.9748 -0.0443 -0.9079
  578MOL0     C77952   3.872   8.720   3.757 -0.5555  0.3517  0.1318
  578MOL0     C77953   3.899   8.767   3.628 -0.4632 -0.7329  0.2510
  578MOL0     O77954   3.779   8.809   3.556  0.4570  0.2193 -0.3254
  578MOL0     C77955   3.792   8.849   3.421  0.4406 -0.1492  0.0140
  578MOL0     C77956   3.831   8.994   3.406 -0.3890 -0.3074  0.0737
  578MOL0     C77957   3.818   9.091   3.528 -0.2701  0.2712 -0.6463
  578MOL0     C77958   3.893   9.225   3.508 -0.3681 -0.0924  0.0391
  578MOL0     C77959   4.040   9.221   3.497 -0.3632 -0.4202  0.7061
  578MOL0     C77960   4.158   9.206   3.484  0.1523 -0.2802 -0.7381
  578MOL0     C77961   4.038   8.776   3.586 -0.0253 -0.7660  0.2052
  578MOL0     C77962   4.138   8.729   3.670 -0.4000 -0.8838 -0.8478
  578MOL0     H77963   4.396   8.621   4.119 -1.2690 -0.0924 -3.0834
  578MOL0     H77964   4.540   8.477   4.264  2.3769 -2.6970 -0.4835
  578MOL0     H77965   4.449   8.063   4.381  1.4956 -3.2656  0.6057
  578MOL0     H77966   4.510   8.020   4.213  2.5045  1.9610 -1.4521
  578MOL0     H77967   4.727   8.033   4.290 -2.1067  1.9707 -2.1071
  578MOL0     H77968   4.683   8.142   4.434  0.2821  0.5901  0.0355
  578MOL0     H77969   4.724   7.909   4.511 -1.4477  0.8573  3.2708
  578MOL0     H77970   4.550   7.937   4.519 -0.5333 -0.4236  0.0607
  578MOL0     H77971   4.529   7.802   4.306  0.1131 -3.1462 -0.4365
  578MOL0     H77972   4.694   7.783   4.294  1.9326 -1.2907  1.6304
  578MOL0     H77973   4.722   7.638   4.464 -0.0872  0.2359 -0.4397
  578MOL0     H77974   4.573   7.690   4.555 -0.8141 -3.1844 -0.2660
  578MOL0     H77975   4.507   7.488   4.468  1.5168 -1.8282 -3.4427
  578MOL0     H77976   4.430   7.608   4.365  0.3967 -0.7121 -2.3827
  578MOL0     H77977   4.578   7.559   4.199 -2.4134 -1.8729 -0.9377
  578MOL0     H77978   4.696   7.461   4.298 -0.9048 -1.6929  0.4431
  578MOL0     H77979   4.417   7.389   4.208 -1.2998 -1.9002  2.0302
  578MOL0     H77980   4.509   7.285   4.305  0.3305  0.5266 -0.4928
  578MOL0     H77981   4.768   7.234   4.196 -0.9705  1.2218  0.7978
  578MOL0     H77982   4.830   7.052   3.949 -1.9887  0.2542  0.7876
  578MOL0     H77983   4.815   7.138   3.807 -0.5165 -2.0618 -0.5406
  578MOL0     H77984   5.057   7.135   3.939  1.1077 -0.3284  1.5624
  578MOL0     H77985   4.983   7.267   4.025 -2.6199  2.2246 -2.5739
  578MOL0     H77986   5.110   7.357   3.847 -0.0829  2.5045 -1.0893
  578MOL0     H77987   4.945   7.398   3.817  0.0911  0.6480 -3.0028
  578MOL0     H77988   4.959   7.187   3.637  1.4626 -2.6388 -2.1148
  578MOL0     H77989   5.120   7.172   3.699  1.9968  2.2838 -1.0574
  578MOL0     H77990   4.838   7.400   3.655  0.9644  0.0318  0.1077
  578MOL0     H77991   4.598   7.593   3.584  2.1087 -1.4186  2.8365
  578MOL0     H77992   4.561   7.468   3.451  0.8858 -1.3340  0.6423
  578MOL0     H77993   4.616   7.421   3.606  1.2692 -1.1132  1.0961
  578MOL0     H77994   4.641   7.616   2.968  2.0093  0.0531 -0.8378
  578MOL0     H77995   4.488   7.757   2.812  1.6923 -1.2620 -0.8344
  578MOL0     H77996   4.487   8.207   2.824  2.2472  0.5691 -1.6552
  578MOL0     H77997   4.509   8.128   2.669  0.0258  1.6051  0.0414
  578MOL0     H77998   4.344   8.268   2.654  2.0207  0.7245  2.1206
  578MOL0     H77999   4.257   8.107   2.662  3.4593 -1.7839 -1.2796
  578MOL0     H78000   4.243   8.339   2.859  1.5290  0.0799 -1.2250
  578MOL0     H78001   4.256   8.188   2.936 -0.6518  0.7665  0.1793
  578MOL0     H78002   4.038   8.296   2.731 -0.7069  1.4103  1.8829
  578MOL0     H78003   4.035   8.138   2.791  0.8648 -0.0211 -3.9582
  578MOL0     H78004   4.010   8.202   3.011 -0.5229 -1.0626 -0.1757
  578MOL0     H78005   3.878   8.253   2.913  0.6659  0.0437 -1.0200
  578MOL0     H78006   4.089   8.460   2.981  0.6534  0.5044  2.4256
  578MOL0     H78007   3.926   8.489   2.947  3.2391  3.0481  0.2335
  578MOL0     H78008   4.071   8.370   3.198 -0.1834 -1.8803  0.0931
  578MOL0     H78009   3.907   8.319   3.177 -1.7451  2.8641  1.1765
  578MOL0     H78010   3.989   8.617   3.209 -3.1268  2.2568  2.3420
  578MOL0     H78011   3.918   8.519   3.324 -0.6776  0.5106 -1.2929
  578MOL0     H78012   4.556   8.107   3.038 -1.4267 -0.0221  0.3440
  578MOL0     H78013   4.694   7.998   3.181 -2.0580 -0.7294  0.8661
  578MOL0     H78014   5.005   7.638   3.264  0.8814 -0.4575 -0.9264
  578MOL0     H78015   5.145   7.489   3.396 -0.0678  3.0055  0.7489
  578MOL0     H78016   4.338   8.131   4.117  2.5097 -0.0079  0.4113
  578MOL0     H78017   4.185   8.285   3.977  0.9935 -4.0383  1.5255
  578MOL0     H78018   3.960   8.633   3.941  1.1098  0.9661 -0.2083
  578MOL0     H78019   3.766   8.721   3.782 -1.7091  1.3958 -4.0810
  578MOL0     H78020   3.860   8.775   3.378 -1.0727 -1.1839 -0.6500
  578MOL0     H78021   3.691   8.839   3.381 -0.5323  0.0962  2.2523
  578MOL0     H78022   3.760   9.051   3.345  0.2420  0.5944  0.1671
  578MOL0     H78023   3.929   8.999   3.357 -1.0974  0.7850 -1.2964
  578MOL0     H78024   3.874   9.046   3.610  0.7942  2.3146 -0.1983
  578MOL0     H78025   3.716   9.109   3.562  0.6745  0.4717  2.3099
  578MOL0     H78026   3.872   9.298   3.587  0.0519  5.1859 -4.1112
  578MOL0     H78027   3.851   9.280   3.423  0.1711 -1.9736 -1.5210
  578MOL0     H78028   4.264   9.195   3.474  0.4362 -0.2672  1.8118
  578MOL0     H78029   4.064   8.826   3.493 -1.5316  1.0785  0.7242
  578MOL0     H78030   4.239   8.744   3.633 -0.2567  1.1622  0.2057
  579MOL0     O78031   1.222   1.438   1.414  0.5077 -0.2643  0.8679
  579MOL0     C78032   1.185   1.371   1.511  1.6087 -0.0124  0.5499
  579MOL0     O78033   1.088   1.280   1.504  0.2572 -0.1037 -0.0389
  579MOL0     C78034   1.034   1.221   1.385  0.5576 -0.4499 -0.0073
  579MOL0     C78035   0.920   1.136   1.393 -0.1438 -0.1315  0.1274
  579MOL0     C78036   0.845   1.098   1.284 -0.8751 -0.9311  1.1001
  579MOL0     C78037   0.876   1.133   1.153 -0.5423  0.3483 -0.0140
  579MOL0     O78038   0.791   1.093   1.054  0.5246 -0.2895  0.6128
  579MOL0     C78039   0.824   1.109   0.907  0.4070  0.1497 -0.0714
  579MOL0     C78040   0.690   1.070   0.843 -0.4756 -0.3906  0.0164
  579MOL0     C78041   0.688   1.033   0.694 -0.2820  0.8713 -0.6951
  579MOL0     C78042   0.750   0.896   0.658 -0.4968  0.4440 -0.3827
  579MOL0     C78043   0.772   0.864   0.509 -0.1620  0.2245 -0.1747
  579MOL0     C78044   0.768   0.706   0.501 -0.0520 -0.9276  0.2468
  579MOL0     C78045   0.872   0.656   0.390 -0.6258 -0.0351 -0.0810
  579MOL0     C78046   1.016   0.646   0.420  0.4865  0.3917  0.3103
  579MOL0     N78047   1.048   0.514   0.468 -0.3240  0.7383  0.0579
  579MOL0     C78048   1.133   0.425   0.413  0.0191  0.2343 -0.8865
  579MOL0     C78049   1.127   0.311   0.494  0.1653 -0.4859  0.1452
  579MOL0     C78050   1.217   0.188   0.483  0.6766 -0.1428  0.0719
  579MOL0     C78051   1.357   0.227   0.521  0.2879 -0.1395  0.8611
  579MOL0     C78052   1.368   0.298   0.654 -1.6613  0.0547 -0.6578
  579MOL0     C78053   1.341   0.209   0.774 -0.4091 -0.3726  0.6016
  579MOL0     O78054   1.436   0.106   0.791  0.2938  0.3798 -1.2632
  579MOL0     C78055   1.564   0.134   0.845 -0.1961 -0.1881  0.7730
  579MOL0     C78056   1.603   0.270   0.878  0.1098 -0.6723  0.1249
  579MOL0     C78057   1.736   0.304   0.929 -0.1547 -0.4271 -0.4189
  579MOL0     C78058   1.752   0.451   0.964  0.5799 -0.3027 -0.3702
  579MOL0     C78059   1.819   0.199   0.955 -0.4301 -0.3901  0.7740
  579MOL0     C78060   1.957   0.219   1.010  0.4554  0.3612 -0.4309
  579MOL0     O78061   2.052   0.135   0.973 -0.7433 -0.2930 -0.3737
  579MOL0     C78062   2.185   0.169   1.009  1.6925  0.0948 -0.0436
  579MOL0     C78063   2.234   0.187   1.144 -0.2629  0.7100  0.1098
  579MOL0     C78064   2.357   0.228   1.168 -0.5084  0.0563 -0.6496
  579MOL0     C78065   2.447   0.243   1.054 -0.3718 -0.5007  0.3402
  579MOL0     O78066   2.585   0.260   1.077 -0.1590 -0.7104 -0.0576
  579MOL0     C78067   2.628   0.371   1.163  0.2451  0.2664 -0.1460
  579MOL0     C78068   2.732   0.332   1.271  0.4552 -0.4834  0.2482
  579MOL0     C78069   2.663   0.255   1.379  0.0958  0.9427  0.6138
  579MOL0     C78070   2.567   0.336   1.470 -0.4253 -0.0636  0.3929
  579MOL0     C78071   2.511   0.244   1.579  0.2880  0.4272 -0.1305
  579MOL0     C78072   2.427   0.315   1.689 -0.2016  0.2876 -0.3365
  579MOL0     C78073   2.502   0.436   1.758  0.3034  0.9893 -0.5697
  579MOL0     C78074   2.465   0.455   1.899 -0.4721  0.4825 -0.9528
  579MOL0    Cl78075   2.303   0.525   1.930 -0.0606 -0.1850 -0.2519
  579MOL0     C78076   2.403   0.233   0.932  1.3387  1.1672  0.1647
  579MOL0     C78077   2.273   0.186   0.910 -0.7614  0.1355  1.0575
  579MOL0     O78078   1.973   0.311   1.092  0.1637 -0.6258 -0.0362
  579MOL0     C78079   1.779   0.062   0.919 -0.3104 -0.3999  0.1647
  579MOL0     C78080   1.654   0.034   0.862 -0.2450  0.4457  0.6870
  579MOL0     N78081   1.036   0.334   0.591  0.4848 -0.3583  0.2786
  579MOL0     N78082   0.997   0.461   0.581  0.3742  0.7157  0.4299
  579MOL0     C78083   0.999   1.204   1.142 -0.6290 -0.7226 -0.4491
  579MOL0     C78084   1.075   1.237   1.250 -0.1839 -0.0633  0.1381
  579MOL0     C78085   1.247   1.395   1.638 -0.4437  0.1675  0.1041
  579MOL0     C78086   1.216   1.319   1.747 -0.6056  1.1041  0.3930
  579MOL0     C78087   1.274   1.337   1.870 -0.5787 -0.3064  0.0147
  579MOL0     C78088   1.376   1.440   1.883  0.0586  0.4777 -0.8135
  579MOL0     O78089   1.438   1.467   1.999 -0.5266  0.1770 -0.3048
  579MOL0     C78090   1.447   1.357   2.088  0.0331 -1.0194  0.6097
  579MOL0     C78091   1.370   1.381   2.225  0.2842 -0.4093 -0.1921
  579MOL0     C78092   1.418   1.494   2.316 -0.8541  0.3745 -0.2506
  579MOL0     C78093   1.319   1.530   2.439  0.5659 -0.2602 -0.1348
  579MOL0     C78094   1.336   1.417   2.541  0.4989 -0.1863  0.3948
  579MOL0     C78095   1.322   1.319   2.606 -0.5686  0.1211  0.6431
  579MOL0     C78096   1.397   1.519   1.774 -0.7975  0.0257  0.8040
  579MOL0     C78097   1.340   1.500   1.655  0.7558  0.0202 -0.4266
  579MOL0     H78098   0.871   1.110   1.487  0.4671 -2.3135 -0.1006
  579MOL0     H78099   0.754   1.038   1.287 -1.0674 -0.8323 -0.9342
  579MOL0     H78100   0.845   1.215   0.886 -0.7660  1.0540  2.8440
  579MOL0     H78101   0.912   1.046   0.889 -2.3598 -4.0268 -0.3517
  579MOL0     H78102   0.655   0.985   0.902  2.2991  0.2161  2.7650
  579MOL0     H78103   0.623   1.156   0.845  1.5296  1.3839 -2.4072
  579MOL0     H78104   0.582   1.019   0.668 -1.3341  0.3926  3.2232
  579MOL0     H78105   0.740   1.113   0.640 -0.1852  1.2996  0.0248
  579MOL0     H78106   0.842   0.877   0.715  0.4002  1.5146 -1.4113
  579MOL0     H78107   0.679   0.825   0.701  1.4227  0.6377  3.6509
  579MOL0     H78108   0.688   0.915   0.461 -2.8951 -1.2861  2.6674
  579MOL0     H78109   0.871   0.903   0.481  0.5981 -0.5944  1.2735
  579MOL0     H78110   0.791   0.671   0.602 -5.2775  2.0525  2.9161
  579MOL0     H78111   0.663   0.682   0.480 -0.4715  0.9418  0.0750
  579MOL0     H78112   0.842   0.561   0.346 -0.4488 -1.5974  2.9157
  579MOL0     H78113   0.868   0.728   0.308 -0.9102  1.1554  0.9441
  579MOL0     H78114   1.047   0.723   0.491  2.2117 -0.2707  0.3244
  579MOL0     H78115   1.076   0.657   0.329 -0.2522  3.0244  0.0827
  579MOL0     H78116   1.200   0.433   0.328  1.5352  1.2682  0.3309
  579MOL0     H78117   1.172   0.114   0.549 -1.1365 -0.4104 -1.3830
  579MOL0     H78118   1.235   0.156   0.380 -0.9854  1.3974 -0.7383
  579MOL0     H78119   1.400   0.295   0.446 -2.6704  2.1119  1.0151
  579MOL0     H78120   1.413   0.133   0.527  1.0443  0.2565  0.1779
  579MOL0     H78121   1.312   0.392   0.650 -0.8876  0.6459  1.2464
  579MOL0     H78122   1.472   0.325   0.674 -1.4570 -0.9928 -0.2435
  579MOL0     H78123   1.241   0.166   0.761 -0.1318 -0.9422  0.3208
  579MOL0     H78124   1.322   0.274   0.860 -1.2958  0.9747 -0.5525
  579MOL0     H78125   1.531   0.351   0.882  0.1974 -0.6203  0.6936
  579MOL0     H78126   1.714   0.508   0.879  1.0126  2.0284  0.9010
  579MOL0     H78127   1.682   0.471   1.045 -1.5926 -1.9988 -1.7244
  579MOL0     H78128   1.854   0.482   0.989  0.0959 -0.7491  2.4612
  579MOL0     H78129   2.173   0.172   1.232  0.0995  3.0863  0.8604
  579MOL0     H78130   2.384   0.241   1.273 -3.4111 -0.3837  0.2362
  579MOL0     H78131   2.686   0.432   1.093  1.1603  0.3927  0.6949
  579MOL0     H78132   2.548   0.435   1.200  1.1520  1.0197  0.5666
  579MOL0     H78133   2.813   0.275   1.224  0.8468  0.7247 -0.5875
  579MOL0     H78134   2.765   0.424   1.320 -0.4267 -0.0952  0.1208
  579MOL0     H78135   2.735   0.196   1.438  0.2989  1.4692  0.8956
  579MOL0     H78136   2.601   0.184   1.323  0.4215  3.5436 -3.4963
  579MOL0     H78137   2.624   0.417   1.517 -0.3140 -0.6680  1.3097
  579MOL0     H78138   2.489   0.378   1.404  1.0016  2.4890  0.2081
  579MOL0     H78139   2.598   0.196   1.624  0.7953  0.1428 -1.3573
  579MOL0     H78140   2.447   0.177   1.521 -0.7860  1.2726  0.0473
  579MOL0     H78141   2.340   0.359   1.639  0.7156  1.2615 -1.0955
  579MOL0     H78142   2.390   0.243   1.763 -2.1351  1.2549 -0.2994
  579MOL0     H78143   2.495   0.537   1.717  1.6477  2.0856  1.7035
  579MOL0     H78144   2.610   0.415   1.755  0.6342  2.6588 -1.6189
  579MOL0     H78145   2.534   0.528   1.942 -1.8511  2.4205 -1.9055
  579MOL0     H78146   2.471   0.363   1.959 -2.3742  0.5680 -0.5950
  579MOL0     H78147   2.459   0.260   0.843  3.9053 -1.1125  0.9576
  579MOL0     H78148   2.236   0.167   0.810  1.1674 -1.1229  0.5362
  579MOL0     H78149   1.848  -0.021   0.932  0.2473 -0.1691 -1.1359
  579MOL0     H78150   1.633  -0.071   0.844 -2.8683  1.2208 -1.4615
  579MOL0     H78151   1.035   1.244   1.048  1.0159 -1.5433 -0.1941
  579MOL0     H78152   1.175   1.278   1.240 -0.9696  1.9457  0.1435
  579MOL0     H78153   1.153   1.231   1.733  2.2857 -0.9929 -0.3693
  579MOL0     H78154   1.237   1.288   1.960  3.1024  0.1428  1.9945
  579MOL0     H78155   1.420   1.260   2.043 -0.4157 -0.5844 -0.0860
  579MOL0     H78156   1.556   1.359   2.097  0.1363  3.5594  0.5026
  579MOL0     H78157   1.379   1.296   2.293  1.0453 -3.3646 -3.6326
  579MOL0     H78158   1.263   1.390   2.202  0.5685 -0.2757 -1.5879
  579MOL0     H78159   1.423   1.585   2.255 -2.1552 -1.0650 -2.7203
  579MOL0     H78160   1.514   1.469   2.359 -0.6646 -1.4012 -1.5890
  579MOL0     H78161   1.212   1.541   2.417  0.3292 -0.2208  0.9605
  579MOL0     H78162   1.353   1.625   2.481 -0.2710 -0.2920  0.6519
  579MOL0     H78163   1.306   1.235   2.670  0.1428 -0.7795 -0.3442
  579MOL0     H78164   1.484   1.582   1.788  0.3584 -1.5075  0.7000
  579MOL0     H78165   1.371   1.572   1.581  1.7708  0.3358  0.2845
  580MOL0     O78166   9.350   0.289   3.542  0.0623  0.5254 -0.1140
  580MOL0     C78167   9.287   0.344   3.633  0.1018 -0.3942  0.2446
  580MOL0     O78168   9.332   0.349   3.761  0.0483 -0.4063  0.4103
  580MOL0     C78169   9.454   0.299   3.785 -0.7466  0.7767 -0.9962
  580MOL0     C78170   9.555   0.388   3.811  0.3537  0.4154 -0.0559
  580MOL0     C78171   9.678   0.329   3.849 -0.7839  0.3922  1.0698
  580MOL0     C78172   9.704   0.190   3.860  0.5638  0.0462 -0.8685
  580MOL0     O78173   9.821   0.135   3.907  0.1714 -0.7083  0.1450
  580MOL0     C78174   9.925   0.209   3.976 -0.1674 -0.1685  0.0606
  580MOL0     C78175  10.021   0.108   4.042 -0.5405  0.9855 -1.2175
  580MOL0     C78176  10.147   0.173   4.085  0.6063  0.6630  0.0190
  580MOL0     C78177  10.139   0.225   4.226  0.7387 -0.1328  0.2993
  580MOL0     C78178  10.261   0.299   4.270 -0.4848 -0.2999 -0.0213
  580MOL0     C78179  10.283   0.277   4.417  0.0815  0.1737 -0.0699
  580MOL0     C78180  10.395   0.368   4.470  0.3904  0.4403 -0.6452
  580MOL0     C78181  10.409   0.328   4.621 -0.1242  0.1873  0.5446
  580MOL0     N78182  10.495   0.417   4.707  0.3626 -0.7029 -0.4741
  580MOL0     C78183  10.483   0.554   4.735  0.3310  0.4014  0.3483
  580MOL0     C78184  10.577   0.581   4.821 -0.4092 -0.6279  0.1178
  580MOL0     C78185  10.620   0.725   4.865 -0.3768 -0.2647 -0.2570
  580MOL0     C78186  10.515   0.774   4.973 -0.2296  0.4574 -0.6460
  580MOL0     C78187  10.384   0.834   4.933  0.7776  0.1286  0.2775
  580MOL0     C78188  10.307   0.883   5.055  0.7612 -0.2970 -0.2717
  580MOL0     O78189  10.390   0.995   5.109 -0.2922  0.0786 -0.6359
  580MOL0     C78190  10.351   1.087   5.214 -0.1200 -0.9405 -0.0438
  580MOL0     C78191  10.220   1.094   5.267  0.0599  0.0302 -1.2918
  580MOL0     C78192  10.180   1.199   5.358  0.4491  0.8802 -0.6506
  580MOL0     C78193  10.039   1.183   5.409  0.1057 -0.0009 -0.1626
  580MOL0     C78194  10.271   1.300   5.384 -0.2222  0.7752  0.4009
  580MOL0     C78195  10.235   1.424   5.452 -0.7200  0.4094 -0.3896
  580MOL0     O78196  10.332   1.486   5.520 -0.7524  0.5775 -0.1589
  580MOL0     C78197  10.312   1.613   5.570  0.0378 -0.3810  0.2217
  580MOL0     C78198  10.233   1.713   5.515 -0.4547  0.3547 -0.0545
  580MOL0     C78199  10.228   1.847   5.572  0.6473 -1.0982  0.2068
  580MOL0     C78200  10.290   1.876   5.700 -0.3298  0.5235 -0.4786
  580MOL0     O78201  10.283   2.000   5.756 -0.8116  0.0001  0.5555
  580MOL0     C78202  10.271   2.010   5.898  0.0088  0.1682  0.6739
  580MOL0     C78203  10.397   2.075   5.950 -0.1235 -1.0311 -0.2481
  580MOL0     C78204  10.438   2.203   5.880  0.3046 -0.7435  0.6593
  580MOL0     C78205  10.558   2.279   5.942  0.8252  0.2685  0.4241
  580MOL0     C78206  10.606   2.396   5.843 -0.7960  0.2216  0.0024
  580MOL0     C78207  10.496   2.504   5.805 -0.3166 -0.3293 -0.4351
  580MOL0     C78208  10.468   2.569   5.936  0.3850  0.6974  0.5661
  580MOL0     C78209  10.409   2.705   5.912  0.3458  0.3056 -0.1185
  580MOL0    Cl78210  10.254   2.664   5.832  0.0399 -0.0340 -0.6451
  580MOL0     C78211  10.378   1.779   5.750  0.4934  0.5040  0.1208
  580MOL0     C78212  10.392   1.656   5.683 -0.9018 -0.7669  0.3446
  580MOL0     O78213  10.120   1.460   5.443 -0.9124 -1.2773 -0.5185
  580MOL0     C78214  10.404   1.287   5.337  0.2014 -0.3855  0.5608
  580MOL0     C78215  10.442   1.179   5.263  1.0415 -0.4732 -0.0562
  580MOL0     N78216  10.647   0.467   4.859  0.3235  0.3158 -0.6218
  580MOL0     N78217  10.590   0.374   4.798 -0.3443  1.3870  0.4631
  580MOL0     C78218   9.601   0.105   3.830  0.5654  0.7629  0.1339
  580MOL0     C78219   9.472   0.161   3.801  0.9713 -0.1763 -0.4135
  580MOL0     C78220   9.156   0.417   3.615  0.0965 -0.2659  0.7070
  580MOL0     C78221   9.092   0.479   3.719 -0.1868 -0.1770 -0.1010
  580MOL0     C78222   8.977   0.554   3.696  0.4724  0.4521  0.1262
  580MOL0     C78223   8.913   0.541   3.569  0.4469 -0.5469 -0.0613
  580MOL0     O78224   8.785   0.592   3.543  0.4268 -0.9048  0.6043
  580MOL0     C78225   8.688   0.620   3.639 -0.7683  0.0405 -0.7574
  580MOL0     C78226   8.615   0.505   3.713  0.7877 -0.0613  0.4174
  580MOL0     C78227   8.543   0.574   3.836 -0.2799  0.5987  0.5627
  580MOL0     C78228   8.408   0.512   3.878 -0.0639  0.3865  0.1531
  580MOL0     C78229   8.287   0.517   3.786  0.5668  0.3438 -0.0379
  580MOL0     C78230   8.186   0.531   3.724 -0.1256  0.2447 -0.0758
  580MOL0     C78231   8.971   0.469   3.471 -0.5862  0.7447 -0.1565
  580MOL0     C78232   9.099   0.410   3.487 -0.1712  0.3748  0.5737
  580MOL0     H78233   9.551   0.497   3.814  0.0569  0.5852 -3.2103
  580MOL0     H78234   9.742   0.416   3.853 -1.4976  1.2074 -2.1874
  580MOL0     H78235   9.968   0.264   3.892 -0.8206 -2.5379 -1.9530
  580MOL0     H78236   9.878   0.281   4.043 -3.9257 -0.4681 -1.9916
  580MOL0     H78237   9.984   0.044   4.122 -1.8623  1.1135 -1.7033
  580MOL0     H78238  10.042   0.033   3.964  1.0467 -0.7872  0.7985
  580MOL0     H78239  10.213   0.088   4.101 -0.4913  0.0194  1.3831
  580MOL0     H78240  10.188   0.238   4.007 -0.3046 -0.6632 -1.6316
  580MOL0     H78241  10.051   0.291   4.234  0.9780  0.0609  1.5006
  580MOL0     H78242  10.112   0.145   4.295 -1.1455  0.8896  0.8416
  580MOL0     H78243  10.349   0.263   4.215  0.1484 -0.0811  0.8314
  580MOL0     H78244  10.241   0.400   4.234 -1.0821  0.1419  1.4890
  580MOL0     H78245  10.196   0.295   4.482  0.6191  0.3859  0.6011
  580MOL0     H78246  10.299   0.169   4.430 -1.1761  0.1298  1.5212
  580MOL0     H78247  10.483   0.333   4.415  0.4574 -1.8395  0.7807
  580MOL0     H78248  10.387   0.477   4.467  1.2260  0.5364  0.1897
  580MOL0     H78249  10.453   0.228   4.625 -1.6638 -0.5149  0.3315
  580MOL0     H78250  10.314   0.331   4.673 -0.1034  0.4839  0.5698
  580MOL0     H78251  10.415   0.625   4.688 -0.1519 -2.1571 -3.3012
  580MOL0     H78252  10.720   0.716   4.908 -0.7060 -3.6081  0.0778
  580MOL0     H78253  10.621   0.786   4.775  0.5691 -2.3730 -1.7595
  580MOL0     H78254  10.575   0.846   5.031 -0.0266  1.3452 -1.9219
  580MOL0     H78255  10.499   0.684   5.033 -0.7643 -0.1158 -1.6344
  580MOL0     H78256  10.320   0.760   4.884  1.2886 -0.3427  0.3069
  580MOL0     H78257  10.388   0.904   4.850  2.5358 -1.6823 -1.2705
  580MOL0     H78258  10.290   0.806   5.131  1.5379  1.9262  2.3264
  580MOL0     H78259  10.207   0.911   5.022 -0.4095 -0.9647  2.4151
  580MOL0     H78260  10.148   1.014   5.256  0.2182 -0.3172  0.0987
  580MOL0     H78261   9.979   1.128   5.336 -1.6568  2.1375 -0.4274
  580MOL0     H78262  10.034   1.138   5.509 -0.2570 -3.6031 -1.6610
  580MOL0     H78263   9.989   1.280   5.413  1.6969  0.8261  2.6599
  580MOL0     H78264  10.173   1.686   5.428 -2.1311 -1.6828  1.6258
  580MOL0     H78265  10.153   1.905   5.519 -1.1727 -2.6326  0.9947
  580MOL0     H78266  10.178   2.064   5.917 -1.1141 -0.8425 -1.5174
  580MOL0     H78267  10.259   1.910   5.941 -0.3590  0.2610  0.7910
  580MOL0     H78268  10.386   2.098   6.056 -1.1841 -1.5643 -0.2373
  580MOL0     H78269  10.473   1.997   5.939 -0.8017 -1.8771  0.9116
  580MOL0     H78270  10.352   2.268   5.862  0.4301 -0.3856  1.3178
  580MOL0     H78271  10.454   2.171   5.776 -1.2635  1.6788 -0.4205
  580MOL0     H78272  10.527   2.323   6.038 -0.1360 -0.0998  0.2895
  580MOL0     H78273  10.636   2.203   5.953  0.4852  0.1273  2.1682
  580MOL0     H78274  10.640   2.351   5.749  0.3376 -1.8790  1.3392
  580MOL0     H78275  10.685   2.461   5.881  0.0549 -0.1084 -1.1139
  580MOL0     H78276  10.551   2.573   5.739  1.9023 -1.9493 -0.3955
  580MOL0     H78277  10.418   2.456   5.746  1.7462 -1.6141 -2.2810
  580MOL0     H78278  10.555   2.577   6.001 -0.5130 -0.4253  1.9634
  580MOL0     H78279  10.402   2.506   5.996  0.3852  0.2413  0.0926
  580MOL0     H78280  10.469   2.769   5.847 -3.7265  3.4797 -1.2413
  580MOL0     H78281  10.390   2.770   5.998 -1.1697  1.0925 -0.9863
  580MOL0     H78282  10.464   1.809   5.809  0.9752  1.3397 -0.9622
  580MOL0     H78283  10.477   1.593   5.707  1.0552  0.4945 -2.6002
  580MOL0     H78284  10.478   1.366   5.351  0.1829 -0.5231  1.4889
  580MOL0     H78285  10.545   1.182   5.229  1.8161  0.2693  2.1540
  580MOL0     H78286   9.614  -0.002   3.839  1.8748  0.8633 -0.3680
  580MOL0     H78287   9.391   0.091   3.781  0.6398  0.9675 -3.7306
  580MOL0     H78288   9.136   0.490   3.818 -3.7208  2.2323  1.4495
  580MOL0     H78289   8.920   0.599   3.777  2.7490  1.6236  1.1555
  580MOL0     H78290   8.738   0.675   3.720 -0.3778 -0.6421 -0.5172
  580MOL0     H78291   8.617   0.687   3.592  0.7153 -0.4946 -4.0198
  580MOL0     H78292   8.699   0.441   3.741  0.4314  0.1152  2.0043
  580MOL0     H78293   8.538   0.453   3.657 -1.2909  4.7088 -1.6782
  580MOL0     H78294   8.518   0.680   3.824 -0.4339  1.0458  3.8783
  580MOL0     H78295   8.615   0.570   3.917  1.4053 -0.2279 -0.9181
  580MOL0     H78296   8.369   0.568   3.964  0.4698 -2.0359  2.1159
  580MOL0     H78297   8.423   0.406   3.900 -3.2203 -0.3325 -0.5785
  580MOL0     H78298   8.098   0.558   3.668 -1.2183 -4.1510 -0.9198
  580MOL0     H78299   8.927   0.475   3.372 -1.1132  0.6245  0.0700
  580MOL0     H78300   9.137   0.354   3.402  0.4316 -1.2409  1.8472
  581MOL0     O78301   8.340  10.940   9.874 -1.4996 -0.9286  0.2554
  581MOL0     C78302   8.261  11.033   9.861 -0.4531 -0.0186  0.5474
  581MOL0     O78303   8.294  11.168   9.860 -0.8689 -1.1038  0.1660
  581MOL0     C78304   8.420  11.202   9.892 -0.0372  0.2668  0.2443
  581MOL0     C78305   8.501  11.241   9.790 -0.8531  0.3598 -0.7664
  581MOL0     C78306   8.643  11.267   9.817 -0.7939 -0.5288  0.2567
  581MOL0     C78307   8.681  11.272   9.955  0.1529  0.1921  0.4418
  581MOL0     O78308   8.795  11.332   9.998  0.3785 -0.1653 -0.0047
  581MOL0     C78309   8.866  11.425   9.911 -0.2723 -0.1689 -0.3497
  581MOL0     C78310   8.934  11.529   9.995 -0.9535 -0.3014 -0.3346
  581MOL0     C78311   9.078  11.487  10.031 -0.2464  0.5208  0.5043
  581MOL0     C78312   9.136  11.588  10.125 -0.4871 -0.0071  0.6174
  581MOL0     C78313   9.259  11.535  10.212  0.2703  0.7885  0.4276
  581MOL0     C78314   9.221  11.463  10.337 -0.7024  0.8142  0.2674
  581MOL0     C78315   9.338  11.473  10.432 -0.4697 -0.0422  1.0175
  581MOL0     C78316   9.308  11.427  10.580  0.3509  0.9660  0.1980
  581MOL0     N78317   9.428  11.439  10.664 -0.3218 -0.0102  1.1174
  581MOL0     C78318   9.557  11.398  10.635 -0.1530  0.2293 -0.5581
  581MOL0     C78319   9.631  11.418  10.743 -0.3357 -0.5860 -0.1694
  581MOL0     C78320   9.771  11.365  10.761  0.3667  0.4109 -0.1285
  581MOL0     C78321   9.762  11.208  10.761  0.9886 -0.6572  0.7182
  581MOL0     C78322   9.883  11.140  10.692 -0.2015 -0.5415 -0.4683
  581MOL0     C78323   9.867  10.987  10.660 -0.0634 -0.5388  0.4021
  581MOL0     O78324   9.783  10.921  10.755 -0.0726 -0.1382  0.2864
  581MOL0     C78325   9.701  10.821  10.719 -0.3503 -0.2909 -0.2178
  581MOL0     C78326   9.721  10.754  10.602 -0.3103 -0.2188  0.0013
  581MOL0     C78327   9.622  10.671  10.556 -0.8002 -0.2826 -0.8110
  581MOL0     C78328   9.645  10.611  10.423 -0.6236  0.0373  0.7523
  581MOL0     C78329   9.504  10.651  10.635  1.2967  0.4828  0.2938
  581MOL0     C78330   9.392  10.559  10.599 -0.5587 -0.6693 -0.9166
  581MOL0     O78331   9.358  10.545  10.469 -0.3467 -0.1073  0.0902
  581MOL0     C78332   9.237  10.486  10.459 -0.1726 -0.9051 -0.3019
  581MOL0     C78333   9.118  10.555  10.416 -0.2712  0.1576  0.1787
  581MOL0     C78334   9.008  10.482  10.371  0.0330 -0.2677  0.2244
  581MOL0     C78335   9.002  10.343  10.390 -0.0141 -0.0614 -0.1072
  581MOL0     O78336   8.885  10.272  10.370  0.8646 -0.8577  0.3924
  581MOL0     C78337   8.767  10.354  10.351 -0.4939  0.2034 -0.7523
  581MOL0     C78338   8.650  10.263  10.321 -0.4959 -0.0224  0.0044
  581MOL0     C78339   8.540  10.345  10.252 -1.4014 -0.4738 -0.6320
  581MOL0     C78340   8.434  10.250  10.205  0.8782 -0.5629  0.7496
  581MOL0     C78341   8.332  10.308  10.113  0.7440 -0.1784 -0.1185
  581MOL0     C78342   8.222  10.384  10.187 -0.4139 -0.3863  0.0791
  581MOL0     C78343   8.118  10.446  10.099 -0.0470 -0.6940  0.7308
  581MOL0     C78344   8.114  10.601  10.111 -0.2179  1.0825  0.3956
  581MOL0    Cl78345   8.050  10.651  10.273  0.4420  0.1904 -0.1602
  581MOL0     C78346   9.111  10.278  10.436 -0.5734 -0.3902  0.5050
  581MOL0     C78347   9.232  10.341  10.469  0.9397 -0.9524 -0.4306
  581MOL0     O78348   9.332  10.501  10.699  0.2724  0.0042 -0.1894
  581MOL0     C78349   9.496  10.706  10.768 -0.2071  0.7224 -0.0698
  581MOL0     C78350   9.586  10.805  10.800  0.0972  1.1794 -0.8403
  581MOL0     N78351   9.550  11.494  10.834  0.9472  1.0585  0.6220
  581MOL0     N78352   9.433  11.500  10.785  0.0456  0.2210 -0.5211
  581MOL0     C78353   8.591  11.218  10.058 -0.9904  0.2462  0.2296
  581MOL0     C78354   8.461  11.183  10.021  1.4353 -0.8936 -0.1763
  581MOL0     C78355   8.122  11.007   9.813  0.1741  0.4510  0.2690
  581MOL0     C78356   8.055  10.885   9.840 -0.1056  0.5585  0.2306
  581MOL0     C78357   7.917  10.885   9.819 -0.1317  0.3949  0.3133
  581MOL0     C78358   7.841  10.987   9.771  0.2606 -1.2004  0.4975
  581MOL0     O78359   7.707  10.959   9.765  0.2641  0.4108  0.2619
  581MOL0     C78360   7.634  10.991   9.643 -0.4642  0.4556  0.1374
  581MOL0     C78361   7.501  11.066   9.672 -0.7843 -0.0656  0.1086
  581MOL0     C78362   7.523  11.211   9.696 -0.5961 -0.7244 -0.2093
  581MOL0     C78363   7.407  11.292   9.640  0.6542 -0.0058 -0.0875
  581MOL0     C78364   7.418  11.439   9.672  0.3014 -0.7462  0.3011
  581MOL0     C78365   7.422  11.562   9.690 -1.0886 -0.1784  0.3647
  581MOL0     C78366   7.902  11.110   9.734  0.0916  0.7993 -0.1666
  581MOL0     C78367   8.044  11.116   9.753 -0.1427 -0.0585  0.1800
  581MOL0     H78368   8.458  11.234   9.691 -0.6647 -2.2440 -0.7364
  581MOL0     H78369   8.708  11.310   9.741 -1.6145  1.5655  0.6535
  581MOL0     H78370   8.942  11.364   9.863  1.5631  3.3185 -2.2078
  581MOL0     H78371   8.794  11.487   9.856 -1.4424  0.1212  1.4121
  581MOL0     H78372   8.946  11.625   9.944  1.7470 -0.0759  0.5496
  581MOL0     H78373   8.892  11.533  10.096 -1.2055 -0.1941 -0.4427
  581MOL0     H78374   9.089  11.384  10.064  1.0681 -0.3282 -2.2528
  581MOL0     H78375   9.132  11.482   9.936  2.0210 -3.1279  1.7854
  581MOL0     H78376   9.180  11.662  10.057 -3.4455 -0.0911 -1.5618
  581MOL0     H78377   9.069  11.625  10.204 -1.9429 -2.9414  0.8792
  581MOL0     H78378   9.323  11.473  10.149 -0.6774  2.0638 -1.9030
  581MOL0     H78379   9.321  11.619  10.245  1.6850 -0.8491  2.2389
  581MOL0     H78380   9.135  11.517  10.378 -0.6847  0.7517  0.3872
  581MOL0     H78381   9.198  11.358  10.320  4.4812 -0.1328 -3.2811
  581MOL0     H78382   9.416  11.405  10.396 -2.9243 -1.8438 -1.2494
  581MOL0     H78383   9.374  11.576  10.439 -2.0950  0.5893  0.5231
  581MOL0     H78384   9.271  11.324  10.583 -0.3431  0.9838 -3.3338
  581MOL0     H78385   9.227  11.488  10.620 -0.6282  0.0241 -0.2980
  581MOL0     H78386   9.584  11.360  10.536  0.2357  0.3077 -0.4815
  581MOL0     H78387   9.836  11.392  10.677 -1.8682  0.1302 -2.0297
  581MOL0     H78388   9.829  11.407  10.844  2.8136 -2.2287 -0.3395
  581MOL0     H78389   9.668  11.183  10.710  1.2555  1.1514 -0.7469
  581MOL0     H78390   9.761  11.171  10.864 -0.0064  2.5140  1.9705
  581MOL0     H78391   9.976  11.155  10.749 -0.7150 -0.4664  0.3711
  581MOL0     H78392   9.902  11.205  10.606  0.7497  2.3942  1.7488
  581MOL0     H78393   9.961  10.932  10.672 -0.0342 -0.6621 -0.3402
  581MOL0     H78394   9.838  10.973  10.555 -1.8128 -0.8883  0.9067
  581MOL0     H78395   9.809  10.765  10.540  0.5200 -0.3246  1.1363
  581MOL0     H78396   9.576  10.659  10.353 -0.9639  0.6019  1.4624
  581MOL0     H78397   9.750  10.609  10.393 -1.2852 -1.8822 -1.8668
  581MOL0     H78398   9.628  10.503  10.426 -1.0690  0.1050  0.7322
  581MOL0     H78399   9.119  10.659  10.385 -0.2605  0.3858  0.9271
  581MOL0     H78400   8.925  10.546  10.341 -0.3608 -1.1422 -0.5776
  581MOL0     H78401   8.742  10.407  10.443 -0.6623  0.1424 -0.7609
  581MOL0     H78402   8.785  10.431  10.275 -0.1622  1.9751  1.0566
  581MOL0     H78403   8.689  10.190  10.249 -2.5439 -0.5599 -0.6484
  581MOL0     H78404   8.606  10.223  10.413 -2.6495 -1.3665 -1.4916
  581MOL0     H78405   8.584  10.383  10.159 -0.2685 -2.8285 -1.1334
  581MOL0     H78406   8.494  10.418  10.320 -3.1121 -1.6529 -0.4605
  581MOL0     H78407   8.474  10.157  10.164 -1.4202 -1.2209 -0.1589
  581MOL0     H78408   8.385  10.225  10.300  0.6600  1.4130  1.2167
  581MOL0     H78409   8.289  10.234  10.045  2.0310 -0.8423 -0.2378
  581MOL0     H78410   8.381  10.366  10.033 -1.7781  2.1162 -0.1569
  581MOL0     H78411   8.163  10.328  10.260  0.5595 -1.0224  0.4137
  581MOL0     H78412   8.264  10.467  10.244  0.9208  0.6729 -2.2866
  581MOL0     H78413   8.016  10.417  10.124 -1.1549  1.2374 -1.2405
  581MOL0     H78414   8.146  10.426   9.996  1.3466 -2.7721  1.4561
  581MOL0     H78415   8.041  10.636  10.038 -0.5414  2.9021  1.5237
  581MOL0     H78416   8.210  10.640  10.074 -0.8244  2.4270  0.1713
  581MOL0     H78417   9.090  10.176  10.465  0.3706 -0.2006  1.9346
  581MOL0     H78418   9.326  10.296  10.501  2.1330  1.7771  0.1864
  581MOL0     H78419   9.412  10.680  10.832  0.6507 -1.2546  0.3283
  581MOL0     H78420   9.580  10.864  10.890  1.4325 -0.9696  0.7470
  581MOL0     H78421   8.615  11.229  10.163  1.2871 -0.7012 -0.1364
  581MOL0     H78422   8.382  11.157  10.090  0.5460  0.1869 -0.7682
  581MOL0     H78423   8.087  10.798   9.898 -2.0460 -0.2994  0.0896
  581MOL0     H78424   7.855  10.798   9.842 -0.3128  0.5078  0.2526
  581MOL0     H78425   7.695  11.067   9.592  4.4916 -2.4954  0.9879
  581MOL0     H78426   7.603  10.907   9.581  0.8108  1.0433 -1.3441
  581MOL0     H78427   7.453  11.016   9.757 -0.9210 -2.1438 -1.1034
  581MOL0     H78428   7.432  11.040   9.591 -0.4331 -3.7814  0.8141
  581MOL0     H78429   7.614  11.249   9.649 -1.8081  1.3835 -1.0173
  581MOL0     H78430   7.533  11.226   9.804  0.7783  0.8631 -0.5095
  581MOL0     H78431   7.312  11.271   9.690 -1.6963  1.2143 -3.6599
  581MOL0     H78432   7.380  11.274   9.535 -1.1623  2.4939 -0.1347
  581MOL0     H78433   7.412  11.668   9.700 -5.1727 -0.3151 -0.5123
  581MOL0     H78434   7.869  11.202   9.685  2.1839  0.7784 -1.7529
  581MOL0     H78435   8.091  11.208   9.721  1.8365 -0.8678  0.5795
  582MOL0     O78436   4.186   2.571  10.100 -0.1895  0.1869  0.3239
  582MOL0     C78437   4.188   2.566  10.219 -0.2560 -0.5627  0.0042
  582MOL0     O78438   4.292   2.550  10.292 -0.0212 -0.0527  0.3297
  582MOL0     C78439   4.415   2.573  10.230  1.1530  0.2697 -0.0927
  582MOL0     C78440   4.450   2.678  10.148  0.7706 -0.1390 -0.1714
  582MOL0     C78441   4.588   2.699  10.122 -0.8214  0.9563 -0.0166
  582MOL0     C78442   4.688   2.612  10.170 -0.3789 -0.1682 -0.0731
  582MOL0     O78443   4.819   2.656  10.163 -0.1541 -0.2498 -0.3181
  582MOL0     C78444   4.874   2.670  10.031 -0.5092 -0.5448  0.0359
  582MOL0     C78445   5.022   2.657  10.028  1.3396 -0.4236 -1.0133
  582MOL0     C78446   5.094   2.733  10.138  0.9281  0.1046  0.4478
  582MOL0     C78447   5.241   2.707  10.123 -0.2771  0.0828  0.2221
  582MOL0     C78448   5.322   2.805  10.206 -0.5124 -0.2296 -0.6355
  582MOL0     C78449   5.311   2.780  10.359 -0.3837  0.5454 -0.5985
  582MOL0     C78450   5.439   2.844  10.431  1.1615 -1.5583  0.1151
  582MOL0     C78451   5.401   2.881  10.580  0.0989  0.2568 -0.6324
  582MOL0     N78452   5.390   2.766  10.674 -1.2504 -1.3092  0.8749
  582MOL0     C78453   5.463   2.652  10.655  0.0127  0.3219  0.1720
  582MOL0     C78454   5.411   2.557  10.740  0.9440  0.0562 -0.8310
  582MOL0     C78455   5.460   2.414  10.757 -0.3241  0.9752 -0.6257
  582MOL0     C78456   5.510   2.371  10.901 -0.4366  0.6324 -0.0112
  582MOL0     C78457   5.550   2.222  10.901 -0.3018 -0.1833 -0.4387
  582MOL0     C78458   5.535   2.152  11.036  0.0096  0.0292 -0.8326
  582MOL0     O78459   5.659   2.150  11.101  0.0084  0.0250 -0.3201
  582MOL0     C78460   5.697   2.237  11.194 -0.7765 -0.3344  0.0699
  582MOL0     C78461   5.820   2.207  11.257  0.4443  0.8764  0.5719
  582MOL0     C78462   5.874   2.271  11.367  0.5660  0.4477 -0.1461
  582MOL0     C78463   6.004   2.217  11.416  0.0957  0.9842 -0.3161
  582MOL0     C78464   5.805   2.384  11.420 -0.1500 -1.2737 -0.3490
  582MOL0     C78465   5.858   2.463  11.537  0.4080  1.6523 -0.0894
  582MOL0     O78466   5.990   2.471  11.548  0.2672  0.5250  0.0683
  582MOL0     C78467   6.072   2.556  11.621  1.1159  0.0647 -0.5463
  582MOL0     C78468   6.204   2.558  11.593 -0.2229 -0.7672  1.1898
  582MOL0     C78469   6.285   2.660  11.649 -0.0713 -0.8170  0.2624
  582MOL0     C78470   6.243   2.747  11.747  0.3993 -0.0382 -0.0490
  582MOL0     O78471   6.313   2.847  11.809 -0.1586  0.1256  0.5163
  582MOL0     C78472   6.439   2.878  11.743 -0.0518 -0.5642 -0.3029
  582MOL0     C78473   6.485   3.024  11.766  1.1776 -0.1313 -0.1425
  582MOL0     C78474   6.543   3.047  11.910  0.0673 -0.1765 -0.4223
  582MOL0     C78475   6.590   3.193  11.940  0.2288  0.5870 -0.4062
  582MOL0     C78476   6.582   3.227  12.086 -0.5651 -0.3084  0.0620
  582MOL0     C78477   6.612   3.380  12.113  0.3219  0.4597 -0.3846
  582MOL0     C78478   6.616   3.387  12.265  0.1938 -0.5729 -0.8381
  582MOL0     C78479   6.654   3.521  12.319  0.4158 -0.5051 -0.3470
  582MOL0    Cl78480   6.815   3.509  12.398  0.3206  0.2044 -0.0858
  582MOL0     C78481   6.104   2.731  11.790 -0.7482  0.2520  0.4954
  582MOL0     C78482   6.017   2.632  11.726  0.5574 -0.2981 -0.1963
  582MOL0     O78483   5.770   2.515  11.603  0.2054  0.3006  0.5039
  582MOL0     C78484   5.684   2.428  11.358 -0.1905  0.4836 -0.1964
  582MOL0     C78485   5.626   2.356  11.244 -0.0613  0.2339 -0.2734
  582MOL0     N78486   5.316   2.622  10.817  0.1928  1.1350  0.6739
  582MOL0     N78487   5.305   2.745  10.783 -0.0784  0.1553  0.0743
  582MOL0     C78488   4.642   2.499  10.234  0.6778  0.2741  0.4151
  582MOL0     C78489   4.508   2.480  10.273 -0.1010 -0.2791 -0.4541
  582MOL0     C78490   4.062   2.586  10.292  0.3921 -0.3156  0.3474
  582MOL0     C78491   4.059   2.602  10.423  0.4312 -0.4090  0.3798
  582MOL0     C78492   3.948   2.634  10.497 -0.2599  0.2209  0.8501
  582MOL0     C78493   3.824   2.629  10.442  0.0138 -0.8463  0.1108
  582MOL0     O78494   3.726   2.690  10.523  0.1767  0.3863 -0.3659
  582MOL0     C78495   3.586   2.668  10.485  0.1417 -0.1493  0.1718
  582MOL0     C78496   3.540   2.520  10.458 -0.0433 -0.8956 -0.4101
  582MOL0     C78497   3.387   2.505  10.464 -1.0458 -0.0547  0.7776
  582MOL0     C78498   3.326   2.539  10.604 -0.2898 -0.7300 -0.2832
  582MOL0     C78499   3.179   2.556  10.592 -0.3466 -0.0278 -0.7022
  582MOL0     C78500   3.057   2.558  10.587  0.7471 -1.6337  0.6362
  582MOL0     C78501   3.817   2.607  10.308 -0.1933  0.0680  0.1082
  582MOL0     C78502   3.924   2.580  10.232 -0.7025  0.5779  0.0264
  582MOL0     H78503   4.379   2.757  10.128 -0.0106 -0.8041 -0.0572
  582MOL0     H78504   4.624   2.786  10.069 -1.3516  2.3416  1.7754
  582MOL0     H78505   4.840   2.582   9.975  1.2381 -1.4029  0.2409
  582MOL0     H78506   4.851   2.769   9.992  2.1662 -0.5435 -1.8369
  582MOL0     H78507   5.041   2.549  10.036  1.6691 -0.2714  0.4362
  582MOL0     H78508   5.051   2.689   9.927 -2.7128 -1.1608 -2.6181
  582MOL0     H78509   5.080   2.841  10.128  0.9558  0.4506  3.3889
  582MOL0     H78510   5.053   2.710  10.237  0.0515 -1.3420 -0.2115
  582MOL0     H78511   5.259   2.600  10.139 -0.8938 -0.4586 -2.3382
  582MOL0     H78512   5.274   2.720  10.020 -1.5622 -0.1735 -0.2411
  582MOL0     H78513   5.425   2.795  10.171  0.8327  0.8356  2.5746
  582MOL0     H78514   5.288   2.906  10.184  3.2524  1.1423 -0.9221
  582MOL0     H78515   5.220   2.833  10.391 -1.1615 -0.7288 -0.6635
  582MOL0     H78516   5.297   2.675  10.384  4.0865 -0.0960 -0.0779
  582MOL0     H78517   5.535   2.793  10.419  1.2882 -1.1187 -0.7987
  582MOL0     H78518   5.454   2.947  10.399  2.2839 -0.6775  3.1897
  582MOL0     H78519   5.313   2.945  10.591  1.0279  1.9641 -2.5135
  582MOL0     H78520   5.478   2.949  10.617 -0.9617  2.1255 -1.6892
  582MOL0     H78521   5.541   2.628  10.583  0.4189  2.6487 -0.2557
  582MOL0     H78522   5.377   2.349  10.726  1.1866 -0.9023 -0.9416
  582MOL0     H78523   5.542   2.386  10.690 -1.2631  1.4049 -1.9861
  582MOL0     H78524   5.428   2.380  10.973  0.6413 -1.1236  1.5401
  582MOL0     H78525   5.593   2.432  10.938  2.0828 -1.5978 -1.5924
  582MOL0     H78526   5.646   2.215  10.850 -0.9162  0.7217 -1.7839
  582MOL0     H78527   5.476   2.177  10.833 -0.4883  2.0615 -1.8486
  582MOL0     H78528   5.491   2.053  11.022 -0.0008  0.5414 -6.8663
  582MOL0     H78529   5.461   2.201  11.101 -0.0056 -2.2227  0.9761
  582MOL0     H78530   5.876   2.120  11.222  0.0450  0.6535  0.4765
  582MOL0     H78531   6.085   2.288  11.397  0.8838 -0.4136 -2.5978
  582MOL0     H78532   5.995   2.194  11.522  5.0558  1.9045  0.5320
  582MOL0     H78533   6.028   2.129  11.355 -2.5500  0.1847 -0.3364
  582MOL0     H78534   6.259   2.489  11.531  2.9465  2.1683  0.4384
  582MOL0     H78535   6.384   2.665  11.605 -0.9816  3.9559 -1.8421
  582MOL0     H78536   6.514   2.802  11.767 -1.7208 -2.1559  0.0921
  582MOL0     H78537   6.431   2.870  11.634 -0.8718 -1.7237 -0.1775
  582MOL0     H78538   6.567   3.041  11.695  1.2043  0.3532  0.0033
  582MOL0     H78539   6.400   3.091  11.753  1.4783  0.2307 -0.2739
  582MOL0     H78540   6.628   2.983  11.932  1.0673  2.0045  3.0346
  582MOL0     H78541   6.470   3.008  11.982 -0.6406 -1.6059 -1.8545
  582MOL0     H78542   6.692   3.201  11.902  0.5909  1.3346  0.6659
  582MOL0     H78543   6.528   3.263  11.883  0.0478  0.7771  0.0202
  582MOL0     H78544   6.655   3.163  12.137 -0.5113 -0.5557 -0.3192
  582MOL0     H78545   6.479   3.204  12.116 -0.9519 -1.2850 -1.8680
  582MOL0     H78546   6.700   3.420  12.063  1.3890 -1.2819  0.0428
  582MOL0     H78547   6.538   3.447  12.067  2.9399  1.5759 -3.3152
  582MOL0     H78548   6.677   3.304  12.302 -0.3466 -0.4850  0.2891
  582MOL0     H78549   6.516   3.368  12.307  1.1223 -1.9369  0.8963
  582MOL0     H78550   6.588   3.561  12.396 -0.8060 -0.8374 -1.1990
  582MOL0     H78551   6.656   3.592  12.236 -2.8622 -0.5520 -0.5732
  582MOL0     H78552   6.065   2.772  11.882 -0.8755 -3.1586  2.1375
  582MOL0     H78553   5.917   2.633  11.767  0.0711  0.2401 -1.3813
  582MOL0     H78554   5.623   2.514  11.384 -3.0052 -1.1467 -0.9946
  582MOL0     H78555   5.536   2.393  11.196 -2.8225 -3.5247  1.4908
  582MOL0     H78556   4.718   2.430  10.271  1.8718  1.1385 -0.3717
  582MOL0     H78557   4.469   2.391  10.321  1.3891 -0.3550  0.6481
  582MOL0     H78558   4.154   2.598  10.476  2.4662 -2.1264 -3.0333
  582MOL0     H78559   3.960   2.655  10.603 -1.4824  0.6919  0.9147
  582MOL0     H78560   3.532   2.714  10.569  0.1560 -1.0438  0.6889
  582MOL0     H78561   3.562   2.735  10.402 -2.1349 -0.9818  0.0850
  582MOL0     H78562   3.569   2.458  10.543  0.9555  0.4876  0.3088
  582MOL0     H78563   3.577   2.492  10.359  0.9774 -0.1641 -0.2604
  582MOL0     H78564   3.362   2.406  10.426 -2.4929  1.6390 -3.2371
  582MOL0     H78565   3.352   2.575  10.388  1.6718 -0.3054 -0.8489
  582MOL0     H78566   3.367   2.628  10.653  2.5548 -2.7654  1.3879
  582MOL0     H78567   3.347   2.451  10.667  1.4072  0.8729  1.5575
  582MOL0     H78568   2.951   2.561  10.603  0.9087 -1.9643  1.8204
  582MOL0     H78569   3.721   2.617  10.258 -0.0056  0.9124 -0.1084
  582MOL0     H78570   3.913   2.561  10.125 -1.6720  1.6323 -0.0715
  583MOL0     O78571   5.162   0.472   3.011  0.6735  0.0572 -0.4033
  583MOL0     C78572   5.168   0.426   2.897 -0.6606 -0.4285  1.4878
  583MOL0     O78573   5.063   0.371   2.823 -0.5471 -0.3450  1.2142
  583MOL0     C78574   4.964   0.328   2.909 -0.0865 -0.7858 -0.6666
  583MOL0     C78575   4.970   0.211   2.986 -0.5405 -0.8695  0.7629
  583MOL0     C78576   4.868   0.185   3.080  0.7392  1.0253 -0.1290
  583MOL0     C78577   4.756   0.273   3.087 -0.0381  0.1553 -0.2416
  583MOL0     O78578   4.647   0.249   3.165  0.4109  0.2083 -0.3450
  583MOL0     C78579   4.691   0.181   3.288  1.0437  0.1027  0.0709
  583MOL0     C78580   4.655   0.032   3.307 -0.2437 -0.1346 -0.0862
  583MOL0     C78581   4.510   0.005   3.250  0.0012 -0.3906 -0.4520
  583MOL0     C78582   4.466  -0.136   3.298  0.4297  0.5361 -0.1462
  583MOL0     C78583   4.386  -0.126   3.431  0.5781  0.5765  0.9149
  583MOL0     C78584   4.343  -0.261   3.499 -0.0706  0.3459  0.4870
  583MOL0     C78585   4.462  -0.340   3.543 -0.2183  0.4565  0.0928
  583MOL0     C78586   4.438  -0.472   3.615  0.6795 -0.4996  0.9084
  583MOL0     N78587   4.343  -0.465   3.724 -0.3923 -0.2476  0.8572
  583MOL0     C78588   4.354  -0.376   3.817  0.1898  0.0369 -0.7735
  583MOL0     C78589   4.265  -0.406   3.911 -0.0078  0.5252  0.5195
  583MOL0     C78590   4.251  -0.328   4.043 -0.3190 -0.2416 -1.4429
  583MOL0     C78591   4.117  -0.375   4.107 -1.0349 -0.2356 -0.1945
  583MOL0     C78592   4.157  -0.502   4.198 -0.3116  0.6870  0.2858
  583MOL0     C78593   4.027  -0.552   4.254 -0.2275  0.0933  0.9009
  583MOL0     O78594   3.981  -0.450   4.351  0.5351  0.8177 -0.4572
  583MOL0     C78595   3.900  -0.501   4.449  0.5631 -0.4792  0.1531
  583MOL0     C78596   3.902  -0.457   4.582 -0.3128  0.7640  1.0207
  583MOL0     C78597   3.815  -0.505   4.682  0.2025  0.1445  0.8719
  583MOL0     C78598   3.840  -0.464   4.817 -0.6760 -0.1917  0.0783
  583MOL0     C78599   3.714  -0.605   4.642 -0.2077  0.1643 -0.1969
  583MOL0     C78600   3.609  -0.675   4.734 -0.3153  0.5411 -0.2063
  583MOL0     O78601   3.543  -0.786   4.683  0.3722  0.2719  0.6362
  583MOL0     C78602   3.430  -0.819   4.738  0.4059  0.1627 -0.7827
  583MOL0     C78603   3.416  -0.885   4.866  0.0446 -0.9636  0.2658
  583MOL0     C78604   3.284  -0.910   4.908 -0.4170 -0.2216  0.3775
  583MOL0     C78605   3.168  -0.871   4.833 -0.6537 -0.2496 -0.9992
  583MOL0     O78606   3.052  -0.908   4.897 -0.4928 -0.2894  0.0737
  583MOL0     C78607   2.939  -0.949   4.833  0.7766  0.0303 -0.3795
  583MOL0     C78608   2.848  -1.042   4.912  0.3611 -0.4311 -0.1892
  583MOL0     C78609   2.900  -1.182   4.957 -0.0063  0.4492  0.4617
  583MOL0     C78610   2.979  -1.256   4.848  0.2704 -0.0392  0.4974
  583MOL0     C78611   3.000  -1.396   4.871  0.1606  1.3264  0.9936
  583MOL0     C78612   2.873  -1.486   4.893 -0.4006  0.3390 -0.4508
  583MOL0     C78613   2.915  -1.642   4.905  0.3956 -0.2985  0.6848
  583MOL0     C78614   2.798  -1.726   4.935 -0.1366  0.5768 -0.7301
  583MOL0    Cl78615   2.835  -1.892   4.876 -0.2206 -0.0970  0.0832
  583MOL0     C78616   3.180  -0.805   4.710 -0.0499  0.0727 -0.7797
  583MOL0     C78617   3.310  -0.780   4.668  0.4607 -0.1018 -1.1993
  583MOL0     O78618   3.581  -0.614   4.834  0.3824  0.3444 -0.1931
  583MOL0     C78619   3.718  -0.643   4.504  0.7161  0.2916 -0.8455
  583MOL0     C78620   3.800  -0.587   4.418 -0.4275 -0.2882  0.1196
  583MOL0     N78621   4.207  -0.526   3.868 -0.6240  0.1313 -0.2040
  583MOL0     N78622   4.260  -0.563   3.752  0.1894 -0.2844  0.4103
  583MOL0     C78623   4.757   0.385   3.019 -0.1314  0.3782  0.7426
  583MOL0     C78624   4.854   0.418   2.925  1.1479 -0.7799  0.1457
  583MOL0     C78625   5.294   0.441   2.825 -0.0119  0.3914 -0.8923
  583MOL0     C78626   5.304   0.402   2.682 -0.5136 -0.0063 -0.6372
  583MOL0     C78627   5.426   0.424   2.607 -0.0454 -0.8306 -0.4779
  583MOL0     C78628   5.539   0.470   2.673  0.5666  1.2889  0.6464
  583MOL0     O78629   5.642   0.477   2.578  0.2703  0.1171  0.8944
  583MOL0     C78630   5.776   0.474   2.626 -0.2582  0.1949 -0.0422
  583MOL0     C78631   5.877   0.428   2.517  0.0360  0.1722 -0.7872
  583MOL0     C78632   6.021   0.443   2.568  0.1862  0.7537 -0.2980
  583MOL0     C78633   6.122   0.414   2.436  0.1410 -0.4989 -0.1414
  583MOL0     C78634   6.127   0.514   2.329 -0.2201  0.0898 -0.2771
  583MOL0     C78635   6.123   0.595   2.241  0.2415 -1.1665  0.1447
  583MOL0     C78636   5.529   0.499   2.813  0.2153 -0.5848  0.9754
  583MOL0     C78637   5.413   0.471   2.887  0.1731  0.2693  0.5700
  583MOL0     H78638   5.053   0.148   2.958  0.2661  1.0814 -1.5805
  583MOL0     H78639   4.872   0.091   3.134  1.1048  0.6776 -0.7473
  583MOL0     H78640   4.798   0.188   3.307  1.3329 -1.8204 -0.6190
  583MOL0     H78641   4.633   0.236   3.363  1.4296  4.7414 -2.6312
  583MOL0     H78642   4.732  -0.021   3.249 -0.9672  1.1374 -2.3428
  583MOL0     H78643   4.654   0.015   3.415  1.0148 -0.1438 -0.0555
  583MOL0     H78644   4.443   0.086   3.281 -0.5680 -1.0073 -0.0427
  583MOL0     H78645   4.521   0.014   3.142  1.8724 -0.6576 -0.3057
  583MOL0     H78646   4.396  -0.172   3.222  0.9698  5.2038 -3.3135
  583MOL0     H78647   4.556  -0.197   3.305  0.5076  0.5814 -0.6739
  583MOL0     H78648   4.431  -0.062   3.508 -1.4777  3.3155  0.0236
  583MOL0     H78649   4.289  -0.079   3.411  0.6927  1.8142  2.9725
  583MOL0     H78650   4.275  -0.244   3.583 -0.1518  1.1202  0.2714
  583MOL0     H78651   4.296  -0.323   3.422 -1.6755  0.2109  1.5162
  583MOL0     H78652   4.520  -0.378   3.459 -1.3068 -2.4333  0.5252
  583MOL0     H78653   4.526  -0.277   3.606 -2.7571 -0.1425  3.6456
  583MOL0     H78654   4.538  -0.488   3.657 -0.4027 -0.7787  3.6247
  583MOL0     H78655   4.402  -0.550   3.547 -1.4955  1.1346  0.0444
  583MOL0     H78656   4.432  -0.302   3.828  3.6660 -3.4382 -0.0710
  583MOL0     H78657   4.338  -0.351   4.106  0.5225 -1.6131 -3.0486
  583MOL0     H78658   4.251  -0.219   4.032 -2.6311  0.3200  2.1715
  583MOL0     H78659   4.035  -0.389   4.036  0.9321  0.0668 -2.6587
  583MOL0     H78660   4.099  -0.285   4.167  2.1456 -1.1932  2.4928
  583MOL0     H78661   4.238  -0.487   4.270  0.0386 -3.0556  0.8421
  583MOL0     H78662   4.199  -0.577   4.130  0.4300 -0.8781  2.3707
  583MOL0     H78663   4.047  -0.653   4.291 -2.1849 -1.7658 -2.6896
  583MOL0     H78664   3.963  -0.561   4.166 -0.7074 -0.7945  1.3248
  583MOL0     H78665   3.988  -0.393   4.604 -1.0033  1.2093  2.5049
  583MOL0     H78666   3.900  -0.373   4.814 -1.1019  0.1158  0.7369
  583MOL0     H78667   3.746  -0.438   4.866 -1.6400 -0.3435 -1.6432
  583MOL0     H78668   3.883  -0.549   4.873 -1.2198 -0.9050 -0.5635
  583MOL0     H78669   3.503  -0.912   4.925 -0.0399  3.6249  3.0365
  583MOL0     H78670   3.264  -0.968   4.998 -2.8909  1.1434  0.7928
  583MOL0     H78671   2.887  -0.860   4.796 -1.9161 -2.3924 -2.9800
  583MOL0     H78672   2.969  -1.001   4.741  2.0855 -3.1848  1.7119
  583MOL0     H78673   2.836  -0.975   4.998  0.0864  0.7494 -1.1176
  583MOL0     H78674   2.750  -1.045   4.863 -1.1190 -2.2249  2.6309
  583MOL0     H78675   2.810  -1.243   4.969  1.7454 -2.4875 -0.3018
  583MOL0     H78676   2.958  -1.167   5.049 -0.5822 -3.4196  1.6485
  583MOL0     H78677   2.927  -1.242   4.752  0.1240 -4.2581 -0.2365
  583MOL0     H78678   3.073  -1.203   4.834 -0.7401  1.1977 -2.4870
  583MOL0     H78679   3.045  -1.391   4.971 -0.6098  3.0289  1.2723
  583MOL0     H78680   3.070  -1.435   4.796 -0.8113 -0.3188  0.8954
  583MOL0     H78681   2.824  -1.461   4.987 -0.2129  0.2799 -0.3376
  583MOL0     H78682   2.794  -1.464   4.820 -1.4027 -0.8638  0.2424
  583MOL0     H78683   2.991  -1.643   4.983 -0.6727  0.8932  1.7872
  583MOL0     H78684   2.964  -1.677   4.814 -1.0437  0.4710 -0.4263
  583MOL0     H78685   2.712  -1.675   4.891 -0.3778  0.8047 -0.0160
  583MOL0     H78686   2.776  -1.736   5.042  5.7015 -2.8844  0.5874
  583MOL0     H78687   3.088  -0.791   4.655 -1.3706 -1.2348  0.9969
  583MOL0     H78688   3.321  -0.718   4.579  1.3468  2.1364  0.3796
  583MOL0     H78689   3.649  -0.713   4.458 -0.2044  0.8899 -0.4165
  583MOL0     H78690   3.790  -0.620   4.316 -3.1111  1.7897 -0.3844
  583MOL0     H78691   4.668   0.445   3.032 -0.2903  1.7856 -4.4622
  583MOL0     H78692   4.852   0.509   2.866 -0.9933 -0.2309  0.9800
  583MOL0     H78693   5.219   0.364   2.626  0.2478  0.5201 -2.2296
  583MOL0     H78694   5.434   0.395   2.503 -0.6171  1.8683 -1.3551
  583MOL0     H78695   5.807   0.574   2.657  0.2933  0.2088 -0.6144
  583MOL0     H78696   5.794   0.407   2.711  2.5612  0.2939 -0.4596
  583MOL0     H78697   5.853   0.488   2.428  0.1652  2.6037  0.7273
  583MOL0     H78698   5.859   0.326   2.482 -0.0113 -0.1061  0.0240
  583MOL0     H78699   6.043   0.378   2.653 -4.5861 -0.4568  0.2646
  583MOL0     H78700   6.046   0.541   2.610  0.4461 -0.5534  2.8768
  583MOL0     H78701   6.099   0.323   2.379 -0.2031 -0.9987  0.7703
  583MOL0     H78702   6.227   0.409   2.468  0.0742  0.4428  0.2513
  583MOL0     H78703   6.117   0.665   2.160 -1.0102 -2.8468 -1.2891
  583MOL0     H78704   5.614   0.540   2.868  1.0652  1.1213 -1.4568
  583MOL0     H78705   5.415   0.459   2.995  1.3895 -0.6254  0.4673
  584MOL0     O78706   8.052   5.103  11.156  0.3405  0.6907 -0.8411
  584MOL0     C78707   8.135   5.196  11.158  0.2078  0.3917 -0.9063
  584MOL0     O78708   8.271   5.183  11.157 -0.4768  0.6333  0.5148
  584MOL0     C78709   8.329   5.054  11.142  0.3583 -0.4631 -0.5282
  584MOL0     C78710   8.451   5.026  11.206  0.7367 -0.2698 -1.2513
  584MOL0     C78711   8.532   4.918  11.186  0.6156 -0.6178  0.5045
  584MOL0     C78712   8.479   4.818  11.103 -0.7534 -0.1094 -0.0728
  584MOL0     O78713   8.545   4.698  11.077 -0.4636  0.0513 -0.3977
  584MOL0     C78714   8.685   4.684  11.114 -0.4334 -0.1922 -1.5710
  584MOL0     C78715   8.721   4.534  11.100  0.2967  0.0356 -0.2806
  584MOL0     C78716   8.872   4.526  11.143 -0.4895  1.0001  0.9414
  584MOL0     C78717   8.883   4.511  11.298  0.5575 -0.5778 -0.5210
  584MOL0     C78718   9.011   4.461  11.358 -0.1883  0.1155 -0.1334
  584MOL0     C78719   9.135   4.536  11.304  0.0722 -0.0436  0.9421
  584MOL0     C78720   9.132   4.697  11.305 -0.3411  0.3276  0.1736
  584MOL0     C78721   9.106   4.756  11.443  0.7044  0.8800 -0.5901
  584MOL0     N78722   8.960   4.785  11.466 -1.5375 -0.1650  0.1850
  584MOL0     C78723   8.899   4.778  11.586 -0.1703 -0.3680  0.1630
  584MOL0     C78724   8.783   4.848  11.571 -0.7599  0.1524  0.8125
  584MOL0     C78725   8.689   4.854  11.681 -0.4036 -0.4059 -0.2493
  584MOL0     C78726   8.709   4.958  11.789 -1.2508 -0.1294 -1.3318
  584MOL0     C78727   8.737   5.098  11.747 -0.0994 -0.2683  1.4668
  584MOL0     C78728   8.757   5.183  11.872  0.1685  0.3741 -0.3938
  584MOL0     O78729   8.798   5.316  11.858 -0.8423 -0.4591  0.2683
  584MOL0     C78730   8.912   5.359  11.910  0.0980  1.2218  0.7530
  584MOL0     C78731   8.968   5.299  12.039 -0.3218 -0.3418  0.0972
  584MOL0     C78732   9.088   5.350  12.089  0.6870 -0.6450  1.0078
  584MOL0     C78733   9.135   5.298  12.215  0.5306 -0.3616 -0.6521
  584MOL0     C78734   9.165   5.450  12.009 -0.0259  0.5223 -0.5394
  584MOL0     C78735   9.290   5.522  12.065  0.7914  0.9470 -0.9755
  584MOL0     O78736   9.280   5.557  12.205 -0.1206  0.0629  0.1005
  584MOL0     C78737   9.375   5.650  12.245  0.4420  0.1067 -0.8125
  584MOL0     C78738   9.438   5.640  12.365  0.1425  0.9948 -0.1882
  584MOL0     C78739   9.540   5.717  12.393  0.4914  0.0231 -0.9324
  584MOL0     C78740   9.566   5.838  12.324  0.4878 -0.5374 -0.1869
  584MOL0     O78741   9.655   5.927  12.381 -0.9817  0.1589 -0.7641
  584MOL0     C78742   9.752   5.983  12.291 -0.4894  0.5895 -0.2106
  584MOL0     C78743   9.851   5.888  12.235  0.1408  0.4884  0.2880
  584MOL0     C78744   9.886   5.763  12.322  0.8227 -0.1153  0.7158
  584MOL0     C78745   9.937   5.805  12.462  0.2567  0.1299 -1.2737
  584MOL0     C78746  10.089   5.837  12.472  0.7925 -0.2904  0.6773
  584MOL0     C78747  10.193   5.721  12.458 -0.3531 -0.6674 -0.3131
  584MOL0     C78748  10.332   5.775  12.432  1.1892 -0.6027 -0.4241
  584MOL0     C78749  10.441   5.670  12.441  0.0947  0.1919  0.2081
  584MOL0    Cl78750  10.451   5.570  12.273  0.3325  0.1381 -0.4841
  584MOL0     C78751   9.497   5.863  12.205  0.4775 -0.5527 -0.6138
  584MOL0     C78752   9.403   5.763  12.168  0.2522  0.1911  0.2349
  584MOL0     O78753   9.382   5.534  11.997  0.0512 -0.1374 -0.3577
  584MOL0     C78754   9.119   5.490  11.886  0.0139  1.0396  0.4659
  584MOL0     C78755   8.989   5.452  11.846  0.3451 -0.1188  0.1080
  584MOL0     N78756   8.769   4.883  11.438 -0.3080 -0.3616  0.2909
  584MOL0     N78757   8.877   4.849  11.387 -0.1412  0.4327 -0.3193
  584MOL0     C78758   8.356   4.842  11.037 -1.0859 -0.5757 -0.1841
  584MOL0     C78759   8.284   4.962  11.048 -0.1468  0.2498  0.8022
  584MOL0     C78760   8.077   5.334  11.163 -0.0925  0.6369 -0.3170
  584MOL0     C78761   7.950   5.363  11.208 -0.4387  0.3503  0.7895
  584MOL0     C78762   7.902   5.486  11.212 -0.2608  0.6594  0.4003
  584MOL0     C78763   7.983   5.598  11.198 -0.1625 -0.6638  0.0627
  584MOL0     O78764   7.933   5.723  11.213 -0.4109 -0.5911 -0.3358
  584MOL0     C78765   8.022   5.846  11.196 -0.3953 -0.0377  0.1032
  584MOL0     C78766   7.950   5.983  11.225  0.2565  0.7407 -0.2254
  584MOL0     C78767   7.873   6.031  11.106  0.1446 -0.5496  0.1887
  584MOL0     C78768   7.829   6.176  11.116  0.6632 -0.4207  0.4667
  584MOL0     C78769   7.754   6.211  10.999  0.3111 -0.9530 -0.9639
  584MOL0     C78770   7.676   6.242  10.909 -0.1585  1.7062  0.5325
  584MOL0     C78771   8.114   5.573  11.160  0.2334  0.1970 -0.1304
  584MOL0     C78772   8.160   5.437  11.137 -0.3887 -0.0466  0.8443
  584MOL0     H78773   8.481   5.102  11.278 -5.1773 -0.4177  1.9920
  584MOL0     H78774   8.629   4.910  11.235  1.2389 -4.0493 -0.9438
  584MOL0     H78775   8.758   4.746  11.061 -1.1410  4.2051  2.0246
  584MOL0     H78776   8.696   4.721  11.216 -0.1773  1.4801 -2.1766
  584MOL0     H78777   8.658   4.468  11.161 -0.0549 -0.0294 -0.7112
  584MOL0     H78778   8.702   4.503  10.997  0.2287  0.4542 -0.3975
  584MOL0     H78779   8.922   4.445  11.088  0.2739  0.8395  1.8573
  584MOL0     H78780   8.920   4.619  11.111 -1.8395  0.0915 -5.0340
  584MOL0     H78781   8.860   4.612  11.333 -0.5864  0.6236 -4.2146
  584MOL0     H78782   8.801   4.446  11.330 -2.6766  3.0136 -0.7324
  584MOL0     H78783   9.004   4.471  11.467 -0.8090  3.7534 -0.3856
  584MOL0     H78784   9.024   4.357  11.327 -2.4750 -0.1083 -0.5129
  584MOL0     H78785   9.221   4.503  11.362  2.4731  1.1143 -1.6979
  584MOL0     H78786   9.157   4.501  11.202 -0.6342  1.1558  0.3487
  584MOL0     H78787   9.232   4.731  11.279  0.9128 -1.2668  2.5157
  584MOL0     H78788   9.053   4.739  11.243 -2.2290 -1.5388  1.1841
  584MOL0     H78789   9.147   4.857  11.448 -0.4551  1.5381 -2.9867
  584MOL0     H78790   9.153   4.681  11.507  2.1936 -1.1403 -3.8234
  584MOL0     H78791   8.934   4.737  11.680 -1.2411  2.1087  1.7292
  584MOL0     H78792   8.586   4.856  11.643 -0.8697 -0.4899  0.9364
  584MOL0     H78793   8.694   4.762  11.741  0.5589  1.1412  2.2067
  584MOL0     H78794   8.794   4.928  11.850 -3.4479 -0.5168  1.7596
  584MOL0     H78795   8.623   4.965  11.856  0.1419 -0.1779  0.5311
  584MOL0     H78796   8.652   5.140  11.692 -1.9090 -1.8510  2.9577
  584MOL0     H78797   8.816   5.133  11.680 -0.9187  2.7115  1.9142
  584MOL0     H78798   8.827   5.135  11.941  2.4985  3.6734 -0.2301
  584MOL0     H78799   8.656   5.182  11.914 -0.6601 -0.4836 -2.2519
  584MOL0     H78800   8.900   5.239  12.097  0.3979 -0.3045  1.0072
  584MOL0     H78801   9.091   5.359  12.294 -1.2109  1.7368 -3.0799
  584MOL0     H78802   9.094   5.198  12.231 -0.5141 -0.3133 -2.7591
  584MOL0     H78803   9.244   5.290  12.216  0.4413 -2.3938  1.2633
  584MOL0     H78804   9.398   5.559  12.426 -2.0065 -0.1563 -2.8720
  584MOL0     H78805   9.579   5.714  12.494  1.8816 -3.0636 -1.4625
  584MOL0     H78806   9.707   6.032  12.205 -0.3633 -1.1811 -1.3508
  584MOL0     H78807   9.806   6.060  12.346 -1.1495  0.2718  0.9180
  584MOL0     H78808   9.803   5.858  12.141 -0.6357 -4.4146  1.9898
  584MOL0     H78809   9.938   5.941  12.196 -1.5734  2.1320 -1.5755
  584MOL0     H78810   9.958   5.702  12.265 -0.0788  0.1267 -0.7475
  584MOL0     H78811   9.802   5.693  12.324 -1.1569  2.1691  2.0798
  584MOL0     H78812   9.878   5.893  12.489  1.3409  1.4379 -2.9444
  584MOL0     H78813   9.922   5.720  12.529 -3.5362 -1.4459 -3.8322
  584MOL0     H78814  10.112   5.875  12.572 -1.6726 -0.8082  1.5326
  584MOL0     H78815  10.116   5.918  12.404  1.3708 -2.2207 -1.5598
  584MOL0     H78816  10.197   5.662  12.551  2.8100  0.1490  0.1887
  584MOL0     H78817  10.178   5.647  12.380 -3.0433  0.2187 -0.7423
  584MOL0     H78818  10.343   5.839  12.521 -5.8997  0.7047  0.0764
  584MOL0     H78819  10.340   5.830  12.338 -4.8297  2.5962  0.4894
  584MOL0     H78820  10.410   5.600  12.519  0.5501 -1.0066 -0.6468
  584MOL0     H78821  10.535   5.724  12.459  2.5406 -1.5541 -5.0873
  584MOL0     H78822   9.504   5.957  12.151 -3.3477  1.2747  1.6696
  584MOL0     H78823   9.346   5.774  12.076 -0.1847 -0.9193  0.3528
  584MOL0     H78824   9.182   5.536  11.811 -2.3755  2.1377 -1.0091
  584MOL0     H78825   8.939   5.495  11.759 -1.9556 -0.7791  1.0138
  584MOL0     H78826   8.310   4.764  10.976 -2.4117  0.3505 -0.4180
  584MOL0     H78827   8.195   4.974  10.987  0.2814 -1.8842 -0.3461
  584MOL0     H78828   7.884   5.280  11.231 -1.7181  2.1509  4.6268
  584MOL0     H78829   7.795   5.505  11.217  0.1153  2.9783  0.5836
  584MOL0     H78830   8.109   5.846  11.261  0.0030  1.8876 -0.3586
  584MOL0     H78831   8.078   5.854  11.102  2.4704 -2.7667  1.4088
  584MOL0     H78832   8.012   6.064  11.265  0.5468  0.9978 -1.1757
  584MOL0     H78833   7.871   5.967  11.299 -0.0405  0.5619 -0.5835
  584MOL0     H78834   7.786   5.969  11.083  0.2062 -0.1457 -1.2682
  584MOL0     H78835   7.937   6.027  11.018 -0.9451  3.2862 -0.9978
  584MOL0     H78836   7.909   6.246  11.140 -0.2846  0.5460  0.9003
  584MOL0     H78837   7.771   6.182  11.209  1.2735  1.6954  0.7717
  584MOL0     H78838   7.618   6.264  10.821  0.8751  0.7438 -0.4325
  584MOL0     H78839   8.181   5.657  11.142 -2.6504  2.0631 -3.6252
  584MOL0     H78840   8.259   5.429  11.093 -0.7307 -1.6141  0.3031
  585MOL0     O78841   5.542   5.875   4.883 -0.2951 -0.1472 -0.3098
  585MOL0     C78842   5.440   5.828   4.933 -0.1800  0.1647  0.7269
  585MOL0     O78843   5.315   5.839   4.887  0.3619 -0.2052  0.2430
  585MOL0     C78844   5.290   5.929   4.786  0.2744 -0.2889  0.7477
  585MOL0     C78845   5.314   6.064   4.815  0.8708  0.6640  0.5008
  585MOL0     C78846   5.289   6.164   4.719 -0.3027 -0.0323 -0.9434
  585MOL0     C78847   5.247   6.124   4.591  0.7791 -0.3949 -0.2279
  585MOL0     O78848   5.217   6.217   4.497  0.1044  0.1915 -0.4682
  585MOL0     C78849   5.185   6.353   4.543 -0.1955  0.2957  0.1506
  585MOL0     C78850   5.122   6.423   4.418  0.5348  0.1474 -0.1851
  585MOL0     C78851   5.078   6.569   4.450 -0.3249 -0.2722 -0.1664
  585MOL0     C78852   4.940   6.579   4.519 -1.0290  0.6093 -0.0163
  585MOL0     C78853   4.886   6.716   4.521 -0.2799 -0.9285  0.1045
  585MOL0     C78854   4.727   6.712   4.542  0.3034 -0.3798  0.0686
  585MOL0     C78855   4.668   6.851   4.519 -0.0925 -0.0068 -1.1610
  585MOL0     C78856   4.516   6.856   4.553 -0.1559  0.8043  0.6825
  585MOL0     N78857   4.485   6.866   4.694 -0.0752 -0.6588 -0.1874
  585MOL0     C78858   4.515   6.956   4.792 -0.3301 -0.3315 -0.6623
  585MOL0     C78859   4.462   6.907   4.908 -0.2497  0.4284  0.1794
  585MOL0     C78860   4.452   6.966   5.045  0.6083  0.5761  0.2711
  585MOL0     C78861   4.563   6.923   5.133  0.6345  0.6811 -0.1021
  585MOL0     C78862   4.562   6.977   5.272  0.2256 -0.4039  0.1036
  585MOL0     C78863   4.700   6.982   5.341 -0.4164  0.2004  1.1684
  585MOL0     O78864   4.770   7.088   5.283  0.1766  0.2132 -0.1811
  585MOL0     C78865   4.867   7.134   5.362 -0.4538  0.0308 -0.6607
  585MOL0     C78866   4.850   7.232   5.454  0.1362  0.1420  0.2721
  585MOL0     C78867   4.953   7.296   5.521 -0.3385 -0.6218 -0.2436
  585MOL0     C78868   4.903   7.423   5.592 -0.9492  0.5823 -0.3106
  585MOL0     C78869   5.081   7.246   5.518  0.7793  1.2762  0.1709
  585MOL0     C78870   5.184   7.288   5.619  0.1989  0.5528  0.4094
  585MOL0     O78871   5.138   7.348   5.728  0.5925  0.1196 -0.3568
  585MOL0     C78872   5.212   7.374   5.840  0.4386 -0.2510 -0.3390
  585MOL0     C78873   5.200   7.502   5.903 -0.1573 -0.6109 -0.7983
  585MOL0     C78874   5.278   7.530   6.014  0.2359 -0.3326  0.6389
  585MOL0     C78875   5.364   7.433   6.064 -0.4874  0.9721  0.7303
  585MOL0     O78876   5.432   7.451   6.175  0.0463 -0.0727  0.4761
  585MOL0     C78877   5.560   7.385   6.197 -0.5245 -0.0627 -0.4179
  585MOL0     C78878   5.616   7.444   6.333 -0.5898  0.4559  0.3228
  585MOL0     C78879   5.733   7.354   6.351 -0.7708  0.0476  0.2879
  585MOL0     C78880   5.812   7.398   6.477  0.9587  0.1899  0.3696
  585MOL0     C78881   5.950   7.324   6.484  0.3248 -0.8951 -0.0421
  585MOL0     C78882   5.950   7.172   6.461  0.6905 -0.3560 -0.0895
  585MOL0     C78883   5.883   7.098   6.580  0.3214  0.4325 -0.1586
  585MOL0     C78884   5.857   6.954   6.548  0.9050  0.1167 -0.2726
  585MOL0    Cl78885   5.750   6.892   6.678  0.1386  0.4362 -0.0072
  585MOL0     C78886   5.368   7.302   6.006  0.9304  0.0475 -0.3924
  585MOL0     C78887   5.293   7.273   5.904  0.2407 -0.5221  0.6980
  585MOL0     O78888   5.301   7.253   5.605 -0.1346 -0.8366 -0.4577
  585MOL0     C78889   5.104   7.131   5.437  0.2916 -0.0942  0.7438
  585MOL0     C78890   4.997   7.077   5.358  0.2160 -1.1439  0.2319
  585MOL0     N78891   4.405   6.784   4.886  0.7174 -0.0283  0.6780
  585MOL0     N78892   4.415   6.761   4.759  0.3016 -0.6199  0.0284
  585MOL0     C78893   5.228   5.989   4.562 -0.2409 -0.5049  0.2022
  585MOL0     C78894   5.235   5.893   4.666 -0.8996  0.5028  1.1235
  585MOL0     C78895   5.474   5.753   5.056  0.1128  0.1970  0.7061
  585MOL0     C78896   5.601   5.721   5.086  0.6443 -0.4013 -0.7526
  585MOL0     C78897   5.624   5.648   5.204  0.5386  0.1374  1.9023
  585MOL0     C78898   5.528   5.592   5.285  0.7760 -0.0004 -0.0704
  585MOL0     O78899   5.571   5.508   5.390  0.0984  0.1096  0.0977
  585MOL0     C78900   5.483   5.412   5.445  0.1287  0.3227 -0.2976
  585MOL0     C78901   5.466   5.436   5.588  0.0126  0.0876 -0.4374
  585MOL0     C78902   5.444   5.301   5.657  1.0347 -0.7901  0.2397
  585MOL0     C78903   5.399   5.328   5.808  0.6904 -0.4346  0.0632
  585MOL0     C78904   5.510   5.398   5.878  1.0785  0.6954  0.5889
  585MOL0     C78905   5.599   5.449   5.933 -0.5726 -0.7249 -0.7464
  585MOL0     C78906   5.392   5.619   5.241  0.1595  0.2088 -0.6730
  585MOL0     C78907   5.363   5.697   5.129 -0.2846 -0.1124 -0.9322
  585MOL0     H78908   5.318   6.081   4.922 -1.5968  0.7414  0.6498
  585MOL0     H78909   5.311   6.270   4.719  4.3728 -0.6118 -5.3485
  585MOL0     H78910   5.104   6.353   4.617  1.6040  0.5128  2.2506
  585MOL0     H78911   5.273   6.405   4.583  0.1469 -1.2916  1.5739
  585MOL0     H78912   5.206   6.420   4.349  1.0986 -4.1873  0.4153
  585MOL0     H78913   5.039   6.366   4.374 -1.3287  1.4116  1.5097
  585MOL0     H78914   5.155   6.618   4.509 -0.2961  0.5465 -0.8622
  585MOL0     H78915   5.065   6.625   4.356  1.0646  1.3981  0.5844
  585MOL0     H78916   4.874   6.513   4.463  1.4490 -1.5561 -0.5763
  585MOL0     H78917   4.955   6.534   4.618 -0.1022  2.2849  0.6504
  585MOL0     H78918   4.928   6.777   4.601  0.6899 -0.3301 -0.8331
  585MOL0     H78919   4.897   6.779   4.433 -1.8514  0.2750  0.7333
  585MOL0     H78920   4.683   6.635   4.478 -0.9628  0.8841 -0.6690
  585MOL0     H78921   4.697   6.683   4.643  1.9463 -1.3755  0.3082
  585MOL0     H78922   4.716   6.932   4.576 -2.7178  0.1912  0.9688
  585MOL0     H78923   4.678   6.867   4.412  1.2025  0.9367 -0.9272
  585MOL0     H78924   4.464   6.766   4.518  0.5455 -0.2378  2.2289
  585MOL0     H78925   4.468   6.941   4.504  0.7372  0.1504 -1.4418
  585MOL0     H78926   4.571   7.049   4.790 -0.8518  0.3466  4.2195
  585MOL0     H78927   4.465   7.074   5.030 -0.3636  0.6721  0.0341
  585MOL0     H78928   4.354   6.938   5.087  0.4156  1.8269  0.6882
  585MOL0     H78929   4.661   6.926   5.086  1.3318  0.2183  1.2554
  585MOL0     H78930   4.545   6.817   5.151  0.6566  1.1847  3.7223
  585MOL0     H78931   4.488   6.926   5.335 -1.0861 -0.3537 -1.3433
  585MOL0     H78932   4.533   7.082   5.265 -1.4000 -0.6969  1.6842
  585MOL0     H78933   4.743   6.884   5.322  1.2590  1.1867 -0.5064
  585MOL0     H78934   4.688   6.986   5.449 -0.2344  0.5911  1.1782
  585MOL0     H78935   4.748   7.268   5.450 -0.5143 -1.6885 -1.7016
  585MOL0     H78936   4.866   7.389   5.689 -1.3283 -0.6115 -0.8533
  585MOL0     H78937   4.986   7.493   5.604  0.5281 -1.4628  2.8646
  585MOL0     H78938   4.818   7.472   5.543 -0.1449  2.2851 -0.0758
  585MOL0     H78939   5.142   7.581   5.857 -0.0322  0.5503  0.9620
  585MOL0     H78940   5.271   7.625   6.067  3.8466 -0.6792  2.0500
  585MOL0     H78941   5.540   7.280   6.221 -1.6276  0.5304  1.3986
  585MOL0     H78942   5.633   7.391   6.115  0.9875  1.0271  0.9383
  585MOL0     H78943   5.643   7.548   6.311  1.9371 -0.4561 -1.3231
  585MOL0     H78944   5.548   7.436   6.418 -1.8047  1.6518 -0.4849
  585MOL0     H78945   5.802   7.348   6.266 -0.6301 -1.3719  0.4732
  585MOL0     H78946   5.699   7.250   6.361 -2.6334  0.5006 -0.7744
  585MOL0     H78947   5.830   7.506   6.471 -1.8155  0.7556  0.9995
  585MOL0     H78948   5.743   7.378   6.560  1.0623  0.9189  0.6437
  585MOL0     H78949   6.018   7.349   6.566 -0.6526 -1.0434  0.8381
  585MOL0     H78950   5.998   7.359   6.393  0.7298 -3.8489 -1.0824
  585MOL0     H78951   5.903   7.148   6.365  3.0942 -1.1013 -1.1583
  585MOL0     H78952   6.052   7.135   6.448  0.9659  0.1674  0.5454
  585MOL0     H78953   5.791   7.157   6.584 -0.1402 -0.1232 -1.7730
  585MOL0     H78954   5.937   7.118   6.673 -1.8714  0.8700  1.0824
  585MOL0     H78955   5.949   6.897   6.559  2.0455  1.7738 -0.8837
  585MOL0     H78956   5.822   6.932   6.447 -1.9833  0.1574  0.6237
  585MOL0     H78957   5.422   7.225   6.060  0.8213  0.2488  0.0099
  585MOL0     H78958   5.291   7.179   5.850  2.0496  0.2618 -0.8724
  585MOL0     H78959   5.199   7.079   5.441  0.9808  1.2307  3.1216
  585MOL0     H78960   5.008   6.990   5.293  0.2927 -0.4469 -0.7025
  585MOL0     H78961   5.181   5.970   4.466 -0.4663  0.8297  0.0370
  585MOL0     H78962   5.226   5.786   4.652  1.7323  0.2432  1.0572
  585MOL0     H78963   5.686   5.752   5.025  0.9001 -0.1393 -0.2704
  585MOL0     H78964   5.728   5.622   5.221  0.3333  0.1787  3.3495
  585MOL0     H78965   5.387   5.404   5.392  0.9249 -1.9552 -1.5303
  585MOL0     H78966   5.536   5.321   5.415  4.8802  3.2952 -2.0621
  585MOL0     H78967   5.379   5.502   5.601 -1.2135 -1.8757  2.6402
  585MOL0     H78968   5.551   5.483   5.639 -0.3296 -1.1032  1.3471
  585MOL0     H78969   5.528   5.231   5.659  0.0739 -1.9623  1.7840
  585MOL0     H78970   5.361   5.247   5.610  1.8987 -2.4640  0.5410
  585MOL0     H78971   5.375   5.231   5.853  0.5793 -2.2215 -3.4615
  585MOL0     H78972   5.308   5.386   5.825 -0.0765 -1.8824  1.1542
  585MOL0     H78973   5.683   5.495   5.981 -0.7833 -1.0875 -0.0167
  585MOL0     H78974   5.312   5.562   5.287  1.5374 -1.6239 -0.4445
  585MOL0     H78975   5.258   5.713   5.106 -0.5295  1.2305  0.8574
  586MOL0     O78976   7.186   0.130   5.902 -0.2117  0.0203  0.6948
  586MOL0     C78977   7.205   0.222   5.825  0.9126  0.0786  0.2215
  586MOL0     O78978   7.174   0.229   5.686 -0.1669 -0.2766  0.2634
  586MOL0     C78979   7.145   0.121   5.614  2.0083 -0.1879 -0.8824
  586MOL0     C78980   7.042   0.035   5.658  0.1831 -0.7413 -0.1088
  586MOL0     C78981   7.002  -0.069   5.575  0.6768 -1.1424  0.9646
  586MOL0     C78982   7.084  -0.099   5.464 -0.3400  0.3512  0.1189
  586MOL0     O78983   7.037  -0.209   5.392 -1.1018 -0.0196  0.4126
  586MOL0     C78984   7.042  -0.218   5.255 -0.0714 -0.5614  0.1268
  586MOL0     C78985   6.971  -0.121   5.181  0.1986 -0.6651 -0.2835
  586MOL0     C78986   6.828  -0.078   5.223  0.0296  0.1291 -0.0818
  586MOL0     C78987   6.719  -0.187   5.242 -0.9410 -0.7728 -0.4595
  586MOL0     C78988   6.596  -0.133   5.313 -0.9427 -0.4029 -0.1263
  586MOL0     C78989   6.488  -0.244   5.314 -0.1403 -0.1742  0.0582
  586MOL0     C78990   6.411  -0.257   5.442 -0.0381 -0.4129 -0.0680
  586MOL0     C78991   6.277  -0.182   5.446 -0.5238 -0.2341 -0.0471
  586MOL0     N78992   6.296  -0.036   5.472  0.8460  0.4348 -0.0856
  586MOL0     C78993   6.247   0.066   5.401 -0.7646  0.0998  0.0409
  586MOL0     C78994   6.303   0.176   5.449 -0.2973  0.4803  0.0885
  586MOL0     C78995   6.265   0.312   5.398  0.0327 -0.0408 -0.3613
  586MOL0     C78996   6.135   0.368   5.439  0.7700 -0.3038  0.3967
  586MOL0     C78997   6.097   0.510   5.389  0.3160  0.5631 -0.7574
  586MOL0     C78998   6.037   0.510   5.250 -0.4057 -0.0563 -0.2722
  586MOL0     O78999   6.140   0.478   5.150 -0.3096 -0.2615  0.3377
  586MOL0     C79000   6.102   0.444   5.029 -0.2745  1.0692 -0.1143
  586MOL0     C79001   5.973   0.455   4.975  0.7291 -1.1880  0.6407
  586MOL0     C79002   5.943   0.419   4.844 -0.3222 -0.0426  0.1804
  586MOL0     C79003   5.804   0.451   4.783  0.1956 -0.4158  0.7716
  586MOL0     C79004   6.046   0.364   4.760 -0.5699 -0.2452 -1.0832
  586MOL0     C79005   6.017   0.303   4.642  0.4458  0.6750 -0.1643
  586MOL0     O79006   6.108   0.317   4.540 -0.2177  0.2098  0.2007
  586MOL0     C79007   6.101   0.235   4.435 -0.2303  0.6077  0.4337
  586MOL0     C79008   6.115   0.102   4.442  0.7622  0.1132  0.3430
  586MOL0     C79009   6.095   0.029   4.323  0.2149 -0.3246  0.1806
  586MOL0     C79010   6.059   0.085   4.204  1.0502  0.2832  0.3225
  586MOL0     O79011   6.026   0.012   4.088  0.1753  0.2581 -0.1679
  586MOL0     C79012   6.004  -0.129   4.094 -0.0470 -0.0940  0.1926
  586MOL0     C79013   5.913  -0.187   3.980  0.8274  0.4289  0.2690
  586MOL0     C79014   5.777  -0.137   4.002 -0.1164 -0.4685 -0.7535
  586MOL0     C79015   5.684  -0.172   3.889 -0.3727 -0.2636 -0.8078
  586MOL0     C79016   5.541  -0.199   3.932  0.2033 -0.1950 -0.5961
  586MOL0     C79017   5.463  -0.074   3.901  0.0363 -0.0470  0.0638
  586MOL0     C79018   5.314  -0.107   3.924  0.2311  0.2694  0.0564
  586MOL0     C79019   5.224  -0.046   3.821 -0.8372  0.1298 -0.5717
  586MOL0    Cl79020   5.077  -0.148   3.787 -0.0648  0.2610 -0.0504
  586MOL0     C79021   6.064   0.221   4.189 -0.4737  0.1142  0.3149
  586MOL0     C79022   6.082   0.299   4.308  0.1695 -0.2999  0.2249
  586MOL0     O79023   5.923   0.223   4.642 -0.1295  0.5404  0.5884
  586MOL0     C79024   6.176   0.354   4.813  0.8733 -0.0762 -1.2836
  586MOL0     C79025   6.208   0.397   4.937 -0.8355  0.4951 -0.6653
  586MOL0     N79026   6.367   0.143   5.561 -0.5051  0.8587  0.2457
  586MOL0     N79027   6.373   0.018   5.570  0.4046  0.6741 -0.5469
  586MOL0     C79028   7.185  -0.018   5.420  0.6997 -0.6268  0.0043
  586MOL0     C79029   7.213   0.093   5.498 -1.1216 -0.7655  1.5400
  586MOL0     C79030   7.257   0.345   5.895 -0.1097 -0.9261  0.3218
  586MOL0     C79031   7.268   0.362   6.031 -0.3533 -0.4330  0.3550
  586MOL0     C79032   7.328   0.476   6.076 -0.9769  0.0699  0.2240
  586MOL0     C79033   7.365   0.584   5.995 -0.5821 -0.1953  0.4289
  586MOL0     O79034   7.433   0.698   6.039  0.3482  0.0745 -0.8693
  586MOL0     C79035   7.451   0.718   6.184 -0.8537  0.2385  0.4523
  586MOL0     C79036   7.564   0.626   6.247  0.5129 -0.7471 -0.1058
  586MOL0     C79037   7.614   0.694   6.378 -0.4432 -0.7184  0.2828
  586MOL0     C79038   7.725   0.614   6.437 -0.1041 -0.1388  0.0247
  586MOL0     C79039   7.768   0.669   6.568 -0.6589 -0.4092  0.8646
  586MOL0     C79040   7.813   0.725   6.662  0.4337 -0.7123  0.4793
  586MOL0     C79041   7.362   0.567   5.859  0.2004 -0.2968 -1.1878
  586MOL0     C79042   7.306   0.447   5.809 -0.2433 -0.1561  0.3273
  586MOL0     H79043   6.976   0.061   5.741  2.5427  3.6660  0.6688
  586MOL0     H79044   6.915  -0.131   5.594  1.1105 -2.0694  0.0187
  586MOL0     H79045   7.146  -0.215   5.221 -0.3327  2.9428 -0.8058
  586MOL0     H79046   7.005  -0.314   5.219  2.1479 -1.3547 -0.1940
  586MOL0     H79047   7.032  -0.031   5.185 -1.8256  0.7839 -0.0466
  586MOL0     H79048   6.957  -0.159   5.079 -2.4616 -3.5382  0.9720
  586MOL0     H79049   6.842  -0.029   5.319 -0.1090  0.0651 -0.0276
  586MOL0     H79050   6.785  -0.003   5.156 -0.4662 -0.9705 -1.0245
  586MOL0     H79051   6.695  -0.210   5.137 -0.3070 -0.3378 -0.7041
  586MOL0     H79052   6.767  -0.263   5.304 -1.4224  1.0744  2.3666
  586MOL0     H79053   6.633  -0.111   5.414  2.8702 -0.5255 -1.3412
  586MOL0     H79054   6.563  -0.036   5.273  0.2214  1.0273  2.1433
  586MOL0     H79055   6.422  -0.249   5.227  0.1634 -0.5031 -0.1546
  586MOL0     H79056   6.543  -0.338   5.309  0.0573 -0.0093 -1.3790
  586MOL0     H79057   6.388  -0.363   5.462  0.2802 -0.0799  2.4366
  586MOL0     H79058   6.468  -0.238   5.533  2.7833 -0.2902 -1.7528
  586MOL0     H79059   6.209  -0.222   5.521 -1.6768  1.4232 -0.1538
  586MOL0     H79060   6.208  -0.192   5.361 -4.2447  2.4630  2.3398
  586MOL0     H79061   6.176   0.057   5.319  0.1749  0.1335 -0.7940
  586MOL0     H79062   6.341   0.384   5.432 -2.3404  2.1360  0.6203
  586MOL0     H79063   6.274   0.304   5.289  0.3316  1.2120 -0.4426
  586MOL0     H79064   6.120   0.373   5.547 -0.5673  3.0107  0.1727
  586MOL0     H79065   6.060   0.296   5.407  0.9491 -0.1970 -0.2786
  586MOL0     H79066   6.185   0.574   5.379  2.5186 -2.2996 -1.1072
  586MOL0     H79067   6.024   0.548   5.461 -0.0919  0.1495 -0.9444
  586MOL0     H79068   6.005   0.614   5.235 -0.7888 -0.3110 -1.2946
  586MOL0     H79069   5.952   0.442   5.247 -1.6998  1.4887 -0.3172
  586MOL0     H79070   5.888   0.508   5.017  2.8627  1.7664  1.5362
  586MOL0     H79071   5.735   0.368   4.796 -0.5498  0.1705  0.6680
  586MOL0     H79072   5.766   0.544   4.828  1.6339  0.2319  0.7123
  586MOL0     H79073   5.812   0.469   4.675 -1.3575 -0.5941  0.6037
  586MOL0     H79074   6.136   0.058   4.539 -0.4047  0.9398  1.0057
  586MOL0     H79075   6.122  -0.076   4.329  1.3547 -0.0676 -0.1360
  586MOL0     H79076   6.108  -0.165   4.091  0.6664  1.9100 -1.6454
  586MOL0     H79077   5.958  -0.167   4.186  0.5801  1.7362  1.3367
  586MOL0     H79078   5.954  -0.166   3.881 -1.8544  0.2206 -0.9729
  586MOL0     H79079   5.921  -0.295   3.995 -0.6404  0.5537  2.3642
  586MOL0     H79080   5.767  -0.028   4.012  2.7035 -0.1669 -0.5060
  586MOL0     H79081   5.741  -0.191   4.090  2.6417  1.7560  1.9852
  586MOL0     H79082   5.688  -0.091   3.815 -1.7974  0.8245  0.2259
  586MOL0     H79083   5.729  -0.259   3.840  1.6254 -0.3482  1.0256
  586MOL0     H79084   5.525  -0.216   4.038 -2.6914  0.2559 -0.8836
  586MOL0     H79085   5.502  -0.285   3.876  0.0585 -0.2892 -0.3532
  586MOL0     H79086   5.493   0.014   3.958  0.2797  2.0731 -3.0400
  586MOL0     H79087   5.483  -0.046   3.797  2.9225  0.7450  0.7306
  586MOL0     H79088   5.282  -0.091   4.027 -2.9473 -0.3116 -0.7195
  586MOL0     H79089   5.312  -0.213   3.899 -0.3572  0.4029 -0.4736
  586MOL0     H79090   5.281  -0.024   3.731  1.7041  0.2791  0.9832
  586MOL0     H79091   5.196   0.050   3.865 -2.5378 -1.1113  1.2920
  586MOL0     H79092   6.047   0.272   4.095  1.7098 -1.0369 -0.7741
  586MOL0     H79093   6.081   0.408   4.301 -3.3039 -0.2966 -1.0976
  586MOL0     H79094   6.253   0.300   4.759  0.9350 -2.2844  0.8244
  586MOL0     H79095   6.314   0.396   4.963 -0.0889  1.8862 -3.2852
  586MOL0     H79096   7.246  -0.045   5.334  1.2376  0.1853  0.1141
  586MOL0     H79097   7.292   0.162   5.472 -1.6830 -1.3110 -2.1834
  586MOL0     H79098   7.228   0.289   6.102 -0.4979 -0.1808  0.5334
  586MOL0     H79099   7.345   0.469   6.183 -1.0051  1.1899  0.3141
  586MOL0     H79100   7.484   0.820   6.208 -2.2304  0.2091  2.8363
  586MOL0     H79101   7.359   0.698   6.240 -0.4050  0.0416  1.1297
  586MOL0     H79102   7.646   0.607   6.177  0.7886 -2.6375  0.6572
  586MOL0     H79103   7.527   0.528   6.282  2.0903 -0.4004  2.8729
  586MOL0     H79104   7.529   0.705   6.445 -2.8076  0.3671 -2.6793
  586MOL0     H79105   7.649   0.795   6.355 -0.1160 -0.3611  2.1962
  586MOL0     H79106   7.810   0.596   6.371 -0.1133 -2.7437  0.6204
  586MOL0     H79107   7.681   0.518   6.467 -1.9011  0.5607 -0.3042
  586MOL0     H79108   7.866   0.761   6.748  2.3759  0.8725 -1.2941
  586MOL0     H79109   7.394   0.651   5.798 -1.2411  2.3121  1.3817
  586MOL0     H79110   7.299   0.445   5.701  2.7305  0.2414  0.0514
  587MOL0     O79111  10.911   8.218   7.403 -0.5315 -0.2931  0.0497
  587MOL0     C79112  10.946   8.110   7.344  0.3108  0.2429 -0.3032
  587MOL0     O79113  10.957   7.986   7.403  0.7213 -0.1344 -0.0433
  587MOL0     C79114  10.916   7.954   7.524  0.0548 -0.6185 -0.5892
  587MOL0     C79115  10.814   8.013   7.601  0.5615  0.0443 -1.0973
  587MOL0     C79116  10.778   7.990   7.727 -0.7633  0.5040 -0.5895
  587MOL0     C79117  10.849   7.886   7.796 -0.2383 -0.4752  0.3491
  587MOL0     O79118  10.808   7.855   7.920  0.5143  0.4461  1.0840
  587MOL0     C79119  10.885   7.778   8.004 -0.6816 -0.3297  0.0353
  587MOL0     C79120  10.862   7.628   7.970  0.0984 -0.3787 -0.2338
  587MOL0     C79121  10.869   7.543   8.101  0.5820  0.1436  0.3668
  587MOL0     C79122  11.000   7.567   8.177  0.1204  0.2354 -0.8258
  587MOL0     C79123  11.022   7.466   8.290 -0.1790  0.2018  0.9348
  587MOL0     C79124  11.172   7.451   8.327 -0.1946 -0.5296  0.8948
  587MOL0     C79125  11.210   7.350   8.431  0.2049  0.1711 -0.7426
  587MOL0     C79126  11.268   7.425   8.553  0.4308  0.1922 -0.8169
  587MOL0     N79127  11.401   7.486   8.523 -0.0974 -0.5347  0.0718
  587MOL0     C79128  11.513   7.425   8.474  0.3819  0.0579  0.8950
  587MOL0     C79129  11.615   7.499   8.514 -0.3539 -0.3788  0.7687
  587MOL0     C79130  11.761   7.493   8.529  0.0463  0.8712 -0.4488
  587MOL0     C79131  11.789   7.426   8.668 -0.9937  1.1112 -0.8947
  587MOL0     C79132  11.918   7.340   8.642  0.4464  0.4996 -0.1410
  587MOL0     C79133  11.980   7.316   8.775  0.6003  0.1874  0.2619
  587MOL0     O79134  12.079   7.416   8.796 -0.1958  0.9209  0.1818
  587MOL0     C79135  12.157   7.402   8.909 -0.9371 -1.1692 -1.0572
  587MOL0     C79136  12.140   7.313   9.021  0.5098 -0.1931  0.3676
  587MOL0     C79137  12.209   7.338   9.138  0.0343  0.5148 -0.0081
  587MOL0     C79138  12.187   7.231   9.241 -0.0523  0.0052 -0.1344
  587MOL0     C79139  12.306   7.437   9.148 -0.6969 -0.5604  0.4858
  587MOL0     C79140  12.391   7.468   9.261  0.0066 -0.0316 -0.2047
  587MOL0     O79141  12.418   7.599   9.287  0.8173 -0.6107 -0.4698
  587MOL0     C79142  12.457   7.644   9.408 -0.6920  0.8920 -1.0200
  587MOL0     C79143  12.447   7.576   9.531 -0.0107 -1.0121  0.1035
  587MOL0     C79144  12.483   7.631   9.658 -0.0532 -0.4398  0.2383
  587MOL0     C79145  12.535   7.762   9.663  0.3113  0.5105  0.4472
  587MOL0     O79146  12.579   7.831   9.777  0.2735  0.8062  0.2084
  587MOL0     C79147  12.622   7.744   9.883  0.4003 -0.1095  0.6007
  587MOL0     C79148  12.664   7.818  10.015  0.4467 -0.0416  1.0178
  587MOL0     C79149  12.744   7.717  10.105 -0.8597  0.0905  0.4571
  587MOL0     C79150  12.800   7.787  10.235 -0.0679  0.6748  0.1924
  587MOL0     C79151  12.701   7.846  10.340 -0.0377  0.4583 -0.0754
  587MOL0     C79152  12.771   7.865  10.475 -0.1089 -0.1001 -1.2709
  587MOL0     C79153  12.661   7.849  10.585 -0.9197  0.3111 -0.5330
  587MOL0     C79154  12.628   7.703  10.615  0.0691 -0.0750  0.1127
  587MOL0    Cl79155  12.729   7.663  10.767  0.7263  0.4450  0.2060
  587MOL0     C79156  12.544   7.829   9.537 -0.2812  0.9763 -0.2985
  587MOL0     C79157  12.504   7.770   9.416 -0.4126 -0.1111  0.0043
  587MOL0     O79158  12.442   7.375   9.320 -0.6431 -0.8389 -0.1360
  587MOL0     C79159  12.318   7.522   9.037 -0.0481 -1.1659 -0.0808
  587MOL0     C79160  12.243   7.507   8.918 -0.1514  0.1940  0.6385
  587MOL0     N79161  11.560   7.625   8.552  0.0358  0.3072 -0.5931
  587MOL0     N79162  11.431   7.612   8.553 -0.8620  0.1867 -0.4605
  587MOL0     C79163  10.952   7.823   7.725  1.0194  0.0309 -0.4013
  587MOL0     C79164  10.988   7.855   7.593  0.1217  0.3307  0.3114
  587MOL0     C79165  11.002   8.138   7.213  0.1883 -0.6042  0.0860
  587MOL0     C79166  10.982   8.256   7.147 -0.3160 -0.0325  0.2510
  587MOL0     C79167  11.051   8.280   7.031  0.2955 -1.0804  0.3842
  587MOL0     C79168  11.145   8.186   6.984 -0.6804  0.7600  0.2875
  587MOL0     O79169  11.231   8.225   6.879 -0.2414 -0.9678  0.2716
  587MOL0     C79170  11.345   8.300   6.921  0.8849 -0.1452 -0.0683
  587MOL0     C79171  11.474   8.216   6.881  0.6501 -0.1111 -0.1274
  587MOL0     C79172  11.606   8.290   6.899  0.6952  0.7043  0.4155
  587MOL0     C79173  11.736   8.203   6.909  0.9443 -0.7013  0.2897
  587MOL0     C79174  11.853   8.280   6.932 -0.8680  0.5489  0.9509
  587MOL0     C79175  11.950   8.353   6.944 -0.8033 -1.0669  0.6114
  587MOL0     C79176  11.166   8.063   7.040  0.3910  0.1542  0.6607
  587MOL0     C79177  11.087   8.038   7.148  0.1025 -0.7586 -0.0347
  587MOL0     H79178  10.751   8.072   7.535  0.6489 -2.4161 -3.5645
  587MOL0     H79179  10.699   8.051   7.767 -0.0130  1.1783 -0.0992
  587MOL0     H79180  10.992   7.801   7.994 -0.8965  1.8476  1.8741
  587MOL0     H79181  10.849   7.802   8.104  0.2883  2.5929 -0.2213
  587MOL0     H79182  10.764   7.610   7.925 -0.5634  0.4026  0.8482
  587MOL0     H79183  10.939   7.580   7.909  0.5730 -0.2535  0.2496
  587MOL0     H79184  10.784   7.552   8.169  1.5372  0.4326  1.5650
  587MOL0     H79185  10.880   7.438   8.074  2.0208  0.4315 -0.2620
  587MOL0     H79186  11.080   7.566   8.101 -0.2311  3.5144 -1.3906
  587MOL0     H79187  11.003   7.659   8.235  4.2489 -1.9894  3.2041
  587MOL0     H79188  10.970   7.503   8.378 -0.4757 -0.1454  0.9111
  587MOL0     H79189  10.981   7.369   8.257  1.9227 -0.8990  1.3929
  587MOL0     H79190  11.216   7.426   8.231 -2.9085  2.8304 -1.5153
  587MOL0     H79191  11.206   7.553   8.349 -2.4528  0.6163 -0.4871
  587MOL0     H79192  11.118   7.296   8.457 -1.1260  2.8663  0.6241
  587MOL0     H79193  11.285   7.280   8.396 -0.8909 -2.5608  1.8963
  587MOL0     H79194  11.264   7.358   8.640 -4.8704  1.1728  0.0310
  587MOL0     H79195  11.194   7.504   8.569  1.7953  1.5438 -0.8877
  587MOL0     H79196  11.514   7.325   8.434  0.6603  0.8231 -1.0939
  587MOL0     H79197  11.795   7.435   8.442 -0.1169  1.1888 -0.7266
  587MOL0     H79198  11.811   7.590   8.526  2.4298 -0.2397  0.3350
  587MOL0     H79199  11.708   7.357   8.692 -0.0917 -1.7937 -4.9703
  587MOL0     H79200  11.800   7.499   8.748 -0.1342 -1.3910  1.4196
  587MOL0     H79201  11.997   7.379   8.577  0.5491 -0.4234 -0.5846
  587MOL0     H79202  11.890   7.241   8.605  0.2461  0.6005 -0.2624
  587MOL0     H79203  12.034   7.221   8.774 -0.0732 -0.2094  0.5597
  587MOL0     H79204  11.909   7.316   8.858  0.7831  0.9770  0.4322
  587MOL0     H79205  12.062   7.239   9.029 -0.6137  1.0366  1.4784
  587MOL0     H79206  12.082   7.205   9.232 -0.4408  0.9425  1.3750
  587MOL0     H79207  12.252   7.144   9.231  0.1428 -0.2183  2.4513
  587MOL0     H79208  12.207   7.256   9.346  0.6611 -1.0774  0.0021
  587MOL0     H79209  12.393   7.482   9.528 -0.8580 -0.5260 -3.0780
  587MOL0     H79210  12.469   7.566   9.744 -1.4812 -0.6428 -0.1148
  587MOL0     H79211  12.544   7.675   9.917  1.3492 -1.4281  0.1901
  587MOL0     H79212  12.694   7.674   9.840 -0.7957  0.1526 -1.9864
  587MOL0     H79213  12.727   7.901   9.983 -2.3803  1.6156 -0.5818
  587MOL0     H79214  12.579   7.864  10.067  0.6311  1.8535 -0.2543
  587MOL0     H79215  12.827   7.664  10.058  0.0764  1.2342  0.7722
  587MOL0     H79216  12.676   7.638  10.140 -1.7716  0.1605 -1.0685
  587MOL0     H79217  12.855   7.707  10.286  0.6154  0.8732 -0.2215
  587MOL0     H79218  12.867   7.872  10.220  1.2047 -0.2585  0.3797
  587MOL0     H79219  12.622   7.771  10.356  0.8797 -0.8394 -1.3948
  587MOL0     H79220  12.655   7.929  10.287  0.4002 -1.9570 -4.7305
  587MOL0     H79221  12.851   7.794  10.497 -0.5007 -0.0682  0.4045
  587MOL0     H79222  12.812   7.966  10.489  1.4335 -0.2425 -4.0653
  587MOL0     H79223  12.572   7.904  10.554  0.2180  1.4487 -1.9313
  587MOL0     H79224  12.695   7.892  10.679  1.7171  0.4660 -1.4726
  587MOL0     H79225  12.667   7.643  10.532  0.1242 -1.1568  0.8900
  587MOL0     H79226  12.523   7.676  10.631 -0.5936  2.4960  0.4151
  587MOL0     H79227  12.576   7.933   9.533 -0.8537  1.1177 -2.5041
  587MOL0     H79228  12.507   7.828   9.325  1.0048 -1.3231 -0.7692
  587MOL0     H79229  12.374   7.615   9.041 -2.2633  0.2901 -0.9800
  587MOL0     H79230  12.246   7.590   8.848  1.1799  0.6508  1.2016
  587MOL0     H79231  11.017   7.750   7.772  4.1573  0.7089 -3.2738
  587MOL0     H79232  11.069   7.804   7.542 -2.5798 -0.1868 -3.9434
  587MOL0     H79233  10.907   8.329   7.177 -0.5518  0.4736 -1.4512
  587MOL0     H79234  11.038   8.374   6.978  1.1242 -1.3537 -0.3316
  587MOL0     H79235  11.355   8.401   6.882  4.0405 -0.5009 -0.3999
  587MOL0     H79236  11.354   8.304   7.030  1.8327 -0.1725 -0.1370
  587MOL0     H79237  11.467   8.203   6.772  0.7710 -2.8096  0.1180
  587MOL0     H79238  11.479   8.119   6.931 -1.6220  0.8714  2.2508
  587MOL0     H79239  11.599   8.341   6.996 -1.9090  1.4045 -0.0698
  587MOL0     H79240  11.617   8.370   6.825  1.2106  1.1513  0.9551
  587MOL0     H79241  11.762   8.161   6.811  1.8623  1.3542 -0.4030
  587MOL0     H79242  11.737   8.127   6.987  1.4944 -0.1642  0.8145
  587MOL0     H79243  12.036   8.415   6.961 -3.9855  4.0679  0.0097
  587MOL0     H79244  11.245   8.001   6.998  0.6436 -0.5577  2.1157
  587MOL0     H79245  11.106   7.939   7.189  1.8361 -0.6135 -0.3875
  588MOL0     O79246   2.218   4.784   1.378  0.6116 -0.0295 -0.1225
  588MOL0     C79247   2.221   4.744   1.261  0.4639  0.8248  0.0297
  588MOL0     O79248   2.303   4.800   1.162  0.5106 -0.2714  0.2500
  588MOL0     C79249   2.406   4.885   1.194  0.1734  0.4958 -0.4278
  588MOL0     C79250   2.495   4.847   1.291 -0.5712 -0.4647  0.1000
  588MOL0     C79251   2.593   4.940   1.335  1.2111 -0.4917  0.0807
  588MOL0     C79252   2.608   5.067   1.276 -1.0331  0.8764  0.2907
  588MOL0     O79253   2.708   5.150   1.304 -0.3959 -0.2553 -0.6231
  588MOL0     C79254   2.840   5.104   1.354  0.4096  0.1379  0.4806
  588MOL0     C79255   2.895   5.001   1.257 -0.3721  0.3614 -0.3352
  588MOL0     C79256   3.047   4.970   1.279  0.1252 -0.2641  0.6268
  588MOL0     C79257   3.085   4.876   1.383  0.2190  0.6779  0.5194
  588MOL0     C79258   3.055   4.726   1.337 -0.2778 -1.4280 -0.6253
  588MOL0     C79259   3.086   4.630   1.456 -0.6501  0.0868 -0.1200
  588MOL0     C79260   3.006   4.500   1.450 -0.4216 -0.1634  0.6068
  588MOL0     C79261   3.084   4.392   1.536 -0.4083  0.1787  0.0622
  588MOL0     N79262   3.020   4.257   1.526  0.5570 -0.4176 -0.1177
  588MOL0     C79263   2.926   4.220   1.620 -0.3677  0.3102  0.1402
  588MOL0     C79264   2.882   4.101   1.571 -0.4744  0.3847 -0.1957
  588MOL0     C79265   2.787   4.006   1.629  0.3659  0.3770 -0.7949
  588MOL0     C79266   2.640   3.995   1.569 -1.6212  0.6309 -1.3989
  588MOL0     C79267   2.578   3.861   1.591  0.0945 -0.0497  0.0987
  588MOL0     C79268   2.668   3.757   1.518  0.2686  1.1254  0.1504
  588MOL0     O79269   2.693   3.791   1.381 -0.0644  0.5576 -0.2089
  588MOL0     C79270   2.604   3.764   1.281  1.0848  0.4561 -0.1480
  588MOL0     C79271   2.646   3.808   1.167  0.1845  0.4049  0.0831
  588MOL0     C79272   2.571   3.793   1.048 -0.8516 -0.3251 -0.5133
  588MOL0     C79273   2.634   3.841   0.917 -0.9073  0.6874  0.3932
  588MOL0     C79274   2.452   3.723   1.053  0.2221  0.9362 -0.4639
  588MOL0     C79275   2.358   3.689   0.939  1.0922 -0.5854 -0.3188
  588MOL0     O79276   2.278   3.576   0.956  0.1267 -1.1342 -0.5551
  588MOL0     C79277   2.204   3.539   0.848 -0.2486 -0.7308  0.0228
  588MOL0     C79278   2.268   3.514   0.721 -1.0617  0.5314 -0.7922
  588MOL0     C79279   2.192   3.470   0.619  0.5999  0.2921 -0.0593
  588MOL0     C79280   2.050   3.450   0.627 -0.3168  1.0945  0.2902
  588MOL0     O79281   1.977   3.382   0.531 -0.2712  0.6869 -0.5392
  588MOL0     C79282   1.956   3.451   0.415 -0.1955  0.2212  0.0077
  588MOL0     C79283   1.807   3.451   0.377  0.6920 -0.2230  0.7334
  588MOL0     C79284   1.766   3.310   0.312 -0.7084  0.1135  0.3258
  588MOL0     C79285   1.622   3.328   0.268 -0.2612 -1.1761 -0.1719
  588MOL0     C79286   1.584   3.210   0.187  0.3222  0.8198 -0.0521
  588MOL0     C79287   1.445   3.164   0.214  0.1511  0.0723  0.0337
  588MOL0     C79288   1.336   3.248   0.143 -0.6346 -0.1840 -0.2774
  588MOL0     C79289   1.213   3.164   0.110  0.1172 -0.5123  0.6764
  588MOL0    Cl79290   1.077   3.261   0.032  0.0862 -0.0728 -0.4796
  588MOL0     C79291   1.993   3.477   0.753 -0.1191 -0.1008  1.1485
  588MOL0     C79292   2.065   3.521   0.864 -0.3806  1.1725  0.1547
  588MOL0     O79293   2.331   3.780   0.859  0.5585  0.1213 -0.4758
  588MOL0     C79294   2.405   3.676   1.177  0.2874 -0.0843 -0.6939
  588MOL0     C79295   2.475   3.706   1.294 -0.8158 -0.3858 -0.0941
  588MOL0     N79296   2.945   4.079   1.456  0.9585 -0.8187  0.4765
  588MOL0     N79297   3.029   4.169   1.426  0.0563 -0.4499  0.2909
  588MOL0     C79298   2.517   5.094   1.169  0.0035 -0.0683 -0.6071
  588MOL0     C79299   2.425   5.001   1.130 -0.6551  0.0182 -0.1258
  588MOL0     C79300   2.127   4.640   1.220 -0.4483 -0.0186  1.2940
  588MOL0     C79301   2.021   4.586   1.305 -0.3068 -1.7832 -0.2117
  588MOL0     C79302   1.949   4.473   1.264 -0.4489  0.0903 -1.1534
  588MOL0     C79303   1.956   4.432   1.132  0.3593  0.7072  0.2824
  588MOL0     O79304   1.889   4.319   1.084  0.2728  0.2911 -0.1513
  588MOL0     C79305   1.761   4.278   1.143 -0.5350  1.6053 -0.2486
  588MOL0     C79306   1.652   4.391   1.138 -1.0234  0.5258  0.2444
  588MOL0     C79307   1.599   4.421   0.996  0.2437 -1.2385 -0.3380
  588MOL0     C79308   1.680   4.508   0.897 -0.0387 -0.8277  0.4272
  588MOL0     C79309   1.697   4.654   0.930 -0.3507  0.2393  1.6245
  588MOL0     C79310   1.728   4.769   0.948  0.2497  1.5604  0.0134
  588MOL0     C79311   2.039   4.499   1.038  1.0768 -0.2674 -0.3715
  588MOL0     C79312   2.133   4.595   1.082 -0.2265 -1.4669  0.1979
  588MOL0     H79313   2.487   4.755   1.349 -0.4348 -0.0063  0.8479
  588MOL0     H79314   2.658   4.916   1.419 -0.0699 -0.6044  1.0600
  588MOL0     H79315   2.898   5.196   1.340  1.8754 -0.9582 -0.9787
  588MOL0     H79316   2.834   5.071   1.458  1.3617 -1.3133  0.1079
  588MOL0     H79317   2.841   4.907   1.244  2.2722 -1.2747 -0.0636
  588MOL0     H79318   2.894   5.054   1.161  2.7807  0.7456 -0.2568
  588MOL0     H79319   3.089   4.921   1.191 -2.5640 -0.6738 -0.5401
  588MOL0     H79320   3.093   5.066   1.302  1.7801 -0.9539  0.3270
  588MOL0     H79321   3.192   4.889   1.403  0.7894  3.3841 -3.2831
  588MOL0     H79322   3.025   4.895   1.472 -0.9776 -0.5018  0.0134
  588MOL0     H79323   2.951   4.718   1.305 -0.8738 -2.1693  1.3835
  588MOL0     H79324   3.114   4.705   1.246  1.3590 -0.3883  0.1442
  588MOL0     H79325   3.193   4.611   1.445 -0.3421  1.8543 -0.3909
  588MOL0     H79326   3.070   4.684   1.549  1.0649  0.2279  0.1271
  588MOL0     H79327   2.904   4.510   1.489 -1.6876  1.1168 -2.6793
  588MOL0     H79328   3.011   4.481   1.343 -0.6820  2.7012  0.0017
  588MOL0     H79329   3.096   4.422   1.640 -1.7284 -0.6306  0.4661
  588MOL0     H79330   3.186   4.379   1.499 -1.1998 -4.9402 -1.0889
  588MOL0     H79331   2.905   4.268   1.715  0.4192  1.1910 -0.1163
  588MOL0     H79332   2.849   3.918   1.608  2.4802  1.1627  1.5765
  588MOL0     H79333   2.780   4.024   1.737 -1.2767 -0.5140 -0.7149
  588MOL0     H79334   2.640   4.039   1.469 -0.7695  4.1784  0.0148
  588MOL0     H79335   2.579   4.074   1.614  0.3766  1.0339  0.8318
  588MOL0     H79336   2.476   3.875   1.555 -1.0171  0.6111  3.1877
  588MOL0     H79337   2.577   3.832   1.697  1.7055 -2.7294 -0.5247
  588MOL0     H79338   2.630   3.655   1.524  1.5248  0.7149  2.2271
  588MOL0     H79339   2.762   3.736   1.570  0.9605  4.7880  0.6889
  588MOL0     H79340   2.742   3.857   1.167 -0.8721  2.6424 -1.4074
  588MOL0     H79341   2.741   3.823   0.911 -1.3001 -1.8175  0.0028
  588MOL0     H79342   2.575   3.783   0.846  1.2240 -1.4371  0.2395
  588MOL0     H79343   2.609   3.947   0.901 -1.2006  0.3540 -1.6033
  588MOL0     H79344   2.376   3.525   0.714 -0.6255  0.3891  3.1393
  588MOL0     H79345   2.248   3.455   0.528  0.3918 -2.3960  0.1932
  588MOL0     H79346   1.990   3.555   0.422 -2.3760  0.9795  0.1395
  588MOL0     H79347   2.007   3.397   0.335 -2.3253 -0.4937 -0.9284
  588MOL0     H79348   1.742   3.482   0.460 -0.9445 -0.5514 -0.3803
  588MOL0     H79349   1.795   3.526   0.299  0.4864 -1.5757 -0.5836
  588MOL0     H79350   1.769   3.230   0.386 -0.2714  0.9139  1.2033
  588MOL0     H79351   1.838   3.285   0.234 -0.4457  1.4155  0.1222
  588MOL0     H79352   1.563   3.350   0.357  0.7262 -0.3710  0.3015
  588MOL0     H79353   1.615   3.418   0.207 -2.2274 -0.5030  0.9671
  588MOL0     H79354   1.658   3.131   0.192 -0.8381 -0.2550  0.6302
  588MOL0     H79355   1.590   3.235   0.080  0.3371  3.0127  0.4100
  588MOL0     H79356   1.440   3.058   0.185  1.9489  0.3750 -1.5920
  588MOL0     H79357   1.433   3.162   0.322  0.2278  1.5781  0.0827
  588MOL0     H79358   1.372   3.290   0.048 -0.4377 -0.6258 -0.4014
  588MOL0     H79359   1.304   3.333   0.203 -0.9029  0.1297 -0.8497
  588MOL0     H79360   1.184   3.137   0.212  0.3716  1.5662  1.3383
  588MOL0     H79361   1.251   3.088   0.042  0.6188  2.5940 -2.8278
  588MOL0     H79362   1.888   3.449   0.765 -0.9625  1.4625 -1.8135
  588MOL0     H79363   2.028   3.538   0.964  2.7739 -0.3209  1.7219
  588MOL0     H79364   2.307   3.630   1.186  0.4196 -0.0622  1.3479
  588MOL0     H79365   2.440   3.671   1.391  0.6030 -0.6004  0.3639
  588MOL0     H79366   2.525   5.194   1.128  1.3133  0.3773  0.6556
  588MOL0     H79367   2.352   5.032   1.056 -1.6869 -2.1790 -0.1188
  588MOL0     H79368   2.018   4.617   1.409 -0.7658 -1.7415 -0.2324
  588MOL0     H79369   1.877   4.424   1.329  1.5186  0.8101  1.7582
  588MOL0     H79370   1.729   4.196   1.078 -1.0786  2.4137 -1.0284
  588MOL0     H79371   1.780   4.253   1.248  0.0118  2.6467 -0.0872
  588MOL0     H79372   1.680   4.481   1.195 -2.2578  2.4816 -2.0601
  588MOL0     H79373   1.561   4.355   1.186  2.4041 -1.7354  6.0786
  588MOL0     H79374   1.500   4.467   1.007 -0.7786 -3.5432  0.9160
  588MOL0     H79375   1.583   4.331   0.936 -2.4401 -0.1557 -1.4053
  588MOL0     H79376   1.627   4.503   0.802  1.2500 -1.0468 -0.3075
  588MOL0     H79377   1.775   4.459   0.874 -0.5272 -1.6116  0.0556
  588MOL0     H79378   1.750   4.874   0.948 -2.1198  2.1013 -0.3695
  588MOL0     H79379   2.033   4.479   0.931 -0.8975 -0.7605 -0.2027
  588MOL0     H79380   2.208   4.629   1.011 -0.6194 -1.9905 -0.4759
  589MOL0     O79381   5.546   3.048   7.589  0.1307  0.0348 -0.5990
  589MOL0     C79382   5.587   3.164   7.570 -0.7378 -0.3949  0.0991
  589MOL0     O79383   5.534   3.263   7.490 -0.3029 -1.0077 -0.1037
  589MOL0     C79384   5.428   3.230   7.418  0.0837  0.2254 -0.0582
  589MOL0     C79385   5.441   3.128   7.315 -0.3201 -0.0065 -0.5738
  589MOL0     C79386   5.347   3.109   7.217  0.8719  0.2571  0.9400
  589MOL0     C79387   5.215   3.163   7.245 -0.1856 -0.0109  0.0187
  589MOL0     O79388   5.126   3.125   7.152  0.6586 -0.2763  0.1332
  589MOL0     C79389   5.036   3.217   7.089 -0.4891 -0.5641  0.4575
  589MOL0     C79390   4.979   3.153   6.962 -0.5209 -0.1880  0.0801
  589MOL0     C79391   4.952   3.265   6.861  0.0272  0.1124 -0.3821
  589MOL0     C79392   4.920   3.208   6.725 -0.2477 -0.6217 -0.1705
  589MOL0     C79393   4.892   3.323   6.633  0.1639 -0.6698 -0.0388
  589MOL0     C79394   4.863   3.282   6.489 -0.2133  1.5420  0.2744
  589MOL0     C79395   4.817   3.398   6.392  0.6317 -0.4074  0.6941
  589MOL0     C79396   4.753   3.350   6.257 -0.1082 -0.2492 -1.0461
  589MOL0     N79397   4.616   3.313   6.250  0.7952  0.5956  0.3806
  589MOL0     C79398   4.505   3.396   6.268 -0.8958  0.3878 -0.1641
  589MOL0     C79399   4.400   3.317   6.242 -0.1347 -0.4903  0.9460
  589MOL0     C79400   4.256   3.366   6.234  0.6384  0.2223  0.4182
  589MOL0     C79401   4.229   3.471   6.131 -0.7097  0.1798 -0.6493
  589MOL0     C79402   4.248   3.428   5.984  0.4407  0.6109  0.2427
  589MOL0     C79403   4.241   3.546   5.894  0.7269 -0.8851 -0.2700
  589MOL0     O79404   4.146   3.647   5.932  1.0307  0.6927  0.0809
  589MOL0     C79405   4.145   3.766   5.862 -0.3367 -0.3769  0.5761
  589MOL0     C79406   4.046   3.863   5.903  1.1104 -0.0416  0.5283
  589MOL0     C79407   4.021   3.978   5.831 -0.2568  0.0551  0.2462
  589MOL0     C79408   3.894   4.055   5.868 -0.7675  0.2364  0.4148
  589MOL0     C79409   4.100   4.011   5.714  0.9485  0.0663 -0.2292
  589MOL0     C79410   4.067   4.116   5.615  0.0775 -1.4822  0.4874
  589MOL0     O79411   4.126   4.106   5.491 -0.1770  0.1790 -0.5372
  589MOL0     C79412   4.072   4.165   5.386  1.1465  0.3228 -0.5893
  589MOL0     C79413   3.973   4.109   5.305 -0.1467  0.0492  0.1602
  589MOL0     C79414   3.921   4.167   5.196  0.0898 -0.0761 -0.8296
  589MOL0     C79415   3.963   4.297   5.172 -0.2903  0.6013  1.2360
  589MOL0     O79416   3.904   4.365   5.066  0.5265  0.1528 -0.5137
  589MOL0     C79417   3.820   4.479   5.113 -0.1584  0.1726 -0.2782
  589MOL0     C79418   3.765   4.565   5.002  0.8589 -0.4061 -0.5143
  589MOL0     C79419   3.670   4.669   5.067  0.5986  0.1206 -1.1218
  589MOL0     C79420   3.747   4.788   5.128 -0.8880  0.1518  0.4965
  589MOL0     C79421   3.647   4.894   5.180 -0.0199  0.8438  0.0927
  589MOL0     C79422   3.711   5.024   5.240  0.2349 -0.7163 -0.2852
  589MOL0     C79423   3.799   5.102   5.145 -0.3129  0.0493 -0.7940
  589MOL0     C79424   3.796   5.245   5.192 -0.0032 -0.3990  0.1503
  589MOL0    Cl79425   3.646   5.341   5.167 -0.1963 -0.1058  0.3648
  589MOL0     C79426   4.078   4.343   5.229 -0.7527 -0.1053 -0.9576
  589MOL0     C79427   4.133   4.276   5.343 -0.0906 -0.2664 -0.2832
  589MOL0     O79428   3.991   4.208   5.641  0.0153 -0.3674 -0.1399
  589MOL0     C79429   4.199   3.925   5.685 -0.6314 -0.4182 -0.0967
  589MOL0     C79430   4.222   3.802   5.755  0.4765 -0.3363 -0.4089
  589MOL0     N79431   4.438   3.192   6.225 -0.6808  0.4397  0.2353
  589MOL0     N79432   4.569   3.185   6.248 -0.1899  0.3260  0.9785
  589MOL0     C79433   5.202   3.248   7.357  0.5385 -0.6359 -0.3888
  589MOL0     C79434   5.306   3.288   7.433 -0.2585 -0.1474  0.0435
  589MOL0     C79435   5.718   3.203   7.633 -0.2373  0.6202  0.0883
  589MOL0     C79436   5.797   3.098   7.693  0.5760 -0.5096  0.1808
  589MOL0     C79437   5.922   3.125   7.758  0.9708  0.3637  0.3189
  589MOL0     C79438   5.969   3.258   7.763 -0.1303 -0.4995 -0.5837
  589MOL0     O79439   6.078   3.304   7.842 -0.0600  0.9073  0.3237
  589MOL0     C79440   6.181   3.218   7.903  0.3585 -0.1093  0.4398
  589MOL0     C79441   6.320   3.270   7.872 -0.3440  0.2506  0.4005
  589MOL0     C79442   6.366   3.259   7.727 -0.6003 -1.2474  0.5077
  589MOL0     C79443   6.514   3.301   7.702  0.4859  0.5945 -0.8419
  589MOL0     C79444   6.537   3.443   7.705 -0.2291 -0.6303  0.7392
  589MOL0     C79445   6.541   3.564   7.711  0.8073  0.2692 -0.4995
  589MOL0     C79446   5.882   3.355   7.703 -0.1239 -0.8281  0.2347
  589MOL0     C79447   5.767   3.332   7.637 -0.5285 -0.5403 -0.7488
  589MOL0     H79448   5.540   3.085   7.304 -0.8593 -1.9873  1.6492
  589MOL0     H79449   5.359   3.020   7.155 -0.5008 -2.0479  3.7421
  589MOL0     H79450   4.954   3.233   7.160 -1.8076 -1.5106 -0.7806
  589MOL0     H79451   5.081   3.314   7.070 -0.2405 -0.4965  1.3561
  589MOL0     H79452   5.047   3.095   6.898 -2.1822  2.0530 -4.0853
  589MOL0     H79453   4.894   3.092   6.994  0.0511 -0.8327  0.4003
  589MOL0     H79454   4.863   3.318   6.893 -0.0962 -1.1309  1.5196
  589MOL0     H79455   5.040   3.328   6.844 -0.0065 -0.0031 -1.0237
  589MOL0     H79456   4.995   3.133   6.699 -1.1821 -1.9587  0.8427
  589MOL0     H79457   4.828   3.149   6.737 -2.3317  2.3616 -0.3855
  589MOL0     H79458   4.801   3.373   6.668  0.2647 -0.8034  0.4086
  589MOL0     H79459   4.972   3.397   6.644 -0.4079 -0.1504  0.7322
  589MOL0     H79460   4.948   3.232   6.441 -2.2504 -1.1880 -0.6892
  589MOL0     H79461   4.795   3.197   6.493  1.7084 -0.5171 -4.3435
  589MOL0     H79462   4.736   3.452   6.441 -0.5712 -0.0802 -1.5038
  589MOL0     H79463   4.900   3.464   6.366  0.0651 -0.3156 -0.9901
  589MOL0     H79464   4.818   3.271   6.218 -1.9586 -2.0014 -0.7729
  589MOL0     H79465   4.759   3.432   6.186 -1.5956 -0.3181 -1.3044
  589MOL0     H79466   4.500   3.499   6.301  2.9581  0.6055  0.1951
  589MOL0     H79467   4.182   3.288   6.216  0.3643  0.2162  1.5278
  589MOL0     H79468   4.230   3.401   6.334 -0.1889  0.5498  0.1026
  589MOL0     H79469   4.302   3.547   6.161 -1.1760  1.4326 -2.4483
  589MOL0     H79470   4.134   3.522   6.151  0.3317  1.4574  1.3579
  589MOL0     H79471   4.174   3.349   5.965  0.0387  0.5639  1.8127
  589MOL0     H79472   4.346   3.383   5.966  1.0660  1.2351  1.9217
  589MOL0     H79473   4.206   3.515   5.795  1.1851  0.3080 -0.8349
  589MOL0     H79474   4.335   3.602   5.890 -0.7829  1.8682  0.2377
  589MOL0     H79475   3.974   3.833   5.978  0.1379 -1.2946 -0.8338
  589MOL0     H79476   3.857   4.031   5.968 -0.8590 -0.0087  0.3212
  589MOL0     H79477   3.923   4.160   5.874 -0.6463  0.1463  1.5626
  589MOL0     H79478   3.819   4.035   5.791  1.1506 -1.2856 -1.1515
  589MOL0     H79479   3.934   4.013   5.338 -4.0912  2.2360  2.5465
  589MOL0     H79480   3.845   4.124   5.132 -0.4278  1.0579 -1.0134
  589MOL0     H79481   3.739   4.448   5.180 -1.3025  2.9668 -0.2142
  589MOL0     H79482   3.890   4.539   5.172 -1.9414  0.1662  2.0257
  589MOL0     H79483   3.851   4.604   4.947  0.8174 -1.8947 -1.6831
  589MOL0     H79484   3.713   4.497   4.934  1.0382 -1.7371  0.6301
  589MOL0     H79485   3.610   4.620   5.144  3.1983 -0.9362  0.3491
  589MOL0     H79486   3.599   4.702   4.991 -1.4341  3.8709  2.0424
  589MOL0     H79487   3.811   4.754   5.210  1.8869 -1.1043 -1.9634
  589MOL0     H79488   3.818   4.814   5.049 -0.6382 -0.1649  0.6120
  589MOL0     H79489   3.584   4.845   5.255  1.7676 -3.7479 -1.1223
  589MOL0     H79490   3.588   4.922   5.092 -0.8214 -0.0980  0.3069
  589MOL0     H79491   3.636   5.094   5.279  0.2253 -0.8243 -0.1106
  589MOL0     H79492   3.774   5.008   5.328  1.0402 -0.1638 -0.7407
  589MOL0     H79493   3.758   5.097   5.043 -0.4169  2.7334 -0.9497
  589MOL0     H79494   3.896   5.051   5.152  0.6751  2.0724  2.9112
  589MOL0     H79495   3.883   5.304   5.162  2.9430 -2.7043  3.2546
  589MOL0     H79496   3.814   5.236   5.300 -1.7445  1.6547  0.6708
  589MOL0     H79497   4.123   4.428   5.179  1.6714 -0.9591 -0.3553
  589MOL0     H79498   4.227   4.307   5.389 -0.9102  3.1324 -0.6762
  589MOL0     H79499   4.276   3.958   5.616  1.4982 -1.6557  1.5537
  589MOL0     H79500   4.296   3.739   5.705 -2.2246 -4.4265  0.2496
  589MOL0     H79501   5.111   3.305   7.371  1.9343  1.8230 -0.8761
  589MOL0     H79502   5.291   3.353   7.519 -0.8451  0.2998 -0.3858
  589MOL0     H79503   5.747   3.002   7.701 -0.2463 -0.0651  0.4005
  589MOL0     H79504   5.979   3.036   7.785 -1.7009 -0.7755  2.7824
  589MOL0     H79505   6.172   3.196   8.009 -1.6467 -0.0377  0.3153
  589MOL0     H79506   6.175   3.120   7.855  2.9267  0.9584 -2.4331
  589MOL0     H79507   6.389   3.212   7.934 -0.0771 -0.9463 -0.9606
  589MOL0     H79508   6.336   3.370   7.914  2.1705 -0.3292  1.0091
  589MOL0     H79509   6.302   3.328   7.671  1.3785 -0.8263 -1.3728
  589MOL0     H79510   6.341   3.159   7.691  0.6101 -1.1698 -0.6331
  589MOL0     H79511   6.554   3.273   7.604  2.5284  1.3420 -0.2725
  589MOL0     H79512   6.571   3.244   7.776  2.1096 -1.7576 -3.6690
  589MOL0     H79513   6.543   3.671   7.723  3.5539  0.3367 -0.7973
  589MOL0     H79514   5.917   3.456   7.722 -3.0823 -0.0412  2.1584
  589MOL0     H79515   5.701   3.411   7.601 -1.7226 -1.1902 -0.0549
  590MOL0     O79516  10.451   9.446   3.986  0.1867 -0.2570  0.1247
  590MOL0     C79517  10.382   9.448   3.888 -1.0320  0.2338 -0.0185
  590MOL0     O79518  10.408   9.379   3.772  0.2966 -0.2629  0.3843
  590MOL0     C79519  10.526   9.323   3.739 -0.4837  0.4027 -0.2489
  590MOL0     C79520  10.646   9.389   3.738  0.3342  0.1013  0.1357
  590MOL0     C79521  10.763   9.338   3.681  0.2425  0.4185 -0.0968
  590MOL0     C79522  10.769   9.224   3.602 -0.0018 -0.1631 -0.2670
  590MOL0     O79523  10.883   9.189   3.543 -0.2625 -0.1673 -0.3386
  590MOL0     C79524  10.874   9.126   3.412  0.2828 -0.3301  0.6890
  590MOL0     C79525  11.017   9.109   3.362  0.7427 -0.1121  0.7473
  590MOL0     C79526  11.038   9.000   3.260  0.7106 -0.0121 -0.2083
  590MOL0     C79527  11.183   9.024   3.209 -0.2698 -0.3468 -0.5484
  590MOL0     C79528  11.300   8.990   3.307  0.6320 -0.2870  0.3536
  590MOL0     C79529  11.436   8.998   3.226  0.5876  0.0102 -0.9868
  590MOL0     C79530  11.555   8.968   3.322  0.1333 -0.2139 -0.8372
  590MOL0     C79531  11.687   8.973   3.236  0.8661 -0.0423  0.3277
  590MOL0     N79532  11.793   8.906   3.301 -0.6033 -0.4404 -0.0014
  590MOL0     C79533  11.841   8.778   3.286  0.8448 -0.7200  0.0794
  590MOL0     C79534  11.950   8.764   3.359 -0.8809 -0.1034  0.9012
  590MOL0     C79535  12.036   8.641   3.367  0.3942 -0.4352 -0.6083
  590MOL0     C79536  12.069   8.599   3.520 -0.1354 -0.4057  0.8830
  590MOL0     C79537  12.110   8.454   3.525 -0.2733 -0.2670  0.0753
  590MOL0     C79538  12.120   8.405   3.663 -0.4386 -0.7086  0.2453
  590MOL0     O79539  12.109   8.263   3.643  0.0505 -0.6365 -0.2082
  590MOL0     C79540  12.154   8.179   3.738  0.6138 -0.6252  0.1463
  590MOL0     C79541  12.169   8.048   3.713  1.0215  0.1409  0.6472
  590MOL0     C79542  12.213   7.956   3.820 -0.2465  0.1121  0.7318
  590MOL0     C79543  12.223   7.820   3.776  0.1645  0.4559  0.0408
  590MOL0     C79544  12.228   7.999   3.951  0.4686 -0.2458 -0.3491
  590MOL0     C79545  12.244   7.907   4.066 -0.7096 -0.1222 -0.2426
  590MOL0     O79546  12.271   7.771   4.040  0.1556  0.1834  0.4640
  590MOL0     C79547  12.319   7.703   4.146  0.3548 -0.2321 -0.1915
  590MOL0     C79548  12.230   7.636   4.226  0.4719  2.3365  0.7641
  590MOL0     C79549  12.273   7.538   4.314  0.7628  0.0349 -0.4037
  590MOL0     C79550  12.407   7.528   4.344  0.4838 -0.4456 -0.2653
  590MOL0     O79551  12.462   7.456   4.449  0.5729 -0.5872 -0.2947
  590MOL0     C79552  12.376   7.418   4.561 -0.8079 -0.2520 -0.9242
  590MOL0     C79553  12.464   7.334   4.649 -0.2552 -0.1515  0.3664
  590MOL0     C79554  12.582   7.418   4.707 -0.0541 -0.1470  0.1649
  590MOL0     C79555  12.642   7.384   4.844  0.8703  0.1180 -1.4801
  590MOL0     C79556  12.705   7.244   4.860  0.8477 -0.4957  0.1730
  590MOL0     C79557  12.608   7.126   4.844  0.5614  0.3659  0.2541
  590MOL0     C79558  12.688   6.988   4.837  0.0856  0.5717 -0.5188
  590MOL0     C79559  12.608   6.869   4.799 -0.8669 -0.6234  0.9359
  590MOL0    Cl79560  12.493   6.844   4.947 -0.2558 -0.3721 -0.0021
  590MOL0     C79561  12.498   7.598   4.265 -0.5426 -0.5855 -0.8874
  590MOL0     C79562  12.456   7.681   4.161 -0.2766 -0.0125  0.6384
  590MOL0     O79563  12.223   7.951   4.184  0.4624  0.3898  0.3917
  590MOL0     C79564  12.210   8.129   3.973 -0.2814 -1.4204 -0.2467
  590MOL0     C79565  12.189   8.221   3.872  0.0662  0.5321  0.6012
  590MOL0     N79566  11.971   8.884   3.419  0.3354  0.2040 -0.2207
  590MOL0     N79567  11.877   8.972   3.391  0.5773 -0.0566  1.0232
  590MOL0     C79568  10.653   9.143   3.617  0.6686  0.1651 -0.5467
  590MOL0     C79569  10.532   9.194   3.686  0.0446  0.3741 -0.4156
  590MOL0     C79570  10.238   9.499   3.898  0.7797 -0.1805 -1.2250
  590MOL0     C79571  10.152   9.466   3.791 -0.1605 -0.2997 -0.0672
  590MOL0     C79572  10.020   9.519   3.800 -0.4685  0.1293  0.5358
  590MOL0     C79573   9.969   9.587   3.912 -0.5373 -0.5045  0.0281
  590MOL0     O79574   9.843   9.633   3.910  0.0866  0.0323 -0.5123
  590MOL0     C79575   9.761   9.620   3.796 -0.2773  0.0368  0.3378
  590MOL0     C79576   9.667   9.500   3.799 -1.4013 -0.2509  0.0435
  590MOL0     C79577   9.724   9.355   3.784 -0.3730 -0.1647 -0.2872
  590MOL0     C79578   9.638   9.246   3.835 -0.4656 -0.3898 -1.6198
  590MOL0     C79579   9.512   9.239   3.765  0.2988 -0.4446  0.4997
  590MOL0     C79580   9.396   9.231   3.729  1.1361  0.2688 -0.1608
  590MOL0     C79581  10.062   9.613   4.016 -0.1623  0.4042 -0.2221
  590MOL0     C79582  10.195   9.570   4.009  0.1522  0.2242 -1.7203
  590MOL0     H79583  10.652   9.492   3.773 -0.7373  0.4969 -0.8058
  590MOL0     H79584  10.854   9.397   3.690 -0.7892  1.7846  2.1812
  590MOL0     H79585  10.822   9.031   3.400 -0.1977  0.2774 -3.5862
  590MOL0     H79586  10.830   9.193   3.338  1.2566 -0.6029 -0.1629
  590MOL0     H79587  11.054   9.205   3.324 -0.6847  0.2240  0.1300
  590MOL0     H79588  11.070   9.087   3.455 -1.7357 -0.3851  2.2023
  590MOL0     H79589  11.025   8.900   3.304  4.7297 -0.7381 -0.3360
  590MOL0     H79590  10.967   9.011   3.177  1.4789  2.8867 -0.5785
  590MOL0     H79591  11.195   8.956   3.124  1.3143  1.0603 -1.5252
  590MOL0     H79592  11.200   9.127   3.174  0.4362 -1.0558 -2.4186
  590MOL0     H79593  11.311   9.055   3.394 -0.8777 -1.9646  1.8480
  590MOL0     H79594  11.281   8.891   3.349 -1.1432 -0.2364 -0.2517
  590MOL0     H79595  11.437   8.943   3.132  1.4722  3.3885 -3.1573
  590MOL0     H79596  11.452   9.098   3.184  0.9421  0.6805  0.6606
  590MOL0     H79597  11.548   9.032   3.410  1.7581 -2.9051  1.3893
  590MOL0     H79598  11.554   8.865   3.356  5.0943 -0.1757  0.1813
  590MOL0     H79599  11.712   9.074   3.202 -0.4035  0.4272  0.7288
  590MOL0     H79600  11.667   8.917   3.144  0.7809 -0.5987  0.6790
  590MOL0     H79601  11.790   8.702   3.228 -0.6915  0.7785 -0.6235
  590MOL0     H79602  11.984   8.559   3.316 -0.4944  0.4848 -1.2334
  590MOL0     H79603  12.133   8.655   3.318  1.0912  1.1288  1.1068
  590MOL0     H79604  11.979   8.627   3.575 -1.0263  0.7975 -1.0747
  590MOL0     H79605  12.144   8.661   3.570 -2.8370  2.0561  2.1251
  590MOL0     H79606  12.205   8.453   3.470 -0.2924  2.7461 -0.1993
  590MOL0     H79607  12.039   8.396   3.466 -4.0502  2.8878  1.1099
  590MOL0     H79608  12.041   8.443   3.729  1.7880 -1.9760  3.9700
  590MOL0     H79609  12.221   8.440   3.687  0.4881 -3.1893  0.3119
  590MOL0     H79610  12.131   8.009   3.620  0.4725 -1.3849  1.4806
  590MOL0     H79611  12.196   7.813   3.670  1.5708  1.6572 -0.4298
  590MOL0     H79612  12.323   7.777   3.784  1.8696  3.5092 -2.5537
  590MOL0     H79613  12.158   7.769   3.848  0.5275  3.3545  2.6563
  590MOL0     H79614  12.125   7.661   4.217  0.0790  0.9460  1.2168
  590MOL0     H79615  12.201   7.499   4.385  0.6319  0.0317 -0.5383
  590MOL0     H79616  12.337   7.504   4.616  3.7357 -1.2547  4.7082
  590MOL0     H79617  12.300   7.351   4.520  0.1102 -0.2735 -2.6879
  590MOL0     H79618  12.405   7.290   4.730 -3.3349 -2.2001 -2.7060
  590MOL0     H79619  12.511   7.257   4.588 -1.0544 -1.0278  0.8458
  590MOL0     H79620  12.558   7.525   4.705 -0.0489 -0.1186 -2.5341
  590MOL0     H79621  12.657   7.398   4.629 -2.4962  0.2002 -2.4653
  590MOL0     H79622  12.716   7.460   4.871 -0.3416  1.1469 -0.9908
  590MOL0     H79623  12.561   7.381   4.917  1.6637 -0.7548 -0.6047
  590MOL0     H79624  12.777   7.225   4.940  2.0717 -2.0675 -1.2555
  590MOL0     H79625  12.777   7.240   4.778 -2.0194  1.0911 -2.6630
  590MOL0     H79626  12.530   7.128   4.920  1.1693 -1.0303  0.9482
  590MOL0     H79627  12.554   7.122   4.749  0.1315  0.1394  0.5057
  590MOL0     H79628  12.735   6.966   4.933 -3.0491  2.8040  1.7528
  590MOL0     H79629  12.769   6.990   4.763  0.6927 -0.5951  0.0874
  590MOL0     H79630  12.671   6.786   4.765 -1.2900  0.2437 -2.2991
  590MOL0     H79631  12.549   6.897   4.711  0.2510  0.3054  0.4578
  590MOL0     H79632  12.603   7.583   4.290  0.4674  3.4736 -1.9305
  590MOL0     H79633  12.535   7.724   4.101  0.7243 -0.7163  1.4257
  590MOL0     H79634  12.210   8.164   4.076  0.3162  2.9641 -1.5390
  590MOL0     H79635  12.176   8.327   3.887  1.5479  1.1324 -1.8253
  590MOL0     H79636  10.662   9.044   3.575  0.5284  0.2387 -0.7526
  590MOL0     H79637  10.444   9.132   3.681  0.7923 -0.9699  1.9826
  590MOL0     H79638  10.183   9.413   3.701 -0.5325  0.9785 -0.9892
  590MOL0     H79639   9.955   9.493   3.717 -1.2687 -0.8417  1.4259
  590MOL0     H79640   9.696   9.708   3.805 -0.6334 -0.2262  0.3985
  590MOL0     H79641   9.812   9.633   3.700 -1.1161  3.1480  0.2135
  590MOL0     H79642   9.612   9.498   3.705  2.3149 -1.3668 -2.3215
  590MOL0     H79643   9.607   9.521   3.888 -2.6401  0.9666 -1.0216
  590MOL0     H79644   9.823   9.341   3.829  0.5968  0.9588 -1.9927
  590MOL0     H79645   9.746   9.343   3.678 -0.7355  0.8258 -0.4805
  590MOL0     H79646   9.619   9.254   3.942 -1.5600  1.5884 -1.9132
  590MOL0     H79647   9.692   9.153   3.816  0.2162 -0.1302 -0.9680
  590MOL0     H79648   9.292   9.233   3.706  0.7223  2.8776  1.5678
  590MOL0     H79649  10.025   9.676   4.096 -0.7002  0.7426 -0.7286
  590MOL0     H79650  10.265   9.580   4.091  0.4418 -3.2978 -1.3996
  591MOL0     O79651   3.903  10.706   7.826  0.0499 -0.1700  0.7952
  591MOL0     C79652   4.021  10.738   7.814 -0.7743 -0.1292 -0.0678
  591MOL0     O79653   4.089  10.733   7.695 -0.7262  0.3504 -0.2584
  591MOL0     C79654   4.006  10.693   7.591 -0.5571 -0.7013  0.7675
  591MOL0     C79655   3.980  10.562   7.558 -0.5278  0.9144  0.9261
  591MOL0     C79656   3.910  10.527   7.443  0.0470 -0.2506  0.1112
  591MOL0     C79657   3.888  10.632   7.351 -0.1070 -0.1663 -0.0214
  591MOL0     O79658   3.842  10.605   7.220 -0.0344  0.6361 -0.7351
  591MOL0     C79659   3.835  10.473   7.163  0.4834 -0.0966  0.9731
  591MOL0     C79660   3.912  10.450   7.032  0.0498  0.7450  0.1231
  591MOL0     C79661   4.069  10.453   7.038 -0.3554 -0.1595 -0.3973
  591MOL0     C79662   4.114  10.366   7.148 -0.1515 -0.6991  1.4280
  591MOL0     C79663   4.268  10.359   7.143  1.0829 -0.1714  0.7050
  591MOL0     C79664   4.336  10.254   7.234  0.8344  0.0521 -0.0403
  591MOL0     C79665   4.280  10.233   7.376 -0.3120 -0.1911 -0.0915
  591MOL0     C79666   4.317  10.352   7.473  0.3037  0.2367  0.4918
  591MOL0     N79667   4.435  10.330   7.533  0.5873 -0.2281  1.2649
  591MOL0     C79668   4.557  10.374   7.489  0.6396 -0.1352  0.5935
  591MOL0     C79669   4.641  10.335   7.587 -0.1406  0.4469  0.6350
  591MOL0     C79670   4.785  10.384   7.598 -0.6740 -0.3929 -0.5356
  591MOL0     C79671   4.905  10.295   7.545  0.4458 -0.2134 -0.6402
  591MOL0     C79672   5.017  10.388   7.489 -0.4673  0.3122  0.1959
  591MOL0     C79673   5.136  10.306   7.425 -0.3774 -0.2625  0.0734
  591MOL0     O79674   5.238  10.379   7.358  0.2923  0.1944 -0.6111
  591MOL0     C79675   5.333  10.301   7.300 -0.0875 -0.2949  0.8352
  591MOL0     C79676   5.356  10.168   7.308 -0.6668 -0.6253  0.1153
  591MOL0     C79677   5.470  10.108   7.256  0.2445 -0.4112  0.3556
  591MOL0     C79678   5.488   9.960   7.274 -0.2866  0.5204 -0.7362
  591MOL0     C79679   5.567  10.188   7.191 -0.4345 -0.4026 -0.1942
  591MOL0     C79680   5.694  10.136   7.126  0.2815 -0.3435 -0.6164
  591MOL0     O79681   5.760  10.223   7.054  0.0863  0.7586  0.8644
  591MOL0     C79682   5.882  10.202   7.002 -0.0093 -0.2973 -0.9241
  591MOL0     C79683   5.980  10.313   7.002  0.1860  0.7182  0.5966
  591MOL0     C79684   6.124  10.296   6.971  0.6883 -0.3120  0.0689
  591MOL0     C79685   6.169  10.180   6.908  0.2957  0.8567  0.0059
  591MOL0     O79686   6.293  10.165   6.853 -0.8658  0.6648  0.8405
  591MOL0     C79687   6.329  10.030   6.807  0.0380 -0.0807  0.7133
  591MOL0     C79688   6.474  10.037   6.771  0.3854 -0.8184  0.7190
  591MOL0     C79689   6.573  10.070   6.882  0.0477 -0.7105 -0.7288
  591MOL0     C79690   6.709  10.014   6.850 -0.4921  0.1158 -0.1888
  591MOL0     C79691   6.774  10.061   6.724  0.2688 -0.0320  0.0284
  591MOL0     C79692   6.907   9.988   6.686 -0.1073 -0.2745 -1.3519
  591MOL0     C79693   7.008  10.000   6.807 -0.0573  0.4777 -0.0492
  591MOL0     C79694   7.156   9.980   6.767 -0.4539 -0.3777  0.3946
  591MOL0    Cl79695   7.194   9.798   6.774  0.4104 -0.3241 -0.3608
  591MOL0     C79696   6.075  10.080   6.909  0.1976  0.1676  0.4609
  591MOL0     C79697   5.943  10.081   6.954  0.0260 -1.0372 -0.6838
  591MOL0     O79698   5.737  10.031   7.163  0.3969 -0.1566 -0.7470
  591MOL0     C79699   5.557  10.327   7.197  1.5906 -0.3543  0.1766
  591MOL0     C79700   5.430  10.382   7.239 -0.8568 -1.0056  0.9247
  591MOL0     N79701   4.583  10.242   7.679 -0.4919 -0.5022  0.3388
  591MOL0     N79702   4.462  10.246   7.639  0.6316  0.1103 -0.8895
  591MOL0     C79703   3.915  10.775   7.374  0.3605  0.6208 -0.3390
  591MOL0     C79704   3.981  10.794   7.500 -0.2886 -1.1945  0.1327
  591MOL0     C79705   4.079  10.795   7.931  0.0586 -0.5362  0.5694
  591MOL0     C79706   4.203  10.856   7.925 -0.2331 -0.3460  0.7178
  591MOL0     C79707   4.269  10.903   8.045 -0.3847 -0.3469  0.7958
  591MOL0     C79708   4.217  10.890   8.170 -0.7931  0.4236  1.7306
  591MOL0     O79709   4.300  10.907   8.274  0.0969 -0.8082  0.7380
  591MOL0     C79710   4.254  10.889   8.404  0.1717  0.7744 -0.2325
  591MOL0     C79711   4.349  10.978   8.488 -0.8001 -0.0232 -0.3349
  591MOL0     C79712   4.309  10.954   8.628 -0.5424 -0.2059 -0.1374
  591MOL0     C79713   4.381  11.048   8.729  0.3340  0.4505  0.3633
  591MOL0     C79714   4.523  11.034   8.708 -0.3789  0.3627  0.3839
  591MOL0     C79715   4.637  11.029   8.673  0.0458 -0.4408 -0.1411
  591MOL0     C79716   4.086  10.840   8.179 -0.8780 -0.4239 -0.3431
  591MOL0     C79717   4.014  10.805   8.063 -0.5648  0.1186 -0.2042
  591MOL0     H79718   4.004  10.485   7.630 -3.2413 -0.0110  0.9353
  591MOL0     H79719   3.888  10.422   7.426 -0.4301 -0.3440  1.2326
  591MOL0     H79720   3.855  10.378   7.212  2.5470 -0.8029 -1.0272
  591MOL0     H79721   3.729  10.470   7.137  0.5030  1.0194  0.6814
  591MOL0     H79722   3.882  10.352   6.995  0.7805 -0.7466  3.1460
  591MOL0     H79723   3.876  10.525   6.961  2.5628  0.9636 -1.0190
  591MOL0     H79724   4.123  10.437   6.944  1.9676  0.9376  0.6775
  591MOL0     H79725   4.093  10.555   7.068 -0.5226 -0.0767 -0.5470
  591MOL0     H79726   4.102  10.403   7.251  0.2577 -1.6336  1.8214
  591MOL0     H79727   4.081  10.263   7.131 -0.7999 -0.2883  0.0799
  591MOL0     H79728   4.298  10.328   7.042  1.9756  1.5010  0.4087
  591MOL0     H79729   4.299  10.463   7.157  1.4127 -0.2978  0.9313
  591MOL0     H79730   4.336  10.155   7.189 -1.2739  0.5131 -1.1500
  591MOL0     H79731   4.436  10.300   7.238  0.7818  0.4654 -2.1915
  591MOL0     H79732   4.170  10.232   7.373 -0.5884  4.1199  1.0402
  591MOL0     H79733   4.325  10.138   7.405 -0.9616 -0.2821  0.6420
  591MOL0     H79734   4.229  10.372   7.535 -0.7697 -0.7717 -0.6524
  591MOL0     H79735   4.325  10.439   7.407  0.1761  0.4054  0.6993
  591MOL0     H79736   4.568  10.457   7.420 -1.8305 -2.1217 -2.4693
  591MOL0     H79737   4.796  10.476   7.539  2.1237 -2.2212 -3.2229
  591MOL0     H79738   4.813  10.398   7.702 -0.2730 -1.0490 -0.5497
  591MOL0     H79739   4.870  10.233   7.462 -0.5069 -0.3875 -0.1294
  591MOL0     H79740   4.940  10.221   7.617  1.8352 -1.8468 -2.8588
  591MOL0     H79741   5.050  10.460   7.564 -1.1722 -0.2736  1.0816
  591MOL0     H79742   4.971  10.442   7.406  1.6066 -2.0746 -2.7493
  591MOL0     H79743   5.086  10.242   7.352 -3.4093  3.5344 -1.5041
  591MOL0     H79744   5.189  10.256   7.507 -1.3576 -2.4356 -0.5431
  591MOL0     H79745   5.297  10.100   7.368 -1.5486 -0.9230 -1.0748
  591MOL0     H79746   5.389   9.921   7.302  0.5992 -1.8939 -0.7501
  591MOL0     H79747   5.518   9.920   7.177  0.3824 -2.4735  0.5764
  591MOL0     H79748   5.559   9.937   7.355 -2.1090  0.3136  0.8891
  591MOL0     H79749   5.942  10.408   7.038 -1.8007  0.7071 -1.2949
  591MOL0     H79750   6.187  10.379   7.000 -0.9856  1.2569 -0.6123
  591MOL0     H79751   6.323   9.952   6.882  0.0477  0.9709  1.8390
  591MOL0     H79752   6.284  10.007   6.710  0.2060  2.1975  0.0253
  591MOL0     H79753   6.500   9.941   6.725  1.1029  1.0386 -3.1576
  591MOL0     H79754   6.489  10.115   6.696  1.9340 -1.1409  0.6722
  591MOL0     H79755   6.546  10.024   6.978  0.3767 -0.0273 -0.3048
  591MOL0     H79756   6.586  10.177   6.903  1.4077 -0.8648 -0.7010
  591MOL0     H79757   6.764  10.043   6.940  0.0248  0.6210 -0.6563
  591MOL0     H79758   6.692   9.906   6.855  2.4740 -0.4587 -0.5947
  591MOL0     H79759   6.792  10.166   6.750 -1.3398 -0.1352  1.7482
  591MOL0     H79760   6.699  10.052   6.645 -0.7110  0.1998  0.8996
  591MOL0     H79761   6.895   9.883   6.657 -3.0383 -0.5009  0.3393
  591MOL0     H79762   6.948  10.041   6.600  0.7890  0.8608 -0.2720
  591MOL0     H79763   6.968   9.929   6.881  1.9411 -0.3322  0.3221
  591MOL0     H79764   6.994  10.094   6.861 -2.8298  0.3941 -0.4738
  591MOL0     H79765   7.213  10.025   6.848 -1.7405 -0.5876  1.4629
  591MOL0     H79766   7.189  10.020   6.671 -0.4526 -0.1490  0.4886
  591MOL0     H79767   6.094   9.994   6.845  0.1797  0.8351 -0.4599
  591MOL0     H79768   5.886   9.988   6.953  2.6959 -2.7641 -0.7055
  591MOL0     H79769   5.633  10.389   7.151 -0.0036 -0.4789 -2.8900
  591MOL0     H79770   5.409  10.487   7.217 -1.3359 -1.1507  0.6862
  591MOL0     H79771   3.885  10.856   7.308  1.1100  0.6691 -0.6364
  591MOL0     H79772   3.998  10.896   7.534  0.5945 -0.5083 -2.1796
  591MOL0     H79773   4.257  10.867   7.831 -0.8909  0.5855  0.4377
  591MOL0     H79774   4.364  10.954   8.034 -1.2670  1.1116 -0.5799
  591MOL0     H79775   4.152  10.925   8.422 -0.3126  0.7182 -2.6069
  591MOL0     H79776   4.258  10.780   8.411 -4.8530  0.4121  2.6938
  591MOL0     H79777   4.333  11.086   8.475  0.2099  0.5918  2.7701
  591MOL0     H79778   4.452  10.956   8.460 -0.6636  0.2160 -0.0357
  591MOL0     H79779   4.335  10.851   8.653  0.7789 -0.5950 -2.7405
  591MOL0     H79780   4.200  10.953   8.640 -0.9411  0.2830 -2.8852
  591MOL0     H79781   4.369  11.012   8.831 -0.1893 -1.0468 -0.1945
  591MOL0     H79782   4.341  11.149   8.727  2.1228  1.2877  2.5548
  591MOL0     H79783   4.739  11.020   8.642 -0.2712  0.7879 -1.6330
  591MOL0     H79784   4.046  10.825   8.279 -0.8372 -1.2154 -0.4401
  591MOL0     H79785   3.912  10.769   8.066 -0.1249 -1.7517 -2.9953
  592MOL0     O79786   0.998   6.246   4.651 -0.6070  0.2620  0.4891
  592MOL0     C79787   1.059   6.348   4.684  0.1000 -0.2564  0.3545
  592MOL0     O79788   1.022   6.475   4.655 -0.1797  0.4450 -0.4015
  592MOL0     C79789   0.912   6.501   4.583  0.9014 -0.4329  0.9595
  592MOL0     C79790   0.786   6.456   4.632  0.6457 -0.7876  0.2389
  592MOL0     C79791   0.672   6.463   4.554 -0.5076  0.1790 -0.3388
  592MOL0     C79792   0.679   6.538   4.438  0.3095  0.4445  0.7806
  592MOL0     O79793   0.560   6.548   4.372 -0.2435  0.1658 -0.3895
  592MOL0     C79794   0.513   6.435   4.296 -0.2368  1.0251 -0.3025
  592MOL0     C79795   0.369   6.471   4.253  0.0688 -0.2136 -0.1752
  592MOL0     C79796   0.273   6.436   4.355 -0.7299 -0.0793  0.3518
  592MOL0     C79797   0.134   6.467   4.308 -0.1869 -1.0017  0.8872
  592MOL0     C79798   0.036   6.461   4.425 -0.4431 -0.4028 -0.2930
  592MOL0     C79799   0.061   6.575   4.528  0.0303 -0.0711  0.1754
  592MOL0     C79800  -0.053   6.591   4.638  0.3572  0.0773  0.9349
  592MOL0     C79801  -0.073   6.470   4.722  0.4480  0.2532  0.3704
  592MOL0     N79802   0.050   6.415   4.776 -0.9608  0.4857 -0.1095
  592MOL0     C79803   0.127   6.484   4.864  0.7438 -0.2951  0.8199
  592MOL0     C79804   0.249   6.431   4.859 -0.2385  0.5065  0.9654
  592MOL0     C79805   0.362   6.493   4.930  0.6719  0.1251 -0.1528
  592MOL0     C79806   0.378   6.644   4.915  0.5069 -0.0760  0.4590
  592MOL0     C79807   0.529   6.681   4.888  0.0611  0.1334 -1.4009
  592MOL0     C79808   0.532   6.818   4.814  0.0950  0.4012  0.1097
  592MOL0     O79809   0.486   6.918   4.906 -0.5254 -0.0284 -0.3420
  592MOL0     C79810   0.525   7.049   4.883 -0.6972  0.7925 -0.1622
  592MOL0     C79811   0.522   7.142   4.992 -0.0654 -0.3998  0.1180
  592MOL0     C79812   0.542   7.271   4.968  0.0321 -0.3512 -0.0088
  592MOL0     C79813   0.514   7.359   5.088  0.0292 -0.5440 -0.2504
  592MOL0     C79814   0.578   7.323   4.842  0.6712  0.5638  0.3233
  592MOL0     C79815   0.578   7.466   4.810  1.0083  1.2566  0.4771
  592MOL0     O79816   0.582   7.554   4.915  0.8207  0.4712  0.5231
  592MOL0     C79817   0.542   7.684   4.889 -0.1762  0.3954 -0.4767
  592MOL0     C79818   0.408   7.711   4.849 -0.8263  0.0712  0.0591
  592MOL0     C79819   0.353   7.838   4.852  0.5471  0.4696 -0.6995
  592MOL0     C79820   0.427   7.949   4.899 -1.1270 -1.1318  0.0254
  592MOL0     O79821   0.395   8.081   4.896  0.3853  0.8031  0.5476
  592MOL0     C79822   0.480   8.171   4.818  0.1544  0.4195  1.1637
  592MOL0     C79823   0.574   8.255   4.908 -0.0480  0.9796 -0.2885
  592MOL0     C79824   0.586   8.393   4.846  0.2375  0.0761  0.2731
  592MOL0     C79825   0.699   8.462   4.923  0.4475 -0.3368 -0.7306
  592MOL0     C79826   0.747   8.598   4.870 -0.7170 -0.1473 -1.1681
  592MOL0     C79827   0.890   8.619   4.925  0.1926  0.1437 -0.3380
  592MOL0     C79828   0.927   8.755   4.876 -0.4605  0.9419 -0.3872
  592MOL0     C79829   1.074   8.780   4.919  0.2711  0.2888  0.4347
  592MOL0    Cl79830   1.112   8.839   5.086  0.3225  0.0761 -0.0625
  592MOL0     C79831   0.561   7.921   4.952  0.5097 -0.1955  0.4520
  592MOL0     C79832   0.619   7.793   4.949  0.7974 -0.0146  0.0864
  592MOL0     O79833   0.561   7.488   4.687  1.3741 -0.3846  0.0388
  592MOL0     C79834   0.602   7.231   4.737  0.1287  0.1395  0.0810
  592MOL0     C79835   0.579   7.094   4.756 -0.0153  0.4104 -0.4113
  592MOL0     N79836   0.245   6.327   4.762  1.0068  0.2572 -0.1948
  592MOL0     N79837   0.130   6.330   4.703 -0.0414 -0.2862 -0.1638
  592MOL0     C79838   0.794   6.594   4.396  0.3981 -0.9584 -0.2153
  592MOL0     C79839   0.913   6.578   4.463  0.3136 -0.0018 -0.6531
  592MOL0     C79840   1.177   6.329   4.775 -0.8964 -0.1949  1.2198
  592MOL0     C79841   1.219   6.196   4.813 -0.0471  1.4307 -0.3539
  592MOL0     C79842   1.340   6.182   4.880 -0.2320  0.7945 -0.0411
  592MOL0     C79843   1.429   6.288   4.914 -0.0568 -0.6102 -0.0359
  592MOL0     O79844   1.545   6.279   4.992  0.9340  0.1049 -0.6662
  592MOL0     C79845   1.578   6.148   5.039 -0.1575  0.5206  0.3240
  592MOL0     C79846   1.528   6.117   5.185 -0.6639  0.1422  0.4335
  592MOL0     C79847   1.604   6.201   5.284 -0.2888 -0.9836 -0.7203
  592MOL0     C79848   1.591   6.153   5.428 -0.5591 -0.1244 -0.2243
  592MOL0     C79849   1.705   6.073   5.470  1.3882 -0.6779 -1.2422
  592MOL0     C79850   1.802   6.001   5.485  0.6660  0.1602  0.8673
  592MOL0     C79851   1.381   6.415   4.880  0.0490 -0.0793  0.5615
  592MOL0     C79852   1.262   6.435   4.813  0.0451 -0.0623 -0.3846
  592MOL0     H79853   0.774   6.420   4.734  0.2329 -1.0365  0.1078
  592MOL0     H79854   0.581   6.409   4.580  0.9734 -2.8131 -0.9311
  592MOL0     H79855   0.571   6.418   4.205 -1.8010  0.2736 -1.2122
  592MOL0     H79856   0.517   6.349   4.363  2.7615  2.7815  2.0137
  592MOL0     H79857   0.364   6.580   4.241 -0.9017 -0.3578 -1.2127
  592MOL0     H79858   0.352   6.418   4.159  2.5570 -0.2414 -0.6604
  592MOL0     H79859   0.280   6.329   4.380  1.2690 -0.0866 -0.0879
  592MOL0     H79860   0.296   6.493   4.446 -0.8833 -1.1496  1.0946
  592MOL0     H79861   0.133   6.569   4.269  1.7254 -1.5152 -0.7321
  592MOL0     H79862   0.086   6.402   4.234 -2.1179  2.9458 -1.6894
  592MOL0     H79863  -0.070   6.461   4.399 -1.6153 -1.6185  3.8080
  592MOL0     H79864   0.060   6.369   4.478  2.3753  0.6054  0.3970
  592MOL0     H79865   0.154   6.550   4.581  1.6611  0.5845 -2.1929
  592MOL0     H79866   0.077   6.669   4.475 -0.5796  2.0462  3.4406
  592MOL0     H79867  -0.030   6.676   4.703 -1.0586  2.1847 -1.1625
  592MOL0     H79868  -0.152   6.609   4.595  0.8681  0.5185 -0.1078
  592MOL0     H79869  -0.120   6.390   4.664  0.1242 -0.8908  2.1432
  592MOL0     H79870  -0.139   6.505   4.802 -2.3598 -0.2397 -1.5743
  592MOL0     H79871   0.095   6.573   4.918  2.7184  0.8166  0.2579
  592MOL0     H79872   0.351   6.477   5.038 -2.6986 -2.4054 -0.6837
  592MOL0     H79873   0.446   6.435   4.890 -1.5459 -2.3204 -1.6422
  592MOL0     H79874   0.352   6.695   5.008  1.1074 -1.7197  1.5735
  592MOL0     H79875   0.310   6.675   4.835  2.2163 -0.8425 -1.3749
  592MOL0     H79876   0.585   6.616   4.820  2.8767  0.6777  0.2435
  592MOL0     H79877   0.584   6.676   4.983 -0.4156  2.5679 -0.9232
  592MOL0     H79878   0.470   6.827   4.724 -1.0661 -0.5087  0.7967
  592MOL0     H79879   0.635   6.836   4.781 -0.2926 -0.9523 -2.0866
  592MOL0     H79880   0.478   7.103   5.083  2.2545  1.4646  2.1900
  592MOL0     H79881   0.516   7.282   5.165  3.4478  0.7018  1.1042
  592MOL0     H79882   0.590   7.434   5.113 -1.1443  1.2875 -1.8483
  592MOL0     H79883   0.420   7.414   5.082  1.5624  2.5488  1.7202
  592MOL0     H79884   0.347   7.626   4.823  0.6540  0.0218 -3.9024
  592MOL0     H79885   0.256   7.847   4.805 -0.7965 -0.4742  1.7230
  592MOL0     H79886   0.545   8.111   4.754 -1.6509 -0.5870  0.1685
  592MOL0     H79887   0.415   8.234   4.757  1.4480  0.8434  0.1859
  592MOL0     H79888   0.520   8.275   5.001  2.5380  0.7336  1.3449
  592MOL0     H79889   0.661   8.197   4.937 -1.8608 -1.6653  0.2374
  592MOL0     H79890   0.486   8.436   4.858 -0.1598 -0.0771 -1.9721
  592MOL0     H79891   0.607   8.387   4.739  0.6944  0.4743  0.3340
  592MOL0     H79892   0.668   8.481   5.026  0.3661  1.9051 -1.1024
  592MOL0     H79893   0.775   8.386   4.935  0.1252 -0.5563 -0.0598
  592MOL0     H79894   0.685   8.684   4.897  0.1643 -0.2718  1.6502
  592MOL0     H79895   0.751   8.592   4.761 -6.1831  0.7191 -1.6747
  592MOL0     H79896   0.889   8.617   5.034 -1.5663 -2.1860 -0.3205
  592MOL0     H79897   0.958   8.539   4.893  1.1921  1.0786 -0.6163
  592MOL0     H79898   0.854   8.817   4.929  0.4654  1.1085  0.7315
  592MOL0     H79899   0.917   8.763   4.767  2.9413 -4.4937 -1.4991
  592MOL0     H79900   1.109   8.861   4.855 -0.5317 -0.2731 -0.7468
  592MOL0     H79901   1.138   8.695   4.894 -0.5635 -0.7145  1.5853
  592MOL0     H79902   0.610   8.008   4.994  0.2798 -0.4521  1.2720
  592MOL0     H79903   0.712   7.769   4.998  1.4249 -2.7728 -2.1910
  592MOL0     H79904   0.628   7.257   4.635 -0.5671  0.4630 -0.0213
  592MOL0     H79905   0.587   7.029   4.670 -4.6021  0.2862 -1.0259
  592MOL0     H79906   0.802   6.658   4.308  0.4466  2.3583  2.0282
  592MOL0     H79907   1.008   6.606   4.420  0.7166 -1.2544 -0.6103
  592MOL0     H79908   1.163   6.105   4.793  2.7667 -1.6439  3.9750
  592MOL0     H79909   1.346   6.082   4.924  2.6530  1.5604  1.5626
  592MOL0     H79910   1.563   6.064   4.971  0.5562 -0.2112  1.0577
  592MOL0     H79911   1.685   6.164   5.053 -0.4814  1.1711  2.5349
  592MOL0     H79912   1.543   6.010   5.202  1.4100  0.6080  1.8700
  592MOL0     H79913   1.419   6.126   5.198 -0.9535  1.5464 -2.3742
  592MOL0     H79914   1.572   6.305   5.274  1.2922 -0.4754 -0.7170
  592MOL0     H79915   1.708   6.215   5.253 -0.9203 -1.6771 -3.5153
  592MOL0     H79916   1.501   6.093   5.442  0.8398 -2.4329 -0.6251
  592MOL0     H79917   1.585   6.227   5.509 -0.2256 -2.3179  1.9057
  592MOL0     H79918   1.880   5.928   5.494  1.6871  1.1967  0.6973
  592MOL0     H79919   1.452   6.492   4.910 -0.4608  1.9514 -2.9435
  592MOL0     H79920   1.228   6.538   4.802 -1.4437 -0.3730  0.8635
  593MOL0     O79921   0.043   4.173   4.193 -0.2423 -0.1722  0.0916
  593MOL0     C79922   0.001   4.060   4.197 -0.2559 -0.4684  0.4656
  593MOL0     O79923  -0.023   3.991   4.302  0.4933  0.4283 -0.2902
  593MOL0     C79924  -0.008   4.034   4.425  0.6014 -0.1919 -0.1942
  593MOL0     C79925  -0.067   4.146   4.482 -0.2685 -0.0130 -0.1599
  593MOL0     C79926  -0.044   4.181   4.616  0.2896 -0.8314 -0.6683
  593MOL0     C79927   0.053   4.114   4.691 -0.5325  1.5614 -0.2967
  593MOL0     O79928   0.072   4.140   4.821 -0.1430 -0.2515  0.1814
  593MOL0     C79929   0.049   4.276   4.878  0.0281  0.1782 -0.3359
  593MOL0     C79930   0.031   4.278   5.033  0.8151  1.1682  0.1671
  593MOL0     C79931  -0.086   4.193   5.084  0.1998 -0.1780  0.5222
  593MOL0     C79932  -0.226   4.252   5.064 -0.5911 -0.5461 -1.2610
  593MOL0     C79933  -0.344   4.161   5.113  0.6287 -0.3351  0.5782
  593MOL0     C79934  -0.345   4.013   5.063 -0.4740  0.3463 -0.9075
  593MOL0     C79935  -0.326   4.001   4.912 -0.8077 -0.5233 -0.5051
  593MOL0     C79936  -0.457   4.027   4.838 -0.6437 -0.5743 -0.6166
  593MOL0     N79937  -0.475   4.174   4.816 -0.5882 -0.4925  0.2627
  593MOL0     C79938  -0.579   4.253   4.853 -0.1092 -0.5477 -0.3310
  593MOL0     C79939  -0.533   4.374   4.814 -0.0475 -0.3236 -0.3718
  593MOL0     C79940  -0.596   4.506   4.842  0.0336 -0.8461 -0.1723
  593MOL0     C79941  -0.587   4.537   4.997  0.4033  0.0543  0.8397
  593MOL0     C79942  -0.637   4.682   5.028 -0.8535  0.7066 -0.3462
  593MOL0     C79943  -0.772   4.674   5.087  0.7229  0.6957 -0.0989
  593MOL0     O79944  -0.805   4.804   5.122  0.3809  0.2726  0.4429
  593MOL0     C79945  -0.937   4.832   5.164  0.0412  2.1244  0.1680
  593MOL0     C79946  -0.984   4.961   5.167  0.4973 -0.8157  0.5271
  593MOL0     C79947  -1.114   5.004   5.196 -0.4251  0.6403 -1.1362
  593MOL0     C79948  -1.145   5.149   5.202  0.6957  0.2443  0.4483
  593MOL0     C79949  -1.215   4.905   5.228  0.5884 -0.1579  0.1672
  593MOL0     C79950  -1.359   4.936   5.264  0.2974  0.5419  1.3476
  593MOL0     O79951  -1.427   4.855   5.340 -0.3169 -0.1711  0.2063
  593MOL0     C79952  -1.554   4.905   5.383  0.5147  0.2501  0.6886
  593MOL0     C79953  -1.656   4.948   5.296 -0.7094  0.8648 -0.2421
  593MOL0     C79954  -1.783   4.974   5.345 -0.7281  0.5456 -0.5599
  593MOL0     C79955  -1.812   4.946   5.481 -0.0459 -1.3454  0.5622
  593MOL0     O79956  -1.936   4.979   5.528  0.0796  0.7519 -0.1384
  593MOL0     C79957  -1.961   4.977   5.670 -0.0461  0.6134 -0.3250
  593MOL0     C79958  -2.089   5.053   5.695  0.6008  0.5181  0.4181
  593MOL0     C79959  -2.128   5.063   5.843 -0.9203  1.0085 -0.2829
  593MOL0     C79960  -2.168   4.927   5.906 -1.1150 -0.1316  0.5150
  593MOL0     C79961  -2.283   4.934   6.007 -0.0305  0.2504 -0.9726
  593MOL0     C79962  -2.249   5.023   6.134  0.7111 -1.0531 -0.0743
  593MOL0     C79963  -2.380   5.060   6.213 -0.3880  0.2285 -0.3542
  593MOL0     C79964  -2.349   5.117   6.352 -0.5034  0.4954 -0.2262
  593MOL0    Cl79965  -2.500   5.154   6.429  0.0966 -0.1859  0.3397
  593MOL0     C79966  -1.714   4.902   5.563 -0.4319 -0.2769 -1.9080
  593MOL0     C79967  -1.586   4.891   5.517 -2.0261  0.4279 -0.6010
  593MOL0     O79968  -1.400   5.047   5.221 -0.2686  0.3469 -0.4675
  593MOL0     C79969  -1.174   4.768   5.221  0.8853  0.4310 -0.9307
  593MOL0     C79970  -1.037   4.733   5.198  0.0398 -0.7008 -0.5532
  593MOL0     N79971  -0.426   4.364   4.726 -1.3914  0.2879 -0.2445
  593MOL0     N79972  -0.395   4.240   4.730  0.2903 -0.7785 -0.8497
  593MOL0     C79973   0.114   3.996   4.629  0.6584  0.5246 -0.6383
  593MOL0     C79974   0.099   3.969   4.493 -0.0625 -0.0932  0.5464
  593MOL0     C79975  -0.043   3.998   4.076  0.1756 -1.4481  0.6863
  593MOL0     C79976  -0.022   3.861   4.059  0.4108  0.1276  0.6299
  593MOL0     C79977  -0.053   3.810   3.931  0.0523 -0.0653  0.0125
  593MOL0     C79978  -0.108   3.885   3.822  0.2834  0.5804  0.3809
  593MOL0     O79979  -0.125   3.824   3.700 -0.7334 -0.2073 -0.3404
  593MOL0     C79980  -0.113   3.892   3.578  0.3360 -0.4249  0.0648
  593MOL0     C79981  -0.167   3.820   3.452 -0.5352  0.7877 -0.2670
  593MOL0     C79982  -0.128   3.902   3.329  0.0158 -0.0943  0.6650
  593MOL0     C79983  -0.108   3.824   3.197  0.1418  0.1582  0.1291
  593MOL0     C79984  -0.233   3.781   3.141 -1.7552 -0.1528 -0.4948
  593MOL0     C79985  -0.347   3.749   3.108  0.0406  0.1897 -0.5600
  593MOL0     C79986  -0.135   4.025   3.841 -0.2377 -0.3092  0.1766
  593MOL0     C79987  -0.093   4.080   3.966  0.1338  0.0363 -0.2717
  593MOL0     H79988  -0.125   4.208   4.416  2.7852  1.1714 -1.9520
  593MOL0     H79989  -0.109   4.259   4.655 -0.1058 -0.3787 -2.1424
  593MOL0     H79990   0.128   4.346   4.850 -0.0017  1.2363  1.9812
  593MOL0     H79991  -0.036   4.322   4.827  0.3874 -0.0345 -1.1404
  593MOL0     H79992   0.118   4.236   5.084 -1.2784 -0.4039  2.6770
  593MOL0     H79993   0.010   4.378   5.073 -0.8906  0.3706  1.3857
  593MOL0     H79994  -0.080   4.106   5.018  1.4264 -0.3689  0.8623
  593MOL0     H79995  -0.068   4.168   5.189  2.5082  0.9749  0.4473
  593MOL0     H79996  -0.230   4.335   5.135 -0.6057 -0.4989 -1.3175
  593MOL0     H79997  -0.246   4.284   4.962 -1.4998 -1.6023 -1.4397
  593MOL0     H79998  -0.365   4.152   5.220  1.0014 -0.9285  0.6069
  593MOL0     H79999  -0.435   4.215   5.085  1.1261  0.6830  0.9130
  593MOL0     H80000  -0.260   3.966   5.114  2.5306  5.2209 -0.7383
  593MOL0     H80001  -0.437   3.961   5.090 -0.6832  0.3093 -1.6620
  593MOL0     H80002  -0.246   4.067   4.877 -0.9123  0.4746  1.0698
  593MOL0     H80003  -0.284   3.903   4.886  0.4770  0.1699 -1.1927
  593MOL0     H80004  -0.551   3.991   4.880 -1.8974  2.0875 -0.9357
  593MOL0     H80005  -0.452   3.979   4.740  1.8743 -1.3291 -0.1738
  593MOL0     H80006  -0.669   4.236   4.912  1.7708 -0.8678  2.6332
  593MOL0     H80007  -0.543   4.583   4.784  1.9910 -0.3220  2.1514
  593MOL0     H80008  -0.697   4.510   4.801 -0.0167  0.2453  0.0255
  593MOL0     H80009  -0.483   4.537   5.030  0.4574 -3.4546  1.0581
  593MOL0     H80010  -0.642   4.456   5.047 -0.3496 -0.2173 -0.3724
  593MOL0     H80011  -0.631   4.745   4.938  1.7751  0.3364 -0.4991
  593MOL0     H80012  -0.571   4.731   5.101 -0.0825 -1.3950  0.4371
  593MOL0     H80013  -0.770   4.612   5.177 -2.8742  1.1626  0.4329
  593MOL0     H80014  -0.837   4.624   5.015 -0.1887  2.0097 -0.2123
  593MOL0     H80015  -0.908   5.037   5.151 -1.5292  1.5542  1.5151
  593MOL0     H80016  -1.051   5.204   5.195  0.8333 -0.2013 -3.4159
  593MOL0     H80017  -1.209   5.168   5.116 -1.3475 -0.8730  1.6332
  593MOL0     H80018  -1.202   5.173   5.292 -0.1553 -1.8179  0.5227
  593MOL0     H80019  -1.636   4.975   5.193 -3.0805 -0.0011 -0.9973
  593MOL0     H80020  -1.856   5.011   5.274 -2.9742 -2.1141  0.1931
  593MOL0     H80021  -1.970   4.872   5.698  0.5101  0.1603 -1.7649
  593MOL0     H80022  -1.877   5.016   5.728  0.1421  0.2559 -0.3599
  593MOL0     H80023  -2.092   5.150   5.645 -1.1409 -1.0094 -2.7087
  593MOL0     H80024  -2.171   5.002   5.644  1.5226 -1.6343  0.9653
  593MOL0     H80025  -2.211   5.134   5.853 -1.2400  0.4839  1.0677
  593MOL0     H80026  -2.046   5.092   5.909  0.4074 -3.6070  0.4497
  593MOL0     H80027  -2.205   4.855   5.833 -0.4080 -0.9662  0.9693
  593MOL0     H80028  -2.077   4.881   5.946 -0.2424 -0.8865 -2.1598
  593MOL0     H80029  -2.308   4.831   6.032  0.5975 -0.6641 -3.7993
  593MOL0     H80030  -2.366   4.990   5.961  0.7075  1.7017 -0.6138
  593MOL0     H80031  -2.180   4.974   6.203  0.2988  1.1207  2.0087
  593MOL0     H80032  -2.203   5.120   6.111 -0.5980  0.1261  1.9604
  593MOL0     H80033  -2.431   4.965   6.230 -1.0249  1.0401  3.2275
  593MOL0     H80034  -2.436   5.131   6.151 -2.2198 -0.5197  0.3410
  593MOL0     H80035  -2.286   5.204   6.333  0.5081 -0.8652 -3.9017
  593MOL0     H80036  -2.289   5.046   6.409  1.1914 -0.3191 -2.8558
  593MOL0     H80037  -1.736   4.865   5.663 -1.2671 -1.4078 -2.4937
  593MOL0     H80038  -1.508   4.851   5.582 -2.8956 -0.0532  0.1864
  593MOL0     H80039  -1.244   4.690   5.250  2.2919 -0.4459  0.3032
  593MOL0     H80040  -1.015   4.627   5.202 -0.0503 -0.6801  1.5421
  593MOL0     H80041   0.190   3.937   4.678  0.9458  0.8163 -0.7304
  593MOL0     H80042   0.150   3.892   4.436  1.8821  1.8887 -0.5547
  593MOL0     H80043   0.018   3.803   4.141 -2.6773 -0.8434  1.5698
  593MOL0     H80044  -0.029   3.704   3.922 -0.9096 -0.5363  2.2620
  593MOL0     H80045  -0.177   3.981   3.581  2.3648  1.6050 -5.1554
  593MOL0     H80046  -0.007   3.917   3.564  0.3274 -0.5918 -0.2946
  593MOL0     H80047  -0.276   3.817   3.459 -0.4336  0.1561  1.4505
  593MOL0     H80048  -0.120   3.722   3.445 -0.9054  0.6524 -1.0158
  593MOL0     H80049  -0.032   3.953   3.338 -0.5632  1.4590 -1.2703
  593MOL0     H80050  -0.203   3.981   3.315 -0.2581  0.2537  3.5846
  593MOL0     H80051  -0.050   3.733   3.219  1.1900  0.5442 -0.9347
  593MOL0     H80052  -0.053   3.883   3.123  1.3921  1.8161  2.2607
  593MOL0     H80053  -0.450   3.738   3.081  0.1817  0.7253 -1.3615
  593MOL0     H80054  -0.169   4.088   3.760  1.7488  0.3008 -0.2232
  593MOL0     H80055  -0.094   4.187   3.978  1.6306  0.0849 -0.4481
  594MOL0     O80056  10.946   6.920   0.374 -0.0137  0.1858 -0.8737
  594MOL0     C80057  10.991   6.958   0.477  0.4066 -0.2575  0.6994
  594MOL0     O80058  10.928   6.937   0.595 -0.2836 -0.1631 -0.4599
  594MOL0     C80059  10.815   6.864   0.604 -0.3002  0.2253 -0.3506
  594MOL0     C80060  10.786   6.787   0.715 -0.1259  0.1821  0.2330
  594MOL0     C80061  10.678   6.704   0.725 -0.1507  0.5587  1.0705
  594MOL0     C80062  10.584   6.702   0.627  0.0524  0.4822  0.6996
  594MOL0     O80063  10.460   6.650   0.657 -0.7520  0.5712  0.2759
  594MOL0     C80064  10.390   6.742   0.738  0.8290 -0.0399  1.6125
  594MOL0     C80065  10.243   6.699   0.741 -0.5392  0.5746 -0.1470
  594MOL0     C80066  10.132   6.796   0.796 -1.0813  0.1112  0.0566
  594MOL0     C80067  10.000   6.727   0.802 -0.1054 -1.0967  0.6702
  594MOL0     C80068   9.906   6.833   0.860 -0.2484 -0.3911 -0.1973
  594MOL0     C80069   9.760   6.792   0.902  0.7167  0.2359  0.8068
  594MOL0     C80070   9.665   6.875   0.971  0.8567  0.9056 -0.7327
  594MOL0     C80071   9.631   7.001   0.892  0.4113  0.9228 -0.0559
  594MOL0     N80072   9.529   6.973   0.797  0.1735  0.3114 -0.0331
  594MOL0     C80073   9.403   6.965   0.852  0.3948  0.7097 -0.1551
  594MOL0     C80074   9.322   6.936   0.736 -0.0052 -0.0760 -0.4602
  594MOL0     C80075   9.181   6.904   0.741 -1.0108  0.2560 -0.5830
  594MOL0     C80076   9.097   7.009   0.666  0.8744  0.6197  0.1702
  594MOL0     C80077   8.952   6.974   0.639 -0.1444  0.0831 -0.1458
  594MOL0     C80078   8.883   6.930   0.770  0.4006  0.1546  0.1393
  594MOL0     O80079   8.762   7.004   0.776  0.0519 -0.4179 -0.0002
  594MOL0     C80080   8.693   7.005   0.896 -0.8500 -0.5940  0.0952
  594MOL0     C80081   8.588   7.095   0.905  0.0400  0.0274 -0.0151
  594MOL0     C80082   8.490   7.086   1.005  0.2407 -0.6037 -0.4835
  594MOL0     C80083   8.403   7.209   1.019 -0.1002  0.5167 -0.0662
  594MOL0     C80084   8.487   6.985   1.104 -0.0483  0.8634 -1.1131
  594MOL0     C80085   8.386   6.968   1.215  0.0295  0.7993 -0.2023
  594MOL0     O80086   8.264   7.033   1.221 -0.2302 -0.3910  0.2278
  594MOL0     C80087   8.181   7.013   1.331 -0.4422  0.1938 -0.3640
  594MOL0     C80088   8.231   7.062   1.456 -0.3580  0.5294 -0.4662
  594MOL0     C80089   8.145   7.058   1.563 -1.1743  0.4830  0.0711
  594MOL0     C80090   8.021   6.987   1.550  1.1084 -0.3968 -0.8475
  594MOL0     O80091   7.935   6.992   1.659  0.0275 -0.4132 -1.1125
  594MOL0     C80092   7.803   6.933   1.649 -0.5531 -0.2675  1.4776
  594MOL0     C80093   7.727   6.955   1.788  0.2593  0.3692 -0.7798
  594MOL0     C80094   7.578   6.912   1.776 -0.1546  0.8007 -0.7467
  594MOL0     C80095   7.540   6.803   1.889 -0.2961  0.2885  0.5784
  594MOL0     C80096   7.391   6.764   1.870  0.7841  0.9858  0.4952
  594MOL0     C80097   7.353   6.661   1.977 -0.3444  0.5578 -0.8249
  594MOL0     C80098   7.211   6.629   1.983 -0.4790  0.4277 -0.3706
  594MOL0     C80099   7.155   6.555   2.108 -0.4996  0.3590 -0.2675
  594MOL0    Cl80100   6.972   6.551   2.110  0.1144 -0.3676  0.4280
  594MOL0     C80101   7.981   6.928   1.427  0.0723  0.2465 -0.2762
  594MOL0     C80102   8.062   6.954   1.319 -0.6544 -0.0452  1.3751
  594MOL0     O80103   8.410   6.876   1.297  0.1832 -0.1761 -0.3335
  594MOL0     C80104   8.611   6.901   1.106  0.9218 -0.6294  0.7104
  594MOL0     C80105   8.709   6.915   1.003  1.5004 -0.2321 -1.2003
  594MOL0     N80106   9.398   6.941   0.628 -0.4519 -0.0505 -0.1251
  594MOL0     N80107   9.520   6.967   0.659 -0.1087  0.0496  0.4389
  594MOL0     C80108  10.603   6.783   0.512 -0.3901 -0.6663  1.2700
  594MOL0     C80109  10.714   6.861   0.500 -0.2761 -0.4155 -0.0463
  594MOL0     C80110  11.120   7.024   0.481 -0.6588 -0.4031  0.9271
  594MOL0     C80111  11.205   7.035   0.377 -0.5125  1.0481 -0.0456
  594MOL0     C80112  11.341   7.071   0.389 -0.5717 -0.1252  0.1875
  594MOL0     C80113  11.396   7.095   0.511 -0.3519 -1.0296  0.1536
  594MOL0     O80114  11.526   7.126   0.545  0.5070  0.7672 -0.0020
  594MOL0     C80115  11.625   7.169   0.446  0.2399  0.1513  0.1301
  594MOL0     C80116  11.754   7.187   0.523  0.0243  0.4220 -0.4687
  594MOL0     C80117  11.850   7.307   0.474  0.2538  0.1639 -0.7053
  594MOL0     C80118  11.967   7.339   0.571 -0.0481  0.3314 -0.1134
  594MOL0     C80119  12.026   7.471   0.538  0.7657  0.6879 -0.3553
  594MOL0     C80120  12.080   7.571   0.513 -0.5503  0.3998 -0.4300
  594MOL0     C80121  11.301   7.099   0.618 -0.4976 -0.2827  0.4711
  594MOL0     C80122  11.172   7.061   0.610  0.4411  0.7861  0.6137
  594MOL0     H80123  10.856   6.789   0.797  0.0771 -1.4802  0.1497
  594MOL0     H80124  10.669   6.630   0.804  1.7681  0.2265  1.0273
  594MOL0     H80125  10.432   6.747   0.839  2.1033  2.7116  1.0279
  594MOL0     H80126  10.391   6.842   0.695  0.3628 -1.3616 -1.8118
  594MOL0     H80127  10.219   6.696   0.635 -1.0204 -1.4374 -0.0182
  594MOL0     H80128  10.243   6.598   0.784  2.0081  0.8781  0.7536
  594MOL0     H80129  10.169   6.832   0.892  1.9494  0.6929 -1.2164
  594MOL0     H80130  10.128   6.884   0.732  2.4154  0.0187 -0.4937
  594MOL0     H80131   9.974   6.695   0.700  0.7763  2.7411 -0.9514
  594MOL0     H80132  10.013   6.647   0.875  1.6442 -1.2147  0.2669
  594MOL0     H80133   9.961   6.878   0.944 -1.6309  1.1988 -0.1056
  594MOL0     H80134   9.907   6.916   0.789  2.3061  0.2033  0.4258
  594MOL0     H80135   9.703   6.762   0.814  2.2936  0.1191 -0.2198
  594MOL0     H80136   9.777   6.714   0.978  1.0880 -1.8167 -1.2568
  594MOL0     H80137   9.576   6.827   1.012  2.9695 -1.9434  0.8267
  594MOL0     H80138   9.716   6.904   1.063 -0.3595  0.2414  0.1826
  594MOL0     H80139   9.720   7.040   0.843  0.1852  0.1165 -1.1441
  594MOL0     H80140   9.590   7.079   0.958 -0.8347  0.4313 -0.2138
  594MOL0     H80141   9.378   6.963   0.957  2.0014 -0.0191  0.2317
  594MOL0     H80142   9.178   6.808   0.689  1.4301 -0.5527  0.6294
  594MOL0     H80143   9.153   6.899   0.846 -0.7545  0.9260 -0.4761
  594MOL0     H80144   9.136   7.025   0.566 -3.2017 -0.0345 -1.7465
  594MOL0     H80145   9.101   7.102   0.724  0.8716  0.6417  0.1349
  594MOL0     H80146   8.948   6.897   0.562 -2.4231 -0.9014  0.8503
  594MOL0     H80147   8.894   7.050   0.588 -2.5855 -0.6522  1.3525
  594MOL0     H80148   8.949   6.958   0.853  0.4853 -1.7065  0.7515
  594MOL0     H80149   8.872   6.821   0.773  0.1940  0.1747  0.0805
  594MOL0     H80150   8.600   7.180   0.838 -0.4371 -0.6952 -1.0418
  594MOL0     H80151   8.434   7.286   0.948 -0.1239  0.1091 -0.5236
  594MOL0     H80152   8.299   7.181   0.999 -0.0728  1.1906 -1.2240
  594MOL0     H80153   8.401   7.241   1.124 -3.0555 -2.5405  0.9978
  594MOL0     H80154   8.325   7.117   1.454  0.3015 -0.4860  0.8603
  594MOL0     H80155   8.173   7.097   1.660 -1.0751 -1.0982  0.7080
  594MOL0     H80156   7.757   6.987   1.566 -1.9979 -2.0842  1.0427
  594MOL0     H80157   7.789   6.829   1.620 -2.4197  0.2755  0.2097
  594MOL0     H80158   7.776   6.899   1.869  1.3688  2.1624 -0.1608
  594MOL0     H80159   7.732   7.059   1.822 -3.8296  1.9587 -4.2032
  594MOL0     H80160   7.555   6.873   1.676 -0.6913  0.4321 -0.4837
  594MOL0     H80161   7.509   6.996   1.788  0.6552  1.2825  0.8116
  594MOL0     H80162   7.609   6.721   1.870 -0.3401  0.5612 -0.9398
  594MOL0     H80163   7.559   6.841   1.990  2.1779  0.2505  0.1755
  594MOL0     H80164   7.366   6.727   1.770  2.6182 -4.2254  1.6283
  594MOL0     H80165   7.330   6.852   1.891  2.5829  2.7839 -1.3172
  594MOL0     H80166   7.404   6.564   1.977 -1.8050 -0.2369 -1.1331
  594MOL0     H80167   7.381   6.712   2.069 -2.1650  2.2077 -1.1251
  594MOL0     H80168   7.194   6.568   1.893 -0.1232 -2.1767  1.2139
  594MOL0     H80169   7.155   6.723   1.989 -0.5749  0.2733  3.3957
  594MOL0     H80170   7.194   6.610   2.194 -2.6918 -0.8073  1.6075
  594MOL0     H80171   7.199   6.455   2.109 -3.3812 -1.0048 -0.2955
  594MOL0     H80172   7.881   6.886   1.420 -0.0896  0.4201  0.8070
  594MOL0     H80173   8.030   6.928   1.218  1.4036  2.3996 -0.0077
  594MOL0     H80174   8.622   6.832   1.189 -2.1871  0.1929  1.9369
  594MOL0     H80175   8.781   6.839   0.975  0.1915 -0.9535 -2.7594
  594MOL0     H80176  10.513   6.801   0.454 -0.9447 -2.7914  1.3705
  594MOL0     H80177  10.711   6.936   0.421  3.4144  0.0046  0.0499
  594MOL0     H80178  11.172   7.013   0.276 -1.1554  2.3605 -0.1428
  594MOL0     H80179  11.395   7.086   0.296 -1.1706  0.6767 -0.0352
  594MOL0     H80180  11.634   7.090   0.371  1.0799  1.9704 -1.7838
  594MOL0     H80181  11.590   7.264   0.405 -1.4321  0.0796  1.3035
  594MOL0     H80182  11.809   7.095   0.504  0.8809  0.6898  0.6239
  594MOL0     H80183  11.732   7.192   0.630 -0.6901 -2.8064 -0.3584
  594MOL0     H80184  11.783   7.394   0.480  2.4858  1.9718 -0.5408
  594MOL0     H80185  11.887   7.283   0.374 -1.4426 -5.3897 -0.2990
  594MOL0     H80186  12.042   7.260   0.562  1.2585  1.4659  0.4482
  594MOL0     H80187  11.931   7.345   0.674 -3.0371  2.6812 -1.1374
  594MOL0     H80188  12.125   7.667   0.500  0.0301  0.3246  0.8332
  594MOL0     H80189  11.345   7.129   0.712  1.0355 -2.1025  0.4007
  594MOL0     H80190  11.105   7.061   0.696  2.3180 -0.2785  2.1554
  595MOL0     O80191   2.924   3.546   6.809  0.1269 -0.0006  0.5568
  595MOL0     C80192   2.994   3.490   6.896 -0.4388 -0.9554 -0.8547
  595MOL0     O80193   2.997   3.525   7.028 -0.2526 -0.0392  0.1337
  595MOL0     C80194   2.917   3.626   7.068 -0.4452  0.2416 -0.1766
  595MOL0     C80195   2.942   3.759   7.024  1.0309 -0.2793 -0.2361
  595MOL0     C80196   2.850   3.861   7.063 -0.0212  0.4316  1.2469
  595MOL0     C80197   2.759   3.841   7.167 -0.6064 -0.6495 -0.2182
  595MOL0     O80198   2.680   3.944   7.220  0.9280  0.2519  0.0688
  595MOL0     C80199   2.616   4.052   7.136  0.1835 -0.1565  0.5038
  595MOL0     C80200   2.705   4.176   7.122 -0.7444 -0.0562 -0.2246
  595MOL0     C80201   2.654   4.258   7.000  0.5457  1.0004 -0.8658
  595MOL0     C80202   2.736   4.397   6.983  0.0687  1.0048 -0.3212
  595MOL0     C80203   2.718   4.479   6.860 -0.1205  0.1798  0.3380
  595MOL0     C80204   2.774   4.414   6.731  0.1590  0.9326 -0.5235
  595MOL0     C80205   2.757   4.513   6.619  0.3919  0.6111  1.3115
  595MOL0     C80206   2.803   4.455   6.488 -0.1999 -0.2757 -0.3583
  595MOL0     N80207   2.676   4.394   6.435  0.3594  0.1674 -0.3160
  595MOL0     C80208   2.616   4.268   6.466 -0.1642  0.3903  0.2771
  595MOL0     C80209   2.518   4.260   6.375 -0.1916  0.4617 -0.0864
  595MOL0     C80210   2.437   4.137   6.354  0.0626  0.5841  0.7944
  595MOL0     C80211   2.475   4.064   6.231  0.4962  0.3765 -0.0857
  595MOL0     C80212   2.417   4.128   6.110 -0.3647  0.0695  0.3663
  595MOL0     C80213   2.282   4.061   6.075  0.3017 -0.2503  0.3638
  595MOL0     O80214   2.224   4.119   5.963 -0.4813  0.7298  0.5082
  595MOL0     C80215   2.251   4.077   5.831  0.3450 -0.0016  0.0139
  595MOL0     C80216   2.367   4.004   5.790  0.6744  0.1817 -0.4718
  595MOL0     C80217   2.374   3.940   5.664 -0.0393 -0.5300 -0.5591
  595MOL0     C80218   2.499   3.864   5.643 -0.7951 -0.0724  0.8038
  595MOL0     C80219   2.270   3.959   5.575 -0.2237  0.2749 -0.1481
  595MOL0     C80220   2.280   3.914   5.441  0.4212  0.9327  0.0248
  595MOL0     O80221   2.372   3.827   5.401  0.0646  0.7617  0.8919
  595MOL0     C80222   2.411   3.816   5.274  0.0436  0.3000  1.5473
  595MOL0     C80223   2.491   3.699   5.252  0.3365 -0.2601  0.3414
  595MOL0     C80224   2.556   3.680   5.126 -0.2904 -0.0727 -0.3360
  595MOL0     C80225   2.538   3.769   5.018 -0.0774 -0.5058 -0.3907
  595MOL0     O80226   2.598   3.745   4.896 -0.5460  0.6225 -0.1333
  595MOL0     C80227   2.643   3.608   4.876 -0.0011  0.1616 -0.2017
  595MOL0     C80228   2.666   3.578   4.727 -0.7281 -0.0515 -1.1245
  595MOL0     C80229   2.805   3.645   4.685 -0.1618  0.3302 -0.1504
  595MOL0     C80230   2.924   3.556   4.732  0.4933  0.2548 -0.1541
  595MOL0     C80231   3.068   3.603   4.687  1.2059  0.3914  0.4668
  595MOL0     C80232   3.175   3.517   4.757 -0.2617  0.2907  0.2385
  595MOL0     C80233   3.189   3.553   4.898  0.6710  0.0958 -0.8158
  595MOL0     C80234   3.310   3.484   4.971 -0.6771  0.0236 -0.3381
  595MOL0    Cl80235   3.453   3.561   4.907  0.2181  0.0962  0.0143
  595MOL0     C80236   2.461   3.878   5.032 -0.7186  0.4716  0.5642
  595MOL0     C80237   2.405   3.910   5.166  0.0210  0.4300  0.3699
  595MOL0     O80238   2.202   3.960   5.356  0.2423 -0.0485 -0.1820
  595MOL0     C80239   2.155   4.030   5.615  0.0516 -0.3926 -0.3322
  595MOL0     C80240   2.135   4.079   5.743 -0.5770  0.4694  0.7726
  595MOL0     N80241   2.491   4.383   6.314 -0.5052  0.1483 -0.2776
  595MOL0     N80242   2.592   4.458   6.342 -0.0144 -0.5631  0.5135
  595MOL0     C80243   2.749   3.713   7.221  0.2900 -0.6294 -0.1465
  595MOL0     C80244   2.835   3.609   7.180  0.5020  0.1280 -0.0953
  595MOL0     C80245   3.087   3.389   6.846  0.6160  0.1936  0.6517
  595MOL0     C80246   3.078   3.334   6.708 -0.6822 -0.6447 -0.1941
  595MOL0     C80247   3.177   3.247   6.657  0.4330 -0.2567 -0.4085
  595MOL0     C80248   3.282   3.204   6.737 -1.4092 -0.2426 -0.3499
  595MOL0     O80249   3.380   3.119   6.686 -0.5427 -0.1545  0.3709
  595MOL0     C80250   3.516   3.130   6.738 -0.7483  0.3195 -0.2435
  595MOL0     C80251   3.587   3.256   6.701 -0.5800  0.4125  0.1520
  595MOL0     C80252   3.608   3.360   6.813 -0.1994 -0.0702  0.2150
  595MOL0     C80253   3.655   3.500   6.754 -0.8047 -0.1760  0.0867
  595MOL0     C80254   3.564   3.557   6.656  0.7471 -0.2914  0.1486
  595MOL0     C80255   3.480   3.624   6.592 -0.3454  0.3434  0.2224
  595MOL0     C80256   3.276   3.248   6.870  0.5334  0.1745  0.6040
  595MOL0     C80257   3.176   3.325   6.921 -0.8783 -0.8721 -0.1503
  595MOL0     H80258   3.013   3.789   6.947  0.6615 -0.4938 -0.6617
  595MOL0     H80259   2.864   3.961   7.021 -0.4084  0.7363  1.8396
  595MOL0     H80260   2.590   4.007   7.040  0.7624  0.4179  0.0668
  595MOL0     H80261   2.520   4.089   7.173  0.7339  1.0761  0.7654
  595MOL0     H80262   2.701   4.241   7.210  0.8944 -1.2937  0.8306
  595MOL0     H80263   2.807   4.147   7.095 -1.3479 -0.8437 -1.7422
  595MOL0     H80264   2.658   4.192   6.914 -2.7743  0.2534 -0.5762
  595MOL0     H80265   2.547   4.279   7.013  0.7120  0.7597  1.3964
  595MOL0     H80266   2.701   4.446   7.074 -1.2387  2.5313 -1.5854
  595MOL0     H80267   2.842   4.372   6.998 -0.7246 -1.6508  1.7518
  595MOL0     H80268   2.613   4.503   6.844  0.6420  2.9741 -0.9839
  595MOL0     H80269   2.782   4.568   6.864 -0.6637  0.5447  1.4542
  595MOL0     H80270   2.880   4.391   6.745  0.8949  2.8845 -2.4128
  595MOL0     H80271   2.726   4.320   6.700  1.5738 -1.0132  2.6596
  595MOL0     H80272   2.652   4.542   6.621 -0.2900 -1.4939 -0.4298
  595MOL0     H80273   2.820   4.600   6.642  1.4239  0.2480 -0.0095
  595MOL0     H80274   2.889   4.388   6.496  2.6067  2.8579 -1.5884
  595MOL0     H80275   2.834   4.541   6.427 -2.9043  1.2125  0.2002
  595MOL0     H80276   2.668   4.193   6.525 -0.3258 -0.5590 -0.7572
  595MOL0     H80277   2.437   4.055   6.427  0.9333 -2.8606 -2.7120
  595MOL0     H80278   2.334   4.175   6.351 -0.9700 -2.0305  0.6250
  595MOL0     H80279   2.438   3.961   6.230 -0.0312  0.5331  1.3318
  595MOL0     H80280   2.585   4.067   6.226  0.6137 -1.4714  0.7595
  595MOL0     H80281   2.487   4.121   6.026 -1.4143  3.8705 -0.9994
  595MOL0     H80282   2.396   4.235   6.116 -2.3768 -0.3042  0.4148
  595MOL0     H80283   2.224   4.062   6.167 -1.3551 -0.0164 -0.6319
  595MOL0     H80284   2.295   3.954   6.055  2.8536 -0.1359  0.9950
  595MOL0     H80285   2.444   3.994   5.866  2.6206  3.7911 -1.7568
  595MOL0     H80286   2.466   3.761   5.627 -2.5578  0.5467  0.1392
  595MOL0     H80287   2.554   3.908   5.559  0.7343  0.4039  2.0018
  595MOL0     H80288   2.564   3.869   5.730  0.5176 -3.1287  0.1175
  595MOL0     H80289   2.512   3.640   5.341  0.6884  0.4945  0.7655
  595MOL0     H80290   2.624   3.595   5.122  1.2695  1.1567 -3.4623
  595MOL0     H80291   2.734   3.599   4.937 -1.1956 -0.5175  1.5829
  595MOL0     H80292   2.566   3.544   4.919 -1.5857  1.5867 -0.7920
  595MOL0     H80293   2.662   3.470   4.714 -1.6150  0.1613 -2.9247
  595MOL0     H80294   2.585   3.622   4.668 -0.1480  0.2085 -1.7309
  595MOL0     H80295   2.825   3.741   4.733  3.3573 -0.5854  0.5054
  595MOL0     H80296   2.796   3.669   4.578 -0.2307  1.9136  0.1907
  595MOL0     H80297   2.910   3.556   4.840 -3.1174 -1.4127 -0.4666
  595MOL0     H80298   2.913   3.454   4.695  1.1122 -0.3967  1.4046
  595MOL0     H80299   3.079   3.711   4.702 -1.3843  0.6916  0.5737
  595MOL0     H80300   3.075   3.590   4.579 -0.5015 -4.6384  0.6850
  595MOL0     H80301   3.153   3.409   4.756 -1.1493  0.4515  0.8078
  595MOL0     H80302   3.259   3.538   4.690 -0.5445 -1.0528 -0.5857
  595MOL0     H80303   3.104   3.519   4.958  1.9847 -0.5202  0.7727
  595MOL0     H80304   3.187   3.663   4.901 -3.4059  0.2309 -1.8794
  595MOL0     H80305   3.325   3.378   4.950  1.0714 -0.2154  1.7748
  595MOL0     H80306   3.309   3.497   5.079  2.0005 -0.5366 -0.1804
  595MOL0     H80307   2.433   3.939   4.947  0.9891  0.3542 -0.1282
  595MOL0     H80308   2.348   4.002   5.158 -1.1323 -0.2343  0.7000
  595MOL0     H80309   2.073   4.037   5.545 -2.9709  0.3424  2.9935
  595MOL0     H80310   2.045   4.130   5.776  0.8907  1.9356  2.7782
  595MOL0     H80311   2.679   3.706   7.304  1.2823  2.1115  1.0338
  595MOL0     H80312   2.838   3.512   7.228  5.5291  0.2336  0.2879
  595MOL0     H80313   2.999   3.373   6.644 -1.2521 -0.6464  0.4869
  595MOL0     H80314   3.177   3.213   6.553 -2.0347  0.1073 -0.5868
  595MOL0     H80315   3.523   3.102   6.843 -0.8561  0.5359 -0.1789
  595MOL0     H80316   3.571   3.054   6.682 -2.8260  0.5828 -2.8780
  595MOL0     H80317   3.533   3.303   6.618  0.2579  0.0708 -0.6075
  595MOL0     H80318   3.684   3.226   6.660 -0.4644 -0.9314  1.3222
  595MOL0     H80319   3.688   3.320   6.875  2.4427  1.0739 -2.2121
  595MOL0     H80320   3.512   3.370   6.863  0.0066 -3.5004  1.5725
  595MOL0     H80321   3.754   3.482   6.712 -1.0201 -3.5235  0.7417
  595MOL0     H80322   3.666   3.577   6.831 -0.1098 -0.1799  0.0016
  595MOL0     H80323   3.415   3.689   6.537 -1.5413  0.2387  1.4615
  595MOL0     H80324   3.339   3.192   6.939  1.1160 -1.6875 -1.3465
  595MOL0     H80325   3.187   3.360   7.024  0.3936 -1.4798 -0.0626
  596MOL0     O80326   7.421   0.212  11.068  0.1834 -0.1335  0.5983
  596MOL0     C80327   7.381   0.261  11.168  0.0789 -0.9932 -0.0939
  596MOL0     O80328   7.265   0.329  11.188 -0.6723 -0.4262  0.0932
  596MOL0     C80329   7.167   0.317  11.095 -0.1313 -0.0417  0.6680
  596MOL0     C80330   7.042   0.261  11.129 -0.4306 -1.0775  0.4985
  596MOL0     C80331   6.933   0.251  11.049 -0.0105  0.3898 -0.1711
  596MOL0     C80332   6.956   0.297  10.916 -0.2522 -0.3059  0.2067
  596MOL0     O80333   6.855   0.312  10.823  0.7029  0.8301 -0.1051
  596MOL0     C80334   6.847   0.187  10.750  0.4369 -0.0447 -1.3841
  596MOL0     C80335   6.769   0.193  10.622 -0.5543  0.2581 -0.5560
  596MOL0     C80336   6.784   0.312  10.530  0.3145  0.1948 -0.0428
  596MOL0     C80337   6.658   0.307  10.452  0.6193 -0.1718  0.3591
  596MOL0     C80338   6.673   0.376  10.318  0.4391  0.0246 -0.7053
  596MOL0     C80339   6.563   0.349  10.210  0.4480 -0.7693  0.7631
  596MOL0     C80340   6.602   0.371  10.060  0.0565  0.2151  0.5565
  596MOL0     C80341   6.639   0.520  10.031 -0.9531  0.1741 -0.8196
  596MOL0     N80342   6.648   0.569   9.893  0.0898 -0.0961  0.2864
  596MOL0     C80343   6.682   0.496   9.787 -0.4990  0.0670 -0.2347
  596MOL0     C80344   6.682   0.574   9.674 -0.1203 -0.5661 -0.4883
  596MOL0     C80345   6.701   0.538   9.525 -0.6199 -0.2829 -1.1504
  596MOL0     C80346   6.838   0.473   9.510  0.0839  0.0698 -1.1670
  596MOL0     C80347   6.949   0.568   9.554  0.8025  0.0335 -0.2892
  596MOL0     C80348   7.078   0.488   9.580 -0.1779 -0.3028  0.6963
  596MOL0     O80349   7.072   0.397   9.695  0.0091 -0.0143  0.1854
  596MOL0     C80350   7.144   0.428   9.806  0.7260 -0.7734  0.6708
  596MOL0     C80351   7.264   0.479   9.822  0.8176  0.1894  0.6380
  596MOL0     C80352   7.326   0.499   9.944 -0.5870  0.5757 -0.3526
  596MOL0     C80353   7.474   0.536   9.945 -0.2715  1.2660  0.4079
  596MOL0     C80354   7.257   0.474  10.067  0.1375  0.1282  0.5466
  596MOL0     C80355   7.313   0.479  10.210  0.6484 -0.8212  0.6675
  596MOL0     O80356   7.224   0.478  10.306 -0.0486 -0.8801  0.4087
  596MOL0     C80357   7.270   0.501  10.435 -0.0347 -0.4803 -0.2905
  596MOL0     C80358   7.356   0.425  10.511  0.2431  0.5777 -0.2308
  596MOL0     C80359   7.380   0.477  10.645  0.4305  0.0050  0.3476
  596MOL0     C80360   7.330   0.600  10.697  0.3275  0.1060 -0.2617
  596MOL0     O80361   7.357   0.636  10.827  0.2105  0.2977  0.0768
  596MOL0     C80362   7.296   0.761  10.871  0.0556  0.0204  0.0212
  596MOL0     C80363   7.288   0.756  11.017 -0.9152  0.6681 -1.0607
  596MOL0     C80364   7.233   0.889  11.063  0.2099 -0.5846 -0.3515
  596MOL0     C80365   7.081   0.903  11.047  0.0185 -0.2931 -0.0900
  596MOL0     C80366   7.017   0.984  11.165  1.4154  0.0417  0.1408
  596MOL0     C80367   6.870   1.041  11.117 -1.0011 -0.4459 -0.0659
  596MOL0     C80368   6.805   1.139  11.213 -0.7274  0.2117  1.2523
  596MOL0     C80369   6.694   1.223  11.152  0.0385  0.4938  0.3114
  596MOL0    Cl80370   6.555   1.113  11.131  0.0852 -0.4908  0.0837
  596MOL0     C80371   7.274   0.684  10.603  0.8362 -0.0379 -0.2245
  596MOL0     C80372   7.241   0.636  10.479  0.1064 -0.2089  0.5224
  596MOL0     O80373   7.433   0.488  10.227  1.3436  0.1832  0.3007
  596MOL0     C80374   7.121   0.444  10.051 -0.3327 -0.2166 -0.8170
  596MOL0     C80375   7.065   0.413   9.918  0.3535 -0.9171 -0.1390
  596MOL0     N80376   6.631   0.696   9.713  0.2743  0.1002 -0.1435
  596MOL0     N80377   6.611   0.690   9.843 -0.3448  0.1008 -0.0113
  596MOL0     C80378   7.079   0.358  10.876 -0.3834 -0.0391  0.1070
  596MOL0     C80379   7.187   0.359  10.964  0.6127 -0.4112  0.7281
  596MOL0     C80380   7.451   0.229  11.294 -0.2591  0.8504  0.4625
  596MOL0     C80381   7.528   0.110  11.298 -0.7259  0.7994 -0.3384
  596MOL0     C80382   7.605   0.086  11.404  0.1611  1.1151 -0.0179
  596MOL0     C80383   7.611   0.170  11.516 -0.1078 -0.1138 -0.4264
  596MOL0     O80384   7.683   0.132  11.628  0.8216 -0.0694 -0.6559
  596MOL0     C80385   7.708  -0.008  11.649 -0.4896  0.3918  0.5730
  596MOL0     C80386   7.591  -0.097  11.667  0.6832  0.1817 -0.1885
  596MOL0     C80387   7.548  -0.133  11.814 -0.4312  0.4995 -0.2888
  596MOL0     C80388   7.475  -0.026  11.901 -0.4739  0.6728  0.1739
  596MOL0     C80389   7.390   0.064  11.814  0.7028 -1.1956 -0.6060
  596MOL0     C80390   7.312   0.148  11.759  0.1127  0.4226 -0.1409
  596MOL0     C80391   7.534   0.283  11.517  0.0389  1.1888 -0.3436
  596MOL0     C80392   7.446   0.305  11.411  0.4811 -0.4999  1.2715
  596MOL0     H80393   7.030   0.245  11.235  2.9687 -1.1568  0.9947
  596MOL0     H80394   6.838   0.215  11.087  0.5968 -0.3358  0.6820
  596MOL0     H80395   6.953   0.168  10.730  2.1189  5.0728  0.8731
  596MOL0     H80396   6.807   0.109  10.816  0.5321  0.5578 -0.5935
  596MOL0     H80397   6.790   0.097  10.572  0.9911  1.2183 -1.8639
  596MOL0     H80398   6.676   0.208  10.676 -0.1168 -0.4901  0.4414
  596MOL0     H80399   6.806   0.400  10.591  2.0859  0.7373 -1.3760
  596MOL0     H80400   6.862   0.296  10.454 -0.1924  1.9876 -0.9938
  596MOL0     H80401   6.623   0.205  10.436  1.2695 -0.3388 -0.0611
  596MOL0     H80402   6.581   0.364  10.505 -0.7498  0.9265 -2.6144
  596MOL0     H80403   6.680   0.484  10.336  0.0977 -0.1402  0.4808
  596MOL0     H80404   6.757   0.317  10.279 -3.0378 -6.2985  0.1274
  596MOL0     H80405   6.547   0.241  10.214 -1.3559 -0.7478 -2.7396
  596MOL0     H80406   6.470   0.404  10.229  1.6945  1.4173  0.8564
  596MOL0     H80407   6.688   0.307  10.041 -1.5963 -2.2414  0.8170
  596MOL0     H80408   6.525   0.337   9.990  0.0672 -0.4106  0.8409
  596MOL0     H80409   6.735   0.529  10.082  0.0872 -2.4271 -2.1368
  596MOL0     H80410   6.576   0.597  10.079  3.2375  3.3109  0.2117
  596MOL0     H80411   6.709   0.391   9.787  0.5080  0.3052  0.6189
  596MOL0     H80412   6.622   0.468   9.494  1.4617 -1.3441 -4.6560
  596MOL0     H80413   6.698   0.621   9.454 -1.2863 -0.3651 -1.2233
  596MOL0     H80414   6.849   0.442   9.406  1.8492  1.2436 -1.3731
  596MOL0     H80415   6.837   0.379   9.565  3.1228  1.0129  0.7261
  596MOL0     H80416   6.931   0.627   9.645  2.2131 -0.0947  0.0924
  596MOL0     H80417   6.954   0.643   9.475  0.9963 -2.2285 -2.5713
  596MOL0     H80418   7.161   0.558   9.595  1.7451 -2.5153  0.9095
  596MOL0     H80419   7.088   0.424   9.491 -1.2964  0.2028  0.1952
  596MOL0     H80420   7.318   0.503   9.731  2.2948  2.3515  1.9851
  596MOL0     H80421   7.505   0.575   9.848 -3.0090  2.5839 -0.0422
  596MOL0     H80422   7.494   0.618  10.015  1.5334 -0.7039  2.3491
  596MOL0     H80423   7.543   0.455   9.969 -0.8189  1.4824  2.9760
  596MOL0     H80424   7.386   0.322  10.491 -2.1708 -0.4380  1.0043
  596MOL0     H80425   7.428   0.409  10.714  0.4483 -1.6277 -1.1891
  596MOL0     H80426   7.363   0.838  10.831 -1.1774  0.0771 -2.0471
  596MOL0     H80427   7.193   0.769  10.837  0.9992 -1.1504 -3.5607
  596MOL0     H80428   7.236   0.668  11.058  1.3919  1.0600  3.3040
  596MOL0     H80429   7.387   0.736  11.058 -1.4314 -5.1530 -1.6916
  596MOL0     H80430   7.280   0.977  11.017 -1.4144  0.0909 -0.7770
  596MOL0     H80431   7.254   0.887  11.171  1.0091 -0.7604 -0.5021
  596MOL0     H80432   7.053   0.943  10.949 -2.3721 -1.1171  0.1912
  596MOL0     H80433   7.031   0.806  11.054 -2.3314  0.7720 -0.9875
  596MOL0     H80434   7.083   1.069  11.182  0.4446  0.9142 -0.3380
  596MOL0     H80435   7.003   0.925  11.256 -1.2964  2.0783  1.1911
  596MOL0     H80436   6.883   1.094  11.022  1.2262 -2.0806 -0.7629
  596MOL0     H80437   6.810   0.951  11.100  0.5316 -1.5169  0.0379
  596MOL0     H80438   6.881   1.200  11.261  1.0939 -1.5329  0.7422
  596MOL0     H80439   6.755   1.082  11.292  1.2526 -2.6336  0.6018
  596MOL0     H80440   6.717   1.257  11.050 -1.0711 -0.2984 -0.2243
  596MOL0     H80441   6.680   1.310  11.217 -1.2909  3.4322 -3.5104
  596MOL0     H80442   7.247   0.788  10.617  0.6550 -0.1643  0.3825
  596MOL0     H80443   7.184   0.690  10.404 -2.0700 -4.2678 -1.1075
  596MOL0     H80444   7.055   0.442  10.137  1.4029 -3.3844  0.6197
  596MOL0     H80445   6.961   0.382   9.909  0.8212 -2.9972  0.8356
  596MOL0     H80446   7.087   0.400  10.776 -0.0782  0.0622  0.1729
  596MOL0     H80447   7.284   0.402  10.944  0.9778 -1.3911  0.3170
  596MOL0     H80448   7.534   0.042  11.214 -1.8124 -0.4399  0.5404
  596MOL0     H80449   7.669  -0.001  11.393 -3.2918 -1.6837  0.4582
  596MOL0     H80450   7.779  -0.039  11.572  0.5018 -0.6398  1.8584
  596MOL0     H80451   7.766  -0.018  11.741 -3.7147  0.2786  2.8034
  596MOL0     H80452   7.615  -0.185  11.607  0.2124  0.7970 -1.3188
  596MOL0     H80453   7.506  -0.059  11.609 -0.6129 -2.6751 -0.3037
  596MOL0     H80454   7.638  -0.164  11.869  0.5605  0.9169 -1.6232
  596MOL0     H80455   7.481  -0.219  11.805  0.4001 -0.7709  3.6680
  596MOL0     H80456   7.554   0.031  11.951 -0.0394  1.7637 -1.6499
  596MOL0     H80457   7.411  -0.066  11.981  0.8030 -1.6308  0.1265
  596MOL0     H80458   7.258   0.219  11.700 -3.3510  0.3786  2.6775
  596MOL0     H80459   7.555   0.344  11.604  2.4589 -1.1835  0.8811
  596MOL0     H80460   7.382   0.393  11.406  0.9805 -0.1678  0.6351
  597MOL0     O80461  11.489   1.857   4.829 -0.2623 -0.2751  0.5454
  597MOL0     C80462  11.395   1.834   4.749 -0.3558 -0.6324 -0.9362
  597MOL0     O80463  11.270   1.793   4.792  0.1719 -0.5735  1.0229
  597MOL0     C80464  11.248   1.776   4.924 -0.1734  0.2200 -0.3597
  597MOL0     C80465  11.135   1.829   4.984  1.1395  0.0735 -1.2882
  597MOL0     C80466  11.112   1.797   5.115  0.7399 -0.6412 -0.7023
  597MOL0     C80467  11.188   1.717   5.199  0.3517 -0.5438 -0.0148
  597MOL0     O80468  11.157   1.676   5.324 -0.8877 -0.2367 -0.2197
  597MOL0     C80469  11.234   1.716   5.440  0.4565  0.1113 -0.2741
  597MOL0     C80470  11.137   1.763   5.546  0.2021  0.6353 -1.0045
  597MOL0     C80471  11.196   1.791   5.688  0.7178  0.1750 -0.6455
  597MOL0     C80472  11.278   1.676   5.745  0.1162  0.7735 -0.6167
  597MOL0     C80473  11.320   1.695   5.891  0.0397  0.3797 -0.2533
  597MOL0     C80474  11.451   1.763   5.915 -0.0426  0.0064 -0.1352
  597MOL0     C80475  11.469   1.788   6.070  0.6631 -0.1406  0.0019
  597MOL0     C80476  11.398   1.911   6.124  0.1436 -0.1108  0.0425
  597MOL0     N80477  11.455   2.031   6.067 -0.5306 -0.2095  0.4136
  597MOL0     C80478  11.570   2.088   6.105  0.1599 -0.5062 -0.1500
  597MOL0     C80479  11.598   2.171   6.011 -0.3922 -0.9272 -0.6502
  597MOL0     C80480  11.716   2.264   6.005  0.3276  0.4798  0.0955
  597MOL0     C80481  11.684   2.408   5.981 -0.7060  0.1835  0.2842
  597MOL0     C80482  11.572   2.454   6.068 -0.3013 -0.2961  0.5680
  597MOL0     C80483  11.573   2.601   6.108  0.5171  0.0380 -0.4101
  597MOL0     O80484  11.444   2.639   6.150 -0.3471  0.3047 -0.6485
  597MOL0     C80485  11.432   2.743   6.246  0.5886  0.9668  0.5167
  597MOL0     C80486  11.312   2.746   6.319 -0.1662 -0.0451  0.2788
  597MOL0     C80487  11.284   2.842   6.417 -0.2429 -0.2420  1.1408
  597MOL0     C80488  11.136   2.867   6.449  0.5779 -0.9279 -0.4196
  597MOL0     C80489  11.387   2.935   6.461 -0.3359  1.1359 -0.4033
  597MOL0     C80490  11.359   3.048   6.550 -0.0960  0.0398 -0.9373
  597MOL0     O80491  11.460   3.138   6.590 -0.4121  0.5043  0.3406
  597MOL0     C80492  11.435   3.247   6.671 -0.5740 -0.7685  0.4481
  597MOL0     C80493  11.445   3.220   6.804  0.2912 -0.2837  1.1292
  597MOL0     C80494  11.456   3.326   6.896  0.0607 -0.4648 -0.1532
  597MOL0     C80495  11.447   3.458   6.845  0.5081 -0.7539 -0.5851
  597MOL0     O80496  11.436   3.559   6.944 -0.9390 -0.0621  0.2719
  597MOL0     C80497  11.526   3.669   6.955 -0.7824 -0.8921  1.7352
  597MOL0     C80498  11.490   3.748   7.069 -0.4672 -0.9361 -0.1413
  597MOL0     C80499  11.580   3.875   7.088 -0.4920 -0.2673  0.9973
  597MOL0     C80500  11.524   3.962   7.184  0.0314 -1.2345  0.2272
  597MOL0     C80501  11.604   4.087   7.212  0.8438  0.2034  0.0706
  597MOL0     C80502  11.544   4.194   7.307 -0.4881  0.5694 -0.0672
  597MOL0     C80503  11.631   4.321   7.315  0.9299 -0.3794  0.8693
  597MOL0     C80504  11.547   4.428   7.373  0.1522  0.5645  0.1060
  597MOL0    Cl80505  11.632   4.525   7.490  0.0882 -0.6828 -0.0956
  597MOL0     C80506  11.433   3.491   6.709  0.4518 -0.2617 -0.8378
  597MOL0     C80507  11.434   3.379   6.618  0.6301  0.1281  0.2035
  597MOL0     O80508  11.248   3.050   6.604 -0.2562 -0.3794  0.0469
  597MOL0     C80509  11.508   2.918   6.397 -0.2548 -0.3424 -0.1091
  597MOL0     C80510  11.533   2.825   6.295 -1.0202  0.4924 -0.3054
  597MOL0     N80511  11.507   2.158   5.910 -0.3767 -0.5409  0.2634
  597MOL0     N80512  11.417   2.072   5.939  0.0772  0.4717 -0.3326
  597MOL0     C80513  11.303   1.670   5.142  0.1827 -0.0441  0.0983
  597MOL0     C80514  11.336   1.697   5.006  0.1152 -0.2641 -0.1910
  597MOL0     C80515  11.414   1.822   4.601 -0.7421  0.4490  0.5659
  597MOL0     C80516  11.542   1.804   4.539 -0.5137  0.1612 -0.1629
  597MOL0     C80517  11.544   1.784   4.398  0.0324 -1.1260 -0.7252
  597MOL0     C80518  11.423   1.789   4.327 -0.7962 -0.4789  0.8441
  597MOL0     O80519  11.436   1.783   4.188 -0.0079  0.0129  0.3691
  597MOL0     C80520  11.318   1.759   4.104 -0.3004  0.3129 -0.0920
  597MOL0     C80521  11.377   1.716   3.968  0.1561  0.2571 -0.0463
  597MOL0     C80522  11.463   1.833   3.919 -0.8868  0.0737  0.4351
  597MOL0     C80523  11.523   1.805   3.784  0.3462 -0.3679  0.2058
  597MOL0     C80524  11.402   1.811   3.691  0.4938 -0.5005  0.3163
  597MOL0     C80525  11.319   1.817   3.608 -0.1238 -0.2870  0.2876
  597MOL0     C80526  11.298   1.812   4.385 -0.7695 -0.0242 -0.2515
  597MOL0     C80527  11.295   1.824   4.524  0.4849 -0.3802  1.6219
  597MOL0     H80528  11.078   1.884   4.909 -0.7135 -0.8618 -0.6287
  597MOL0     H80529  11.021   1.840   5.157  1.9348  0.4184  0.9382
  597MOL0     H80530  11.288   1.634   5.489  0.8910  0.8989  0.5860
  597MOL0     H80531  11.305   1.797   5.419  1.9525 -0.5170  1.9056
  597MOL0     H80532  11.088   1.854   5.510  0.5759  0.1975 -2.6732
  597MOL0     H80533  11.072   1.677   5.567  1.6062 -0.4170 -0.8443
  597MOL0     H80534  11.226   1.896   5.697 -2.2059  0.9304  2.8684
  597MOL0     H80535  11.110   1.785   5.756 -0.0784 -1.7567 -1.7524
  597MOL0     H80536  11.225   1.581   5.736  0.1148  0.8536 -1.4659
  597MOL0     H80537  11.367   1.666   5.682  1.3382  3.7325  0.4372
  597MOL0     H80538  11.246   1.750   5.950 -0.0435  1.5281 -1.3775
  597MOL0     H80539  11.314   1.596   5.938 -3.1034  1.0195  0.9397
  597MOL0     H80540  11.528   1.694   5.879 -0.9288 -1.7361  1.1713
  597MOL0     H80541  11.468   1.851   5.852  2.6648  1.1470  1.9648
  597MOL0     H80542  11.431   1.701   6.126  0.9345  0.3986  1.0617
  597MOL0     H80543  11.573   1.794   6.103  0.6906 -0.5502 -0.0016
  597MOL0     H80544  11.406   1.910   6.233  1.7006 -0.6955 -0.0521
  597MOL0     H80545  11.292   1.918   6.099  0.4206 -1.8950 -1.8251
  597MOL0     H80546  11.605   2.095   6.207 -2.1884 -3.2427  1.0100
  597MOL0     H80547  11.779   2.273   6.093 -0.4484  1.1639  0.6009
  597MOL0     H80548  11.786   2.228   5.929  1.5494  0.6650  1.1022
  597MOL0     H80549  11.658   2.430   5.877  0.3208 -2.0494 -0.4933
  597MOL0     H80550  11.773   2.469   5.999  0.2667 -1.1998  0.3220
  597MOL0     H80551  11.569   2.391   6.157  1.4538 -1.2112  0.0305
  597MOL0     H80552  11.483   2.433   6.007  0.7708 -3.9495  0.0134
  597MOL0     H80553  11.597   2.672   6.028  2.0053  3.1767  2.5885
  597MOL0     H80554  11.646   2.612   6.188  0.6125 -1.2207 -0.3127
  597MOL0     H80555  11.234   2.678   6.289  2.1498 -3.4711  1.4179
  597MOL0     H80556  11.120   2.972   6.420  0.5600 -0.5803  0.7953
  597MOL0     H80557  11.072   2.810   6.381  2.6929 -2.5570 -1.1696
  597MOL0     H80558  11.106   2.846   6.552  1.3044  0.4607  0.1043
  597MOL0     H80559  11.455   3.120   6.844  0.0450 -0.3828  0.9416
  597MOL0     H80560  11.457   3.314   7.004 -0.2131 -3.9527 -0.4430
  597MOL0     H80561  11.633   3.650   6.963 -0.3835  1.4359  2.5955
  597MOL0     H80562  11.525   3.734   6.867  2.0857 -4.0192 -0.8614
  597MOL0     H80563  11.388   3.785   7.054 -0.0742 -0.5246 -2.0211
  597MOL0     H80564  11.492   3.681   7.155 -1.6454  0.7553  1.2952
  597MOL0     H80565  11.591   3.922   6.990 -0.7188  3.8348  2.7359
  597MOL0     H80566  11.679   3.846   7.125  0.5551 -1.3364 -2.3218
  597MOL0     H80567  11.423   3.986   7.149 -0.2447 -1.3824  0.9073
  597MOL0     H80568  11.506   3.911   7.279  1.1555  0.2355  1.2871
  597MOL0     H80569  11.630   4.130   7.115  5.3116  0.6504  1.2427
  597MOL0     H80570  11.693   4.049   7.263  2.9508  0.0541 -3.3489
  597MOL0     H80571  11.457   4.235   7.255 -0.5752 -0.9767 -1.2157
  597MOL0     H80572  11.517   4.153   7.405  2.0305  0.8756  0.8349
  597MOL0     H80573  11.670   4.339   7.214 -0.6836 -1.1392  0.0766
  597MOL0     H80574  11.710   4.303   7.389  1.4515  1.5569  0.8380
  597MOL0     H80575  11.457   4.393   7.425 -1.7752  4.0491 -0.5514
  597MOL0     H80576  11.518   4.496   7.292  1.1241  0.9851  0.0922
  597MOL0     H80577  11.432   3.598   6.696  1.5602 -0.2387 -0.8411
  597MOL0     H80578  11.446   3.390   6.510  2.7557 -0.4811  0.3270
  597MOL0     H80579  11.590   2.983   6.428 -1.2554  0.8766  0.0483
  597MOL0     H80580  11.629   2.836   6.245 -1.9024  1.6176 -1.8448
  597MOL0     H80581  11.366   1.610   5.209  2.2186  2.1656  0.2999
  597MOL0     H80582  11.427   1.653   4.967  1.3994  1.7422  0.3930
  597MOL0     H80583  11.636   1.810   4.593  0.3320  0.5523 -1.6180
  597MOL0     H80584  11.637   1.771   4.342  2.9346  1.1769  3.0861
  597MOL0     H80585  11.250   1.683   4.145  0.9336  0.3303  2.1416
  597MOL0     H80586  11.270   1.855   4.087  0.9394  0.3940 -4.2995
  597MOL0     H80587  11.299   1.705   3.893  0.2395 -2.8652  0.1770
  597MOL0     H80588  11.433   1.623   3.985 -1.1702 -0.2875  1.6065
  597MOL0     H80589  11.536   1.874   3.989 -0.2438  0.8371 -0.6574
  597MOL0     H80590  11.402   1.924   3.914  1.0121  1.3603 -3.1549
  597MOL0     H80591  11.570   1.708   3.770 -4.0858 -2.5425 -1.6380
  597MOL0     H80592  11.580   1.895   3.757 -0.4238 -0.2565 -1.1427
  597MOL0     H80593  11.243   1.813   3.533 -0.2692 -0.9517  0.4632
  597MOL0     H80594  11.201   1.811   4.337 -0.0499  5.4439 -2.5396
  597MOL0     H80595  11.198   1.816   4.573 -0.7824  0.1750 -0.6584
  598MOL0     O80596   7.875   6.927   9.833  0.2061  0.4600 -0.1848
  598MOL0     C80597   7.907   6.964   9.724 -0.0121 -0.3607  0.3754
  598MOL0     O80598   7.832   7.046   9.645  0.3781  0.0700 -0.3736
  598MOL0     C80599   7.699   7.070   9.678  0.3143  0.1684  0.5376
  598MOL0     C80600   7.646   7.152   9.775  0.1422  0.8923 -0.0063
  598MOL0     C80601   7.509   7.144   9.803 -0.6413 -0.1389 -0.0066
  598MOL0     C80602   7.413   7.063   9.734  0.2347 -0.6742  0.4264
  598MOL0     O80603   7.281   7.043   9.760 -0.2224  0.5021 -1.4286
  598MOL0     C80604   7.219   7.112   9.874  0.1548  0.1268 -0.3110
  598MOL0     C80605   7.067   7.100   9.884  0.2327  0.1179  0.7892
  598MOL0     C80606   7.011   6.962   9.851  0.2015  0.1133  1.0694
  598MOL0     C80607   6.859   6.952   9.844 -0.1754  0.5494  0.3092
  598MOL0     C80608   6.792   6.819   9.798 -0.0203 -0.3446  0.3589
  598MOL0     C80609   6.672   6.798   9.893  0.4535  1.5154  0.1774
  598MOL0     C80610   6.563   6.704   9.829  0.0447 -0.5635 -0.7760
  598MOL0     C80611   6.537   6.605   9.941  0.3900  0.3502 -0.7226
  598MOL0     N80612   6.442   6.506   9.879 -0.5192 -0.1591  0.4847
  598MOL0     C80613   6.303   6.514   9.909 -0.8440  0.0630 -0.0725
  598MOL0     C80614   6.253   6.407   9.854  0.1583  0.1966  0.1502
  598MOL0     C80615   6.106   6.378   9.855 -0.2215  0.2905  0.1001
  598MOL0     C80616   6.064   6.278   9.741  0.3902 -0.5608 -0.3745
  598MOL0     C80617   5.907   6.240   9.744  0.2550  0.8889  0.3334
  598MOL0     C80618   5.829   6.243   9.881 -0.5288  0.7848 -0.6682
  598MOL0     O80619   5.694   6.271   9.841 -0.3241 -0.2053  0.4180
  598MOL0     C80620   5.605   6.160   9.861  0.4395 -0.4752  0.6513
  598MOL0     C80621   5.612   6.038   9.793 -0.3863 -0.2165  0.7480
  598MOL0     C80622   5.517   5.934   9.801 -0.2468 -0.2779  0.3913
  598MOL0     C80623   5.553   5.811   9.723 -0.2329  0.4591  0.0450
  598MOL0     C80624   5.409   5.947   9.890  0.3223  0.9949  0.1261
  598MOL0     C80625   5.310   5.842   9.913 -0.0346  1.0288 -0.5456
  598MOL0     O80626   5.341   5.713   9.866 -0.2270 -0.4086 -0.0879
  598MOL0     C80627   5.258   5.609   9.903  0.6814 -0.6572 -0.3075
  598MOL0     C80628   5.194   5.587  10.022 -0.3236  0.4575  0.0998
  598MOL0     C80629   5.084   5.498  10.040 -0.4637  0.2679  0.8805
  598MOL0     C80630   5.041   5.434   9.929  0.7541  1.0462  0.2619
  598MOL0     O80631   4.931   5.352   9.965 -0.1557 -0.8300 -0.1497
  598MOL0     C80632   4.884   5.260   9.859 -1.0273 -0.7054 -0.0477
  598MOL0     C80633   4.776   5.166   9.913  0.1079  0.4922  0.4003
  598MOL0     C80634   4.813   5.080  10.041  0.2642  0.3228  0.1538
  598MOL0     C80635   4.942   4.992  10.008 -0.9541  0.6384 -0.9233
  598MOL0     C80636   4.973   4.876  10.108  0.2702 -0.9714  0.3058
  598MOL0     C80637   4.859   4.766  10.130  0.5356  0.5935  0.1375
  598MOL0     C80638   4.837   4.690   9.995  0.2875 -0.2130 -1.2827
  598MOL0     C80639   4.713   4.595  10.001  0.1828 -0.2120 -0.9813
  598MOL0    Cl80640   4.562   4.695  10.041  0.0428  0.0555  0.0954
  598MOL0     C80641   5.100   5.442   9.802  0.4392 -0.3874  0.7309
  598MOL0     C80642   5.217   5.527   9.801 -0.0639 -0.5570  0.4932
  598MOL0     O80643   5.199   5.876   9.962  0.4117  0.1587 -0.3313
  598MOL0     C80644   5.400   6.072   9.960  0.7433  0.6131  0.4426
  598MOL0     C80645   5.497   6.173   9.945 -0.1406 -0.0895  0.1818
  598MOL0     N80646   6.346   6.335   9.790 -0.2805 -0.0126 -0.2195
  598MOL0     N80647   6.463   6.400   9.798  0.1124 -0.0508  0.0862
  598MOL0     C80648   7.469   7.005   9.623  0.2650  0.5125  0.4222
  598MOL0     C80649   7.605   7.002   9.593  0.3446  0.2383  0.6063
  598MOL0     C80650   8.050   6.932   9.671  0.0265  0.1242  0.3800
  598MOL0     C80651   8.093   6.982   9.546 -0.6777 -1.0184 -1.5732
  598MOL0     C80652   8.206   6.935   9.484  0.1856  0.6475 -0.2929
  598MOL0     C80653   8.294   6.839   9.544  0.0438  0.2671 -0.2594
  598MOL0     O80654   8.407   6.797   9.488 -0.1234  0.3624 -0.7026
  598MOL0     C80655   8.484   6.883   9.405 -0.8268 -0.6220 -0.1025
  598MOL0     C80656   8.629   6.834   9.417 -0.0541 -0.1205 -0.0361
  598MOL0     C80657   8.708   6.875   9.542  0.1513  0.2533  0.8257
  598MOL0     C80658   8.844   6.946   9.511 -0.5362  0.4323  0.1289
  598MOL0     C80659   8.900   7.033   9.622 -0.5360  0.2046 -0.1205
  598MOL0     C80660   8.965   7.115   9.694 -0.1112 -0.0683 -0.2222
  598MOL0     C80661   8.262   6.797   9.675  0.3726 -0.4864 -0.3058
  598MOL0     C80662   8.139   6.842   9.733 -0.5143  0.2322  0.5664
  598MOL0     H80663   7.719   7.201   9.838 -0.8758  1.0318  1.0905
  598MOL0     H80664   7.490   7.204   9.892 -3.7141 -0.6220 -0.2079
  598MOL0     H80665   7.264   7.066   9.962 -1.2141  0.9148  0.8380
  598MOL0     H80666   7.245   7.218   9.882 -0.6720  0.2814  0.4923
  598MOL0     H80667   7.044   7.126   9.988 -0.2790  0.1957  0.6614
  598MOL0     H80668   7.008   7.164   9.818  1.3852  0.2600 -0.1343
  598MOL0     H80669   7.048   6.929   9.754  2.5499  0.6862  1.6932
  598MOL0     H80670   7.046   6.896   9.931  2.0242 -1.9454 -1.2980
  598MOL0     H80671   6.841   6.950   9.952 -0.5112 -0.9369  0.2419
  598MOL0     H80672   6.815   7.036   9.789  2.4980  1.2134 -0.9947
  598MOL0     H80673   6.755   6.840   9.697  2.1346 -3.0210 -1.1293
  598MOL0     H80674   6.855   6.730   9.806  0.4151 -0.1918 -1.0323
  598MOL0     H80675   6.702   6.764   9.992 -3.4768 -2.9093  0.2463
  598MOL0     H80676   6.628   6.898   9.889 -1.0826  0.9784  2.1655
  598MOL0     H80677   6.473   6.762   9.806  0.8357  1.3911  0.8105
  598MOL0     H80678   6.597   6.652   9.738  0.5098  0.9764 -1.5210
  598MOL0     H80679   6.496   6.654  10.030 -0.8090 -1.7277 -0.0597
  598MOL0     H80680   6.623   6.540   9.961 -0.6539 -2.1036 -3.5153
  598MOL0     H80681   6.253   6.582   9.977  4.3108  2.1607  2.1092
  598MOL0     H80682   6.085   6.347   9.958 -1.4114 -1.0133 -0.5093
  598MOL0     H80683   6.047   6.469   9.845 -0.8695 -0.2504 -1.1590
  598MOL0     H80684   6.129   6.190   9.728  2.3557  0.8651 -0.7473
  598MOL0     H80685   6.081   6.335   9.649 -1.3842  0.7578  0.0799
  598MOL0     H80686   5.901   6.140   9.698  0.0237 -0.0169  2.2293
  598MOL0     H80687   5.851   6.299   9.671 -2.5740 -3.0776 -1.1003
  598MOL0     H80688   5.857   6.311   9.962 -1.1996  0.7105 -0.3622
  598MOL0     H80689   5.837   6.148   9.933 -0.5644  0.3459 -1.4407
  598MOL0     H80690   5.698   6.020   9.729 -0.7870 -1.3370  0.5085
  598MOL0     H80691   5.469   5.782   9.660  0.2556  2.1772 -1.4982
  598MOL0     H80692   5.633   5.829   9.651 -1.3701  1.0310 -1.1247
  598MOL0     H80693   5.569   5.729   9.794 -0.9674  0.4257  0.1814
  598MOL0     H80694   5.227   5.643  10.109  1.1491 -0.9121  0.4679
  598MOL0     H80695   5.031   5.472  10.131 -4.0881 -1.7317 -1.5049
  598MOL0     H80696   4.837   5.327   9.786  0.5203 -0.0129 -0.4593
  598MOL0     H80697   4.971   5.209   9.815 -0.2982  2.3894 -2.6146
  598MOL0     H80698   4.688   5.225   9.938 -1.2129 -1.1684 -0.1400
  598MOL0     H80699   4.756   5.095   9.832 -0.9185  1.3591 -0.1168
  598MOL0     H80700   4.724   5.026  10.075  1.9007 -2.4067  0.4221
  598MOL0     H80701   4.840   5.138  10.130  0.5624 -3.7459  2.9786
  598MOL0     H80702   4.918   4.950   9.910 -0.4250 -2.7216  0.2488
  598MOL0     H80703   5.034   5.051  10.014 -0.6175  0.1505 -1.2830
  598MOL0     H80704   4.994   4.914  10.208 -1.0121  1.4386 -0.2810
  598MOL0     H80705   5.065   4.831  10.069 -0.4746  0.0373 -2.8817
  598MOL0     H80706   4.901   4.697  10.203 -0.4121  0.4293  0.5462
  598MOL0     H80707   4.765   4.812  10.161 -1.2931 -0.4133 -3.3516
  598MOL0     H80708   4.935   4.643   9.980  0.3424  0.6089 -3.9982
  598MOL0     H80709   4.820   4.753   9.908  0.9992  0.8977 -0.6416
  598MOL0     H80710   4.715   4.514  10.074 -2.6554 -0.3220 -0.8994
  598MOL0     H80711   4.711   4.554   9.899 -0.5645  2.5405 -2.1812
  598MOL0     H80712   5.073   5.392   9.709  1.8411  0.4190 -0.1466
  598MOL0     H80713   5.260   5.535   9.701  2.2991  2.7123  1.5715
  598MOL0     H80714   5.305   6.090  10.008  1.6966  0.8905  2.3240
  598MOL0     H80715   5.477   6.265  10.000  3.2736 -0.0417  1.5930
  598MOL0     H80716   7.418   6.954   9.542 -0.3392  2.2456 -0.3385
  598MOL0     H80717   7.635   6.958   9.498 -0.3615 -2.2099  1.4463
  598MOL0     H80718   8.037   7.057   9.492  3.4892  2.5786 -1.4803
  598MOL0     H80719   8.216   6.961   9.379  0.4574  0.5008 -0.3034
  598MOL0     H80720   8.449   6.864   9.303  3.1645 -0.4849 -1.7096
  598MOL0     H80721   8.481   6.990   9.431  3.2821 -0.6419  1.1801
  598MOL0     H80722   8.673   6.877   9.326 -0.3044 -1.3881 -0.7782
  598MOL0     H80723   8.629   6.726   9.399  4.8831 -0.3299 -0.1662
  598MOL0     H80724   8.736   6.784   9.595 -1.9783 -1.0229 -0.1377
  598MOL0     H80725   8.633   6.927   9.602 -5.1581 -0.5659 -4.2169
  598MOL0     H80726   8.831   7.003   9.419  1.9445 -2.1753 -2.0250
  598MOL0     H80727   8.912   6.866   9.482 -0.2104  0.0170  1.9242
  598MOL0     H80728   9.041   7.166   9.750 -1.4153 -0.1617  1.7490
  598MOL0     H80729   8.331   6.736   9.732  0.9083  0.5195  0.1437
  598MOL0     H80730   8.118   6.805   9.833  1.0168 -0.8084  0.5419
  599MOL0     O80731   0.365   9.755   1.134  0.6046  0.2596 -0.4361
  599MOL0     C80732   0.403   9.633   1.131  0.8715 -0.2521  0.3591
  599MOL0     O80733   0.483   9.578   1.225  0.0407  0.1752  0.0374
  599MOL0     C80734   0.536   9.646   1.338  1.3715  0.0408  0.3103
  599MOL0     C80735   0.653   9.601   1.390  0.6738 -0.1633  0.0590
  599MOL0     C80736   0.719   9.670   1.501 -1.2156  0.0033 -0.3479
  599MOL0     C80737   0.653   9.778   1.556 -1.0221 -0.6079 -1.1165
  599MOL0     O80738   0.698   9.856   1.659 -0.1497 -0.3448  0.2855
  599MOL0     C80739   0.712   9.799   1.787  0.6153 -0.3946 -0.6861
  599MOL0     C80740   0.647   9.907   1.877 -0.9628  0.0750 -0.0478
  599MOL0     C80741   0.719   9.903   2.018 -0.1919  0.3317 -0.1980
  599MOL0     C80742   0.862   9.966   2.011 -0.2621 -0.5374 -0.9326
  599MOL0     C80743   0.888  10.037   2.149  0.6082  0.4233  0.0551
  599MOL0     C80744   1.041  10.099   2.156  0.6659 -0.1037  0.7106
  599MOL0     C80745   1.048  10.229   2.067  0.5923  0.5780  0.2950
  599MOL0     C80746   1.194  10.288   2.065 -0.1790 -1.1020  0.7936
  599MOL0     N80747   1.203  10.432   2.037 -0.6421 -0.5117 -0.4808
  599MOL0     C80748   1.108  10.516   1.989 -0.2831 -0.3262  0.3357
  599MOL0     C80749   1.154  10.636   2.005  1.1211 -0.1530  0.4615
  599MOL0     C80750   1.070  10.758   1.983 -0.1845  0.3645 -0.2004
  599MOL0     C80751   0.976  10.778   2.109  0.1415  0.0794  0.0307
  599MOL0     C80752   1.058  10.776   2.245  0.3217  0.8224  0.1872
  599MOL0     C80753   1.147  10.898   2.266 -0.5308 -0.2526 -0.5770
  599MOL0     O80754   1.179  10.916   2.407  1.2900  0.0730 -0.4364
  599MOL0     C80755   1.256  10.815   2.462 -0.4871 -0.3546 -0.0563
  599MOL0     C80756   1.349  10.741   2.395 -0.2040  0.0158  0.0358
  599MOL0     C80757   1.457  10.676   2.460  0.0257 -0.1610 -0.1940
  599MOL0     C80758   1.548  10.625   2.358 -0.9130 -0.1027  0.6614
  599MOL0     C80759   1.469  10.670   2.598  0.0196 -0.2361 -1.6077
  599MOL0     C80760   1.579  10.617   2.673 -0.3316  0.2454 -0.8392
  599MOL0     O80761   1.581  10.653   2.802 -0.3689 -0.4238  0.9926
  599MOL0     C80762   1.650  10.598   2.906 -0.6331 -0.2041  0.4040
  599MOL0     C80763   1.701  10.469   2.902  0.0661 -0.3905  0.1068
  599MOL0     C80764   1.743  10.402   3.019  0.6400 -0.0458  0.2246
  599MOL0     C80765   1.725  10.463   3.137 -0.4031 -0.5945  0.5107
  599MOL0     O80766   1.763  10.396   3.250  0.6094 -0.3206 -0.1659
  599MOL0     C80767   1.718  10.262   3.247 -0.2806  0.5175  0.7477
  599MOL0     C80768   1.722  10.209   3.391  0.2739  0.5979 -0.0371
  599MOL0     C80769   1.647  10.077   3.398  0.2324 -0.0342  0.1559
  599MOL0     C80770   1.601  10.027   3.540 -0.1272 -0.3594  0.0412
  599MOL0     C80771   1.534   9.893   3.529 -0.2145 -0.3181  0.2910
  599MOL0     C80772   1.635   9.783   3.521 -0.3154 -0.3662  0.0811
  599MOL0     C80773   1.703   9.753   3.656 -0.2088  0.7808 -0.3825
  599MOL0     C80774   1.814   9.653   3.624  0.9467 -0.2422  0.5054
  599MOL0    Cl80775   1.921   9.610   3.770 -0.0711  0.0958 -0.0696
  599MOL0     C80776   1.689  10.594   3.153 -0.0594 -0.0576  0.2424
  599MOL0     C80777   1.646  10.659   3.038 -0.4731 -0.6998 -0.4705
  599MOL0     O80778   1.658  10.548   2.618  0.3230  0.0171  0.2437
  599MOL0     C80779   1.364  10.739   2.672 -0.1545 -0.3715 -0.6653
  599MOL0     C80780   1.271  10.809   2.604  0.8350 -0.4088  1.2925
  599MOL0     N80781   1.290  10.630   2.048  0.2680 -0.1849 -0.6108
  599MOL0     N80782   1.311  10.513   2.066  0.1464  0.8089 -0.3799
  599MOL0     C80783   0.523   9.811   1.512 -0.5303  0.1934  0.1567
  599MOL0     C80784   0.470   9.745   1.408  0.4801  1.2348  1.3376
  599MOL0     C80785   0.345   9.550   1.021 -0.1884  0.5692  0.5268
  599MOL0     C80786   0.261   9.603   0.928  0.1489 -0.2594  0.0878
  599MOL0     C80787   0.223   9.533   0.812 -0.8777 -0.2182  0.0136
  599MOL0     C80788   0.273   9.399   0.786 -0.4962 -0.5563 -0.2684
  599MOL0     O80789   0.223   9.346   0.669  0.2230 -0.1082 -0.1547
  599MOL0     C80790   0.294   9.234   0.623 -0.9787  0.5517  0.9238
  599MOL0     C80791   0.430   9.272   0.560  0.0364 -0.3423  0.2642
  599MOL0     C80792   0.414   9.367   0.438 -0.8825  0.4192  0.6504
  599MOL0     C80793   0.547   9.421   0.384  0.4704  0.3799 -0.6411
  599MOL0     C80794   0.526   9.459   0.243  0.4314  0.5479 -1.2928
  599MOL0     C80795   0.515   9.486   0.123  0.3786 -0.3727  0.1180
  599MOL0     C80796   0.364   9.349   0.877 -0.5389 -0.2359  0.1251
  599MOL0     C80797   0.387   9.420   0.996  0.0920 -0.2593  0.3163
  599MOL0     H80798   0.700   9.516   1.343 -2.0937 -2.1098  0.5288
  599MOL0     H80799   0.821   9.644   1.527 -0.7077  0.0496 -2.1078
  599MOL0     H80800   0.666   9.701   1.801  1.1637 -0.7457 -1.2401
  599MOL0     H80801   0.817   9.797   1.818  1.1187  1.9640 -1.9652
  599MOL0     H80802   0.651  10.006   1.832 -0.4493  0.4816  0.8598
  599MOL0     H80803   0.540   9.889   1.891 -1.7625  0.1675 -4.6117
  599MOL0     H80804   0.662   9.966   2.088 -0.9207 -0.3488 -0.1691
  599MOL0     H80805   0.705   9.798   2.046  0.3906 -0.3472 -2.2963
  599MOL0     H80806   0.927   9.885   1.976 -1.8114 -0.5291 -4.2032
  599MOL0     H80807   0.864  10.034   1.926  0.0310  1.7532  0.8238
  599MOL0     H80808   0.808  10.109   2.167 -1.2239 -1.2934 -0.7282
  599MOL0     H80809   0.866   9.961   2.226  3.0713 -0.9742 -0.5137
  599MOL0     H80810   1.071  10.118   2.259  1.0249 -0.9899  0.7736
  599MOL0     H80811   1.118  10.031   2.119  0.1324 -0.7977  0.8628
  599MOL0     H80812   1.011  10.204   1.967 -1.1635 -1.8043  1.4354
  599MOL0     H80813   0.979  10.300   2.114 -2.4420 -1.0113 -1.4470
  599MOL0     H80814   1.243  10.234   1.983 -0.6579  1.9475 -1.7060
  599MOL0     H80815   1.236  10.273   2.164 -0.5778 -0.4618  1.0642
  599MOL0     H80816   1.006  10.502   1.957 -1.1185  1.0375  2.2078
  599MOL0     H80817   1.133  10.843   1.954 -3.2051  1.5492 -4.2346
  599MOL0     H80818   1.010  10.739   1.893 -0.8793 -4.2326  0.9639
  599MOL0     H80819   0.886  10.717   2.124 -2.1915  3.6355  1.9014
  599MOL0     H80820   0.935  10.879   2.108  2.2387  1.0382  2.0875
  599MOL0     H80821   1.115  10.683   2.254 -0.8972 -0.0468 -0.8627
  599MOL0     H80822   0.979  10.782   2.321 -0.3518 -0.4493 -0.3800
  599MOL0     H80823   1.091  10.986   2.233  4.8751  3.5617 -0.8787
  599MOL0     H80824   1.239  10.905   2.206 -1.3169  1.2361 -1.6712
  599MOL0     H80825   1.344  10.740   2.286  1.7569 -3.8757 -0.1818
  599MOL0     H80826   1.540  10.517   2.342 -0.4657 -0.2714  1.5303
  599MOL0     H80827   1.522  10.677   2.265 -1.5293 -0.1822  0.7802
  599MOL0     H80828   1.646  10.654   2.395 -0.2936 -0.6024 -0.5293
  599MOL0     H80829   1.699  10.420   2.805  1.9621 -0.6444  0.1635
  599MOL0     H80830   1.772  10.298   3.003  1.6640  0.2799 -0.1121
  599MOL0     H80831   1.620  10.261   3.198  1.1291 -0.9001 -2.3069
  599MOL0     H80832   1.790  10.214   3.179  0.4081  6.5301 -3.6615
  599MOL0     H80833   1.822  10.218   3.436  0.8127 -1.2515 -0.7814
  599MOL0     H80834   1.659  10.278   3.447 -1.0527 -0.6821  0.0954
  599MOL0     H80835   1.710   9.999   3.354  0.0718 -0.3244  0.4325
  599MOL0     H80836   1.552  10.077   3.344  0.0479 -3.2828  0.2910
  599MOL0     H80837   1.690  10.040   3.602 -0.5433 -1.9525  1.0335
  599MOL0     H80838   1.529  10.086   3.597  1.5154 -0.2125  2.0936
  599MOL0     H80839   1.470   9.879   3.442  1.2247 -1.8399 -0.5902
  599MOL0     H80840   1.480   9.884   3.625 -1.0005  0.7399 -0.0291
  599MOL0     H80841   1.586   9.699   3.472 -0.9859  2.2219 -4.2656
  599MOL0     H80842   1.712   9.803   3.446 -1.0706 -1.5173 -1.0254
  599MOL0     H80843   1.630   9.713   3.727  0.3151  1.6048  0.6410
  599MOL0     H80844   1.753   9.840   3.700 -1.9806  1.9126 -0.5168
  599MOL0     H80845   1.872   9.689   3.539 -4.3051  1.3385 -2.9270
  599MOL0     H80846   1.762   9.562   3.591 -1.6833  2.4489 -3.6695
  599MOL0     H80847   1.679  10.642   3.249  1.0460 -1.9195  1.3586
  599MOL0     H80848   1.599  10.756   3.045 -3.5097 -2.1294  0.8011
  599MOL0     H80849   1.351  10.734   2.780 -1.3931 -0.9605 -0.8149
  599MOL0     H80850   1.199  10.869   2.659  1.3667  0.6875  0.8250
  599MOL0     H80851   0.473   9.892   1.564  1.7159  0.4348  2.1321
  599MOL0     H80852   0.378   9.792   1.374  0.7059  0.9988  0.3514
  599MOL0     H80853   0.204   9.696   0.933 -0.0532 -0.3685 -0.1482
  599MOL0     H80854   0.157   9.577   0.738  2.1085  0.7819 -2.2711
  599MOL0     H80855   0.321   9.164   0.703  0.1647 -1.3793 -1.0529
  599MOL0     H80856   0.234   9.179   0.549 -0.3375  1.7796 -0.5678
  599MOL0     H80857   0.485   9.180   0.537 -0.0511 -0.3650  0.1441
  599MOL0     H80858   0.491   9.322   0.636  1.5368 -1.5755 -0.0812
  599MOL0     H80859   0.347   9.450   0.459  1.1030  2.1908  0.3456
  599MOL0     H80860   0.366   9.315   0.355  2.8115  2.9509 -3.5333
  599MOL0     H80861   0.622   9.342   0.384  1.2768  1.0623  1.4444
  599MOL0     H80862   0.581   9.515   0.428  0.7623  1.6841 -3.4589
  599MOL0     H80863   0.497   9.509   0.020 -3.5873  3.1191  1.3100
  599MOL0     H80864   0.399   9.248   0.860 -0.3672  0.4412 -5.0752
  599MOL0     H80865   0.468   9.388   1.062  1.1415  1.0314 -0.2921
  600MOL0     O80866   2.576   2.946   1.623  0.1655 -0.0714 -0.4694
  600MOL0     C80867   2.516   3.015   1.545 -1.0515 -0.5136 -0.0361
  600MOL0     O80868   2.573   3.046   1.419  0.4571  0.2950 -0.0459
  600MOL0     C80869   2.683   2.975   1.386  0.9200 -0.3442  0.2040
  600MOL0     C80870   2.680   2.832   1.366 -0.3811 -0.0240  0.6406
  600MOL0     C80871   2.801   2.766   1.344 -0.5693  0.6625  0.1935
  600MOL0     C80872   2.924   2.834   1.319 -0.1188  0.0750  1.0005
  600MOL0     O80873   3.044   2.766   1.290  0.0011  0.2056  0.6444
  600MOL0     C80874   3.062   2.634   1.318 -0.1070  0.1823 -0.0553
  600MOL0     C80875   3.208   2.635   1.383 -0.2648  0.3796  0.5754
  600MOL0     C80876   3.304   2.659   1.267  0.6788 -0.4170 -0.4790
  600MOL0     C80877   3.439   2.713   1.308  0.3803  1.4995 -0.3781
  600MOL0     C80878   3.551   2.678   1.209 -0.6219 -0.1180 -0.0572
  600MOL0     C80879   3.612   2.540   1.267 -0.3331  0.2817  0.7006
  600MOL0     C80880   3.683   2.470   1.157 -0.2628  0.5334  0.3548
  600MOL0     C80881   3.798   2.380   1.198 -0.4644  0.0503 -0.2461
  600MOL0     N80882   3.733   2.273   1.275 -0.2986  0.0195 -0.1166
  600MOL0     C80883   3.657   2.174   1.219  0.2106  0.0655  0.5799
  600MOL0     C80884   3.584   2.114   1.317  0.5701  0.6457 -0.1010
  600MOL0     C80885   3.474   2.011   1.307 -0.0367  0.8415 -0.0538
  600MOL0     C80886   3.434   1.946   1.440  0.3143 -1.0227 -0.1137
  600MOL0     C80887   3.325   1.839   1.424  0.7725  0.0956 -0.5461
  600MOL0     C80888   3.298   1.765   1.555 -0.3858  0.3113 -0.6083
  600MOL0     O80889   3.194   1.667   1.541  0.4687  0.0654  0.2653
  600MOL0     C80890   3.124   1.663   1.664  0.5958  0.5125  1.0738
  600MOL0     C80891   3.171   1.603   1.776  0.4267  0.1865  0.0331
  600MOL0     C80892   3.115   1.618   1.900 -0.0261  0.1874  0.2212
  600MOL0     C80893   3.178   1.547   2.025  0.6724 -0.9068 -0.0823
  600MOL0     C80894   2.997   1.696   1.911  0.3908  0.0823  0.4736
  600MOL0     C80895   2.929   1.713   2.043  0.7098  0.1518  0.5477
  600MOL0     O80896   2.789   1.690   2.059  0.0898 -0.5920  0.7768
  600MOL0     C80897   2.715   1.743   2.166 -0.5118 -0.5602  0.2080
  600MOL0     C80898   2.574   1.723   2.163 -0.3320  0.0955  0.7219
  600MOL0     C80899   2.487   1.777   2.258  0.2434 -0.9164 -0.1934
  600MOL0     C80900   2.545   1.850   2.359 -0.6142 -0.2655  0.1863
  600MOL0     O80901   2.453   1.903   2.453 -0.5076 -0.4115 -0.2632
  600MOL0     C80902   2.468   1.859   2.590  0.4732 -0.2618  0.3656
  600MOL0     C80903   2.555   1.953   2.673 -0.3432 -0.3025  0.0240
  600MOL0     C80904   2.511   1.985   2.818  0.3410  0.5340  0.4330
  600MOL0     C80905   2.394   2.073   2.824  0.8127  0.2326  0.0627
  600MOL0     C80906   2.330   2.097   2.974  0.1890 -0.7831  0.2900
  600MOL0     C80907   2.421   2.197   3.056 -0.3619  0.2890 -0.4719
  600MOL0     C80908   2.341   2.220   3.191 -0.3517  0.8129 -0.5735
  600MOL0     C80909   2.334   2.370   3.218  0.0996  0.2910 -0.2651
  600MOL0    Cl80910   2.498   2.430   3.249 -0.4477  0.1798 -0.1078
  600MOL0     C80911   2.685   1.869   2.378  0.2500 -0.4701 -0.3209
  600MOL0     C80912   2.765   1.813   2.278  0.0766 -0.7470  0.3824
  600MOL0     O80913   3.007   1.743   2.129  0.1486 -0.6584  0.4837
  600MOL0     C80914   2.941   1.756   1.796  0.1401  1.3234 -0.3005
  600MOL0     C80915   3.008   1.741   1.673 -0.3357 -0.5372  0.3448
  600MOL0     N80916   3.638   2.164   1.433  0.6091  0.5197 -0.1878
  600MOL0     N80917   3.720   2.254   1.406 -0.1763  0.2667  1.0759
  600MOL0     C80918   2.926   2.971   1.333  0.6931  0.1759  0.3348
  600MOL0     C80919   2.803   3.042   1.369 -0.4398  0.3928  0.8586
  600MOL0     C80920   2.379   3.057   1.592  0.6225 -0.0660  1.1539
  600MOL0     C80921   2.290   3.124   1.500  0.2574 -0.0177  0.1078
  600MOL0     C80922   2.164   3.159   1.543  0.5877  0.2797 -0.3496
  600MOL0     C80923   2.116   3.131   1.671  0.2093  0.9042 -0.9009
  600MOL0     O80924   1.983   3.135   1.709  0.8369 -0.0443  0.0896
  600MOL0     C80925   1.883   3.152   1.613  0.1813  0.6117  0.5759
  600MOL0     C80926   1.749   3.086   1.650 -0.1836 -0.1676  0.5857
  600MOL0     C80927   1.687   3.156   1.769  0.5917  0.3420  0.8913
  600MOL0     C80928   1.628   3.289   1.735 -0.5350 -0.0030  0.9344
  600MOL0     C80929   1.547   3.339   1.853 -0.1419 -0.3842  0.7530
  600MOL0     C80930   1.485   3.398   1.941 -1.6976  0.0309 -0.0781
  600MOL0     C80931   2.203   3.064   1.766  0.1988  0.2554  0.4238
  600MOL0     C80932   2.334   3.025   1.720  0.6868  0.0285  0.0286
  600MOL0     H80933   2.586   2.778   1.365  0.0028 -0.7208  1.4105
  600MOL0     H80934   2.807   2.662   1.314  1.6955  1.2724 -1.7857
  600MOL0     H80935   2.999   2.585   1.392  0.3948  1.8294  1.5233
  600MOL0     H80936   3.070   2.581   1.222  5.1088  1.2327 -0.4931
  600MOL0     H80937   3.209   2.716   1.457  1.6692 -1.1642  2.3541
  600MOL0     H80938   3.245   2.537   1.415  1.1766 -0.3257 -2.7587
  600MOL0     H80939   3.316   2.560   1.222  2.8927 -0.3532 -0.1339
  600MOL0     H80940   3.264   2.727   1.190  0.9740 -0.4920 -0.7011
  600MOL0     H80941   3.435   2.823   1.311 -2.3681  1.4656  0.8630
  600MOL0     H80942   3.470   2.683   1.408  0.7075  1.1018 -0.6008
  600MOL0     H80943   3.503   2.666   1.111  1.3844 -0.9361 -0.9845
  600MOL0     H80944   3.625   2.756   1.194 -2.3461  1.3208 -1.5931
  600MOL0     H80945   3.681   2.577   1.343 -0.6697 -0.4304  1.3622
  600MOL0     H80946   3.538   2.466   1.296 -1.8933  1.4734 -0.1067
  600MOL0     H80947   3.620   2.402   1.099 -0.8434 -0.0170  1.5862
  600MOL0     H80948   3.723   2.543   1.086  2.3555  1.6089  2.7550
  600MOL0     H80949   3.872   2.436   1.257 -0.8349  1.6501 -1.2732
  600MOL0     H80950   3.852   2.353   1.107 -0.4393  2.6635 -1.0816
  600MOL0     H80951   3.643   2.147   1.114  1.4721 -2.5239  0.9894
  600MOL0     H80952   3.396   2.074   1.264  0.8930  0.2695 -2.7799
  600MOL0     H80953   3.500   1.935   1.232  1.2183 -0.1867  1.3742
  600MOL0     H80954   3.409   2.019   1.518  1.3550  0.2058 -0.9102
  600MOL0     H80955   3.524   1.894   1.476  0.2590 -0.9634  0.1149
  600MOL0     H80956   3.370   1.761   1.361 -0.2985 -1.1204  0.1558
  600MOL0     H80957   3.232   1.879   1.384 -0.7848 -3.4079 -0.8571
  600MOL0     H80958   3.268   1.832   1.636  0.3044  1.9894 -1.6976
  600MOL0     H80959   3.396   1.726   1.583 -0.3550 -0.6152 -1.8992
  600MOL0     H80960   3.266   1.551   1.765  0.5344  0.8546 -3.9777
  600MOL0     H80961   3.268   1.601   2.057  0.6315  0.1326 -1.6326
  600MOL0     H80962   3.114   1.529   2.112  1.2398 -0.4899  0.4372
  600MOL0     H80963   3.209   1.446   1.997  2.1890 -0.5597  0.2506
  600MOL0     H80964   2.527   1.662   2.086  0.2063  1.8774 -1.0997
  600MOL0     H80965   2.380   1.759   2.265 -0.0404  1.1422  1.9258
  600MOL0     H80966   2.364   1.873   2.622  1.2829 -0.0438  3.1317
  600MOL0     H80967   2.497   1.753   2.593 -0.0533 -0.5320 -1.9679
  600MOL0     H80968   2.659   1.920   2.680  0.0854  0.7291 -0.9979
  600MOL0     H80969   2.552   2.047   2.617  1.6228  0.2774  0.8059
  600MOL0     H80970   2.595   2.029   2.873  0.9092 -0.3096  0.2488
  600MOL0     H80971   2.473   1.897   2.870 -0.3512 -0.0138 -0.9638
  600MOL0     H80972   2.418   2.170   2.780  1.2399  1.1039  2.1041
  600MOL0     H80973   2.312   2.040   2.760 -0.1970  0.7361  1.0540
  600MOL0     H80974   2.295   2.010   3.030  1.7871 -0.2215  2.2919
  600MOL0     H80975   2.233   2.144   2.955  1.1673  1.3195  0.1665
  600MOL0     H80976   2.521   2.154   3.069  0.2267  2.0089  1.0317
  600MOL0     H80977   2.436   2.287   2.996 -1.8597  1.6037  1.0492
  600MOL0     H80978   2.404   2.168   3.264  2.8704  4.4171 -0.4575
  600MOL0     H80979   2.242   2.174   3.196  0.5159 -1.0665  1.5553
  600MOL0     H80980   2.264   2.395   3.298  3.4326  3.8548  1.9173
  600MOL0     H80981   2.287   2.417   3.131  0.6836 -0.8906 -1.2584
  600MOL0     H80982   2.715   1.925   2.466  2.4315 -1.0301 -0.6603
  600MOL0     H80983   2.871   1.837   2.285  0.1048 -0.9076  0.5232
  600MOL0     H80984   2.851   1.817   1.798 -3.1748 -3.0360  1.3549
  600MOL0     H80985   2.966   1.787   1.584 -1.9509 -4.1688 -0.9855
  600MOL0     H80986   3.020   3.024   1.321  1.1550 -1.0463 -1.7836
  600MOL0     H80987   2.816   3.148   1.389  0.8685  0.6969 -1.2918
  600MOL0     H80988   2.330   3.144   1.401  2.6054  0.7161  1.1310
  600MOL0     H80989   2.101   3.205   1.468  1.3287  0.2473 -1.0047
  600MOL0     H80990   1.859   3.255   1.585 -5.6386  1.1052  5.4014
  600MOL0     H80991   1.917   3.110   1.518 -1.7694  1.1546 -0.4357
  600MOL0     H80992   1.768   2.978   1.659  0.8499  0.0137  0.7238
  600MOL0     H80993   1.681   3.093   1.565 -0.1430  0.9038  0.6313
  600MOL0     H80994   1.764   3.170   1.845  1.6464  2.0949 -0.4346
  600MOL0     H80995   1.606   3.098   1.814 -1.1498  1.5102 -0.5787
  600MOL0     H80996   1.559   3.273   1.651  1.0701 -0.1924 -0.3871
  600MOL0     H80997   1.700   3.365   1.702 -1.9032  0.6698 -0.7161
  600MOL0     H80998   1.439   3.447   2.025 -1.0517 -0.6511  0.6837
  600MOL0     H80999   2.178   3.049   1.870 -4.0391  1.0170 -0.3183
  600MOL0     H81000   2.399   2.969   1.787 -0.4167  1.8262  2.7891
  601MOL0     O81001   0.536   4.395   3.569 -0.6116 -0.0931  0.3024
  601MOL0     C81002   0.507   4.279   3.597  1.1079  0.5463 -0.8582
  601MOL0     O81003   0.506   4.175   3.516 -0.4357 -0.0294 -1.2020
  601MOL0     C81004   0.534   4.181   3.383 -0.3601  0.5521  0.9770
  601MOL0     C81005   0.589   4.068   3.328  0.4123  0.3463 -0.7229
  601MOL0     C81006   0.619   4.060   3.194 -0.1327  0.5217 -0.0716
  601MOL0     C81007   0.608   4.164   3.103 -0.6255  0.4428  0.4518
  601MOL0     O81008   0.627   4.145   2.970  0.0643 -0.1657  0.1691
  601MOL0     C81009   0.640   4.247   2.870  0.4114  0.4646 -0.2259
  601MOL0     C81010   0.710   4.188   2.751 -0.6358 -0.4172 -0.0517
  601MOL0     C81011   0.859   4.137   2.762  0.3261  0.3013 -0.1060
  601MOL0     C81012   0.904   4.141   2.619 -0.6463 -0.2423  0.9174
  601MOL0     C81013   1.010   4.027   2.597 -0.3533  0.3791  0.0646
  601MOL0     C81014   0.941   3.903   2.563  0.0136  0.5025  0.4130
  601MOL0     C81015   1.026   3.786   2.521  0.7309 -0.3367 -0.2365
  601MOL0     C81016   1.071   3.775   2.370  0.8920  0.2254 -0.1036
  601MOL0     N81017   0.981   3.697   2.283 -0.5365  1.0265 -1.1163
  601MOL0     C81018   0.851   3.682   2.309  0.6825  0.3536  0.7499
  601MOL0     C81019   0.797   3.619   2.203  0.2164  0.1503  0.2987
  601MOL0     C81020   0.647   3.589   2.175  0.5546 -0.3528  0.1814
  601MOL0     C81021   0.593   3.681   2.058  0.4382 -0.2828  0.0119
  601MOL0     C81022   0.545   3.824   2.111 -0.2349 -1.0753  0.1317
  601MOL0     C81023   0.660   3.927   2.095  0.3021  0.6627  0.0289
  601MOL0     O81024   0.618   4.056   2.149 -0.1492 -0.0771 -0.5663
  601MOL0     C81025   0.708   4.140   2.207  0.0750  0.5338  0.1139
  601MOL0     C81026   0.851   4.130   2.212 -0.3090 -0.6136  0.4277
  601MOL0     C81027   0.943   4.222   2.251 -0.3224 -0.1196 -0.1579
  601MOL0     C81028   1.084   4.182   2.228 -0.0739 -0.2380 -0.0945
  601MOL0     C81029   0.887   4.347   2.296 -0.7202  0.2665  0.2745
  601MOL0     C81030   0.969   4.468   2.350 -1.0256  0.0151  0.8496
  601MOL0     O81031   0.909   4.537   2.437 -0.2696 -0.4760 -0.1864
  601MOL0     C81032   0.963   4.646   2.507  1.0619  0.1113  0.4160
  601MOL0     C81033   1.088   4.640   2.574  0.8087 -0.3382 -0.1202
  601MOL0     C81034   1.131   4.755   2.649 -0.1422  1.3626  0.3169
  601MOL0     C81035   1.061   4.878   2.650 -0.0890  0.0205 -0.4161
  601MOL0     O81036   1.101   4.999   2.711 -0.5178 -0.0664 -0.3836
  601MOL0     C81037   1.213   5.007   2.789  0.5679 -0.5738  0.8604
  601MOL0     C81038   1.170   5.081   2.927  0.0361 -0.1332 -0.3976
  601MOL0     C81039   1.064   4.985   2.986  0.4788  0.0886  0.0083
  601MOL0     C81040   1.006   5.047   3.109 -1.0719 -0.7188  0.0533
  601MOL0     C81041   0.915   5.165   3.087  0.0230  0.2969  0.6281
  601MOL0     C81042   0.766   5.136   3.071  0.3897 -0.2100 -0.1786
  601MOL0     C81043   0.717   5.062   3.191 -0.4957 -0.0845  0.8098
  601MOL0     C81044   0.571   5.093   3.232  0.7487  0.9973  0.4006
  601MOL0    Cl81045   0.523   4.982   3.353 -0.0512  0.2127 -0.2288
  601MOL0     C81046   0.942   4.880   2.575  0.3130  0.8169  0.0397
  601MOL0     C81047   0.898   4.768   2.500 -0.0025  0.1296 -1.1001
  601MOL0     O81048   1.092   4.479   2.307  0.7703  0.3724  0.1878
  601MOL0     C81049   0.746   4.360   2.302  1.0623 -0.3030 -0.5318
  601MOL0     C81050   0.657   4.256   2.263  0.6018  0.0575  0.0266
  601MOL0     N81051   0.901   3.590   2.118  0.4120  0.2702  0.3428
  601MOL0     N81052   1.007   3.639   2.164 -0.7038  0.5123 -0.9015
  601MOL0     C81053   0.555   4.284   3.163 -1.3469  0.2218  0.5491
  601MOL0     C81054   0.521   4.298   3.301 -0.4041  0.0517 -0.6179
  601MOL0     C81055   0.489   4.256   3.745  0.8782 -0.0966 -0.5867
  601MOL0     C81056   0.522   4.362   3.838  0.3226 -1.0538  1.0237
  601MOL0     C81057   0.510   4.336   3.965 -0.5180  0.3575  0.5969
  601MOL0     C81058   0.461   4.217   4.021  0.7692 -0.3361  0.8398
  601MOL0     O81059   0.436   4.194   4.152 -0.2692 -0.2652  0.4904
  601MOL0     C81060   0.560   4.181   4.223  0.6596 -0.7220  0.0880
  601MOL0     C81061   0.664   4.070   4.180  1.3578  0.9134 -0.5536
  601MOL0     C81062   0.788   4.056   4.275  0.4102 -0.5392 -1.0481
  601MOL0     C81063   0.773   4.088   4.431 -0.2130 -1.0418  0.0199
  601MOL0     C81064   0.675   3.997   4.495 -0.0852  0.2735  0.1092
  601MOL0     C81065   0.588   3.921   4.534  0.4734 -0.1728  0.6399
  601MOL0     C81066   0.438   4.110   3.935  0.1881 -0.5606 -0.3813
  601MOL0     C81067   0.456   4.130   3.799 -0.3279  0.2170  1.0117
  601MOL0     H81068   0.611   3.990   3.400 -0.8551  1.0957  0.5454
  601MOL0     H81069   0.656   3.963   3.163  0.6913  0.5886  0.6754
  601MOL0     H81070   0.542   4.286   2.841  0.2614  2.2451  2.3076
  601MOL0     H81071   0.691   4.332   2.916 -0.0163  1.0535 -0.8124
  601MOL0     H81072   0.643   4.117   2.700 -2.0302  1.7784 -1.4651
  601MOL0     H81073   0.707   4.279   2.691  0.2489 -1.0973 -1.1696
  601MOL0     H81074   0.919   4.215   2.811  1.4966 -1.3352  1.1833
  601MOL0     H81075   0.857   4.041   2.813 -3.2550  1.0679  1.4640
  601MOL0     H81076   0.824   4.102   2.555 -0.9906 -2.8789  2.7535
  601MOL0     H81077   0.947   4.239   2.600  0.2535 -0.4860  1.6341
  601MOL0     H81078   1.072   4.055   2.512 -2.0271  1.3002 -0.9225
  601MOL0     H81079   1.060   4.014   2.694 -1.9915  2.4378  1.2880
  601MOL0     H81080   0.880   3.868   2.646 -0.4230 -2.6722 -1.0897
  601MOL0     H81081   0.883   3.926   2.473  0.9103 -3.3454 -1.3824
  601MOL0     H81082   1.117   3.790   2.582  0.2473  0.2798  0.4538
  601MOL0     H81083   0.982   3.690   2.546  5.0899 -2.1263  1.5123
  601MOL0     H81084   1.170   3.731   2.368  1.2745  0.6783  3.1612
  601MOL0     H81085   1.087   3.877   2.334  0.1329  0.2682 -0.3409
  601MOL0     H81086   0.783   3.724   2.383  0.2742  1.9341 -0.4542
  601MOL0     H81087   0.621   3.485   2.154 -3.8988  0.5805 -0.0056
  601MOL0     H81088   0.597   3.616   2.269 -0.8244  1.6735 -1.0516
  601MOL0     H81089   0.503   3.638   2.013  2.3014 -3.8514 -0.6964
  601MOL0     H81090   0.665   3.678   1.975  0.3237 -2.5916 -0.0812
  601MOL0     H81091   0.520   3.819   2.218  0.8304 -0.2038  0.4321
  601MOL0     H81092   0.463   3.863   2.049  0.2804 -2.2583 -1.3537
  601MOL0     H81093   0.682   3.932   1.988  0.4506  0.6153  0.0582
  601MOL0     H81094   0.750   3.894   2.148 -0.6937 -2.8433 -0.2019
  601MOL0     H81095   0.901   4.049   2.160 -1.4281  1.2340 -3.9303
  601MOL0     H81096   1.150   4.248   2.285 -1.0291  1.2757 -0.6853
  601MOL0     H81097   1.101   4.075   2.245 -1.9084 -0.3226  1.6567
  601MOL0     H81098   1.106   4.198   2.122  2.0426  0.0955  0.3539
  601MOL0     H81099   1.143   4.547   2.585  0.7871 -0.2510  0.8385
  601MOL0     H81100   1.227   4.743   2.700  1.6199  0.8818 -2.8701
  601MOL0     H81101   1.245   4.908   2.824  0.0783 -0.8162  0.6318
  601MOL0     H81102   1.298   5.061   2.747 -1.5666 -0.7169 -4.3270
  601MOL0     H81103   1.249   5.092   3.002 -2.3180 -0.1761  2.2928
  601MOL0     H81104   1.141   5.183   2.904  0.6165 -0.2876 -1.8784
  601MOL0     H81105   1.104   4.891   3.025 -0.3306  1.0690  3.4893
  601MOL0     H81106   0.986   4.974   2.910  2.5330  0.1263 -2.2450
  601MOL0     H81107   0.954   4.967   3.161 -1.1759  0.5071  1.9472
  601MOL0     H81108   1.093   5.076   3.170 -0.3641 -2.6770  0.0387
  601MOL0     H81109   0.933   5.215   2.991 -3.0315 -0.3716 -0.4247
  601MOL0     H81110   0.938   5.231   3.171 -0.1116 -1.2481  1.9179
  601MOL0     H81111   0.723   5.236   3.075 -0.1084 -0.3671  5.0087
  601MOL0     H81112   0.718   5.090   2.984 -1.3748 -0.4518  0.8672
  601MOL0     H81113   0.773   5.080   3.283 -0.2135  0.1518  0.5948
  601MOL0     H81114   0.729   4.957   3.163  1.4136  0.7976 -2.1395
  601MOL0     H81115   0.513   5.079   3.141  1.2694 -1.1906  0.3531
  601MOL0     H81116   0.562   5.195   3.271  0.6446  1.1041  0.0971
  601MOL0     H81117   0.880   4.969   2.570 -0.4999  0.1846 -2.0096
  601MOL0     H81118   0.826   4.786   2.421 -0.1887  0.0521 -0.9468
  601MOL0     H81119   0.691   4.444   2.345  0.8447 -1.6696  2.0887
  601MOL0     H81120   0.550   4.273   2.262  0.7397  0.9868  0.1869
  601MOL0     H81121   0.528   4.359   3.089  0.0978  0.1265 -0.1094
  601MOL0     H81122   0.476   4.387   3.343 -0.8178 -0.5462  0.2348
  601MOL0     H81123   0.561   4.454   3.797 -2.2701 -0.8550 -1.2888
  601MOL0     H81124   0.544   4.411   4.036 -2.1584  3.1790 -1.3856
  601MOL0     H81125   0.611   4.276   4.235 -1.6314  0.2426  3.4351
  601MOL0     H81126   0.524   4.151   4.322 -4.4010  0.5898 -1.0692
  601MOL0     H81127   0.690   4.099   4.078 -0.1162  0.7362 -1.0085
  601MOL0     H81128   0.604   3.979   4.186  2.4711  0.1386 -0.9314
  601MOL0     H81129   0.864   4.117   4.227  0.9967  1.3898  2.0303
  601MOL0     H81130   0.816   3.950   4.274 -3.4178 -1.7104 -1.0688
  601MOL0     H81131   0.739   4.189   4.454  0.0579 -1.0858  0.6255
  601MOL0     H81132   0.872   4.094   4.478 -0.4287  0.7557  0.3233
  601MOL0     H81133   0.519   3.851   4.577  0.6932  0.5159  2.1734
  601MOL0     H81134   0.400   4.015   3.971 -0.7505 -0.3330 -0.7387
  601MOL0     H81135   0.453   4.043   3.735 -1.8723  0.3608  0.8441
  602MOL0     O81136   3.751   1.468   7.092  0.4354 -0.1810 -0.0039
  602MOL0     C81137   3.867   1.500   7.066  0.3761  0.9640  1.2380
  602MOL0     O81138   3.957   1.421   7.002 -0.3282  0.5664 -0.4056
  602MOL0     C81139   3.931   1.292   6.972 -0.3215  0.7343  0.4452
  602MOL0     C81140   3.896   1.244   6.840  0.7979 -0.1764  0.1321
  602MOL0     C81141   3.870   1.103   6.820 -0.6047 -0.3659 -0.4584
  602MOL0     C81142   3.857   1.024   6.926 -0.5538  0.2471 -0.1638
  602MOL0     O81143   3.855   0.890   6.901  0.0733  0.2384  0.1504
  602MOL0     C81144   3.754   0.812   6.963  0.3040  0.1831  0.1440
  602MOL0     C81145   3.811   0.711   7.063  0.5606 -0.9815 -0.5714
  602MOL0     C81146   3.877   0.591   6.997  0.7101 -0.1961 -0.0152
  602MOL0     C81147   3.878   0.472   7.105 -0.8702  0.5391  1.3062
  602MOL0     C81148   3.968   0.358   7.062  0.2399  0.8471  0.2536
  602MOL0     C81149   4.116   0.396   7.079  0.6009  0.0912 -0.3443
  602MOL0     C81150   4.202   0.326   7.185  0.4031  0.8316 -0.3675
  602MOL0     C81151   4.190   0.400   7.320 -0.3915 -0.0449  0.5215
  602MOL0     N81152   4.248   0.315   7.425 -0.3057 -0.0459 -0.1359
  602MOL0     C81153   4.234   0.352   7.554 -0.3866  0.1146 -0.8631
  602MOL0     C81154   4.231   0.233   7.626 -0.5805  0.0522  0.7483
  602MOL0     C81155   4.184   0.206   7.772  0.3243  0.0570  0.5494
  602MOL0     C81156   4.096   0.314   7.832 -0.1206 -0.4489  0.3737
  602MOL0     C81157   4.198   0.410   7.902  1.9061 -0.2159 -0.0202
  602MOL0     C81158   4.143   0.554   7.917  0.2923 -0.9495 -0.0654
  602MOL0     O81159   4.023   0.543   7.998  0.0711  0.1847  0.0297
  602MOL0     C81160   3.933   0.639   7.983 -0.4474  0.5976 -0.3713
  602MOL0     C81161   3.948   0.755   7.904 -0.7429 -1.0301 -0.3668
  602MOL0     C81162   3.839   0.849   7.898 -0.7266  1.0793 -0.1677
  602MOL0     C81163   3.849   0.983   7.826 -0.0715  0.0805 -0.6047
  602MOL0     C81164   3.720   0.814   7.969 -0.2813 -0.4166  0.0122
  602MOL0     C81165   3.601   0.897   7.965 -0.1401  0.3234  1.2517
  602MOL0     O81166   3.543   0.913   8.081  0.6841 -0.5929 -0.2725
  602MOL0     C81167   3.454   1.018   8.092 -1.3916 -1.0816 -0.0097
  602MOL0     C81168   3.494   1.155   8.090 -0.7040  0.7667  0.0146
  602MOL0     C81169   3.407   1.263   8.106 -0.7634 -0.2322  0.1396
  602MOL0     C81170   3.278   1.243   8.138 -0.7471  0.6950  0.1689
  602MOL0     O81171   3.199   1.359   8.147  0.1883  0.8814 -0.8487
  602MOL0     C81172   3.092   1.366   8.059  0.1999  0.1806 -0.3894
  602MOL0     C81173   3.119   1.418   7.921  0.3894 -0.4040 -0.5902
  602MOL0     C81174   3.180   1.328   7.822  0.4237 -1.4808 -0.4250
  602MOL0     C81175   3.085   1.251   7.740  0.1367  0.4638 -0.6067
  602MOL0     C81176   3.151   1.159   7.632  0.0820 -0.7022 -1.1561
  602MOL0     C81177   3.212   1.035   7.700  0.5270 -0.6856 -0.2664
  602MOL0     C81178   3.294   0.946   7.607 -0.2149 -0.0579  0.0528
  602MOL0     C81179   3.201   0.816   7.583 -0.8246 -0.1996 -0.3768
  602MOL0    Cl81180   3.048   0.854   7.478 -0.3474  0.2350 -0.5803
  602MOL0     C81181   3.231   1.112   8.150  0.7310  0.0763  0.0301
  602MOL0     C81182   3.318   1.002   8.127  0.1579 -0.7456 -0.4666
  602MOL0     O81183   3.555   0.924   7.858  0.0375  0.6460  0.2395
  602MOL0     C81184   3.712   0.686   8.033  0.2386  0.7238 -0.0091
  602MOL0     C81185   3.819   0.609   8.053  0.2997 -0.0700  1.1973
  602MOL0     N81186   4.264   0.135   7.531  0.5801  0.2238  0.6260
  602MOL0     N81187   4.280   0.183   7.417 -0.3370  0.1167  0.3804
  602MOL0     C81188   3.877   1.076   7.062  0.8279  0.4693  0.0401
  602MOL0     C81189   3.915   1.209   7.083  1.1451 -0.7217 -0.5731
  602MOL0     C81190   3.920   1.635   7.101 -0.0225  0.0737 -0.3890
  602MOL0     C81191   4.017   1.703   7.012  0.2344  0.8209  0.3492
  602MOL0     C81192   4.062   1.837   7.046  0.3054 -0.0391 -0.0171
  602MOL0     C81193   4.011   1.900   7.165  0.3920 -0.6294 -0.3372
  602MOL0     O81194   4.034   2.034   7.200  0.1714 -0.5973 -0.0480
  602MOL0     C81195   4.129   2.051   7.302 -0.3729 -0.8541 -1.0203
  602MOL0     C81196   4.108   2.200   7.360  0.4378  0.4107  0.1082
  602MOL0     C81197   4.145   2.223   7.512 -0.2726  0.1993 -0.3399
  602MOL0     C81198   4.150   2.101   7.599 -0.0311 -0.0870 -0.2295
  602MOL0     C81199   4.019   2.049   7.639 -0.7164  0.0810  0.0135
  602MOL0     C81200   3.916   1.993   7.681 -0.3653 -0.3887  0.7786
  602MOL0     C81201   3.918   1.828   7.236  0.4998  0.0488 -0.2300
  602MOL0     C81202   3.874   1.705   7.205 -0.3827  0.3538  0.2849
  602MOL0     H81203   3.878   1.312   6.758 -0.8341  1.5344  1.7957
  602MOL0     H81204   3.854   1.047   6.728  2.5865  0.4765 -1.6437
  602MOL0     H81205   3.699   0.888   7.020 -1.2221 -0.7063 -0.1012
  602MOL0     H81206   3.678   0.770   6.898  0.3975  1.0271 -0.5376
  602MOL0     H81207   3.882   0.766   7.125 -0.0251  0.8251 -1.4266
  602MOL0     H81208   3.718   0.696   7.118 -0.2913 -0.4107 -1.8149
  602MOL0     H81209   3.833   0.554   6.904  2.0380  2.0190 -1.6478
  602MOL0     H81210   3.973   0.629   6.959  2.1126 -0.5118  2.9138
  602MOL0     H81211   3.912   0.503   7.204 -1.6140  0.1774  1.6759
  602MOL0     H81212   3.778   0.429   7.109 -0.6624  0.1401  3.4680
  602MOL0     H81213   3.943   0.267   7.118  1.1673 -0.3406 -1.2042
  602MOL0     H81214   3.942   0.337   6.958 -1.0246  1.8221  0.3420
  602MOL0     H81215   4.167   0.367   6.986  2.8145 -4.7786  2.0333
  602MOL0     H81216   4.123   0.502   7.103 -0.7509  0.5900 -1.9391
  602MOL0     H81217   4.176   0.221   7.202  0.7701  0.7152 -0.5360
  602MOL0     H81218   4.303   0.331   7.143  0.9463  0.8181  0.8880
  602MOL0     H81219   4.086   0.420   7.345 -1.1877 -1.2925 -1.5433
  602MOL0     H81220   4.243   0.494   7.304  0.9637 -1.0455 -1.3091
  602MOL0     H81221   4.200   0.451   7.580 -2.7651 -0.2375 -2.2726
  602MOL0     H81222   4.131   0.111   7.762 -1.9381  1.3667 -0.5344
  602MOL0     H81223   4.276   0.176   7.823 -0.6899  0.4706  2.7505
  602MOL0     H81224   4.030   0.270   7.907 -0.2741  1.5545  1.4869
  602MOL0     H81225   4.045   0.368   7.752 -1.0263 -0.4158  0.9667
  602MOL0     H81226   4.287   0.417   7.839  1.2669 -2.8212 -1.3478
  602MOL0     H81227   4.230   0.370   7.999 -2.5886 -0.2385  1.7140
  602MOL0     H81228   4.128   0.591   7.815  1.2403 -1.5117 -0.4165
  602MOL0     H81229   4.218   0.618   7.964  2.4315 -0.9688 -3.1519
  602MOL0     H81230   4.040   0.774   7.851  1.6014  0.3733  3.7386
  602MOL0     H81231   3.781   0.992   7.741 -1.7328  1.8216  0.7975
  602MOL0     H81232   3.830   1.073   7.886 -2.6793  2.6473 -4.7665
  602MOL0     H81233   3.949   0.992   7.783  1.0661 -1.2992  1.5544
  602MOL0     H81234   3.596   1.185   8.068 -0.7637  1.1731  0.2737
  602MOL0     H81235   3.444   1.365   8.110 -0.8940 -0.1403 -0.8680
  602MOL0     H81236   3.048   1.266   8.049  0.7005  0.0779 -1.7091
  602MOL0     H81237   3.027   1.426   8.124  0.4044  0.2150 -0.2159
  602MOL0     H81238   3.023   1.443   7.874  0.0543 -1.2976 -0.3928
  602MOL0     H81239   3.173   1.514   7.925  2.0713 -1.3445  0.1022
  602MOL0     H81240   3.240   1.263   7.886  1.1257 -1.1398 -0.7228
  602MOL0     H81241   3.247   1.382   7.754 -0.3037 -2.5290 -2.0298
  602MOL0     H81242   3.012   1.193   7.796  0.2461  2.5677  1.9248
  602MOL0     H81243   3.018   1.314   7.680 -1.4428 -1.4399 -0.9292
  602MOL0     H81244   3.231   1.211   7.579  1.7166 -0.1996  1.5624
  602MOL0     H81245   3.074   1.128   7.561 -2.1988  0.8883  0.4758
  602MOL0     H81246   3.277   1.071   7.780  2.3856 -2.5267 -0.8777
  602MOL0     H81247   3.126   0.983   7.744 -2.0382  2.6570 -0.8416
  602MOL0     H81248   3.385   0.925   7.663 -1.3345 -1.6900  1.3826
  602MOL0     H81249   3.322   0.995   7.514  2.5774 -2.9467 -0.7869
  602MOL0     H81250   3.181   0.779   7.684  0.6532 -1.4512 -0.5029
  602MOL0     H81251   3.258   0.731   7.544 -1.4489 -2.4167  3.0380
  602MOL0     H81252   3.131   1.081   8.179  2.0529 -1.4135  3.5171
  602MOL0     H81253   3.276   0.902   8.126  1.5584 -1.3482 -1.3831
  602MOL0     H81254   3.620   0.661   8.084  2.3686 -2.6407  2.5679
  602MOL0     H81255   3.811   0.524   8.121  0.7954  0.0868  1.4603
  602MOL0     H81256   3.848   1.004   7.137 -0.9259  0.2918 -0.7539
  602MOL0     H81257   3.940   1.232   7.186 -1.2013  1.9282 -0.4589
  602MOL0     H81258   4.054   1.658   6.920  3.1909  3.6825 -0.0177
  602MOL0     H81259   4.127   1.898   6.985 -1.3537  1.2681 -0.5311
  602MOL0     H81260   4.118   1.972   7.377  1.4485  1.0039  1.3376
  602MOL0     H81261   4.230   2.031   7.265 -0.1991  1.0568 -1.6765
  602MOL0     H81262   4.008   2.242   7.353  2.2149  6.3763  3.2228
  602MOL0     H81263   4.167   2.265   7.295 -4.8458  0.5293 -5.4022
  602MOL0     H81264   4.079   2.300   7.553 -1.0655 -0.4016 -0.4679
  602MOL0     H81265   4.243   2.273   7.519 -0.6629  0.8352  1.0846
  602MOL0     H81266   4.185   2.135   7.697 -1.2123  2.0397 -0.4804
  602MOL0     H81267   4.215   2.021   7.562  1.3498  2.0136 -2.6234
  602MOL0     H81268   3.831   1.933   7.711  1.4187 -2.6200  1.6853
  602MOL0     H81269   3.889   1.886   7.322  1.3656  1.2121 -0.6941
  602MOL0     H81270   3.798   1.655   7.265  0.7100  1.1174  2.3961
  603MOL0     O81271   6.145   1.917   0.504  0.1254  0.2385 -0.7155
  603MOL0     C81272   6.230   1.826   0.504 -0.1533 -1.0317 -0.4219
  603MOL0     O81273   6.273   1.752   0.613  0.7299 -0.9964 -0.3976
  603MOL0     C81274   6.276   1.827   0.731 -0.5298 -0.0753 -0.1763
  603MOL0     C81275   6.307   1.970   0.743 -0.0214  0.6356 -0.7255
  603MOL0     C81276   6.270   2.045   0.858  0.2514  0.7165 -0.2000
  603MOL0     C81277   6.238   1.972   0.977  0.2458  0.3765 -0.0574
  603MOL0     O81278   6.203   2.022   1.106  0.3174  0.0349  0.1481
  603MOL0     C81279   6.285   2.134   1.138 -0.4995  0.3427 -0.1579
  603MOL0     C81280   6.255   2.206   1.265 -0.4885 -0.2764  0.2193
  603MOL0     C81281   6.266   2.131   1.401  0.9099  0.1162 -0.4174
  603MOL0     C81282   6.302   2.208   1.520  1.3001  0.0671  0.2020
  603MOL0     C81283   6.213   2.327   1.562 -0.1681 -1.0685 -0.0771
  603MOL0     C81284   6.070   2.284   1.596 -0.3164  0.0731  0.0477
  603MOL0     C81285   5.978   2.392   1.650  0.3922  0.7213 -0.8236
  603MOL0     C81286   6.019   2.421   1.806  0.1628 -0.4559  0.7034
  603MOL0     N81287   5.935   2.537   1.849  0.5540 -0.4991  0.6679
  603MOL0     C81288   5.978   2.651   1.893 -0.2998 -1.1814 -0.2264
  603MOL0     C81289   5.864   2.713   1.932 -0.1623 -0.0024 -0.0263
  603MOL0     C81290   5.859   2.847   2.001  0.8701 -0.1906 -0.1592
  603MOL0     C81291   5.838   2.949   1.890  0.4047  0.2902 -0.5951
  603MOL0     C81292   5.816   3.094   1.930  1.6303  0.8171  0.6140
  603MOL0     C81293   5.925   3.161   2.008 -0.3206 -0.8899 -0.0768
  603MOL0     O81294   5.891   3.182   2.145  0.4767 -1.0733 -0.1607
  603MOL0     C81295   5.849   3.307   2.184  0.9487  0.2629 -0.0214
  603MOL0     C81296   5.855   3.348   2.316  0.0556 -0.6466  0.3370
  603MOL0     C81297   5.831   3.482   2.359 -0.4816  0.4760  0.2000
  603MOL0     C81298   5.868   3.504   2.502  0.4702 -0.2578  0.2842
  603MOL0     C81299   5.762   3.568   2.270  0.1506  0.2548 -0.4484
  603MOL0     C81300   5.712   3.704   2.304 -0.4303  1.1232  0.7898
  603MOL0     O81301   5.585   3.737   2.258 -0.1294  0.3927 -0.1354
  603MOL0     C81302   5.518   3.850   2.292 -0.8117 -0.0449  0.0604
  603MOL0     C81303   5.385   3.839   2.309  0.6715 -0.4160  0.1837
  603MOL0     C81304   5.307   3.949   2.341  0.3324  1.0787 -1.0727
  603MOL0     C81305   5.359   4.080   2.353  0.3277  0.5612 -0.1672
  603MOL0     O81306   5.272   4.189   2.381 -0.1385 -0.4392 -0.5235
  603MOL0     C81307   5.332   4.328   2.367 -0.1719 -0.5159 -0.6410
  603MOL0     C81308   5.212   4.413   2.353  0.1551 -0.4673  0.7445
  603MOL0     C81309   5.125   4.415   2.485 -0.1870 -0.4651 -0.1396
  603MOL0     C81310   4.987   4.384   2.441  1.0396 -0.0935  0.9919
  603MOL0     C81311   4.906   4.347   2.566  0.0521  0.5507  0.4231
  603MOL0     C81312   4.758   4.344   2.533  0.7236  0.1746 -0.2919
  603MOL0     C81313   4.697   4.219   2.473 -0.3186  0.4729 -0.1366
  603MOL0     C81314   4.692   4.098   2.579 -0.7655 -0.4373 -0.2409
  603MOL0    Cl81315   4.619   4.143   2.734 -0.0127  0.7959  0.7882
  603MOL0     C81316   5.504   4.091   2.342  0.2494 -0.6586  0.5413
  603MOL0     C81317   5.578   3.978   2.299  0.3798 -0.7527  0.4000
  603MOL0     O81318   5.787   3.774   2.371  0.4375 -0.1860 -0.4128
  603MOL0     C81319   5.735   3.519   2.142 -1.4549 -0.5616  0.0641
  603MOL0     C81320   5.785   3.396   2.096 -0.0314  0.3804 -0.5955
  603MOL0     N81321   5.753   2.634   1.896 -0.5892 -1.4673 -0.3647
  603MOL0     N81322   5.793   2.532   1.856 -1.0108  0.0277  0.7563
  603MOL0     C81323   6.232   1.831   0.960  0.3832 -0.4964 -0.4882
  603MOL0     C81324   6.233   1.756   0.838  0.2108  0.0499  0.4922
  603MOL0     C81325   6.260   1.775   0.374 -0.2598  0.1728 -0.1400
  603MOL0     C81326   6.339   1.658   0.361  0.2240 -0.9615 -1.3613
  603MOL0     C81327   6.381   1.621   0.238  0.2676 -0.9309  1.2703
  603MOL0     C81328   6.362   1.694   0.119 -0.1667 -0.2467 -0.5134
  603MOL0     O81329   6.428   1.691  -0.000  0.3304  0.1121  0.5681
  603MOL0     C81330   6.476   1.567  -0.048 -1.5531 -0.0392  0.1138
  603MOL0     C81331   6.364   1.473  -0.074  0.1468  0.9181  0.1469
  603MOL0     C81332   6.405   1.333  -0.121 -0.1277 -1.2174  0.8716
  603MOL0     C81333   6.283   1.245  -0.140 -0.8024  0.1946  0.3839
  603MOL0     C81334   6.258   1.188  -0.008  0.9302  0.4613 -0.6886
  603MOL0     C81335   6.251   1.147   0.108 -0.6189 -0.5766  0.9081
  603MOL0     C81336   6.280   1.812   0.132 -0.9052  0.2213 -0.5688
  603MOL0     C81337   6.234   1.847   0.259  0.0320 -0.4683  0.5853
  603MOL0     H81338   6.332   2.021   0.651  4.3887  2.5839  1.2615
  603MOL0     H81339   6.286   2.151   0.871  1.4066  1.3682 -4.9426
  603MOL0     H81340   6.390   2.105   1.129 -0.8258 -0.7734 -0.5668
  603MOL0     H81341   6.274   2.213   1.064  0.4959  2.6421  2.0106
  603MOL0     H81342   6.312   2.298   1.253 -1.9826  0.5051 -1.3660
  603MOL0     H81343   6.152   2.245   1.266 -1.1668 -1.9672  1.2651
  603MOL0     H81344   6.169   2.085   1.420 -0.6282  2.1674 -2.8081
  603MOL0     H81345   6.330   2.043   1.383  0.9733 -0.1561  1.0219
  603MOL0     H81346   6.312   2.150   1.612 -0.4622 -0.4474  0.1089
  603MOL0     H81347   6.395   2.260   1.494 -0.5634  2.5052 -2.1792
  603MOL0     H81348   6.258   2.386   1.642 -2.1776  0.8366 -0.2747
  603MOL0     H81349   6.207   2.402   1.482  0.4691  0.2414  1.0802
  603MOL0     H81350   6.028   2.242   1.504  0.1254  0.2131 -0.2184
  603MOL0     H81351   6.072   2.204   1.671  3.7423  0.7685  0.9267
  603MOL0     H81352   6.009   2.487   1.603  1.6762  2.5717  3.2725
  603MOL0     H81353   5.876   2.355   1.638  1.8389 -3.7739 -0.8414
  603MOL0     H81354   6.127   2.428   1.823  0.0116  0.4380  1.4000
  603MOL0     H81355   5.993   2.334   1.867  0.3059 -1.9245 -1.2437
  603MOL0     H81356   6.084   2.673   1.903 -0.7271  1.0678  0.0671
  603MOL0     H81357   5.774   2.846   2.070 -0.9124  1.3916 -2.1876
  603MOL0     H81358   5.942   2.878   2.065  0.5920  0.1671  0.0290
  603MOL0     H81359   5.762   2.915   1.819 -0.3602 -1.2188  0.8781
  603MOL0     H81360   5.930   2.948   1.830  0.1170 -0.9213 -1.0458
  603MOL0     H81361   5.723   3.097   1.987 -0.0038  1.8324 -1.9269
  603MOL0     H81362   5.788   3.155   1.843 -1.0625 -1.6122 -0.3727
  603MOL0     H81363   5.949   3.248   1.947 -0.1247 -1.8157 -1.3580
  603MOL0     H81364   6.016   3.101   1.998 -0.9865 -1.8151 -0.8044
  603MOL0     H81365   5.898   3.269   2.376 -0.7151 -2.2780 -1.1850
  603MOL0     H81366   5.897   3.409   2.547  0.1595 -0.8661 -0.7713
  603MOL0     H81367   5.951   3.576   2.503 -0.0961  0.4328  1.8825
  603MOL0     H81368   5.789   3.539   2.570  0.5401 -2.1573  1.4221
  603MOL0     H81369   5.342   3.741   2.291  1.3410 -0.5985 -0.4892
  603MOL0     H81370   5.203   3.922   2.356  1.2938 -2.0210  0.9012
  603MOL0     H81371   5.402   4.357   2.445 -0.7183  0.1772 -0.4044
  603MOL0     H81372   5.386   4.336   2.272 -0.2784  2.9003 -0.5046
  603MOL0     H81373   5.243   4.516   2.334 -0.8722 -0.1191  0.8762
  603MOL0     H81374   5.164   4.375   2.262  2.4685  2.8065 -2.1054
  603MOL0     H81375   5.143   4.508   2.541  0.3095 -1.9250  2.2836
  603MOL0     H81376   5.158   4.328   2.543 -2.4457 -3.1809 -2.6505
  603MOL0     H81377   4.952   4.475   2.392 -0.3010 -0.1077  1.8751
  603MOL0     H81378   4.983   4.302   2.368  2.4980 -0.5389  1.3810
  603MOL0     H81379   4.934   4.431   2.630  0.9790  0.7334 -0.1946
  603MOL0     H81380   4.940   4.244   2.582 -2.3992 -0.2819  0.5858
  603MOL0     H81381   4.694   4.363   2.620  0.9345  2.5966 -0.6008
  603MOL0     H81382   4.729   4.426   2.466 -0.9054 -0.7214 -0.7683
  603MOL0     H81383   4.751   4.186   2.384 -0.7551 -1.3903  0.2422
  603MOL0     H81384   4.600   4.252   2.436 -0.6693 -1.1661 -0.7725
  603MOL0     H81385   4.787   4.047   2.596  0.1860  0.7950 -1.5767
  603MOL0     H81386   4.634   4.013   2.543 -0.4256 -1.4176  1.4331
  603MOL0     H81387   5.554   4.184   2.368  0.2832 -0.8151  1.0586
  603MOL0     H81388   5.682   3.995   2.274 -0.1319 -0.3472 -1.5890
  603MOL0     H81389   5.668   3.573   2.075  1.7298  1.4016 -1.8080
  603MOL0     H81390   5.776   3.362   1.993  0.3662 -1.4250 -0.0682
  603MOL0     H81391   6.220   1.771   1.050  3.5623  0.1537  0.4785
  603MOL0     H81392   6.208   1.650   0.837  0.5530 -0.0293  0.1402
  603MOL0     H81393   6.389   1.609   0.444  0.7329  1.5011 -0.1407
  603MOL0     H81394   6.433   1.526   0.235 -4.0976 -3.5215 -0.3060
  603MOL0     H81395   6.521   1.583  -0.147  1.6048 -2.8230  0.9242
  603MOL0     H81396   6.552   1.524   0.018 -0.9825  1.4955  0.5053
  603MOL0     H81397   6.291   1.529  -0.133 -0.7652  0.4893  0.8406
  603MOL0     H81398   6.319   1.458   0.025  0.0478 -0.9310 -0.1384
  603MOL0     H81399   6.480   1.294  -0.053  4.2405  2.2965 -1.3779
  603MOL0     H81400   6.445   1.337  -0.223 -1.6414 -2.8364  0.1619
  603MOL0     H81401   6.295   1.172  -0.221 -0.8730  2.4025 -1.7569
  603MOL0     H81402   6.200   1.308  -0.174 -0.4424  0.6913  0.4202
  603MOL0     H81403   6.235   1.109   0.207 -0.8585  1.5071  1.7300
  603MOL0     H81404   6.252   1.867   0.043 -2.4681  3.4790  1.7699
  603MOL0     H81405   6.165   1.931   0.254  1.2311  0.5038 -0.2493
  604MOL0     O81406   0.799   1.881   2.596  0.2495 -0.2876  0.8854
  604MOL0     C81407   0.864   1.853   2.699 -0.0651  0.4615  0.2051
  604MOL0     O81408   0.900   1.726   2.728  0.4465 -0.1627  0.6250
  604MOL0     C81409   0.844   1.616   2.663 -1.0060  0.2168 -1.2298
  604MOL0     C81410   0.726   1.619   2.591  0.5252  0.2645 -0.3951
  604MOL0     C81411   0.683   1.511   2.512  0.0343 -0.3365 -0.5309
  604MOL0     C81412   0.761   1.391   2.513  0.9256  0.1759  0.0498
  604MOL0     O81413   0.724   1.300   2.428 -0.1698  0.8228  0.3715
  604MOL0     C81414   0.762   1.162   2.451 -0.4874 -0.2776  0.2670
  604MOL0     C81415   0.661   1.086   2.538  0.2025 -0.0597  0.2744
  604MOL0     C81416   0.529   1.060   2.464  0.7096  0.4027 -0.1398
  604MOL0     C81417   0.437   0.952   2.533 -0.5057  0.8199  0.5886
  604MOL0     C81418   0.318   0.909   2.451  0.4616 -0.3009 -0.0144
  604MOL0     C81419   0.356   0.838   2.323  0.0693  0.7695  0.4772
  604MOL0     C81420   0.233   0.818   2.234 -0.2065  1.0982  0.3180
  604MOL0     C81421   0.199   0.905   2.120  0.5135 -0.3858 -1.3138
  604MOL0     N81422   0.305   0.892   2.020 -0.0137 -0.4397  0.3592
  604MOL0     C81423   0.330   0.783   1.939  0.1878  0.6917 -0.6901
  604MOL0     C81424   0.416   0.825   1.843  0.2778 -0.0020 -0.0327
  604MOL0     C81425   0.486   0.734   1.755 -0.8696 -0.5320 -0.5396
  604MOL0     C81426   0.618   0.664   1.816  0.0863 -0.3646 -0.4894
  604MOL0     C81427   0.743   0.744   1.768  0.0969 -0.1855  0.1449
  604MOL0     C81428   0.877   0.693   1.839  0.4452  0.4400 -0.0576
  604MOL0     O81429   0.893   0.764   1.970  0.2332  0.1131  0.2935
  604MOL0     C81430   0.972   0.711   2.068 -0.0520 -1.3374  0.6602
  604MOL0     C81431   0.951   0.756   2.195  0.5501 -0.6887 -0.0707
  604MOL0     C81432   1.007   0.688   2.303  0.3877 -0.8579 -0.4301
  604MOL0     C81433   0.971   0.743   2.441 -0.0389  0.7940 -0.5513
  604MOL0     C81434   1.096   0.579   2.289 -0.5012  0.0579  0.2872
  604MOL0     C81435   1.160   0.523   2.401  0.1069  1.4841  0.4912
  604MOL0     O81436   1.289   0.563   2.450 -0.3084  0.0683  0.0923
  604MOL0     C81437   1.321   0.517   2.578  0.5198 -0.0286  0.7673
  604MOL0     C81438   1.373   0.389   2.594  0.3208 -0.0803  0.8069
  604MOL0     C81439   1.423   0.346   2.716  1.3736  0.4731 -0.4585
  604MOL0     C81440   1.439   0.435   2.825  0.1646 -0.4817  0.5965
  604MOL0     O81441   1.480   0.405   2.948  0.2552 -0.6239  0.0635
  604MOL0     C81442   1.526   0.265   2.973 -0.0656  0.3342 -0.4223
  604MOL0     C81443   1.575   0.247   3.116  0.0268 -0.1341  0.4954
  604MOL0     C81444   1.467   0.291   3.218  0.4557 -0.2280 -0.6493
  604MOL0     C81445   1.487   0.252   3.366  0.1156 -0.2950 -0.0947
  604MOL0     C81446   1.402   0.328   3.471  0.1125 -0.9951  1.0564
  604MOL0     C81447   1.265   0.373   3.434 -0.5188 -0.3165  0.8274
  604MOL0     C81448   1.172   0.390   3.561 -0.8994  0.4776  0.5832
  604MOL0     C81449   1.035   0.438   3.529 -0.4553 -0.1375  0.1467
  604MOL0    Cl81450   1.019   0.604   3.467  0.1803 -0.1177  0.1006
  604MOL0     C81451   1.389   0.562   2.804  0.3667 -0.6556 -0.6733
  604MOL0     C81452   1.335   0.606   2.685  0.2915 -0.5081  0.1328
  604MOL0     O81453   1.107   0.415   2.435 -0.0461 -0.4974 -0.0251
  604MOL0     C81454   1.128   0.540   2.159 -0.3570  0.6170 -0.1707
  604MOL0     C81455   1.057   0.598   2.053  0.5140  0.4077  0.6193
  604MOL0     N81456   0.442   0.959   1.869  0.2031  0.0780 -0.5277
  604MOL0     N81457   0.367   1.004   1.972 -0.6346 -0.2242 -0.0013
  604MOL0     C81458   0.880   1.385   2.588  0.3442  0.4588  0.3118
  604MOL0     C81459   0.928   1.495   2.663  0.6955 -0.6000 -0.1006
  604MOL0     C81460   0.892   1.964   2.794  0.0729 -0.3600  0.1833
  604MOL0     C81461   0.830   2.087   2.780  0.1968  0.7922  0.0600
  604MOL0     C81462   0.841   2.182   2.871  0.2944  0.6555  0.3038
  604MOL0     C81463   0.929   2.173   2.982  0.6252  0.3177  0.4052
  604MOL0     O81464   0.956   2.273   3.077  0.6715 -0.3222  1.6731
  604MOL0     C81465   1.017   2.397   3.028  0.7228 -0.4507  0.0226
  604MOL0     C81466   1.049   2.483   3.164 -0.8287  0.1180 -0.3051
  604MOL0     C81467   1.153   2.419   3.247  0.1527 -0.3913 -0.7349
  604MOL0     C81468   1.290   2.433   3.186 -0.2690 -0.4614  0.6848
  604MOL0     C81469   1.402   2.402   3.283 -0.4056  0.0638  0.4133
  604MOL0     C81470   1.505   2.384   3.354  0.0818 -0.1441 -0.3221
  604MOL0     C81471   1.015   2.062   2.986  0.2312 -0.6966  0.4483
  604MOL0     C81472   0.988   1.955   2.897 -1.1565  0.7204 -0.3240
  604MOL0     H81473   0.660   1.705   2.591 -2.1804 -1.6908 -0.6303
  604MOL0     H81474   0.597   1.517   2.445 -1.3639  1.9416  1.3369
  604MOL0     H81475   0.763   1.106   2.358  0.6849 -0.5082  0.4017
  604MOL0     H81476   0.864   1.159   2.491 -0.0943  2.3269 -0.3862
  604MOL0     H81477   0.713   0.994   2.567  2.7842  2.0040  2.8295
  604MOL0     H81478   0.638   1.132   2.635  2.0746 -0.1490  0.8137
  604MOL0     H81479   0.466   1.150   2.472 -3.7832 -2.4387  0.3964
  604MOL0     H81480   0.539   1.037   2.358 -0.8333  1.8346 -0.6459
  604MOL0     H81481   0.497   0.864   2.558 -0.7973  0.7748  1.1660
  604MOL0     H81482   0.410   0.984   2.634  3.9187 -1.5984  2.8673
  604MOL0     H81483   0.253   0.843   2.509  0.5037 -0.1300  0.2275
  604MOL0     H81484   0.260   0.996   2.419  0.7702 -0.9135 -2.4459
  604MOL0     H81485   0.433   0.885   2.261  1.2113 -2.5297 -0.8365
  604MOL0     H81486   0.391   0.739   2.350 -0.1631  0.6936  0.5077
  604MOL0     H81487   0.233   0.713   2.202 -1.5966  1.5827 -1.4190
  604MOL0     H81488   0.140   0.837   2.288 -0.1206  2.2197  0.0819
  604MOL0     H81489   0.196   1.008   2.159  0.9656 -1.0547  0.6018
  604MOL0     H81490   0.101   0.888   2.075 -1.9365  0.4138  3.1456
  604MOL0     H81491   0.308   0.680   1.965  3.0428  0.3734  0.9515
  604MOL0     H81492   0.423   0.648   1.733  0.4465 -1.2134 -1.7586
  604MOL0     H81493   0.520   0.789   1.667 -0.0009 -0.6173 -0.2685
  604MOL0     H81494   0.632   0.566   1.771 -1.1683 -0.2444 -1.1898
  604MOL0     H81495   0.622   0.658   1.925  5.5275  0.8205 -0.3255
  604MOL0     H81496   0.733   0.851   1.787  0.4048  0.0658 -1.0710
  604MOL0     H81497   0.756   0.718   1.663 -2.3647  2.1796 -0.8505
  604MOL0     H81498   0.965   0.721   1.780 -0.6637  2.6418 -0.7643
  604MOL0     H81499   0.874   0.584   1.836 -1.7328  0.3353  2.6404
  604MOL0     H81500   0.881   0.839   2.197  1.8415  0.4836 -1.2835
  604MOL0     H81501   0.964   0.661   2.513 -1.4064  0.7501 -0.6927
  604MOL0     H81502   1.046   0.817   2.467 -1.3161  1.4068  1.6066
  604MOL0     H81503   0.872   0.789   2.438  0.5418  2.0358 -1.5083
  604MOL0     H81504   1.363   0.332   2.502  1.4896  1.9395 -0.6681
  604MOL0     H81505   1.443   0.240   2.711  1.1631  0.4208 -0.2145
  604MOL0     H81506   1.427   0.218   2.968 -0.0832  0.1240  1.2404
  604MOL0     H81507   1.599   0.224   2.903 -1.2237 -1.0246 -0.8768
  604MOL0     H81508   1.608   0.143   3.125  1.6888 -0.0997 -3.2627
  604MOL0     H81509   1.663   0.311   3.131  0.2386 -0.1193 -0.7262
  604MOL0     H81510   1.363   0.275   3.189 -1.1113  5.5654  0.5362
  604MOL0     H81511   1.488   0.398   3.222 -0.0532 -0.0865 -1.4954
  604MOL0     H81512   1.437   0.155   3.377 -1.5195  0.4808 -0.3650
  604MOL0     H81513   1.592   0.256   3.393  0.4593  1.8818 -1.5582
  604MOL0     H81514   1.458   0.418   3.499 -1.1336  0.7878 -1.7104
  604MOL0     H81515   1.399   0.254   3.552 -0.3388 -3.8530 -1.4068
  604MOL0     H81516   1.291   0.467   3.384 -1.0738 -1.4491 -1.7876
  604MOL0     H81517   1.230   0.302   3.358  0.8299 -3.0833  2.6328
  604MOL0     H81518   1.223   0.453   3.634  0.0395 -0.7695  1.0496
  604MOL0     H81519   1.164   0.290   3.604  1.2192 -0.2959 -0.6391
  604MOL0     H81520   0.970   0.427   3.616  0.1433 -5.2333  0.2116
  604MOL0     H81521   0.982   0.392   3.445 -1.7078  2.5450 -0.6702
  604MOL0     H81522   1.386   0.635   2.884 -0.4823  1.4231 -2.4920
  604MOL0     H81523   1.303   0.709   2.680  1.6839  0.0354  1.6133
  604MOL0     H81524   1.197   0.459   2.139  1.1240  2.0137 -0.9774
  604MOL0     H81525   1.064   0.541   1.961 -1.2553 -0.1155  0.7772
  604MOL0     H81526   0.942   1.296   2.599  1.7339  1.4434  0.7676
  604MOL0     H81527   1.021   1.476   2.715 -1.1205 -1.6702  3.0345
  604MOL0     H81528   0.770   2.097   2.690 -0.2242  1.1900  0.3839
  604MOL0     H81529   0.773   2.265   2.859 -0.8568 -0.0477  1.7013
  604MOL0     H81530   1.114   2.389   2.978  0.1749  2.5968 -1.8142
  604MOL0     H81531   0.947   2.442   2.958 -2.1232 -2.4268  1.3935
  604MOL0     H81532   0.960   2.494   3.228 -0.9600  2.1978 -0.7732
  604MOL0     H81533   1.088   2.580   3.133  3.5708 -2.1384 -2.7391
  604MOL0     H81534   1.132   2.313   3.264  0.1453 -0.1761  0.7113
  604MOL0     H81535   1.155   2.473   3.342  0.9717 -1.2139 -0.2623
  604MOL0     H81536   1.302   2.532   3.141  0.2595 -1.6496 -1.9530
  604MOL0     H81537   1.295   2.357   3.107 -3.2134 -0.4155  0.3453
  604MOL0     H81538   1.578   2.380   3.431  1.3495 -3.3783 -1.5152
  604MOL0     H81539   1.079   2.054   3.073  0.8870 -0.1796  0.0226
  604MOL0     H81540   1.054   1.872   2.923  0.2099  2.1076  0.8219
  605MOL0     O81541   9.404   7.720   8.729 -0.3301 -0.4114  0.2102
  605MOL0     C81542   9.309   7.695   8.803  1.1245  0.8085  1.0595
  605MOL0     O81543   9.293   7.583   8.873  0.1040  0.5598 -0.3491
  605MOL0     C81544   9.380   7.479   8.862 -1.6524  0.2838  0.8513
  605MOL0     C81545   9.403   7.421   8.729  1.3092  0.3522  0.1658
  605MOL0     C81546   9.491   7.316   8.701 -0.3770  0.3500 -0.8451
  605MOL0     C81547   9.565   7.265   8.806  0.4222  0.2619 -0.3538
  605MOL0     O81548   9.639   7.155   8.780  0.0243  0.4588  0.6332
  605MOL0     C81549   9.697   7.068   8.872  0.0027  0.1774 -0.5748
  605MOL0     C81550   9.597   6.994   8.962 -0.5857  0.3258  0.2827
  605MOL0     C81551   9.481   6.919   8.891  0.1820  0.1686 -0.3558
  605MOL0     C81552   9.447   6.785   8.960  0.3716  0.1424  0.5528
  605MOL0     C81553   9.354   6.704   8.860 -0.8624  0.8954  0.9224
  605MOL0     C81554   9.206   6.750   8.845  0.6323 -0.0473  1.3655
  605MOL0     C81555   9.142   6.665   8.728 -0.6390  0.1406  0.2572
  605MOL0     C81556   9.096   6.531   8.778 -0.3874 -0.2185  0.1121
  605MOL0     N81557   9.045   6.448   8.669 -0.0700 -0.1772 -0.2054
  605MOL0     C81558   8.960   6.489   8.578 -0.1375 -0.7678 -0.8138
  605MOL0     C81559   8.893   6.388   8.526  0.5170 -0.2041 -0.4638
  605MOL0     C81560   8.788   6.390   8.421  0.3459 -1.3075  0.3693
  605MOL0     C81561   8.825   6.316   8.291 -0.0983 -0.6379 -0.3300
  605MOL0     C81562   8.713   6.290   8.196 -0.0852  0.4208 -0.0892
  605MOL0     C81563   8.646   6.422   8.141  0.3676  0.5831 -0.5160
  605MOL0     O81564   8.745   6.501   8.085 -0.1068 -0.4614 -0.2869
  605MOL0     C81565   8.700   6.600   8.004 -0.7626  0.1295 -0.6771
  605MOL0     C81566   8.738   6.583   7.877 -0.7443 -0.4777  0.6286
  605MOL0     C81567   8.700   6.694   7.784 -0.0364  0.3075 -1.3418
  605MOL0     C81568   8.758   6.679   7.646  0.5690 -0.1079 -0.0784
  605MOL0     C81569   8.623   6.805   7.831  0.0685  0.2040  0.2751
  605MOL0     C81570   8.597   6.921   7.749  0.1333 -0.8799 -0.3112
  605MOL0     O81571   8.502   7.008   7.794 -0.6576  0.5834 -0.0174
  605MOL0     C81572   8.499   7.131   7.739 -0.3314  0.7536  0.1119
  605MOL0     C81573   8.552   7.233   7.815 -0.1601  0.0681  0.3267
  605MOL0     C81574   8.569   7.366   7.761  1.1180  0.2226 -0.4629
  605MOL0     C81575   8.527   7.389   7.629 -0.5809 -1.5247 -0.5498
  605MOL0     O81576   8.515   7.514   7.568 -0.2720 -0.0589 -0.0921
  605MOL0     C81577   8.559   7.623   7.646  0.2394  0.5093  0.6802
  605MOL0     C81578   8.710   7.648   7.656  0.2457  0.3471  0.2501
  605MOL0     C81579   8.782   7.673   7.527  0.0860  0.4391 -0.0131
  605MOL0     C81580   8.830   7.535   7.479 -0.2986 -0.2703 -0.8216
  605MOL0     C81581   8.880   7.551   7.333  0.6617  0.2638  0.1923
  605MOL0     C81582   8.765   7.530   7.231  0.6940 -0.6059  0.0027
  605MOL0     C81583   8.817   7.535   7.081 -0.3374 -1.0274 -0.3506
  605MOL0     C81584   8.902   7.418   7.042  0.6841 -0.9342 -0.2781
  605MOL0    Cl81585   8.933   7.416   6.867  0.3679  0.2542  0.1140
  605MOL0     C81586   8.479   7.285   7.558  0.6262 -1.0541 -0.0392
  605MOL0     C81587   8.462   7.164   7.611  0.4286  0.9949 -0.5657
  605MOL0     O81588   8.655   6.935   7.643 -1.3132 -0.1877  0.0623
  605MOL0     C81589   8.585   6.808   7.968 -0.9067  0.3399  0.9602
  605MOL0     C81590   8.635   6.710   8.056  0.4403  0.0016 -0.4655
  605MOL0     N81591   8.941   6.271   8.592  0.4104 -0.0452 -0.1946
  605MOL0     N81592   9.029   6.310   8.676 -0.1066  0.0070 -0.5697
  605MOL0     C81593   9.551   7.319   8.940  0.5037 -0.2603 -0.2149
  605MOL0     C81594   9.455   7.427   8.960  0.2394  0.9234 -0.9371
  605MOL0     C81595   9.211   7.800   8.827 -0.5775  0.2186  0.4635
  605MOL0     C81596   9.128   7.788   8.941 -0.4162 -0.4064  0.0439
  605MOL0     C81597   9.019   7.882   8.961  0.8765 -0.4164  0.6344
  605MOL0     C81598   9.006   7.986   8.878  0.9896 -0.3037  0.9659
  605MOL0     O81599   8.905   8.078   8.880  0.4279  0.1643 -0.2805
  605MOL0     C81600   8.831   8.085   8.997  1.2230  0.1785 -0.8504
  605MOL0     C81601   8.715   8.188   8.987 -0.3693 -0.4221  0.2019
  605MOL0     C81602   8.644   8.152   8.849  0.5360 -0.7076  0.7972
  605MOL0     C81603   8.507   8.229   8.830  0.2934 -0.7850  0.3824
  605MOL0     C81604   8.410   8.161   8.918 -0.9561  0.1261 -0.1493
  605MOL0     C81605   8.342   8.093   8.987  0.0082 -0.6625  0.3588
  605MOL0     C81606   9.087   7.997   8.759 -0.5588  0.6519 -0.4960
  605MOL0     C81607   9.191   7.914   8.738 -0.1384  0.5337 -0.2099
  605MOL0     H81608   9.368   7.485   8.649  0.6250  1.7203  1.5025
  605MOL0     H81609   9.512   7.282   8.600  0.9458  2.6726 -1.4275
  605MOL0     H81610   9.753   6.996   8.812  0.8193  3.1607 -3.7413
  605MOL0     H81611   9.778   7.122   8.921  1.2167 -0.6415 -1.6362
  605MOL0     H81612   9.657   6.924   9.020 -0.1324 -0.1711 -0.7654
  605MOL0     H81613   9.544   7.071   9.019 -0.9874  1.6213 -1.7469
  605MOL0     H81614   9.410   7.002   8.884  2.0123  2.0082  1.6811
  605MOL0     H81615   9.511   6.902   8.787  4.7933  3.4372  0.1279
  605MOL0     H81616   9.536   6.724   8.976 -0.4771 -0.6718  2.5809
  605MOL0     H81617   9.401   6.797   9.059  0.1006  1.4732  0.2940
  605MOL0     H81618   9.394   6.704   8.758 -3.1350 -2.2489 -0.1401
  605MOL0     H81619   9.344   6.602   8.900 -0.3499  1.2727  2.0675
  605MOL0     H81620   9.144   6.725   8.932 -1.3236 -2.2368 -0.4994
  605MOL0     H81621   9.194   6.857   8.824  0.9625  0.0703  1.7581
  605MOL0     H81622   9.045   6.707   8.701 -1.4471 -0.4777  2.0319
  605MOL0     H81623   9.208   6.640   8.644  1.7928 -0.6533  2.2794
  605MOL0     H81624   9.018   6.540   8.855 -0.1979 -4.6633  1.1125
  605MOL0     H81625   9.177   6.475   8.825 -2.5578 -0.4215  4.0645
  605MOL0     H81626   8.940   6.591   8.549 -3.2055 -0.6964  1.1090
  605MOL0     H81627   8.693   6.357   8.465 -0.6680  1.6701  0.6616
  605MOL0     H81628   8.784   6.495   8.391  2.0083 -0.7324  1.9700
  605MOL0     H81629   8.854   6.222   8.341  0.8130  0.1328  0.6293
  605MOL0     H81630   8.903   6.364   8.233 -1.4482 -0.4694 -2.0822
  605MOL0     H81631   8.634   6.245   8.257 -1.3480  1.5159 -0.8570
  605MOL0     H81632   8.737   6.210   8.124 -0.2618 -1.7977  2.1761
  605MOL0     H81633   8.600   6.464   8.231 -1.0742 -5.0360  1.8518
  605MOL0     H81634   8.575   6.389   8.065  0.5515  1.2873 -0.9929
  605MOL0     H81635   8.794   6.497   7.842 -0.9393 -0.2000 -0.3980
  605MOL0     H81636   8.676   6.699   7.577  1.2429 -0.6988 -1.0837
  605MOL0     H81637   8.847   6.742   7.639  0.6622 -0.3817 -2.1162
  605MOL0     H81638   8.783   6.576   7.617  1.3705  0.7071 -2.5330
  605MOL0     H81639   8.589   7.208   7.914  2.5347  0.8127 -0.4131
  605MOL0     H81640   8.602   7.450   7.822  0.6174  0.0606  0.0374
  605MOL0     H81641   8.512   7.710   7.599 -1.4917 -0.3522  0.7422
  605MOL0     H81642   8.525   7.615   7.750 -1.1103 -0.8462  0.1745
  605MOL0     H81643   8.729   7.733   7.723 -1.8328 -0.1351  1.5660
  605MOL0     H81644   8.744   7.568   7.722 -3.3085 -0.5997  1.1714
  605MOL0     H81645   8.872   7.730   7.550 -0.7538  1.7513  0.1478
  605MOL0     H81646   8.723   7.730   7.455  0.1325 -0.1030 -0.4908
  605MOL0     H81647   8.904   7.505   7.554 -0.7090 -3.3391 -1.5024
  605MOL0     H81648   8.746   7.465   7.476  0.2275 -0.9034 -1.1393
  605MOL0     H81649   8.960   7.478   7.317 -0.9984 -1.6534  0.1114
  605MOL0     H81650   8.922   7.650   7.315  2.1751 -0.6138 -1.3762
  605MOL0     H81651   8.712   7.439   7.259 -0.4723  0.4238  1.2619
  605MOL0     H81652   8.706   7.620   7.253 -1.0265 -1.9509  1.2029
  605MOL0     H81653   8.875   7.623   7.054 -0.5672 -0.9834 -0.7082
  605MOL0     H81654   8.725   7.540   7.022 -1.3266  2.5397  1.1968
  605MOL0     H81655   8.845   7.326   7.059 -0.2116 -0.7242 -1.9954
  605MOL0     H81656   8.993   7.408   7.103  0.9850  3.3716  0.2554
  605MOL0     H81657   8.433   7.316   7.465  2.7340  0.8386 -0.5533
  605MOL0     H81658   8.427   7.086   7.544  1.2624  0.4453 -0.3797
  605MOL0     H81659   8.528   6.891   8.011  0.8177  1.4990  1.1269
  605MOL0     H81660   8.623   6.722   8.163  1.4094  2.7298 -0.5904
  605MOL0     H81661   9.616   7.275   9.015 -1.4519 -2.5303  0.2815
  605MOL0     H81662   9.449   7.477   9.056  3.1200  0.1353 -0.2292
  605MOL0     H81663   9.132   7.705   9.011  1.4691 -0.5447 -0.1863
  605MOL0     H81664   8.949   7.859   9.041 -0.2093 -3.1251 -0.9807
  605MOL0     H81665   8.798   7.984   9.026  0.0612  0.7748 -0.0150
  605MOL0     H81666   8.887   8.128   9.080  0.6597 -0.1987 -0.2601
  605MOL0     H81667   8.759   8.288   8.994  0.1407 -0.6772  0.8043
  605MOL0     H81668   8.633   8.182   9.058  0.4499 -0.6537  1.1505
  605MOL0     H81669   8.637   8.044   8.841  3.2086 -0.8350 -1.8615
  605MOL0     H81670   8.715   8.190   8.774  0.2771  0.5293  1.1561
  605MOL0     H81671   8.472   8.216   8.727  0.2445  0.2617  0.2495
  605MOL0     H81672   8.514   8.338   8.844 -1.9860  0.4413 -5.1444
  605MOL0     H81673   8.272   8.030   9.038 -1.7341  1.8758  1.3382
  605MOL0     H81674   9.068   8.076   8.687 -0.0824 -0.2905 -1.6769
  605MOL0     H81675   9.252   7.938   8.652 -0.1380  0.2424 -0.2910
  606MOL0     O81676   3.297   2.482   5.004 -0.3819  0.5379 -0.4040
  606MOL0     C81677   3.179   2.464   5.042  0.2245  0.0643  0.0963
  606MOL0     O81678   3.074   2.404   4.972  0.0931 -0.8349 -0.6018
  606MOL0     C81679   3.089   2.398   4.831  0.0501  0.9375 -0.5169
  606MOL0     C81680   3.141   2.511   4.755 -0.4910  0.8629 -0.9327
  606MOL0     C81681   3.142   2.502   4.616 -0.4948 -1.2241  0.2444
  606MOL0     C81682   3.103   2.394   4.543 -0.2955 -0.1742  0.0274
  606MOL0     O81683   3.096   2.401   4.408 -1.0796  0.1530  0.6298
  606MOL0     C81684   3.156   2.505   4.333 -0.4981 -0.1336  0.2755
  606MOL0     C81685   3.160   2.463   4.189  0.5481  0.0344  0.1207
  606MOL0     C81686   3.231   2.565   4.106  0.0253 -0.7513  0.3308
  606MOL0     C81687   3.387   2.586   4.112 -0.1659  0.7462 -0.0920
  606MOL0     C81688   3.485   2.477   4.063  0.4707  0.1736  0.0084
  606MOL0     C81689   3.602   2.483   4.164  0.3173  0.5743  0.1187
  606MOL0     C81690   3.725   2.409   4.109  0.5219  0.3845 -1.0389
  606MOL0     C81691   3.704   2.263   4.120 -0.3338 -0.3047  0.3991
  606MOL0     N81692   3.817   2.187   4.064 -0.2004 -0.0058 -1.2058
  606MOL0     C81693   3.861   2.183   3.934  0.0545  0.7229  0.8040
  606MOL0     C81694   3.967   2.099   3.942  0.3273 -0.6286  0.6641
  606MOL0     C81695   4.058   2.066   3.826 -0.3886 -0.3216 -0.0210
  606MOL0     C81696   4.107   2.186   3.739  0.1569 -0.3348 -0.2068
  606MOL0     C81697   4.195   2.153   3.618  0.2068  0.4193  0.1491
  606MOL0     C81698   4.338   2.101   3.661 -0.0039 -0.2882  0.5970
  606MOL0     O81699   4.401   2.074   3.532 -0.7270 -0.3025  0.5009
  606MOL0     C81700   4.538   2.047   3.529 -0.3198  0.0216  0.4342
  606MOL0     C81701   4.618   2.040   3.649 -0.3029 -0.1715  0.0131
  606MOL0     C81702   4.751   2.004   3.649 -0.4345 -0.3741  0.3931
  606MOL0     C81703   4.820   2.004   3.783  0.5259 -0.4169  0.0939
  606MOL0     C81704   4.802   1.955   3.531 -1.0843  0.3120 -0.4224
  606MOL0     C81705   4.934   1.886   3.525 -0.0808  0.7105 -0.9432
  606MOL0     O81706   5.021   1.914   3.426  0.0471  0.6320 -0.5550
  606MOL0     C81707   5.142   1.850   3.449 -0.5807  0.0152 -0.1736
  606MOL0     C81708   5.250   1.905   3.520  0.3918 -0.6924  1.2873
  606MOL0     C81709   5.370   1.837   3.538  0.1821 -0.2112  0.8230
  606MOL0     C81710   5.374   1.702   3.498 -0.5150  0.4437 -0.0406
  606MOL0     O81711   5.489   1.620   3.523 -0.3179  0.1991  0.1350
  606MOL0     C81712   5.607   1.680   3.579 -0.0275 -0.1048 -0.7892
  606MOL0     C81713   5.724   1.587   3.621 -0.1317  0.1919 -0.1826
  606MOL0     C81714   5.787   1.503   3.506 -0.6907  0.0685 -0.5017
  606MOL0     C81715   5.854   1.369   3.547  0.8141  0.0758 -0.4466
  606MOL0     C81716   5.940   1.388   3.674 -0.2926 -0.1684  0.0351
  606MOL0     C81717   6.003   1.256   3.724  0.5624 -0.5620 -0.0303
  606MOL0     C81718   6.095   1.266   3.851  0.8266  0.5678  0.2398
  606MOL0     C81719   6.228   1.331   3.810 -0.3197 -0.2689  1.0711
  606MOL0    Cl81720   6.343   1.207   3.741 -0.1980  0.2563  0.3203
  606MOL0     C81721   5.279   1.643   3.418 -0.1001  0.3072 -0.1175
  606MOL0     C81722   5.160   1.721   3.394  0.3593 -0.3868  0.3456
  606MOL0     O81723   4.951   1.797   3.611  0.9452 -0.2569 -0.8047
  606MOL0     C81724   4.729   1.966   3.414 -0.3055 -0.3346 -0.4506
  606MOL0     C81725   4.601   2.012   3.407 -0.5434 -0.8268  1.0716
  606MOL0     N81726   3.982   2.057   4.069  0.0983  0.3649 -0.5848
  606MOL0     N81727   3.888   2.095   4.137 -0.2149 -0.3168 -0.3468
  606MOL0     C81728   3.049   2.290   4.615 -0.5621  1.3900  0.5617
  606MOL0     C81729   3.039   2.294   4.755  1.1710 -0.3140 -0.0499
  606MOL0     C81730   3.157   2.492   5.185  0.5554  1.0697  0.1199
  606MOL0     C81731   3.021   2.505   5.237  0.1316 -0.5814  0.1669
  606MOL0     C81732   3.013   2.556   5.368 -0.2015  0.1009  0.7634
  606MOL0     C81733   3.119   2.573   5.463 -0.0604 -0.4929 -0.0427
  606MOL0     O81734   3.090   2.618   5.592 -0.0674 -0.4091  0.4742
  606MOL0     C81735   3.200   2.638   5.679 -0.2616 -0.2827 -0.3571
  606MOL0     C81736   3.273   2.520   5.752 -0.4635  0.1526 -0.3111
  606MOL0     C81737   3.373   2.585   5.852 -1.0948 -0.3574  1.0537
  606MOL0     C81738   3.523   2.565   5.827  1.3136 -0.5911 -0.8447
  606MOL0     C81739   3.555   2.587   5.686  0.5492 -0.2929 -0.6427
  606MOL0     C81740   3.601   2.586   5.576  0.3108 -1.3751  0.0495
  606MOL0     C81741   3.249   2.547   5.414  0.9785 -0.1765  0.2070
  606MOL0     C81742   3.271   2.521   5.279  0.5192  0.1745 -0.2303
  606MOL0     H81743   3.184   2.600   4.800  1.8515 -0.4874 -0.3502
  606MOL0     H81744   3.164   2.590   4.556 -0.3642 -2.6280 -1.8728
  606MOL0     H81745   3.101   2.600   4.331 -0.1597  0.0990  1.4849
  606MOL0     H81746   3.258   2.524   4.364  0.8477 -1.3147 -2.9481
  606MOL0     H81747   3.196   2.360   4.191  1.3674  0.3276  1.4758
  606MOL0     H81748   3.059   2.442   4.152  0.2809 -1.6840  1.6944
  606MOL0     H81749   3.207   2.540   4.002 -0.3243 -1.9040  0.6736
  606MOL0     H81750   3.193   2.666   4.123  0.8073 -0.6246  1.4323
  606MOL0     H81751   3.412   2.683   4.068 -1.1421  0.1503 -2.0797
  606MOL0     H81752   3.414   2.598   4.218  0.1040  0.8601 -0.1723
  606MOL0     H81753   3.420   2.390   4.048 -1.6090  2.1547 -4.0881
  606MOL0     H81754   3.525   2.517   3.969  1.9003  1.1234  0.9757
  606MOL0     H81755   3.636   2.586   4.175 -0.6317  1.2280 -2.3797
  606MOL0     H81756   3.581   2.440   4.263  3.1402  1.9519  1.4181
  606MOL0     H81757   3.761   2.431   4.008  1.6961 -3.4242 -1.6008
  606MOL0     H81758   3.810   2.436   4.173  0.6833  0.2151 -1.1796
  606MOL0     H81759   3.615   2.250   4.057  0.1709 -2.2195  0.0091
  606MOL0     H81760   3.685   2.234   4.224  2.9932 -0.1366  1.1514
  606MOL0     H81761   3.822   2.248   3.857 -1.8137 -1.0701  0.1688
  606MOL0     H81762   4.138   2.013   3.877 -2.2928 -0.9910  2.4657
  606MOL0     H81763   4.005   2.004   3.753 -1.4093  2.8281 -2.2325
  606MOL0     H81764   4.167   2.253   3.802 -0.3682 -0.0238 -0.0250
  606MOL0     H81765   4.019   2.244   3.709  1.1160  1.9181  1.0788
  606MOL0     H81766   4.210   2.235   3.546  3.6025 -1.7244 -1.8910
  606MOL0     H81767   4.142   2.070   3.570 -0.5328  1.2212 -0.4558
  606MOL0     H81768   4.342   2.011   3.723  1.0841 -1.9186 -1.7036
  606MOL0     H81769   4.399   2.177   3.710  2.0286 -1.7323  0.4714
  606MOL0     H81770   4.570   2.044   3.747 -2.7138  1.3324 -1.1251
  606MOL0     H81771   4.794   1.925   3.854  0.4429  1.6174  2.4810
  606MOL0     H81772   4.925   2.020   3.755 -0.2831  1.5125 -2.1802
  606MOL0     H81773   4.803   2.094   3.843 -1.3775 -0.1666 -0.7532
  606MOL0     H81774   5.244   2.013   3.528 -1.3583 -0.7570  1.2449
  606MOL0     H81775   5.458   1.885   3.579  0.9701  0.8831 -1.9530
  606MOL0     H81776   5.643   1.755   3.508 -1.0867  2.0369  0.8144
  606MOL0     H81777   5.585   1.731   3.673  1.1185  0.4067 -0.7784
  606MOL0     H81778   5.799   1.655   3.663  1.0757 -1.2359  0.1021
  606MOL0     H81779   5.687   1.524   3.703  2.3460  0.9545  1.6728
  606MOL0     H81780   5.863   1.575   3.473 -0.1833  2.0163  4.0533
  606MOL0     H81781   5.721   1.489   3.420 -0.8366  0.1522 -0.4064
  606MOL0     H81782   5.783   1.288   3.567 -1.9549  2.0805 -1.6552
  606MOL0     H81783   5.909   1.324   3.464  1.6291  2.2916 -1.1761
  606MOL0     H81784   5.877   1.424   3.756  0.9748 -0.7134  1.2978
  606MOL0     H81785   6.022   1.461   3.664  0.7921 -0.9826  2.1704
  606MOL0     H81786   5.913   1.199   3.750 -2.4256  1.7212 -4.0717
  606MOL0     H81787   6.065   1.213   3.644  0.2089  1.1638 -1.3010
  606MOL0     H81788   6.112   1.164   3.886 -3.0757 -0.3582 -0.0574
  606MOL0     H81789   6.042   1.314   3.934  0.8065 -2.1248  1.9111
  606MOL0     H81790   6.265   1.386   3.896 -1.2562  0.6107  0.9243
  606MOL0     H81791   6.206   1.407   3.734 -1.3017  0.3806  1.9939
  606MOL0     H81792   5.286   1.542   3.380 -1.1142 -0.9412  2.7723
  606MOL0     H81793   5.070   1.685   3.346 -0.9565 -0.9423  3.0801
  606MOL0     H81794   4.784   1.922   3.331 -0.3004  1.4223 -1.4256
  606MOL0     H81795   4.546   2.033   3.315  2.1690 -0.1884 -0.5201
  606MOL0     H81796   3.019   2.202   4.558 -2.7709  2.4435  0.0107
  606MOL0     H81797   2.989   2.215   4.809  0.9396  1.0893  1.9023
  606MOL0     H81798   2.931   2.515   5.178 -1.5218  4.2048  2.9021
  606MOL0     H81799   2.912   2.585   5.395 -0.6976 -1.1958  0.3836
  606MOL0     H81800   3.286   2.689   5.634  2.4435 -3.6804  0.5387
  606MOL0     H81801   3.162   2.708   5.753  1.3265  2.3939 -1.9170
  606MOL0     H81802   3.325   2.444   5.693 -0.1739  2.1152 -2.7370
  606MOL0     H81803   3.197   2.470   5.812 -1.8894  0.0076 -2.1520
  606MOL0     H81804   3.364   2.550   5.955  0.5491 -0.1517  1.3065
  606MOL0     H81805   3.361   2.694   5.856  1.2122 -0.0731  2.3016
  606MOL0     H81806   3.534   2.463   5.866  2.7713  0.2817  1.1039
  606MOL0     H81807   3.567   2.634   5.899  0.3449 -0.2027 -0.6117
  606MOL0     H81808   3.632   2.580   5.473  3.7144 -1.8643  0.9595
  606MOL0     H81809   3.344   2.533   5.466  2.1429 -1.8043 -2.1721
  606MOL0     H81810   3.372   2.526   5.241  1.7901  1.7829  3.0243
  607MOL0     O81811  10.379   5.687  11.174 -0.2132 -0.4336  0.2672
  607MOL0     C81812  10.334   5.789  11.121 -0.1818 -0.5996 -1.1689
  607MOL0     O81813  10.337   5.918  11.167  0.2314  0.2011 -0.3560
  607MOL0     C81814  10.402   5.962  11.281  0.1787 -1.0372 -0.6047
  607MOL0     C81815  10.415   6.106  11.297  0.0948 -0.2649  0.3327
  607MOL0     C81816  10.484   6.164  11.401 -0.3814  0.6976 -1.5468
  607MOL0     C81817  10.537   6.088  11.500  0.4908  0.8773 -1.0474
  607MOL0     O81818  10.602   6.153  11.597  1.0272 -0.0800  0.6425
  607MOL0     C81819  10.659   6.080  11.707 -0.2752  0.0575 -0.7820
  607MOL0     C81820  10.700   6.178  11.816  0.5276 -0.7545 -0.4164
  607MOL0     C81821  10.722   6.108  11.946  0.0219  0.4956  0.3224
  607MOL0     C81822  10.707   6.203  12.057 -0.0733  0.6847  0.2141
  607MOL0     C81823  10.810   6.316  12.078 -0.0966 -0.2140 -0.8229
  607MOL0     C81824  10.950   6.262  12.064  0.0183 -0.0686  0.4728
  607MOL0     C81825  11.050   6.382  12.097 -0.1352 -0.0866  0.4768
  607MOL0     C81826  11.182   6.332  12.172 -0.4448  0.0715  0.8203
  607MOL0     N81827  11.168   6.304  12.309 -0.0657 -0.2457  0.1146
  607MOL0     C81828  11.074   6.225  12.375  0.1831 -0.1577  0.5364
  607MOL0     C81829  11.087   6.251  12.507 -0.1189 -0.0116  0.2800
  607MOL0     C81830  10.996   6.193  12.621 -0.2237 -0.2791  0.6182
  607MOL0     C81831  11.085   6.107  12.711 -0.5489 -0.3050 -0.1276
  607MOL0     C81832  11.037   6.098  12.857 -0.5775  0.3177 -0.1215
  607MOL0     C81833  11.132   6.020  12.947 -0.2462 -0.6554  0.1664
  607MOL0     O81834  11.073   6.044  13.068 -0.5557 -0.0338 -0.2243
  607MOL0     C81835  11.114   5.985  13.182 -0.9027  0.3003 -0.4464
  607MOL0     C81836  11.219   5.893  13.205 -0.1356  0.0728  0.0161
  607MOL0     C81837  11.252   5.829  13.323 -0.5691 -0.3300  0.2295
  607MOL0     C81838  11.361   5.721  13.319 -0.4755  0.7823  0.0957
  607MOL0     C81839  11.176   5.874  13.439 -0.1859  0.2119 -0.4916
  607MOL0     C81840  11.206   5.826  13.576  0.6209 -0.4958  0.3638
  607MOL0     O81841  11.095   5.819  13.656 -0.0212  0.7834 -0.2209
  607MOL0     C81842  11.085   5.750  13.777 -0.3941  0.0950 -0.9711
  607MOL0     C81843  11.189   5.716  13.860 -0.2170  0.7012 -1.8105
  607MOL0     C81844  11.176   5.618  13.962  1.0323  0.4268  0.3524
  607MOL0     C81845  11.051   5.564  13.988 -1.3688  0.4113  0.0566
  607MOL0     O81846  11.056   5.447  14.067 -0.4423 -0.2806  0.6766
  607MOL0     C81847  10.974   5.341  14.025  0.2480 -0.3308  0.2643
  607MOL0     C81848  10.979   5.239  14.135  0.4255  0.1654  0.8799
  607MOL0     C81849  10.948   5.095  14.084 -0.0231 -0.8096  0.2660
  607MOL0     C81850  10.957   5.003  14.211  0.0833 -0.2437 -0.0466
  607MOL0     C81851  11.098   4.961  14.242 -0.5214  0.4118  0.4513
  607MOL0     C81852  11.142   4.845  14.142  0.1363 -0.1050  0.0099
  607MOL0     C81853  11.094   4.703  14.200 -0.0293  0.1478  1.0321
  607MOL0     C81854  11.148   4.605  14.097 -0.0160  0.6573 -1.2085
  607MOL0    Cl81855  11.070   4.444  14.137  0.3348 -0.0508  0.1686
  607MOL0     C81856  10.942   5.620  13.933  0.5276 -0.4331  0.8849
  607MOL0     C81857  10.960   5.712  13.822  0.0914  0.6127 -0.2374
  607MOL0     O81858  11.318   5.803  13.609  0.4257 -0.3215 -0.5095
  607MOL0     C81859  11.071   5.969  13.422  0.4924  0.9185 -0.0147
  607MOL0     C81860  11.042   6.016  13.299  0.4484  0.5792 -1.1887
  607MOL0     N81861  11.194   6.338  12.521 -0.4139  0.0810  0.0599
  607MOL0     N81862  11.244   6.360  12.402  0.0171  0.8543 -0.3891
  607MOL0     C81863  10.535   5.947  11.486  0.4331 -0.0302  0.4936
  607MOL0     C81864  10.470   5.881  11.376  0.1950 -0.1242 -0.0448
  607MOL0     C81865  10.304   5.776  10.974  0.0676  1.1328 -0.6868
  607MOL0     C81866  10.296   5.885  10.891 -0.3121 -0.2543  0.3062
  607MOL0     C81867  10.283   5.871  10.751  0.5673  0.3643  0.2334
  607MOL0     C81868  10.265   5.744  10.696  0.1865  0.0891  0.7362
  607MOL0     O81869  10.233   5.716  10.564 -0.4089  0.6176 -0.7402
  607MOL0     C81870  10.211   5.817  10.472 -0.1958 -0.5624  0.3910
  607MOL0     C81871  10.208   5.761  10.326 -0.1659  0.3815 -0.4396
  607MOL0     C81872  10.064   5.709  10.302 -0.4981  0.4861  0.1107
  607MOL0     C81873  10.069   5.563  10.347  0.0766 -0.7116 -0.2432
  607MOL0     C81874   9.939   5.520  10.387  0.4003  0.5682  0.5530
  607MOL0     C81875   9.826   5.496  10.417 -0.3435  0.3986 -0.0075
  607MOL0     C81876  10.264   5.634  10.773 -0.3924 -0.0885  0.1915
  607MOL0     C81877  10.286   5.648  10.912 -0.3118  0.7274  0.0287
  607MOL0     H81878  10.370   6.174  11.224  2.7562 -0.5183 -1.6880
  607MOL0     H81879  10.495   6.272  11.411 -0.9324  0.7110 -1.0056
  607MOL0     H81880  10.593   6.010  11.759  0.9047  0.6074  1.5968
  607MOL0     H81881  10.749   6.021  11.688 -0.8379 -0.3447 -2.2918
  607MOL0     H81882  10.797   6.221  11.789  0.0937  0.4650 -0.0769
  607MOL0     H81883  10.626   6.258  11.827 -0.6274 -1.7589 -0.6032
  607MOL0     H81884  10.641   6.035  11.954 -0.7055  1.3694  1.0419
  607MOL0     H81885  10.819   6.057  11.937 -0.0614  0.3228  0.3834
  607MOL0     H81886  10.608   6.247  12.041 -0.4192 -0.7019 -1.8734
  607MOL0     H81887  10.700   6.131  12.139 -1.2059 -0.4901 -0.8836
  607MOL0     H81888  10.784   6.395  12.007  1.0380  1.6987  0.7993
  607MOL0     H81889  10.801   6.362  12.177 -0.9107 -2.2145  0.0985
  607MOL0     H81890  10.979   6.183  12.133  0.9286 -0.4114 -0.2878
  607MOL0     H81891  10.972   6.225  11.964  5.9705 -3.1901  2.5133
  607MOL0     H81892  11.065   6.440  12.005 -2.0615  4.3465  2.6635
  607MOL0     H81893  11.005   6.445  12.174  2.2967  2.8094 -0.3042
  607MOL0     H81894  11.257   6.411  12.163 -2.2568  1.6020 -2.8906
  607MOL0     H81895  11.216   6.231  12.146 -0.4054 -0.2070  1.9256
  607MOL0     H81896  11.005   6.150  12.338 -0.0611  0.1323  0.4081
  607MOL0     H81897  10.948   6.273  12.677  1.7869  0.9598  0.6653
  607MOL0     H81898  10.913   6.133  12.582 -2.2674  3.0158 -0.5117
  607MOL0     H81899  11.187   6.146  12.710 -0.4359 -0.5202 -2.1581
  607MOL0     H81900  11.093   6.007  12.665 -2.7327  1.1940 -4.3084
  607MOL0     H81901  10.933   6.064  12.861 -0.4324 -0.0255  1.4509
  607MOL0     H81902  11.040   6.205  12.880  2.1320  1.1361 -3.3855
  607MOL0     H81903  11.235   6.057  12.952  0.2024 -1.9719  1.7027
  607MOL0     H81904  11.130   5.916  12.912 -0.1746 -0.8552  0.7362
  607MOL0     H81905  11.281   5.868  13.120 -0.0913 -2.2936  0.6511
  607MOL0     H81906  11.455   5.769  13.292  0.5021 -1.9673 -1.8192
  607MOL0     H81907  11.363   5.650  13.401 -1.5429 -2.2720 -2.3391
  607MOL0     H81908  11.349   5.655  13.233 -1.9031 -1.3425  1.8187
  607MOL0     H81909  11.290   5.756  13.847  0.0442  1.3055  1.2632
  607MOL0     H81910  11.258   5.584  14.025 -0.6930 -0.2912  2.3481
  607MOL0     H81911  10.877   5.381  13.995 -0.4793 -1.4136  1.0569
  607MOL0     H81912  11.017   5.312  13.929 -1.5580  1.3183 -1.1292
  607MOL0     H81913  11.085   5.232  14.159  0.4053 -1.7538  0.5467
  607MOL0     H81914  10.917   5.270  14.221 -1.9059  0.9877 -0.9850
  607MOL0     H81915  11.012   5.065  14.000 -3.9616  1.6744 -4.0638
  607MOL0     H81916  10.846   5.099  14.045  1.1583 -2.5159 -3.4689
  607MOL0     H81917  10.894   5.042  14.291  0.8499 -1.8501  1.4133
  607MOL0     H81918  10.898   4.912  14.193  2.3167 -2.5621  3.1749
  607MOL0     H81919  11.111   4.931  14.347  1.0701 -2.4797 -0.4452
  607MOL0     H81920  11.159   5.050  14.231 -0.2388  0.2540  0.7295
  607MOL0     H81921  11.104   4.865  14.041 -1.0926  1.0665  0.6648
  607MOL0     H81922  11.249   4.864  14.149  0.4746 -2.2864  1.3154
  607MOL0     H81923  10.985   4.707  14.212 -0.4280 -3.0243 -0.6366
  607MOL0     H81924  11.127   4.677  14.301  1.9096 -2.4924 -0.1650
  607MOL0     H81925  11.255   4.599  14.118 -0.0373  0.8148 -1.0536
  607MOL0     H81926  11.134   4.643  13.996 -0.1230  3.0899 -0.3388
  607MOL0     H81927  10.846   5.589  13.971 -0.7897 -1.0254 -2.5223
  607MOL0     H81928  10.870   5.743  13.770 -1.2355 -0.3220  1.3820
  607MOL0     H81929  11.014   6.014  13.503 -3.0917  0.6302 -2.1481
  607MOL0     H81930  10.959   6.084  13.286  1.5479  1.9327 -1.3361
  607MOL0     H81931  10.579   5.881  11.560  2.4042 -0.4259 -0.9527
  607MOL0     H81932  10.462   5.773  11.370 -3.9509  0.0774 -1.5127
  607MOL0     H81933  10.312   5.983  10.935 -1.3067 -0.5472  1.3754
  607MOL0     H81934  10.264   5.960  10.691  0.6460  2.0036  2.5385
  607MOL0     H81935  10.119   5.867  10.502  0.5698  1.1381  0.0261
  607MOL0     H81936  10.293   5.888  10.484 -0.2558 -0.5586  0.7972
  607MOL0     H81937  10.284   5.687  10.302  1.1297  1.5221  0.0400
  607MOL0     H81938  10.230   5.843  10.257  0.6038  3.1712  2.8484
  607MOL0     H81939  10.044   5.726  10.196 -2.9020  0.0569  0.4395
  607MOL0     H81940   9.993   5.767  10.362 -0.0930  1.7221 -0.5653
  607MOL0     H81941  10.134   5.550  10.434  0.0349  0.4184 -0.0267
  607MOL0     H81942  10.126   5.514  10.267  0.2764  0.4799 -0.8704
  607MOL0     H81943   9.720   5.488  10.432 -0.2743 -0.6091  0.0081
  607MOL0     H81944  10.245   5.538  10.726 -1.0313 -0.5171  1.2573
  607MOL0     H81945  10.271   5.552  10.960  1.2797  0.2881 -0.2946
  608MOL0     O81946   8.233   5.261   6.046 -1.0053  0.1141  0.1233
  608MOL0     C81947   8.222   5.271   6.168 -0.2656  0.1475 -0.0035
  608MOL0     O81948   8.184   5.172   6.256 -0.0937 -0.4013 -0.1573
  608MOL0     C81949   8.150   5.048   6.195 -0.6462 -0.4232  1.3285
  608MOL0     C81950   8.238   4.929   6.195 -0.1221 -0.4523  0.5927
  608MOL0     C81951   8.192   4.808   6.135  0.3349 -0.5612  0.9865
  608MOL0     C81952   8.057   4.794   6.085  0.5755 -1.4371 -0.4492
  608MOL0     O81953   8.013   4.676   6.039 -0.0482  1.3308  0.7941
  608MOL0     C81954   8.017   4.568   6.138 -0.2391 -0.4873 -0.3491
  608MOL0     C81955   7.876   4.500   6.132  0.5192 -1.0388  0.1952
  608MOL0     C81956   7.763   4.588   6.190 -0.2274 -0.4062 -0.0110
  608MOL0     C81957   7.657   4.506   6.270 -0.7095  0.0337  0.1068
  608MOL0     C81958   7.707   4.444   6.405  0.5620 -0.3059  0.0274
  608MOL0     C81959   7.593   4.354   6.471 -0.2556  0.5373 -0.6136
  608MOL0     C81960   7.487   4.434   6.539  0.8037 -0.2145 -1.3020
  608MOL0     C81961   7.397   4.341   6.618  1.0825  0.7010  0.1497
  608MOL0     N81962   7.345   4.227   6.536  0.6701 -0.3111 -0.7510
  608MOL0     C81963   7.399   4.105   6.539  0.6246 -0.8799 -0.8946
  608MOL0     C81964   7.348   4.049   6.432 -0.2722  0.4833  0.5298
  608MOL0     C81965   7.378   3.912   6.383 -0.0962  0.7411  0.9106
  608MOL0     C81966   7.473   3.829   6.466 -0.6032  0.4751  0.2983
  608MOL0     C81967   7.602   3.797   6.398 -0.0063 -0.3374  1.1333
  608MOL0     C81968   7.677   3.925   6.363  0.1918  0.0067  0.5997
  608MOL0     O81969   7.730   3.978   6.487  0.4029  0.3708 -0.1717
  608MOL0     C81970   7.843   4.051   6.493 -0.4290  0.7338 -0.0402
  608MOL0     C81971   7.900   4.082   6.615  0.1618 -0.5140  0.1171
  608MOL0     C81972   8.014   4.171   6.616  0.2757 -0.4501  0.5847
  608MOL0     C81973   8.059   4.217   6.747 -1.2116  1.1851  0.3111
  608MOL0     C81974   8.065   4.229   6.494  0.3004  0.2646  0.5897
  608MOL0     C81975   8.182   4.323   6.491  0.1105  0.3027  0.2582
  608MOL0     O81976   8.156   4.453   6.439  0.2368  0.1874 -0.0474
  608MOL0     C81977   8.261   4.541   6.436 -0.5866 -0.7034 -2.1402
  608MOL0     C81978   8.321   4.559   6.311 -0.7522  0.2080 -0.8107
  608MOL0     C81979   8.435   4.642   6.309  0.3643 -0.0072  0.8054
  608MOL0     C81980   8.480   4.720   6.414  0.4736  0.6400 -0.7730
  608MOL0     O81981   8.580   4.797   6.378 -0.4007  0.1906 -0.7737
  608MOL0     C81982   8.617   4.899   6.472 -0.2597 -0.4116  0.5754
  608MOL0     C81983   8.677   5.017   6.403  0.6929 -0.4690 -0.4821
  608MOL0     C81984   8.556   5.114   6.376  0.0255 -0.2824  0.5976
  608MOL0     C81985   8.589   5.230   6.286 -0.0510  0.6234 -0.2697
  608MOL0     C81986   8.664   5.338   6.368 -0.6885 -0.3584  0.8763
  608MOL0     C81987   8.698   5.463   6.278 -1.0086 -0.2191  0.6735
  608MOL0     C81988   8.775   5.579   6.350 -1.0912 -0.3695  0.3352
  608MOL0     C81989   8.791   5.697   6.265  0.1060 -0.5220  0.0314
  608MOL0    Cl81990   8.633   5.784   6.231 -0.3212 -0.0553  0.2649
  608MOL0     C81991   8.415   4.702   6.539 -0.0091 -0.6349 -0.9524
  608MOL0     C81992   8.303   4.611   6.556  0.4296 -0.1209 -0.5973
  608MOL0     O81993   8.290   4.286   6.544 -0.1033  0.0070 -0.3236
  608MOL0     C81994   8.004   4.193   6.374  0.0737  0.7653 -0.0136
  608MOL0     C81995   7.894   4.109   6.370  0.2020  0.3760 -0.1451
  608MOL0     N81996   7.260   4.137   6.369 -0.8528 -0.1762  0.3007
  608MOL0     N81997   7.243   4.241   6.448  0.1343 -0.1319 -0.0900
  608MOL0     C81998   7.979   4.910   6.079  1.0564  0.2637 -0.0532
  608MOL0     C81999   8.027   5.035   6.129 -0.2523  0.3164 -0.1357
  608MOL0     C82000   8.248   5.405   6.223 -0.4760 -0.7547  0.1570
  608MOL0     C82001   8.202   5.424   6.356 -0.1773 -0.4985  0.0478
  608MOL0     C82002   8.207   5.553   6.408  0.1185 -0.2343 -0.8334
  608MOL0     C82003   8.241   5.671   6.339  0.3905  0.7854 -0.1838
  608MOL0     O82004   8.259   5.784   6.414 -0.0218 -0.4433 -0.4972
  608MOL0     C82005   8.290   5.911   6.348  0.9300  0.0410 -0.3128
  608MOL0     C82006   8.329   6.037   6.435  0.1632 -0.1416  0.9488
  608MOL0     C82007   8.427   5.993   6.551 -0.2731  1.1316 -0.4762
  608MOL0     C82008   8.507   6.106   6.616  0.7298 -0.0677 -0.5293
  608MOL0     C82009   8.426   6.210   6.681 -0.1867  0.4571 -1.4574
  608MOL0     C82010   8.383   6.284   6.769 -0.3457  1.0488  0.4179
  608MOL0     C82011   8.286   5.649   6.209  0.8062 -0.0553  0.3494
  608MOL0     C82012   8.280   5.517   6.152  0.6670  0.3543  0.5870
  608MOL0     H82013   8.336   4.939   6.240 -0.1228  1.2900  0.2840
  608MOL0     H82014   8.258   4.721   6.131  1.9481  0.5447  2.4271
  608MOL0     H82015   8.099   4.500   6.115 -0.7656 -0.7806 -1.4071
  608MOL0     H82016   8.028   4.607   6.240 -1.6457 -3.0427  0.8713
  608MOL0     H82017   7.846   4.478   6.029  4.8506 -1.1060 -1.2406
  608MOL0     H82018   7.873   4.403   6.182 -4.2813 -1.1946  0.0691
  608MOL0     H82019   7.808   4.658   6.260 -1.8862 -0.7406  1.4533
  608MOL0     H82020   7.715   4.642   6.107  1.0306  0.2231 -0.3546
  608MOL0     H82021   7.575   4.575   6.294 -1.0581 -0.5807  0.7342
  608MOL0     H82022   7.615   4.433   6.201  2.0381 -2.5101  0.9379
  608MOL0     H82023   7.796   4.383   6.391  1.3815  1.0198 -0.8006
  608MOL0     H82024   7.735   4.528   6.468 -0.6931 -0.8760  1.4001
  608MOL0     H82025   7.560   4.289   6.389 -0.8649 -0.6375  0.5151
  608MOL0     H82026   7.636   4.273   6.531 -4.9537 -1.7200  0.1631
  608MOL0     H82027   7.542   4.504   6.603  1.4636 -0.7238 -1.3153
  608MOL0     H82028   7.432   4.481   6.456 -4.0546 -2.2475  0.3968
  608MOL0     H82029   7.319   4.407   6.657  1.0801  1.1582 -0.6107
  608MOL0     H82030   7.458   4.306   6.703  3.2840  0.1159 -1.5880
  608MOL0     H82031   7.463   4.062   6.616  0.5186  1.8411  0.8730
  608MOL0     H82032   7.282   3.862   6.398 -1.4050  2.8972  0.1815
  608MOL0     H82033   7.394   3.905   6.275 -0.2915 -0.0055  0.9265
  608MOL0     H82034   7.425   3.737   6.502  1.0108 -1.4353 -2.0635
  608MOL0     H82035   7.494   3.871   6.565 -1.4651  1.1778  0.1913
  608MOL0     H82036   7.572   3.738   6.312 -1.8494  0.0520  1.4804
  608MOL0     H82037   7.659   3.726   6.460  0.4986 -2.1206 -1.2328
  608MOL0     H82038   7.613   4.002   6.320  0.7342 -0.6248 -1.4757
  608MOL0     H82039   7.757   3.913   6.289  0.8031  1.1923  1.0417
  608MOL0     H82040   7.862   4.038   6.707 -1.6298  0.2723 -0.1862
  608MOL0     H82041   8.059   4.326   6.745 -1.4416  1.1796  0.0600
  608MOL0     H82042   7.984   4.186   6.820  1.8003  2.4771  4.3354
  608MOL0     H82043   8.156   4.174   6.775 -0.5823  1.5881 -1.1352
  608MOL0     H82044   8.305   4.503   6.220  0.9163  1.0552 -1.6544
  608MOL0     H82045   8.470   4.660   6.207 -3.2174  2.0006 -0.2243
  608MOL0     H82046   8.540   4.922   6.546 -1.1903 -1.0682 -0.1681
  608MOL0     H82047   8.689   4.866   6.548 -1.3231  2.1840  2.8827
  608MOL0     H82048   8.754   5.063   6.465 -1.7045  1.3128  1.3828
  608MOL0     H82049   8.725   4.987   6.309  2.6871 -0.1496  0.3960
  608MOL0     H82050   8.527   5.161   6.470  1.7682  4.5822 -0.9538
  608MOL0     H82051   8.475   5.054   6.332  1.1477 -0.9724 -0.5848
  608MOL0     H82052   8.648   5.198   6.199  1.4196  3.0121 -0.2397
  608MOL0     H82053   8.495   5.268   6.246  0.3607  2.1654  0.1556
  608MOL0     H82054   8.759   5.295   6.402 -0.8997 -0.4433  1.3689
  608MOL0     H82055   8.606   5.378   6.452  1.3296 -2.8815  3.6929
  608MOL0     H82056   8.766   5.425   6.200  0.4376  3.1078  0.1317
  608MOL0     H82057   8.611   5.511   6.233 -0.5452  2.3685  2.3349
  608MOL0     H82058   8.878   5.551   6.374  0.9527  3.6365 -2.4862
  608MOL0     H82059   8.728   5.608   6.445 -2.7600  1.5250 -0.9917
  608MOL0     H82060   8.834   5.664   6.170  0.5507 -0.5964  0.2594
  608MOL0     H82061   8.862   5.767   6.310  0.7698 -1.4991  0.5364
  608MOL0     H82062   8.454   4.754   6.626  0.3867 -0.4329 -1.2452
  608MOL0     H82063   8.253   4.596   6.651 -2.7204  0.2556 -2.0656
  608MOL0     H82064   8.036   4.239   6.281 -2.5659 -0.1276 -1.4676
  608MOL0     H82065   7.857   4.089   6.270 -1.2401 -0.8297  0.6001
  608MOL0     H82066   7.891   4.905   6.015  1.9459 -0.7565 -1.2468
  608MOL0     H82067   7.965   5.122   6.113 -0.4628  0.0034 -1.1205
  608MOL0     H82068   8.180   5.344   6.427  0.0114 -0.6265 -0.0380
  608MOL0     H82069   8.173   5.568   6.509  0.9229  1.8340 -0.8263
  608MOL0     H82070   8.379   5.881   6.292  0.0364 -1.1022 -1.1941
  608MOL0     H82071   8.206   5.931   6.281  0.4382 -0.4436  0.1482
  608MOL0     H82072   8.244   6.083   6.486  2.1209  3.0475  1.6045
  608MOL0     H82073   8.374   6.112   6.369 -0.5775  0.3971  1.0528
  608MOL0     H82074   8.496   5.912   6.527  0.5956  1.7043  0.0369
  608MOL0     H82075   8.360   5.944   6.623  0.3461  1.0370  0.0409
  608MOL0     H82076   8.576   6.152   6.545  0.7945 -0.7536 -0.9135
  608MOL0     H82077   8.560   6.062   6.701  0.8391  1.1604  0.0506
  608MOL0     H82078   8.342   6.354   6.838 -0.7162  1.7730 -0.5124
  608MOL0     H82079   8.325   5.722   6.140  1.8222 -0.0966  0.8605
  608MOL0     H82080   8.302   5.502   6.047 -3.2995 -0.8958 -0.2561
  609MOL0     O82081  10.459   6.281   9.150 -0.9033 -0.2701  0.4138
  609MOL0     C82082  10.501   6.195   9.219  0.0144  1.2002 -0.0384
  609MOL0     O82083  10.450   6.160   9.342  0.0132  0.0156 -0.0347
  609MOL0     C82084  10.331   6.204   9.390 -0.3328  0.0377 -0.2657
  609MOL0     C82085  10.260   6.318   9.366 -0.9603  0.1252  0.2403
  609MOL0     C82086  10.147   6.350   9.435  1.3452 -0.6102 -0.5194
  609MOL0     C82087  10.096   6.281   9.545  0.2725  0.2025  0.4279
  609MOL0     O82088   9.983   6.330   9.602 -0.0008  0.3992 -0.4079
  609MOL0     C82089   9.961   6.309   9.744 -1.0662 -0.5829  0.1379
  609MOL0     C82090  10.073   6.355   9.843 -0.9453  0.2874  0.1855
  609MOL0     C82091  10.151   6.485   9.805  0.0620  0.7963  0.7370
  609MOL0     C82092  10.073   6.607   9.824  0.2789 -0.1433 -1.5275
  609MOL0     C82093  10.051   6.640   9.976  0.2181  1.1847  0.6729
  609MOL0     C82094   9.910   6.686  10.000 -0.3207  0.4692 -0.5962
  609MOL0     C82095   9.848   6.811   9.948  0.0002  0.2838 -0.4423
  609MOL0     C82096   9.933   6.936   9.977 -0.3240  0.1128 -0.4007
  609MOL0     N82097   9.845   7.055   9.973 -0.8520  0.0286 -0.2087
  609MOL0     C82098   9.774   7.096   9.861  0.3899 -0.0302 -0.1698
  609MOL0     C82099   9.746   7.228   9.890 -0.1369 -0.1450  0.2133
  609MOL0     C82100   9.663   7.318   9.806 -0.1651  0.9802 -0.3054
  609MOL0     C82101   9.739   7.389   9.695  0.0382 -0.8020 -0.3904
  609MOL0     C82102   9.654   7.487   9.604 -0.7802 -0.4351 -1.2997
  609MOL0     C82103   9.559   7.584   9.668 -0.0259 -0.4019 -0.0511
  609MOL0     O82104   9.646   7.692   9.711  0.1133 -0.0111  0.2401
  609MOL0     C82105   9.571   7.802   9.746  0.9101  0.3782  0.3967
  609MOL0     C82106   9.430   7.814   9.778  0.0173 -0.7317 -0.2253
  609MOL0     C82107   9.372   7.932   9.837  0.3074 -0.1255 -0.2758
  609MOL0     C82108   9.232   7.927   9.890 -0.2753 -0.2222 -0.2427
  609MOL0     C82109   9.458   8.051   9.839  0.4358 -0.0300 -0.6347
  609MOL0     C82110   9.420   8.181   9.895 -0.8003 -0.2486 -0.7121
  609MOL0     O82111   9.287   8.211   9.915 -0.6867 -0.4634  0.3814
  609MOL0     C82112   9.251   8.316  10.002 -0.2093  0.2197  0.8310
  609MOL0     C82113   9.161   8.416   9.962  0.3470  1.3638 -0.3243
  609MOL0     C82114   9.134   8.521  10.043 -0.7471 -0.4207 -0.0715
  609MOL0     C82115   9.196   8.542  10.161 -0.9603  0.7462 -0.3051
  609MOL0     O82116   9.161   8.643  10.243 -0.1345 -0.0001 -0.5711
  609MOL0     C82117   9.142   8.777  10.183 -0.5991  1.0175  0.6212
  609MOL0     C82118   9.111   8.871  10.303 -0.4719  0.2342  0.3321
  609MOL0     C82119   8.968   8.844  10.357 -0.6848 -0.0085  0.3500
  609MOL0     C82120   8.960   8.899  10.503 -0.5717  0.1815 -0.0062
  609MOL0     C82121   8.828   8.870  10.573  0.0516 -0.3661  0.0892
  609MOL0     C82122   8.786   8.733  10.575 -0.5344  0.1806  0.1975
  609MOL0     C82123   8.665   8.715  10.664 -0.0661  0.5755  0.0554
  609MOL0     C82124   8.647   8.563  10.680  0.5529 -1.1961 -0.1706
  609MOL0    Cl82125   8.739   8.495  10.820  0.0980 -0.0409  0.1779
  609MOL0     C82126   9.303   8.442  10.191 -0.0042  0.3982 -0.0311
  609MOL0     C82127   9.317   8.328  10.122  0.1757 -0.2173 -0.7330
  609MOL0     O82128   9.508   8.264   9.922 -0.4173  0.1190  0.1681
  609MOL0     C82129   9.586   8.038   9.787  0.5753 -0.4357 -1.1089
  609MOL0     C82130   9.644   7.916   9.754  0.2317  0.1484 -0.6767
  609MOL0     N82131   9.803   7.260  10.018 -0.4077  0.6024  0.7517
  609MOL0     N82132   9.850   7.148  10.063 -0.8249 -0.2457 -0.4254
  609MOL0     C82133  10.166   6.162   9.578  0.0904 -1.3743 -0.0411
  609MOL0     C82134  10.295   6.136   9.504  0.0262  0.8536 -0.0850
  609MOL0     C82135  10.629   6.136   9.194 -0.0339 -0.7663  0.1170
  609MOL0     C82136  10.705   6.082   9.298 -0.3739 -0.8232 -0.8259
  609MOL0     C82137  10.842   6.060   9.283 -0.6292 -0.0616 -0.0662
  609MOL0     C82138  10.909   6.072   9.168 -1.0700 -0.5878  0.9568
  609MOL0     O82139  11.037   6.032   9.147 -0.5518  0.3374  1.3072
  609MOL0     C82140  11.129   6.146   9.156 -0.1081 -0.1703 -0.0074
  609MOL0     C82141  11.183   6.172   9.013  0.9105  0.1070 -0.4352
  609MOL0     C82142  11.331   6.221   8.994 -0.1069  0.3347 -0.7434
  609MOL0     C82143  11.393   6.306   9.113 -0.4898 -0.0078 -0.1299
  609MOL0     C82144  11.504   6.393   9.066  0.4914 -0.2060 -0.6195
  609MOL0     C82145  11.606   6.455   9.056 -0.0236  0.4917  0.4249
  609MOL0     C82146  10.832   6.119   9.065  0.1705 -0.4840  1.1445
  609MOL0     C82147  10.699   6.148   9.077 -0.0934 -0.2456 -0.2063
  609MOL0     H82148  10.283   6.382   9.281 -0.9087 -1.3215 -0.8742
  609MOL0     H82149  10.088   6.434   9.400  1.1670 -1.2741 -1.8958
  609MOL0     H82150   9.876   6.375   9.765 -0.0504  0.7936  0.0879
  609MOL0     H82151   9.932   6.204   9.750 -0.6152 -0.6360  1.9396
  609MOL0     H82152  10.030   6.364   9.943  0.6125  0.7964  0.8471
  609MOL0     H82153  10.150   6.277   9.846 -0.4569  0.7248 -0.6059
  609MOL0     H82154  10.247   6.494   9.856  2.1439 -0.3813 -2.6532
  609MOL0     H82155  10.167   6.475   9.698 -2.8305 -3.2663  0.4117
  609MOL0     H82156  10.123   6.690   9.773 -1.0178  0.4462 -1.8894
  609MOL0     H82157   9.984   6.607   9.760 -2.5264  0.0013  2.0284
  609MOL0     H82158  10.071   6.551  10.036  0.8037  0.8986  0.0735
  609MOL0     H82159  10.132   6.703  10.014  0.2397  1.0450  0.8576
  609MOL0     H82160   9.860   6.595   9.964  1.3146 -1.3243  1.3432
  609MOL0     H82161   9.897   6.693  10.109 -0.4230  2.1990 -0.6961
  609MOL0     H82162   9.845   6.793   9.840 -0.5027 -1.7219 -0.1253
  609MOL0     H82163   9.747   6.807   9.990 -0.8162 -2.1639 -2.4126
  609MOL0     H82164  10.014   6.933   9.903  1.3484 -2.8359  1.3510
  609MOL0     H82165   9.995   6.944  10.067  2.7435 -2.2507 -2.1103
  609MOL0     H82166   9.732   7.046   9.774 -3.9245  4.2007 -0.9189
  609MOL0     H82167   9.584   7.258   9.759 -2.3168  1.0947  2.8651
  609MOL0     H82168   9.619   7.395   9.870  0.4196  1.0206  0.0554
  609MOL0     H82169   9.795   7.312   9.641  0.9962  1.0330 -2.1455
  609MOL0     H82170   9.818   7.456   9.731 -0.4699 -0.2907 -0.2111
  609MOL0     H82171   9.605   7.421   9.531 -3.3430  1.8058 -1.7463
  609MOL0     H82172   9.732   7.547   9.555 -0.1981  0.3509  0.5339
  609MOL0     H82173   9.501   7.531   9.745 -1.8912  0.4572 -0.8156
  609MOL0     H82174   9.487   7.621   9.596 -0.3475  2.5174  1.6332
  609MOL0     H82175   9.376   7.720   9.771  3.1258 -2.5591 -1.8754
  609MOL0     H82176   9.188   7.830   9.864 -0.1148 -0.8603  1.6811
  609MOL0     H82177   9.232   7.916   9.999 -1.6141 -4.9127 -0.4927
  609MOL0     H82178   9.164   8.007   9.859  0.3600  0.8810  1.0997
  609MOL0     H82179   9.110   8.413   9.866  2.1668  3.5522 -1.4580
  609MOL0     H82180   9.054   8.591  10.021 -0.0366  0.9796  1.5999
  609MOL0     H82181   9.230   8.815  10.132 -1.4196  0.5844 -1.1855
  609MOL0     H82182   9.058   8.772  10.113  1.9152 -0.2946 -2.5678
  609MOL0     H82183   9.186   8.865  10.383 -0.1876 -0.5098  0.0182
  609MOL0     H82184   9.112   8.975  10.268 -0.9128  0.2482  0.3546
  609MOL0     H82185   8.964   8.735  10.348 -1.4183 -0.0133  0.5943
  609MOL0     H82186   8.893   8.883  10.287  0.8270 -0.2379 -1.4718
  609MOL0     H82187   9.038   8.857  10.568 -1.5479 -0.7793  0.5619
  609MOL0     H82188   8.974   9.007  10.490  1.9762 -0.1922 -1.0396
  609MOL0     H82189   8.750   8.920  10.515 -0.0234 -0.7156 -0.1110
  609MOL0     H82190   8.848   8.906  10.675 -0.2823 -3.8353  1.5232
  609MOL0     H82191   8.768   8.691  10.475 -3.2464 -0.3525  0.8306
  609MOL0     H82192   8.872   8.678  10.615 -2.8846 -0.9261  4.3221
  609MOL0     H82193   8.576   8.767  10.626 -0.2559  0.1810 -0.0575
  609MOL0     H82194   8.685   8.742  10.768  4.4758  1.5434 -0.8740
  609MOL0     H82195   8.683   8.518  10.587  3.8139 -0.3155  0.5185
  609MOL0     H82196   8.540   8.549  10.695  0.1349  2.2012  0.8423
  609MOL0     H82197   9.361   8.462  10.281  1.1210 -0.0676 -0.6410
  609MOL0     H82198   9.380   8.248  10.158  1.9586  0.2958 -2.5163
  609MOL0     H82199   9.652   8.124   9.786  0.1734 -0.1181 -0.6374
  609MOL0     H82200   9.743   7.884   9.723 -0.0737  0.2099 -1.7278
  609MOL0     H82201  10.140   6.098   9.662 -0.3565 -2.5710 -1.0557
  609MOL0     H82202  10.354   6.055   9.546  2.7329  2.4785 -0.5282
  609MOL0     H82203  10.673   6.083   9.402  1.6223  2.4080 -0.0772
  609MOL0     H82204  10.907   6.043   9.369 -0.0590  0.7460 -0.3323
  609MOL0     H82205  11.098   6.240   9.200 -0.6041  0.0457 -0.7899
  609MOL0     H82206  11.209   6.113   9.223 -2.2521  0.8262  3.2200
  609MOL0     H82207  11.113   6.241   8.965 -1.0492 -0.4077  1.5722
  609MOL0     H82208  11.170   6.090   8.942  0.7338  0.0283 -0.3114
  609MOL0     H82209  11.325   6.291   8.910  2.7776  0.3114 -1.0789
  609MOL0     H82210  11.396   6.137   8.967  0.2343  0.6170 -0.8102
  609MOL0     H82211  11.431   6.245   9.195 -3.4181  0.2841  1.5808
  609MOL0     H82212  11.316   6.372   9.153 -1.3917 -1.2623  0.2448
  609MOL0     H82213  11.692   6.513   9.032 -0.8530  1.6242  0.1056
  609MOL0     H82214  10.884   6.115   8.970  5.2990 -2.8578  3.6513
  609MOL0     H82215  10.646   6.189   8.992  0.8684 -1.6025 -1.4999
  610MOL0     O82216   3.638   8.275   9.205 -0.3939 -0.2238 -0.6499
  610MOL0     C82217   3.653   8.218   9.101 -0.4352 -1.1048 -0.5369
  610MOL0     O82218   3.688   8.285   8.985  0.4133 -0.7481 -0.0592
  610MOL0     C82219   3.723   8.414   8.992 -0.0873 -0.2216  0.3004
  610MOL0     C82220   3.853   8.434   8.952  0.0002 -0.6475  1.0255
  610MOL0     C82221   3.902   8.561   8.947  0.6934 -0.6288 -0.3519
  610MOL0     C82222   3.823   8.675   8.967  0.4767  1.0300  0.4931
  610MOL0     O82223   3.863   8.807   8.943  0.4220  0.0123  0.1946
  610MOL0     C82224   3.939   8.822   8.826 -1.1046  0.4323 -0.5029
  610MOL0     C82225   4.079   8.873   8.871 -0.4594  0.1540  0.8430
  610MOL0     C82226   4.165   8.901   8.746  0.6972 -0.2838 -0.6306
  610MOL0     C82227   4.256   9.019   8.786 -0.8722  0.1481  0.2367
  610MOL0     C82228   4.371   9.026   8.672  0.1613  0.2544 -0.1401
  610MOL0     C82229   4.473   9.131   8.710  0.2868 -0.4427  0.4475
  610MOL0     C82230   4.563   9.178   8.591  0.6564 -0.3681  0.0265
  610MOL0     C82231   4.658   9.291   8.631 -0.3974  0.1217 -0.1803
  610MOL0     N82232   4.596   9.427   8.638  0.5161 -0.1238 -0.1236
  610MOL0     C82233   4.550   9.480   8.754  0.0501  0.7370  0.2025
  610MOL0     C82234   4.544   9.609   8.732  0.4926 -0.6811  0.8498
  610MOL0     C82235   4.494   9.708   8.838 -0.6631  0.1846 -0.1390
  610MOL0     C82236   4.396   9.823   8.784 -0.4295  0.3925  0.6287
  610MOL0     C82237   4.263   9.774   8.738  0.6878 -0.8291  0.4855
  610MOL0     C82238   4.250   9.732   8.585  0.8529 -0.2736  0.0689
  610MOL0     O82239   4.121   9.737   8.520  0.2798  0.3950 -0.4318
  610MOL0     C82240   4.033   9.634   8.539 -1.1820  0.2754 -0.6423
  610MOL0     C82241   4.071   9.504   8.557 -1.7320  0.0409  0.0595
  610MOL0     C82242   3.968   9.413   8.594 -0.2764 -0.1828 -0.2106
  610MOL0     C82243   4.012   9.283   8.655 -0.5521 -1.1985 -0.0454
  610MOL0     C82244   3.832   9.454   8.584 -1.0803  1.3643 -0.5208
  610MOL0     C82245   3.720   9.366   8.612 -0.0918  0.6105  0.6744
  610MOL0     O82246   3.625   9.410   8.698 -0.0963 -0.6197 -0.3560
  610MOL0     C82247   3.516   9.344   8.722  0.6361 -0.2032  0.1502
  610MOL0     C82248   3.524   9.210   8.770 -0.4077 -0.5889  0.2902
  610MOL0     C82249   3.392   9.143   8.785 -0.6817 -0.4488  0.7981
  610MOL0     C82250   3.268   9.212   8.781 -0.7664  0.7607 -0.2637
  610MOL0     O82251   3.158   9.138   8.821 -0.6940 -0.6388 -0.1271
  610MOL0     C82252   3.052   9.218   8.873  0.2740 -0.1197 -0.8509
  610MOL0     C82253   2.973   9.134   8.966 -0.1130  0.0823 -0.1030
  610MOL0     C82254   3.047   9.106   9.098 -0.6626 -0.5194  0.0317
  610MOL0     C82255   3.099   9.217   9.192  0.5158 -0.2210 -0.2143
  610MOL0     C82256   2.979   9.306   9.241  0.7599  0.0564  1.1214
  610MOL0     C82257   2.996   9.353   9.388 -0.4304 -0.3506  0.4941
  610MOL0     C82258   2.884   9.450   9.423  0.2387 -0.6471 -0.7987
  610MOL0     C82259   2.921   9.528   9.539 -0.5519 -0.7172 -0.9055
  610MOL0    Cl82260   2.762   9.585   9.611  0.5408  0.0310 -0.0925
  610MOL0     C82261   3.276   9.345   8.739  0.8503  0.8283  0.2549
  610MOL0     C82262   3.391   9.413   8.721 -0.6764  0.8953 -0.5430
  610MOL0     O82263   3.713   9.252   8.546  0.7344 -0.1237  0.1713
  610MOL0     C82264   3.802   9.585   8.548  0.2637  0.1486 -0.4658
  610MOL0     C82265   3.900   9.671   8.533  0.0955  0.5061  0.1663
  610MOL0     N82266   4.569   9.625   8.595  0.5210 -1.0953  0.1296
  610MOL0     N82267   4.594   9.521   8.539  0.3412  0.1036  0.8862
  610MOL0     C82268   3.697   8.649   9.024 -0.3259  0.5615 -0.0461
  610MOL0     C82269   3.644   8.522   9.042  0.5233  0.5905  0.4939
  610MOL0     C82270   3.629   8.075   9.095 -0.0147 -1.0459  0.5270
  610MOL0     C82271   3.642   7.994   9.208 -0.5214 -0.8982 -0.0907
  610MOL0     C82272   3.642   7.853   9.198 -0.3992  0.0197 -0.3406
  610MOL0     C82273   3.612   7.789   9.073 -0.7211 -0.5089 -0.5074
  610MOL0     O82274   3.632   7.651   9.060  0.1966 -0.0967  0.0129
  610MOL0     C82275   3.541   7.575   9.130 -0.5097 -0.2914  0.0111
  610MOL0     C82276   3.478   7.472   9.040  0.5868 -0.7460 -0.2453
  610MOL0     C82277   3.565   7.354   9.026 -0.2007  0.6625 -0.1291
  610MOL0     C82278   3.545   7.254   9.143  0.6574 -0.0913  0.6844
  610MOL0     C82279   3.408   7.189   9.165 -0.2102 -0.0705  0.2669
  610MOL0     C82280   3.310   7.123   9.178  0.4083  0.9621 -0.1027
  610MOL0     C82281   3.590   7.883   8.967 -0.7841  0.6651  0.1875
  610MOL0     C82282   3.613   8.020   8.972 -0.9617 -0.0925 -0.2769
  610MOL0     H82283   3.918   8.350   8.932 -1.9729 -2.2427  0.9133
  610MOL0     H82284   4.007   8.584   8.934  0.3290  1.0145 -0.6659
  610MOL0     H82285   3.945   8.724   8.777  1.0072  0.0731  0.3727
  610MOL0     H82286   3.897   8.903   8.765 -1.1380 -0.1401 -1.2592
  610MOL0     H82287   4.082   8.964   8.933  2.2640 -0.0312  1.0768
  610MOL0     H82288   4.115   8.796   8.940 -1.7668 -0.8404  0.4607
  610MOL0     H82289   4.233   8.817   8.732  6.3616  2.9391  3.3829
  610MOL0     H82290   4.107   8.933   8.659  0.9085  0.1589 -0.6092
  610MOL0     H82291   4.200   9.113   8.795 -0.1884  0.4816  1.2214
  610MOL0     H82292   4.317   8.993   8.873 -0.8947 -2.7570 -0.5438
  610MOL0     H82293   4.422   8.930   8.659 -1.0713 -0.2701 -1.3988
  610MOL0     H82294   4.334   9.048   8.571  0.4811  0.3951 -0.2271
  610MOL0     H82295   4.411   9.215   8.740 -0.8788 -0.7997 -0.8451
  610MOL0     H82296   4.542   9.099   8.789  1.5585 -1.0560 -0.8440
  610MOL0     H82297   4.613   9.083   8.569 -4.0418 -2.8778 -1.3189
  610MOL0     H82298   4.501   9.204   8.505 -1.1747  1.7839  1.8716
  610MOL0     H82299   4.729   9.300   8.548 -1.4816 -2.2268 -1.4722
  610MOL0     H82300   4.713   9.266   8.722  0.9889 -0.8693 -1.2457
  610MOL0     H82301   4.539   9.430   8.850  2.0519  1.6215  0.9464
  610MOL0     H82302   4.448   9.650   8.918 -0.7940 -2.2444 -1.8367
  610MOL0     H82303   4.589   9.753   8.868 -1.1837  0.2965  1.3846
  610MOL0     H82304   4.440   9.882   8.703 -0.1760 -1.5698 -0.7347
  610MOL0     H82305   4.368   9.892   8.864  3.4029  2.6517  0.2516
  610MOL0     H82306   4.188   9.854   8.742 -1.2281 -2.5854  2.6838
  610MOL0     H82307   4.219   9.700   8.806  0.4492  0.2342  1.5295
  610MOL0     H82308   4.307   9.639   8.571  1.4971  0.1450 -0.1391
  610MOL0     H82309   4.306   9.804   8.524 -0.4386  0.2118 -0.5790
  610MOL0     H82310   4.176   9.481   8.540 -0.5375  4.8495 -0.5779
  610MOL0     H82311   3.941   9.274   8.738 -3.9970  2.7923 -2.1515
  610MOL0     H82312   4.017   9.201   8.583  0.4738 -0.4784 -0.8239
  610MOL0     H82313   4.108   9.294   8.707 -0.0986  1.0195 -1.2388
  610MOL0     H82314   3.616   9.153   8.767 -0.8314 -1.2487 -0.4824
  610MOL0     H82315   3.388   9.035   8.795  1.9724 -0.4577  2.6371
  610MOL0     H82316   3.096   9.309   8.914  1.6441 -1.5043  0.9154
  610MOL0     H82317   2.997   9.251   8.784  0.3593  0.9537 -0.5234
  610MOL0     H82318   2.880   9.184   8.995 -1.4474 -2.3291  0.0282
  610MOL0     H82319   2.954   9.038   8.918  3.3614 -0.6574 -0.2444
  610MOL0     H82320   3.141   9.066   9.058 -0.8985 -0.9999 -0.0486
  610MOL0     H82321   2.998   9.030   9.159 -0.4535  0.4275  1.4267
  610MOL0     H82322   3.168   9.177   9.267 -1.7024 -1.5272  1.2246
  610MOL0     H82323   3.171   9.284   9.144 -0.2315  0.3755 -0.5292
  610MOL0     H82324   2.880   9.260   9.240  0.0574  1.2881 -2.3203
  610MOL0     H82325   2.968   9.390   9.171 -1.2901 -1.0612  0.0106
  610MOL0     H82326   2.985   9.270   9.458 -1.0710 -0.4110  0.3268
  610MOL0     H82327   3.099   9.387   9.400  0.2601 -1.2991 -2.1025
  610MOL0     H82328   2.794   9.392   9.443  0.0469  0.4065  1.6763
  610MOL0     H82329   2.853   9.521   9.346  0.1357  0.3193  0.1299
  610MOL0     H82330   2.985   9.614   9.516  0.2296 -1.2976 -0.9605
  610MOL0     H82331   2.955   9.455   9.614  0.5481 -0.0902 -0.7801
  610MOL0     H82332   3.178   9.393   8.733  0.1699  0.1531  3.8689
  610MOL0     H82333   3.389   9.519   8.698 -1.3602  0.7574 -1.1601
  610MOL0     H82334   3.697   9.607   8.532  0.3285 -1.6510 -5.0377
  610MOL0     H82335   3.870   9.775   8.525 -0.1469  0.4825  0.6899
  610MOL0     H82336   3.648   8.743   9.047  0.9760  1.2290  0.1118
  610MOL0     H82337   3.552   8.500   9.096  0.3600 -4.8621 -1.4000
  610MOL0     H82338   3.661   8.041   9.304 -0.6054 -1.9358  0.4466
  610MOL0     H82339   3.685   7.808   9.287 -2.1921  0.6700  0.9004
  610MOL0     H82340   3.581   7.540   9.225  0.9380  3.1710  0.8130
  610MOL0     H82341   3.454   7.632   9.164  0.7958  0.3136  2.5308
  610MOL0     H82342   3.456   7.516   8.942 -1.1567  0.1723  0.5123
  610MOL0     H82343   3.381   7.452   9.087  0.7732  0.8397  0.9275
  610MOL0     H82344   3.663   7.399   9.009 -1.0416  2.1068 -1.3608
  610MOL0     H82345   3.540   7.294   8.938 -0.5320 -0.5317  0.7455
  610MOL0     H82346   3.590   7.299   9.232  2.4151  0.6884 -0.5414
  610MOL0     H82347   3.617   7.172   9.133  1.3415  0.7392 -2.3626
  610MOL0     H82348   3.239   7.044   9.194  1.7057 -0.0789  0.6813
  610MOL0     H82349   3.574   7.843   8.867 -0.2600  1.5115 -0.2436
  610MOL0     H82350   3.623   8.075   8.879  1.9187 -0.8978 -0.5458
  611MOL0     O82351   4.873   2.478   4.086  0.0813  0.3142 -0.0347
  611MOL0     C82352   4.764   2.497   4.040 -0.5242  0.3681  0.5581
  611MOL0     O82353   4.728   2.613   3.985  0.0674  0.4419 -0.3507
  611MOL0     C82354   4.809   2.718   3.990  0.2481 -0.5921  0.0550
  611MOL0     C82355   4.843   2.775   4.112  0.1219 -0.0241 -1.1335
  611MOL0     C82356   4.937   2.879   4.122  0.2476 -0.6730  0.0604
  611MOL0     C82357   5.023   2.909   4.018  0.0373 -0.2005 -0.0029
  611MOL0     O82358   5.104   3.017   4.021 -0.2984  0.3502  0.2768
  611MOL0     C82359   5.194   3.011   4.137 -0.2500  0.0198  0.5633
  611MOL0     C82360   5.338   3.047   4.085  0.4679  0.7990 -0.4129
  611MOL0     C82361   5.445   2.993   4.179 -1.1114 -0.4934  0.3998
  611MOL0     C82362   5.423   3.010   4.327  0.3330  0.1325 -0.4155
  611MOL0     C82363   5.502   2.913   4.416  0.3306  0.7261  0.8213
  611MOL0     C82364   5.493   2.973   4.556  0.4653 -0.0432 -0.4203
  611MOL0     C82365   5.600   3.082   4.583 -0.1502 -0.2353 -0.0863
  611MOL0     C82366   5.741   3.052   4.535 -0.0501  0.4216 -0.3689
  611MOL0     N82367   5.773   3.076   4.394 -0.4784 -0.0137 -0.3557
  611MOL0     C82368   5.742   3.193   4.322 -0.2316 -0.1312 -0.2740
  611MOL0     C82369   5.797   3.170   4.203 -0.3002 -0.6345  0.1381
  611MOL0     C82370   5.795   3.264   4.082 -0.7454  0.0858 -0.1479
  611MOL0     C82371   5.929   3.341   4.073 -0.1636  0.6598  0.2759
  611MOL0     C82372   5.905   3.459   3.979 -0.5125  0.1943 -0.2264
  611MOL0     C82373   6.023   3.551   3.985 -0.1928  0.0181  0.5415
  611MOL0     O82374   6.014   3.677   3.908 -0.0353 -0.2293  0.1541
  611MOL0     C82375   6.127   3.755   3.906  0.0372 -0.8296  0.2934
  611MOL0     C82376   6.128   3.850   3.813 -0.8380 -0.8688 -0.0346
  611MOL0     C82377   6.238   3.931   3.793  0.5506 -0.8649  0.1365
  611MOL0     C82378   6.232   4.044   3.689 -1.0104 -0.1631  0.0092
  611MOL0     C82379   6.355   3.898   3.857 -0.0083  0.3374 -0.4105
  611MOL0     C82380   6.483   3.959   3.822  0.9704  0.0799  0.3381
  611MOL0     O82381   6.583   3.871   3.781  0.2801 -0.2265 -0.1945
  611MOL0     C82382   6.710   3.909   3.747  0.4817 -0.9225  0.4059
  611MOL0     C82383   6.764   4.024   3.800 -1.0234  0.0318  0.3282
  611MOL0     C82384   6.899   4.069   3.756 -0.2444 -0.1135 -0.4962
  611MOL0     C82385   6.970   4.001   3.652  0.1823 -0.1931  0.3403
  611MOL0     O82386   7.089   4.031   3.602  0.0380  0.1413  0.1402
  611MOL0     C82387   7.156   4.149   3.652 -0.9986 -0.6871  0.4055
  611MOL0     C82388   7.244   4.115   3.779 -0.1953  0.9543  0.6885
  611MOL0     C82389   7.339   3.990   3.756 -0.6905  0.4760  0.2731
  611MOL0     C82390   7.473   4.012   3.839 -0.5546 -0.5444  0.4715
  611MOL0     C82391   7.552   3.880   3.869 -0.6147  0.0908 -0.2293
  611MOL0     C82392   7.699   3.924   3.909 -1.5534 -0.0327  0.6101
  611MOL0     C82393   7.802   3.814   3.932 -1.0351 -0.5424 -0.2356
  611MOL0     C82394   7.777   3.717   4.056  0.4414  0.3406 -0.1439
  611MOL0    Cl82395   7.828   3.774   4.220  0.0952  0.1825 -0.1644
  611MOL0     C82396   6.915   3.881   3.610  0.5215 -0.0455 -0.6496
  611MOL0     C82397   6.783   3.843   3.646 -0.3348  0.1353 -0.8346
  611MOL0     O82398   6.488   4.083   3.818 -0.3986 -0.0539 -0.9597
  611MOL0     C82399   6.356   3.792   3.954  0.4351 -0.0327 -1.2884
  611MOL0     C82400   6.243   3.730   3.974 -0.8713  0.8063  0.6419
  611MOL0     N82401   5.870   3.053   4.213 -0.3444 -0.4195 -0.3752
  611MOL0     N82402   5.860   2.998   4.327 -1.1307  0.6204 -0.7932
  611MOL0     C82403   5.000   2.844   3.899 -0.5377 -0.6596  0.2818
  611MOL0     C82404   4.892   2.750   3.884  0.8181 -0.6569  0.4191
  611MOL0     C82405   4.676   2.380   4.037 -0.5720 -0.6362 -0.6180
  611MOL0     C82406   4.726   2.246   4.053  0.2189  0.2735 -0.7521
  611MOL0     C82407   4.648   2.137   4.069  0.5002 -0.5721  1.0814
  611MOL0     C82408   4.506   2.150   4.052  0.1507  0.4607  0.6146
  611MOL0     O82409   4.434   2.035   4.054  0.0598  0.0245  0.7377
  611MOL0     C82410   4.326   2.035   4.147 -0.0667  0.2831 -0.8993
  611MOL0     C82411   4.354   1.921   4.248  0.2929  0.5328  0.1039
  611MOL0     C82412   4.241   1.821   4.264  0.2783  0.3543 -0.4039
  611MOL0     C82413   4.247   1.749   4.403  0.3055  0.1186 -0.5156
  611MOL0     C82414   4.342   1.651   4.411 -0.2791  0.0672  0.6906
  611MOL0     C82415   4.435   1.567   4.422 -0.3643  0.0965  0.1326
  611MOL0     C82416   4.458   2.279   4.022  0.7048  0.1598  0.1570
  611MOL0     C82417   4.540   2.392   4.013  0.1167  1.3972  0.7880
  611MOL0     H82418   4.802   2.732   4.203 -0.2728 -0.7513 -1.6399
  611MOL0     H82419   4.951   2.927   4.219  0.8099  1.3818 -0.9728
  611MOL0     H82420   5.167   3.079   4.218  0.0737 -2.8291  3.2362
  611MOL0     H82421   5.210   2.914   4.183  2.2152  0.2807  0.3910
  611MOL0     H82422   5.347   2.993   3.991 -1.7043  0.7639 -0.6459
  611MOL0     H82423   5.341   3.156   4.076  0.9336  0.9646  1.3355
  611MOL0     H82424   5.463   2.886   4.166  0.9915 -0.4884  2.5530
  611MOL0     H82425   5.546   3.032   4.160 -1.2034  0.2069  1.2750
  611MOL0     H82426   5.463   3.110   4.348  1.4363 -0.6101  1.2666
  611MOL0     H82427   5.320   3.008   4.361 -0.0141 -1.6462 -1.3956
  611MOL0     H82428   5.467   2.810   4.408  0.7079  0.7043 -4.9576
  611MOL0     H82429   5.603   2.901   4.374  0.3493 -1.3542  1.3638
  611MOL0     H82430   5.397   3.018   4.584  2.0961  3.8744 -0.5311
  611MOL0     H82431   5.509   2.897   4.634  0.8281  3.5193  3.2958
  611MOL0     H82432   5.562   3.177   4.545  1.3402  1.8918  3.2623
  611MOL0     H82433   5.623   3.100   4.689 -1.1681 -1.5015  0.3832
  611MOL0     H82434   5.754   2.946   4.561 -0.1697  0.8833  1.7847
  611MOL0     H82435   5.820   3.107   4.587  1.1133  0.5077 -2.1508
  611MOL0     H82436   5.683   3.276   4.359 -0.9940 -0.5807 -0.4592
  611MOL0     H82437   5.804   3.195   3.997  3.2811 -0.2892  0.3766
  611MOL0     H82438   5.701   3.320   4.082 -0.8219 -0.0423  0.0435
  611MOL0     H82439   6.007   3.277   4.031 -0.0710  0.9960 -0.0633
  611MOL0     H82440   5.957   3.395   4.164 -0.8376 -2.6122  2.6304
  611MOL0     H82441   5.832   3.523   4.031  0.6980  1.4334  0.0003
  611MOL0     H82442   5.876   3.438   3.876  0.1788  0.1798 -0.4154
  611MOL0     H82443   6.109   3.501   3.941 -0.1295  2.1044 -1.9282
  611MOL0     H82444   6.040   3.586   4.088 -1.0757  1.3139  0.2801
  611MOL0     H82445   6.039   3.872   3.754 -1.6287  0.0043  1.4254
  611MOL0     H82446   6.216   4.144   3.729  1.0092  0.2960 -0.2723
  611MOL0     H82447   6.322   4.041   3.628 -1.4736 -0.5043 -0.6814
  611MOL0     H82448   6.146   4.029   3.622 -1.5194  3.3596 -0.2804
  611MOL0     H82449   6.719   4.087   3.876 -2.5139  0.5500 -0.9346
  611MOL0     H82450   6.945   4.154   3.805  0.1623 -1.6347  1.9404
  611MOL0     H82451   7.216   4.188   3.569 -1.0079  1.2256  1.2465
  611MOL0     H82452   7.089   4.229   3.684 -1.1194 -0.8392  0.5381
  611MOL0     H82453   7.297   4.203   3.817  2.4306  0.2456 -1.0664
  611MOL0     H82454   7.172   4.077   3.852 -1.6570 -2.5695 -2.2769
  611MOL0     H82455   7.356   3.980   3.649  0.1193 -0.7070  0.4881
  611MOL0     H82456   7.297   3.895   3.791 -0.1576 -0.1530 -0.7554
  611MOL0     H82457   7.538   4.079   3.782 -2.0111 -0.0426 -0.6572
  611MOL0     H82458   7.461   4.069   3.931 -1.8197  0.7894 -0.4715
  611MOL0     H82459   7.548   3.825   3.775 -1.6067 -0.0878 -0.0966
  611MOL0     H82460   7.508   3.824   3.952 -1.3612  0.7020 -0.2045
  611MOL0     H82461   7.733   4.003   3.842  0.1977  0.4937  2.0405
  611MOL0     H82462   7.687   3.984   3.999  0.3123  1.2317  0.0626
  611MOL0     H82463   7.906   3.847   3.932  0.3557 -4.3933  1.2600
  611MOL0     H82464   7.796   3.745   3.847 -0.4884 -0.7298 -0.1281
  611MOL0     H82465   7.806   3.613   4.036 -1.0120  0.2517 -2.0478
  611MOL0     H82466   7.668   3.721   4.056  0.3712  2.2432 -3.7703
  611MOL0     H82467   6.971   3.813   3.546 -0.6235 -2.1117  0.4435
  611MOL0     H82468   6.741   3.752   3.604 -3.7944  1.7407 -1.1737
  611MOL0     H82469   6.455   3.774   3.996 -1.0598  0.9167  3.1955
  611MOL0     H82470   6.259   3.653   4.049 -3.9439 -0.0359  0.5353
  611MOL0     H82471   5.053   2.868   3.807 -1.1123 -0.2126  0.0657
  611MOL0     H82472   4.880   2.715   3.782  1.2076  2.8148 -0.9460
  611MOL0     H82473   4.835   2.238   4.053  0.1824 -1.1779 -2.9486
  611MOL0     H82474   4.707   2.047   4.076  3.8416  1.1661 -1.6391
  611MOL0     H82475   4.323   2.129   4.203 -1.8580  1.5611 -2.9963
  611MOL0     H82476   4.228   2.014   4.103 -0.2756 -0.6973 -0.0228
  611MOL0     H82477   4.392   1.959   4.343 -0.4517 -2.1691  1.5741
  611MOL0     H82478   4.441   1.869   4.209  0.4760  1.7428 -1.2093
  611MOL0     H82479   4.257   1.747   4.185  1.0990  0.4587 -0.3431
  611MOL0     H82480   4.143   1.868   4.259 -0.2752 -0.7962 -0.7770
  611MOL0     H82481   4.149   1.711   4.431 -0.8220  2.4603 -1.0197
  611MOL0     H82482   4.273   1.822   4.481 -1.4357 -0.1680  0.3954
  611MOL0     H82483   4.525   1.508   4.417 -0.0741  0.4988  0.5321
  611MOL0     H82484   4.352   2.279   4.001  0.5547  0.1825  0.8911
  611MOL0     H82485   4.505   2.483   3.964  2.7890  1.8636 -0.4440
  612MOL0     O82486   5.448  10.847   6.582  0.3995  0.3366  0.3591
  612MOL0     C82487   5.393  10.956   6.569  0.1921 -0.2632 -0.0007
  612MOL0     O82488   5.296  10.994   6.474  0.0203  0.1930 -1.0727
  612MOL0     C82489   5.258  10.911   6.366 -0.4601  1.3866 -0.4140
  612MOL0     C82490   5.121  10.904   6.340  0.3273 -0.1491 -0.6855
  612MOL0     C82491   5.071  10.836   6.231 -0.0727  1.0253 -0.1828
  612MOL0     C82492   5.156  10.777   6.145 -0.9047 -0.0628  0.7233
  612MOL0     O82493   5.112  10.704   6.040  0.0636  0.5435 -0.4367
  612MOL0     C82494   4.983  10.717   5.983 -0.9663  0.6286  0.6404
  612MOL0     C82495   4.995  10.681   5.835 -0.0748  0.4202  0.4789
  612MOL0     C82496   5.041  10.534   5.803  0.6654 -0.4540  0.5942
  612MOL0     C82497   5.025  10.509   5.650 -0.1727  0.3598 -0.0078
  612MOL0     C82498   5.090  10.368   5.615 -0.3899 -0.3326  0.4270
  612MOL0     C82499   5.056  10.325   5.470 -0.4769 -0.6241 -0.5670
  612MOL0     C82500   5.073  10.176   5.462  0.4228 -0.7703  0.9167
  612MOL0     C82501   5.087  10.130   5.326 -0.2002 -0.4798 -0.2235
  612MOL0     N82502   5.158  10.001   5.341  0.5434  0.2709  0.7508
  612MOL0     C82503   5.298   9.990   5.329 -0.9952  0.1204 -0.8408
  612MOL0     C82504   5.321   9.859   5.341 -0.0088 -0.9374  0.1250
  612MOL0     C82505   5.452   9.799   5.333 -0.0991  0.7409  0.8425
  612MOL0     C82506   5.526   9.847   5.205  1.0178  0.2470  1.6863
  612MOL0     C82507   5.652   9.774   5.201  0.1554  0.0190 -0.0385
  612MOL0     C82508   5.741   9.851   5.303 -1.2571 -0.1134  0.6206
  612MOL0     O82509   5.882   9.825   5.278 -1.1568  0.0181 -0.2334
  612MOL0     C82510   5.982   9.896   5.348  1.5061  0.8473  0.1225
  612MOL0     C82511   5.949   9.990   5.447 -0.0171  0.1616  0.6333
  612MOL0     C82512   6.040  10.040   5.538 -0.7368  0.8918  0.4848
  612MOL0     C82513   5.987  10.140   5.644 -0.1298 -0.6466 -0.6287
  612MOL0     C82514   6.174  10.000   5.522 -0.9027  0.5619  0.1147
  612MOL0     C82515   6.279  10.051   5.612 -0.4792  0.6160 -0.7093
  612MOL0     O82516   6.399  10.082   5.555 -0.2020 -0.3920  0.4196
  612MOL0     C82517   6.518  10.105   5.629 -0.0331  0.2281 -0.1285
  612MOL0     C82518   6.544  10.033   5.748 -0.0246 -1.1531  0.6150
  612MOL0     C82519   6.659  10.040   5.827 -0.5036  0.2810  0.3138
  612MOL0     C82520   6.764  10.128   5.777 -0.6572 -0.0762  0.2938
  612MOL0     O82521   6.892  10.152   5.822 -0.2591  0.5240  0.3383
  612MOL0     C82522   6.943  10.110   5.950 -0.7655 -0.7191  0.3753
  612MOL0     C82523   7.092  10.141   5.945  0.1504 -0.1397  0.2194
  612MOL0     C82524   7.145  10.156   6.098  0.7523 -0.5220 -0.4383
  612MOL0     C82525   7.147  10.015   6.168  0.0342  0.2078 -0.4467
  612MOL0     C82526   7.230  10.011   6.302  1.0109  0.2701  0.3587
  612MOL0     C82527   7.252   9.871   6.359 -0.3061  0.2395  0.4735
  612MOL0     C82528   7.124   9.793   6.403  0.4163  0.6615  0.6647
  612MOL0     C82529   7.148   9.658   6.435  0.3920 -0.7696 -0.6066
  612MOL0    Cl82530   6.997   9.553   6.399 -0.1403 -0.5553  0.1984
  612MOL0     C82531   6.737  10.193   5.649  0.5596  0.8307 -0.0294
  612MOL0     C82532   6.616  10.176   5.572  0.7293  0.4760 -0.1802
  612MOL0     O82533   6.257  10.041   5.735 -0.0815 -0.5098  0.0065
  612MOL0     C82534   6.209   9.908   5.422  0.1600 -0.5589  0.0924
  612MOL0     C82535   6.115   9.858   5.335 -0.2306 -0.0678 -0.2710
  612MOL0     N82536   5.203   9.796   5.370 -0.1058  0.1968 -0.1465
  612MOL0     N82537   5.107   9.879   5.375 -0.2158 -0.0569 -0.0662
  612MOL0     C82538   5.297  10.774   6.171 -0.3704  0.3631 -0.7662
  612MOL0     C82539   5.344  10.850   6.280 -0.1579 -0.3461  0.4361
  612MOL0     C82540   5.444  11.060   6.660 -0.0814 -0.8874 -0.0343
  612MOL0     C82541   5.352  11.123   6.747  0.0609  0.1276  0.5378
  612MOL0     C82542   5.396  11.220   6.835  0.1787 -0.5216  0.5456
  612MOL0     C82543   5.528  11.239   6.858 -0.3266 -0.0198  0.5072
  612MOL0     O82544   5.587  11.319   6.955 -0.0379  0.6384  0.0277
  612MOL0     C82545   5.503  11.408   7.014  0.8431  0.1725  0.4148
  612MOL0     C82546   5.593  11.509   7.076 -0.7819  0.2389  0.4295
  612MOL0     C82547   5.555  11.533   7.228 -0.3198 -0.3635 -0.2087
  612MOL0     C82548   5.674  11.611   7.302  0.7375  1.6754  0.2684
  612MOL0     C82549   5.716  11.735   7.237 -0.0168 -0.0967 -0.0688
  612MOL0     C82550   5.757  11.844   7.198 -0.2205 -0.3792  0.0484
  612MOL0     C82551   5.617  11.190   6.763 -0.0920 -0.1023 -0.1637
  612MOL0     C82552   5.582  11.095   6.664  0.1609  0.1328  0.9616
  612MOL0     H82553   5.055  10.953   6.410  2.3006 -0.7231  1.7239
  612MOL0     H82554   4.964  10.828   6.214  0.2289 -0.8579 -1.4988
  612MOL0     H82555   4.910  10.655   6.035  0.6051 -1.1365  0.8378
  612MOL0     H82556   4.951  10.821   5.993  1.4272  1.4524  0.3253
  612MOL0     H82557   4.897  10.706   5.794  0.8109  4.0047  0.1936
  612MOL0     H82558   5.063  10.757   5.796 -0.8238  1.3717  0.9913
  612MOL0     H82559   5.140  10.516   5.846 -0.2981  0.1364  3.2591
  612MOL0     H82560   4.972  10.460   5.843  2.0450 -2.3478 -0.3789
  612MOL0     H82561   4.919  10.496   5.628 -0.5860  2.7965  0.2030
  612MOL0     H82562   5.068  10.589   5.588  1.0659 -0.3659 -0.1262
  612MOL0     H82563   5.199  10.356   5.623 -0.1189  0.5543 -1.2526
  612MOL0     H82564   5.040  10.297   5.681 -0.6957 -0.1978  0.3407
  612MOL0     H82565   4.959  10.362   5.437 -0.4483  0.1071  0.1318
  612MOL0     H82566   5.127  10.378   5.405  1.9268 -1.6235  1.1042
  612MOL0     H82567   5.164  10.158   5.520  1.7393  0.3544 -0.7002
  612MOL0     H82568   4.987  10.133   5.514 -0.8555  0.6092  0.0329
  612MOL0     H82569   5.146  10.201   5.267 -3.5940 -0.4221 -3.9999
  612MOL0     H82570   4.988  10.124   5.280 -0.7582 -0.6335  0.9596
  612MOL0     H82571   5.374  10.067   5.329 -1.4914  0.7886  2.7297
  612MOL0     H82572   5.518   9.820   5.417  1.0247 -1.5890  0.6336
  612MOL0     H82573   5.440   9.690   5.329  2.6969  0.2796 -4.9709
  612MOL0     H82574   5.544   9.955   5.197  0.5113  0.2240 -0.0209
  612MOL0     H82575   5.473   9.830   5.111  4.9677 -4.1875 -0.1576
  612MOL0     H82576   5.698   9.781   5.102  2.1096 -2.3645  0.6148
  612MOL0     H82577   5.636   9.667   5.214  0.1840  0.2018  1.7746
  612MOL0     H82578   5.718   9.829   5.408 -4.4584  1.0269  0.2565
  612MOL0     H82579   5.718   9.957   5.292 -0.8028 -0.1892 -1.2716
  612MOL0     H82580   5.850  10.032   5.457  0.0164  0.1248  1.1482
  612MOL0     H82581   6.063  10.208   5.683 -3.6664  4.0987 -1.1547
  612MOL0     H82582   5.910  10.206   5.604 -0.4092 -0.9199 -0.5397
  612MOL0     H82583   5.939  10.092   5.729  0.1680  0.4847  0.2055
  612MOL0     H82584   6.472   9.964   5.792 -1.1969 -0.9078 -0.8432
  612MOL0     H82585   6.672   9.986   5.920  0.9432  1.1909  0.6763
  612MOL0     H82586   6.899  10.175   6.027 -1.0462  0.8193 -1.0275
  612MOL0     H82587   6.931  10.002   5.965 -0.1989 -0.8590 -0.1846
  612MOL0     H82588   7.143  10.054   5.902 -1.9945 -2.5202  2.1435
  612MOL0     H82589   7.113  10.238   5.899  1.1763 -1.8559 -3.2542
  612MOL0     H82590   7.082  10.226   6.153  0.8047 -0.3955 -0.5361
  612MOL0     H82591   7.243  10.205   6.096  1.8005 -2.4206  1.1393
  612MOL0     H82592   7.047   9.975   6.189 -1.1940  3.3324  0.2171
  612MOL0     H82593   7.204   9.956   6.096  1.9865  3.3395 -1.6363
  612MOL0     H82594   7.191  10.074   6.381 -0.1119 -0.4108  0.3680
  612MOL0     H82595   7.332  10.046   6.284  2.2394 -2.9994  0.1302
  612MOL0     H82596   7.321   9.813   6.297  0.0866 -0.4397  1.5268
  612MOL0     H82597   7.303   9.890   6.454 -2.0757 -2.0424  1.9798
  612MOL0     H82598   7.054   9.801   6.319 -0.7880 -0.5501  1.5137
  612MOL0     H82599   7.081   9.845   6.489 -2.2596  1.7036 -1.1635
  612MOL0     H82600   7.169   9.662   6.543  1.6977  0.4002 -0.8662
  612MOL0     H82601   7.231   9.615   6.378 -0.3462 -0.8970 -1.5978
  612MOL0     H82602   6.824  10.234   5.598  0.2676 -1.5836 -2.6697
  612MOL0     H82603   6.607  10.217   5.472  1.1430  1.2910  0.1136
  612MOL0     H82604   6.310   9.880   5.395 -0.0153 -1.5689  0.4438
  612MOL0     H82605   6.137   9.795   5.250  2.2993  1.3427 -0.7581
  612MOL0     H82606   5.364  10.722   6.104  3.3795  2.3582  1.1163
  612MOL0     H82607   5.450  10.848   6.302  0.8846 -0.1738 -3.6449
  612MOL0     H82608   5.246  11.101   6.737  0.0616 -1.2000  2.7724
  612MOL0     H82609   5.310  11.267   6.882 -1.4158 -3.8324  1.2144
  612MOL0     H82610   5.442  11.458   6.938  0.4910 -1.0903 -0.1698
  612MOL0     H82611   5.444  11.356   7.090 -0.0815  1.0208  0.3062
  612MOL0     H82612   5.570  11.600   7.021 -3.2289  1.2564  2.9025
  612MOL0     H82613   5.697  11.482   7.058 -1.7593 -3.1358 -1.0457
  612MOL0     H82614   5.550  11.435   7.277  2.1847  0.0595  1.0650
  612MOL0     H82615   5.459  11.582   7.244 -0.0629 -0.3528  1.4689
  612MOL0     H82616   5.758  11.543   7.322  0.9112  1.3623 -1.3764
  612MOL0     H82617   5.623  11.634   7.396 -1.5943 -1.2069 -0.1498
  612MOL0     H82618   5.782  11.939   7.155 -0.8348  0.3094  1.1842
  612MOL0     H82619   5.716  11.232   6.749  0.1472 -0.9485 -1.1733
  612MOL0     H82620   5.655  11.051   6.597  1.2084  0.8453  1.6048
  613MOL0     O82621   6.366   8.994   8.440 -0.2947 -0.6858 -0.9428
  613MOL0     C82622   6.249   9.028   8.469 -0.3173 -0.0026  0.2803
  613MOL0     O82623   6.205   9.155   8.469 -0.0069 -0.0929  0.7368
  613MOL0     C82624   6.288   9.253   8.444  0.3421  0.3630  0.0272
  613MOL0     C82625   6.306   9.277   8.312 -0.0734 -1.1372  0.3949
  613MOL0     C82626   6.382   9.388   8.269  0.7135 -0.2835 -0.6066
  613MOL0     C82627   6.445   9.466   8.362 -1.0038  0.8792 -0.1019
  613MOL0     O82628   6.516   9.568   8.311  0.1434  0.6450 -0.0293
  613MOL0     C82629   6.636   9.601   8.380  0.5403 -0.1838 -0.2585
  613MOL0     C82630   6.646   9.750   8.383  1.2751  0.1417 -0.2710
  613MOL0     C82631   6.653   9.815   8.247  0.2738 -0.7262 -0.7946
  613MOL0     C82632   6.795   9.796   8.181  0.6018  0.2361  0.7498
  613MOL0     C82633   6.818   9.850   8.043 -0.0676 -0.5497  1.1751
  613MOL0     C82634   6.723   9.799   7.932 -0.8180 -0.9622 -1.0251
  613MOL0     C82635   6.599   9.888   7.916 -1.1989  0.4822  0.1667
  613MOL0     C82636   6.511   9.809   7.828 -0.6944  1.2079 -0.0269
  613MOL0     N82637   6.543   9.836   7.689  0.3953  0.3316  0.3872
  613MOL0     C82638   6.555   9.945   7.619 -0.3698  0.0595 -0.7937
  613MOL0     C82639   6.605   9.913   7.497  0.4744  0.3356  0.6092
  613MOL0     C82640   6.611  10.019   7.384  0.1519  0.0320 -0.2612
  613MOL0     C82641   6.715   9.996   7.277 -0.5740 -0.9798 -1.1074
  613MOL0     C82642   6.851   9.990   7.338  0.9378  0.3445 -0.4688
  613MOL0     C82643   6.960   9.951   7.238 -0.3354  0.1210  0.0259
  613MOL0     O82644   6.918   9.824   7.176  0.2007 -0.1981 -0.1082
  613MOL0     C82645   6.990   9.720   7.211 -0.4685 -0.0112  0.1530
  613MOL0     C82646   6.960   9.645   7.329  1.1199  0.4453  0.7533
  613MOL0     C82647   7.026   9.525   7.355  0.4962  0.2183 -0.5222
  613MOL0     C82648   7.010   9.456   7.490 -0.9997  0.1084  0.6635
  613MOL0     C82649   7.119   9.474   7.261  0.6653  0.3691 -0.6005
  613MOL0     C82650   7.205   9.349   7.287 -0.0191  0.3099 -0.4873
  613MOL0     O82651   7.175   9.254   7.386 -0.1543  0.3166  0.4299
  613MOL0     C82652   7.275   9.176   7.433 -1.2916 -0.0608  1.1590
  613MOL0     C82653   7.239   9.052   7.466  0.9065 -0.4593 -0.6237
  613MOL0     C82654   7.328   8.964   7.521  0.6387  0.0096  0.0870
  613MOL0     C82655   7.458   8.995   7.538  0.0312 -0.1028 -0.3423
  613MOL0     O82656   7.546   8.911   7.603  0.5783 -0.3705  0.1443
  613MOL0     C82657   7.681   8.916   7.550  0.0420  0.3521 -0.7093
  613MOL0     C82658   7.771   8.813   7.621  0.2029 -0.4152 -0.0594
  613MOL0     C82659   7.717   8.677   7.574  0.1463  0.5127 -0.1553
  613MOL0     C82660   7.808   8.564   7.618  0.0445  0.1456  0.4454
  613MOL0     C82661   7.778   8.429   7.552 -0.4615 -0.2487 -0.9181
  613MOL0     C82662   7.662   8.369   7.628  0.3756 -0.2418 -0.1571
  613MOL0     C82663   7.631   8.231   7.559 -0.7121  0.1071  0.3664
  613MOL0     C82664   7.482   8.190   7.572  0.8316  0.5652  0.2212
  613MOL0    Cl82665   7.459   8.096   7.727 -0.7246  0.2296 -0.0203
  613MOL0     C82666   7.501   9.132   7.502 -1.0627 -0.0790 -0.2153
  613MOL0     C82667   7.406   9.214   7.450  0.2360  0.3550 -0.1471
  613MOL0     O82668   7.300   9.344   7.215  0.3083  0.4013 -0.1977
  613MOL0     C82669   7.141   9.546   7.143 -0.1746  0.4709 -0.0253
  613MOL0     C82670   7.076   9.659   7.114  1.0253 -0.4974 -0.0653
  613MOL0     N82671   6.610   9.775   7.492 -0.1812  0.5386 -1.2205
  613MOL0     N82672   6.564   9.732   7.601  0.4582  0.1119 -0.6043
  613MOL0     C82673   6.430   9.431   8.493 -0.2590  0.2399 -0.2285
  613MOL0     C82674   6.364   9.318   8.540  0.5792 -0.0429 -0.5016
  613MOL0     C82675   6.155   8.915   8.499  0.2548  0.6200  0.2897
  613MOL0     C82676   6.171   8.785   8.448 -0.0796 -0.3711  0.3345
  613MOL0     C82677   6.088   8.679   8.484  0.1895 -0.5210  0.1799
  613MOL0     C82678   5.984   8.687   8.574  0.2780 -0.7948 -0.1911
  613MOL0     O82679   5.914   8.577   8.606 -0.3433  0.8958  0.3675
  613MOL0     C82680   5.794   8.594   8.682  0.2653 -0.2859 -0.0910
  613MOL0     C82681   5.741   8.467   8.736 -0.0547 -0.6317 -0.2349
  613MOL0     C82682   5.679   8.367   8.636  0.0824  0.1639 -0.4917
  613MOL0     C82683   5.696   8.223   8.675 -0.2196  0.0463 -0.4462
  613MOL0     C82684   5.814   8.153   8.633 -0.2348  0.3771  0.2250
  613MOL0     C82685   5.919   8.094   8.612 -0.4674 -1.0035 -0.6081
  613MOL0     C82686   5.951   8.823   8.611  0.7470  0.3279 -0.4779
  613MOL0     C82687   6.036   8.934   8.578  0.3063 -0.1132  0.0856
  613MOL0     H82688   6.240   9.217   8.250  1.0103 -1.6436 -0.3004
  613MOL0     H82689   6.396   9.413   8.164  4.0350 -2.8988 -0.9530
  613MOL0     H82690   6.664   9.556   8.476  5.2586 -0.9896 -1.7178
  613MOL0     H82691   6.705   9.555   8.308 -0.5999  0.3504 -1.7301
  613MOL0     H82692   6.576   9.792   8.456  1.0575 -0.2818 -0.2352
  613MOL0     H82693   6.735   9.780   8.440 -0.4375  2.1327  1.5439
  613MOL0     H82694   6.575   9.769   8.185 -1.6027  0.5800  0.4537
  613MOL0     H82695   6.620   9.919   8.238 -0.4297 -0.9770 -1.2245
  613MOL0     H82696   6.864   9.855   8.241  0.6121  2.1732 -1.0590
  613MOL0     H82697   6.822   9.690   8.185  0.5227  0.2430  1.7754
  613MOL0     H82698   6.813   9.959   8.051 -0.4836 -0.6210  2.0568
  613MOL0     H82699   6.920   9.824   8.014  0.0984  1.1117  0.1203
  613MOL0     H82700   6.772   9.796   7.835 -2.6858 -0.3875 -2.0419
  613MOL0     H82701   6.690   9.699   7.962 -2.8438  0.7450  3.3147
  613MOL0     H82702   6.547   9.903   8.011 -0.3279  0.7748  0.6096
  613MOL0     H82703   6.621   9.990   7.884  0.6706  0.5437  1.4203
  613MOL0     H82704   6.410   9.851   7.843  0.1641  2.8519  1.6476
  613MOL0     H82705   6.507   9.703   7.855  1.6467  0.9618 -0.5250
  613MOL0     H82706   6.556  10.052   7.640 -1.7517  0.1947 -1.3520
  613MOL0     H82707   6.522  10.037   7.324  1.0813  1.4572 -1.2706
  613MOL0     H82708   6.630  10.120   7.421 -0.2197  1.2723 -3.2065
  613MOL0     H82709   6.714  10.071   7.197  1.9198  0.2078 -0.1228
  613MOL0     H82710   6.695   9.897   7.235  0.1479 -1.0470 -1.3037
  613MOL0     H82711   6.854   9.917   7.421 -0.3784 -0.4078 -1.0551
  613MOL0     H82712   6.870  10.088   7.383 -2.0272  0.8426 -0.1404
  613MOL0     H82713   7.049   9.939   7.300 -1.2307  0.0240  1.3207
  613MOL0     H82714   6.973  10.034   7.168 -1.2758 -0.3253 -0.7039
  613MOL0     H82715   6.884   9.676   7.400  2.1364  0.2365  1.9736
  613MOL0     H82716   7.108   9.446   7.538 -1.0177 -1.7212  0.3891
  613MOL0     H82717   6.945   9.510   7.559 -2.0837  0.2525 -0.4419
  613MOL0     H82718   6.972   9.354   7.487  1.3142 -0.7938  0.0026
  613MOL0     H82719   7.136   9.021   7.455 -0.5136  2.7748  1.8966
  613MOL0     H82720   7.306   8.861   7.551  3.3362 -1.1631 -1.5667
  613MOL0     H82721   7.667   8.907   7.442 -1.3329  2.1643 -0.7351
  613MOL0     H82722   7.736   9.009   7.571  4.3884 -2.2216  0.6833
  613MOL0     H82723   7.877   8.827   7.598  1.9406 -0.0318  6.2525
  613MOL0     H82724   7.763   8.832   7.729  0.5320  0.0561 -0.1155
  613MOL0     H82725   7.706   8.683   7.466 -0.2067 -0.6591 -0.2014
  613MOL0     H82726   7.620   8.659   7.623 -0.6587 -1.2681 -2.2282
  613MOL0     H82727   7.913   8.588   7.600  0.4949 -0.9144  1.4679
  613MOL0     H82728   7.799   8.561   7.727  1.2522 -0.4477  0.5545
  613MOL0     H82729   7.855   8.353   7.558 -2.8059 -3.0711 -3.2212
  613MOL0     H82730   7.759   8.451   7.446  0.6312  2.8085 -0.5791
  613MOL0     H82731   7.689   8.351   7.732  1.5541  2.1511  0.0079
  613MOL0     H82732   7.579   8.438   7.612 -0.1233 -0.7021  0.3943
  613MOL0     H82733   7.699   8.149   7.584 -0.2109 -0.9800 -3.7820
  613MOL0     H82734   7.634   8.247   7.451 -0.2421 -0.9274  0.2154
  613MOL0     H82735   7.459   8.135   7.480  2.8086 -2.1044  1.1826
  613MOL0     H82736   7.421   8.280   7.575 -1.3255 -0.8496  1.5753
  613MOL0     H82737   7.603   9.163   7.520 -1.0890 -0.9130  1.6480
  613MOL0     H82738   7.436   9.315   7.422  2.3316  1.4083  4.8914
  613MOL0     H82739   7.206   9.502   7.068  1.1970  1.8137  0.3359
  613MOL0     H82740   7.091   9.713   7.021 -1.9444  2.2076  0.8370
  613MOL0     H82741   6.488   9.484   8.569  2.9906  0.2059 -2.4614
  613MOL0     H82742   6.358   9.296   8.647 -1.6679  4.1559  0.4526
  613MOL0     H82743   6.253   8.766   8.380 -0.8318 -0.0725 -0.6848
  613MOL0     H82744   6.109   8.586   8.431  0.3105 -0.2620 -0.2258
  613MOL0     H82745   5.805   8.661   8.768  0.1288 -1.6991  1.0593
  613MOL0     H82746   5.728   8.640   8.608  0.9787  0.0634 -0.5204
  613MOL0     H82747   5.672   8.490   8.818  2.2100 -1.4173  2.0108
  613MOL0     H82748   5.833   8.427   8.778  0.0326 -0.3766 -0.1843
  613MOL0     H82749   5.712   8.397   8.536 -2.3841 -0.7510 -1.6848
  613MOL0     H82750   5.570   8.379   8.638 -0.4973 -3.4737  3.1970
  613MOL0     H82751   5.612   8.169   8.628  1.4346 -1.1036 -2.2593
  613MOL0     H82752   5.684   8.211   8.783 -0.0452 -0.2158 -0.4525
  613MOL0     H82753   6.010   8.039   8.597  1.3707  2.1328 -1.8781
  613MOL0     H82754   5.861   8.841   8.668  0.3772  0.7140 -1.1779
  613MOL0     H82755   5.997   9.026   8.620 -3.7715 -2.0956  1.1749
  614MOL0     O82756   3.412  11.126   0.262  0.5642  0.0183  0.0368
  614MOL0     C82757   3.504  11.210   0.240  0.6664  0.9012 -0.7042
  614MOL0     O82758   3.632  11.192   0.257  0.2142  0.0074 -0.1991
  614MOL0     C82759   3.673  11.103   0.355 -0.1118  0.4891 -0.2968
  614MOL0     C82760   3.763  11.003   0.315 -0.1571 -0.0162  0.1740
  614MOL0     C82761   3.798  10.898   0.398  0.0083  0.6238 -1.8984
  614MOL0     C82762   3.744  10.892   0.528  0.9164  0.7736 -0.0701
  614MOL0     O82763   3.766  10.795   0.616  0.1877  0.4345 -0.6246
  614MOL0     C82764   3.884  10.724   0.599 -0.4956  0.0244  0.7751
  614MOL0     C82765   3.931  10.659   0.724 -0.5836 -0.0454  0.1453
  614MOL0     C82766   4.072  10.590   0.723  0.0656  0.8472  0.5688
  614MOL0     C82767   4.126  10.562   0.866 -0.2598  0.4737 -0.0349
  614MOL0     C82768   4.251  10.484   0.865 -0.4016 -0.0335 -0.0397
  614MOL0     C82769   4.314  10.483   1.006  0.3700  0.5062  0.5033
  614MOL0     C82770   4.265  10.375   1.109  0.0559  0.4627  0.1703
  614MOL0     C82771   4.338  10.389   1.243  0.1434  0.1156  0.0227
  614MOL0     N82772   4.486  10.386   1.228  0.0745 -0.5713  0.7522
  614MOL0     C82773   4.557  10.277   1.236  0.6057  0.6941  0.9704
  614MOL0     C82774   4.683  10.320   1.229 -0.0543 -0.6631  0.3311
  614MOL0     C82775   4.814  10.246   1.248  0.4057  0.3362  0.4272
  614MOL0     C82776   4.812  10.097   1.202  0.0587 -0.1725 -0.1455
  614MOL0     C82777   4.783  10.068   1.054  0.3789  0.1485  1.0864
  614MOL0     C82778   4.727   9.929   1.023 -0.3777 -1.0396  0.0913
  614MOL0     O82779   4.593   9.921   1.063  0.1465 -0.6671 -0.5944
  614MOL0     C82780   4.485   9.946   0.975 -0.6777 -0.1174  0.3049
  614MOL0     C82781   4.488   9.958   0.833  0.2255  0.8031  0.4607
  614MOL0     C82782   4.373  10.006   0.767 -1.0266  0.0990 -0.1621
  614MOL0     C82783   4.402  10.016   0.620 -0.1262 -0.1356 -0.0951
  614MOL0     C82784   4.254  10.030   0.839 -1.1241  0.0421  0.8105
  614MOL0     C82785   4.130  10.076   0.767  0.2115  0.4971 -0.4183
  614MOL0     O82786   4.137  10.139   0.642 -0.0902 -0.1646  0.4902
  614MOL0     C82787   4.027  10.162   0.572  0.3422  0.3471  0.3654
  614MOL0     C82788   3.916  10.229   0.628  0.2600 -0.4205 -0.6893
  614MOL0     C82789   3.802  10.245   0.546 -0.9256 -0.8968 -0.5852
  614MOL0     C82790   3.807  10.213   0.412 -0.1605  0.0447 -0.0809
  614MOL0     O82791   3.694  10.254   0.334 -0.2792 -0.0433  0.1995
  614MOL0     C82792   3.721  10.316   0.203 -0.3816  0.4574  0.0562
  614MOL0     C82793   3.814  10.439   0.205  0.0140  0.5250 -0.3676
  614MOL0     C82794   3.910  10.460   0.086 -0.8716 -0.2028 -0.7981
  614MOL0     C82795   3.833  10.532  -0.016 -0.8534  0.5198  0.0818
  614MOL0     C82796   3.934  10.577  -0.125  0.6707 -0.2720 -0.1378
  614MOL0     C82797   3.876  10.658  -0.237 -0.2149  0.0553  0.0575
  614MOL0     C82798   3.856  10.807  -0.212 -0.7544  0.1208  0.0892
  614MOL0     C82799   3.828  10.900  -0.336 -0.1970 -0.9695 -0.9355
  614MOL0    Cl82800   3.666  10.846  -0.401 -0.0797  0.0263 -0.6989
  614MOL0     C82801   3.922  10.156   0.362  0.5669  0.4006 -0.0109
  614MOL0     C82802   4.034  10.133   0.440  1.3517  0.3118  0.1501
  614MOL0     O82803   4.021  10.041   0.819 -0.4749  0.5079  0.5013
  614MOL0     C82804   4.252  10.005   0.967  0.0715  0.1722 -0.3346
  614MOL0     C82805   4.362   9.961   1.043 -0.3197  0.3265 -0.4817
  614MOL0     N82806   4.686  10.457   1.221  0.0693  0.7790  0.2663
  614MOL0     N82807   4.571  10.489   1.209  0.9679 -0.9302  0.0750
  614MOL0     C82808   3.674  10.998   0.570  0.3238  0.3836 -0.2797
  614MOL0     C82809   3.643  11.104   0.488 -0.3248 -0.9775  0.0271
  614MOL0     C82810   3.463  11.332   0.169  1.2409 -0.6372  0.0552
  614MOL0     C82811   3.553  11.427   0.127  0.4473  0.3036  0.7256
  614MOL0     C82812   3.506  11.534   0.045  0.1762  0.0570 -0.2347
  614MOL0     C82813   3.374  11.557   0.012 -0.0614 -0.1739 -0.0096
  614MOL0     O82814   3.343  11.677  -0.050 -0.1294  0.2907 -0.0487
  614MOL0     C82815   3.205  11.710  -0.070 -0.2776  0.2467 -0.0690
  614MOL0     C82816   3.130  11.625  -0.179 -0.2151  0.0801 -0.6390
  614MOL0     C82817   2.986  11.685  -0.197  0.8234 -0.0838  0.6469
  614MOL0     C82818   2.869  11.575  -0.180 -0.0149  0.0316  0.4026
  614MOL0     C82819   2.737  11.627  -0.209  0.1798 -0.0450 -0.4157
  614MOL0     C82820   2.633  11.697  -0.211 -0.7471  0.7534  0.3708
  614MOL0     C82821   3.283  11.474   0.071 -0.3537  1.2563  0.5560
  614MOL0     C82822   3.325  11.367   0.145 -0.3574  0.1735 -0.0548
  614MOL0     H82823   3.799  10.998   0.212  0.6261 -1.7477  0.4930
  614MOL0     H82824   3.856  10.814   0.359 -3.2456 -2.7644 -0.1030
  614MOL0     H82825   3.868  10.640   0.531 -2.6640 -1.3653  2.8411
  614MOL0     H82826   3.959  10.789   0.554 -2.7002  3.4458  1.6486
  614MOL0     H82827   3.945  10.739   0.797  0.8181  1.1511 -1.3329
  614MOL0     H82828   3.853  10.595   0.765 -2.2713  1.3468 -0.7656
  614MOL0     H82829   4.049  10.493   0.679  0.7487  1.2507 -0.7354
  614MOL0     H82830   4.146  10.645   0.663 -0.9099 -1.0269 -2.5737
  614MOL0     H82831   4.127  10.660   0.914 -0.3649  0.1560  0.6240
  614MOL0     H82832   4.046  10.515   0.925 -1.6578  1.2826 -1.2148
  614MOL0     H82833   4.232  10.386   0.821 -0.8340  1.6510 -3.9694
  614MOL0     H82834   4.302  10.539   0.786 -3.2097 -2.0055 -3.5371
  614MOL0     H82835   4.420  10.470   0.984  0.2663  0.8601 -0.2680
  614MOL0     H82836   4.297  10.581   1.051 -0.8547 -0.4577  2.2478
  614MOL0     H82837   4.157  10.383   1.126  0.2607  2.9031  0.6516
  614MOL0     H82838   4.292  10.280   1.062 -0.1952  1.0335 -1.1786
  614MOL0     H82839   4.319  10.302   1.307  1.5203  1.0158  1.7514
  614MOL0     H82840   4.295  10.473   1.299  0.8251  1.9462 -2.0681
  614MOL0     H82841   4.527  10.175   1.256  3.2632 -0.6182 -1.1321
  614MOL0     H82842   4.889  10.302   1.192  3.3856 -3.7648 -0.0810
  614MOL0     H82843   4.837  10.249   1.354  0.2957 -2.0498  0.5709
  614MOL0     H82844   4.725  10.059   1.255 -1.6859  2.4282 -0.9191
  614MOL0     H82845   4.902  10.044   1.233  0.3719  0.7406  0.5416
  614MOL0     H82846   4.876  10.077   0.996 -0.2793 -1.2824 -0.2671
  614MOL0     H82847   4.718  10.150   1.021 -1.5039 -2.4776 -2.3994
  614MOL0     H82848   4.795   9.869   1.084  1.2944 -0.5187 -1.1824
  614MOL0     H82849   4.740   9.904   0.917  1.7119 -2.9243  0.7193
  614MOL0     H82850   4.583   9.954   0.780  1.3872 -2.4851  2.4584
  614MOL0     H82851   4.409  10.116   0.576 -1.3902  0.8667  1.8490
  614MOL0     H82852   4.503   9.978   0.598  0.6731  0.3253  2.4596
  614MOL0     H82853   4.329   9.958   0.562  0.9183  0.7012 -2.3552
  614MOL0     H82854   3.901  10.251   0.733 -1.4505 -2.6326 -0.3944
  614MOL0     H82855   3.716  10.306   0.573  0.1634  1.0922 -1.3833
  614MOL0     H82856   3.759  10.243   0.131  2.4484  1.5137  0.3137
  614MOL0     H82857   3.622  10.351   0.174  0.4523  4.2324  1.1343
  614MOL0     H82858   3.762  10.535   0.198  3.7553  2.6757 -4.8460
  614MOL0     H82859   3.873  10.443   0.297  2.1995 -0.9490 -1.6208
  614MOL0     H82860   3.962  10.373   0.046 -0.0078  0.6221 -1.5229
  614MOL0     H82861   3.986  10.527   0.126 -1.8174  0.7106 -0.4784
  614MOL0     H82862   3.748  10.475  -0.053 -2.2892  1.3897  1.8896
  614MOL0     H82863   3.801  10.626   0.028 -0.1457 -0.8498  3.8743
  614MOL0     H82864   3.978  10.491  -0.177  1.6783  0.0525  0.1572
  614MOL0     H82865   4.018  10.631  -0.079 -1.5214  4.2924 -1.0145
  614MOL0     H82866   3.938  10.661  -0.327 -0.4695 -0.7159 -0.1444
  614MOL0     H82867   3.777  10.616  -0.255  0.2698 -2.5650  2.7451
  614MOL0     H82868   3.952  10.844  -0.175 -0.4514  0.3220 -0.8537
  614MOL0     H82869   3.773  10.825  -0.143 -3.2408  2.3519 -3.1495
  614MOL0     H82870   3.912  10.911  -0.406 -1.1958  1.4702 -1.8262
  614MOL0     H82871   3.807  10.995  -0.287 -0.2274 -1.0834 -0.7242
  614MOL0     H82872   3.923  10.126   0.258 -0.5952  2.6142 -0.7188
  614MOL0     H82873   4.116  10.074   0.402  0.2588 -1.2480  0.1079
  614MOL0     H82874   4.163   9.997   1.027  0.9719  0.7085  1.1287
  614MOL0     H82875   4.355   9.941   1.149 -2.4814  1.0022 -0.4514
  614MOL0     H82876   3.634  10.991   0.671 -2.0486 -0.6785 -1.2269
  614MOL0     H82877   3.595  11.195   0.522 -2.6700 -2.3959  0.7636
  614MOL0     H82878   3.662  11.431   0.129  0.5216  1.8997 -1.4147
  614MOL0     H82879   3.579  11.592  -0.011 -2.6395  0.3266 -4.0009
  614MOL0     H82880   3.159  11.717   0.029 -2.0334  0.6050 -0.8689
  614MOL0     H82881   3.191  11.813  -0.103  0.4706 -0.5229 -3.1225
  614MOL0     H82882   3.134  11.516  -0.167  0.1570  0.1739  0.1562
  614MOL0     H82883   3.184  11.646  -0.272 -0.4562 -0.1116 -0.8237
  614MOL0     H82884   2.972  11.757  -0.278 -1.6865 -0.2675  0.8380
  614MOL0     H82885   2.965  11.744  -0.107 -0.2586 -0.7947  0.8930
  614MOL0     H82886   2.877  11.532  -0.080  1.9215 -0.1157  0.2344
  614MOL0     H82887   2.892  11.503  -0.259  1.7747  1.9112 -0.9161
  614MOL0     H82888   2.538  11.744  -0.203 -0.5928  0.7762  2.7069
  614MOL0     H82889   3.178  11.502   0.067 -1.1334 -1.5078 -1.3175
  614MOL0     H82890   3.241  11.308   0.179 -1.7400  2.6096  1.0516
  615MOL0     O82891  11.383   4.649   2.936 -0.3480 -0.6306 -0.2285
  615MOL0     C82892  11.338   4.641   3.051  0.1843 -0.3269 -0.0703
  615MOL0     O82893  11.346   4.746   3.150 -0.1246  0.2283 -0.5486
  615MOL0     C82894  11.431   4.851   3.124  0.8991  0.8556 -0.6204
  615MOL0     C82895  11.516   4.882   3.230  0.3835 -0.3421  0.0943
  615MOL0     C82896  11.614   4.981   3.214  0.4182 -0.5651  0.1166
  615MOL0     C82897  11.634   5.036   3.087  0.3514  0.3636  0.4375
  615MOL0     O82898  11.743   5.125   3.057  0.9169  0.1929  0.6887
  615MOL0     C82899  11.704   5.262   3.018  0.7714  1.2062  0.5206
  615MOL0     C82900  11.825   5.343   2.981  0.8624 -0.6360 -0.0413
  615MOL0     C82901  11.897   5.409   3.092 -0.3469  0.0618 -0.8162
  615MOL0     C82902  12.032   5.465   3.035  0.1212 -0.5212 -0.0717
  615MOL0     C82903  12.117   5.521   3.146 -0.7532  0.2598 -0.1115
  615MOL0     C82904  12.249   5.558   3.099  0.2626  0.6317  0.3482
  615MOL0     C82905  12.312   5.658   3.202 -0.0209  0.0867 -0.2855
  615MOL0     C82906  12.408   5.591   3.299 -0.9621 -0.4314  1.0746
  615MOL0     N82907  12.346   5.501   3.393  1.0754  0.7258  0.8517
  615MOL0     C82908  12.295   5.524   3.521 -0.1286 -0.5659  0.1036
  615MOL0     C82909  12.263   5.403   3.577  0.1092 -0.5557 -0.2074
  615MOL0     C82910  12.203   5.374   3.704  0.1330 -0.4429  0.5823
  615MOL0     C82911  12.093   5.270   3.685 -0.8054  0.1707 -0.2643
  615MOL0     C82912  12.012   5.274   3.811 -0.2847  0.3355  0.5216
  615MOL0     C82913  11.886   5.190   3.789 -0.0618 -0.0815  0.7057
  615MOL0     O82914  11.801   5.169   3.902  0.7096  0.1376 -0.7041
  615MOL0     C82915  11.855   5.116   4.017 -0.3846  0.0384 -1.2196
  615MOL0     C82916  11.835   4.975   4.034 -0.6884  0.5772 -0.9963
  615MOL0     C82917  11.881   4.905   4.149  0.1198 -0.7842  0.3851
  615MOL0     C82918  11.845   4.758   4.157  0.2780  0.5280 -0.1895
  615MOL0     C82919  11.936   4.981   4.257  0.3813 -0.5362  0.8919
  615MOL0     C82920  11.996   4.926   4.377 -0.6190 -0.5797  0.1366
  615MOL0     O82921  12.015   5.003   4.486  0.0913 -0.1372  0.3081
  615MOL0     C82922  12.102   4.961   4.579  0.0333 -0.3365  0.6508
  615MOL0     C82923  12.064   4.868   4.671 -0.0008  0.5175  0.2844
  615MOL0     C82924  12.143   4.817   4.766 -0.7442  0.4495 -0.0566
  615MOL0     C82925  12.270   4.875   4.778  0.6668 -0.0977 -0.4747
  615MOL0     O82926  12.371   4.817   4.862  0.1035 -0.4084 -0.5725
  615MOL0     C82927  12.343   4.693   4.929 -0.1267 -0.4488  0.4494
  615MOL0     C82928  12.446   4.655   5.035  0.5359  0.6132  0.0355
  615MOL0     C82929  12.412   4.727   5.171 -0.1969 -0.3523 -0.2490
  615MOL0     C82930  12.472   4.638   5.289 -0.4641 -0.0880  1.7328
  615MOL0     C82931  12.631   4.659   5.298  0.7625  1.2577 -0.1098
  615MOL0     C82932  12.707   4.550   5.382 -0.3489 -0.1247 -0.1663
  615MOL0     C82933  12.847   4.572   5.347 -0.3506  0.0304  0.2641
  615MOL0     C82934  12.944   4.526   5.463 -0.1436 -0.6863  0.2645
  615MOL0    Cl82935  12.931   4.358   5.508 -0.5642 -0.0246 -0.2302
  615MOL0     C82936  12.309   4.988   4.700 -0.3948 -0.2549  0.5135
  615MOL0     C82937  12.223   5.035   4.593 -0.6473 -0.4467 -0.3718
  615MOL0     O82938  12.008   4.800   4.377  0.0167 -0.1797 -0.6808
  615MOL0     C82939  11.935   5.126   4.250  0.4878 -0.6473  0.9816
  615MOL0     C82940  11.892   5.192   4.130  0.4067 -0.6067  1.0683
  615MOL0     N82941  12.302   5.311   3.486 -0.3572  0.0109 -0.5366
  615MOL0     N82942  12.352   5.362   3.377  0.0273 -0.2407 -0.4807
  615MOL0     C82943  11.546   5.005   2.983  1.3536  0.5784  0.0612
  615MOL0     C82944  11.443   4.917   3.004  0.6927 -0.4492 -0.0482
  615MOL0     C82945  11.272   4.514   3.084  0.3169  0.2186 -0.3386
  615MOL0     C82946  11.263   4.475   3.219 -1.3081 -0.0600  0.6553
  615MOL0     C82947  11.202   4.363   3.269 -0.4983  0.0411 -0.4579
  615MOL0     C82948  11.149   4.265   3.183  0.2256  0.9118  0.8085
  615MOL0     O82949  11.076   4.158   3.239 -0.6586 -0.3597 -0.0279
  615MOL0     C82950  11.010   4.073   3.148 -0.0997 -0.6296  0.2198
  615MOL0     C82951  10.930   3.964   3.220  0.6403 -0.1183  0.0012
  615MOL0     C82952  10.809   4.007   3.299  1.1372  0.7865 -0.9394
  615MOL0     C82953  10.711   4.114   3.239  0.2050 -0.0777 -0.2136
  615MOL0     C82954  10.657   4.065   3.116  0.6213 -0.3255  0.0742
  615MOL0     C82955  10.598   4.020   3.023  0.0784 -0.6989  0.1832
  615MOL0     C82956  11.176   4.287   3.045 -0.5109 -0.1621 -0.8881
  615MOL0     C82957  11.233   4.406   2.997  0.1829  0.6384 -0.1004
  615MOL0     H82958  11.488   4.861   3.332 -0.5398 -4.3331 -0.8102
  615MOL0     H82959  11.678   5.013   3.296  2.6490 -0.7799 -1.4697
  615MOL0     H82960  11.624   5.259   2.943 -0.1481 -0.2554  1.5186
  615MOL0     H82961  11.656   5.306   3.106  1.4189 -2.1436  2.7105
  615MOL0     H82962  11.898   5.281   2.928  0.3718  0.5500 -2.2288
  615MOL0     H82963  11.800   5.425   2.913 -2.7039 -1.3606  0.1802
  615MOL0     H82964  11.840   5.489   3.141  0.1069 -0.1874  0.1479
  615MOL0     H82965  11.929   5.338   3.168 -0.8193  0.8666  0.1596
  615MOL0     H82966  12.078   5.383   2.979  0.1666  0.3940 -1.4523
  615MOL0     H82967  12.004   5.546   2.967 -2.5028 -0.0867  1.4211
  615MOL0     H82968  12.061   5.607   3.185  0.7183  1.7111 -1.0559
  615MOL0     H82969  12.125   5.447   3.225  0.8416  0.4013 -0.1136
  615MOL0     H82970  12.319   5.477   3.076 -1.6253 -0.7537 -0.7340
  615MOL0     H82971  12.234   5.609   3.003 -2.3595  0.5143  0.6215
  615MOL0     H82972  12.376   5.724   3.142 -0.5921  0.8995 -0.0150
  615MOL0     H82973  12.240   5.716   3.260  1.2679  1.5977 -0.1276
  615MOL0     H82974  12.469   5.666   3.350 -3.5121  0.8896  2.4217
  615MOL0     H82975  12.479   5.543   3.232 -0.9094  0.8162  0.1996
  615MOL0     H82976  12.278   5.619   3.569 -2.8236 -0.1429 -1.4840
  615MOL0     H82977  12.270   5.339   3.783 -1.5431 -0.8390  1.8917
  615MOL0     H82978  12.160   5.468   3.740 -0.3778 -0.4772  0.0785
  615MOL0     H82979  12.138   5.173   3.665 -0.3787  0.7858 -2.5951
  615MOL0     H82980  12.027   5.292   3.601 -0.4472  1.7291 -0.1745
  615MOL0     H82981  11.973   5.375   3.828 -1.1908  0.8673 -3.5661
  615MOL0     H82982  12.063   5.235   3.900  2.5536  2.4542 -0.0306
  615MOL0     H82983  11.924   5.097   3.745 -0.2708  0.2863 -0.2585
  615MOL0     H82984  11.825   5.247   3.719 -2.3040 -0.0291  2.5944
  615MOL0     H82985  11.792   4.924   3.949  0.4716 -1.6040 -0.3564
  615MOL0     H82986  11.823   4.721   4.257  2.9332  1.1644  0.7123
  615MOL0     H82987  11.767   4.721   4.090 -0.5919 -0.9459  1.5779
  615MOL0     H82988  11.940   4.712   4.125  0.1481  0.7917 -0.9926
  615MOL0     H82989  11.967   4.820   4.656  0.5789 -1.3111  1.9177
  615MOL0     H82990  12.104   4.730   4.819  0.4028 -0.0606 -0.0303
  615MOL0     H82991  12.250   4.700   4.985  0.3634 -2.8332  1.6861
  615MOL0     H82992  12.335   4.612   4.856  0.7231  2.0884 -2.6551
  615MOL0     H82993  12.442   4.547   5.048 -0.9890 -0.1489 -4.9391
  615MOL0     H82994  12.547   4.666   4.994 -0.2994  0.4209 -2.1561
  615MOL0     H82995  12.304   4.739   5.186 -0.0215 -1.6499  3.0180
  615MOL0     H82996  12.461   4.824   5.173  1.9324 -1.3449  2.0534
  615MOL0     H82997  12.434   4.668   5.387 -0.1761  1.4832  1.3859
  615MOL0     H82998  12.450   4.534   5.262  2.0708  0.2990 -2.9128
  615MOL0     H82999  12.652   4.759   5.337 -0.7243  1.2664  0.7500
  615MOL0     H83000  12.671   4.667   5.197 -0.3726 -0.0786 -0.6983
  615MOL0     H83001  12.681   4.554   5.488 -1.6552  0.8675 -0.5099
  615MOL0     H83002  12.670   4.450   5.359 -0.3983 -0.0048 -0.6266
  615MOL0     H83003  12.871   4.679   5.340  1.0995 -0.1937  1.3823
  615MOL0     H83004  12.873   4.507   5.262  0.4162 -1.6628  1.7257
  615MOL0     H83005  12.933   4.578   5.558  0.7037  0.2574 -0.1290
  615MOL0     H83006  13.045   4.542   5.422 -0.8080 -2.1815 -2.1930
  615MOL0     H83007  12.403   5.036   4.725  0.0900 -2.3283  3.0926
  615MOL0     H83008  12.260   5.121   4.538  2.9215  0.3486  2.7974
  615MOL0     H83009  11.983   5.190   4.323 -2.1713  3.5580 -0.6459
  615MOL0     H83010  11.895   5.298   4.110 -1.0419 -0.2907  2.3594
  615MOL0     H83011  11.557   5.029   2.878 -0.3565  0.5513 -0.1491
  615MOL0     H83012  11.379   4.895   2.920  1.6033 -1.2350 -0.5558
  615MOL0     H83013  11.313   4.540   3.291  2.0529 -0.4794 -1.0864
  615MOL0     H83014  11.182   4.377   3.375  2.0373 -1.0851  0.2610
  615MOL0     H83015  10.946   4.140   3.090  0.3824  0.0204  0.4345
  615MOL0     H83016  11.074   4.030   3.069 -1.1914  4.4950 -4.0021
  615MOL0     H83017  10.993   3.905   3.287  0.9039  0.9908  0.7461
  615MOL0     H83018  10.888   3.891   3.150 -0.2062 -2.0199  2.3478
  615MOL0     H83019  10.850   4.048   3.392  0.6880  0.6917 -0.6942
  615MOL0     H83020  10.760   3.912   3.325  4.7210  0.0502  4.8439
  615MOL0     H83021  10.747   4.217   3.228  2.2933 -0.7237  0.1540
  615MOL0     H83022  10.631   4.146   3.306  0.7542  2.6951 -0.7697
  615MOL0     H83023  10.548   3.963   2.947  0.7147 -2.8458  1.2777
  615MOL0     H83024  11.158   4.210   2.971 -3.5662  0.8667 -1.3380
  615MOL0     H83025  11.260   4.421   2.893 -1.9671  1.1557 -0.6318
  616MOL0     O83026   8.188   2.533   3.508 -0.7055  0.0752  0.4634
  616MOL0     C83027   8.182   2.428   3.447  0.1978 -0.3097 -0.5986
  616MOL0     O83028   8.286   2.363   3.391 -0.5463  0.1806  0.6160
  616MOL0     C83029   8.405   2.439   3.365  1.0704  0.6033 -0.2236
  616MOL0     C83030   8.518   2.364   3.385  0.5716 -0.1069 -0.5526
  616MOL0     C83031   8.648   2.417   3.373  0.3875 -0.8441  0.7230
  616MOL0     C83032   8.655   2.552   3.329  0.0378 -0.1048  0.3039
  616MOL0     O83033   8.781   2.598   3.298 -0.0219  0.2590 -0.1421
  616MOL0     C83034   8.829   2.723   3.339  0.2094 -0.3560  0.5714
  616MOL0     C83035   8.975   2.738   3.332  0.2597 -1.5790  0.3300
  616MOL0     C83036   9.028   2.871   3.394  0.7790 -0.1406 -0.0080
  616MOL0     C83037   9.096   2.957   3.290 -0.6170  0.3003 -0.0471
  616MOL0     C83038   9.136   3.097   3.334  0.5850 -0.4491 -0.3583
  616MOL0     C83039   9.020   3.167   3.420  0.6361  0.4610  0.4362
  616MOL0     C83040   9.052   3.310   3.414  0.6728  0.1976 -1.0513
  616MOL0     C83041   9.185   3.352   3.490 -0.3239  0.1175 -0.5665
  616MOL0     N83042   9.211   3.495   3.505  0.1521  0.2483 -0.2301
  616MOL0     C83043   9.307   3.566   3.449  0.6040 -0.7159  0.3394
  616MOL0     C83044   9.313   3.681   3.520 -0.0636  0.7802  1.0323
  616MOL0     C83045   9.428   3.775   3.498 -0.0786  0.3957 -0.3362
  616MOL0     C83046   9.568   3.714   3.520 -0.5127  1.2737 -0.5201
  616MOL0     C83047   9.592   3.618   3.642  1.1203 -1.3324 -1.1827
  616MOL0     C83048   9.537   3.704   3.763  0.6843 -0.5012 -0.1134
  616MOL0     O83049   9.615   3.829   3.777  0.7559 -0.9641  0.2124
  616MOL0     C83050   9.558   3.915   3.874 -0.0724  1.2190  0.3774
  616MOL0     C83051   9.592   4.044   3.859  0.2905  0.0623 -0.7676
  616MOL0     C83052   9.562   4.150   3.946 -1.3950 -0.9976 -0.1741
  616MOL0     C83053   9.589   4.282   3.887  0.1287  0.3219  0.3931
  616MOL0     C83054   9.502   4.118   4.068  0.4060 -0.1380  0.3598
  616MOL0     C83055   9.451   4.230   4.159  0.5540 -0.5351 -0.1125
  616MOL0     O83056   9.536   4.333   4.176  1.0074 -0.9113 -0.5480
  616MOL0     C83057   9.520   4.442   4.259  0.1929 -0.0628  0.1510
  616MOL0     C83058   9.410   4.521   4.247 -0.6378 -0.5903  0.2186
  616MOL0     C83059   9.392   4.632   4.331  0.3608  0.9499  0.9603
  616MOL0     C83060   9.502   4.675   4.415 -0.8523  0.6624  0.8185
  616MOL0     O83061   9.499   4.784   4.501  0.1508  0.3276 -0.5423
  616MOL0     C83062   9.378   4.862   4.524 -0.0928 -0.5754  0.3938
  616MOL0     C83063   9.409   4.962   4.626 -0.0949  0.5154 -0.2465
  616MOL0     C83064   9.443   4.922   4.770 -0.1827  0.1060 -0.1588
  616MOL0     C83065   9.461   5.057   4.844  0.1015  0.2612  0.1317
  616MOL0     C83066   9.508   5.025   4.990 -0.1947 -0.7101  0.0545
  616MOL0     C83067   9.399   4.981   5.078 -0.3627  0.9166 -0.4420
  616MOL0     C83068   9.279   5.076   5.096  0.8842 -0.2565  0.1109
  616MOL0     C83069   9.181   5.050   5.216 -0.2060  0.7248 -0.3148
  616MOL0    Cl83070   9.263   5.100   5.372 -0.3834  0.1266 -0.0532
  616MOL0     C83071   9.622   4.606   4.419 -0.3598  0.2165  0.6228
  616MOL0     C83072   9.628   4.495   4.342  0.9301 -0.2261  0.3690
  616MOL0     O83073   9.337   4.223   4.206 -0.0441 -0.0153 -0.0830
  616MOL0     C83074   9.461   3.984   4.082  0.4867 -0.3599 -0.1337
  616MOL0     C83075   9.483   3.880   3.987  0.2081  0.8436  0.5091
  616MOL0     N83076   9.209   3.688   3.601 -0.7211  0.2145  0.1603
  616MOL0     N83077   9.139   3.574   3.581 -0.6406 -0.0949 -0.3906
  616MOL0     C83078   8.538   2.623   3.300  0.0914  1.0469  0.3501
  616MOL0     C83079   8.409   2.574   3.325  0.3293 -0.8409 -0.0034
  616MOL0     C83080   8.056   2.366   3.426  0.4026  0.0101  0.9932
  616MOL0     C83081   8.038   2.241   3.369  0.9282 -0.6021 -0.2115
  616MOL0     C83082   7.910   2.191   3.348  0.3200 -0.3834 -0.6500
  616MOL0     C83083   7.797   2.252   3.401  0.1779 -0.8221 -0.3893
  616MOL0     O83084   7.680   2.180   3.394 -1.0149 -0.1914  0.1460
  616MOL0     C83085   7.587   2.225   3.300  0.1185 -0.1237 -0.5384
  616MOL0     C83086   7.459   2.283   3.362  0.0131 -0.8930 -1.1237
  616MOL0     C83087   7.363   2.293   3.245  1.0657 -0.8928 -0.1951
  616MOL0     C83088   7.214   2.349   3.255  0.2410 -0.9852  0.3379
  616MOL0     C83089   7.147   2.267   3.362  0.2390 -1.4718  0.1604
  616MOL0     C83090   7.100   2.180   3.433  0.7817 -0.1766  0.3779
  616MOL0     C83091   7.808   2.374   3.466  1.4043  0.1574  0.2646
  616MOL0     C83092   7.940   2.423   3.473 -0.2589 -0.2869 -0.0178
  616MOL0     H83093   8.491   2.263   3.414  2.3147 -0.2330  0.8023
  616MOL0     H83094   8.744   2.389   3.413  1.1628  2.5666  1.5618
  616MOL0     H83095   8.783   2.810   3.290  0.5227 -1.0629 -1.0500
  616MOL0     H83096   8.805   2.736   3.445 -0.2160  2.5640  0.2132
  616MOL0     H83097   9.028   2.659   3.387  1.1453 -2.7518 -2.0538
  616MOL0     H83098   9.005   2.742   3.227 -0.2828 -0.0908  0.2008
  616MOL0     H83099   8.955   2.932   3.449  0.9380 -2.1006  2.5779
  616MOL0     H83100   9.101   2.842   3.470 -1.3519 -2.4522  1.3326
  616MOL0     H83101   9.194   2.911   3.276 -0.7604  0.8167 -3.4201
  616MOL0     H83102   9.036   2.956   3.198  0.8521  0.9526 -1.0398
  616MOL0     H83103   9.218   3.091   3.406 -0.3120 -0.0476  0.7438
  616MOL0     H83104   9.159   3.158   3.246  0.6951  1.7501  1.1278
  616MOL0     H83105   8.925   3.159   3.367  0.7054  0.2300  0.3471
  616MOL0     H83106   8.999   3.132   3.521 -1.2256  1.8712  0.6051
  616MOL0     H83107   9.049   3.337   3.308  1.6551  2.7627 -0.4907
  616MOL0     H83108   8.969   3.359   3.465  0.7007  0.9881 -1.7422
  616MOL0     H83109   9.270   3.304   3.440 -1.6627 -1.3521 -1.5331
  616MOL0     H83110   9.173   3.305   3.588  0.8285  3.5461  1.3833
  616MOL0     H83111   9.363   3.539   3.360 -0.6958 -0.0318 -0.7085
  616MOL0     H83112   9.412   3.825   3.401 -1.2090  4.7339  1.8157
  616MOL0     H83113   9.415   3.850   3.576 -0.5606 -1.8248  1.8328
  616MOL0     H83114   9.640   3.795   3.517 -1.3806  2.0350 -2.3069
  616MOL0     H83115   9.580   3.643   3.437 -2.4642 -0.0237  0.2415
  616MOL0     H83116   9.697   3.601   3.664  1.0559  0.7405  1.2629
  616MOL0     H83117   9.540   3.523   3.652  0.9726 -1.3689 -2.1969
  616MOL0     H83118   9.550   3.638   3.850 -1.8800 -0.1876  0.5910
  616MOL0     H83119   9.428   3.711   3.759  0.5601 -2.2718 -0.4059
  616MOL0     H83120   9.645   4.069   3.767 -1.5116 -3.6350 -3.0672
  616MOL0     H83121   9.490   4.326   3.876 -0.9063 -1.8224  0.5506
  616MOL0     H83122   9.650   4.344   3.953 -1.4120  0.8245  1.4038
  616MOL0     H83123   9.631   4.281   3.787  1.4918  0.7578  0.9392
  616MOL0     H83124   9.325   4.479   4.194 -1.0649  1.1221 -0.4978
  616MOL0     H83125   9.300   4.688   4.321  1.4625  2.9491  1.4270
  616MOL0     H83126   9.366   4.920   4.432  4.9953 -0.6807 -0.6207
  616MOL0     H83127   9.308   4.783   4.554 -0.2025  0.0349  1.8363
  616MOL0     H83128   9.502   5.009   4.591 -0.1770 -0.3783 -1.7774
  616MOL0     H83129   9.327   5.033   4.638 -2.0310 -1.5077 -0.7150
  616MOL0     H83130   9.536   4.865   4.762  0.8396  1.7605 -0.6359
  616MOL0     H83131   9.368   4.853   4.809  0.5880 -0.4155  0.4482
  616MOL0     H83132   9.538   5.117   4.795  3.9359 -1.6780  3.2460
  616MOL0     H83133   9.363   5.106   4.842 -0.2628 -0.4373  0.5338
  616MOL0     H83134   9.533   5.122   5.035  1.6463 -1.5150  0.8470
  616MOL0     H83135   9.592   4.956   5.003  1.3115  0.9067 -0.6801
  616MOL0     H83136   9.363   4.884   5.042 -0.8378  0.8453  0.2132
  616MOL0     H83137   9.443   4.954   5.174  2.0896 -3.1706 -2.4468
  616MOL0     H83138   9.211   5.062   5.012  2.5987  0.0909 -1.3812
  616MOL0     H83139   9.313   5.179   5.085  2.4908 -0.7258  0.3803
  616MOL0     H83140   9.147   4.946   5.220 -0.6354  0.7644 -2.1478
  616MOL0     H83141   9.087   5.106   5.211 -0.2392  0.5590 -3.2284
  616MOL0     H83142   9.714   4.643   4.463 -0.2184 -0.1635  0.6483
  616MOL0     H83143   9.723   4.443   4.344  0.4036 -1.3425 -1.2989
  616MOL0     H83144   9.418   3.948   4.175  0.0872 -1.2385 -0.6468
  616MOL0     H83145   9.437   3.782   3.995 -3.0589  1.9997 -1.7568
  616MOL0     H83146   8.558   2.715   3.245  5.7815  1.6285  2.7134
  616MOL0     H83147   8.324   2.640   3.313  1.7354  1.1312  0.3103
  616MOL0     H83148   8.128   2.189   3.336 -0.0794 -1.7333 -1.2898
  616MOL0     H83149   7.906   2.087   3.317 -1.1158 -1.0014  1.3845
  616MOL0     H83150   7.622   2.291   3.220 -1.4698  1.8872  0.3302
  616MOL0     H83151   7.562   2.142   3.234  2.2127 -1.1993 -0.0710
  616MOL0     H83152   7.478   2.383   3.403 -3.3818 -0.3133 -0.6014
  616MOL0     H83153   7.415   2.214   3.434  2.2357 -1.8754 -0.6264
  616MOL0     H83154   7.348   2.191   3.207 -2.4680  0.1565 -2.1484
  616MOL0     H83155   7.410   2.360   3.173  0.5810 -1.1819 -0.8019
  616MOL0     H83156   7.164   2.315   3.164  1.4688 -1.3607 -0.2245
  616MOL0     H83157   7.197   2.454   3.282 -0.1925 -1.4462  1.9233
  616MOL0     H83158   7.055   2.102   3.490 -3.5066  0.0302 -2.2895
  616MOL0     H83159   7.719   2.423   3.503 -3.2236 -3.9036 -3.9699
  616MOL0     H83160   7.943   2.523   3.517 -0.1715  0.3239 -1.3579
  617MOL0     O83161   9.729   0.132   7.509 -0.3414 -0.0462 -0.7452
  617MOL0     C83162   9.773   0.038   7.446 -1.0152  0.4030 -1.4350
  617MOL0     O83163   9.888   0.029   7.392 -0.1856 -0.2193 -0.2716
  617MOL0     C83164   9.981   0.130   7.411  0.7848 -0.0928 -0.1617
  617MOL0     C83165  10.002   0.224   7.311  0.3000  1.0331 -0.0504
  617MOL0     C83166  10.100   0.316   7.325  0.0658  0.2796 -0.0667
  617MOL0     C83167  10.166   0.322   7.442 -0.4218 -0.5637 -0.4891
  617MOL0     O83168  10.272   0.411   7.451 -0.4996 -0.0262  0.6499
  617MOL0     C83169  10.371   0.387   7.546 -0.6074 -0.5397 -0.2278
  617MOL0     C83170  10.504   0.450   7.495  0.3296 -0.2606  0.1240
  617MOL0     C83171  10.496   0.606   7.515 -0.3281 -0.4399 -0.2430
  617MOL0     C83172  10.460   0.674   7.385  0.0711  0.0307  0.2293
  617MOL0     C83173  10.583   0.699   7.307  0.1229 -1.1751  0.4229
  617MOL0     C83174  10.548   0.789   7.186 -0.8684 -0.3207  1.1182
  617MOL0     C83175  10.577   0.932   7.202 -0.6457  0.4420 -0.0419
  617MOL0     C83176  10.563   1.012   7.067  0.9724 -0.5110  0.2506
  617MOL0     N83177  10.674   0.990   6.974  0.2960 -0.2368 -0.0628
  617MOL0     C83178  10.657   0.961   6.843 -0.2744  0.1120 -0.3833
  617MOL0     C83179  10.781   0.950   6.794  0.1203  0.7463  0.4303
  617MOL0     C83180  10.828   0.901   6.663  0.6925  0.7482  0.9834
  617MOL0     C83181  10.797   1.011   6.557  0.6120  0.4826 -0.3691
  617MOL0     C83182  10.889   1.132   6.565 -0.4627 -0.0708 -0.6251
  617MOL0     C83183  10.877   1.218   6.437 -1.1237  0.2745  1.1141
  617MOL0     O83184  10.757   1.294   6.428 -0.4961  0.6084  0.6560
  617MOL0     C83185  10.758   1.404   6.344  0.0771 -1.0834 -0.4651
  617MOL0     C83186  10.664   1.506   6.357  0.8342 -0.0039 -0.1833
  617MOL0     C83187  10.646   1.608   6.266  0.2299 -0.9625 -0.7754
  617MOL0     C83188  10.520   1.697   6.274 -0.1845 -0.7408  0.0998
  617MOL0     C83189  10.753   1.625   6.170  0.1268 -0.3499  1.3468
  617MOL0     C83190  10.776   1.752   6.090  0.4739  0.0982  0.1601
  617MOL0     O83191  10.871   1.750   5.994 -0.0945 -0.1918  0.5405
  617MOL0     C83192  10.905   1.872   5.938 -1.0051 -0.3739  0.5525
  617MOL0     C83193  10.823   1.948   5.857  0.3721 -0.5795 -0.9822
  617MOL0     C83194  10.869   2.082   5.819 -0.2519 -0.2613 -0.7225
  617MOL0     C83195  10.987   2.137   5.875  0.3045 -0.2758 -0.5386
  617MOL0     O83196  11.015   2.271   5.853  0.0527  0.2199  1.0867
  617MOL0     C83197  11.027   2.298   5.711 -0.0652 -0.2010 -0.0924
  617MOL0     C83198  11.108   2.430   5.700  0.4228  0.4570  0.2262
  617MOL0     C83199  11.253   2.422   5.753  0.5216  0.7569  0.6845
  617MOL0     C83200  11.342   2.521   5.682 -0.4356 -0.0675 -0.1367
  617MOL0     C83201  11.305   2.667   5.704 -0.5187 -0.2809  0.2327
  617MOL0     C83202  11.400   2.766   5.627 -0.4774 -0.2905 -0.5590
  617MOL0     C83203  11.365   2.924   5.610  0.5515 -0.1369  0.0797
  617MOL0     C83204  11.318   2.982   5.738 -0.5450 -0.1894  0.2532
  617MOL0    Cl83205  11.460   3.030   5.843  0.3012 -0.4650 -0.4641
  617MOL0     C83206  11.069   2.053   5.952 -0.2494 -0.8730 -0.3657
  617MOL0     C83207  11.026   1.921   5.975 -0.1358 -0.0001  0.6420
  617MOL0     O83208  10.722   1.854   6.132 -0.1284 -0.3384  1.0158
  617MOL0     C83209  10.853   1.530   6.161 -0.2816  0.1101  0.7481
  617MOL0     C83210  10.845   1.411   6.231  0.2728  0.4925  0.1625
  617MOL0     N83211  10.871   0.989   6.891 -0.4850 -0.1194  0.0852
  617MOL0     N83212  10.800   1.029   6.991  0.2297  0.7435 -0.8610
  617MOL0     C83213  10.150   0.216   7.546 -0.5047  0.2598  0.1725
  617MOL0     C83214  10.055   0.121   7.524  0.6530  0.3596  0.6016
  617MOL0     C83215   9.704  -0.088   7.422  0.3163 -0.1198  0.1895
  617MOL0     C83216   9.670  -0.160   7.532  0.1261 -0.3271 -0.3411
  617MOL0     C83217   9.600  -0.287   7.508 -0.5417  0.3532  0.5141
  617MOL0     C83218   9.573  -0.332   7.382  0.1732 -0.5437 -0.3326
  617MOL0     O83219   9.498  -0.443   7.360  0.3703 -0.2675 -0.6976
  617MOL0     C83220   9.527  -0.544   7.252  0.0022 -0.1143 -0.2167
  617MOL0     C83221   9.660  -0.606   7.284 -0.0815 -0.2370 -1.0801
  617MOL0     C83222   9.688  -0.677   7.416  0.4078 -0.5872 -0.6821
  617MOL0     C83223   9.587  -0.782   7.452 -0.0723 -0.5954  0.1883
  617MOL0     C83224   9.583  -0.878   7.333 -0.1137 -0.2859 -0.5144
  617MOL0     C83225   9.586  -0.961   7.245  0.1731  0.2185  1.0194
  617MOL0     C83226   9.613  -0.253   7.271  0.5245  0.8985 -0.4113
  617MOL0     C83227   9.685  -0.131   7.296  0.2664 -0.1863  0.4206
  617MOL0     H83228   9.966   0.217   7.209 -3.7124  0.5810  1.2215
  617MOL0     H83229  10.132   0.391   7.253  1.0578 -0.8041 -0.7992
  617MOL0     H83230  10.359   0.424   7.648  1.6954 -2.7845  0.9685
  617MOL0     H83231  10.388   0.281   7.567 -1.0932 -0.3431  1.3000
  617MOL0     H83232  10.587   0.415   7.558 -0.6148  1.9487  2.8182
  617MOL0     H83233  10.512   0.421   7.390  1.2441  0.8774 -0.1458
  617MOL0     H83234  10.417   0.634   7.586  0.0766 -0.7776  0.3442
  617MOL0     H83235  10.582   0.636   7.576 -3.4606  1.9030  3.5840
  617MOL0     H83236  10.397   0.602   7.332  0.2007 -2.1762  2.8444
  617MOL0     H83237  10.399   0.763   7.403  2.8528  2.0893  0.2206
  617MOL0     H83238  10.656   0.753   7.368 -0.4181  2.1868 -1.7036
  617MOL0     H83239  10.631   0.612   7.262 -0.4569 -1.1624 -0.2306
  617MOL0     H83240  10.613   0.746   7.109  1.5978 -0.7827  3.3366
  617MOL0     H83241  10.449   0.772   7.142 -0.2274 -1.6682  0.0897
  617MOL0     H83242  10.506   0.970   7.277  1.6358  2.1000  1.3949
  617MOL0     H83243  10.679   0.945   7.238 -0.5114  1.0474 -0.6122
  617MOL0     H83244  10.546   1.119   7.087 -1.6898 -0.9829  0.9635
  617MOL0     H83245  10.466   0.984   7.026 -0.8387  0.7379  3.2811
  617MOL0     H83246  10.562   0.942   6.794 -0.8574  0.0992  0.7240
  617MOL0     H83247  10.934   0.876   6.676  0.6491  1.3051  2.6196
  617MOL0     H83248  10.794   0.799   6.642  4.8701 -0.5967 -0.2841
  617MOL0     H83249  10.691   1.037   6.561  1.1186  2.7191 -0.1980
  617MOL0     H83250  10.812   0.957   6.463  1.9286 -4.3488  2.2796
  617MOL0     H83251  10.990   1.098   6.590 -0.2986  0.5572 -0.4196
  617MOL0     H83252  10.851   1.192   6.647  2.8997 -0.2265  1.2440
  617MOL0     H83253  10.886   1.155   6.348 -3.1302  1.8301 -0.2851
  617MOL0     H83254  10.963   1.285   6.444 -1.0059  0.3421 -0.5245
  617MOL0     H83255  10.590   1.496   6.436 -0.4987 -0.1381 -1.3984
  617MOL0     H83256  10.484   1.735   6.178  2.9019  0.6576 -0.6275
  617MOL0     H83257  10.445   1.650   6.339  0.0158  1.6316  2.2250
  617MOL0     H83258  10.554   1.785   6.329  1.7023 -1.2900 -0.1353
  617MOL0     H83259  10.719   1.923   5.836 -0.1105 -1.8473  2.4160
  617MOL0     H83260  10.815   2.144   5.748  2.6551  1.6392 -1.4403
  617MOL0     H83261  11.072   2.210   5.664  0.5217  0.5378 -0.9441
  617MOL0     H83262  10.933   2.313   5.657  0.1228 -1.1219 -0.6873
  617MOL0     H83263  11.107   2.450   5.593  2.3507 -0.9556 -0.1084
  617MOL0     H83264  11.052   2.501   5.762  1.0488  1.4752 -0.3514
  617MOL0     H83265  11.291   2.321   5.735  1.3180  1.5197 -2.4864
  617MOL0     H83266  11.259   2.427   5.862 -1.2771 -2.1552  1.0373
  617MOL0     H83267  11.444   2.516   5.721 -0.7743  0.9034  0.9267
  617MOL0     H83268  11.351   2.493   5.577 -0.2922  0.5066 -0.2816
  617MOL0     H83269  11.308   2.695   5.809 -0.9811  3.1991 -0.5574
  617MOL0     H83270  11.199   2.689   5.685  0.2284  2.6723 -1.2112
  617MOL0     H83271  11.496   2.760   5.679  0.3442 -4.0363 -2.1471
  617MOL0     H83272  11.411   2.741   5.521  0.3016  3.5077 -1.5256
  617MOL0     H83273  11.277   2.926   5.545 -0.6551  3.6341  1.5523
  617MOL0     H83274  11.436   2.995   5.568 -0.7946  0.6482 -0.9580
  617MOL0     H83275  11.271   2.904   5.800  0.0372  1.1770  2.5309
  617MOL0     H83276  11.247   3.062   5.715 -2.7821 -1.9640  0.6199
  617MOL0     H83277  11.160   2.099   5.991  0.7395  0.1683 -3.6374
  617MOL0     H83278  11.097   1.865   6.035  2.8797 -0.1123 -2.6840
  617MOL0     H83279  10.927   1.530   6.081  0.4291  0.7364  1.3923
  617MOL0     H83280  10.901   1.324   6.199  0.5504  1.7305 -3.1386
  617MOL0     H83281  10.212   0.217   7.635 -3.2462  2.6686  2.2464
  617MOL0     H83282  10.042   0.044   7.600  0.5074 -0.6147 -0.3971
  617MOL0     H83283   9.688  -0.134   7.635 -1.3018  1.5803 -0.5219
  617MOL0     H83284   9.561  -0.342   7.593 -1.3092 -2.7767 -1.6953
  617MOL0     H83285   9.451  -0.623   7.261  0.9740 -0.8333  3.2849
  617MOL0     H83286   9.529  -0.501   7.152 -0.5434  1.0209  0.2411
  617MOL0     H83287   9.734  -0.526   7.277  0.4360 -0.5905  0.1050
  617MOL0     H83288   9.669  -0.666   7.193  0.0923  2.4962 -2.9871
  617MOL0     H83289   9.703  -0.604   7.495  1.3954  1.1151 -2.3729
  617MOL0     H83290   9.780  -0.732   7.395  1.2083 -0.2255  1.6736
  617MOL0     H83291   9.489  -0.736   7.469  1.7488  3.9950 -0.4017
  617MOL0     H83292   9.617  -0.838   7.541 -2.0413 -1.6206  0.2633
  617MOL0     H83293   9.569  -1.021   7.158 -2.6132  0.2637  1.4615
  617MOL0     H83294   9.603  -0.289   7.169  1.2325 -1.5951  0.3247
  617MOL0     H83295   9.725  -0.076   7.211 -1.9457 -0.8162 -1.1401
  618MOL0     O83296  10.458   4.492   1.435 -0.3415 -0.6298  0.1244
  618MOL0     C83297  10.499   4.558   1.529  0.1312 -0.2850 -0.3820
  618MOL0     O83298  10.633   4.563   1.567  0.0503 -0.5872 -0.5562
  618MOL0     C83299  10.723   4.550   1.458 -1.1797  0.5462  0.3631
  618MOL0     C83300  10.706   4.603   1.326  0.4166  0.6553  0.3683
  618MOL0     C83301  10.813   4.599   1.237 -0.0045  0.6357 -0.3116
  618MOL0     C83302  10.942   4.545   1.275  0.4633 -0.0092  0.3447
  618MOL0     O83303  11.052   4.530   1.192  0.2827 -0.0249 -0.0955
  618MOL0     C83304  11.037   4.547   1.052  0.3944 -0.0737  0.7710
  618MOL0     C83305  11.183   4.542   1.001 -0.2855  0.3259  0.3736
  618MOL0     C83306  11.258   4.682   1.008 -0.0060  0.3747  0.2755
  618MOL0     C83307  11.405   4.667   1.065 -1.0464  0.4059  0.0434
  618MOL0     C83308  11.466   4.811   1.050 -0.3291  0.7564 -0.5066
  618MOL0     C83309  11.613   4.829   1.089 -0.6471  0.3439 -0.0282
  618MOL0     C83310  11.711   4.778   0.983 -0.3526  0.0150 -0.3725
  618MOL0     C83311  11.853   4.762   1.042 -0.5181 -0.1045 -0.1198
  618MOL0     N83312  11.934   4.678   0.947  0.3864 -0.5378 -0.4592
  618MOL0     C83313  11.939   4.692   0.807 -0.6897 -0.1493 -0.1710
  618MOL0     C83314  11.999   4.579   0.759 -0.8917  0.3994  0.0398
  618MOL0     C83315  12.029   4.550   0.616 -0.5730 -0.8093 -0.1277
  618MOL0     C83316  11.910   4.486   0.542  0.1476 -0.3690 -0.0267
  618MOL0     C83317  11.766   4.511   0.603  0.0853 -0.5336 -0.6264
  618MOL0     C83318  11.660   4.443   0.510  0.0001  0.2104 -0.2454
  618MOL0     O83319  11.530   4.468   0.562  0.0969  0.2528  0.8949
  618MOL0     C83320  11.418   4.407   0.528 -0.4417  2.1593  0.1524
  618MOL0     C83321  11.419   4.317   0.425 -0.3319  0.9740 -0.0833
  618MOL0     C83322  11.304   4.256   0.380 -0.3852  0.0473 -0.6269
  618MOL0     C83323  11.309   4.164   0.254  0.3387 -0.0998  0.7353
  618MOL0     C83324  11.187   4.270   0.454 -0.7441  0.2618  0.1410
  618MOL0     C83325  11.078   4.179   0.436 -0.2523 -0.9056 -0.0003
  618MOL0     O83326  10.952   4.227   0.474 -0.4618  0.1649  0.6536
  618MOL0     C83327  10.848   4.142   0.444 -0.8033 -0.3216  0.4502
  618MOL0     C83328  10.821   4.037   0.529  0.0719 -0.0414  0.4728
  618MOL0     C83329  10.717   3.943   0.505 -0.5060 -0.8385  0.2483
  618MOL0     C83330  10.646   3.956   0.384  0.3522  0.6641 -0.5398
  618MOL0     O83331  10.545   3.874   0.340 -0.0644  0.8635 -0.1271
  618MOL0     C83332  10.509   3.755   0.413  0.6199  0.0461 -0.4318
  618MOL0     C83333  10.384   3.710   0.351 -0.1488 -0.1918  0.7826
  618MOL0     C83334  10.340   3.583   0.424 -1.1713  0.1792  0.1353
  618MOL0     C83335  10.324   3.454   0.335  0.1235 -0.5543 -0.2398
  618MOL0     C83336  10.200   3.446   0.251 -0.2892 -0.0203 -0.4725
  618MOL0     C83337  10.164   3.305   0.214 -0.3633  0.5073 -0.3717
  618MOL0     C83338  10.062   3.281   0.112  0.4923  1.1667  0.4478
  618MOL0     C83339   9.998   3.141   0.137  1.3354 -0.0480  0.7261
  618MOL0    Cl83340  10.117   3.004   0.135 -0.3941 -0.1698  0.3332
  618MOL0     C83341  10.660   4.070   0.299 -1.0005 -0.0426 -0.2907
  618MOL0     C83342  10.759   4.163   0.335 -0.2829  0.6096 -0.2343
  618MOL0     O83343  11.095   4.061   0.398  0.4652  0.2437  0.5031
  618MOL0     C83344  11.185   4.363   0.559  0.3383 -0.7008 -0.5625
  618MOL0     C83345  11.297   4.439   0.586  0.8889 -0.2935 -0.3960
  618MOL0     N83346  12.017   4.492   0.868 -0.4237  0.1569  1.0493
  618MOL0     N83347  11.984   4.557   0.976  0.3289 -0.0898 -0.6132
  618MOL0     C83348  10.958   4.491   1.405  0.0228  0.0469  0.5833
  618MOL0     C83349  10.851   4.503   1.497  0.0203  1.2815  0.3098
  618MOL0     C83350  10.398   4.635   1.616 -0.0220  1.3748 -0.5896
  618MOL0     C83351  10.259   4.593   1.626 -0.5393  0.2065 -0.0623
  618MOL0     C83352  10.172   4.655   1.716  0.0966  0.0106  0.7216
  618MOL0     C83353  10.217   4.768   1.791 -1.0911  0.2888 -0.2033
  618MOL0     O83354  10.129   4.819   1.890  0.0165  0.1774 -0.2574
  618MOL0     C83355  10.142   4.961   1.919  0.0852  0.1658  0.3118
  618MOL0     C83356  10.008   5.017   1.975 -0.7078  0.2369  1.0327
  618MOL0     C83357   9.996   5.016   2.119  0.2749  0.5900 -0.1063
  618MOL0     C83358   9.859   5.087   2.146  0.4094  0.3181  0.0892
  618MOL0     C83359   9.836   5.102   2.294  0.8565  0.9127  0.4017
  618MOL0     C83360   9.819   5.104   2.409  0.6122 -1.2210 -0.3498
  618MOL0     C83361  10.344   4.815   1.775  0.2757  0.9444 -0.1478
  618MOL0     C83362  10.428   4.753   1.679 -0.3082  0.1849  0.1873
  618MOL0     H83363  10.625   4.668   1.296  1.3025  1.7059  0.1508
  618MOL0     H83364  10.809   4.651   1.142  2.6056  0.0941 -0.8103
  618MOL0     H83365  10.990   4.457   1.011  1.9881 -0.8020  0.4355
  618MOL0     H83366  11.003   4.642   1.010  0.8529  0.6305  1.9387
  618MOL0     H83367  11.250   4.475   1.056 -0.2933  0.3433  0.4043
  618MOL0     H83368  11.182   4.515   0.895  4.1959  0.4635  0.1103
  618MOL0     H83369  11.282   4.713   0.907  1.0597  1.6847  0.9065
  618MOL0     H83370  11.203   4.762   1.059 -0.2761 -0.2334  0.9701
  618MOL0     H83371  11.400   4.637   1.170 -2.9195 -3.5799 -0.9922
  618MOL0     H83372  11.456   4.596   1.001 -2.0632 -0.8036  0.5295
  618MOL0     H83373  11.464   4.851   0.948 -0.1924 -0.6394 -1.0717
  618MOL0     H83374  11.412   4.883   1.113 -0.3687 -0.0943  0.4606
  618MOL0     H83375  11.633   4.936   1.095 -2.5798  0.7291  0.3287
  618MOL0     H83376  11.638   4.779   1.184 -1.1434 -1.8752 -1.0005
  618MOL0     H83377  11.687   4.676   0.951  0.1607 -0.1025 -0.3878
  618MOL0     H83378  11.725   4.853   0.904 -2.3083 -1.9005 -2.7264
  618MOL0     H83379  11.862   4.724   1.144 -3.3783  1.9309  1.0476
  618MOL0     H83380  11.904   4.858   1.032 -2.3747  0.8620 -0.9290
  618MOL0     H83381  11.916   4.784   0.755  0.6954 -0.7933 -2.0343
  618MOL0     H83382  12.059   4.641   0.562 -0.8160 -0.7947 -0.2395
  618MOL0     H83383  12.117   4.485   0.611 -0.0705 -0.2053  0.6368
  618MOL0     H83384  11.924   4.377   0.538 -1.4853 -0.5735 -1.2699
  618MOL0     H83385  11.907   4.508   0.435 -3.2032  0.9075  0.2093
  618MOL0     H83386  11.733   4.614   0.618  2.0410  0.1002 -0.3729
  618MOL0     H83387  11.760   4.457   0.698 -4.3915 -0.8573 -0.8723
  618MOL0     H83388  11.674   4.335   0.506 -2.0546 -0.0834 -0.9170
  618MOL0     H83389  11.669   4.470   0.404 -1.3679 -1.3437 -0.7898
  618MOL0     H83390  11.505   4.286   0.367  0.4998  2.1323  0.4760
  618MOL0     H83391  11.354   4.066   0.269 -0.2601 -0.7274 -1.1825
  618MOL0     H83392  11.215   4.165   0.197  1.9440 -0.3304 -2.0914
  618MOL0     H83393  11.378   4.219   0.189 -0.7935 -1.2739 -1.6091
  618MOL0     H83394  10.881   4.016   0.617 -0.2238  0.5772  0.8295
  618MOL0     H83395  10.705   3.851   0.561 -0.8742 -0.9863 -0.0743
  618MOL0     H83396  10.581   3.673   0.420 -0.5471 -0.9428  0.5571
  618MOL0     H83397  10.493   3.787   0.517  0.1191  1.3404 -0.8851
  618MOL0     H83398  10.308   3.788   0.353 -0.6033 -0.6266  0.5771
  618MOL0     H83399  10.396   3.683   0.246  0.9736 -1.1683  1.1341
  618MOL0     H83400  10.244   3.599   0.474 -0.8218  1.8385  0.3255
  618MOL0     H83401  10.410   3.557   0.504 -1.6281  0.7407  0.7242
  618MOL0     H83402  10.412   3.437   0.272  0.7929  0.3955  0.4036
  618MOL0     H83403  10.321   3.369   0.404 -0.3492  2.2443  3.4710
  618MOL0     H83404  10.223   3.504   0.161  1.7188  1.6276  1.0125
  618MOL0     H83405  10.110   3.487   0.300 -2.2343 -3.3013 -1.0269
  618MOL0     H83406  10.256   3.248   0.205  0.3301  1.6477 -0.7470
  618MOL0     H83407  10.128   3.256   0.305  1.9209 -1.5689 -0.5032
  618MOL0     H83408  10.098   3.279   0.008 -0.5519 -0.4535  0.0690
  618MOL0     H83409   9.984   3.357   0.099 -0.1314  0.0437 -4.4637
  618MOL0     H83410   9.920   3.117   0.065  1.3856  1.8774 -0.0270
  618MOL0     H83411   9.957   3.153   0.238  2.6130  0.9154  1.1611
  618MOL0     H83412  10.602   4.083   0.208  1.4759 -1.8685 -2.2931
  618MOL0     H83413  10.764   4.248   0.268 -1.4490  2.1820  1.5496
  618MOL0     H83414  11.091   4.375   0.612  0.4403  0.3755 -0.6085
  618MOL0     H83415  11.282   4.524   0.651 -0.1137 -1.4231  0.8930
  618MOL0     H83416  11.048   4.439   1.435 -0.2341  1.2238  3.7898
  618MOL0     H83417  10.863   4.471   1.600 -2.2856 -0.1363  0.2158
  618MOL0     H83418  10.220   4.498   1.591 -3.7652  1.0552  0.8328
  618MOL0     H83419  10.072   4.623   1.743  1.1392 -1.2668  3.4446
  618MOL0     H83420  10.225   4.972   1.989  0.9472 -3.1444  0.0131
  618MOL0     H83421  10.150   5.022   1.829 -2.7353 -1.1982 -0.9933
  618MOL0     H83422   9.926   4.957   1.936  2.3807 -1.5429 -3.4354
  618MOL0     H83423   9.998   5.122   1.946  1.6797 -0.4465 -3.0772
  618MOL0     H83424  10.083   5.074   2.153 -1.7701  2.6535  1.9067
  618MOL0     H83425   9.987   4.914   2.158  1.2364  0.8764  0.9176
  618MOL0     H83426   9.774   5.028   2.111  1.9693 -1.6305 -0.5812
  618MOL0     H83427   9.859   5.186   2.098  1.6134  1.9045  3.0622
  618MOL0     H83428   9.793   5.108   2.513 -0.8617 -0.9906 -0.6991
  618MOL0     H83429  10.381   4.901   1.830  1.2758  1.2357 -1.2020
  618MOL0     H83430  10.534   4.777   1.670 -0.4490  0.1545 -2.1111
  619MOL0     O83431   0.061   6.523  10.265  0.4973  0.8881 -0.4129
  619MOL0     C83432   0.132   6.619  10.266  0.3683  0.5066 -0.0380
  619MOL0     O83433   0.235   6.637  10.181 -0.1795  0.4644 -0.4180
  619MOL0     C83434   0.269   6.543  10.091 -0.7685  0.6422  0.1241
  619MOL0     C83435   0.364   6.440  10.123  0.3581 -0.0903  0.8356
  619MOL0     C83436   0.406   6.353  10.019 -0.3806  0.6051  0.0008
  619MOL0     C83437   0.354   6.359   9.891  0.4818 -0.1670  0.9478
  619MOL0     O83438   0.399   6.290   9.783 -0.4547  0.7838  0.3561
  619MOL0     C83439   0.429   6.150   9.801  0.9147 -0.1050 -0.7052
  619MOL0     C83440   0.522   6.113   9.699 -1.2263  0.2295  0.9169
  619MOL0     C83441   0.556   5.964   9.711 -0.3634 -0.3421  0.2954
  619MOL0     C83442   0.659   5.915   9.603  0.1106  0.0681 -1.0305
  619MOL0     C83443   0.712   5.776   9.622  0.0216  1.1533 -0.2535
  619MOL0     C83444   0.772   5.737   9.496  0.0083  0.1043 -0.2335
  619MOL0     C83445   0.825   5.589   9.507  0.4331 -0.1430  0.2453
  619MOL0     C83446   0.911   5.548   9.630  0.7829 -0.4157 -0.3671
  619MOL0     N83447   1.050   5.569   9.593 -0.2012 -0.2492 -0.7799
  619MOL0     C83448   1.146   5.662   9.643  0.3246  0.3413 -0.2928
  619MOL0     C83449   1.267   5.619   9.593  0.1080  0.0121  0.2527
  619MOL0     C83450   1.395   5.686   9.616 -0.0817  0.6512 -0.4136
  619MOL0     C83451   1.470   5.724   9.485  0.2729  0.7761 -0.4082
  619MOL0     C83452   1.396   5.839   9.407 -0.1106 -0.1489 -0.2676
  619MOL0     C83453   1.356   5.974   9.484 -0.6552 -0.3179  0.6149
  619MOL0     O83454   1.334   6.078   9.384 -0.1160 -0.0733  0.2621
  619MOL0     C83455   1.315   6.212   9.425  0.5897  0.2670  0.5057
  619MOL0     C83456   1.280   6.299   9.324 -0.2907 -0.0691 -0.0232
  619MOL0     C83457   1.256   6.438   9.346 -0.8047  0.0537 -0.8991
  619MOL0     C83458   1.212   6.514   9.227 -0.9130 -0.5338  0.0472
  619MOL0     C83459   1.283   6.501   9.470 -0.4078 -0.3912 -0.1587
  619MOL0     C83460   1.264   6.646   9.499  0.3454  1.1552 -0.4612
  619MOL0     O83461   1.255   6.735   9.403 -0.9183 -0.1963 -0.0745
  619MOL0     C83462   1.250   6.870   9.436 -1.0050 -0.8536 -0.2444
  619MOL0     C83463   1.136   6.946   9.396 -0.2405 -0.0481  0.2820
  619MOL0     C83464   1.129   7.077   9.414 -0.0434 -0.7409  0.7130
  619MOL0     C83465   1.233   7.155   9.468  0.5587  0.1338  0.4156
  619MOL0     O83466   1.225   7.294   9.461 -1.4457 -0.3038 -0.4585
  619MOL0     C83467   1.333   7.369   9.499 -0.5560  0.0971 -0.4242
  619MOL0     C83468   1.329   7.408   9.651 -0.6484 -0.2437  0.6088
  619MOL0     C83469   1.438   7.333   9.735  0.3641 -0.4188  0.7741
  619MOL0     C83470   1.469   7.406   9.871 -0.0187  0.6169  0.6109
  619MOL0     C83471   1.580   7.340   9.957 -0.3151  0.6629 -0.3983
  619MOL0     C83472   1.578   7.181   9.976  0.2574  0.1177  0.7066
  619MOL0     C83473   1.685   7.116  10.064  0.7874  0.2888  0.6400
  619MOL0     C83474   1.825   7.154  10.023 -0.1841 -1.2465 -0.0889
  619MOL0    Cl83475   1.922   7.130  10.175 -0.4428 -0.0525 -0.0090
  619MOL0     C83476   1.347   7.077   9.505 -0.4189 -0.2377  0.2955
  619MOL0     C83477   1.357   6.941   9.487 -0.5798  0.3757 -0.5359
  619MOL0     O83478   1.254   6.664   9.617  0.1934 -0.2265 -0.3778
  619MOL0     C83479   1.315   6.411   9.574 -0.4757 -0.2054 -0.1160
  619MOL0     C83480   1.337   6.274   9.547  0.6475  0.0356  0.5477
  619MOL0     N83481   1.247   5.503   9.521  0.4841 -0.2771 -0.7567
  619MOL0     N83482   1.121   5.479   9.519  0.8642 -0.3680 -0.3999
  619MOL0     C83483   0.262   6.463   9.858  0.6654  0.4818  0.3031
  619MOL0     C83484   0.215   6.542   9.964 -0.0884 -0.3611  1.0636
  619MOL0     C83485   0.117   6.705  10.389  0.0927  0.1653 -0.0330
  619MOL0     C83486   0.011   6.688  10.472 -0.5064 -0.1523 -1.1192
  619MOL0     C83487  -0.002   6.758  10.590  0.0724 -1.0662 -0.2677
  619MOL0     C83488   0.091   6.856  10.624 -0.0748 -0.3605 -0.2120
  619MOL0     O83489   0.089   6.923  10.746 -0.4294  0.4978 -0.9416
  619MOL0     C83490   0.002   6.867  10.852  0.0355  0.6536  0.4150
  619MOL0     C83491   0.041   6.733  10.918 -0.9347  0.6130 -0.7865
  619MOL0     C83492   0.182   6.712  10.955 -0.0395 -0.0621  0.1783
  619MOL0     C83493   0.264   6.837  11.007  0.1434  0.3511 -0.2618
  619MOL0     C83494   0.186   6.876  11.125  0.1927 -0.6318 -0.7607
  619MOL0     C83495   0.150   6.906  11.237 -0.4610 -0.1923 -0.1843
  619MOL0     C83496   0.201   6.869  10.541 -0.1573 -1.0898 -0.0799
  619MOL0     C83497   0.213   6.794  10.423  0.0484  0.3553  0.3971
  619MOL0     H83498   0.403   6.443  10.225  0.0201 -0.2638  0.9697
  619MOL0     H83499   0.498   6.297  10.036  0.1582  1.7064  0.9078
  619MOL0     H83500   0.471   6.135   9.901 -0.7258  0.8177  0.1799
  619MOL0     H83501   0.337   6.092   9.790  2.3094 -2.2030 -1.9563
  619MOL0     H83502   0.496   6.140   9.596 -0.6207  1.9895  1.1940
  619MOL0     H83503   0.612   6.173   9.716 -0.0657 -0.5930 -1.6902
  619MOL0     H83504   0.594   5.948   9.812 -0.7453  2.4659  0.9602
  619MOL0     H83505   0.458   5.918   9.694 -1.7426  2.5804 -0.2466
  619MOL0     H83506   0.623   5.935   9.502 -0.0756 -2.3491 -1.4929
  619MOL0     H83507   0.744   5.983   9.610 -1.5920  2.1983  4.9219
  619MOL0     H83508   0.783   5.776   9.706 -0.6380 -0.0836  0.3306
  619MOL0     H83509   0.628   5.711   9.648 -1.0290  2.6156  0.0900
  619MOL0     H83510   0.695   5.735   9.418 -2.8989  4.1410  2.1447
  619MOL0     H83511   0.860   5.799   9.475 -0.1853 -0.6903 -4.0129
  619MOL0     H83512   0.735   5.528   9.522  0.2276  0.7088  3.1589
  619MOL0     H83513   0.874   5.567   9.412  2.2275 -1.5201  1.4221
  619MOL0     H83514   0.896   5.439   9.628  0.5838 -0.3828 -1.7635
  619MOL0     H83515   0.880   5.588   9.727  2.9624 -2.2195  1.1923
  619MOL0     H83516   1.140   5.748   9.709 -0.2665 -0.0138  0.1263
  619MOL0     H83517   1.372   5.775   9.674 -1.8402  1.3088 -2.0100
  619MOL0     H83518   1.461   5.616   9.668 -0.3486 -0.2161 -1.1967
  619MOL0     H83519   1.484   5.638   9.418 -1.4326  0.4587 -0.4176
  619MOL0     H83520   1.573   5.750   9.512  0.4513  0.6118 -0.9105
  619MOL0     H83521   1.301   5.803   9.366 -0.9862  1.5483  0.1722
  619MOL0     H83522   1.461   5.857   9.321  1.6067 -0.5871  0.8751
  619MOL0     H83523   1.439   5.991   9.554 -0.9639 -1.0662  1.1725
  619MOL0     H83524   1.267   5.966   9.547 -0.2823 -0.4585  1.1296
  619MOL0     H83525   1.256   6.265   9.223  2.5704 -0.6390 -0.6076
  619MOL0     H83526   1.192   6.448   9.142  1.3580 -0.7109 -0.4208
  619MOL0     H83527   1.122   6.571   9.252 -0.6748 -1.2417  2.7946
  619MOL0     H83528   1.302   6.569   9.195 -0.7352 -0.5896  0.4562
  619MOL0     H83529   1.051   6.901   9.346 -2.6919  3.3175  0.9987
  619MOL0     H83530   1.044   7.136   9.379 -2.0518 -3.1628  1.2342
  619MOL0     H83531   1.427   7.323   9.468  0.3442 -0.8731  3.2635
  619MOL0     H83532   1.325   7.459   9.437  0.3192 -1.8066 -3.4716
  619MOL0     H83533   1.346   7.515   9.670  0.6634 -0.8010  3.0696
  619MOL0     H83534   1.234   7.395   9.704 -0.3540 -0.0133  1.2102
  619MOL0     H83535   1.531   7.327   9.677  1.8485  1.0521  2.8406
  619MOL0     H83536   1.406   7.230   9.753 -2.6267  0.5456  1.3977
  619MOL0     H83537   1.498   7.506   9.839 -2.9048  1.2476 -0.3289
  619MOL0     H83538   1.378   7.416   9.932  0.5616  2.9948  1.1597
  619MOL0     H83539   1.580   7.385  10.057  0.3276 -0.0718 -0.0590
  619MOL0     H83540   1.674   7.373   9.914  0.4648 -1.8645 -0.8379
  619MOL0     H83541   1.483   7.159  10.026  0.0203 -0.9125 -0.1560
  619MOL0     H83542   1.583   7.130   9.879  0.4701  2.1642 -0.4216
  619MOL0     H83543   1.679   7.007  10.056  0.2820  0.3108  0.6818
  619MOL0     H83544   1.669   7.156  10.164  2.1083 -0.6516  1.2562
  619MOL0     H83545   1.834   7.255   9.982 -3.2630 -1.1885 -0.9459
  619MOL0     H83546   1.868   7.088   9.947  0.8208  1.7723 -2.3348
  619MOL0     H83547   1.435   7.130   9.539  2.1683 -2.9522 -1.5951
  619MOL0     H83548   1.445   6.885   9.516 -0.2434  1.5570  0.8597
  619MOL0     H83549   1.337   6.433   9.678 -0.0065 -1.9026  0.1776
  619MOL0     H83550   1.379   6.210   9.624  0.6308  0.3310  0.8052
  619MOL0     H83551   0.223   6.487   9.760  1.4500  3.3910  0.6235
  619MOL0     H83552   0.143   6.615   9.931 -0.5131 -1.4243 -0.4763
  619MOL0     H83553  -0.066   6.616  10.447  0.6069 -1.9745  0.4350
  619MOL0     H83554  -0.090   6.735  10.649  0.2110 -0.4457  0.1917
  619MOL0     H83555   0.018   6.943  10.929  0.5136  0.3470  0.6200
  619MOL0     H83556  -0.104   6.860  10.828  0.6124  1.7198 -3.0057
  619MOL0     H83557   0.013   6.652  10.850 -2.3689  0.7759 -0.4162
  619MOL0     H83558  -0.015   6.710  11.009 -1.3640 -1.4056 -1.5163
  619MOL0     H83559   0.232   6.695  10.860  0.9621  1.7497  0.3287
  619MOL0     H83560   0.205   6.620  11.009  0.9554 -1.2567 -2.1659
  619MOL0     H83561   0.280   6.920  10.937 -1.5651  0.5071 -0.5171
  619MOL0     H83562   0.363   6.801  11.036  0.6537  1.3147 -0.7567
  619MOL0     H83563   0.112   6.953  11.325 -1.5754  0.6406 -1.0972
  619MOL0     H83564   0.280   6.934  10.577 -0.0534 -0.3238 -1.6065
  619MOL0     H83565   0.307   6.808  10.370  0.0054  2.3568  0.7802
  620MOL0     O83566   8.231   0.826   0.810 -0.0876  0.7740 -0.8498
  620MOL0     C83567   8.309   0.836   0.908 -0.4085 -0.2853  0.3879
  620MOL0     O83568   8.327   0.739   0.998  0.0433 -0.7477 -0.0475
  620MOL0     C83569   8.249   0.631   1.009 -0.1447  0.0382  0.0120
  620MOL0     C83570   8.317   0.505   0.992 -0.0865 -0.2294 -1.0110
  620MOL0     C83571   8.247   0.386   0.998 -0.3847 -0.5833 -0.3277
  620MOL0     C83572   8.108   0.385   1.018  0.0886 -0.5457  0.4261
  620MOL0     O83573   8.037   0.268   1.010 -0.2137 -0.0048  0.3775
  620MOL0     C83574   7.892   0.274   1.019  0.2434 -0.3663 -0.3400
  620MOL0     C83575   7.803   0.147   1.010 -0.2343 -0.0357  0.8270
  620MOL0     C83576   7.763   0.107   0.875 -0.0806  0.6567  0.2929
  620MOL0     C83577   7.662  -0.004   0.884  0.3563  0.1713 -0.2886
  620MOL0     C83578   7.612  -0.040   0.744 -0.6593 -0.8356  0.4924
  620MOL0     C83579   7.535  -0.167   0.730 -0.1943  0.2394  0.0675
  620MOL0     C83580   7.599  -0.276   0.823  0.3354 -0.6171 -0.6455
  620MOL0     C83581   7.551  -0.421   0.796  0.7281 -0.0379 -0.3558
  620MOL0     N83582   7.585  -0.461   0.656 -0.8396 -0.2366  1.1434
  620MOL0     C83583   7.715  -0.450   0.605 -0.0406  0.2301  0.1328
  620MOL0     C83584   7.707  -0.431   0.468  0.0979  0.3603 -0.9125
  620MOL0     C83585   7.817  -0.409   0.365 -0.4089  0.4631 -1.0747
  620MOL0     C83586   7.956  -0.416   0.422  0.4904  0.4785 -0.3930
  620MOL0     C83587   8.053  -0.317   0.360 -0.2692 -0.0661 -0.7619
  620MOL0     C83588   8.194  -0.303   0.427  0.1502  0.2711  0.6570
  620MOL0     O83589   8.266  -0.416   0.469  0.6447  0.2287 -0.2784
  620MOL0     C83590   8.350  -0.400   0.581  0.1361  0.2970 -0.6968
  620MOL0     C83591   8.395  -0.521   0.625 -0.2744  0.2973  0.1643
  620MOL0     C83592   8.504  -0.522   0.719 -0.2523 -0.2510 -0.6169
  620MOL0     C83593   8.538  -0.658   0.767 -0.2263 -0.0359  0.3255
  620MOL0     C83594   8.567  -0.395   0.759 -0.1216  0.8467  0.1464
  620MOL0     C83595   8.686  -0.385   0.854 -0.2350  1.3050  0.1344
  620MOL0     O83596   8.756  -0.511   0.886  0.1624  0.5717  0.6917
  620MOL0     C83597   8.888  -0.502   0.912  0.0251  0.4520 -0.2038
  620MOL0     C83598   8.943  -0.442   1.018 -0.1420  0.1670  0.2977
  620MOL0     C83599   9.085  -0.442   1.028  0.2689 -0.6987  0.0560
  620MOL0     C83600   9.167  -0.521   0.955  0.2691 -0.5951 -0.7011
  620MOL0     O83601   9.302  -0.545   0.981  0.7704  0.1369 -0.1956
  620MOL0     C83602   9.344  -0.525   1.118  0.1308  0.0400  0.1753
  620MOL0     C83603   9.484  -0.580   1.153  0.5790  0.4621 -0.5947
  620MOL0     C83604   9.528  -0.571   1.304 -0.3275  0.2557  0.4007
  620MOL0     C83605   9.519  -0.711   1.358 -0.0247 -0.5527 -0.4892
  620MOL0     C83606   9.533  -0.702   1.508 -0.7173  0.0213  0.1550
  620MOL0     C83607   9.679  -0.684   1.557 -0.5370  0.4094  0.2174
  620MOL0     C83608   9.703  -0.741   1.696  0.5602 -0.2171  0.3243
  620MOL0     C83609   9.649  -0.644   1.803 -0.3099  0.4154 -0.1865
  620MOL0    Cl83610   9.677  -0.715   1.964 -0.0447 -0.3941  0.2709
  620MOL0     C83611   9.117  -0.591   0.848  0.5642  0.7934 -0.5334
  620MOL0     C83612   8.979  -0.575   0.826  0.1073 -0.7254  0.4361
  620MOL0     O83613   8.720  -0.273   0.894 -0.0421 -0.6892 -0.2771
  620MOL0     C83614   8.502  -0.274   0.724  0.0825  0.0444 -0.7030
  620MOL0     C83615   8.394  -0.275   0.632 -1.1392  0.1265  0.5238
  620MOL0     N83616   7.570  -0.426   0.434 -0.3894  0.2478 -0.2025
  620MOL0     N83617   7.506  -0.448   0.542 -0.3983  0.5664  0.4653
  620MOL0     C83618   8.040   0.517   1.035  0.1583 -0.2978  0.2885
  620MOL0     C83619   8.112   0.633   1.030  0.5116 -0.2636  1.5833
  620MOL0     C83620   8.376   0.967   0.925 -0.3841 -0.3751 -0.4079
  620MOL0     C83621   8.452   0.998   1.040  0.9508  0.0701 -0.0080
  620MOL0     C83622   8.510   1.129   1.054  0.5872  0.1737 -1.4007
  620MOL0     C83623   8.503   1.223   0.959  0.3089 -0.7712  0.2641
  620MOL0     O83624   8.572   1.344   0.974  0.2211  0.3522 -0.0305
  620MOL0     C83625   8.565   1.446   0.872 -0.2770  0.1755  1.0889
  620MOL0     C83626   8.682   1.539   0.856  0.2822 -0.0644  0.0372
  620MOL0     C83627   8.676   1.640   0.737 -0.4128 -0.0840 -0.3530
  620MOL0     C83628   8.779   1.757   0.741  0.0358  0.0711 -0.2178
  620MOL0     C83629   8.925   1.719   0.724 -1.1503  0.7082  0.3452
  620MOL0     C83630   9.027   1.672   0.688 -0.1427  1.1427  0.4047
  620MOL0     C83631   8.433   1.192   0.842  0.3287 -0.7269  0.7405
  620MOL0     C83632   8.371   1.069   0.832 -0.0570  0.1215  0.4504
  620MOL0     H83633   8.425   0.512   0.980  0.1138 -2.3704 -0.7881
  620MOL0     H83634   8.298   0.290   1.001  0.2592 -0.2317  0.4826
  620MOL0     H83635   7.866   0.330   1.109  1.5811  0.1297 -0.2409
  620MOL0     H83636   7.867   0.330   0.928  1.1732 -0.4362 -0.6508
  620MOL0     H83637   7.863   0.068   1.056  0.8155  1.0885  1.4543
  620MOL0     H83638   7.714   0.170   1.070 -0.6729  2.6690 -0.7146
  620MOL0     H83639   7.717   0.191   0.821 -2.4523  0.3184  1.6864
  620MOL0     H83640   7.860   0.082   0.831  0.2212 -2.2650  2.3694
  620MOL0     H83641   7.731  -0.083   0.915  0.1862 -0.1146 -0.6219
  620MOL0     H83642   7.577   0.016   0.950  0.1515  1.2680 -0.8638
  620MOL0     H83643   7.542   0.032   0.701  0.4646 -1.2269 -2.1416
  620MOL0     H83644   7.707  -0.042   0.690  0.0339 -1.3583  1.6849
  620MOL0     H83645   7.429  -0.142   0.739 -0.5551 -0.0931 -2.4778
  620MOL0     H83646   7.561  -0.207   0.631  1.0775  1.5305 -0.1718
  620MOL0     H83647   7.708  -0.282   0.815  0.3197 -0.6276 -0.8592
  620MOL0     H83648   7.577  -0.248   0.927  1.4182 -1.0812 -0.2824
  620MOL0     H83649   7.444  -0.436   0.811  0.6191  1.1131  0.0625
  620MOL0     H83650   7.602  -0.477   0.875  0.4604  0.1054 -0.0772
  620MOL0     H83651   7.805  -0.463   0.664 -1.5199 -0.8114  2.3051
  620MOL0     H83652   7.813  -0.483   0.285  0.0273  1.6101 -2.1846
  620MOL0     H83653   7.804  -0.308   0.326 -3.9148  0.4429 -0.2376
  620MOL0     H83654   7.988  -0.521   0.419 -2.3404 -0.4818 -0.7393
  620MOL0     H83655   7.961  -0.388   0.528 -1.1393 -1.0444  0.1379
  620MOL0     H83656   8.016  -0.214   0.360  0.3374  0.1650 -1.6475
  620MOL0     H83657   8.087  -0.349   0.261 -1.4324 -0.1943 -1.1320
  620MOL0     H83658   8.161  -0.241   0.510 -0.5476 -0.1319  0.6899
  620MOL0     H83659   8.267  -0.253   0.362  1.6687  2.9018  4.0489
  620MOL0     H83660   8.347  -0.612   0.591 -3.9776  1.0388  2.8015
  620MOL0     H83661   8.554  -0.663   0.875  1.5303  0.9987  0.1438
  620MOL0     H83662   8.471  -0.738   0.733 -1.4788  1.0158  0.2149
  620MOL0     H83663   8.635  -0.670   0.718  1.5567  2.3590  2.9063
  620MOL0     H83664   8.877  -0.378   1.075 -0.0482  1.6701 -1.2026
  620MOL0     H83665   9.118  -0.382   1.113 -0.4152 -2.7164  1.8457
  620MOL0     H83666   9.346  -0.417   1.135 -3.8824  0.2750  0.0516
  620MOL0     H83667   9.261  -0.571   1.171 -0.5535 -0.5118 -1.2987
  620MOL0     H83668   9.470  -0.685   1.124 -3.1232 -0.8678  4.5214
  620MOL0     H83669   9.555  -0.530   1.087  0.0103  1.2395 -0.6275
  620MOL0     H83670   9.456  -0.511   1.359 -3.0921 -1.5194 -1.0187
  620MOL0     H83671   9.631  -0.535   1.314 -0.2997  0.2657  0.0889
  620MOL0     H83672   9.421  -0.756   1.340 -0.4420 -0.2547  0.9185
  620MOL0     H83673   9.589  -0.784   1.314 -2.5156 -2.2024 -1.9611
  620MOL0     H83674   9.501  -0.798   1.551 -1.4269 -0.5376 -1.5531
  620MOL0     H83675   9.465  -0.635   1.562 -0.7046  0.6347 -0.5814
  620MOL0     H83676   9.737  -0.749   1.491 -0.2306 -1.4707  2.1777
  620MOL0     H83677   9.716  -0.582   1.552  0.6861 -0.0519 -0.4651
  620MOL0     H83678   9.812  -0.756   1.702  0.5900 -0.2638 -0.2772
  620MOL0     H83679   9.663  -0.842   1.710 -2.5782  0.5599 -2.0402
  620MOL0     H83680   9.540  -0.638   1.791 -0.4469 -1.3010  0.0128
  620MOL0     H83681   9.694  -0.544   1.799  4.7177 -1.5096  0.8418
  620MOL0     H83682   9.171  -0.665   0.789 -1.0031 -2.5090  1.8886
  620MOL0     H83683   8.929  -0.637   0.752 -2.1297  1.2223  0.2013
  620MOL0     H83684   8.552  -0.181   0.751 -0.1492 -0.4613  1.6521
  620MOL0     H83685   8.349  -0.186   0.590  1.7010  1.1776 -0.5203
  620MOL0     H83686   7.932   0.522   1.046  0.0660  1.5611 -0.9267
  620MOL0     H83687   8.064   0.729   1.042 -1.5820 -1.2007  1.1722
  620MOL0     H83688   8.462   0.930   1.124 -0.0581 -0.4689 -0.3034
  620MOL0     H83689   8.562   1.163   1.143 -0.7145  0.3378 -0.6770
  620MOL0     H83690   8.563   1.393   0.776 -1.4167  0.1039  1.1362
  620MOL0     H83691   8.464   1.490   0.879  0.4498  1.7646  2.2626
  620MOL0     H83692   8.778   1.486   0.847  0.5953  0.0257  2.2770
  620MOL0     H83693   8.683   1.593   0.951 -0.5791  0.1053 -0.0500
  620MOL0     H83694   8.580   1.693   0.739  0.8060  2.2384 -0.2803
  620MOL0     H83695   8.703   1.583   0.647 -0.4579 -1.2596  0.3547
  620MOL0     H83696   8.758   1.826   0.823  0.6739 -0.2465  0.2282
  620MOL0     H83697   8.756   1.816   0.652 -3.7269 -1.3802 -0.3935
  620MOL0     H83698   9.112   1.628   0.640  0.7076  2.7001  0.3920
  620MOL0     H83699   8.416   1.249   0.751  0.6260  1.7680  2.1447
  620MOL0     H83700   8.317   1.055   0.739 -0.6074 -0.6436  0.8679
  621MOL0     O83701   4.061  10.731   2.736  1.0009  0.2763  0.2102
  621MOL0     C83702   4.098  10.841   2.680  0.5225 -0.0463 -0.8180
  621MOL0     O83703   4.225  10.882   2.657  0.3600  1.1681  0.1986
  621MOL0     C83704   4.330  10.793   2.688  0.2888 -0.1432 -0.0662
  621MOL0     C83705   4.442  10.840   2.749  0.3046 -0.1945  0.0711
  621MOL0     C83706   4.547  10.756   2.790 -0.4101  0.5539  0.1343
  621MOL0     C83707   4.542  10.616   2.762 -0.2085 -0.8428 -0.3004
  621MOL0     O83708   4.639  10.524   2.791 -0.3141  0.4186  0.4157
  621MOL0     C83709   4.771  10.564   2.808  0.4587 -0.2993 -0.0934
  621MOL0     C83710   4.862  10.444   2.805  0.0495 -0.1889  0.6748
  621MOL0     C83711   4.849  10.359   2.931  0.6182 -0.5069  0.0100
  621MOL0     C83712   4.950  10.239   2.914  0.6448 -1.2651 -0.9534
  621MOL0     C83713   4.907  10.117   2.991  0.8575 -0.4219  1.1587
  621MOL0     C83714   4.995   9.995   2.999 -0.0364 -0.2987  0.7005
  621MOL0     C83715   5.015   9.917   2.865  0.2333  0.3735 -0.1057
  621MOL0     C83716   5.136   9.810   2.864 -0.0530  0.2866 -0.7456
  621MOL0     N83717   5.095   9.674   2.835  0.1611  0.0814  0.3671
  621MOL0     C83718   5.020   9.591   2.912  0.3784  0.1908 -0.3427
  621MOL0     C83719   5.021   9.475   2.837 -0.3145  1.0577 -1.1303
  621MOL0     C83720   4.962   9.337   2.875  0.6332  1.0765 -1.2277
  621MOL0     C83721   5.039   9.244   2.981 -0.0253 -0.7679  0.2500
  621MOL0     C83722   4.947   9.127   3.035  0.3971 -0.7637  0.0226
  621MOL0     C83723   4.978   9.046   3.155  0.7127  0.2959 -0.1959
  621MOL0     O83724   5.121   9.014   3.151  0.0907 -0.6520  1.0491
  621MOL0     C83725   5.171   8.950   3.258  0.2304  0.2208 -0.1537
  621MOL0     C83726   5.102   8.922   3.376  0.3311 -0.3564  0.3721
  621MOL0     C83727   5.169   8.865   3.485  0.7674 -0.1610  0.0557
  621MOL0     C83728   5.079   8.842   3.602 -0.0943  0.0757  0.5662
  621MOL0     C83729   5.307   8.830   3.473  0.8808  0.4358  0.0831
  621MOL0     C83730   5.390   8.758   3.577  1.0988 -0.0213 -0.1523
  621MOL0     O83731   5.514   8.733   3.547 -0.5594 -0.5068 -0.1380
  621MOL0     C83732   5.599   8.678   3.637 -1.1982  1.2375  0.1885
  621MOL0     C83733   5.680   8.762   3.716 -0.2492  0.5414  0.1079
  621MOL0     C83734   5.756   8.700   3.818 -0.1683 -0.9263  0.6152
  621MOL0     C83735   5.768   8.563   3.841 -0.6593 -0.3015  0.5085
  621MOL0     O83736   5.868   8.536   3.931  0.5653 -0.2849  0.8781
  621MOL0     C83737   5.816   8.528   4.067 -0.1398  0.3659 -0.9894
  621MOL0     C83738   5.914   8.442   4.154  0.2507 -0.2386  0.1584
  621MOL0     C83739   5.945   8.310   4.092  1.0404  0.7018  0.7140
  621MOL0     C83740   6.039   8.241   4.185 -1.1429  0.0986  0.0460
  621MOL0     C83741   6.059   8.109   4.123 -0.2056 -0.2795  0.9711
  621MOL0     C83742   6.160   8.014   4.191 -0.2976  0.4282  0.6444
  621MOL0     C83743   6.157   7.882   4.116 -0.2473  0.5003 -0.2031
  621MOL0     C83744   6.187   7.888   3.970  0.9692 -0.1002  0.3387
  621MOL0    Cl83745   6.152   7.734   3.900  0.1329 -0.1522 -0.5002
  621MOL0     C83746   5.697   8.479   3.751  0.2246  0.5744  0.5421
  621MOL0     C83747   5.606   8.539   3.658 -0.8948 -0.6737 -1.0441
  621MOL0     O83748   5.335   8.747   3.687 -0.7223  0.0670  0.0232
  621MOL0     C83749   5.372   8.857   3.353 -0.1802 -0.3273  0.7650
  621MOL0     C83750   5.304   8.924   3.250  0.6392 -0.9835 -0.7143
  621MOL0     N83751   5.082   9.496   2.714  0.3516  0.3278  0.9902
  621MOL0     N83752   5.119   9.616   2.712  0.2118 -0.0595 -0.7114
  621MOL0     C83753   4.434  10.575   2.692  0.4733 -0.3760  0.1109
  621MOL0     C83754   4.329  10.659   2.652 -0.6801 -0.4540 -0.4022
  621MOL0     C83755   3.981  10.929   2.642  0.2556 -0.9569  0.3359
  621MOL0     C83756   3.852  10.885   2.634  0.4982 -0.4048 -0.4524
  621MOL0     C83757   3.759  10.980   2.592  0.0989  0.8980 -0.3217
  621MOL0     C83758   3.779  11.109   2.555 -0.4623  0.1716 -0.4991
  621MOL0     O83759   3.672  11.201   2.514 -0.5599 -0.1137  0.1483
  621MOL0     C83760   3.551  11.149   2.467  0.4057  0.5126  0.2528
  621MOL0     C83761   3.440  11.196   2.552  0.7391 -0.1497 -0.3191
  621MOL0     C83762   3.451  11.112   2.681 -0.2508  0.0398  0.0440
  621MOL0     C83763   3.345  11.174   2.785 -0.1057  0.7435 -0.4583
  621MOL0     C83764   3.389  11.303   2.853  1.1348  0.5895  0.4887
  621MOL0     C83765   3.438  11.402   2.908  0.3947  0.8586 -0.7565
  621MOL0     C83766   3.916  11.151   2.559 -0.1717 -0.7038 -0.2386
  621MOL0     C83767   4.014  11.063   2.603  0.0725  0.5418 -0.2857
  621MOL0     H83768   4.439  10.945   2.776 -0.6555 -0.0985 -0.3501
  621MOL0     H83769   4.636  10.792   2.841  2.3868  2.8917 -5.4095
  621MOL0     H83770   4.795  10.629   2.723 -2.4409  1.0127 -0.0296
  621MOL0     H83771   4.788  10.624   2.898  1.2607 -0.0689 -0.3961
  621MOL0     H83772   4.841  10.385   2.715  2.9139  1.4845 -1.2924
  621MOL0     H83773   4.967  10.475   2.796 -0.2220  0.4715 -0.5795
  621MOL0     H83774   4.872  10.421   3.018  0.3494  2.4047 -1.8757
  621MOL0     H83775   4.741  10.341   2.934  0.4619  0.3348  3.6296
  621MOL0     H83776   4.940  10.203   2.811 -0.3396 -3.4198 -0.1675
  621MOL0     H83777   5.049  10.274   2.942  0.5336 -1.5860 -0.1371
  621MOL0     H83778   4.900  10.154   3.094  0.2719  1.2772  0.5352
  621MOL0     H83779   4.804  10.087   2.974  0.6513  0.3420  1.0206
  621MOL0     H83780   5.096  10.030   3.025  0.1572 -1.8827  2.2223
  621MOL0     H83781   4.945   9.927   3.068 -1.8982  0.9228  0.6311
  621MOL0     H83782   4.925   9.868   2.828 -2.6381  2.9372  2.9093
  621MOL0     H83783   5.010   9.991   2.785 -2.0661  0.1809 -0.2117
  621MOL0     H83784   5.190   9.811   2.959  2.6185 -0.6607 -2.1614
  621MOL0     H83785   5.212   9.839   2.792  3.5960  0.5651  2.8764
  621MOL0     H83786   4.973   9.612   3.008 -2.5744 -0.9963 -1.4153
  621MOL0     H83787   4.858   9.353   2.906  0.9947 -2.3755  2.5586
  621MOL0     H83788   4.957   9.277   2.784 -2.0685 -2.6397  1.0706
  621MOL0     H83789   5.077   9.310   3.059  0.7824 -0.4977 -0.3593
  621MOL0     H83790   5.131   9.214   2.931  0.3947  1.5566 -0.5074
  621MOL0     H83791   4.933   9.055   2.954 -2.8549  0.0034 -0.2442
  621MOL0     H83792   4.852   9.180   3.041 -0.1952 -1.5048 -1.9343
  621MOL0     H83793   4.922   8.953   3.159  2.8842 -1.1705 -1.6087
  621MOL0     H83794   4.961   9.104   3.246  0.4291 -1.6091  1.0081
  621MOL0     H83795   5.002   8.962   3.385 -0.1076 -0.4548 -2.8575
  621MOL0     H83796   4.973   8.860   3.584 -0.3776 -1.2476  0.7938
  621MOL0     H83797   5.097   8.746   3.653  1.3501  2.3587  4.8447
  621MOL0     H83798   5.110   8.909   3.683  3.6242  1.2431 -1.5572
  621MOL0     H83799   5.692   8.870   3.714  0.6032  0.4532 -2.1548
  621MOL0     H83800   5.814   8.767   3.882 -1.7084 -0.2256  1.3297
  621MOL0     H83801   5.809   8.631   4.104  1.6422 -0.6753  2.7782
  621MOL0     H83802   5.716   8.484   4.066  0.5121 -1.1343 -1.4413
  621MOL0     H83803   5.999   8.500   4.192  0.7467  0.6027 -2.0381
  621MOL0     H83804   5.847   8.424   4.238  0.3468 -1.1689  0.0399
  621MOL0     H83805   5.988   8.313   3.992  1.2160 -1.2671  0.6965
  621MOL0     H83806   5.851   8.254   4.081  1.6172 -0.8582  3.0071
  621MOL0     H83807   6.131   8.294   4.214 -1.3142 -0.8855  2.6886
  621MOL0     H83808   5.995   8.224   4.284  0.6842 -0.2659  0.8449
  621MOL0     H83809   6.107   8.117   4.025  1.1276  0.3846  1.6615
  621MOL0     H83810   5.960   8.065   4.105 -0.6914  0.8197  0.8697
  621MOL0     H83811   6.257   8.063   4.195 -0.4220  0.7837 -0.4528
  621MOL0     H83812   6.129   8.008   4.296 -0.1732 -2.0620  0.6076
  621MOL0     H83813   6.060   7.832   4.127  0.5136 -0.8294  0.6871
  621MOL0     H83814   6.232   7.816   4.161 -0.1719 -0.8525 -2.1627
  621MOL0     H83815   6.286   7.923   3.939  0.9034 -2.0999 -2.5832
  621MOL0     H83816   6.122   7.958   3.916  3.1933  1.3967 -0.5355
  621MOL0     H83817   5.699   8.371   3.766 -0.6828  0.2009 -1.5663
  621MOL0     H83818   5.542   8.470   3.605  0.3735 -1.9368 -1.0072
  621MOL0     H83819   5.478   8.846   3.334 -0.1631  0.2514  0.4994
  621MOL0     H83820   5.350   8.946   3.154 -1.0387 -2.4922 -1.9357
  621MOL0     H83821   4.428  10.467   2.688  3.6307 -0.6392  0.0632
  621MOL0     H83822   4.237  10.613   2.619 -1.6274  2.8996 -2.9318
  621MOL0     H83823   3.828  10.783   2.662 -0.8928 -0.4832 -1.7652
  621MOL0     H83824   3.657  10.944   2.581 -0.2284  2.3629 -3.0188
  621MOL0     H83825   3.544  11.173   2.361 -1.8689  0.6218  0.3751
  621MOL0     H83826   3.556  11.040   2.460 -0.6236  0.4626  0.1542
  621MOL0     H83827   3.344  11.192   2.501 -0.0015  2.5811  0.6566
  621MOL0     H83828   3.457  11.304   2.562  1.0936 -0.0601 -1.6837
  621MOL0     H83829   3.550  11.125   2.725 -0.4796  1.3266  0.2105
  621MOL0     H83830   3.437  11.006   2.657  1.5521  0.2905 -2.6333
  621MOL0     H83831   3.341  11.094   2.859 -4.7728  1.5372  0.4887
  621MOL0     H83832   3.249  11.184   2.733 -0.0178  0.2321 -0.7169
  621MOL0     H83833   3.478  11.487   2.960 -1.4405  1.7605 -0.7405
  621MOL0     H83834   3.934  11.257   2.545 -1.7341 -0.6616 -2.2084
  621MOL0     H83835   4.116  11.096   2.618 -0.3303  1.2395  1.0504
  622MOL0     O83836  11.022  10.240   1.749  0.5653 -0.7577 -0.1314
  622MOL0     C83837  10.925  10.224   1.829 -1.2291  0.3885  0.4026
  622MOL0     O83838  10.864  10.322   1.892  0.5844 -0.1381 -0.1241
  622MOL0     C83839  10.891  10.457   1.864 -0.0230 -0.3895  0.8275
  622MOL0     C83840  10.784  10.548   1.859 -0.3527  0.6227  0.5984
  622MOL0     C83841  10.804  10.689   1.841 -0.3863 -0.3981 -0.2420
  622MOL0     C83842  10.941  10.737   1.835  0.2864 -0.4892  0.0308
  622MOL0     O83843  10.985  10.868   1.811  0.1217  0.2629  0.9247
  622MOL0     C83844  10.888  10.965   1.775 -0.2922  0.4230  0.3231
  622MOL0     C83845  10.950  11.099   1.774 -0.1934  0.3535 -0.9127
  622MOL0     C83846  10.854  11.200   1.727  0.5931 -0.5525  0.6014
  622MOL0     C83847  10.924  11.329   1.683  0.4610 -0.2598  0.1928
  622MOL0     C83848  10.952  11.435   1.790 -0.2421  1.0839 -0.2643
  622MOL0     C83849  11.038  11.550   1.744 -0.3118  0.8087 -0.1436
  622MOL0     C83850  11.091  11.634   1.868  0.1061 -0.2473 -0.6538
  622MOL0     C83851  11.179  11.560   1.966 -0.8563  0.4400  0.0702
  622MOL0     N83852  11.302  11.513   1.898 -0.6385 -0.6435 -0.7333
  622MOL0     C83853  11.404  11.603   1.867 -1.2083 -0.3084  0.5913
  622MOL0     C83854  11.509  11.530   1.830 -0.0545  0.2547  0.5773
  622MOL0     C83855  11.639  11.554   1.767 -0.3771  0.7612  0.3324
  622MOL0     C83856  11.748  11.448   1.798 -0.3398 -0.8027  0.7115
  622MOL0     C83857  11.871  11.496   1.718  0.3797  0.0147 -0.0396
  622MOL0     C83858  11.872  11.492   1.571 -0.7393  1.0704 -0.8081
  622MOL0     O83859  11.849  11.361   1.524  0.3617  0.6526  0.0913
  622MOL0     C83860  11.884  11.336   1.392 -0.5010 -1.2952  0.1800
  622MOL0     C83861  11.872  11.439   1.293 -0.5776  0.0622 -0.6089
  622MOL0     C83862  11.891  11.400   1.159  0.2053 -0.3540 -0.0924
  622MOL0     C83863  11.870  11.510   1.068 -0.2451  0.4828  0.5298
  622MOL0     C83864  11.916  11.264   1.117 -0.2582  0.4587  0.5655
  622MOL0     C83865  11.935  11.211   0.970 -0.5825 -0.9292 -0.4301
  622MOL0     O83866  11.891  11.270   0.861 -0.4177 -0.2003 -0.2742
  622MOL0     C83867  11.858  11.198   0.746  0.0756  0.9816 -0.2633
  622MOL0     C83868  11.794  11.071   0.755  0.8530  0.6233 -0.1022
  622MOL0     C83869  11.744  11.008   0.642 -0.1819 -0.6552  1.0572
  622MOL0     C83870  11.755  11.078   0.516 -0.3821  0.9491 -0.3449
  622MOL0     O83871  11.697  11.033   0.396 -0.2567 -0.0844 -0.5596
  622MOL0     C83872  11.616  10.911   0.388  0.3341 -0.0362 -0.5625
  622MOL0     C83873  11.565  10.903   0.235 -0.6834  0.0062  0.7413
  622MOL0     C83874  11.686  10.883   0.140 -1.3013  0.1087  0.2645
  622MOL0     C83875  11.692  10.739   0.073  1.2604 -0.7828 -0.3017
  622MOL0     C83876  11.799  10.724  -0.036 -0.3144  0.7003 -0.4319
  622MOL0     C83877  11.943  10.735   0.010 -0.8387  0.6269  0.1947
  622MOL0     C83878  12.043  10.675  -0.098 -0.0388 -0.1761 -0.2840
  622MOL0     C83879  12.196  10.687  -0.058  0.0281  0.4235 -0.3843
  622MOL0    Cl83880  12.259  10.852  -0.081  0.1928 -0.0391 -0.1251
  622MOL0     C83881  11.812  11.204   0.507  0.8490  0.3740  0.3819
  622MOL0     C83882  11.865  11.267   0.617  0.2016 -0.1219 -0.8135
  622MOL0     O83883  11.995  11.107   0.968 -0.2622 -0.3827  0.1256
  622MOL0     C83884  11.911  11.172   1.219 -0.1998 -0.3231 -0.3037
  622MOL0     C83885  11.904  11.205   1.358  0.7829 -0.5565  0.6231
  622MOL0     N83886  11.469  11.401   1.842 -0.3981 -1.0925  0.2158
  622MOL0     N83887  11.346  11.386   1.892 -0.4275 -1.0034  0.6855
  622MOL0     C83888  11.042  10.644   1.840  0.8896 -0.0329  0.2334
  622MOL0     C83889  11.022  10.511   1.850 -0.3501  0.7062  0.0150
  622MOL0     C83890  10.898  10.081   1.871 -0.2178 -0.0248  0.3619
  622MOL0     C83891  10.912   9.971   1.782  0.1033  0.2068 -0.3039
  622MOL0     C83892  10.890   9.845   1.824 -0.2539 -0.3301  0.4421
  622MOL0     C83893  10.848   9.811   1.953 -1.2349 -0.4785  0.8816
  622MOL0     O83894  10.823   9.680   1.991 -0.5655  0.9422  0.0494
  622MOL0     C83895  10.717   9.640   2.080  0.6899 -0.5584  1.0451
  622MOL0     C83896  10.578   9.692   2.032  0.7921  0.2048  0.9592
  622MOL0     C83897  10.509   9.608   1.921 -0.6186  0.3556  0.1057
  622MOL0     C83898  10.453   9.479   1.972  0.7549 -0.3018 -0.0366
  622MOL0     C83899  10.342   9.502   2.070 -0.4635  0.6900 -0.4742
  622MOL0     C83900  10.249   9.527   2.147 -0.3926 -1.1177 -0.1287
  622MOL0     C83901  10.821   9.922   2.037  0.2369 -1.3389 -0.5641
  622MOL0     C83902  10.858  10.050   2.001 -0.6836 -0.8546  0.2251
  622MOL0     H83903  10.681  10.517   1.848 -0.2941  1.2082 -2.7546
  622MOL0     H83904  10.721  10.759   1.835 -0.1952 -0.1349  0.1172
  622MOL0     H83905  10.843  10.940   1.678 -2.1491  1.9827  0.7171
  622MOL0     H83906  10.810  10.963   1.851  1.0390  1.1305  1.7562
  622MOL0     H83907  10.976  11.120   1.878 -0.2352 -2.9028 -0.1204
  622MOL0     H83908  11.032  11.077   1.705 -0.3847 -4.6148  0.0430
  622MOL0     H83909  10.800  11.164   1.639 -4.7441  0.2908  3.1038
  622MOL0     H83910  10.777  11.222   1.802 -0.1701 -1.3705  0.0846
  622MOL0     H83911  11.023  11.295   1.651 -0.5842 -2.6222 -0.8265
  622MOL0     H83912  10.872  11.379   1.601 -1.1273  0.8320  1.8052
  622MOL0     H83913  10.848  11.469   1.803 -0.3707  1.7622 -2.5763
  622MOL0     H83914  10.997  11.388   1.878  2.6483  0.5551 -1.8930
  622MOL0     H83915  11.128  11.510   1.697 -0.4501 -1.7857  1.5405
  622MOL0     H83916  10.985  11.614   1.674  1.6949  2.4196 -0.2946
  622MOL0     H83917  11.134  11.732   1.843  0.3545 -0.0122  0.6421
  622MOL0     H83918  11.000  11.656   1.925  0.3858  1.8058 -0.9190
  622MOL0     H83919  11.124  11.472   2.000 -1.7210  0.6238 -0.7913
  622MOL0     H83920  11.203  11.635   2.042  0.3778  0.2823 -0.1466
  622MOL0     H83921  11.384  11.710   1.874 -2.2365 -0.5880  2.8207
  622MOL0     H83922  11.614  11.549   1.661  0.5129  0.8292  0.1127
  622MOL0     H83923  11.677  11.654   1.789  0.7063  0.3151  0.5366
  622MOL0     H83924  11.726  11.347   1.762  2.2029 -1.5000  0.9497
  622MOL0     H83925  11.766  11.440   1.906  0.5157  0.1108  0.6518
  622MOL0     H83926  11.952  11.424   1.737 -0.5335 -2.6732 -4.8445
  622MOL0     H83927  11.901  11.591   1.763  1.2369  0.3218 -1.2231
  622MOL0     H83928  11.973  11.510   1.533  0.2003 -1.4845  0.2830
  622MOL0     H83929  11.804  11.566   1.527 -1.7140  2.3731  2.5911
  622MOL0     H83930  11.834  11.539   1.311 -3.2621 -0.2104 -3.8607
  622MOL0     H83931  11.888  11.605   1.119 -0.4196  0.8783 -0.1311
  622MOL0     H83932  11.953  11.516   0.997 -0.7535  0.1089 -0.1104
  622MOL0     H83933  11.773  11.491   1.022 -0.8359  0.2275  1.8351
  622MOL0     H83934  11.775  11.019   0.848 -1.5805 -1.8196 -1.7982
  622MOL0     H83935  11.708  10.905   0.644 -0.3981 -0.7618 -2.5270
  622MOL0     H83936  11.665  10.819   0.419  0.7198  0.5755  0.7342
  622MOL0     H83937  11.530  10.920   0.455 -1.1044 -3.1265 -1.8291
  622MOL0     H83938  11.484  10.831   0.223 -0.6498  0.2464 -1.2496
  622MOL0     H83939  11.514  10.994   0.204 -0.0073 -0.4791 -2.0167
  622MOL0     H83940  11.779  10.896   0.196  0.2363 -2.3961 -1.5127
  622MOL0     H83941  11.684  10.958   0.060 -1.5082 -1.8052 -1.6357
  622MOL0     H83942  11.699  10.660   0.148  1.4359 -1.6129 -1.1764
  622MOL0     H83943  11.597  10.738   0.018 -0.4852  1.4540  2.3995
  622MOL0     H83944  11.787  10.790  -0.122  0.4226 -2.6289 -3.3458
  622MOL0     H83945  11.775  10.628  -0.083  0.5156  1.0798 -1.6523
  622MOL0     H83946  11.963  10.842   0.016  0.4219  0.4495 -0.4863
  622MOL0     H83947  11.960  10.697   0.111 -0.5225  1.1890  0.3550
  622MOL0     H83948  12.028  10.712  -0.200  1.2874 -2.4889 -1.3977
  622MOL0     H83949  12.017  10.569  -0.095  0.1044 -0.2776 -1.6980
  622MOL0     H83950  12.244  10.613  -0.122 -1.3940 -1.9398  1.1345
  622MOL0     H83951  12.209  10.653   0.045  2.2145 -0.8472 -1.0281
  622MOL0     H83952  11.805  11.261   0.414  0.7605  1.5035  1.0589
  622MOL0     H83953  11.882  11.374   0.616 -2.1048  0.5329  3.6291
  622MOL0     H83954  11.902  11.067   1.194 -0.5877 -0.8699  1.9095
  622MOL0     H83955  11.901  11.135   1.441  2.6114 -0.2533  1.0007
  622MOL0     H83956  11.140  10.690   1.845 -0.8902  4.1534  1.9666
  622MOL0     H83957  11.111  10.450   1.839 -1.1310 -0.5848  0.7196
  622MOL0     H83958  10.939   9.993   1.679 -3.1145  0.3555 -1.2320
  622MOL0     H83959  10.912   9.756   1.766 -0.5540  0.3721 -0.7777
  622MOL0     H83960  10.716   9.531   2.070  2.4746 -0.6571  1.7166
  622MOL0     H83961  10.740   9.671   2.182  1.3865  3.3654 -0.1189
  622MOL0     H83962  10.586   9.790   1.985 -1.8971 -0.9595 -2.3120
  622MOL0     H83963  10.511   9.697   2.119  0.4827 -0.5402  0.7744
  622MOL0     H83964  10.580   9.567   1.849 -3.2357 -1.7115 -1.4884
  622MOL0     H83965  10.435   9.670   1.869 -1.3870 -0.6690 -0.0642
  622MOL0     H83966  10.526   9.423   2.029 -0.1554 -2.2941 -0.7393
  622MOL0     H83967  10.406   9.419   1.893 -1.4979 -1.1284  1.8263
  622MOL0     H83968  10.173   9.551   2.218  0.0986 -2.0054  0.7246
  622MOL0     H83969  10.781   9.907   2.136  1.3612 -1.3920 -0.1057
  622MOL0     H83970  10.845  10.135   2.068 -2.2525 -0.4609 -0.5271
  623MOL0     O83971   4.906   3.705  11.307  0.3895  0.9666 -0.1350
  623MOL0     C83972   4.957   3.627  11.384 -0.6243 -1.0312  0.1637
  623MOL0     O83973   5.051   3.659  11.472 -0.4127  0.2495 -0.4537
  623MOL0     C83974   5.103   3.784  11.485  0.5651  0.9128  0.3655
  623MOL0     C83975   5.136   3.839  11.614 -0.2867  0.0398  0.1546
  623MOL0     C83976   5.197   3.961  11.621 -1.0293  0.3061  0.1508
  623MOL0     C83977   5.236   4.036  11.511 -0.6945 -0.1440  1.0269
  623MOL0     O83978   5.295   4.155  11.514 -0.6771  0.5715  0.5625
  623MOL0     C83979   5.325   4.214  11.638 -0.1261 -0.2264  0.2742
  623MOL0     C83980   5.194   4.272  11.694  0.0286 -0.1760  0.3226
  623MOL0     C83981   5.165   4.408  11.626 -0.2028 -0.7040 -0.0751
  623MOL0     C83982   5.063   4.503  11.695 -0.3062  0.8058 -0.2842
  623MOL0     C83983   5.111   4.561  11.827  0.8623  0.2626  0.7122
  623MOL0     C83984   5.224   4.662  11.802  0.0107  0.1261  0.2152
  623MOL0     C83985   5.261   4.727  11.938  0.0567  0.8304 -0.0863
  623MOL0     C83986   5.376   4.824  11.929  0.1477 -0.5387  0.3898
  623MOL0     N83987   5.489   4.758  11.859  0.6751 -1.0571 -1.0696
  623MOL0     C83988   5.549   4.641  11.905  0.7470 -0.0941  0.9130
  623MOL0     C83989   5.655   4.634  11.835  0.3520 -0.4527 -0.4401
  623MOL0     C83990   5.759   4.524  11.862 -0.5094 -0.1644 -0.6173
  623MOL0     C83991   5.858   4.582  11.963 -0.4990 -0.0878  0.3960
  623MOL0     C83992   5.972   4.478  12.003 -0.5671 -0.2115 -0.8581
  623MOL0     C83993   6.067   4.550  12.104 -0.5493 -0.3227  0.3503
  623MOL0     O83994   5.977   4.572  12.223  0.8078  0.1972 -0.2913
  623MOL0     C83995   6.003   4.664  12.322  0.3227  0.2135  0.7837
  623MOL0     C83996   6.126   4.722  12.344 -1.0476 -0.8541  0.4977
  623MOL0     C83997   6.153   4.811  12.440  1.0199 -0.4075  0.6042
  623MOL0     C83998   6.295   4.857  12.450 -0.7868 -0.7386  0.1018
  623MOL0     C83999   6.051   4.854  12.521  0.2090  0.0563  0.1867
  623MOL0     C84000   6.070   4.942  12.642  0.0761 -0.1743  0.0901
  623MOL0     O84001   6.180   4.927  12.723 -0.5970 -0.3984  0.7932
  623MOL0     C84002   6.188   4.999  12.835 -0.3053  0.4631  0.5241
  623MOL0     C84003   6.111   4.964  12.942  0.0242 -0.7390  0.4927
  623MOL0     C84004   6.105   5.051  13.053 -0.1627  0.1046 -0.3427
  623MOL0     C84005   6.198   5.156  13.062  0.5332 -0.2251  0.2446
  623MOL0     O84006   6.211   5.218  13.184 -0.0714 -0.7403  1.1805
  623MOL0     C84007   6.302   5.327  13.200 -0.2377 -0.4024 -0.1914
  623MOL0     C84008   6.304   5.386  13.348  0.6690 -0.3269 -0.3336
  623MOL0     C84009   6.234   5.522  13.357 -0.1246 -0.6569  0.7001
  623MOL0     C84010   6.323   5.640  13.305  0.4042  0.2509 -0.5436
  623MOL0     C84011   6.246   5.765  13.260  0.0865  0.1975  1.0165
  623MOL0     C84012   6.338   5.890  13.243 -0.1679 -0.3071 -0.2149
  623MOL0     C84013   6.261   6.004  13.176 -0.2368 -0.0400  0.3897
  623MOL0     C84014   6.336   6.095  13.075  0.4056 -0.5508 -0.3415
  623MOL0    Cl84015   6.225   6.187  12.975  0.1703 -0.0248 -0.2558
  623MOL0     C84016   6.279   5.185  12.949  0.4504 -0.8103  1.2443
  623MOL0     C84017   6.269   5.114  12.830 -0.5647 -0.3892 -0.6799
  623MOL0     O84018   5.988   5.030  12.660  0.1186  0.4806 -0.0529
  623MOL0     C84019   5.921   4.819  12.499  0.9243 -0.3053  0.1775
  623MOL0     C84020   5.887   4.716  12.396 -0.4917  1.3937 -0.4579
  623MOL0     N84021   5.645   4.725  11.727  0.9637  0.0747 -0.3278
  623MOL0     N84022   5.540   4.800  11.740  0.3623 -0.0036 -0.8922
  623MOL0     C84023   5.210   3.985  11.388 -0.1520 -0.0446  0.2478
  623MOL0     C84024   5.146   3.856  11.373 -0.4715 -0.7153 -1.1857
  623MOL0     C84025   4.910   3.486  11.400 -0.3153  0.6275 -0.7551
  623MOL0     C84026   4.976   3.385  11.474  0.4425  0.6031  0.5500
  623MOL0     C84027   4.931   3.253  11.467 -0.5327  0.0523 -0.7294
  623MOL0     C84028   4.826   3.204  11.405 -0.0552 -0.2095 -0.3144
  623MOL0     O84029   4.806   3.064  11.405  0.6326  0.2584  0.8448
  623MOL0     C84030   4.708   3.003  11.313 -0.4537 -0.2702 -0.1764
  623MOL0     C84031   4.772   2.991  11.170  0.7227 -1.0358  1.0365
  623MOL0     C84032   4.676   2.925  11.072  0.2483  0.7847 -0.2082
  623MOL0     C84033   4.717   2.936  10.932 -0.7692  0.1943  0.6207
  623MOL0     C84034   4.838   2.858  10.906  0.7783  0.5355 -0.3907
  623MOL0     C84035   4.947   2.803  10.907  0.4663  0.0906  0.2449
  623MOL0     C84036   4.754   3.302  11.336  0.4058  0.1920 -0.0411
  623MOL0     C84037   4.795   3.444  11.341 -0.3578 -0.5734 -0.0226
  623MOL0     H84038   5.124   3.786  11.708 -0.5273  1.5112  0.9955
  623MOL0     H84039   5.234   3.988  11.719 -1.4894 -1.3601  0.8085
  623MOL0     H84040   5.371   4.137  11.701  0.0398 -0.3088  0.0530
  623MOL0     H84041   5.398   4.295  11.633 -1.6544  1.1990 -0.0628
  623MOL0     H84042   5.117   4.199  11.668  0.2595 -0.1591 -0.4288
  623MOL0     H84043   5.201   4.281  11.803 -0.3512 -2.0301  0.5442
  623MOL0     H84044   5.262   4.459  11.618 -2.3024  3.5185 -1.9831
  623MOL0     H84045   5.147   4.396  11.519  2.5115 -2.3707 -0.4387
  623MOL0     H84046   5.036   4.583  11.625 -0.0850  1.3732  0.2740
  623MOL0     H84047   4.967   4.453  11.712  0.3598  0.1756  1.9610
  623MOL0     H84048   5.027   4.605  11.881  0.7683  0.6012  0.2973
  623MOL0     H84049   5.153   4.476  11.881 -0.6602 -1.4772 -0.6914
  623MOL0     H84050   5.313   4.616  11.759  0.4291  0.7111  0.4376
  623MOL0     H84051   5.191   4.738  11.730 -2.1777 -2.3773 -1.6015
  623MOL0     H84052   5.176   4.771  11.990 -0.0582  0.8926 -0.3235
  623MOL0     H84053   5.286   4.644  12.004 -1.6518  1.1027  0.9857
  623MOL0     H84054   5.412   4.850  12.029  2.1492 -2.3701  0.2179
  623MOL0     H84055   5.337   4.910  11.872  0.8299 -0.4022  0.1191
  623MOL0     H84056   5.529   4.585  11.995 -0.6674 -1.8049 -0.4041
  623MOL0     H84057   5.724   4.430  11.906  2.1457  0.0470  2.2403
  623MOL0     H84058   5.802   4.507  11.763  0.0874  3.8192 -1.2061
  623MOL0     H84059   5.802   4.607  12.053 -1.5883  0.9784 -0.5556
  623MOL0     H84060   5.910   4.671  11.927  3.1438 -1.2193  2.3229
  623MOL0     H84061   6.035   4.455  11.916  1.2459  3.9198 -0.8547
  623MOL0     H84062   5.923   4.394  12.053 -0.9351  0.9851  0.8753
  623MOL0     H84063   6.091   4.650  12.066 -1.3520 -0.5210 -0.7460
  623MOL0     H84064   6.155   4.491  12.130 -0.4246  0.3919  1.6241
  623MOL0     H84065   6.210   4.698  12.279 -0.3406  4.0576 -0.8407
  623MOL0     H84066   6.299   4.962  12.479 -1.9169 -1.0098  1.3556
  623MOL0     H84067   6.340   4.802  12.533 -0.8373 -0.8316  0.0674
  623MOL0     H84068   6.351   4.848  12.356  2.4923  4.0485  1.2386
  623MOL0     H84069   6.053   4.872  12.940  0.3152 -1.0020  2.1491
  623MOL0     H84070   6.030   5.045  13.131 -1.7041  1.3938 -1.6406
  623MOL0     H84071   6.401   5.286  13.180 -0.7826 -1.9311  0.0793
  623MOL0     H84072   6.282   5.406  13.127  0.0843  1.1173  1.2802
  623MOL0     H84073   6.253   5.320  13.419 -0.2622  0.3617 -0.3494
  623MOL0     H84074   6.404   5.397  13.391  0.1504 -2.3639  1.5634
  623MOL0     H84075   6.202   5.534  13.461 -0.2006  1.8029  0.4548
  623MOL0     H84076   6.145   5.525  13.294 -0.7231 -0.6182  1.5362
  623MOL0     H84077   6.379   5.663  13.396  0.8928 -4.0168  0.4175
  623MOL0     H84078   6.388   5.603  13.225 -0.4664 -2.7225  0.0023
  623MOL0     H84079   6.156   5.783  13.320 -4.0807  0.6590 -4.5544
  623MOL0     H84080   6.200   5.753  13.162 -1.0188 -1.8645  1.7301
  623MOL0     H84081   6.385   5.915  13.338  1.6511  2.1654 -1.6254
  623MOL0     H84082   6.415   5.860  13.171  0.9747  1.2050  0.3208
  623MOL0     H84083   6.211   6.067  13.249 -0.3503  0.1595  0.1405
  623MOL0     H84084   6.179   5.956  13.121 -0.4476  1.3518 -0.5463
  623MOL0     H84085   6.373   6.024  12.999  0.0956 -0.6959 -0.3594
  623MOL0     H84086   6.421   6.149  13.119  1.3084 -2.2354  0.0843
  623MOL0     H84087   6.348   5.269  12.957  0.0591 -0.0037 -2.3855
  623MOL0     H84088   6.310   5.146  12.735 -0.4493  3.3322  0.4605
  623MOL0     H84089   5.842   4.860  12.561  0.8287 -0.8504  0.4163
  623MOL0     H84090   5.786   4.687  12.367 -0.6560 -1.2532  2.1713
  623MOL0     H84091   5.237   4.039  11.297 -1.0944 -1.3148 -0.8281
  623MOL0     H84092   5.117   3.828  11.272  0.8739 -0.0021 -1.7985
  623MOL0     H84093   5.060   3.412  11.537  0.5933  1.3308  0.0438
  623MOL0     H84094   4.991   3.178  11.517 -0.6241  0.8196  0.6039
  623MOL0     H84095   4.666   2.920  11.369 -3.1430  2.0079  1.4642
  623MOL0     H84096   4.624   3.068  11.287 -0.0119 -0.1659 -1.3649
  623MOL0     H84097   4.858   2.924  11.180  1.5703  0.0505  1.2104
  623MOL0     H84098   4.795   3.095  11.148 -0.2141 -0.6934  1.6084
  623MOL0     H84099   4.577   2.971  11.080 -0.4396 -0.4630 -1.1382
  623MOL0     H84100   4.665   2.820  11.101  0.5702  0.5977 -0.7396
  623MOL0     H84101   4.716   3.043  10.909 -1.1600  0.8635  3.3525
  623MOL0     H84102   4.630   2.893  10.880 -0.6028  0.7910 -0.1669
  623MOL0     H84103   5.044   2.761  10.919  1.0430  0.2923 -2.7940
  623MOL0     H84104   4.656   3.284  11.293  0.8533  1.9504 -1.9692
  623MOL0     H84105   4.745   3.527  11.292 -0.5827  0.4863  1.8786
  624MOL0     O84106   1.104   3.976   4.043 -0.5476 -1.4562 -0.5649
  624MOL0     C84107   1.072   3.866   4.016  0.8375 -0.8323  0.8048
  624MOL0     O84108   1.092   3.753   4.087 -0.4720 -0.6183 -0.4597
  624MOL0     C84109   1.161   3.753   4.205  0.8830  0.3185 -0.8107
  624MOL0     C84110   1.096   3.816   4.313 -0.3929 -0.1752 -0.2204
  624MOL0     C84111   1.165   3.811   4.436  0.5477 -0.5920 -0.1461
  624MOL0     C84112   1.284   3.734   4.454  0.5067  0.0450 -0.2054
  624MOL0     O84113   1.360   3.725   4.567  0.3665 -0.0142 -0.1717
  624MOL0     C84114   1.412   3.847   4.617 -0.0760 -1.1716 -0.0002
  624MOL0     C84115   1.486   3.943   4.526  0.6911 -0.2301  0.2290
  624MOL0     C84116   1.388   4.039   4.440 -0.5395 -0.1541 -0.7606
  624MOL0     C84117   1.450   4.163   4.391 -0.3407 -0.0091 -0.0026
  624MOL0     C84118   1.347   4.262   4.339  0.1409  0.5863 -0.2360
  624MOL0     C84119   1.294   4.235   4.196 -0.3680 -1.3454  0.3661
  624MOL0     C84120   1.176   4.334   4.179 -0.4279  1.1869 -0.0208
  624MOL0     C84121   1.074   4.297   4.066 -0.9712 -0.3922 -0.1694
  624MOL0     N84122   0.966   4.394   4.101 -0.4144  0.8353  0.5541
  624MOL0     C84123   0.974   4.523   4.062 -0.3197 -0.2037  0.3445
  624MOL0     C84124   0.846   4.579   4.090  0.3285 -0.8379 -0.2653
  624MOL0     C84125   0.813   4.726   4.095 -0.4167  0.3286 -0.0996
  624MOL0     C84126   0.922   4.794   4.185 -0.7073 -0.3846 -0.4730
  624MOL0     C84127   0.864   4.901   4.275 -0.2213 -0.9205  0.3243
  624MOL0     C84128   0.975   4.985   4.331  0.7961  0.7835  0.7072
  624MOL0     O84129   1.078   4.909   4.401 -0.0929 -0.2609 -0.1067
  624MOL0     C84130   1.139   4.993   4.481 -1.5487 -0.0763  0.0833
  624MOL0     C84131   1.126   4.979   4.619  0.0205  0.4526  0.1447
  624MOL0     C84132   1.192   5.067   4.714  0.2634  0.2064  0.0383
  624MOL0     C84133   1.158   5.039   4.859 -0.3311  0.3109  0.2169
  624MOL0     C84134   1.294   5.157   4.663  0.3130 -0.2714  0.3465
  624MOL0     C84135   1.395   5.227   4.741 -0.3481  0.2547 -0.6204
  624MOL0     O84136   1.344   5.280   4.860 -0.0799  0.2607  0.0666
  624MOL0     C84137   1.425   5.355   4.940 -0.4252  0.7615  0.6128
  624MOL0     C84138   1.465   5.304   5.059  0.5950 -0.1515 -0.1416
  624MOL0     C84139   1.553   5.377   5.138  0.5106 -0.1554 -0.1211
  624MOL0     C84140   1.599   5.496   5.092 -0.4980 -0.1006 -0.2527
  624MOL0     O84141   1.701   5.571   5.164  0.7514  0.1231  0.6661
  624MOL0     C84142   1.808   5.632   5.091  0.0058  0.3616 -0.1695
  624MOL0     C84143   1.902   5.678   5.200  0.3068 -0.5674 -0.3606
  624MOL0     C84144   1.979   5.567   5.284 -0.4323 -0.6109  0.6770
  624MOL0     C84145   1.972   5.581   5.433 -0.2217  0.4714 -0.1645
  624MOL0     C84146   2.075   5.684   5.476  0.4065 -0.7518  0.0392
  624MOL0     C84147   2.068   5.715   5.621 -0.9217 -0.2148 -0.1433
  624MOL0     C84148   2.167   5.821   5.658  0.1642 -0.9188  0.5180
  624MOL0     C84149   2.110   5.965   5.633 -0.5869  0.2972  0.3531
  624MOL0    Cl84150   2.224   6.074   5.698 -0.1866  0.0053 -0.3792
  624MOL0     C84151   1.554   5.548   4.971  0.3504  0.6979  0.2789
  624MOL0     C84152   1.460   5.479   4.891 -0.8671  0.3862 -0.6342
  624MOL0     O84153   1.510   5.224   4.713  0.1970 -1.1280 -0.6049
  624MOL0     C84154   1.320   5.145   4.532 -0.1972  0.4252 -0.0283
  624MOL0     C84155   1.256   5.064   4.442  0.8242 -0.5893  0.3289
  624MOL0     N84156   0.769   4.472   4.141 -0.6996  0.3174 -0.7547
  624MOL0     N84157   0.840   4.367   4.130  0.7779 -0.0687  0.5022
  624MOL0     C84158   1.336   3.664   4.342 -0.5954 -0.0162  0.3534
  624MOL0     C84159   1.276   3.680   4.211  0.6056  0.0195 -0.2174
  624MOL0     C84160   0.990   3.850   3.893  0.8497  0.7603 -0.3461
  624MOL0     C84161   0.916   3.964   3.851 -0.3431 -0.4545  0.1290
  624MOL0     C84162   0.849   3.940   3.729 -1.1974  0.4596  0.5379
  624MOL0     C84163   0.840   3.813   3.662 -0.9208 -0.1106 -0.3605
  624MOL0     O84164   0.773   3.809   3.544  0.4048 -0.2624  0.4892
  624MOL0     C84165   0.771   3.679   3.480  0.0101  0.1251 -0.1868
  624MOL0     C84166   0.698   3.694   3.351  0.5300 -0.6198  0.3739
  624MOL0     C84167   0.694   3.577   3.255  0.2380  1.0707  0.3069
  624MOL0     C84168   0.643   3.631   3.117 -0.1283  0.0837  0.1621
  624MOL0     C84169   0.653   3.512   3.032  0.0800  0.0437 -0.4006
  624MOL0     C84170   0.685   3.406   2.978 -0.6824  0.2402 -0.0542
  624MOL0     C84171   0.914   3.709   3.717  0.4988  0.3223  0.8435
  624MOL0     C84172   0.990   3.731   3.826 -0.3563  0.1370  0.1391
  624MOL0     H84173   1.004   3.871   4.291 -2.0137 -3.0513 -1.2212
  624MOL0     H84174   1.113   3.860   4.518  3.8502  0.1611  1.6608
  624MOL0     H84175   1.332   3.912   4.653  1.5498  0.2482  1.3022
  624MOL0     H84176   1.473   3.821   4.705  3.9521  1.3824 -1.7424
  624MOL0     H84177   1.541   4.008   4.595 -1.3965  3.0204 -0.9046
  624MOL0     H84178   1.551   3.884   4.461 -0.0644 -1.6176  0.6886
  624MOL0     H84179   1.345   3.987   4.355  1.1502 -2.1066 -0.4999
  624MOL0     H84180   1.309   4.073   4.507  0.9656  0.3159  0.8638
  624MOL0     H84181   1.506   4.205   4.476  0.3211 -1.2159  0.1893
  624MOL0     H84182   1.525   4.160   4.311 -2.0449  2.1557 -1.8291
  624MOL0     H84183   1.259   4.239   4.399  0.3866 -0.4159 -0.2428
  624MOL0     H84184   1.374   4.367   4.348  3.5782 -0.3345  2.1738
  624MOL0     H84185   1.385   4.265   4.142  0.8614 -1.4090  2.2869
  624MOL0     H84186   1.272   4.129   4.181  0.8990 -1.8237  1.6225
  624MOL0     H84187   1.118   4.324   4.271  0.5145 -0.6724  0.4057
  624MOL0     H84188   1.216   4.432   4.150  1.4915 -0.0002 -1.6736
  624MOL0     H84189   1.034   4.197   4.084  0.1705 -1.1840 -1.7793
  624MOL0     H84190   1.120   4.314   3.968 -1.9492  0.4476 -0.5048
  624MOL0     H84191   1.062   4.575   4.026 -0.0393 -0.8099  0.1518
  624MOL0     H84192   0.833   4.763   3.994  3.0263  2.3924  1.1537
  624MOL0     H84193   0.710   4.746   4.125 -0.1509  1.0558  0.3374
  624MOL0     H84194   0.986   4.840   4.109 -0.8829  0.6419 -0.0090
  624MOL0     H84195   0.982   4.729   4.249 -1.8564  2.3289  3.7630
  624MOL0     H84196   0.821   4.851   4.363  0.5830 -0.2593  1.1228
  624MOL0     H84197   0.783   4.954   4.225  0.7426 -1.2339 -1.6384
  624MOL0     H84198   0.936   5.077   4.375  1.3938  1.6003 -0.3945
  624MOL0     H84199   1.024   5.009   4.236  0.8305 -1.4088  0.1183
  624MOL0     H84200   1.051   4.909   4.653 -0.3296  0.0424 -1.3677
  624MOL0     H84201   1.091   4.952   4.862  0.4941 -0.7890 -4.5150
  624MOL0     H84202   1.251   5.020   4.913  0.5008 -1.3737 -1.6900
  624MOL0     H84203   1.108   5.128   4.899 -0.8726 -0.1511  0.5949
  624MOL0     H84204   1.424   5.207   5.087 -1.7162  0.6052 -0.6677
  624MOL0     H84205   1.586   5.328   5.230 -0.0102 -1.6064 -0.6676
  624MOL0     H84206   1.854   5.557   5.026 -3.7157 -1.7330 -0.6306
  624MOL0     H84207   1.771   5.720   5.040 -0.1992  1.1133  1.2157
  624MOL0     H84208   1.976   5.756   5.180  3.7052 -2.2771  3.9530
  624MOL0     H84209   1.842   5.725   5.278  2.4235 -1.4053  1.9094
  624MOL0     H84210   2.085   5.572   5.257 -0.6418 -2.7377 -0.8359
  624MOL0     H84211   1.953   5.466   5.251  3.1492 -1.1901 -0.9334
  624MOL0     H84212   1.869   5.602   5.463 -0.1596 -0.5955  0.9064
  624MOL0     H84213   1.992   5.483   5.478 -1.9718  0.3195  0.3365
  624MOL0     H84214   2.061   5.781   5.427 -0.9129 -1.1050 -0.3072
  624MOL0     H84215   2.176   5.657   5.442  0.3661  2.3505 -3.2261
  624MOL0     H84216   1.971   5.753   5.655 -0.0267  0.5676  1.6737
  624MOL0     H84217   2.089   5.617   5.665  1.9536  0.1321 -0.5423
  624MOL0     H84218   2.257   5.806   5.598 -1.6175 -1.6866 -2.1307
  624MOL0     H84219   2.179   5.809   5.766 -0.5436  0.4403  0.7721
  624MOL0     H84220   2.014   5.967   5.686 -1.7585 -1.4141 -1.5423
  624MOL0     H84221   2.095   5.995   5.529  0.1113  0.8987  0.4237
  624MOL0     H84222   1.598   5.638   4.928  1.2395  0.0515 -0.1957
  624MOL0     H84223   1.438   5.517   4.792  0.6652  0.1182 -1.0913
  624MOL0     H84224   1.404   5.202   4.495  0.7515  0.4085  1.9823
  624MOL0     H84225   1.271   5.080   4.336  0.8987  1.2361  0.5843
  624MOL0     H84226   1.429   3.609   4.349 -1.0303 -1.3028 -2.5466
  624MOL0     H84227   1.313   3.638   4.118 -3.1378  2.9704 -3.4271
  624MOL0     H84228   0.905   4.060   3.900  0.9069 -1.6755  3.0350
  624MOL0     H84229   0.790   4.017   3.679 -0.8797  0.1322 -0.3719
  624MOL0     H84230   0.871   3.648   3.450 -0.6307  0.3585 -2.7698
  624MOL0     H84231   0.729   3.595   3.537 -0.6342 -2.9826 -4.7513
  624MOL0     H84232   0.728   3.778   3.287 -3.6481 -1.4344 -3.1275
  624MOL0     H84233   0.598   3.736   3.368  1.4075  1.2398  1.2302
  624MOL0     H84234   0.618   3.510   3.296 -1.0107 -1.2279 -4.9518
  624MOL0     H84235   0.786   3.518   3.247 -1.4362 -1.7017  0.4030
  624MOL0     H84236   0.702   3.718   3.087 -0.3903 -0.2866 -1.5302
  624MOL0     H84237   0.541   3.661   3.143  0.2186 -0.6703  2.6518
  624MOL0     H84238   0.703   3.308   2.937 -2.5661 -0.2093  0.0691
  624MOL0     H84239   0.928   3.613   3.668 -2.9239 -0.6921  1.5805
  624MOL0     H84240   1.055   3.657   3.873  2.8753  1.3876 -1.9957
  625MOL0     O84241  10.879  10.880   9.105  0.0094  0.5136 -0.3557
  625MOL0     C84242  10.920  10.986   9.058 -0.1348 -0.2665 -0.6827
  625MOL0     O84243  10.842  11.082   9.000  0.4345 -0.7984 -0.4078
  625MOL0     C84244  10.707  11.057   8.998 -0.1935 -0.7899 -0.0211
  625MOL0     C84245  10.618  11.148   9.055  1.0101 -0.4731  0.3750
  625MOL0     C84246  10.477  11.121   9.040  0.1875 -1.1544  0.0414
  625MOL0     C84247  10.422  11.009   8.978  0.3598 -0.0677  0.8957
  625MOL0     O84248  10.280  10.993   8.992 -0.2751  0.2143  0.4651
  625MOL0     C84249  10.206  10.892   8.920 -0.1001 -0.3041  0.0676
  625MOL0     C84250  10.196  10.948   8.781 -0.0059  0.6655 -0.2738
  625MOL0     C84251  10.132  10.862   8.667  0.1510  0.3269  0.2094
  625MOL0     C84252  10.068  10.935   8.554  0.1940  0.2453 -0.3704
  625MOL0     C84253  10.078  10.848   8.425  0.1953  0.0445  1.4679
  625MOL0     C84254   9.980  10.895   8.315 -0.6361 -0.2557 -0.2895
  625MOL0     C84255  10.012  11.036   8.273 -0.3868 -0.9766  1.4634
  625MOL0     C84256   9.903  11.097   8.194  0.6599 -0.4757  0.3165
  625MOL0     N84257   9.895  11.030   8.062  0.5578 -0.2065  0.7162
  625MOL0     C84258   9.835  10.906   8.037 -0.9322  0.1085  0.0218
  625MOL0     C84259   9.840  10.888   7.905  0.1840 -1.4701  1.4994
  625MOL0     C84260   9.801  10.768   7.822 -0.1296 -0.7766  0.5090
  625MOL0     C84261   9.912  10.724   7.726 -0.4290  0.2271 -0.2700
  625MOL0     C84262   9.879  10.589   7.663  0.3244 -0.1986  0.7840
  625MOL0     C84263   9.954  10.468   7.728  0.2548 -1.4087  0.0427
  625MOL0     O84264   9.948  10.462   7.870  0.5061  0.4891  0.5555
  625MOL0     C84265  10.066  10.462   7.936  1.0830  0.6186 -0.5270
  625MOL0     C84266  10.098  10.581   8.013 -0.3926  0.3146  0.0530
  625MOL0     C84267  10.219  10.574   8.082  0.4857 -0.7120 -0.1403
  625MOL0     C84268  10.272  10.703   8.142 -0.7325  0.0417  0.1368
  625MOL0     C84269  10.297  10.448   8.087 -0.2475 -0.0643  0.4422
  625MOL0     C84270  10.408  10.424   8.185 -0.7258  0.0060 -0.5507
  625MOL0     O84271  10.464  10.301   8.188  0.1765  0.4480 -0.2259
  625MOL0     C84272  10.527  10.267   8.306 -0.5142 -0.1389 -0.2834
  625MOL0     C84273  10.511  10.137   8.359 -0.8037  0.2245  0.0096
  625MOL0     C84274  10.602  10.095   8.459 -0.3590 -0.0859 -0.0984
  625MOL0     C84275  10.700  10.182   8.512 -0.4268 -1.0532  0.6125
  625MOL0     O84276  10.759  10.147   8.632 -0.7587 -0.5850 -0.1213
  625MOL0     C84277  10.894  10.093   8.627 -0.3998 -0.0317 -0.8262
  625MOL0     C84278  10.898   9.980   8.722  0.5080 -0.3945 -0.6546
  625MOL0     C84279  11.047   9.925   8.735 -0.0664  0.5707  0.1049
  625MOL0     C84280  11.123  10.019   8.821 -0.9239  0.1126  0.2958
  625MOL0     C84281  11.265   9.958   8.849 -0.5102  0.4846 -0.3586
  625MOL0     C84282  11.342  10.034   8.954 -0.2575 -0.2423  0.6434
  625MOL0     C84283  11.280  10.062   9.092  0.2885 -1.0651  0.7875
  625MOL0     C84284  11.381  10.136   9.185 -1.0371 -0.5128 -1.0220
  625MOL0    Cl84285  11.324  10.164   9.363  0.2691  0.4729  0.5553
  625MOL0     C84286  10.707  10.312   8.469 -0.0900  0.3493 -0.0199
  625MOL0     C84287  10.636  10.355   8.361 -0.0026 -0.2191  0.2919
  625MOL0     O84288  10.411  10.503   8.283 -0.4993  0.0055  0.2627
  625MOL0     C84289  10.254  10.344   8.002  0.7507  0.3546  0.4843
  625MOL0     C84290  10.145  10.351   7.915  0.1968  0.8360  0.0467
  625MOL0     N84291   9.904  11.001   7.851  0.7678  0.6743  1.4853
  625MOL0     N84292   9.942  11.084   7.951  0.7561  0.2368  0.0144
  625MOL0     C84293  10.517  10.919   8.919  0.9348 -0.2955  0.4081
  625MOL0     C84294  10.658  10.943   8.925  0.0295  0.0142  0.4434
  625MOL0     C84295  11.062  11.010   9.042  0.6616  0.1811 -0.5777
  625MOL0     C84296  11.162  10.922   9.090  0.0182 -0.9605 -0.2393
  625MOL0     C84297  11.295  10.954   9.066 -0.0407  0.5252  0.6705
  625MOL0     C84298  11.340  11.058   9.000 -0.2190 -0.1188 -0.9546
  625MOL0     O84299  11.477  11.062   8.993 -0.7393  0.0686  0.5317
  625MOL0     C84300  11.522  11.165   8.904  0.4589 -0.5236  0.4389
  625MOL0     C84301  11.669  11.177   8.853  0.4858  0.8490  0.2543
  625MOL0     C84302  11.737  11.045   8.826  0.4584  0.0387  0.0319
  625MOL0     C84303  11.870  11.064   8.770 -0.6946  0.7409  0.5078
  625MOL0     C84304  11.945  10.932   8.788 -0.1717  0.0239  0.2183
  625MOL0     C84305  12.003  10.831   8.809  0.0457  0.4083  0.1141
  625MOL0     C84306  11.241  11.144   8.950 -1.0167 -0.8286 -0.4962
  625MOL0     C84307  11.107  11.124   8.978 -0.5102  0.0758  0.1220
  625MOL0     H84308  10.656  11.242   9.093 -0.0744 -0.9252  2.7843
  625MOL0     H84309  10.398  11.179   9.088  1.2900  1.4903 -1.1249
  625MOL0     H84310  10.254  10.795   8.930 -3.1455 -2.0097 -0.6762
  625MOL0     H84311  10.105  10.884   8.964  0.1676  0.2093  0.8088
  625MOL0     H84312  10.142  11.043   8.781  0.5130  0.9648 -0.8203
  625MOL0     H84313  10.297  10.973   8.747  0.1353 -0.0905 -0.4372
  625MOL0     H84314  10.208  10.801   8.619 -0.3203 -1.6588  1.8468
  625MOL0     H84315  10.065  10.794   8.720  0.8542 -0.0633  0.6073
  625MOL0     H84316   9.964  10.955   8.581  0.2913  0.5105 -0.1923
  625MOL0     H84317  10.112  11.031   8.525 -1.7081  0.1224 -4.4722
  625MOL0     H84318  10.180  10.853   8.387 -1.0066  1.2589 -2.0255
  625MOL0     H84319  10.048  10.745   8.449  0.2945  0.3975  3.2373
  625MOL0     H84320  10.005  10.822   8.237 -0.0423 -2.3746  1.7789
  625MOL0     H84321   9.873  10.884   8.335 -1.4516 -0.2421 -3.8877
  625MOL0     H84322  10.023  11.106   8.356  1.8946  2.0118 -1.1192
  625MOL0     H84323  10.102  11.033   8.212 -0.3086  0.6327  1.4702
  625MOL0     H84324   9.926  11.203   8.177  1.8183 -0.7979 -0.2249
  625MOL0     H84325   9.809  11.093   8.249 -0.6203  0.7835 -1.6450
  625MOL0     H84326   9.796  10.825   8.097  0.6736 -1.0768 -0.4984
  625MOL0     H84327   9.769  10.694   7.895 -0.7745  0.1204  1.1656
  625MOL0     H84328   9.712  10.791   7.763  1.4577  0.4811 -1.5466
  625MOL0     H84329  10.008  10.719   7.777 -0.2444  2.6525 -0.3112
  625MOL0     H84330   9.923  10.792   7.641  4.5325  2.0023  1.4694
  625MOL0     H84331   9.920  10.587   7.562 -2.3637 -0.0123 -0.3953
  625MOL0     H84332   9.773  10.564   7.651  0.1541 -0.9648  3.3086
  625MOL0     H84333  10.058  10.461   7.695  1.1807  1.1358  2.0740
  625MOL0     H84334   9.894  10.385   7.690 -2.5507  1.1550 -1.5049
  625MOL0     H84335  10.043  10.673   7.997 -2.4947 -0.8514  0.2739
  625MOL0     H84336  10.223  10.797   8.115  0.0096  0.0966 -1.1006
  625MOL0     H84337  10.262  10.684   8.249  2.1467  0.1835  0.5150
  625MOL0     H84338  10.379  10.712   8.120 -0.8581 -1.3186 -1.1554
  625MOL0     H84339  10.443  10.065   8.314  3.0227 -1.8408 -3.0829
  625MOL0     H84340  10.585  10.007   8.521  0.2352 -1.4188 -1.7428
  625MOL0     H84341  10.913  10.065   8.523  0.0545 -2.3423 -0.1870
  625MOL0     H84342  10.962  10.173   8.658  1.1941 -2.1727  1.5794
  625MOL0     H84343  10.866  10.010   8.822  1.6563  1.2606 -0.7400
  625MOL0     H84344  10.828   9.901   8.693  1.2163 -2.0225  1.7630
  625MOL0     H84345  11.087   9.904   8.635 -0.6009  0.1946 -0.0338
  625MOL0     H84346  11.049   9.827   8.783  1.2412 -0.2729 -1.5613
  625MOL0     H84347  11.138  10.120   8.783  0.1103 -0.2995 -0.4301
  625MOL0     H84348  11.064  10.036   8.912 -3.5983  3.1677 -1.8275
  625MOL0     H84349  11.319   9.945   8.754  2.3100 -0.0261  1.2079
  625MOL0     H84350  11.252   9.856   8.886 -2.7074 -0.2199 -2.7657
  625MOL0     H84351  11.440   9.989   8.971 -0.3188 -0.0713  1.5450
  625MOL0     H84352  11.353  10.132   8.906 -1.0958 -0.3429  0.2273
  625MOL0     H84353  11.249   9.972   9.145 -2.5450 -0.4502  0.3544
  625MOL0     H84354  11.194  10.127   9.076 -0.0163 -0.7775  3.2043
  625MOL0     H84355  11.399  10.240   9.154 -2.0476  0.2034  0.6157
  625MOL0     H84356  11.474  10.080   9.195  0.4130  1.9906  0.8079
  625MOL0     H84357  10.777  10.385   8.508  1.9616 -1.0580 -0.8880
  625MOL0     H84358  10.652  10.455   8.324 -1.9229  0.3757  0.9910
  625MOL0     H84359  10.314  10.256   7.981  0.6386  0.6565 -1.2506
  625MOL0     H84360  10.110  10.267   7.856  2.5221 -0.9451  1.0663
  625MOL0     H84361  10.482  10.830   8.868  0.6076 -1.1037  1.9643
  625MOL0     H84362  10.730  10.885   8.869  0.6812  2.8232 -1.8612
  625MOL0     H84363  11.148  10.829   9.144  3.8340 -0.8427  1.2144
  625MOL0     H84364  11.373  10.898   9.117  1.6133  0.0398 -2.1909
  625MOL0     H84365  11.459  11.146   8.817  0.8990 -1.4840  0.3205
  625MOL0     H84366  11.500  11.266   8.941  1.1227 -1.4648  3.6566
  625MOL0     H84367  11.727  11.236   8.925  2.1383  0.1333 -0.4474
  625MOL0     H84368  11.668  11.236   8.761  0.4784  2.3864  1.2052
  625MOL0     H84369  11.675  10.983   8.761 -0.5561  0.8272  0.2295
  625MOL0     H84370  11.753  10.997   8.923 -0.9447 -0.3532  0.0890
  625MOL0     H84371  11.932  11.145   8.811  2.8932 -0.7428 -1.5063
  625MOL0     H84372  11.869  11.088   8.663  2.4609  2.6074  0.7399
  625MOL0     H84373  12.045  10.733   8.822 -2.2644 -0.9165 -1.6954
  625MOL0     H84374  11.265  11.237   8.898  0.6853  0.7622  2.8161
  625MOL0     H84375  11.031  11.201   8.967 -2.0438 -1.5547 -1.3903
  626MOL0     O84376   1.740   2.512  10.035  0.5713  0.0538  0.3898
  626MOL0     C84377   1.690   2.536   9.924 -0.4300  0.7064 -0.4473
  626MOL0     O84378   1.665   2.444   9.830 -0.0313  0.1088 -0.2344
  626MOL0     C84379   1.699   2.317   9.861  0.2642  0.8235 -0.8739
  626MOL0     C84380   1.622   2.236   9.945 -0.5379  1.3089  0.8823
  626MOL0     C84381   1.656   2.104   9.968  0.0263  0.2720  0.1560
  626MOL0     C84382   1.782   2.056   9.917 -0.6058 -0.9535  0.4905
  626MOL0     O84383   1.811   1.924   9.939 -0.4691  0.1801 -0.3130
  626MOL0     C84384   1.918   1.873   9.862 -0.9795  0.6061 -1.2073
  626MOL0     C84385   1.910   1.722   9.895  0.1378  0.0323 -0.3443
  626MOL0     C84386   1.923   1.681  10.042 -0.3354 -0.2111 -0.8755
  626MOL0     C84387   2.068   1.692  10.096  0.2959 -0.5258  0.5214
  626MOL0     C84388   2.103   1.677  10.241  0.4904 -0.5617  0.3204
  626MOL0     C84389   2.002   1.598  10.330  0.9061 -1.2373  0.3805
  626MOL0     C84390   2.055   1.553  10.469  0.4639 -0.4354  0.3369
  626MOL0     C84391   1.948   1.550  10.577  0.5880  0.2702 -0.4770
  626MOL0     N84392   1.966   1.423  10.650  0.6995 -0.1386  0.4507
  626MOL0     C84393   2.067   1.381  10.735  0.5497 -0.9948 -1.3282
  626MOL0     C84394   2.019   1.268  10.785 -0.5425 -0.6479  0.3423
  626MOL0     C84395   2.096   1.192  10.887 -0.3863 -0.5944 -0.0057
  626MOL0     C84396   2.254   1.203  10.878 -0.8561  0.3728 -0.6512
  626MOL0     C84397   2.304   1.125  10.745 -0.1778  1.1243  0.0853
  626MOL0     C84398   2.439   1.167  10.692  0.6443 -0.0540 -0.9562
  626MOL0     O84399   2.448   1.303  10.668 -0.1902 -0.6187  0.0354
  626MOL0     C84400   2.566   1.341  10.601 -0.4464 -0.0460 -0.7984
  626MOL0     C84401   2.693   1.284  10.632 -0.2398  0.7913 -0.5017
  626MOL0     C84402   2.809   1.302  10.557  0.4071 -0.3803  0.0362
  626MOL0     C84403   2.942   1.271  10.622  0.3497  0.3733  0.3113
  626MOL0     C84404   2.802   1.406  10.453 -0.2131  0.6786  0.4263
  626MOL0     C84405   2.917   1.451  10.375  0.1527 -0.3306 -0.3508
  626MOL0     O84406   2.911   1.564  10.314 -0.2295 -1.0858  1.1456
  626MOL0     C84407   3.014   1.617  10.241 -0.8262 -0.6164  0.9267
  626MOL0     C84408   3.081   1.729  10.291 -0.3628 -0.5126 -0.0388
  626MOL0     C84409   3.186   1.777  10.212  0.3379 -0.6488 -0.1470
  626MOL0     C84410   3.218   1.729  10.095  0.5697  0.8616 -0.0668
  626MOL0     O84411   3.320   1.801  10.022  0.6320 -0.1840  0.5977
  626MOL0     C84412   3.457   1.802  10.078  1.4205  0.3108 -1.1913
  626MOL0     C84413   3.549   1.893   9.999 -0.5200  0.4093  0.4947
  626MOL0     C84414   3.688   1.929  10.047 -1.3152  0.5901  0.8520
  626MOL0     C84415   3.776   1.802  10.059 -0.7787  0.9523  0.6446
  626MOL0     C84416   3.906   1.827  10.131  0.6254  0.2820 -0.1785
  626MOL0     C84417   3.981   1.688  10.123  0.1188 -0.5650 -0.1770
  626MOL0     C84418   4.130   1.729  10.148  0.2986 -0.1001  0.6920
  626MOL0     C84419   4.215   1.601  10.133  0.7600 -0.5172 -0.6696
  626MOL0    Cl84420   4.386   1.630  10.122 -0.1947  0.0700  0.0072
  626MOL0     C84421   3.147   1.619  10.043 -0.4397 -0.5224  1.1998
  626MOL0     C84422   3.052   1.554  10.123  0.1780 -0.2022  0.4695
  626MOL0     O84423   2.999   1.371  10.349 -1.0052  0.0114  0.0370
  626MOL0     C84424   2.678   1.466  10.422  0.9717  0.4039  0.4391
  626MOL0     C84425   2.559   1.430  10.493 -0.4377  1.1526  0.0548
  626MOL0     N84426   1.906   1.229  10.722 -0.8718  0.3417  0.9416
  626MOL0     N84427   1.878   1.314  10.629 -1.4128  0.2830  0.1169
  626MOL0     C84428   1.861   2.141   9.842  0.4917 -0.0106 -1.1202
  626MOL0     C84429   1.825   2.271   9.813 -0.3181  0.1667  0.1265
  626MOL0     C84430   1.646   2.670   9.889  0.3577  0.1731  0.3302
  626MOL0     C84431   1.689   2.788   9.955  0.8987 -0.4909  0.3332
  626MOL0     C84432   1.639   2.914   9.928  0.4776 -0.3222 -0.3758
  626MOL0     C84433   1.550   2.944   9.827  0.6138 -0.5454  0.4506
  626MOL0     O84434   1.520   3.077   9.802 -0.2309  0.4783 -0.3286
  626MOL0     C84435   1.417   3.118   9.707 -0.4542 -0.6376 -0.3350
  626MOL0     C84436   1.389   3.270   9.703 -0.3463  0.1095 -0.5812
  626MOL0     C84437   1.514   3.347   9.643  0.6719  0.9773 -0.3609
  626MOL0     C84438   1.547   3.319   9.489 -0.0929 -0.4040  0.0690
  626MOL0     C84439   1.691   3.343   9.445  0.8481  0.3402  0.0589
  626MOL0     C84440   1.794   3.369   9.399 -0.8548 -1.0065 -0.3943
  626MOL0     C84441   1.505   2.831   9.761 -0.6090 -0.0507  0.0603
  626MOL0     C84442   1.550   2.699   9.794 -0.2185  0.4008  0.1443
  626MOL0     H84443   1.529   2.274   9.986  0.7138  3.4524  1.8849
  626MOL0     H84444   1.590   2.039  10.025  2.1616 -0.5023  1.8997
  626MOL0     H84445   1.907   1.878   9.754  0.8408 -1.7339 -1.5928
  626MOL0     H84446   2.014   1.914   9.895  0.8889 -2.2990 -2.5919
  626MOL0     H84447   1.813   1.686   9.860  0.3225 -2.2966  1.2881
  626MOL0     H84448   1.990   1.666   9.846 -0.9768 -0.9204 -1.1089
  626MOL0     H84449   1.858   1.747  10.100  0.5425  0.6913 -0.9013
  626MOL0     H84450   1.876   1.584  10.066  0.9875 -0.8257 -0.7049
  626MOL0     H84451   2.131   1.624  10.038 -0.3718 -0.9756  0.3083
  626MOL0     H84452   2.100   1.790  10.059  0.3506 -1.5282 -2.3740
  626MOL0     H84453   2.201   1.630  10.257  0.1972 -1.0251  0.8155
  626MOL0     H84454   2.115   1.781  10.272 -3.3738  0.6301 -1.5447
  626MOL0     H84455   1.921   1.671  10.338  3.1306  1.4009  0.4749
  626MOL0     H84456   1.958   1.518  10.270 -1.7497 -0.4924  1.2114
  626MOL0     H84457   2.101   1.454  10.459  0.8376 -0.3074  0.7596
  626MOL0     H84458   2.123   1.625  10.515 -0.6006  0.1624  1.0362
  626MOL0     H84459   1.844   1.556  10.546  0.1500 -0.4709  0.7707
  626MOL0     H84460   1.979   1.629  10.647  1.1458  0.7627 -1.2565
  626MOL0     H84461   2.157   1.436  10.760  1.1924 -2.0825 -1.1540
  626MOL0     H84462   2.074   1.241  10.982  2.1804 -2.0213  1.4190
  626MOL0     H84463   2.056   1.091  10.896 -4.1977  0.0332 -4.8837
  626MOL0     H84464   2.314   1.166  10.962  0.7525  0.3203 -1.7806
  626MOL0     H84465   2.283   1.308  10.876  1.4626 -0.1646 -4.0424
  626MOL0     H84466   2.233   1.118  10.662 -2.3646 -3.2595  1.9631
  626MOL0     H84467   2.324   1.022  10.776  0.3091  1.0299 -0.5272
  626MOL0     H84468   2.446   1.104  10.603 -1.8280 -1.8058 -0.0272
  626MOL0     H84469   2.514   1.143  10.767 -1.4314  1.1393  1.6737
  626MOL0     H84470   2.703   1.216  10.716 -3.0218  1.6429  0.6301
  626MOL0     H84471   2.974   1.178  10.573 -2.6452 -0.9387  0.6579
  626MOL0     H84472   3.028   1.338  10.606  1.9557 -1.2777  1.6163
  626MOL0     H84473   2.939   1.252  10.729 -0.2057  1.5730  0.5169
  626MOL0     H84474   3.052   1.778  10.384  2.2456 -0.8376  1.0312
  626MOL0     H84475   3.241   1.865  10.243 -1.3714  0.1851  0.6631
  626MOL0     H84476   3.449   1.835  10.182 -0.8897  1.5454 -1.6949
  626MOL0     H84477   3.482   1.697  10.063 -0.4809 -0.5745  1.2151
  626MOL0     H84478   3.565   1.826   9.914  0.8051 -3.0594  3.2357
  626MOL0     H84479   3.511   1.994   9.980  1.4462  1.6722  2.6672
  626MOL0     H84480   3.691   1.971  10.148  0.9204  0.2021  1.0156
  626MOL0     H84481   3.732   1.996   9.973  1.0384  0.4838  2.0376
  626MOL0     H84482   3.725   1.714  10.098  0.0710 -0.9697 -2.2387
  626MOL0     H84483   3.809   1.780   9.957 -0.4066  1.2494  0.6959
  626MOL0     H84484   3.882   1.869  10.229 -0.7953 -2.0620  0.5860
  626MOL0     H84485   3.956   1.901  10.069  0.8396 -0.3443 -0.7611
  626MOL0     H84486   3.947   1.628  10.208  1.1374 -0.4177  0.3558
  626MOL0     H84487   3.981   1.647  10.022  0.0690  0.9106 -0.8004
  626MOL0     H84488   4.137   1.772  10.249 -1.2518 -0.1791  0.8585
  626MOL0     H84489   4.157   1.807  10.076 -1.9607  0.2150  0.1405
  626MOL0     H84490   4.177   1.542  10.048  0.4506 -0.1324 -0.8040
  626MOL0     H84491   4.197   1.544  10.225 -0.0898  0.7799 -0.0053
  626MOL0     H84492   3.160   1.595   9.938 -1.3181 -1.6032  1.3131
  626MOL0     H84493   2.992   1.473  10.083  0.0155  0.1381  0.0115
  626MOL0     H84494   2.667   1.539  10.342  1.1981 -0.2675 -0.2157
  626MOL0     H84495   2.462   1.474  10.473 -0.3749  0.8557 -0.9387
  626MOL0     H84496   1.966   2.115   9.826  0.3795 -1.4493  0.2440
  626MOL0     H84497   1.899   2.334   9.765 -0.0664 -1.4598 -1.7414
  626MOL0     H84498   1.766   2.787  10.031  2.9539  1.0494 -1.5791
  626MOL0     H84499   1.685   3.002   9.973  0.9246 -0.6542 -0.1738
  626MOL0     H84500   1.458   3.080   9.613  1.7236  4.0746 -1.5367
  626MOL0     H84501   1.327   3.057   9.727 -0.4157 -0.9192 -0.9882
  626MOL0     H84502   1.352   3.298   9.802 -3.1065 -0.3089 -1.4246
  626MOL0     H84503   1.313   3.282   9.625  1.7670 -1.4258 -3.0272
  626MOL0     H84504   1.604   3.338   9.705  1.6165  0.8959 -1.7116
  626MOL0     H84505   1.471   3.448   9.649 -2.3316 -0.0676 -2.1817
  626MOL0     H84506   1.479   3.358   9.412 -2.0709 -4.1474 -0.3160
  626MOL0     H84507   1.526   3.212   9.478  0.1276 -0.6065  1.4191
  626MOL0     H84508   1.880   3.402   9.345 -2.0382 -1.3957 -2.6524
  626MOL0     H84509   1.435   2.834   9.677 -1.2610  0.1209  0.6006
  626MOL0     H84510   1.505   2.619   9.735  1.3623  1.4197 -2.6521
  627MOL0     O84511   3.083   1.426   1.433  0.8420  0.8653 -0.1828
  627MOL0     C84512   2.965   1.454   1.469  0.4600  0.0360 -0.7168
  627MOL0     O84513   2.898   1.425   1.581 -0.1751 -0.7215  0.2299
  627MOL0     C84514   2.947   1.351   1.688 -0.4072 -0.2330  1.1747
  627MOL0     C84515   3.055   1.259   1.682 -0.6362 -0.5384  0.2263
  627MOL0     C84516   3.071   1.164   1.791 -0.2111 -0.6125  0.3140
  627MOL0     C84517   3.006   1.178   1.909 -1.2957 -0.2246  0.3110
  627MOL0     O84518   3.035   1.088   2.009 -0.1397  0.5801 -0.0226
  627MOL0     C84519   3.029   1.139   2.140  0.7025  0.0479  0.4781
  627MOL0     C84520   3.131   1.048   2.217  1.1143  0.6822  0.3857
  627MOL0     C84521   3.064   0.915   2.237  0.0219 -0.9229 -0.0496
  627MOL0     C84522   3.169   0.804   2.270  0.5917 -0.4342 -0.0336
  627MOL0     C84523   3.088   0.685   2.323  0.6612  0.3381 -0.3455
  627MOL0     C84524   2.994   0.613   2.224  0.9021  0.5719  0.2907
  627MOL0     C84525   2.993   0.465   2.262  0.4988 -0.4032 -0.1515
  627MOL0     C84526   2.884   0.420   2.356 -0.9152 -0.2978 -0.5108
  627MOL0     N84527   2.749   0.441   2.294  0.3275 -1.0145 -0.4097
  627MOL0     C84528   2.672   0.544   2.327 -0.9252  0.0640 -0.2718
  627MOL0     C84529   2.554   0.520   2.267  0.2440 -0.1557  0.4828
  627MOL0     C84530   2.441   0.615   2.266  0.3240 -0.4964  0.6606
  627MOL0     C84531   2.355   0.577   2.380 -0.2445 -0.9936  0.6287
  627MOL0     C84532   2.210   0.631   2.365  0.5629  0.4351 -0.1348
  627MOL0     C84533   2.132   0.588   2.483 -0.4978  0.5183 -0.8438
  627MOL0     O84534   2.088   0.453   2.468 -0.1256  0.4371  0.3903
  627MOL0     C84535   2.077   0.386   2.583 -0.0029  0.1885  0.1336
  627MOL0     C84536   1.974   0.304   2.582 -0.1105  0.9902  0.1123
  627MOL0     C84537   1.932   0.232   2.699  0.0911 -1.2776  0.5178
  627MOL0     C84538   1.819   0.128   2.682  0.5351  0.2235  0.4196
  627MOL0     C84539   2.001   0.239   2.823  0.4217  0.2079 -0.6707
  627MOL0     C84540   1.972   0.169   2.955  0.8602 -0.3116  0.2465
  627MOL0     O84541   2.067   0.172   3.053 -0.6714 -0.1515 -0.5233
  627MOL0     C84542   2.035   0.127   3.177 -0.0883  1.1654 -0.8289
  627MOL0     C84543   1.947   0.193   3.264 -0.1907  0.1865  0.0587
  627MOL0     C84544   1.888   0.122   3.373  0.0209 -0.0635 -0.6428
  627MOL0     C84545   1.941  -0.002   3.413  0.3147 -0.9872 -0.0014
  627MOL0     O84546   1.906  -0.055   3.533 -0.6497  0.0252  0.1445
  627MOL0     C84547   2.011  -0.121   3.605 -0.1358  0.6961 -0.3887
  627MOL0     C84548   1.954  -0.128   3.745 -0.7180  0.1261  0.9285
  627MOL0     C84549   2.047  -0.206   3.839 -0.2840 -0.0249 -0.1229
  627MOL0     C84550   2.197  -0.153   3.843  1.0553 -0.9050 -0.7811
  627MOL0     C84551   2.272  -0.245   3.933 -0.0418 -0.2859  0.3818
  627MOL0     C84552   2.415  -0.209   3.958 -0.2950 -0.9197 -0.4003
  627MOL0     C84553   2.423  -0.072   4.021  0.1560 -0.5038 -1.3898
  627MOL0     C84554   2.555  -0.061   4.100 -0.4156  0.3865  0.9475
  627MOL0    Cl84555   2.693  -0.117   3.991 -0.3300  0.1981 -0.3249
  627MOL0     C84556   2.037  -0.057   3.339 -0.1038 -0.2610  0.5939
  627MOL0     C84557   2.075   0.004   3.221 -0.2072 -0.3307  0.4895
  627MOL0     O84558   1.859   0.123   2.972 -0.3660  0.0207 -0.1529
  627MOL0     C84559   2.116   0.336   2.821  0.6871  0.6132  0.7830
  627MOL0     C84560   2.159   0.394   2.695  0.7207  0.9021 -0.7201
  627MOL0     N84561   2.554   0.391   2.208 -0.7509  0.9894 -0.4142
  627MOL0     N84562   2.678   0.356   2.223 -0.3050 -0.8807  1.1485
  627MOL0     C84563   2.897   1.276   1.917  0.1520 -0.3684  0.0222
  627MOL0     C84564   2.873   1.352   1.806  0.0601 -0.1681 -0.0629
  627MOL0     C84565   2.898   1.528   1.359  0.4631  0.4239 -0.6295
  627MOL0     C84566   2.965   1.556   1.235  0.1938 -0.0132 -0.9961
  627MOL0     C84567   2.902   1.631   1.132  0.3629 -0.3395  1.0673
  627MOL0     C84568   2.766   1.659   1.149  0.3448  0.5595  0.4789
  627MOL0     O84569   2.694   1.720   1.045 -0.7734  0.0683  0.1100
  627MOL0     C84570   2.548   1.706   1.038  0.0422  0.1548  0.0315
  627MOL0     C84571   2.487   1.733   0.898  0.4369 -0.1113 -0.7401
  627MOL0     C84572   2.515   1.867   0.849 -1.0080  0.0842 -0.0870
  627MOL0     C84573   2.453   1.911   0.718  0.4776  0.8718  0.7690
  627MOL0     C84574   2.459   2.050   0.686 -0.5402 -0.1643 -0.2841
  627MOL0     C84575   2.476   2.165   0.643 -0.3612  0.1766 -0.4268
  627MOL0     C84576   2.702   1.633   1.272 -0.1199  0.0856 -0.3858
  627MOL0     C84577   2.762   1.563   1.372 -1.1848  0.6312  0.9003
  627MOL0     H84578   3.107   1.232   1.591 -1.3986 -0.3556 -0.2635
  627MOL0     H84579   3.143   1.084   1.779 -0.5596 -0.9423  0.4208
  627MOL0     H84580   3.081   1.235   2.140 -1.5163  1.4576 -3.2518
  627MOL0     H84581   2.930   1.159   2.181  0.5402  1.1015 -0.3648
  627MOL0     H84582   3.224   1.021   2.167  1.9494 -0.9419  2.6627
  627MOL0     H84583   3.157   1.092   2.313 -0.2887 -0.2735  1.2489
  627MOL0     H84584   2.997   0.933   2.321  0.6336 -1.2112  0.5049
  627MOL0     H84585   3.021   0.874   2.145  3.3696 -4.8265 -0.1736
  627MOL0     H84586   3.214   0.774   2.174 -1.1395  2.1611 -1.7787
  627MOL0     H84587   3.240   0.848   2.340  0.7574 -0.7704  0.0113
  627MOL0     H84588   3.158   0.608   2.356 -0.8340 -0.3928  1.3024
  627MOL0     H84589   3.035   0.724   2.410 -1.0852 -0.9814 -0.7531
  627MOL0     H84590   2.897   0.662   2.210  1.1057  1.0534  0.5379
  627MOL0     H84591   3.038   0.616   2.123 -0.3617 -1.1162 -0.3632
  627MOL0     H84592   2.963   0.412   2.170  0.3930 -3.1646  1.3718
  627MOL0     H84593   3.090   0.427   2.295  1.0914  0.8944 -0.3477
  627MOL0     H84594   2.897   0.461   2.456  0.4214  2.4818 -1.7312
  627MOL0     H84595   2.891   0.313   2.381 -1.3668 -0.7261 -2.0737
  627MOL0     H84596   2.703   0.627   2.390 -3.1227 -1.1910  2.6606
  627MOL0     H84597   2.483   0.717   2.269 -0.8778 -0.0144  2.1256
  627MOL0     H84598   2.383   0.608   2.173  0.2477  2.0766  0.4372
  627MOL0     H84599   2.390   0.625   2.472 -0.1914  1.7810 -0.7393
  627MOL0     H84600   2.359   0.468   2.393  1.3556 -1.7276 -4.1558
  627MOL0     H84601   2.159   0.591   2.276 -0.8508  2.2853 -0.2293
  627MOL0     H84602   2.208   0.740   2.353 -2.3420  1.0103  3.5214
  627MOL0     H84603   2.040   0.644   2.502  0.5640  1.4249  2.0631
  627MOL0     H84604   2.186   0.610   2.575 -3.2236  3.9899  0.1356
  627MOL0     H84605   1.915   0.302   2.491  0.9056 -1.3590 -0.5748
  627MOL0     H84606   1.821   0.043   2.751 -3.4959 -0.9986 -0.7068
  627MOL0     H84607   1.726   0.181   2.703  1.4527  0.9975  2.9646
  627MOL0     H84608   1.801   0.089   2.582 -2.9821  1.8019  0.3130
  627MOL0     H84609   1.919   0.295   3.239  1.3461  0.5030 -0.4996
  627MOL0     H84610   1.814   0.173   3.433 -0.7440 -1.2152 -0.5674
  627MOL0     H84611   2.047  -0.217   3.566 -0.0202  0.2299  0.8421
  627MOL0     H84612   2.097  -0.053   3.614 -0.1366  0.7476 -0.7424
  627MOL0     H84613   1.942  -0.026   3.783 -5.8844  0.2367 -0.2192
  627MOL0     H84614   1.864  -0.191   3.749 -0.0258 -1.2509 -2.1040
  627MOL0     H84615   2.041  -0.310   3.805 -0.5395  0.3558 -1.2935
  627MOL0     H84616   2.005  -0.194   3.939 -3.5255  3.0140 -1.6645
  627MOL0     H84617   2.233  -0.175   3.742  0.1496 -1.0196 -1.0832
  627MOL0     H84618   2.202  -0.047   3.869  0.3249 -0.8146 -0.9732
  627MOL0     H84619   2.257  -0.347   3.897 -0.7513  0.0994 -0.4461
  627MOL0     H84620   2.226  -0.254   4.032  1.8133  1.3190  1.4551
  627MOL0     H84621   2.459  -0.278   4.032  2.4952 -0.5506 -1.6065
  627MOL0     H84622   2.471  -0.216   3.865  1.6959  0.6184  0.6061
  627MOL0     H84623   2.333  -0.047   4.079  2.3724  3.4326  0.8065
  627MOL0     H84624   2.433  -0.001   3.938 -3.0259  1.0579 -0.6067
  627MOL0     H84625   2.554  -0.099   4.203 -1.0125 -1.2371  0.3655
  627MOL0     H84626   2.566   0.047   4.114 -0.9055  0.6282 -0.4133
  627MOL0     H84627   2.088  -0.151   3.358 -0.9230 -0.9452 -0.4325
  627MOL0     H84628   2.148  -0.040   3.155 -2.7370 -1.3663 -1.8312
  627MOL0     H84629   2.168   0.368   2.910  0.5523  2.8798  0.1136
  627MOL0     H84630   2.244   0.460   2.692 -1.2608  3.6947  0.4417
  627MOL0     H84631   2.838   1.301   2.005 -2.6215  0.6331 -1.9736
  627MOL0     H84632   2.780   1.406   1.822 -0.2837 -1.7329  4.9378
  627MOL0     H84633   3.060   1.513   1.204 -1.2587 -4.7838  0.1873
  627MOL0     H84634   2.945   1.662   1.037  1.6646  0.6510  1.9404
  627MOL0     H84635   2.529   1.605   1.074  0.6470 -0.0448 -0.1871
  627MOL0     H84636   2.504   1.766   1.118 -0.1839 -2.7080  2.2125
  627MOL0     H84637   2.379   1.715   0.899  0.6949 -2.1263 -2.2684
  627MOL0     H84638   2.518   1.662   0.821 -2.6877  1.0579 -3.3457
  627MOL0     H84639   2.624   1.867   0.847 -1.0038  0.4607  0.0005
  627MOL0     H84640   2.491   1.945   0.922  0.2315  1.1792 -0.8043
  627MOL0     H84641   2.346   1.886   0.713  0.9692 -1.1676 -2.5158
  627MOL0     H84642   2.498   1.859   0.634  1.2027 -0.6425  2.0259
  627MOL0     H84643   2.494   2.267   0.614 -0.1768 -0.4242 -2.5921
  627MOL0     H84644   2.597   1.661   1.275 -0.2200 -0.3747  0.9478
  627MOL0     H84645   2.707   1.535   1.460 -0.1182 -1.7544  0.8698
  628MOL0     O84646   0.925   3.322   2.787 -0.6468  1.0931  0.3103
  628MOL0     C84647   0.984   3.379   2.696  0.3816  0.3237 -0.1775
  628MOL0     O84648   1.060   3.494   2.704 -0.0332 -0.1451  0.5572
  628MOL0     C84649   1.083   3.537   2.829  0.2722 -0.2115  0.4609
  628MOL0     C84650   0.981   3.603   2.899 -0.5893  0.4007 -0.6636
  628MOL0     C84651   1.013   3.676   3.015 -1.1934  0.6163 -0.9588
  628MOL0     C84652   1.144   3.668   3.066  0.3001 -0.2474  0.2969
  628MOL0     O84653   1.182   3.724   3.180 -0.3106  0.5541  0.6157
  628MOL0     C84654   1.108   3.822   3.248  0.4443  0.4680  0.3668
  628MOL0     C84655   1.095   3.952   3.176 -0.2953  0.8102  0.4540
  628MOL0     C84656   1.003   4.045   3.250  0.4285  0.7685 -0.3908
  628MOL0     C84657   1.066   4.108   3.371 -0.0825 -0.1619 -0.4766
  628MOL0     C84658   0.955   4.185   3.451 -0.2554  0.3952  1.1548
  628MOL0     C84659   0.994   4.247   3.581  0.3108  0.6041  0.9819
  628MOL0     C84660   0.870   4.311   3.648  0.0921 -1.1222  1.4725
  628MOL0     C84661   0.921   4.436   3.726  0.2533  0.0842  0.3499
  628MOL0     N84662   0.937   4.556   3.640  0.1533  0.6445 -0.0363
  628MOL0     C84663   0.847   4.655   3.597  1.7638 -0.2055  0.5675
  628MOL0     C84664   0.912   4.738   3.522 -0.6957 -0.2694  0.3883
  628MOL0     C84665   0.861   4.880   3.488  0.0163  0.2619 -0.1021
  628MOL0     C84666   0.890   4.978   3.597 -0.8704  0.2127  0.3589
  628MOL0     C84667   1.027   4.961   3.678 -0.5215  0.3340 -0.4050
  628MOL0     C84668   1.038   5.085   3.773 -0.7298 -0.2697 -0.5638
  628MOL0     O84669   0.933   5.110   3.868  0.2231 -0.6078  0.3748
  628MOL0     C84670   0.961   5.175   3.988  0.5362 -0.0526 -0.4204
  628MOL0     C84671   1.078   5.243   4.034 -0.0111 -0.1308 -0.9709
  628MOL0     C84672   1.080   5.306   4.167  0.8283 -0.7158  0.6609
  628MOL0     C84673   1.196   5.386   4.197  0.5973 -0.1013  0.6781
  628MOL0     C84674   0.958   5.322   4.234 -0.4588 -0.3416 -0.2428
  628MOL0     C84675   0.938   5.386   4.368  0.1518  1.0609 -0.1890
  628MOL0     O84676   0.835   5.333   4.437 -0.1146 -0.2031  0.2589
  628MOL0     C84677   0.814   5.385   4.558 -0.4769 -0.9888 -0.3848
  628MOL0     C84678   0.737   5.501   4.571  0.3948 -0.0173 -0.2987
  628MOL0     C84679   0.687   5.537   4.696  0.1068  0.3882 -0.2618
  628MOL0     C84680   0.733   5.472   4.814  0.4616  0.3664  0.0571
  628MOL0     O84681   0.703   5.512   4.947 -0.2102  0.0174 -0.1215
  628MOL0     C84682   0.589   5.599   4.970  0.4235 -0.2217 -0.0896
  628MOL0     C84683   0.634   5.745   4.973 -0.3150  1.3800 -0.4838
  628MOL0     C84684   0.565   5.817   5.080  0.5214  0.5016 -0.0629
  628MOL0     C84685   0.414   5.819   5.058 -0.5294 -0.5137 -0.5954
  628MOL0     C84686   0.342   5.927   5.144 -0.4268  0.1825  0.3598
  628MOL0     C84687   0.247   6.023   5.068 -0.2038  0.3703  0.5167
  628MOL0     C84688   0.130   6.071   5.153 -1.4923 -0.4368 -0.7059
  628MOL0     C84689   0.038   6.172   5.084 -0.1267  1.0137  0.1161
  628MOL0    Cl84690  -0.075   6.069   4.987  0.1399  0.2865  0.1856
  628MOL0     C84691   0.822   5.365   4.802 -0.4693  0.0840  0.4759
  628MOL0     C84692   0.868   5.322   4.671 -0.8994  0.4757 -0.8896
  628MOL0     O84693   1.009   5.481   4.397  0.2359  0.0444 -0.5123
  628MOL0     C84694   0.837   5.259   4.177 -0.2379 -0.2631  0.1072
  628MOL0     C84695   0.851   5.177   4.067  0.0711  0.2396  0.6929
  628MOL0     N84696   1.047   4.702   3.523 -0.1969 -0.3742 -0.2573
  628MOL0     N84697   1.061   4.592   3.592  0.1103  0.0246 -0.4987
  628MOL0     C84698   1.241   3.597   2.996 -0.3141 -0.5949 -0.5475
  628MOL0     C84699   1.213   3.531   2.886  0.4387 -0.3337 -0.0861
  628MOL0     C84700   0.978   3.313   2.567 -0.3175  0.1200 -0.9445
  628MOL0     C84701   0.925   3.187   2.537 -0.2974 -0.2757  0.3400
  628MOL0     C84702   0.927   3.134   2.404  0.2057  0.9578 -1.0970
  628MOL0     C84703   0.990   3.201   2.300 -0.4368 -0.4942  0.9259
  628MOL0     O84704   0.982   3.137   2.173  0.7153  0.8173  0.1530
  628MOL0     C84705   0.997   3.205   2.052  0.6249 -0.8153  0.6267
  628MOL0     C84706   1.118   3.161   1.980  1.0274  0.2963  0.2196
  628MOL0     C84707   1.117   3.207   1.829  0.0067 -0.0619  0.3749
  628MOL0     C84708   1.108   3.359   1.810 -0.4113 -0.1442  0.0036
  628MOL0     C84709   1.109   3.393   1.672  0.7778 -0.6466  0.5370
  628MOL0     C84710   1.121   3.419   1.550 -0.0980  0.7186 -0.0482
  628MOL0     C84711   1.049   3.318   2.331  0.0634  0.0072 -0.4277
  628MOL0     C84712   1.043   3.374   2.455  0.0085 -0.4171  0.8525
  628MOL0     H84713   0.882   3.589   2.857 -1.1995 -1.5006  1.2490
  628MOL0     H84714   0.936   3.732   3.067 -1.4772  1.5986 -2.4010
  628MOL0     H84715   1.009   3.780   3.267  0.0884  0.4204 -1.4502
  628MOL0     H84716   1.161   3.839   3.342  0.8728 -1.4557  0.5328
  628MOL0     H84717   1.190   4.000   3.148 -1.8825  1.8245 -4.0228
  628MOL0     H84718   1.054   3.933   3.077 -1.1523 -2.6824  1.3386
  628MOL0     H84719   0.956   4.124   3.191 -1.1156 -0.0273 -0.2646
  628MOL0     H84720   0.926   3.988   3.302  0.6625  1.5622  0.8737
  628MOL0     H84721   1.108   4.036   3.442  1.7104  2.1106  0.9393
  628MOL0     H84722   1.152   4.169   3.341 -0.5835  1.2690  0.8751
  628MOL0     H84723   0.923   4.268   3.387  0.7084 -1.4883 -2.0347
  628MOL0     H84724   0.875   4.114   3.472  0.3805 -0.9094 -0.5972
  628MOL0     H84725   1.031   4.167   3.646  1.1976  1.3873  1.4705
  628MOL0     H84726   1.069   4.322   3.557 -1.1397  2.0472  0.7539
  628MOL0     H84727   0.805   4.349   3.569  1.8275 -0.8619  0.1218
  628MOL0     H84728   0.816   4.248   3.719 -0.0591  1.1391  3.5188
  628MOL0     H84729   1.018   4.412   3.772 -0.0489 -2.6464 -0.2644
  628MOL0     H84730   0.847   4.469   3.800 -0.5618  1.5316 -1.0349
  628MOL0     H84731   0.740   4.659   3.615  1.3105 -0.1459 -1.8324
  628MOL0     H84732   0.912   4.912   3.396 -1.2285  0.1284 -0.8625
  628MOL0     H84733   0.756   4.889   3.460  0.2151 -4.7267 -3.8887
  628MOL0     H84734   0.808   4.978   3.669 -1.2515 -1.0595 -0.0569
  628MOL0     H84735   0.898   5.079   3.555  2.9538  0.3747  1.1234
  628MOL0     H84736   1.109   4.953   3.607 -0.7770 -0.0690 -0.6617
  628MOL0     H84737   1.023   4.870   3.739  0.6132  2.2948  2.8760
  628MOL0     H84738   1.068   5.176   3.721 -1.1468 -0.0285 -0.3765
  628MOL0     H84739   1.119   5.053   3.839  1.5552  1.3502 -2.4204
  628MOL0     H84740   1.157   5.244   3.960 -0.4501 -3.4063 -1.6482
  628MOL0     H84741   1.188   5.489   4.162  0.2692  0.0262  1.1100
  628MOL0     H84742   1.215   5.376   4.304 -0.0743 -1.6976  0.6796
  628MOL0     H84743   1.283   5.336   4.154  0.8071 -0.0549  1.0451
  628MOL0     H84744   0.695   5.547   4.482 -0.5475 -0.5626 -0.1532
  628MOL0     H84745   0.606   5.609   4.705  2.1497  2.7838  0.1075
  628MOL0     H84746   0.508   5.589   4.897  0.2266  3.7950 -0.6667
  628MOL0     H84747   0.547   5.575   5.067  5.0868  0.2863  2.3676
  628MOL0     H84748   0.742   5.749   4.991  0.3156 -0.9075 -2.9435
  628MOL0     H84749   0.630   5.783   4.871 -0.2619  0.7382 -0.7358
  628MOL0     H84750   0.604   5.919   5.085 -1.1633  1.1282  0.7333
  628MOL0     H84751   0.594   5.771   5.175  0.9672  0.9202  0.0070
  628MOL0     H84752   0.402   5.843   4.952 -0.8349 -1.7989 -0.8729
  628MOL0     H84753   0.377   5.721   5.089  0.6084  0.2824  4.0805
  628MOL0     H84754   0.416   5.986   5.199 -0.8738  1.1695 -0.0625
  628MOL0     H84755   0.286   5.881   5.225 -0.2854  3.4690  2.5414
  628MOL0     H84756   0.298   6.111   5.028 -2.9725  1.3469 -1.1881
  628MOL0     H84757   0.200   5.976   4.981  1.0799 -1.2320  0.6441
  628MOL0     H84758   0.169   6.114   5.245 -1.9109  0.4713 -0.9378
  628MOL0     H84759   0.067   5.988   5.183 -3.1140  0.5637 -1.2105
  628MOL0     H84760   0.087   6.240   5.014  0.3911 -1.0042 -1.6090
  628MOL0     H84761  -0.007   6.232   5.163  1.4943  1.9672  0.3390
  628MOL0     H84762   0.857   5.309   4.888  2.2570 -0.3496 -0.8174
  628MOL0     H84763   0.939   5.240   4.674  0.0315  1.2524  1.7624
  628MOL0     H84764   0.743   5.266   4.230  0.9730 -0.6791  2.4797
  628MOL0     H84765   0.754   5.131   4.050 -0.0075  0.7245 -0.2365
  628MOL0     H84766   1.340   3.596   3.041 -0.3060 -2.4036 -0.5328
  628MOL0     H84767   1.288   3.474   2.832  0.9018 -0.7497  0.9814
  628MOL0     H84768   0.883   3.127   2.617  3.3935 -2.5402  0.8035
  628MOL0     H84769   0.879   3.037   2.394 -2.3066  2.0272 -0.3121
  628MOL0     H84770   0.912   3.185   1.986 -1.0517  1.5150  1.9485
  628MOL0     H84771   1.002   3.312   2.074 -0.2476 -0.9076  1.3544
  628MOL0     H84772   1.134   3.054   1.991 -0.0637 -0.0600 -1.2968
  628MOL0     H84773   1.206   3.198   2.034 -0.1973  1.2003  1.6817
  628MOL0     H84774   1.042   3.162   1.764  3.0775 -1.5429 -2.4732
  628MOL0     H84775   1.207   3.169   1.780 -1.7293 -0.7367 -2.5124
  628MOL0     H84776   1.198   3.399   1.859  1.7952 -0.7097 -3.3201
  628MOL0     H84777   1.020   3.414   1.844  0.5009  2.3941 -1.4847
  628MOL0     H84778   1.142   3.435   1.446 -1.1766 -1.7249 -0.7213
  628MOL0     H84779   1.101   3.383   2.261  0.5676 -0.1941 -0.2392
  628MOL0     H84780   1.077   3.476   2.468 -2.7789  0.5142  1.5754
  629MOL0     O84781  10.076   6.073   4.629  0.2755 -0.6824 -0.7964
  629MOL0     C84782  10.044   5.966   4.576 -0.0023  0.3453 -0.2232
  629MOL0     O84783   9.989   5.863   4.640 -0.5458 -0.6409  0.3118
  629MOL0     C84784   9.964   5.884   4.770  0.0481 -0.1060  0.3899
  629MOL0     C84785   9.834   5.874   4.825  0.4205  1.6637  0.9254
  629MOL0     C84786   9.799   5.890   4.964  0.0480 -0.1315  0.3802
  629MOL0     C84787   9.898   5.924   5.054  0.0378 -0.2268  0.3865
  629MOL0     O84788   9.852   5.969   5.180 -0.4140  0.7497  1.0480
  629MOL0     C84789   9.869   5.867   5.283  0.1493 -0.9053  0.4756
  629MOL0     C84790   9.908   5.921   5.410 -1.2737 -0.3419  0.0888
  629MOL0     C84791  10.002   6.040   5.390  0.4779  0.3529 -0.2590
  629MOL0     C84792  10.072   6.075   5.521 -0.1332  0.0705  0.1658
  629MOL0     C84793  10.200   5.999   5.539  0.1436  0.5147 -0.7832
  629MOL0     C84794  10.320   6.056   5.457 -0.4187 -0.4885 -0.0246
  629MOL0     C84795  10.343   6.207   5.463 -0.5047 -0.6765 -0.2961
  629MOL0     C84796  10.479   6.256   5.406 -1.4135 -0.0677  0.9113
  629MOL0     N84797  10.471   6.287   5.263 -0.2021 -0.3540  0.1671
  629MOL0     C84798  10.365   6.346   5.196  0.4678  0.7351  0.3303
  629MOL0     C84799  10.388   6.337   5.066 -0.0289  0.5965  0.3306
  629MOL0     C84800  10.291   6.375   4.953  0.3973 -0.4130  1.1663
  629MOL0     C84801  10.148   6.347   4.979  0.7636 -0.0284 -0.1683
  629MOL0     C84802  10.081   6.326   4.847  0.1176 -0.0262 -0.1871
  629MOL0     C84803  10.055   6.455   4.780  0.8101  0.5341 -0.5753
  629MOL0     O84804  10.172   6.489   4.697  0.3608  0.1102  0.1504
  629MOL0     C84805  10.177   6.442   4.573  0.4795  0.6387 -0.1776
  629MOL0     C84806  10.062   6.427   4.491 -1.0001  0.2436  0.6874
  629MOL0     C84807  10.070   6.403   4.359  0.2452  0.4266  0.2562
  629MOL0     C84808   9.936   6.416   4.283  0.4599  0.2682  0.6505
  629MOL0     C84809  10.201   6.389   4.301  0.3942  1.6161  0.2570
  629MOL0     C84810  10.220   6.375   4.153 -0.1331  0.3764  0.2405
  629MOL0     O84811  10.137   6.441   4.074 -0.1407 -0.5750 -0.5294
  629MOL0     C84812  10.159   6.443   3.939  0.3556 -1.3171 -0.4717
  629MOL0     C84813  10.126   6.339   3.860 -0.2064 -0.1512  0.0841
  629MOL0     C84814  10.150   6.346   3.727 -0.2133  1.1492  0.0016
  629MOL0     C84815  10.204   6.456   3.673  0.3197  0.4790  0.4423
  629MOL0     O84816  10.219   6.437   3.538 -0.9949  0.1169 -0.1167
  629MOL0     C84817  10.236   6.549   3.449  0.9518  0.9617  0.4425
  629MOL0     C84818  10.203   6.510   3.303 -1.2436 -0.1543 -0.0650
  629MOL0     C84819  10.294   6.392   3.256 -0.4330 -0.5100 -0.8243
  629MOL0     C84820  10.433   6.455   3.242 -0.7018 -0.4473 -0.1890
  629MOL0     C84821  10.533   6.352   3.197  0.1036  0.8657  0.6476
  629MOL0     C84822  10.674   6.409   3.175  0.6968  0.0852 -0.9614
  629MOL0     C84823  10.760   6.300   3.103 -0.0524  0.2622 -0.2975
  629MOL0     C84824  10.904   6.351   3.090  0.6199 -0.2261  0.3597
  629MOL0    Cl84825  10.996   6.244   2.982  0.0433 -0.4312  0.0912
  629MOL0     C84826  10.229   6.568   3.743  0.2075  0.1522 -0.5399
  629MOL0     C84827  10.200   6.570   3.879  0.2981 -0.1792  0.0260
  629MOL0     O84828  10.317   6.307   4.121 -0.0202  0.3844  0.2334
  629MOL0     C84829  10.312   6.383   4.383  1.0516 -0.8770  0.7336
  629MOL0     C84830  10.297   6.415   4.518  0.2852 -0.5217  0.0035
  629MOL0     N84831  10.511   6.284   5.048  0.2801 -0.1428 -0.7123
  629MOL0     N84832  10.560   6.260   5.164 -0.4132  1.2036 -0.0774
  629MOL0     C84833  10.029   5.909   5.005 -0.5883 -0.6273  0.3163
  629MOL0     C84834  10.067   5.895   4.873 -0.0216 -0.1074 -0.2371
  629MOL0     C84835  10.033   5.953   4.430  0.1445 -0.2635  1.5582
  629MOL0     C84836   9.949   5.861   4.370  0.4128 -0.0887  0.2318
  629MOL0     C84837   9.933   5.850   4.231  0.4995 -0.8404 -0.5697
  629MOL0     C84838  10.001   5.952   4.151  0.3481 -0.7788 -0.1037
  629MOL0     O84839  10.006   5.938   4.018 -0.5674 -0.9021  0.3073
  629MOL0     C84840  10.023   5.819   3.945 -0.3192  0.7638 -0.3294
  629MOL0     C84841  10.127   5.830   3.840  0.5738  0.6063 -0.0118
  629MOL0     C84842  10.115   5.955   3.746  0.6354  0.4364  0.2587
  629MOL0     C84843  10.229   5.954   3.644  0.0233 -0.6225  0.1267
  629MOL0     C84844  10.180   6.014   3.522  0.6019 -1.4364  0.5946
  629MOL0     C84845  10.142   6.065   3.418 -0.2281  0.2694 -0.3379
  629MOL0     C84846  10.089   6.049   4.213  0.3404  0.0913  0.3765
  629MOL0     C84847  10.101   6.047   4.352  0.5201 -0.1006 -0.6748
  629MOL0     H84848   9.755   5.848   4.755  1.7152  1.4329 -0.5018
  629MOL0     H84849   9.695   5.894   4.994  0.2596 -1.1069  1.3082
  629MOL0     H84850   9.771   5.820   5.302 -0.7897  1.1802  1.1213
  629MOL0     H84851   9.945   5.792   5.261  0.2073 -0.5042 -0.7646
  629MOL0     H84852   9.831   5.964   5.475  0.1965  0.8251  1.1126
  629MOL0     H84853   9.955   5.839   5.465 -0.1110 -1.8924 -3.0025
  629MOL0     H84854  10.077   5.992   5.326 -0.8433 -1.7765 -0.3042
  629MOL0     H84855   9.956   6.126   5.339 -3.2075 -0.8071  0.8341
  629MOL0     H84856  10.081   6.182   5.543 -0.1930  0.0295  0.4012
  629MOL0     H84857   9.994   6.045   5.592 -0.7561  0.6276 -0.2776
  629MOL0     H84858  10.223   5.996   5.646  0.7930 -1.9387 -0.9402
  629MOL0     H84859  10.190   5.896   5.505  1.4874 -0.6305  1.9614
  629MOL0     H84860  10.413   6.015   5.497 -0.1818 -0.5868 -0.6649
  629MOL0     H84861  10.315   6.031   5.350 -0.7697 -2.0905  0.3337
  629MOL0     H84862  10.260   6.260   5.416 -0.5907  1.9384  2.4679
  629MOL0     H84863  10.338   6.241   5.567 -1.7503 -1.2217 -0.1613
  629MOL0     H84864  10.555   6.183   5.432  0.9670  1.4661 -1.2624
  629MOL0     H84865  10.517   6.339   5.466 -3.6997  0.0208  2.3532
  629MOL0     H84866  10.269   6.373   5.239  0.2263  0.5283 -0.0711
  629MOL0     H84867  10.303   6.481   4.931  0.1238 -0.3344  1.3867
  629MOL0     H84868  10.326   6.326   4.862 -1.1180 -2.8730  1.8133
  629MOL0     H84869  10.096   6.414   5.048 -2.0879  1.1941 -3.2506
  629MOL0     H84870  10.139   6.250   5.028  2.2344  0.7682  1.8110
  629MOL0     H84871   9.987   6.272   4.859 -0.1645  0.2463 -1.0625
  629MOL0     H84872  10.153   6.273   4.785  1.0499 -0.2399  1.0360
  629MOL0     H84873  10.032   6.539   4.847 -0.3274 -0.0590 -0.2035
  629MOL0     H84874   9.960   6.438   4.729  1.2225 -2.7959 -0.4261
  629MOL0     H84875   9.966   6.466   4.522  0.1334  4.1758 -0.2042
  629MOL0     H84876   9.855   6.382   4.348  0.8187  2.1650  2.1975
  629MOL0     H84877   9.909   6.519   4.257  2.6352  0.7527  0.1005
  629MOL0     H84878   9.932   6.360   4.189  0.0085 -1.1643  1.5012
  629MOL0     H84879  10.073   6.253   3.901  0.2942 -1.6582 -2.2239
  629MOL0     H84880  10.132   6.267   3.655 -1.9065  0.5779  1.0092
  629MOL0     H84881  10.157   6.615   3.485 -0.9966  0.0641 -1.9784
  629MOL0     H84882  10.335   6.596   3.451  0.5081  2.5264 -4.2158
  629MOL0     H84883  10.098   6.481   3.310 -0.7100 -1.7030  2.9693
  629MOL0     H84884  10.213   6.597   3.237  1.8664 -0.7661 -0.5465
  629MOL0     H84885  10.260   6.356   3.159 -0.6480 -1.9070 -0.2554
  629MOL0     H84886  10.298   6.311   3.329  1.8422 -2.6756 -3.1682
  629MOL0     H84887  10.439   6.528   3.161  2.3182  0.9136  1.1348
  629MOL0     H84888  10.475   6.514   3.323  3.4522 -0.6386 -1.9714
  629MOL0     H84889  10.497   6.293   3.112 -0.6358 -0.2933  1.7395
  629MOL0     H84890  10.553   6.288   3.283 -0.9426 -1.0344 -0.4627
  629MOL0     H84891  10.678   6.500   3.115  3.2867  0.4398 -0.3751
  629MOL0     H84892  10.722   6.424   3.272  0.3643  0.9734 -0.9272
  629MOL0     H84893  10.718   6.278   3.005  1.4890  0.0051 -0.9172
  629MOL0     H84894  10.757   6.214   3.171  0.1419  2.5094  2.8035
  629MOL0     H84895  10.940   6.342   3.193 -0.1130 -0.1638  0.6344
  629MOL0     H84896  10.894   6.451   3.046  2.1453 -1.1721 -2.3039
  629MOL0     H84897  10.287   6.649   3.701  0.3475 -0.1492 -0.9323
  629MOL0     H84898  10.210   6.665   3.930  0.7312 -1.7339  3.0646
  629MOL0     H84899  10.410   6.370   4.337  1.0799  0.8882  0.2290
  629MOL0     H84900  10.391   6.434   4.569  1.4438 -1.7802 -1.5556
  629MOL0     H84901  10.116   5.933   5.066  0.9962  1.5620 -2.5505
  629MOL0     H84902  10.171   5.901   4.840 -0.0032  2.4938  0.0509
  629MOL0     H84903   9.892   5.789   4.428  2.5953 -0.9801  1.3513
  629MOL0     H84904   9.879   5.765   4.192 -1.6020  1.0394 -1.9904
  629MOL0     H84905  10.033   5.730   4.008 -2.2464  2.4638  2.5949
  629MOL0     H84906   9.925   5.812   3.899 -0.7168  0.3171  0.5578
  629MOL0     H84907  10.131   5.740   3.778  1.0928  1.2919 -0.9938
  629MOL0     H84908  10.217   5.842   3.902 -0.0640 -1.6797  1.5034
  629MOL0     H84909  10.128   6.046   3.807  1.6508 -0.4181  1.3858
  629MOL0     H84910  10.019   5.941   3.697  0.3948  0.7136  0.6406
  629MOL0     H84911  10.236   5.849   3.613  0.5167 -0.1390 -1.5291
  629MOL0     H84912  10.326   5.995   3.673 -0.0502  0.3334 -0.9003
  629MOL0     H84913  10.072   6.096   3.342 -2.8795 -1.6737  1.1380
  629MOL0     H84914  10.161   6.102   4.151  2.2031 -2.9888 -0.3296
  629MOL0     H84915  10.171   6.125   4.382  1.8989 -0.9331 -1.6001
  630MOL0     O84916   4.155   4.835   9.396  0.5241 -0.0753  0.2068
  630MOL0     C84917   4.256   4.763   9.409  0.3069 -0.4254  0.3224
  630MOL0     O84918   4.344   4.769   9.518  0.0472  0.2631  0.5313
  630MOL0     C84919   4.350   4.858   9.622 -0.0780 -0.8924  0.1275
  630MOL0     C84920   4.262   4.961   9.657 -0.3866 -0.8809 -0.4879
  630MOL0     C84921   4.287   5.044   9.764  0.2795 -0.5530 -0.6146
  630MOL0     C84922   4.393   5.009   9.848  0.4279 -0.4409  0.7509
  630MOL0     O84923   4.407   5.095   9.946 -0.0526 -0.9739  0.5389
  630MOL0     C84924   4.420   5.065  10.084  0.4207 -0.2701  0.1421
  630MOL0     C84925   4.300   4.993  10.149  0.1357 -0.3077 -0.5553
  630MOL0     C84926   4.173   5.082  10.125  0.5282 -0.2626 -0.1194
  630MOL0     C84927   4.045   5.021  10.183 -0.6335  0.2316 -0.2197
  630MOL0     C84928   3.925   5.106  10.138 -0.7509 -0.3004  0.3066
  630MOL0     C84929   3.796   5.018  10.132 -0.1279 -1.4679 -0.0210
  630MOL0     C84930   3.667   5.080  10.052 -0.9338  0.2900 -0.8594
  630MOL0     C84931   3.616   5.207  10.125  0.0350  0.5690  0.1758
  630MOL0     N84932   3.484   5.252  10.092 -1.0787  0.4899  0.4520
  630MOL0     C84933   3.375   5.185  10.045  0.1091 -0.4141 -0.3386
  630MOL0     C84934   3.275   5.281  10.063  0.1370 -0.6440  0.2778
  630MOL0     C84935   3.140   5.263  10.011  0.5555  0.0529 -0.1589
  630MOL0     C84936   3.058   5.181  10.111 -0.2550 -0.0161  0.1731
  630MOL0     C84937   2.932   5.128  10.053 -1.0731 -0.0520  0.2916
  630MOL0     C84938   2.911   5.100   9.900  0.5319  0.7998  0.1299
  630MOL0     O84939   2.772   5.078   9.864  0.2871  0.2751  0.3739
  630MOL0     C84940   2.751   5.064   9.729  0.2944  0.2176  0.9710
  630MOL0     C84941   2.841   5.024   9.631 -0.1535 -0.0721  0.0377
  630MOL0     C84942   2.812   5.026   9.497 -0.0656 -0.0286 -0.5856
  630MOL0     C84943   2.924   4.985   9.405  0.3436  0.6235  0.6371
  630MOL0     C84944   2.684   5.082   9.459  0.1502  0.1527  0.6495
  630MOL0     C84945   2.644   5.097   9.312 -0.0478  0.0063 -0.7210
  630MOL0     O84946   2.517   5.071   9.273  0.4215 -0.1037  0.5998
  630MOL0     C84947   2.478   5.109   9.148 -0.3903 -1.0788  0.0296
  630MOL0     C84948   2.455   5.246   9.125 -0.6659  0.6901 -0.2158
  630MOL0     C84949   2.406   5.283   8.997  0.2058  0.8627  0.6013
  630MOL0     C84950   2.397   5.195   8.897 -1.0993 -1.1566  0.0246
  630MOL0     O84951   2.373   5.250   8.774  0.2718 -0.6683 -0.2837
  630MOL0     C84952   2.289   5.166   8.696 -0.1821  0.3695  0.1778
  630MOL0     C84953   2.192   5.242   8.600 -0.1693 -0.5118 -0.0259
  630MOL0     C84954   2.104   5.335   8.685  0.1094 -1.0562  0.2443
  630MOL0     C84955   2.161   5.478   8.714  0.0295  0.3274 -0.6126
  630MOL0     C84956   2.072   5.556   8.808  0.3007 -0.2225  0.4188
  630MOL0     C84957   2.087   5.707   8.778 -0.7667  0.8113 -0.1404
  630MOL0     C84958   1.983   5.784   8.853  0.8000 -1.0599 -0.9715
  630MOL0     C84959   2.015   5.936   8.873  0.2412 -0.2125 -0.8808
  630MOL0    Cl84960   2.175   5.949   8.947  0.0775  0.0858 -0.1904
  630MOL0     C84961   2.429   5.063   8.922  0.1851  0.1459 -0.6775
  630MOL0     C84962   2.466   5.021   9.048 -0.1945  0.2562  0.3128
  630MOL0     O84963   2.734   5.140   9.240  0.4144  0.8056 -0.4755
  630MOL0     C84964   2.590   5.113   9.549  0.6253 -0.6357 -0.2497
  630MOL0     C84965   2.620   5.104   9.687  0.1475  1.6328  0.3523
  630MOL0     N84966   3.321   5.402  10.105 -0.4467  0.6413  1.6554
  630MOL0     N84967   3.446   5.380  10.129 -0.3312 -0.0303 -1.2229
  630MOL0     C84968   4.485   4.911   9.811 -0.1819 -0.3166 -0.1239
  630MOL0     C84969   4.469   4.839   9.696  0.3143 -0.9179 -0.1676
  630MOL0     C84970   4.278   4.646   9.320 -0.8057  0.1512 -0.0191
  630MOL0     C84971   4.179   4.614   9.233  0.8176  0.6636  0.1776
  630MOL0     C84972   4.198   4.503   9.147  0.8968 -0.5290  0.4017
  630MOL0     C84973   4.318   4.425   9.150  0.2256 -0.2373  0.4489
  630MOL0     O84974   4.344   4.319   9.062  0.3296  0.0216 -0.6126
  630MOL0     C84975   4.256   4.267   8.962 -0.4658  0.0966  0.3526
  630MOL0     C84976   4.330   4.129   8.917 -0.4033 -0.0394  0.0233
  630MOL0     C84977   4.311   4.086   8.769 -0.4691  0.3540 -0.0537
  630MOL0     C84978   4.172   4.076   8.709  0.0634 -1.0765 -0.5783
  630MOL0     C84979   4.098   3.969   8.778  0.1892 -0.4165 -0.2644
  630MOL0     C84980   4.041   3.883   8.838 -0.0930  1.5903 -0.1095
  630MOL0     C84981   4.420   4.466   9.238 -0.2482  0.7221 -0.6070
  630MOL0     C84982   4.400   4.577   9.318 -0.0049 -0.5107 -0.5648
  630MOL0     H84983   4.176   4.983   9.595 -0.2205 -0.6691 -0.6413
  630MOL0     H84984   4.235   5.131   9.804 -0.0880 -0.8810 -0.3820
  630MOL0     H84985   4.503   4.996  10.102  1.1368  0.1733 -1.2488
  630MOL0     H84986   4.434   5.159  10.138  2.8041 -1.1598  1.2123
  630MOL0     H84987   4.298   4.890  10.112 -0.3090 -1.0267  1.3315
  630MOL0     H84988   4.317   4.994  10.257 -0.2320  0.3063 -0.4977
  630MOL0     H84989   4.190   5.188  10.147 -2.5178  0.1688  0.6616
  630MOL0     H84990   4.169   5.077  10.016  0.3079 -1.5497 -0.0745
  630MOL0     H84991   4.045   4.921  10.138  0.9900  0.0668  0.0886
  630MOL0     H84992   4.055   5.006  10.291 -0.4728  1.2675 -0.0785
  630MOL0     H84993   3.911   5.199  10.195 -0.4572  0.1844 -0.3953
  630MOL0     H84994   3.951   5.135  10.036  1.6627 -2.3554  0.2301
  630MOL0     H84995   3.834   4.937  10.069  2.4607 -0.5250  0.2124
  630MOL0     H84996   3.763   4.979  10.229 -1.6349 -0.5813 -0.1478
  630MOL0     H84997   3.692   5.115   9.952  0.7342 -0.8305 -0.8677
  630MOL0     H84998   3.591   5.001  10.055  0.3964 -1.0450 -1.0092
  630MOL0     H84999   3.686   5.291  10.117 -2.9677  3.5296  2.2793
  630MOL0     H85000   3.620   5.186  10.232 -0.6459 -0.5616 -0.0080
  630MOL0     H85001   3.359   5.088   9.999 -0.0903  0.7924 -2.9939
  630MOL0     H85002   3.098   5.363   9.995  1.5840  0.4889 -0.2648
  630MOL0     H85003   3.142   5.214   9.913 -1.5375  0.2960 -0.3560
  630MOL0     H85004   3.036   5.244  10.197 -1.2562  3.4024 -2.4023
  630MOL0     H85005   3.126   5.098  10.135 -0.2199  0.0732  0.3758
  630MOL0     H85006   2.860   5.203  10.086 -2.7234 -0.2520 -2.5013
  630MOL0     H85007   2.906   5.043  10.117  2.2073 -0.9826  0.5667
  630MOL0     H85008   2.965   5.009   9.876  1.8691  1.8109 -0.8119
  630MOL0     H85009   2.943   5.178   9.830  1.4831 -0.5198 -0.9417
  630MOL0     H85010   2.941   4.993   9.656 -0.9226 -4.4217 -1.4844
  630MOL0     H85011   3.009   4.942   9.459  0.6699  0.4858  0.0155
  630MOL0     H85012   2.899   4.912   9.327 -2.6299  0.6908  1.4070
  630MOL0     H85013   2.964   5.073   9.354  0.7507  0.5543  0.8327
  630MOL0     H85014   2.463   5.317   9.207 -2.5744  0.2297  0.4138
  630MOL0     H85015   2.385   5.385   8.966 -0.2076  0.6294  0.0886
  630MOL0     H85016   2.357   5.107   8.635 -1.4416 -1.9556  0.8902
  630MOL0     H85017   2.220   5.103   8.753 -1.5866  1.2618 -0.4527
  630MOL0     H85018   2.248   5.297   8.524  0.5978 -3.5107 -1.8426
  630MOL0     H85019   2.129   5.181   8.534  1.0991 -0.2463 -1.5618
  630MOL0     H85020   2.094   5.288   8.783  2.7149 -3.4837 -0.4920
  630MOL0     H85021   2.008   5.335   8.633 -0.2775  0.4835  0.9186
  630MOL0     H85022   2.256   5.479   8.768 -0.4330 -0.2540  0.2405
  630MOL0     H85023   2.178   5.522   8.616  1.4321 -0.3139 -0.6716
  630MOL0     H85024   2.087   5.539   8.915  1.6904  2.3366  0.7030
  630MOL0     H85025   1.964   5.539   8.796  0.0737  1.1669  0.3505
  630MOL0     H85026   2.186   5.741   8.809  0.0743  2.6239 -4.1633
  630MOL0     H85027   2.076   5.724   8.670  1.4134  2.9723 -0.1062
  630MOL0     H85028   1.984   5.749   8.957  4.4164  0.7322 -0.2482
  630MOL0     H85029   1.895   5.766   8.791  0.5500 -1.6879 -0.4498
  630MOL0     H85030   1.941   5.982   8.939 -0.4653  1.8401 -2.9699
  630MOL0     H85031   2.009   5.985   8.775 -2.8048 -1.7093 -1.5817
  630MOL0     H85032   2.427   4.992   8.839 -2.3815 -3.0988  1.9032
  630MOL0     H85033   2.506   4.921   9.060 -0.1753  0.2139 -0.1195
  630MOL0     H85034   2.487   5.139   9.527  1.0216  0.3395 -1.0218
  630MOL0     H85035   2.536   5.120   9.755 -1.8405 -2.5733 -0.7714
  630MOL0     H85036   4.568   4.903   9.880 -2.1745  3.0708  3.0643
  630MOL0     H85037   4.544   4.763   9.673 -0.2939 -2.1703  1.7457
  630MOL0     H85038   4.091   4.678   9.231 -1.7493 -2.4361  3.0140
  630MOL0     H85039   4.127   4.478   9.070  1.8933  0.3510 -0.8402
  630MOL0     H85040   4.154   4.251   8.999 -0.9713 -0.8846 -1.3711
  630MOL0     H85041   4.244   4.336   8.879 -2.1825 -1.3263 -0.6532
  630MOL0     H85042   4.321   4.047   8.989  1.6716  0.4323  0.9182
  630MOL0     H85043   4.436   4.157   8.924 -0.9270  1.7164  1.4535
  630MOL0     H85044   4.369   3.994   8.756 -1.1578 -0.1919  0.6179
  630MOL0     H85045   4.355   4.157   8.699 -1.6092 -2.7855 -4.3887
  630MOL0     H85046   4.177   4.055   8.602  2.0523  1.5189 -1.0760
  630MOL0     H85047   4.136   4.179   8.712  2.8925 -0.0225  2.0878
  630MOL0     H85048   3.981   3.803   8.876 -0.0816  0.5677 -2.0772
  630MOL0     H85049   4.513   4.414   9.256 -0.0305  1.8641  1.9800
  630MOL0     H85050   4.476   4.607   9.390 -0.4249 -0.5428 -0.1016
  631MOL0     O85051   3.529   4.116   1.908 -0.3445 -0.0045 -0.1649
  631MOL0     C85052   3.411   4.078   1.921 -0.2600  0.0302  0.1580
  631MOL0     O85053   3.367   3.955   1.961  0.1051 -0.3464 -0.4816
  631MOL0     C85054   3.448   3.868   2.025 -0.6241 -0.3934 -0.4308
  631MOL0     C85055   3.551   3.912   2.116  0.4374 -0.1258 -0.7047
  631MOL0     C85056   3.640   3.821   2.173  0.5323  0.6950  0.8227
  631MOL0     C85057   3.622   3.679   2.169 -0.9694 -0.0581 -0.3863
  631MOL0     O85058   3.704   3.598   2.239  0.3814  0.0396 -0.0801
  631MOL0     C85059   3.632   3.536   2.349 -0.4519 -0.1775  0.4979
  631MOL0     C85060   3.737   3.498   2.450 -0.1750  0.6540  0.3694
  631MOL0     C85061   3.783   3.621   2.525  1.2271 -0.1192  0.9299
  631MOL0     C85062   3.878   3.595   2.632  0.1185 -0.5162  0.0201
  631MOL0     C85063   4.019   3.591   2.575  0.1439 -1.0747 -0.9136
  631MOL0     C85064   4.126   3.593   2.685  0.8419 -0.5725  0.7377
  631MOL0     C85065   4.267   3.581   2.622  0.1136 -0.0146 -0.4281
  631MOL0     C85066   4.373   3.570   2.723  0.2396  0.2299  0.0157
  631MOL0     N85067   4.498   3.623   2.663  0.4332 -0.2966 -0.4363
  631MOL0     C85068   4.553   3.581   2.547  0.1605 -0.3705 -0.1690
  631MOL0     C85069   4.649   3.677   2.524 -0.1543 -0.1268 -1.2220
  631MOL0     C85070   4.754   3.683   2.425  0.9786  0.3438  0.1965
  631MOL0     C85071   4.770   3.830   2.359 -1.3101  0.1627  0.2411
  631MOL0     C85072   4.886   3.815   2.264 -0.2954  0.0721  0.1099
  631MOL0     C85073   4.934   3.956   2.227 -0.2788 -0.2583  0.6813
  631MOL0     O85074   5.051   3.934   2.134  0.1306  0.0964 -0.5156
  631MOL0     C85075   5.038   3.924   1.991  0.7895  0.2873 -0.6277
  631MOL0     C85076   4.916   3.944   1.919 -0.4839  0.3815  0.5065
  631MOL0     C85077   4.909   3.928   1.780  1.3405  0.1525 -0.2923
  631MOL0     C85078   4.770   3.945   1.714 -0.0168 -0.1430 -0.1315
  631MOL0     C85079   5.026   3.871   1.727  0.4900  1.0373 -0.5721
  631MOL0     C85080   5.023   3.816   1.584 -0.4707 -0.8265 -0.0364
  631MOL0     O85081   5.105   3.712   1.569  0.6496 -0.4380  0.2524
  631MOL0     C85082   5.147   3.647   1.453  0.2653  0.2563 -0.6758
  631MOL0     C85083   5.120   3.681   1.314 -0.8447  0.0966  0.1106
  631MOL0     C85084   5.167   3.597   1.205  0.5556  0.3031  0.0697
  631MOL0     C85085   5.237   3.481   1.233  1.1989  0.4704  0.3698
  631MOL0     O85086   5.282   3.404   1.126  0.3373  0.4157  0.5150
  631MOL0     C85087   5.298   3.267   1.158  0.8343  0.5815 -0.2364
  631MOL0     C85088   5.319   3.183   1.033  0.2629 -0.2904  0.7404
  631MOL0     C85089   5.334   3.041   1.059  0.2304  0.6922 -1.0369
  631MOL0     C85090   5.299   2.945   0.944  0.2477 -0.5146  1.4234
  631MOL0     C85091   5.304   2.811   0.993  0.1915  0.1578  0.3239
  631MOL0     C85092   5.303   2.708   0.880  0.3578 -0.1741 -0.1872
  631MOL0     C85093   5.342   2.576   0.944  0.4378  0.0053  0.0486
  631MOL0     C85094   5.247   2.511   1.035  0.8050 -0.2728 -0.1495
  631MOL0    Cl85095   5.110   2.452   0.943 -0.4433 -0.6924  0.2477
  631MOL0     C85096   5.257   3.451   1.366 -0.2546 -0.4269 -0.5509
  631MOL0     C85097   5.219   3.528   1.471  0.5121 -1.3755  0.2571
  631MOL0     O85098   4.972   3.880   1.491  0.4997 -0.1794  0.1632
  631MOL0     C85099   5.150   3.856   1.800 -0.4923  0.8603 -0.2645
  631MOL0     C85100   5.156   3.886   1.930 -0.0755 -0.0262  1.0050
  631MOL0     N85101   4.642   3.769   2.632  0.6671  0.1588  0.7575
  631MOL0     N85102   4.558   3.731   2.722  0.1916  0.1568  0.4195
  631MOL0     C85103   3.512   3.633   2.086  0.5744 -0.8798  0.0537
  631MOL0     C85104   3.428   3.731   2.010 -0.0338  0.9851 -0.4183
  631MOL0     C85105   3.303   4.179   1.910  0.4663 -0.4535  0.6900
  631MOL0     C85106   3.168   4.156   1.951 -0.3614  0.2592 -0.1900
  631MOL0     C85107   3.076   4.259   1.948 -0.8978  0.1655 -1.0568
  631MOL0     C85108   3.115   4.390   1.904 -0.6483  0.7242 -0.2103
  631MOL0     O85109   3.017   4.486   1.922  0.1258  0.6725 -0.2298
  631MOL0     C85110   3.022   4.618   1.872  0.1492  0.4719  0.2436
  631MOL0     C85111   3.081   4.710   1.978 -0.0629  0.5520  0.3114
  631MOL0     C85112   3.080   4.855   1.944 -0.5999  0.4497  0.5486
  631MOL0     C85113   3.134   4.939   2.057 -0.1107 -1.2954  0.2123
  631MOL0     C85114   3.274   4.904   2.091  0.9832 -0.2336  0.4599
  631MOL0     C85115   3.389   4.888   2.117 -0.4042  1.4110  0.3458
  631MOL0     C85116   3.248   4.415   1.860  1.3332 -0.4161  0.1483
  631MOL0     C85117   3.340   4.310   1.862 -0.4156 -1.4350  0.2203
  631MOL0     H85118   3.562   4.020   2.122  0.7124 -0.0749 -1.8567
  631MOL0     H85119   3.719   3.858   2.239  1.1273  1.7649 -0.4474
  631MOL0     H85120   3.553   3.594   2.397 -1.6563 -0.1886 -1.3862
  631MOL0     H85121   3.583   3.443   2.321 -2.4614  0.1794  2.5657
  631MOL0     H85122   3.680   3.435   2.519 -1.9794  0.7460 -0.9410
  631MOL0     H85123   3.821   3.440   2.411  1.1924  1.2183  2.3499
  631MOL0     H85124   3.820   3.692   2.450  2.1641 -1.7166 -0.1919
  631MOL0     H85125   3.700   3.679   2.566  0.8677 -0.4909  0.7326
  631MOL0     H85126   3.869   3.679   2.702 -1.5855 -1.1238  0.5795
  631MOL0     H85127   3.849   3.509   2.693  2.2733 -0.4923  1.1793
  631MOL0     H85128   4.024   3.498   2.516  0.0106 -1.5124 -0.2450
  631MOL0     H85129   4.034   3.675   2.507  2.8551 -0.2618  0.5380
  631MOL0     H85130   4.109   3.690   2.732  1.6102  0.2949 -0.7277
  631MOL0     H85131   4.103   3.517   2.761 -2.5159 -2.5013 -1.9048
  631MOL0     H85132   4.274   3.494   2.556  1.5643 -1.0868  1.0649
  631MOL0     H85133   4.272   3.671   2.560 -2.1951  1.2777  1.1330
  631MOL0     H85134   4.382   3.462   2.738  1.1721 -0.1217 -2.5908
  631MOL0     H85135   4.344   3.617   2.818 -1.0942  0.4910 -0.5012
  631MOL0     H85136   4.536   3.488   2.494 -0.8331 -0.0720 -0.3920
  631MOL0     H85137   4.845   3.656   2.478  0.1674  1.1782  2.1256
  631MOL0     H85138   4.734   3.619   2.339  1.6671 -0.1822  0.4278
  631MOL0     H85139   4.785   3.903   2.439  0.4710 -0.9512  0.9691
  631MOL0     H85140   4.677   3.851   2.304 -0.3116  1.3717 -1.0497
  631MOL0     H85141   4.847   3.761   2.176 -0.5757  0.3147  0.0805
  631MOL0     H85142   4.972   3.758   2.298  2.6711  2.0211 -3.3853
  631MOL0     H85143   4.965   4.011   2.316 -0.7921 -0.3473  0.9148
  631MOL0     H85144   4.859   4.015   2.173  1.0956 -1.8078 -3.3256
  631MOL0     H85145   4.822   3.957   1.971 -0.5465 -2.4115  1.2423
  631MOL0     H85146   4.776   3.985   1.612  3.3095 -2.3609 -0.9557
  631MOL0     H85147   4.708   3.855   1.724 -0.1670 -0.2493 -1.7058
  631MOL0     H85148   4.711   4.026   1.757 -0.5064  0.4777 -1.8696
  631MOL0     H85149   5.061   3.763   1.273 -1.8969 -1.7882 -2.3768
  631MOL0     H85150   5.162   3.628   1.101  0.3321 -2.1499 -0.6905
  631MOL0     H85151   5.376   3.244   1.231 -1.3002  1.9689  2.7003
  631MOL0     H85152   5.207   3.233   1.209  2.7791 -1.8518  1.8837
  631MOL0     H85153   5.249   3.186   0.949  1.4446 -4.2092 -0.6214
  631MOL0     H85154   5.418   3.206   0.991  0.3075  0.1015  1.0630
  631MOL0     H85155   5.269   3.015   1.143  0.8813 -0.5047 -0.8886
  631MOL0     H85156   5.437   3.027   1.092 -0.6146  3.8067  4.0951
  631MOL0     H85157   5.207   2.976   0.895  2.2856  2.8253 -0.7059
  631MOL0     H85158   5.378   2.950   0.868  0.2245 -3.0016  1.1650
  631MOL0     H85159   5.221   2.792   1.062  1.1891 -4.1151  0.6239
  631MOL0     H85160   5.397   2.811   1.051 -0.0340  2.8711  0.8065
  631MOL0     H85161   5.205   2.694   0.833  0.8683 -1.0510 -1.0354
  631MOL0     H85162   5.374   2.727   0.800 -0.9750  0.8638 -1.1757
  631MOL0     H85163   5.444   2.594   0.980  0.0028  2.3783  0.2819
  631MOL0     H85164   5.360   2.516   0.855  0.1429 -1.3888  0.9001
  631MOL0     H85165   5.215   2.564   1.125 -1.2422 -0.6185 -0.6063
  631MOL0     H85166   5.314   2.433   1.072  4.0883  2.0296 -0.8890
  631MOL0     H85167   5.321   3.371   1.401  1.6946  1.1606 -0.2546
  631MOL0     H85168   5.253   3.496   1.569 -1.7331 -1.8828  0.9179
  631MOL0     H85169   5.249   3.827   1.766 -1.0257 -0.9820 -0.3275
  631MOL0     H85170   5.253   3.884   1.980  1.0308  1.1055 -0.9775
  631MOL0     H85171   3.471   3.532   2.081  0.8796 -1.0803  1.2076
  631MOL0     H85172   3.345   3.710   1.942  0.9909 -0.5907 -1.2360
  631MOL0     H85173   3.136   4.061   1.993 -1.9682  1.9002  2.5211
  631MOL0     H85174   2.989   4.267   2.012 -0.2967 -0.4159 -0.1421
  631MOL0     H85175   3.077   4.619   1.777 -1.8505  0.0901 -0.9695
  631MOL0     H85176   2.923   4.654   1.844  0.4762  0.3477 -1.1194
  631MOL0     H85177   3.182   4.673   1.997  0.8789  2.3437 -0.9212
  631MOL0     H85178   3.026   4.705   2.073 -1.4700  3.5931 -0.2331
  631MOL0     H85179   2.975   4.884   1.935 -0.7259 -0.5515 -2.1571
  631MOL0     H85180   3.129   4.870   1.847 -0.9474 -2.0389 -0.0635
  631MOL0     H85181   3.082   4.918   2.151  3.8897 -0.4295  2.8495
  631MOL0     H85182   3.131   5.047   2.042 -0.8808 -1.4819 -1.2105
  631MOL0     H85183   3.494   4.867   2.112 -0.8564 -1.1417  0.1056
  631MOL0     H85184   3.269   4.518   1.831  1.0641 -0.6568 -0.9287
  631MOL0     H85185   3.440   4.333   1.827 -0.4531  0.0815  1.0499
  632MOL0     O85186   1.288   1.957   4.400 -0.0994 -0.0203  0.0152
  632MOL0     C85187   1.396   1.930   4.461  0.1993 -0.0408  1.0020
  632MOL0     O85188   1.485   2.011   4.522  0.4831  0.1846 -0.3570
  632MOL0     C85189   1.468   2.151   4.509 -0.3446  0.5617  0.5954
  632MOL0     C85190   1.510   2.230   4.609 -0.3931  0.7802 -1.3741
  632MOL0     C85191   1.496   2.371   4.586  0.7004  0.3575 -0.3519
  632MOL0     C85192   1.436   2.433   4.479  0.8521 -0.3835  0.0730
  632MOL0     O85193   1.431   2.571   4.479 -0.1739 -0.2482  0.1608
  632MOL0     C85194   1.315   2.634   4.410  1.1534  0.0054 -0.1668
  632MOL0     C85195   1.187   2.619   4.495 -0.2583  0.2122  0.0398
  632MOL0     C85196   1.063   2.709   4.442 -0.1295 -0.2410  0.4730
  632MOL0     C85197   0.932   2.683   4.517  0.3419  0.0297  0.1741
  632MOL0     C85198   0.830   2.801   4.489 -0.4376 -0.5606 -1.2319
  632MOL0     C85199   0.814   2.813   4.328  0.0362  0.1945  0.4030
  632MOL0     C85200   0.707   2.912   4.285 -0.5013 -0.2372 -0.0781
  632MOL0     C85201   0.765   3.048   4.243 -0.3899 -0.2226 -0.2791
  632MOL0     N85202   0.658   3.144   4.198 -1.0785  0.1085  0.6455
  632MOL0     C85203   0.604   3.131   4.075 -0.8855 -0.1104 -0.1772
  632MOL0     C85204   0.519   3.233   4.060 -0.1596  0.3774  0.3173
  632MOL0     C85205   0.431   3.263   3.947 -0.3600  0.2630  0.5823
  632MOL0     C85206   0.315   3.165   3.920  0.4669 -0.1704 -0.5819
  632MOL0     C85207   0.357   3.021   3.887 -0.3203  0.0451 -0.9095
  632MOL0     C85208   0.249   2.940   3.831 -0.2668  0.4914  0.2183
  632MOL0     O85209   0.233   2.967   3.690 -0.2432  0.4356 -0.8598
  632MOL0     C85210   0.145   2.890   3.622  0.2927 -0.8212  0.7022
  632MOL0     C85211   0.090   2.920   3.490 -0.0199 -0.1322 -0.3975
  632MOL0     C85212   0.003   2.836   3.408  0.5189  0.2862 -0.3351
  632MOL0     C85213  -0.040   2.894   3.285 -0.0692 -0.4896 -0.3486
  632MOL0     C85214  -0.036   2.710   3.461  0.5989 -0.3054  0.1405
  632MOL0     C85215  -0.124   2.612   3.384 -0.7468  0.2517  0.5376
  632MOL0     O85216  -0.176   2.502   3.465  0.4983 -0.0631 -0.2942
  632MOL0     C85217  -0.246   2.405   3.397  0.9668  0.4426  0.6117
  632MOL0     C85218  -0.389   2.425   3.376 -0.4618  0.4423 -0.3093
  632MOL0     C85219  -0.466   2.320   3.327  1.1238  0.3214 -0.3133
  632MOL0     C85220  -0.406   2.196   3.310 -0.5941  0.0141 -0.6503
  632MOL0     O85221  -0.500   2.098   3.297 -0.1412  0.2313  0.0610
  632MOL0     C85222  -0.449   1.964   3.259  0.4434 -0.6356 -0.5767
  632MOL0     C85223  -0.556   1.860   3.219 -0.3100 -0.6379 -0.5095
  632MOL0     C85224  -0.672   1.895   3.126  0.1253 -0.0682 -0.1828
  632MOL0     C85225  -0.766   1.779   3.107 -0.3273 -0.5583 -0.2423
  632MOL0     C85226  -0.884   1.825   3.027 -0.2685  0.0190 -0.4313
  632MOL0     C85227  -0.844   1.851   2.878 -0.3183 -0.6748 -0.0513
  632MOL0     C85228  -0.945   1.780   2.795  0.6733 -0.3453  1.1432
  632MOL0     C85229  -0.889   1.749   2.645  0.1124  0.4027  0.5348
  632MOL0    Cl85230  -1.012   1.655   2.558 -0.0949  0.3200  0.0260
  632MOL0     C85231  -0.267   2.177   3.318  0.1429  0.3845 -0.0027
  632MOL0     C85232  -0.185   2.288   3.368 -0.1105  1.2224  0.5004
  632MOL0     O85233  -0.115   2.608   3.264  0.7303  0.7301  0.0934
  632MOL0     C85234   0.009   2.679   3.590 -1.5298  0.2230 -0.3038
  632MOL0     C85235   0.102   2.766   3.658  0.1826  0.7655 -0.7827
  632MOL0     N85236   0.528   3.312   4.164 -0.4357 -0.1122 -0.3185
  632MOL0     N85237   0.614   3.262   4.247  0.9844 -0.0121 -0.4864
  632MOL0     C85238   1.386   2.346   4.381  0.3853  0.6076  0.5538
  632MOL0     C85239   1.418   2.205   4.396  0.0252  0.9547  0.4480
  632MOL0     C85240   1.432   1.786   4.481  0.0156  0.7389  0.0022
  632MOL0     C85241   1.543   1.752   4.557  0.2132  0.1008 -1.0506
  632MOL0     C85242   1.590   1.627   4.580 -0.4243  0.3996 -0.2151
  632MOL0     C85243   1.513   1.518   4.526  0.4661 -0.2330 -0.2545
  632MOL0     O85244   1.540   1.393   4.558  0.4856  0.2603 -0.4559
  632MOL0     C85245   1.677   1.342   4.561  0.5655 -0.4303  0.3531
  632MOL0     C85246   1.679   1.184   4.571  0.3654 -0.0121 -0.1252
  632MOL0     C85247   1.610   1.145   4.708  0.0116 -0.3076  0.1236
  632MOL0     C85248   1.554   1.001   4.702  1.4145  0.7324 -0.7597
  632MOL0     C85249   1.642   0.891   4.676 -0.5793  0.6906  0.9029
  632MOL0     C85250   1.713   0.799   4.655  0.7931 -0.9350  0.8522
  632MOL0     C85251   1.408   1.549   4.437  0.5109 -0.0213 -0.7609
  632MOL0     C85252   1.358   1.683   4.416 -0.5586  0.2162  1.0666
  632MOL0     H85253   1.559   2.204   4.702 -2.6045  0.3637 -0.2578
  632MOL0     H85254   1.547   2.440   4.653 -1.3646  3.7354 -1.9452
  632MOL0     H85255   1.333   2.742   4.414 -1.6261  0.5192  1.8056
  632MOL0     H85256   1.306   2.596   4.308 -0.2382  3.0028 -1.2812
  632MOL0     H85257   1.158   2.514   4.487 -0.2695  0.3652 -3.2920
  632MOL0     H85258   1.215   2.647   4.597  0.0263  1.6472 -0.3954
  632MOL0     H85259   1.085   2.816   4.445  0.9580 -0.2746 -2.6342
  632MOL0     H85260   1.063   2.690   4.334  1.1189 -1.9370  0.7226
  632MOL0     H85261   0.891   2.583   4.504  0.3465 -0.3050  2.4402
  632MOL0     H85262   0.960   2.677   4.622  4.5721 -1.7883 -0.8422
  632MOL0     H85263   0.737   2.759   4.528  0.2394 -1.3420 -0.4214
  632MOL0     H85264   0.857   2.902   4.521 -1.3680  0.3993 -3.2869
  632MOL0     H85265   0.906   2.851   4.284  0.7143  1.0512  2.4280
  632MOL0     H85266   0.785   2.712   4.297 -0.3093  1.0122 -2.1357
  632MOL0     H85267   0.669   2.857   4.199  3.1300  1.4740 -3.0200
  632MOL0     H85268   0.639   2.923   4.371  2.3563 -1.1021  2.4719
  632MOL0     H85269   0.839   3.038   4.163  2.0910  1.6905  1.6191
  632MOL0     H85270   0.811   3.095   4.331  2.3351  1.1872 -2.3147
  632MOL0     H85271   0.613   3.050   4.003 -2.8838 -1.6314  1.1548
  632MOL0     H85272   0.399   3.364   3.974  0.7409  1.5003 -2.3771
  632MOL0     H85273   0.484   3.266   3.851  1.1138 -1.8090  1.2577
  632MOL0     H85274   0.258   3.216   3.843 -0.3922  1.2144  0.9062
  632MOL0     H85275   0.252   3.170   4.010  2.1255 -0.6510  0.6625
  632MOL0     H85276   0.408   2.976   3.972 -4.1091 -0.7681  1.1459
  632MOL0     H85277   0.423   3.043   3.803 -2.8574  1.5361 -2.6834
  632MOL0     H85278   0.155   2.961   3.884 -1.2492 -3.1211  0.1884
  632MOL0     H85279   0.295   2.843   3.853  3.1850  0.8874 -4.0173
  632MOL0     H85280   0.115   3.015   3.444 -0.8427  0.1775 -0.2411
  632MOL0     H85281   0.053   2.875   3.231  1.3709  2.7687  0.7082
  632MOL0     H85282  -0.120   2.847   3.228  1.2804  0.5758 -3.3439
  632MOL0     H85283  -0.068   3.000   3.289  1.6863 -0.0256  1.2425
  632MOL0     H85284  -0.428   2.524   3.395 -2.0590 -0.4862  1.6244
  632MOL0     H85285  -0.573   2.334   3.316  1.2067 -0.1636 -1.8861
  632MOL0     H85286  -0.388   1.970   3.168 -1.5949 -2.3304 -2.1587
  632MOL0     H85287  -0.393   1.921   3.343  0.9021 -0.6004 -0.8625
  632MOL0     H85288  -0.507   1.768   3.183 -0.0062 -1.1390  1.0935
  632MOL0     H85289  -0.604   1.826   3.312 -1.0820 -3.8234 -1.9182
  632MOL0     H85290  -0.629   1.922   3.029  0.0957 -0.4038 -0.2892
  632MOL0     H85291  -0.717   1.987   3.166 -0.2835  0.1902 -1.2180
  632MOL0     H85292  -0.714   1.694   3.064  0.9505 -0.4279  0.9740
  632MOL0     H85293  -0.798   1.755   3.209  1.5091 -0.7509  0.3201
  632MOL0     H85294  -0.930   1.914   3.070 -4.5858 -2.0376 -0.2552
  632MOL0     H85295  -0.937   1.729   3.031  2.6194 -1.9631 -3.7456
  632MOL0     H85296  -0.849   1.959   2.857  0.4216 -0.4546  0.8436
  632MOL0     H85297  -0.737   1.834   2.863 -0.1593  0.2695 -0.0687
  632MOL0     H85298  -1.039   1.836   2.794  0.6224 -0.4246 -0.4155
  632MOL0     H85299  -0.956   1.680   2.837  1.6272 -0.8839  0.1698
  632MOL0     H85300  -0.790   1.704   2.648  0.4172  1.1117  2.2814
  632MOL0     H85301  -0.877   1.840   2.586  0.4498 -1.2910 -2.1429
  632MOL0     H85302  -0.220   2.087   3.281 -1.1784  0.0349 -0.8865
  632MOL0     H85303  -0.081   2.269   3.391 -0.9943 -0.4106  3.7947
  632MOL0     H85304  -0.000   2.583   3.639 -0.7609  0.0524 -0.4826
  632MOL0     H85305   0.141   2.722   3.749 -1.1613 -1.1258 -1.0475
  632MOL0     H85306   1.345   2.394   4.292 -0.4054  2.1629  1.7253
  632MOL0     H85307   1.387   2.141   4.314 -1.0654 -0.0330  1.5912
  632MOL0     H85308   1.586   1.834   4.614  2.1588 -1.4182 -0.2239
  632MOL0     H85309   1.658   1.603   4.661 -2.7974 -2.4494  1.1104
  632MOL0     H85310   1.732   1.360   4.468  1.5880 -1.3967  0.7528
  632MOL0     H85311   1.735   1.389   4.640  2.4678  0.5456 -1.5244
  632MOL0     H85312   1.776   1.133   4.571 -0.7214 -2.2225  0.7246
  632MOL0     H85313   1.626   1.146   4.483  0.4330  1.1965 -0.7016
  632MOL0     H85314   1.534   1.219   4.734  0.6810  0.0614  1.0839
  632MOL0     H85315   1.684   1.152   4.788 -0.1755  0.0620  0.2683
  632MOL0     H85316   1.479   1.006   4.623  0.3266  1.9212  0.2925
  632MOL0     H85317   1.505   0.974   4.796 -1.0972  2.1009 -1.5881
  632MOL0     H85318   1.781   0.717   4.639  2.4004  0.0315  2.4218
  632MOL0     H85319   1.346   1.471   4.393 -1.7927  0.6432  1.1194
  632MOL0     H85320   1.261   1.705   4.373 -1.3663 -0.7897  2.2959
  633MOL0     O85321   6.411   6.601   3.512  1.1148  0.1159 -0.0959
  633MOL0     C85322   6.402   6.502   3.583 -0.0884  0.1122 -0.0517
  633MOL0     O85323   6.511   6.472   3.678  0.3272 -0.5708  0.1325
  633MOL0     C85324   6.641   6.530   3.657  0.0843  0.6178  0.3828
  633MOL0     C85325   6.718   6.569   3.766  0.2461  0.7551  0.7438
  633MOL0     C85326   6.852   6.608   3.755 -0.6841 -0.0249 -0.2810
  633MOL0     C85327   6.917   6.621   3.630  0.5462  0.2123  0.5714
  633MOL0     O85328   7.033   6.684   3.602 -0.2016  0.7603 -0.6431
  633MOL0     C85329   7.114   6.733   3.707  0.0542 -0.1414  0.2129
  633MOL0     C85330   7.260   6.762   3.660  0.6490 -0.1352  0.9800
  633MOL0     C85331   7.345   6.808   3.776  0.7930  0.6791  0.0858
  633MOL0     C85332   7.493   6.834   3.733  0.1687 -0.0439  0.0342
  633MOL0     C85333   7.574   6.878   3.856  0.1925  0.4597  0.7229
  633MOL0     C85334   7.548   7.028   3.879 -0.5190  0.5022 -0.5019
  633MOL0     C85335   7.644   7.080   3.986  0.3704 -0.1245 -1.0450
  633MOL0     C85336   7.603   7.026   4.125  0.7628  0.7157 -1.3462
  633MOL0     N85337   7.686   7.095   4.228  0.4960 -0.3880  0.5320
  633MOL0     C85338   7.786   7.044   4.300 -0.3527 -0.0055 -0.7236
  633MOL0     C85339   7.843   7.143   4.363 -0.0878 -1.0266 -0.2417
  633MOL0     C85340   7.959   7.145   4.459 -0.4240 -0.2233  0.8222
  633MOL0     C85341   8.099   7.151   4.387  0.5533 -0.7089  0.0178
  633MOL0     C85342   8.217   7.108   4.476  1.0855 -0.2126  0.3093
  633MOL0     C85343   8.357   7.144   4.421  0.9023  0.2994  0.3127
  633MOL0     O85344   8.456   7.091   4.501 -0.4997 -0.5532 -1.3769
  633MOL0     C85345   8.584   7.093   4.453  0.6492 -0.3096  1.0565
  633MOL0     C85346   8.678   7.035   4.535  0.1765  0.5445 -0.4348
  633MOL0     C85347   8.818   7.043   4.514  0.6681  0.9192 -0.2374
  633MOL0     C85348   8.900   6.993   4.621  0.2443  0.2234  0.4397
  633MOL0     C85349   8.867   7.116   4.399 -0.9035  0.3785 -0.4600
  633MOL0     C85350   9.013   7.134   4.360 -0.0093  0.4347  0.6563
  633MOL0     O85351   9.096   7.034   4.418  0.4989 -0.1013  0.6076
  633MOL0     C85352   9.227   7.051   4.398  0.1442 -1.0790 -0.1408
  633MOL0     C85353   9.298   7.154   4.463  0.1072  0.4541  1.0900
  633MOL0     C85354   9.439   7.158   4.455 -1.1083 -0.5742  0.0064
  633MOL0     C85355   9.516   7.070   4.381 -0.7217  0.1301 -0.3629
  633MOL0     O85356   9.657   7.085   4.368  0.4195 -0.4631 -0.1617
  633MOL0     C85357   9.701   7.218   4.359  0.4356  0.4605  0.3387
  633MOL0     C85358   9.837   7.221   4.283  0.0249  0.2138 -0.2546
  633MOL0     C85359   9.798   7.206   4.141 -0.3378  0.4557  0.2932
  633MOL0     C85360   9.927   7.170   4.063  0.3374  1.2360  0.8592
  633MOL0     C85361   9.905   7.109   3.930  0.0893  0.3332  0.5855
  633MOL0     C85362  10.027   7.038   3.874  0.0085  0.0391 -0.1675
  633MOL0     C85363  10.023   6.990   3.730  0.4547 -0.7223  0.2702
  633MOL0     C85364  10.154   6.995   3.646  0.2343 -0.4054  0.9981
  633MOL0    Cl85365  10.232   7.157   3.667  0.3076 -0.2419  0.1594
  633MOL0     C85366   9.447   6.965   4.320  0.3708 -0.1222  0.0060
  633MOL0     C85367   9.308   6.954   4.331  0.5430 -0.4971  0.1778
  633MOL0     O85368   9.037   7.208   4.266  0.2604  0.0715  0.1799
  633MOL0     C85369   8.768   7.165   4.307 -0.2125 -0.6306 -0.2307
  633MOL0     C85370   8.635   7.144   4.327  0.4095 -0.5281 -0.6536
  633MOL0     N85371   7.772   7.261   4.333  0.1294 -0.1758  0.0442
  633MOL0     N85372   7.675   7.226   4.259 -0.2836  0.0854  0.1280
  633MOL0     C85373   6.839   6.583   3.521  0.2315 -0.0900 -1.0075
  633MOL0     C85374   6.707   6.536   3.531 -0.1390 -0.2690 -0.3122
  633MOL0     C85375   6.269   6.442   3.609 -1.3114  0.0332  0.4352
  633MOL0     C85376   6.251   6.366   3.726  0.4326 -0.6205 -1.1969
  633MOL0     C85377   6.132   6.308   3.761  0.2152 -0.5265 -0.3127
  633MOL0     C85378   6.024   6.314   3.668 -0.4240  0.0192 -0.5293
  633MOL0     O85379   5.899   6.249   3.694  0.0903  0.3072  0.8669
  633MOL0     C85380   5.863   6.217   3.827 -0.5808 -0.5671 -0.2240
  633MOL0     C85381   5.716   6.177   3.832  0.1463  0.4280  0.0468
  633MOL0     C85382   5.684   6.146   3.979 -0.1735 -0.4332  0.2511
  633MOL0     C85383   5.531   6.152   3.993  0.2333  0.4917 -0.5293
  633MOL0     C85384   5.480   6.148   4.134  0.5684 -0.6127  0.1674
  633MOL0     C85385   5.428   6.146   4.240 -0.5916 -0.8056 -0.3113
  633MOL0     C85386   6.045   6.378   3.547 -0.2781 -0.0904  0.1767
  633MOL0     C85387   6.169   6.440   3.521 -0.5686  0.1784 -0.3461
  633MOL0     H85388   6.669   6.581   3.862  1.5267  1.9389  1.2834
  633MOL0     H85389   6.895   6.648   3.846 -0.5335 -2.0029  0.5857
  633MOL0     H85390   7.075   6.828   3.747 -1.4376  1.0147 -3.6102
  633MOL0     H85391   7.112   6.661   3.790 -0.4278  1.1311  1.3486
  633MOL0     H85392   7.305   6.671   3.617  1.8812  0.1753  1.5661
  633MOL0     H85393   7.246   6.840   3.585 -1.4920 -0.7634  0.6504
  633MOL0     H85394   7.290   6.895   3.810  0.9034  0.6968  0.2161
  633MOL0     H85395   7.347   6.723   3.845  1.1768 -1.3582 -2.2754
  633MOL0     H85396   7.534   6.743   3.688  1.1158  1.0215 -1.3605
  633MOL0     H85397   7.505   6.915   3.661 -1.2027  0.5334  0.4347
  633MOL0     H85398   7.545   6.825   3.947 -1.3759  0.0534  0.0303
  633MOL0     H85399   7.677   6.849   3.834  0.6308  1.6280  1.1562
  633MOL0     H85400   7.572   7.095   3.796  0.2878  1.0522  0.1686
  633MOL0     H85401   7.445   7.028   3.915 -0.1746 -0.9702  0.5442
  633MOL0     H85402   7.746   7.044   3.972  0.7392  0.5912 -0.3368
  633MOL0     H85403   7.636   7.189   4.000 -4.9185 -0.4146  0.2052
  633MOL0     H85404   7.613   6.918   4.140  1.4170  1.0012  0.5940
  633MOL0     H85405   7.497   7.041   4.147 -0.2878 -4.3638 -1.6967
  633MOL0     H85406   7.823   6.942   4.310 -3.5966 -1.1058  2.0551
  633MOL0     H85407   7.961   7.231   4.528 -2.4866  0.7669 -0.2694
  633MOL0     H85408   7.952   7.058   4.524 -0.7668 -1.2135 -0.5100
  633MOL0     H85409   8.108   7.256   4.358  0.0738 -0.4893  0.6450
  633MOL0     H85410   8.094   7.083   4.301 -0.0898  1.0773 -1.4246
  633MOL0     H85411   8.202   7.000   4.492 -2.7374 -0.2204 -2.0229
  633MOL0     H85412   8.196   7.156   4.572 -5.7936  1.7686 -1.6298
  633MOL0     H85413   8.360   7.253   4.414 -1.9809  0.4744  0.4196
  633MOL0     H85414   8.351   7.104   4.319 -0.1375  0.1111  0.4363
  633MOL0     H85415   8.636   6.980   4.619  1.6773  0.6067  0.3949
  633MOL0     H85416   8.976   7.061   4.659  0.8466 -1.0310  1.5802
  633MOL0     H85417   8.844   6.936   4.695  0.0740 -0.3792 -0.1371
  633MOL0     H85418   8.961   6.909   4.585  1.6504  0.4296  2.2253
  633MOL0     H85419   9.247   7.224   4.528  0.2270 -0.2710  1.9811
  633MOL0     H85420   9.489   7.225   4.525  4.0425 -2.9407 -0.9536
  633MOL0     H85421   9.632   7.284   4.305 -2.1301 -0.8909  1.7801
  633MOL0     H85422   9.709   7.256   4.461 -2.0655  0.1882  0.6870
  633MOL0     H85423   9.889   7.312   4.314  0.9140 -0.3256 -0.0978
  633MOL0     H85424   9.905   7.139   4.309 -0.4132  1.3220  5.6955
  633MOL0     H85425   9.766   7.300   4.094  3.3897  2.3448  1.0945
  633MOL0     H85426   9.717   7.135   4.125  0.9654 -0.9701 -0.2276
  633MOL0     H85427   9.982   7.261   4.035  0.5135  0.9704  0.3405
  633MOL0     H85428   9.985   7.093   4.115 -0.1403 -1.2190 -1.9394
  633MOL0     H85429   9.872   7.184   3.857 -3.4533 -0.3289  1.3366
  633MOL0     H85430   9.832   7.029   3.941 -0.4197  0.8734  1.2089
  633MOL0     H85431  10.103   7.116   3.883  1.0878 -0.4609 -3.5284
  633MOL0     H85432  10.068   6.960   3.939  1.2866 -0.1382 -1.1525
  633MOL0     H85433   9.947   7.052   3.682  0.0710 -0.5498  1.0926
  633MOL0     H85434   9.986   6.887   3.732 -0.0998 -0.5349 -0.0982
  633MOL0     H85435  10.141   6.958   3.544  4.0204 -3.4676  1.4239
  633MOL0     H85436  10.220   6.918   3.687  0.2453 -1.5809 -1.1115
  633MOL0     H85437   9.511   6.898   4.263  2.9219  1.9184  0.2842
  633MOL0     H85438   9.248   6.877   4.283  0.3244  0.1957 -0.6826
  633MOL0     H85439   8.788   7.216   4.213 -2.0845 -1.0765 -0.9015
  633MOL0     H85440   8.570   7.187   4.252  0.0544 -0.8874 -0.5554
  633MOL0     H85441   6.873   6.594   3.419  1.3322 -1.6090 -0.8500
  633MOL0     H85442   6.658   6.511   3.438 -2.1190  4.2243 -0.7246
  633MOL0     H85443   6.333   6.370   3.796 -0.1307 -2.7493 -0.3314
  633MOL0     H85444   6.129   6.259   3.857  1.7206  2.3574  1.3215
  633MOL0     H85445   5.930   6.140   3.867  2.2886  3.6021  4.1255
  633MOL0     H85446   5.878   6.301   3.895 -1.7159 -0.1214 -0.4951
  633MOL0     H85447   5.708   6.083   3.777 -0.2214 -0.3174  1.3507
  633MOL0     H85448   5.657   6.253   3.779 -0.6351 -0.7105 -0.7672
  633MOL0     H85449   5.715   6.216   4.057 -3.8621  0.0520  1.4762
  633MOL0     H85450   5.723   6.046   4.000 -0.5046 -0.5274  0.4255
  633MOL0     H85451   5.489   6.063   3.946  0.5940  1.3300 -2.5348
  633MOL0     H85452   5.494   6.239   3.939  0.6888  0.5782 -0.6999
  633MOL0     H85453   5.382   6.144   4.336  0.7756  1.9357  0.5056
  633MOL0     H85454   5.959   6.383   3.481  0.3970 -3.0418 -1.0698
  633MOL0     H85455   6.175   6.491   3.425 -1.9209 -1.7827 -1.5468
  634MOL0     O85456  10.201   3.261   3.937 -0.0698  0.4357  0.8755
  634MOL0     C85457  10.194   3.276   3.817 -0.3111  0.3173 -1.0999
  634MOL0     O85458  10.153   3.394   3.753  0.3511 -0.0260 -0.1781
  634MOL0     C85459  10.135   3.514   3.817 -0.9431  0.3822 -0.5875
  634MOL0     C85460  10.014   3.571   3.769  0.8850  0.1097  0.8136
  634MOL0     C85461   9.973   3.697   3.821 -0.1961  0.2131  0.6714
  634MOL0     C85462  10.048   3.753   3.927  0.0602  0.3736 -1.0133
  634MOL0     O85463  10.008   3.871   3.990  0.4476 -0.1859  0.2235
  634MOL0     C85464   9.869   3.897   4.029  0.2696  0.2328 -1.1628
  634MOL0     C85465   9.853   3.886   4.181 -0.1367  1.1363 -0.2957
  634MOL0     C85466   9.892   4.019   4.247  0.6009  0.5643 -0.0191
  634MOL0     C85467  10.027   4.022   4.325 -0.7541  0.0747 -0.5245
  634MOL0     C85468  10.022   3.945   4.458  0.0539 -0.0446  0.3758
  634MOL0     C85469  10.161   3.935   4.530 -0.8337 -0.4833  0.6876
  634MOL0     C85470  10.146   3.834   4.645  0.4309  0.4962  0.6219
  634MOL0     C85471  10.038   3.861   4.739 -0.2525  0.2806  0.2923
  634MOL0     N85472  10.057   3.979   4.825  0.2401  0.2411  0.3487
  634MOL0     C85473  10.031   4.103   4.778  0.2746 -0.4300 -0.3464
  634MOL0     C85474  10.049   4.185   4.884 -0.5823 -0.5861  0.0631
  634MOL0     C85475  10.052   4.339   4.885  0.8221 -0.6027 -0.2388
  634MOL0     C85476  10.147   4.379   4.770  0.4518  0.3720 -1.0166
  634MOL0     C85477  10.191   4.518   4.773 -0.0710  0.4527 -0.6231
  634MOL0     C85478  10.300   4.533   4.887 -0.1943  0.8115  0.0070
  634MOL0     O85479  10.355   4.657   4.892 -0.5393 -0.3449 -0.1852
  634MOL0     C85480  10.451   4.691   4.795  1.9055  1.4616  0.1610
  634MOL0     C85481  10.514   4.814   4.805 -0.1237 -0.1154 -0.0251
  634MOL0     C85482  10.624   4.856   4.732 -0.1492 -0.4703  0.9930
  634MOL0     C85483  10.677   4.992   4.785 -0.6562 -0.6134  0.1053
  634MOL0     C85484  10.690   4.766   4.640  0.2371  0.2794 -0.1769
  634MOL0     C85485  10.823   4.799   4.573  0.7455  0.8988  0.2542
  634MOL0     O85486  10.869   4.927   4.558  0.1494 -0.1133  1.1032
  634MOL0     C85487  10.954   4.948   4.456  0.5936  0.5681  0.9746
  634MOL0     C85488  11.086   4.977   4.482  1.1897 -0.0016  0.5834
  634MOL0     C85489  11.181   4.986   4.384  0.3680  0.0196  1.0233
  634MOL0     C85490  11.148   4.965   4.246 -0.2876 -1.8972 -0.3321
  634MOL0     O85491  11.235   4.987   4.146  0.6822 -0.2830 -0.3331
  634MOL0     C85492  11.303   4.864   4.116 -0.4510 -0.4689 -0.3278
  634MOL0     C85493  11.411   4.884   4.013  0.1828 -0.0612 -0.2982
  634MOL0     C85494  11.356   4.951   3.879 -0.0206 -0.7950 -0.0497
  634MOL0     C85495  11.467   4.979   3.788  0.1432 -0.6407  0.9758
  634MOL0     C85496  11.543   4.857   3.749  0.0313  0.0355  0.5503
  634MOL0     C85497  11.645   4.896   3.638 -0.0493 -0.1587  0.3131
  634MOL0     C85498  11.723   4.773   3.593  0.7876  0.0253 -0.3027
  634MOL0     C85499  11.845   4.724   3.683  0.1973 -0.1487 -0.3347
  634MOL0    Cl85500  11.964   4.859   3.677  0.0522 -0.2816  0.5849
  634MOL0     C85501  11.019   4.915   4.219  0.2649 -0.7567 -0.8671
  634MOL0     C85502  10.924   4.907   4.325 -0.7155 -0.3937 -0.0144
  634MOL0     O85503  10.883   4.693   4.538 -0.0986 -0.0893  0.2498
  634MOL0     C85504  10.623   4.643   4.620 -1.0205  0.6950 -0.6031
  634MOL0     C85505  10.507   4.608   4.694 -0.2006 -0.3721  0.3785
  634MOL0     N85506  10.087   4.108   4.992 -0.4055  0.9253  0.9799
  634MOL0     N85507  10.085   3.981   4.957 -1.1981 -0.2470  1.1879
  634MOL0     C85508  10.163   3.696   3.977 -0.1441 -0.2178  0.2035
  634MOL0     C85509  10.197   3.573   3.931  0.8525 -0.1707  0.0844
  634MOL0     C85510  10.219   3.152   3.742 -0.2058 -0.4298  0.1069
  634MOL0     C85511  10.296   3.038   3.789  0.2528  0.4265 -0.1132
  634MOL0     C85512  10.330   2.941   3.696 -0.0751  0.2910 -0.0869
  634MOL0     C85513  10.278   2.954   3.566 -0.5427 -0.0609 -0.1863
  634MOL0     O85514  10.292   2.869   3.459  0.1741  0.2111 -0.8044
  634MOL0     C85515  10.356   2.750   3.479 -0.9466  1.5503  0.2870
  634MOL0     C85516  10.310   2.651   3.368 -0.0608  0.6920  1.0365
  634MOL0     C85517  10.357   2.686   3.221 -1.0627 -0.1150  0.4695
  634MOL0     C85518  10.312   2.592   3.102 -0.0263  0.1167 -0.0221
  634MOL0     C85519  10.344   2.659   2.971  0.0672 -1.2053  0.0927
  634MOL0     C85520  10.372   2.725   2.863  0.2543 -0.5541 -1.4498
  634MOL0     C85521  10.205   3.060   3.524  0.5708 -1.0578 -0.9145
  634MOL0     C85522  10.182   3.170   3.607  0.7353 -0.6108  0.0461
  634MOL0     H85523   9.956   3.518   3.695 -0.0112 -0.3215  1.8036
  634MOL0     H85524   9.886   3.754   3.790  0.7493  0.7761 -1.0469
  634MOL0     H85525   9.827   3.995   4.005 -2.1230  0.0735  1.7286
  634MOL0     H85526   9.791   3.834   3.986 -1.0410  1.6130 -0.8852
  634MOL0     H85527   9.749   3.868   4.210  0.2715 -0.6011  0.2102
  634MOL0     H85528   9.908   3.800   4.218 -2.0681  0.3075  0.8174
  634MOL0     H85529   9.895   4.100   4.173 -1.2643 -0.4694 -1.3182
  634MOL0     H85530   9.809   4.055   4.308  0.1740  0.7941 -0.7226
  634MOL0     H85531  10.103   3.982   4.257 -1.7196  0.5794 -1.9581
  634MOL0     H85532  10.049   4.127   4.345 -1.0333 -0.1631  1.1892
  634MOL0     H85533   9.955   4.009   4.517 -0.8574  0.8519 -1.5322
  634MOL0     H85534   9.980   3.845   4.444  4.2767 -1.8838 -0.5458
  634MOL0     H85535  10.244   3.918   4.460 -1.0741 -2.0088  0.7346
  634MOL0     H85536  10.172   4.036   4.571 -2.4193 -0.7212  1.8031
  634MOL0     H85537  10.129   3.742   4.589  2.9897  1.3535 -1.8480
  634MOL0     H85538  10.244   3.829   4.693  0.1787  0.9754  1.1946
  634MOL0     H85539  10.041   3.772   4.803  0.6948 -0.3461 -0.5998
  634MOL0     H85540   9.936   3.865   4.699 -0.3562 -2.2781  0.1412
  634MOL0     H85541  10.001   4.132   4.678 -1.2326 -0.7093  0.0122
  634MOL0     H85542   9.955   4.383   4.858  1.2611  0.2728 -0.4364
  634MOL0     H85543  10.081   4.379   4.983 -1.2849 -0.7204  0.4867
  634MOL0     H85544  10.090   4.361   4.678  1.5926 -1.0991 -1.4820
  634MOL0     H85545  10.232   4.310   4.778  1.0459  1.2843  1.1917
  634MOL0     H85546  10.100   4.578   4.784  0.1675  0.9446 -1.2526
  634MOL0     H85547  10.223   4.539   4.670 -0.3395 -2.2519 -1.3435
  634MOL0     H85548  10.379   4.460   4.868  0.0922  0.7131  1.4166
  634MOL0     H85549  10.264   4.494   4.983 -1.4238 -0.4540 -0.9410
  634MOL0     H85550  10.482   4.870   4.891 -1.7378  1.0148 -1.3090
  634MOL0     H85551  10.648   5.017   4.888  0.7051  2.4993 -0.1289
  634MOL0     H85552  10.786   4.988   4.785 -0.5460  0.6818 -2.0005
  634MOL0     H85553  10.636   5.069   4.718 -0.3964 -0.3864  0.2060
  634MOL0     H85554  11.126   4.996   4.581  0.8308  0.0629  0.7178
  634MOL0     H85555  11.287   5.009   4.387 -0.0920  2.6255  0.0138
  634MOL0     H85556  11.343   4.820   4.208 -3.2050 -5.4027 -1.1445
  634MOL0     H85557  11.227   4.799   4.071  0.0071  1.1045 -3.6836
  634MOL0     H85558  11.478   4.952   4.066  0.2858  2.6591 -3.5787
  634MOL0     H85559  11.453   4.783   4.005 -0.6007 -0.3367 -1.1149
  634MOL0     H85560  11.304   5.045   3.900 -1.4411 -1.2621 -1.3167
  634MOL0     H85561  11.286   4.882   3.831 -2.2861  2.2039 -1.3354
  634MOL0     H85562  11.432   5.035   3.701  1.7259  0.8531  1.2540
  634MOL0     H85563  11.535   5.053   3.830  0.4887 -0.0557 -0.5502
  634MOL0     H85564  11.471   4.782   3.716  0.3309 -0.2895  0.6225
  634MOL0     H85565  11.607   4.816   3.827 -0.0907 -3.8354 -1.1875
  634MOL0     H85566  11.594   4.952   3.558  0.7155  0.0677 -0.0280
  634MOL0     H85567  11.723   4.960   3.680  0.2906 -1.4686  1.7559
  634MOL0     H85568  11.768   4.799   3.497  1.7259 -0.5711 -0.0412
  634MOL0     H85569  11.670   4.678   3.578  1.4579 -0.2063 -1.3222
  634MOL0     H85570  11.898   4.632   3.656  0.5100 -1.1540  3.2387
  634MOL0     H85571  11.816   4.707   3.787 -0.7718 -2.4818 -0.9217
  634MOL0     H85572  10.989   4.908   4.115  0.2542 -1.2179 -0.8373
  634MOL0     H85573  10.823   4.881   4.294 -1.0767  0.1846  0.6630
  634MOL0     H85574  10.655   4.576   4.541 -0.3167 -1.7338  1.6001
  634MOL0     H85575  10.486   4.502   4.677  3.1558 -0.8559 -2.0581
  634MOL0     H85576  10.219   3.742   4.058 -2.5493  1.5391  0.9716
  634MOL0     H85577  10.280   3.519   3.976 -0.5271  0.5728  3.8990
  634MOL0     H85578  10.342   3.051   3.887 -0.1071  2.3089 -0.1486
  634MOL0     H85579  10.383   2.856   3.739  1.8872  2.2229  1.5789
  634MOL0     H85580  10.460   2.782   3.481 -0.5684  0.4189  2.3780
  634MOL0     H85581  10.339   2.706   3.578  0.2235  0.5807  0.0814
  634MOL0     H85582  10.200   2.651   3.374 -0.2265 -0.4868 -1.1594
  634MOL0     H85583  10.349   2.549   3.373  2.7021  1.7286  2.1570
  634MOL0     H85584  10.465   2.672   3.234 -1.1314 -3.4920 -1.4690
  634MOL0     H85585  10.337   2.786   3.181 -0.7861 -1.5837 -3.8523
  634MOL0     H85586  10.204   2.573   3.103  0.3666 -2.5141 -0.6843
  634MOL0     H85587  10.358   2.494   3.110  2.4505  1.3034  1.6325
  634MOL0     H85588  10.403   2.787   2.781  1.0162  3.6585  1.6458
  634MOL0     H85589  10.158   3.069   3.427 -0.2399  0.5060 -0.4214
  634MOL0     H85590  10.123   3.255   3.574  2.8239  0.5174 -0.9763
  635MOL0     O85591   9.497   4.384   7.280  0.4475  0.4322  0.2845
  635MOL0     C85592   9.548   4.484   7.243 -0.0299 -0.7481  0.3799
  635MOL0     O85593   9.666   4.529   7.293 -0.0759  0.8803 -0.0815
  635MOL0     C85594   9.764   4.434   7.335  0.2067  0.8384 -1.1091
  635MOL0     C85595   9.802   4.319   7.261 -0.0564 -0.5167 -0.8148
  635MOL0     C85596   9.910   4.235   7.284  0.4111  0.6309  0.1322
  635MOL0     C85597   9.987   4.269   7.398  0.7063 -0.2069 -0.1537
  635MOL0     O85598  10.089   4.180   7.425 -0.1040  0.3309 -0.0279
  635MOL0     C85599  10.173   4.198   7.540  0.2514 -0.3556  0.5520
  635MOL0     C85600  10.297   4.108   7.542 -0.1179 -0.0924  1.0728
  635MOL0     C85601  10.379   4.124   7.664 -0.2645  0.5901  1.1331
  635MOL0     C85602  10.501   4.031   7.648 -0.8755 -0.2669 -0.0225
  635MOL0     C85603  10.559   3.989   7.784 -0.8807 -0.3631  0.1517
  635MOL0     C85604  10.607   4.120   7.862 -1.0143 -0.1065  0.2009
  635MOL0     C85605  10.674   4.080   7.995  0.0372  0.3461 -1.6842
  635MOL0     C85606  10.751   4.184   8.075  0.0863 -0.5125  0.4596
  635MOL0     N85607  10.706   4.323   8.053 -0.6231 -0.1692  0.0759
  635MOL0     C85608  10.749   4.403   7.952 -0.6386  0.8457  0.8549
  635MOL0     C85609  10.690   4.524   7.988 -0.5797  0.6808  0.2010
  635MOL0     C85610  10.688   4.641   7.895 -0.0105 -0.1910  0.2251
  635MOL0     C85611  10.576   4.661   7.797 -0.0168 -0.3253  1.0087
  635MOL0     C85612  10.609   4.581   7.674 -0.2603 -0.0330 -0.4061
  635MOL0     C85613  10.490   4.603   7.584  0.6013  0.2568  0.1619
  635MOL0     O85614  10.509   4.520   7.469  0.2289  0.5706  0.7581
  635MOL0     C85615  10.404   4.513   7.377  0.3641  0.2794  1.2601
  635MOL0     C85616  10.295   4.593   7.378 -0.2267  0.1898 -0.3152
  635MOL0     C85617  10.199   4.593   7.276  0.3334 -0.6781 -0.0516
  635MOL0     C85618  10.065   4.666   7.299  1.4889 -0.6443  0.5252
  635MOL0     C85619  10.218   4.497   7.172 -0.3952  0.6650  1.0671
  635MOL0     C85620  10.128   4.480   7.053  0.1926 -0.5180  0.6684
  635MOL0     O85621  10.142   4.368   6.981 -1.1705 -0.2363 -0.5451
  635MOL0     C85622  10.052   4.314   6.895  0.3071  0.8798 -0.2521
  635MOL0     C85623   9.922   4.364   6.872 -0.5289 -0.4097 -0.5106
  635MOL0     C85624   9.852   4.308   6.769  0.3924  0.7738  0.3517
  635MOL0     C85625   9.891   4.185   6.709 -1.3796  0.0401 -0.4683
  635MOL0     O85626   9.822   4.115   6.612 -0.5343 -0.3824  0.0243
  635MOL0     C85627   9.724   4.197   6.554  1.2839  0.4557 -0.1743
  635MOL0     C85628   9.671   4.141   6.426 -0.1433  0.2822 -0.4319
  635MOL0     C85629   9.606   4.002   6.442  0.1658 -0.3085 -0.5279
  635MOL0     C85630   9.571   3.951   6.298  0.3824 -0.0041  0.2360
  635MOL0     C85631   9.544   3.805   6.288 -0.9925 -0.8843 -0.0889
  635MOL0     C85632   9.403   3.767   6.344 -0.0056  0.2202 -0.9671
  635MOL0     C85633   9.366   3.629   6.304  0.2955  0.9878 -0.5745
  635MOL0     C85634   9.431   3.516   6.390 -0.2926 -0.2808  0.0127
  635MOL0    Cl85635   9.336   3.365   6.362 -0.2476 -0.1279 -0.1713
  635MOL0     C85636  10.009   4.124   6.759 -0.8803 -0.4481  0.1683
  635MOL0     C85637  10.095   4.198   6.831 -1.2719  0.7529 -0.5677
  635MOL0     O85638  10.039   4.566   7.033  0.2729 -0.9529 -0.1602
  635MOL0     C85639  10.339   4.420   7.166 -0.7080  0.1603 -0.1693
  635MOL0     C85640  10.428   4.424   7.277  0.1674  0.2585  0.6350
  635MOL0     N85641  10.606   4.509   8.103  0.1755  0.4974 -0.4261
  635MOL0     N85642  10.616   4.382   8.130 -0.5866  0.5134  0.0740
  635MOL0     C85643   9.948   4.379   7.480  0.5988 -0.0915  0.3641
  635MOL0     C85644   9.829   4.455   7.453  0.0093  1.1730  0.0884
  635MOL0     C85645   9.480   4.586   7.146 -1.1908  0.8807 -0.3902
  635MOL0     C85646   9.386   4.547   7.052 -0.0877  0.1147  0.0510
  635MOL0     C85647   9.318   4.638   6.973  0.2466 -1.2773  0.0822
  635MOL0     C85648   9.362   4.772   6.969 -0.4901 -1.1750  0.5320
  635MOL0     O85649   9.312   4.859   6.878 -0.2333 -0.2329  0.1391
  635MOL0     C85650   9.174   4.876   6.877  0.2728  0.1983 -0.0968
  635MOL0     C85651   9.154   5.029   6.904  0.4726 -0.2389  0.6504
  635MOL0     C85652   9.167   5.119   6.783 -0.6252 -1.1098 -0.2340
  635MOL0     C85653   9.307   5.111   6.719  0.6990 -0.2443  0.4509
  635MOL0     C85654   9.333   5.225   6.638  0.2598 -0.3756 -0.4742
  635MOL0     C85655   9.380   5.325   6.585 -0.9188 -0.1626  0.6742
  635MOL0     C85656   9.463   4.815   7.061 -0.9520 -0.2764  0.2849
  635MOL0     C85657   9.522   4.724   7.147 -0.3271  0.1808  0.9390
  635MOL0     H85658   9.740   4.282   7.180 -1.9561  0.0711  0.2957
  635MOL0     H85659   9.943   4.161   7.212 -1.0757 -1.1872  1.2102
  635MOL0     H85660  10.209   4.301   7.539  2.2348 -1.0054 -0.9670
  635MOL0     H85661  10.126   4.181   7.637  1.6297 -0.3573  1.2394
  635MOL0     H85662  10.273   4.003   7.521 -1.0442  0.1229  1.0264
  635MOL0     H85663  10.363   4.136   7.460 -2.0229 -0.3870 -0.6497
  635MOL0     H85664  10.407   4.229   7.676 -0.6769  1.1211 -1.7813
  635MOL0     H85665  10.319   4.088   7.748  1.0128 -4.6122  0.1227
  635MOL0     H85666  10.481   3.933   7.604  1.3400 -0.9644  0.3981
  635MOL0     H85667  10.572   4.083   7.583 -2.9485  3.1616  0.1686
  635MOL0     H85668  10.476   3.943   7.838 -0.1172 -2.7062 -0.5504
  635MOL0     H85669  10.643   3.920   7.776 -1.0200 -0.4624 -0.4579
  635MOL0     H85670  10.679   4.174   7.800 -0.0856  0.3951  1.6654
  635MOL0     H85671  10.529   4.194   7.883 -2.4269 -0.7649 -2.3357
  635MOL0     H85672  10.587   4.063   8.060 -0.5477  3.2618 -1.5791
  635MOL0     H85673  10.724   3.984   7.978 -1.6349 -0.4116 -2.6285
  635MOL0     H85674  10.854   4.186   8.037  0.3940  2.7387  1.1627
  635MOL0     H85675  10.752   4.147   8.178  1.5827  2.7020  1.7285
  635MOL0     H85676  10.803   4.374   7.862  0.5857  2.3690  1.0446
  635MOL0     H85677  10.682   4.727   7.962  0.3181 -0.4273  0.5583
  635MOL0     H85678  10.781   4.652   7.840 -0.6072  5.1218 -0.1703
  635MOL0     H85679  10.569   4.764   7.760 -0.7943 -0.2202  1.4250
  635MOL0     H85680  10.480   4.633   7.842 -0.3979 -1.1110 -0.2515
  635MOL0     H85681  10.625   4.474   7.693  1.7431  0.4880  1.1799
  635MOL0     H85682  10.691   4.611   7.609 -0.0547  0.9798  0.2931
  635MOL0     H85683  10.483   4.706   7.548 -1.0666 -0.5300 -1.9587
  635MOL0     H85684  10.400   4.580   7.641 -2.0873  5.2819 -1.4895
  635MOL0     H85685  10.283   4.659   7.464  0.1601 -1.7535  1.3142
  635MOL0     H85686   9.985   4.597   7.270  0.2398  0.4945  1.1898
  635MOL0     H85687  10.039   4.684   7.404 -3.3748  1.6450 -0.8157
  635MOL0     H85688  10.058   4.751   7.232  1.3186 -2.0952 -1.3929
  635MOL0     H85689   9.873   4.444   6.926 -1.0838 -0.0632 -1.4930
  635MOL0     H85690   9.763   4.368   6.749  1.1447  2.4002  1.6409
  635MOL0     H85691   9.647   4.215   6.629  1.2638 -2.4371  0.6190
  635MOL0     H85692   9.780   4.287   6.526  2.8281 -0.4428 -0.1012
  635MOL0     H85693   9.597   4.212   6.387 -0.2788  1.5150  1.9141
  635MOL0     H85694   9.758   4.127   6.361 -1.9462 -2.0646 -2.5651
  635MOL0     H85695   9.517   4.017   6.504  0.5749  3.0765 -0.5487
  635MOL0     H85696   9.667   3.941   6.509  0.8638  0.0176 -0.8529
  635MOL0     H85697   9.493   4.007   6.246  0.5800  1.3637  1.3732
  635MOL0     H85698   9.655   3.964   6.229 -0.0664  0.2783 -0.2617
  635MOL0     H85699   9.629   3.755   6.336  0.9147  0.3533 -2.0072
  635MOL0     H85700   9.532   3.784   6.182 -0.2124  1.2561 -0.6496
  635MOL0     H85701   9.396   3.786   6.451  2.0102  1.9798 -1.0691
  635MOL0     H85702   9.330   3.828   6.289 -0.7235 -1.3134 -1.7878
  635MOL0     H85703   9.395   3.613   6.200 -1.1759  3.1452 -1.3986
  635MOL0     H85704   9.256   3.633   6.306  0.1705 -1.2921  0.2614
  635MOL0     H85705   9.434   3.544   6.495  4.4338 -0.4165  0.1006
  635MOL0     H85706   9.532   3.511   6.348  0.1558 -1.3547  1.1682
  635MOL0     H85707  10.039   4.025   6.727 -1.3197 -1.5732  2.9322
  635MOL0     H85708  10.189   4.151   6.859 -2.3734 -1.8838 -1.0855
  635MOL0     H85709  10.369   4.348   7.090 -3.4104 -2.0625  0.6850
  635MOL0     H85710  10.510   4.354   7.287 -0.6650 -0.4999  2.6800
  635MOL0     H85711   9.991   4.414   7.574 -2.6961  3.9032  0.6496
  635MOL0     H85712   9.791   4.517   7.534  1.1469 -0.7387  2.1903
  635MOL0     H85713   9.346   4.446   7.055 -1.7335  0.7608  1.6222
  635MOL0     H85714   9.233   4.607   6.914 -0.9577  2.4719 -0.3647
  635MOL0     H85715   9.114   4.840   6.792 -0.8000  0.7194  0.4148
  635MOL0     H85716   9.136   4.819   6.962 -2.3104  2.4022  0.3486
  635MOL0     H85717   9.235   5.057   6.972  1.5972 -3.0181  0.5942
  635MOL0     H85718   9.059   5.035   6.958 -1.2166 -0.2452 -2.1066
  635MOL0     H85719   9.164   5.225   6.812  0.4980 -0.9443 -0.6769
  635MOL0     H85720   9.093   5.101   6.704 -0.5755  0.2334 -0.6072
  635MOL0     H85721   9.325   5.021   6.660  1.5669 -0.4783  1.0578
  635MOL0     H85722   9.387   5.111   6.794  1.5215  0.6818 -0.3894
  635MOL0     H85723   9.424   5.408   6.534  0.7593  0.3083  2.7359
  635MOL0     H85724   9.498   4.918   7.053  3.9048 -1.7440 -0.7952
  635MOL0     H85725   9.602   4.751   7.215  1.0415 -1.0380 -0.1049
  636MOL0     O85726   6.787   4.805   8.261 -0.3757  0.3376  0.5223
  636MOL0     C85727   6.664   4.798   8.237  0.1421  0.1899  0.4064
  636MOL0     O85728   6.565   4.878   8.290 -0.5555  0.1786 -0.5483
  636MOL0     C85729   6.611   4.933   8.410 -1.2269  0.4245 -0.1367
  636MOL0     C85730   6.645   5.066   8.422 -0.6062 -0.6354  0.0800
  636MOL0     C85731   6.674   5.112   8.549 -0.0222 -1.6839  0.0846
  636MOL0     C85732   6.683   5.034   8.663  0.4796 -0.5408 -0.3442
  636MOL0     O85733   6.706   5.092   8.785  0.4594 -0.5369 -0.0259
  636MOL0     C85734   6.782   5.013   8.881 -0.1425 -0.2059  0.5842
  636MOL0     C85735   6.790   5.085   9.005  0.4770 -0.7248 -0.2234
  636MOL0     C85736   6.876   5.018   9.105 -0.4785 -0.2487 -0.6181
  636MOL0     C85737   7.029   5.049   9.088  0.0328  0.2614 -0.5149
  636MOL0     C85738   7.123   4.953   9.154  1.0379  0.3060  0.6664
  636MOL0     C85739   7.259   5.000   9.179  1.4073 -0.3507  0.5474
  636MOL0     C85740   7.357   4.901   9.250  0.3972 -0.1290  0.0230
  636MOL0     C85741   7.416   4.806   9.144  0.9723  0.3176  0.8716
  636MOL0     N85742   7.337   4.667   9.159 -0.4675  0.3487  0.0183
  636MOL0     C85743   7.254   4.612   9.068  0.7215 -0.7333  0.0435
  636MOL0     C85744   7.195   4.514   9.134  0.0684 -0.4492 -1.2538
  636MOL0     C85745   7.108   4.411   9.064 -0.4769 -0.2882 -0.2468
  636MOL0     C85746   7.095   4.265   9.113  0.5886 -0.3164 -0.4943
  636MOL0     C85747   7.097   4.151   9.006 -0.0428  0.8246  0.3581
  636MOL0     C85748   7.073   4.017   9.072 -0.0130 -0.4471 -0.0561
  636MOL0     O85749   6.939   4.000   9.116  0.0613 -0.3717  0.3235
  636MOL0     C85750   6.892   3.884   9.155 -0.0869  1.0901 -0.2500
  636MOL0     C85751   6.974   3.774   9.208 -0.4436 -0.7951  0.4174
  636MOL0     C85752   6.910   3.655   9.238  0.9012  0.0771 -0.0100
  636MOL0     C85753   6.976   3.551   9.321  0.2744 -0.8552  0.0209
  636MOL0     C85754   6.777   3.631   9.198  0.1786  0.6434 -0.8208
  636MOL0     C85755   6.698   3.507   9.227  1.1505 -0.4860  0.7067
  636MOL0     O85756   6.582   3.523   9.298  0.9803 -0.3108 -0.1680
  636MOL0     C85757   6.514   3.411   9.346 -0.5946  0.3146  0.3239
  636MOL0     C85758   6.435   3.441   9.455 -0.0156 -0.4753 -0.2515
  636MOL0     C85759   6.358   3.332   9.527 -0.4377  0.1308  0.2978
  636MOL0     C85760   6.364   3.209   9.481  0.0393  0.0078  0.2588
  636MOL0     O85761   6.307   3.101   9.540 -0.4643  0.3797 -0.1894
  636MOL0     C85762   6.249   3.104   9.672 -0.4321 -0.3572  0.1598
  636MOL0     C85763   6.353   3.118   9.780 -0.1563  0.0732 -0.2751
  636MOL0     C85764   6.483   3.038   9.758 -0.6967  0.4431  0.3282
  636MOL0     C85765   6.589   3.035   9.858 -0.1440 -0.7945  0.7017
  636MOL0     C85766   6.707   2.937   9.814  0.3988 -0.9178 -0.0189
  636MOL0     C85767   6.836   2.967   9.890 -0.2067  0.5242 -0.4171
  636MOL0     C85768   6.958   2.907   9.805  1.1074  0.7278 -0.4552
  636MOL0     C85769   7.073   2.885   9.898  0.1551  0.8223 -0.5246
  636MOL0    Cl85770   7.064   2.746  10.013  0.3528 -0.3028  0.6882
  636MOL0     C85771   6.443   3.179   9.365  0.7245 -0.4504 -0.8937
  636MOL0     C85772   6.521   3.274   9.305  0.0988  0.2556 -0.4950
  636MOL0     O85773   6.743   3.403   9.183  0.4111 -0.2334 -0.5022
  636MOL0     C85774   6.703   3.726   9.139  0.6151 -0.1886 -0.3085
  636MOL0     C85775   6.757   3.857   9.118 -0.5077  0.7920  1.2042
  636MOL0     N85776   7.252   4.499   9.263 -0.4062 -0.1073 -0.5987
  636MOL0     N85777   7.342   4.594   9.273 -0.4047  0.0218  0.3257
  636MOL0     C85778   6.661   4.896   8.649 -0.3063 -0.6466  0.3633
  636MOL0     C85779   6.620   4.844   8.514 -0.5919 -0.2343  0.3973
  636MOL0     C85780   6.621   4.709   8.124  1.1083 -0.2817  0.0349
  636MOL0     C85781   6.692   4.689   8.004  0.3993 -0.3642  0.1990
  636MOL0     C85782   6.641   4.608   7.904  0.2337  0.3054 -0.1682
  636MOL0     C85783   6.510   4.561   7.922  0.0577 -0.5364 -0.9004
  636MOL0     O85784   6.436   4.493   7.827 -0.3453  0.1594 -0.8680
  636MOL0     C85785   6.485   4.480   7.694 -1.2154 -0.8596  0.5881
  636MOL0     C85786   6.402   4.388   7.610  0.3017 -0.5255 -1.0776
  636MOL0     C85787   6.438   4.362   7.469  0.0389 -0.6486  0.0787
  636MOL0     C85788   6.393   4.220   7.400  0.8018 -0.2676 -0.0098
  636MOL0     C85789   6.504   4.140   7.435 -0.1726 -0.1037  0.4590
  636MOL0     C85790   6.599   4.069   7.441  0.7989  0.4390 -0.1950
  636MOL0     C85791   6.447   4.583   8.043  0.8095 -0.3775  0.0524
  636MOL0     C85792   6.497   4.655   8.140 -1.1305  0.5897  0.4581
  636MOL0     H85793   6.647   5.133   8.336 -3.0076  0.2951  0.6571
  636MOL0     H85794   6.703   5.215   8.562  2.0776 -2.2974  0.7119
  636MOL0     H85795   6.740   4.914   8.899  0.7088 -0.6517  0.1943
  636MOL0     H85796   6.885   4.994   8.852  0.7336 -0.4752  3.5164
  636MOL0     H85797   6.823   5.187   8.985 -0.2323 -0.5068 -0.3183
  636MOL0     H85798   6.688   5.087   9.045  0.2271 -0.2514 -0.8791
  636MOL0     H85799   6.853   5.047   9.208  1.9027  0.0347 -0.0986
  636MOL0     H85800   6.853   4.912   9.099 -1.7530  0.0174 -0.7313
  636MOL0     H85801   7.047   5.064   8.981  1.0414  0.1781 -0.3665
  636MOL0     H85802   7.039   5.147   9.137 -1.1971  2.0502 -3.5438
  636MOL0     H85803   7.069   4.934   9.247 -2.3609  0.2220 -1.1824
  636MOL0     H85804   7.123   4.856   9.104 -3.1482  0.0426  0.8043
  636MOL0     H85805   7.306   5.044   9.090  2.9011 -3.1828 -0.1748
  636MOL0     H85806   7.244   5.085   9.246 -3.4746 -1.8876  1.8286
  636MOL0     H85807   7.435   4.972   9.279 -0.4166  1.3693 -1.3117
  636MOL0     H85808   7.319   4.849   9.339  0.4209  0.9193  0.6688
  636MOL0     H85809   7.521   4.776   9.149  0.6751 -1.4781 -1.8187
  636MOL0     H85810   7.398   4.837   9.041  1.7137  1.0701  0.9608
  636MOL0     H85811   7.234   4.637   8.965  2.4590  2.1719  0.3048
  636MOL0     H85812   7.014   4.466   9.064  0.2513  1.0443 -2.5103
  636MOL0     H85813   7.122   4.420   8.956 -1.1268  0.8251 -0.2480
  636MOL0     H85814   7.003   4.260   9.173  0.6453 -2.4118 -0.5136
  636MOL0     H85815   7.177   4.226   9.174 -0.8190 -1.8274  0.5184
  636MOL0     H85816   7.198   4.142   8.965  0.7528  0.1748  2.3140
  636MOL0     H85817   7.010   4.162   8.940  1.0208  2.0962 -0.8867
  636MOL0     H85818   7.144   4.002   9.154  0.0312 -1.6360 -0.2977
  636MOL0     H85819   7.094   3.938   9.000 -1.2361 -0.0111 -0.9295
  636MOL0     H85820   7.078   3.789   9.236 -0.1929  1.0110 -1.2993
  636MOL0     H85821   7.070   3.586   9.365 -0.7984  1.6921  0.4771
  636MOL0     H85822   6.916   3.512   9.405  3.1369 -2.5540  1.4294
  636MOL0     H85823   7.000   3.475   9.246 -1.9507 -2.1895  0.5406
  636MOL0     H85824   6.434   3.543   9.493 -1.0651 -1.4707  2.7295
  636MOL0     H85825   6.299   3.355   9.615 -0.1670 -1.0815  0.8242
  636MOL0     H85826   6.171   3.181   9.673 -0.3267 -0.2219 -1.0274
  636MOL0     H85827   6.198   3.009   9.690  0.2022 -0.3290  2.4599
  636MOL0     H85828   6.373   3.223   9.804  3.1025 -0.6723  0.7624
  636MOL0     H85829   6.300   3.075   9.866  2.0474  0.9093  1.6140
  636MOL0     H85830   6.521   3.078   9.664 -0.7403  1.6284  0.7962
  636MOL0     H85831   6.458   2.932   9.741  3.2863 -0.7795  1.0146
  636MOL0     H85832   6.635   3.134   9.854  2.4387 -1.9301 -0.2589
  636MOL0     H85833   6.569   3.012   9.963  1.2723 -3.7095  0.4365
  636MOL0     H85834   6.724   2.934   9.706  0.5679  1.8456 -0.1401
  636MOL0     H85835   6.688   2.833   9.844  2.0464 -0.9956  0.8362
  636MOL0     H85836   6.857   3.073   9.908 -1.0020  0.9098 -1.6298
  636MOL0     H85837   6.833   2.926   9.991 -1.7682  0.6937 -0.3585
  636MOL0     H85838   6.970   2.988   9.733  0.0918  1.3476  0.0569
  636MOL0     H85839   6.926   2.810   9.766 -0.4999  0.6647  0.9162
  636MOL0     H85840   7.088   2.977   9.955  0.4189  1.2022 -1.2015
  636MOL0     H85841   7.152   2.854   9.829 -1.4992  1.7796 -2.9563
  636MOL0     H85842   6.449   3.074   9.336  2.2219 -0.2338 -1.4319
  636MOL0     H85843   6.582   3.236   9.223  0.6956 -2.0968  0.9414
  636MOL0     H85844   6.599   3.702   9.121  0.8105 -3.0697  1.7966
  636MOL0     H85845   6.696   3.933   9.069 -0.4932 -1.4213 -2.6442
  636MOL0     H85846   6.657   4.825   8.731 -0.0402 -0.4087  0.5802
  636MOL0     H85847   6.600   4.739   8.496 -1.6518  0.3182 -1.9928
  636MOL0     H85848   6.782   4.745   7.978 -2.1774  5.0633  1.6195
  636MOL0     H85849   6.695   4.592   7.811 -1.3493  1.2675 -1.3136
  636MOL0     H85850   6.500   4.577   7.645  0.0124 -1.7340 -0.8530
  636MOL0     H85851   6.586   4.439   7.686 -0.6963  0.7189 -2.7578
  636MOL0     H85852   6.300   4.428   7.620  2.1934  4.8795 -0.4459
  636MOL0     H85853   6.417   4.290   7.656  0.0686  0.0156  0.2114
  636MOL0     H85854   6.546   4.383   7.468 -0.1103  0.1164 -0.7327
  636MOL0     H85855   6.385   4.438   7.410  1.1433  0.3302  0.3011
  636MOL0     H85856   6.384   4.219   7.291 -0.2674  0.2570  0.0624
  636MOL0     H85857   6.305   4.166   7.436  1.3196  0.0988  1.9194
  636MOL0     H85858   6.679   3.998   7.444 -0.4521 -1.0330 -0.2612
  636MOL0     H85859   6.342   4.553   8.042  0.2787  1.0983  2.7465
  636MOL0     H85860   6.442   4.666   8.233 -2.6986 -4.4565  0.3859
  637MOL0     O85861  10.016   5.509   0.586  0.5513  0.3954  0.1576
  637MOL0     C85862   9.902   5.515   0.570  0.5052  0.1073  1.1559
  637MOL0     O85863   9.833   5.586   0.464  0.1895 -0.4698  0.0561
  637MOL0     C85864   9.902   5.664   0.374 -0.1068  0.2270  0.2867
  637MOL0     C85865   9.866   5.667   0.248  0.4241  0.2345  0.3287
  637MOL0     C85866   9.932   5.730   0.145 -0.5626 -0.0291 -0.0998
  637MOL0     C85867  10.040   5.809   0.172 -0.0747 -0.4857 -0.0864
  637MOL0     O85868  10.103   5.873   0.064 -0.0318  1.1924 -0.8051
  637MOL0     C85869  10.181   5.990   0.094  0.9114 -0.2161 -0.0853
  637MOL0     C85870  10.101   6.110   0.142 -0.1336 -0.2316 -1.1107
  637MOL0     C85871  10.176   6.242   0.159 -0.6903 -1.1480  0.8531
  637MOL0     C85872  10.265   6.242   0.270  0.2620  0.1885  0.3263
  637MOL0     C85873  10.356   6.365   0.267 -0.9903  0.4162 -0.4097
  637MOL0     C85874  10.275   6.499   0.264 -1.5410 -0.0367  0.4396
  637MOL0     C85875  10.365   6.615   0.320  0.2790 -0.1203 -0.1015
  637MOL0     C85876  10.319   6.753   0.281  0.5835 -0.7186  0.6599
  637MOL0     N85877  10.244   6.829   0.381 -0.4019  0.3357  0.4447
  637MOL0     C85878  10.107   6.817   0.393  0.1318 -0.6362 -0.5172
  637MOL0     C85879  10.071   6.929   0.459  0.6469  0.1659 -0.7307
  637MOL0     C85880   9.933   6.949   0.506 -0.3251  0.1042  0.8416
  637MOL0     C85881   9.845   6.976   0.375  0.2799  0.2494 -0.3659
  637MOL0     C85882   9.768   6.856   0.325  0.6921  0.3258  0.5138
  637MOL0     C85883   9.625   6.866   0.314  0.5995 -1.0446 -0.1460
  637MOL0     O85884   9.570   6.735   0.270  0.3397  0.2151 -0.2502
  637MOL0     C85885   9.525   6.642   0.353  0.2398 -0.5832  1.4091
  637MOL0     C85886   9.510   6.650   0.493  0.5678 -0.9201 -0.3842
  637MOL0     C85887   9.476   6.542   0.577 -0.6551  0.6121  0.1788
  637MOL0     C85888   9.451   6.570   0.724  0.4444 -0.0887 -0.4601
  637MOL0     C85889   9.458   6.412   0.513  0.6796 -0.1752  0.6410
  637MOL0     C85890   9.424   6.285   0.580 -0.8523  0.1714 -0.6203
  637MOL0     O85891   9.440   6.280   0.716  0.1723 -0.1675  0.7271
  637MOL0     C85892   9.353   6.211   0.797  0.2690  0.3896 -0.0240
  637MOL0     C85893   9.411   6.147   0.900  0.6832 -0.4766  0.1296
  637MOL0     C85894   9.334   6.106   1.007 -0.1678 -0.9598 -0.5375
  637MOL0     C85895   9.194   6.115   1.015 -0.0826 -0.6530  0.5750
  637MOL0     O85896   9.126   6.075   1.127 -0.4116 -0.1308  0.4224
  637MOL0     C85897   8.984   6.095   1.149 -0.1942 -0.0441  0.1338
  637MOL0     C85898   8.956   6.079   1.296 -0.1008  0.3796  0.4335
  637MOL0     C85899   8.988   5.952   1.366 -0.3023  0.1098 -0.3193
  637MOL0     C85900   8.945   5.832   1.292 -0.0740 -0.5730  0.3737
  637MOL0     C85901   8.959   5.716   1.389  0.1617 -0.6630  0.6943
  637MOL0     C85902   8.927   5.578   1.317  0.7918  0.5425  0.0261
  637MOL0     C85903   8.964   5.551   1.168  0.5060  0.1160  0.0068
  637MOL0     C85904   9.101   5.489   1.160  0.1050  0.3419 -0.0434
  637MOL0    Cl85905   9.220   5.602   1.235  0.2972 -0.2426 -0.1220
  637MOL0     C85906   9.133   6.171   0.899 -1.0917  0.2868 -0.0391
  637MOL0     C85907   9.213   6.221   0.796  0.3954 -0.6738  0.4183
  637MOL0     O85908   9.379   6.196   0.516  0.0465 -0.3866  1.0133
  637MOL0     C85909   9.456   6.413   0.371  0.4930  0.7079  0.2523
  637MOL0     C85910   9.485   6.525   0.291 -0.0647  0.7514 -0.3907
  637MOL0     N85911  10.189   6.986   0.506 -0.4322 -0.5669  0.4134
  637MOL0     N85912  10.297   6.918   0.466 -0.5685 -0.9711  0.8741
  637MOL0     C85913  10.083   5.814   0.304 -0.5344 -0.6892  0.0387
  637MOL0     C85914  10.020   5.733   0.404  0.0429 -0.0868 -0.5899
  637MOL0     C85915   9.809   5.453   0.661 -0.8498  0.3849  0.5657
  637MOL0     C85916   9.667   5.444   0.642 -0.5871 -1.6272 -0.0269
  637MOL0     C85917   9.580   5.377   0.730  0.8565  0.5366  0.6198
  637MOL0     C85918   9.632   5.346   0.863  0.9162  0.1553  0.4371
  637MOL0     O85919   9.540   5.289   0.944 -0.4162 -0.1250 -0.2996
  637MOL0     C85920   9.528   5.328   1.087  0.5743  0.6389 -0.0228
  637MOL0     C85921   9.408   5.251   1.147  0.4453 -1.0272  0.7036
  637MOL0     C85922   9.422   5.104   1.124 -0.8480 -0.4570 -0.9600
  637MOL0     C85923   9.352   5.018   1.240  0.1765  0.3270 -1.1544
  637MOL0     C85924   9.208   5.053   1.240 -0.3820 -1.0045 -0.7002
  637MOL0     C85925   9.088   5.091   1.246  0.5669  0.6016  0.3432
  637MOL0     C85926   9.760   5.372   0.903 -0.6089 -0.4017  0.4420
  637MOL0     C85927   9.856   5.403   0.791 -0.0433 -0.5430 -0.1681
  637MOL0     H85928   9.780   5.611   0.213  2.8245 -4.9116  1.6265
  637MOL0     H85929   9.890   5.723   0.045  1.6890 -3.8313 -0.9945
  637MOL0     H85930  10.264   5.964   0.160 -0.2068 -2.5130  0.5011
  637MOL0     H85931  10.222   6.033   0.001  1.2612 -4.1257 -1.9464
  637MOL0     H85932  10.009   6.123   0.085 -0.8236  1.0733  0.2473
  637MOL0     H85933  10.045   6.089   0.234  1.9033 -0.7389  0.0870
  637MOL0     H85934  10.232   6.270   0.070  1.1277  2.9351  3.0111
  637MOL0     H85935  10.109   6.328   0.170  0.5180  0.3628 -2.3822
  637MOL0     H85936  10.212   6.244   0.366 -2.2229 -1.1418 -0.9341
  637MOL0     H85937  10.322   6.150   0.261  1.6004  1.0363 -0.1843
  637MOL0     H85938  10.424   6.362   0.352 -1.4043 -3.1027 -0.0587
  637MOL0     H85939  10.415   6.352   0.176  1.6713 -1.1636  1.4082
  637MOL0     H85940  10.239   6.515   0.162  2.1862  2.4088 -0.6829
  637MOL0     H85941  10.187   6.491   0.329  0.3593 -2.0498  2.9986
  637MOL0     H85942  10.358   6.622   0.429  1.1276  2.8543 -0.1347
  637MOL0     H85943  10.465   6.595   0.280  0.7187 -2.3013  1.8099
  637MOL0     H85944  10.262   6.739   0.188 -1.4798 -2.3281  2.0759
  637MOL0     H85945  10.407   6.807   0.245 -0.7250 -0.8065 -3.1682
  637MOL0     H85946  10.032   6.749   0.354 -1.0724  0.1991  0.2649
  637MOL0     H85947   9.907   6.865   0.570  1.0644 -0.0117  1.2834
  637MOL0     H85948   9.924   7.043   0.562 -1.5888 -0.2577  1.2812
  637MOL0     H85949   9.900   6.997   0.283  1.3632 -0.8248  0.0128
  637MOL0     H85950   9.777   7.058   0.398 -0.2839 -0.4591  0.5512
  637MOL0     H85951   9.790   6.776   0.396  0.2680  0.5147  0.8593
  637MOL0     H85952   9.803   6.823   0.227 -1.3054  0.1446 -0.1758
  637MOL0     H85953   9.601   6.948   0.246 -0.7295 -1.0295  0.3087
  637MOL0     H85954   9.585   6.883   0.414  4.8614 -1.5789  1.8535
  637MOL0     H85955   9.531   6.743   0.545 -0.3432 -0.8163 -0.1907
  637MOL0     H85956   9.367   6.515   0.767 -0.1575 -1.0926 -2.8068
  637MOL0     H85957   9.543   6.544   0.779  0.1793  0.7632  0.4260
  637MOL0     H85958   9.442   6.675   0.751 -1.5700 -0.6685  1.4149
  637MOL0     H85959   9.518   6.124   0.900  0.9772  0.7754  0.8469
  637MOL0     H85960   9.386   6.062   1.091 -1.2921 -0.6908  0.3114
  637MOL0     H85961   8.954   6.195   1.116 -0.1416  0.0722  0.4282
  637MOL0     H85962   8.927   6.019   1.096 -2.3323  1.8978 -0.5050
  637MOL0     H85963   9.001   6.160   1.354  0.6054 -0.2820  0.8262
  637MOL0     H85964   8.847   6.089   1.296 -0.4681 -2.6773  0.4440
  637MOL0     H85965   8.937   5.949   1.463 -0.3271 -1.8271 -0.3464
  637MOL0     H85966   9.095   5.950   1.390 -0.3715 -3.1429  0.2226
  637MOL0     H85967   8.848   5.846   1.243  0.6721 -0.8327 -1.2603
  637MOL0     H85968   9.013   5.829   1.207  0.1374  2.9259  0.2649
  637MOL0     H85969   8.902   5.732   1.482  0.7799  1.4027  0.7724
  637MOL0     H85970   9.067   5.710   1.404 -0.0605 -2.9835  1.7623
  637MOL0     H85971   8.977   5.509   1.387 -0.7175  0.8729  1.4739
  637MOL0     H85972   8.822   5.559   1.338  0.6154  1.1698 -0.2625
  637MOL0     H85973   8.957   5.641   1.106 -0.9433 -0.6465 -0.9844
  637MOL0     H85974   8.888   5.477   1.143 -1.2229  1.0182  2.2774
  637MOL0     H85975   9.128   5.496   1.054  0.7507  2.3174  0.2071
  637MOL0     H85976   9.102   5.385   1.194 -1.7842  0.2446 -0.1734
  637MOL0     H85977   9.027   6.192   0.889 -0.8656  0.5287 -2.4254
  637MOL0     H85978   9.164   6.275   0.715  2.4208  0.7858  0.0801
  637MOL0     H85979   9.440   6.316   0.325  1.2717 -0.0191  1.4541
  637MOL0     H85980   9.493   6.505   0.185 -2.0225 -1.9834 -0.1112
  637MOL0     H85981  10.171   5.872   0.330 -0.4260 -1.7424  2.1695
  637MOL0     H85982  10.061   5.731   0.504 -1.1618 -0.7716 -0.0914
  637MOL0     H85983   9.631   5.474   0.545 -1.1461  0.2630  0.7335
  637MOL0     H85984   9.473   5.368   0.713  0.9402  1.5225 -0.5738
  637MOL0     H85985   9.610   5.286   1.147  0.2619 -0.0751 -0.0789
  637MOL0     H85986   9.515   5.436   1.095  1.0527  0.7445 -0.6999
  637MOL0     H85987   9.325   5.296   1.093  1.4640  0.3468  0.2274
  637MOL0     H85988   9.381   5.276   1.250 -1.2757  0.4368 -0.0394
  637MOL0     H85989   9.528   5.082   1.111  0.2819  3.3409  0.4785
  637MOL0     H85990   9.376   5.079   1.028 -0.1059  0.0592 -1.4591
  637MOL0     H85991   9.396   5.020   1.340  1.3977 -1.1201 -1.6190
  637MOL0     H85992   9.353   4.914   1.206  1.3417  0.2629 -0.9404
  637MOL0     H85993   8.986   5.105   1.278  0.3012 -0.3379 -0.0414
  637MOL0     H85994   9.809   5.354   0.998  1.7286  4.6591  0.5409
  637MOL0     H85995   9.959   5.407   0.824  0.6185 -0.3249 -2.1170
  638MOL0     O85996  11.367   6.667   8.516  0.2772  0.0463 -0.1282
  638MOL0     C85997  11.434   6.612   8.607 -0.3157 -1.3054  0.2687
  638MOL0     O85998  11.386   6.565   8.727 -1.1960  0.8170  0.5023
  638MOL0     C85999  11.251   6.571   8.742  0.2755 -0.1870 -0.2706
  638MOL0     C86000  11.207   6.632   8.860 -0.3989 -0.4047  0.5124
  638MOL0     C86001  11.073   6.637   8.898  0.2108  0.4582 -0.7030
  638MOL0     C86002  10.974   6.588   8.811  0.2591  0.5631  0.1541
  638MOL0     O86003  10.839   6.576   8.830  0.3151 -0.0539 -0.1508
  638MOL0     C86004  10.810   6.497   8.943 -0.3257 -0.8480 -0.3893
  638MOL0     C86005  10.664   6.530   8.991  0.9609  0.1696  0.0253
  638MOL0     C86006  10.644   6.670   9.050  0.2763  0.5458 -0.7786
  638MOL0     C86007  10.530   6.664   9.163 -1.3974 -1.2689  0.1767
  638MOL0     C86008  10.566   6.691   9.297 -0.7042 -0.5167 -0.6013
  638MOL0     C86009  10.447   6.697   9.392 -0.4439  0.1655 -0.4308
  638MOL0     C86010  10.488   6.752   9.529  0.1624  0.0687  0.0138
  638MOL0     C86011  10.381   6.739   9.648 -0.0183  0.9015 -0.5309
  638MOL0     N86012  10.420   6.783   9.781 -1.0298 -0.8968  0.5746
  638MOL0     C86013  10.551   6.826   9.806  0.9736  0.4960  0.5320
  638MOL0     C86014  10.543   6.888   9.925 -0.8279 -0.0938 -0.5670
  638MOL0     C86015  10.676   6.942   9.993 -0.0155 -0.6917  0.3809
  638MOL0     C86016  10.688   7.096   9.994 -0.4869  0.1340 -0.7382
  638MOL0     C86017  10.818   7.124  10.074 -0.3289 -0.2311  0.3734
  638MOL0     C86018  10.887   7.246  10.025 -0.3893  0.4660  0.3958
  638MOL0     O86019  11.025   7.252  10.072 -0.6469 -0.2404  0.1603
  638MOL0     C86020  11.116   7.156  10.036  0.7101 -0.3339  0.0118
  638MOL0     C86021  11.190   7.102  10.136 -0.2455 -0.3461  0.2215
  638MOL0     C86022  11.297   7.022  10.106 -0.3880 -0.5652  1.1070
  638MOL0     C86023  11.393   6.994  10.221 -0.5625 -0.3945 -0.1858
  638MOL0     C86024  11.313   6.971   9.973 -0.0419  0.6877 -0.8187
  638MOL0     C86025  11.423   6.874   9.922  0.2880  0.3065  0.1896
  638MOL0     O86026  11.420   6.838   9.792  0.5157 -0.3887  0.6187
  638MOL0     C86027  11.519   6.785   9.717 -0.0239 -0.6636  0.1682
  638MOL0     C86028  11.650   6.811   9.731 -0.3321 -0.4185  0.8188
  638MOL0     C86029  11.740   6.771   9.635 -0.7442  0.1032 -0.0591
  638MOL0     C86030  11.706   6.668   9.539 -0.4321  0.4367  0.2814
  638MOL0     O86031  11.790   6.604   9.448  0.3400 -0.5285  0.5980
  638MOL0     C86032  11.892   6.533   9.519  0.0265  0.5771 -0.2280
  638MOL0     C86033  12.002   6.499   9.406 -0.0626  0.4181 -0.2272
  638MOL0     C86034  12.115   6.416   9.473 -0.0704 -0.4291 -0.4145
  638MOL0     C86035  12.200   6.359   9.359  0.3820  0.3707 -0.2629
  638MOL0     C86036  12.334   6.317   9.419 -0.0018  0.5197  0.4973
  638MOL0     C86037  12.443   6.265   9.321 -0.4891 -0.5338  0.3709
  638MOL0     C86038  12.405   6.142   9.232  0.2719 -0.1775 -0.4460
  638MOL0     C86039  12.386   6.004   9.308  0.5639  0.0332  0.3218
  638MOL0    Cl86040  12.371   5.886   9.173  0.5200  0.3450 -0.2510
  638MOL0     C86041  11.574   6.628   9.534 -0.0116 -0.0570 -0.7423
  638MOL0     C86042  11.481   6.684   9.622  0.3392 -0.3161  0.4776
  638MOL0     O86043  11.497   6.815   9.999 -0.5167 -0.0113  0.3517
  638MOL0     C86044  11.236   7.033   9.868  0.2630  0.6570  0.2100
  638MOL0     C86045  11.122   7.111   9.906 -0.5833  0.4379  0.2537
  638MOL0     N86046  10.410   6.905   9.959 -0.2993 -0.8400 -0.3978
  638MOL0     N86047  10.338   6.844   9.874 -0.1259  0.4354 -0.0817
  638MOL0     C86048  11.011   6.524   8.690 -0.7213 -0.7909 -0.1450
  638MOL0     C86049  11.148   6.511   8.653 -0.5231  0.0380  0.0160
  638MOL0     C86050  11.581   6.610   8.592  0.0220 -0.3023 -0.6807
  638MOL0     C86051  11.668   6.555   8.692  0.0134 -0.0586 -0.0438
  638MOL0     C86052  11.809   6.549   8.686 -0.0074 -0.3865 -1.1755
  638MOL0     C86053  11.868   6.576   8.572 -1.3093 -1.9864  0.8602
  638MOL0     O86054  12.004   6.571   8.571  0.7210  0.5324 -0.1224
  638MOL0     C86055  12.072   6.553   8.445 -0.6032 -0.0436 -0.7623
  638MOL0     C86056  12.225   6.545   8.471 -0.1352  0.1586  0.0655
  638MOL0     C86057  12.318   6.554   8.342 -0.0798  0.3360 -0.6480
  638MOL0     C86058  12.465   6.585   8.368 -0.1112  0.3656  0.0390
  638MOL0     C86059  12.534   6.635   8.252  1.2933 -0.0668  0.4620
  638MOL0     C86060  12.588   6.702   8.165 -0.0304  1.4144  0.7116
  638MOL0     C86061  11.788   6.625   8.469  0.3990 -0.0251  0.8080
  638MOL0     C86062  11.654   6.644   8.477 -0.0344  0.5650 -0.1576
  638MOL0     H86063  11.274   6.660   8.941 -0.9179 -1.5050  1.3480
  638MOL0     H86064  11.051   6.670   8.999 -3.1605  1.9955 -1.7839
  638MOL0     H86065  10.805   6.391   8.917 -4.7906 -0.5595 -1.5620
  638MOL0     H86066  10.877   6.530   9.024 -2.6841  1.7023  0.6888
  638MOL0     H86067  10.583   6.512   8.920  2.7204 -1.8415 -1.6288
  638MOL0     H86068  10.655   6.451   9.067  4.0582 -1.1321 -0.8123
  638MOL0     H86069  10.740   6.688   9.099  0.3299 -0.7714 -0.3708
  638MOL0     H86070  10.614   6.748   8.980  0.4004  0.8649 -0.4748
  638MOL0     H86071  10.457   6.737   9.128 -0.4138 -0.2598  0.1476
  638MOL0     H86072  10.480   6.567   9.173 -3.9923 -0.2440 -1.7971
  638MOL0     H86073  10.644   6.618   9.321  0.3734  0.1482 -1.9287
  638MOL0     H86074  10.613   6.790   9.299 -0.7048 -0.5255 -0.0993
  638MOL0     H86075  10.369   6.756   9.343 -1.2805  0.5969  1.3146
  638MOL0     H86076  10.400   6.601   9.414  0.5510  0.0879  1.6327
  638MOL0     H86077  10.573   6.693   9.566 -0.2520  1.6323  3.9803
  638MOL0     H86078  10.527   6.854   9.518  0.7761 -0.2623 -1.0092
  638MOL0     H86079  10.346   6.635   9.648  1.7295  0.2879 -0.9785
  638MOL0     H86080  10.296   6.802   9.620  0.2184  1.3627 -0.2174
  638MOL0     H86081  10.643   6.797   9.755 -0.5602  0.0236 -2.1829
  638MOL0     H86082  10.675   6.899  10.094 -0.3148 -1.0003  0.2520
  638MOL0     H86083  10.765   6.910   9.937 -1.3248 -2.7258 -0.6848
  638MOL0     H86084  10.608   7.138  10.055 -3.1730 -2.4589 -2.2375
  638MOL0     H86085  10.691   7.154   9.901 -1.3604  3.1156  0.9396
  638MOL0     H86086  10.884   7.038  10.060  0.5400  0.4033  0.4681
  638MOL0     H86087  10.789   7.146  10.177 -0.5892  5.9094 -0.6345
  638MOL0     H86088  10.824   7.331  10.054 -2.0537 -1.0399  1.4355
  638MOL0     H86089  10.895   7.250   9.916  1.8482  1.5565  0.5340
  638MOL0     H86090  11.170   7.128  10.239 -2.7310 -2.3657  0.3575
  638MOL0     H86091  11.379   7.064  10.303 -0.1461  0.5301 -0.8908
  638MOL0     H86092  11.371   6.891  10.250  1.2000 -1.2741 -1.7264
  638MOL0     H86093  11.499   6.999  10.196  0.1841 -1.3543  2.4510
  638MOL0     H86094  11.662   6.879   9.814 -3.7171  2.0326 -0.4642
  638MOL0     H86095  11.847   6.788   9.638 -1.0058  1.8480  2.9034
  638MOL0     H86096  11.930   6.586   9.607 -2.8158 -0.8393  2.0487
  638MOL0     H86097  11.846   6.446   9.568 -2.0415  2.4210  1.3138
  638MOL0     H86098  11.959   6.447   9.320  1.6266  0.4024 -1.0992
  638MOL0     H86099  12.035   6.596   9.369 -0.1989  1.1053  1.3365
  638MOL0     H86100  12.062   6.347   9.540 -1.3834  0.2333 -0.7367
  638MOL0     H86101  12.179   6.480   9.535  0.2168 -1.4516  0.3685
  638MOL0     H86102  12.148   6.271   9.320  2.1657 -1.7866  1.9072
  638MOL0     H86103  12.209   6.433   9.279  1.4963 -0.5893 -1.0512
  638MOL0     H86104  12.312   6.250   9.503 -0.1836  0.6614  0.5633
  638MOL0     H86105  12.383   6.406   9.460  2.6354 -2.4718  4.6414
  638MOL0     H86106  12.470   6.342   9.248  0.4886 -0.6774  0.5699
  638MOL0     H86107  12.533   6.244   9.379  0.4969 -0.6324 -1.1314
  638MOL0     H86108  12.488   6.134   9.161  0.4432  1.6329 -0.4776
  638MOL0     H86109  12.309   6.167   9.187 -0.3749 -1.9524 -0.1486
  638MOL0     H86110  12.290   6.011   9.361 -1.3187  2.0182 -2.9610
  638MOL0     H86111  12.467   5.978   9.376 -1.0692  1.7454  3.0966
  638MOL0     H86112  11.537   6.550   9.469 -3.0250 -1.5283  2.4360
  638MOL0     H86113  11.378   6.657   9.606 -0.1578  2.2430 -1.3633
  638MOL0     H86114  11.245   7.013   9.762 -1.3671 -0.6128  0.2867
  638MOL0     H86115  11.066   7.145   9.819  1.2651 -0.1704 -1.2432
  638MOL0     H86116  10.938   6.494   8.615 -2.0492  1.7511  0.0173
  638MOL0     H86117  11.170   6.454   8.563 -1.2949  0.2038 -0.2810
  638MOL0     H86118  11.621   6.519   8.783 -0.6075 -1.4332 -0.8693
  638MOL0     H86119  11.854   6.511   8.778  1.7991  3.0342 -0.4588
  638MOL0     H86120  12.033   6.457   8.412 -2.6880  0.4828  0.0521
  638MOL0     H86121  12.045   6.627   8.369 -1.2028  1.8478  1.1763
  638MOL0     H86122  12.244   6.451   8.524 -0.4924  0.1275  0.1415
  638MOL0     H86123  12.248   6.626   8.541 -1.5185  0.7662 -0.1403
  638MOL0     H86124  12.281   6.629   8.271  1.6986 -0.2592 -2.2620
  638MOL0     H86125  12.314   6.453   8.300 -1.8628 -0.2863  0.8597
  638MOL0     H86126  12.518   6.496   8.402 -0.4663 -0.4847 -1.5465
  638MOL0     H86127  12.473   6.660   8.447  4.9174  0.3405 -0.1641
  638MOL0     H86128  12.626   6.756   8.081 -2.9913  1.1803 -0.9023
  638MOL0     H86129  11.835   6.654   8.375  1.0186 -0.5809  0.9461
  638MOL0     H86130  11.597   6.690   8.397  0.9741  1.3573 -0.4309
  639MOL0     O86131   2.117   6.903   9.970  0.3358  0.1185  0.0753
  639MOL0     C86132   2.079   6.870  10.084 -0.3451  0.0758 -0.9540
  639MOL0     O86133   2.154   6.875  10.201  0.1991 -0.0475  0.0121
  639MOL0     C86134   2.276   6.941  10.195  0.5117 -0.2120 -0.2655
  639MOL0     C86135   2.285   7.068  10.233 -0.1922  0.3930  0.5367
  639MOL0     C86136   2.414   7.134  10.233  0.8291  0.3664 -0.4191
  639MOL0     C86137   2.524   7.072  10.192 -0.4570 -0.0025  0.2445
  639MOL0     O86138   2.643   7.145  10.197  0.6924  0.1292 -0.0568
  639MOL0     C86139   2.705   7.151  10.066  0.2550  1.2398 -0.2467
  639MOL0     C86140   2.855   7.138  10.073  0.1353 -1.0328 -0.2508
  639MOL0     C86141   2.905   6.996  10.110  1.1200  0.1089 -0.0256
  639MOL0     C86142   3.061   6.995  10.126 -0.5974 -0.1239 -0.5366
  639MOL0     C86143   3.126   6.857  10.166 -0.6413 -0.0431  0.7441
  639MOL0     C86144   3.098   6.813  10.316 -0.2513  0.0896  0.3829
  639MOL0     C86145   3.143   6.675  10.344 -1.2293  0.0537  0.2182
  639MOL0     C86146   3.059   6.561  10.281 -0.2897 -0.0796 -0.1699
  639MOL0     N86147   2.937   6.540  10.368  0.1157 -0.3765  0.5155
  639MOL0     C86148   2.930   6.489  10.499  0.6745  0.3188  0.2472
  639MOL0     C86149   2.801   6.518  10.531  0.2117  0.0607  0.0730
  639MOL0     C86150   2.754   6.480  10.670  0.4196 -0.4450  1.5775
  639MOL0     C86151   2.742   6.328  10.702 -0.1692 -0.1612 -0.2643
  639MOL0     C86152   2.680   6.253  10.579  0.1397 -1.0451 -0.0715
  639MOL0     C86153   2.627   6.119  10.628 -0.9890  0.4667  1.1107
  639MOL0     O86154   2.501   6.154  10.686 -0.7274  0.0478  0.0348
  639MOL0     C86155   2.406   6.081  10.627 -1.1495  0.4918 -0.6263
  639MOL0     C86156   2.319   5.996  10.690  0.1659 -0.9517  0.7108
  639MOL0     C86157   2.221   5.922  10.616  1.0272  0.4051 -0.7812
  639MOL0     C86158   2.145   5.821  10.712 -1.0550 -0.4984  0.1727
  639MOL0     C86159   2.193   5.948  10.480 -0.9039 -0.0632 -0.4568
  639MOL0     C86160   2.090   5.874  10.395  0.3445 -0.5613  0.9686
  639MOL0     O86161   2.080   5.924  10.269  0.7481  1.1573  0.0708
  639MOL0     C86162   2.003   5.859  10.176  0.2403  0.5174  0.1088
  639MOL0     C86163   1.900   5.924  10.110  0.6952 -0.6978 -0.9788
  639MOL0     C86164   1.838   5.862   9.999 -0.4887  0.2284 -0.4747
  639MOL0     C86165   1.867   5.729   9.965  0.7675 -0.3472  0.5593
  639MOL0     O86166   1.805   5.675   9.855 -0.0034  0.1633  0.5260
  639MOL0     C86167   1.832   5.535   9.824  0.3597 -0.5060 -0.6141
  639MOL0     C86168   1.765   5.504   9.680 -0.3325  0.2101  0.7419
  639MOL0     C86169   1.790   5.361   9.626  0.0146  0.3290  0.8445
  639MOL0     C86170   1.829   5.250   9.729  0.3702 -0.4954 -0.2539
  639MOL0     C86171   1.815   5.112   9.669  0.5404 -0.5937 -0.7838
  639MOL0     C86172   1.848   5.011   9.771  0.7677  0.4940 -0.2728
  639MOL0     C86173   1.845   4.867   9.719  0.5996  1.2226  0.7728
  639MOL0     C86174   1.973   4.820   9.649 -0.7644 -0.0988 -0.2276
  639MOL0    Cl86175   1.955   4.646   9.618  0.1065 -0.2944  0.4234
  639MOL0     C86176   1.955   5.656  10.052  0.0783  0.6282  0.2252
  639MOL0     C86177   2.019   5.721  10.158 -0.4813  0.5248 -0.4147
  639MOL0     O86178   2.032   5.775  10.440  0.3339 -0.0406 -0.4132
  639MOL0     C86179   2.283   6.038  10.419 -0.3451 -0.5422  0.4781
  639MOL0     C86180   2.383   6.108  10.496  0.7937 -0.0232  1.2536
  639MOL0     N86181   2.731   6.572  10.423 -0.7457 -0.2502  0.0037
  639MOL0     N86182   2.814   6.574  10.325 -0.2567 -0.0809  0.5590
  639MOL0     C86183   2.517   6.942  10.147  0.4589 -0.0346 -0.1029
  639MOL0     C86184   2.386   6.872  10.150 -0.3990 -1.1846  0.0235
  639MOL0     C86185   1.955   6.783  10.101  0.1436 -0.5224  0.4167
  639MOL0     C86186   1.935   6.708  10.216 -0.9980 -0.3917 -0.0846
  639MOL0     C86187   1.831   6.626  10.218 -0.1952 -0.1939 -0.1320
  639MOL0     C86188   1.741   6.612  10.113 -0.4738  0.3703  0.6584
  639MOL0     O86189   1.629   6.531  10.126  0.2845 -0.5947 -0.8866
  639MOL0     C86190   1.668   6.395  10.126  0.3469 -1.2214  0.4206
  639MOL0     C86191   1.685   6.344   9.973 -1.3731  0.5744  0.4914
  639MOL0     C86192   1.559   6.361   9.880  0.1104  1.1740 -0.4260
  639MOL0     C86193   1.465   6.238   9.899  1.0798 -0.1702 -0.6092
  639MOL0     C86194   1.512   6.124   9.824 -0.5576  0.3019  0.1747
  639MOL0     C86195   1.576   6.030   9.773  0.6631  0.6250 -0.0788
  639MOL0     C86196   1.746   6.705  10.008 -0.5937  0.4024  0.3035
  639MOL0     C86197   1.863   6.785   9.994  0.4560 -0.6958 -0.9519
  639MOL0     H86198   2.186   7.111  10.247 -0.9250 -0.4489 -1.6918
  639MOL0     H86199   2.415   7.236  10.270 -1.1876  0.3903 -0.3081
  639MOL0     H86200   2.675   7.079   9.989  4.2669 -3.1786  1.8261
  639MOL0     H86201   2.685   7.249  10.022  2.0054  1.1879 -1.2290
  639MOL0     H86202   2.888   7.163   9.972 -5.4300 -0.5740 -2.2640
  639MOL0     H86203   2.895   7.214  10.142 -4.0709  2.1605 -0.9654
  639MOL0     H86204   2.852   6.977  10.204 -0.0194 -1.1613 -0.8859
  639MOL0     H86205   2.868   6.920  10.041  0.5911 -0.3096  0.7011
  639MOL0     H86206   3.092   7.029  10.026 -0.0576  1.6219  0.1878
  639MOL0     H86207   3.087   7.077  10.193  3.3433 -1.9348  0.4600
  639MOL0     H86208   3.086   6.788  10.092 -0.6122 -1.2775  1.8437
  639MOL0     H86209   3.232   6.881  10.161 -0.9793  1.2465 -1.3300
  639MOL0     H86210   3.134   6.886  10.389  1.5329  1.8620 -2.1067
  639MOL0     H86211   2.990   6.800  10.329 -0.0547 -1.4138  0.7285
  639MOL0     H86212   3.248   6.665  10.314 -1.4321  0.3378 -0.6196
  639MOL0     H86213   3.150   6.649  10.450  0.8498 -0.4490  0.0182
  639MOL0     H86214   3.119   6.471  10.271 -2.8696 -1.9418  0.0788
  639MOL0     H86215   3.029   6.584  10.178  3.0015  1.6593 -0.8738
  639MOL0     H86216   3.016   6.448  10.550  1.2298  3.2150  1.8488
  639MOL0     H86217   2.824   6.523  10.741  1.3626  0.4121  0.1736
  639MOL0     H86218   2.656   6.516  10.703  1.6693  1.4304  3.4502
  639MOL0     H86219   2.665   6.316  10.780 -2.4136  1.3282 -2.1017
  639MOL0     H86220   2.830   6.280  10.745 -0.4215 -0.1661  0.2681
  639MOL0     H86221   2.756   6.233  10.503  0.1796 -0.4935 -0.1810
  639MOL0     H86222   2.603   6.318  10.536 -0.2070  0.6485  2.8636
  639MOL0     H86223   2.702   6.088  10.702 -0.2776  0.4989  0.4106
  639MOL0     H86224   2.631   6.044  10.549  2.7575  2.2303 -0.6206
  639MOL0     H86225   2.331   5.964  10.793  2.2501  2.7184  1.8053
  639MOL0     H86226   2.192   5.810  10.810 -2.6682 -0.7796  0.9546
  639MOL0     H86227   2.039   5.841  10.728 -0.8625  1.3650 -0.6408
  639MOL0     H86228   2.158   5.723  10.667  3.5149 -1.1437  2.3275
  639MOL0     H86229   1.861   6.024  10.121 -0.0379 -0.8361 -2.1186
  639MOL0     H86230   1.761   5.918   9.947  0.7188  1.8092 -0.6333
  639MOL0     H86231   1.941   5.529   9.819  0.3851 -1.3106  0.6326
  639MOL0     H86232   1.797   5.478   9.910 -1.2290  0.6061 -0.4898
  639MOL0     H86233   1.658   5.527   9.685  0.0951  3.1645 -1.1347
  639MOL0     H86234   1.805   5.578   9.610  1.1073  0.1630  1.4581
  639MOL0     H86235   1.865   5.360   9.547 -0.8008  1.2989  0.0361
  639MOL0     H86236   1.698   5.316   9.588  0.3053  2.0274 -2.1665
  639MOL0     H86237   1.926   5.254   9.778  1.3462 -0.1498 -2.1493
  639MOL0     H86238   1.751   5.259   9.807  1.3059 -0.4788  0.7026
  639MOL0     H86239   1.887   5.096   9.588  3.8857  3.9098  0.8331
  639MOL0     H86240   1.711   5.093   9.643  0.2930 -3.1336  1.6542
  639MOL0     H86241   1.954   5.030   9.793  1.3697 -0.8145 -1.7959
  639MOL0     H86242   1.791   5.012   9.864  1.7293 -2.1104  0.4392
  639MOL0     H86243   1.756   4.860   9.655  0.4970 -0.6445  1.0826
  639MOL0     H86244   1.827   4.797   9.800  1.7721 -1.6901 -1.3135
  639MOL0     H86245   2.058   4.829   9.717  0.0981  1.9525 -1.4685
  639MOL0     H86246   1.986   4.879   9.558  0.8359 -0.7971 -0.4864
  639MOL0     H86247   1.968   5.549  10.040 -1.5584  0.6608 -2.7319
  639MOL0     H86248   2.082   5.647  10.208 -0.2061  1.6825  1.0336
  639MOL0     H86249   2.269   6.059  10.314 -3.2875 -1.5415  0.5764
  639MOL0     H86250   2.455   6.173  10.446  0.3483 -0.6690 -0.2750
  639MOL0     H86251   2.602   6.892  10.100  1.4912  1.2052  0.3760
  639MOL0     H86252   2.370   6.766  10.132 -5.1408 -1.0697  2.1125
  639MOL0     H86253   1.992   6.715  10.309 -0.2801  0.6657 -0.5729
  639MOL0     H86254   1.811   6.574  10.312 -4.8302 -0.9390 -1.2765
  639MOL0     H86255   1.754   6.373  10.190 -0.0011 -0.7662  1.0556
  639MOL0     H86256   1.582   6.346  10.172 -0.2398  1.5119  2.4535
  639MOL0     H86257   1.715   6.239   9.974 -0.0404  0.9359  0.2184
  639MOL0     H86258   1.772   6.393   9.927  0.3925 -1.4904  1.4592
  639MOL0     H86259   1.576   6.377   9.773  1.3294  1.7929 -0.1595
  639MOL0     H86260   1.500   6.447   9.914  0.1112  0.9059  0.2721
  639MOL0     H86261   1.369   6.273   9.860  0.8308  1.1720  1.0678
  639MOL0     H86262   1.456   6.217  10.006  0.9241 -2.8111 -1.0729
  639MOL0     H86263   1.620   5.942   9.730 -0.7001 -2.1037  3.5893
  639MOL0     H86264   1.672   6.702   9.929  0.0079  0.8141 -0.2855
  639MOL0     H86265   1.883   6.838   9.901  2.5805 -0.6202 -0.5072
  640MOL0     O86266  10.548  10.577  10.663 -0.0374 -0.9926 -0.4230
  640MOL0     C86267  10.603  10.661  10.741 -0.1934  0.8759  0.5733
  640MOL0     O86268  10.564  10.688  10.873 -0.6708  0.3520 -0.1975
  640MOL0     C86269  10.487  10.598  10.935  0.0763 -0.6158  0.4615
  640MOL0     C86270  10.538  10.519  11.032  0.0017 -0.1788  1.0005
  640MOL0     C86271  10.458  10.426  11.094  0.3853 -0.8289 -0.9528
  640MOL0     C86272  10.316  10.422  11.062 -0.5855 -0.8754 -0.0912
  640MOL0     O86273  10.236  10.336  11.127 -0.1169  0.3063  0.8743
  640MOL0     C86274  10.290  10.219  11.187  0.2298  0.4253 -0.3478
  640MOL0     C86275  10.184  10.105  11.191  0.1501 -0.5365 -0.3162
  640MOL0     C86276  10.040  10.153  11.240  0.3742 -0.4018 -0.6247
  640MOL0     C86277   9.943  10.038  11.254 -0.0324  0.4923 -0.5961
  640MOL0     C86278   9.804  10.094  11.288  0.2109  0.2353  0.7435
  640MOL0     C86279   9.698   9.985  11.252 -0.6175 -0.3608 -0.0438
  640MOL0     C86280   9.558  10.031  11.274 -0.5215  0.1177 -0.2459
  640MOL0     C86281   9.501  10.063  11.413  0.7192  0.3414 -0.8441
  640MOL0     N86282   9.465   9.945  11.497 -0.1184  0.3040  0.5969
  640MOL0     C86283   9.345   9.883  11.501 -0.0898 -0.4195 -0.2462
  640MOL0     C86284   9.360   9.792  11.603 -0.2080 -0.1981 -1.1589
  640MOL0     C86285   9.241   9.701  11.655 -0.9409  0.8610  0.5316
  640MOL0     C86286   9.198   9.739  11.798 -0.7627  0.3798  0.7918
  640MOL0     C86287   9.299   9.686  11.897  0.0636 -0.4384  0.0984
  640MOL0     C86288   9.280   9.749  12.031 -0.5780  0.3138 -0.5633
  640MOL0     O86289   9.148   9.735  12.089  0.7503  0.4301 -0.0689
  640MOL0     C86290   9.118   9.818  12.191 -0.3187  0.2522  0.0415
  640MOL0     C86291   9.173   9.799  12.314  0.2202 -0.9207 -0.7381
  640MOL0     C86292   9.135   9.870  12.427  0.0673  0.4980 -0.3866
  640MOL0     C86293   9.195   9.825  12.553  0.5815 -0.4854  0.5394
  640MOL0     C86294   9.034   9.975  12.413 -0.0667  0.4065 -0.0056
  640MOL0     C86295   8.989  10.049  12.525 -0.3980  0.2261 -0.0520
  640MOL0     O86296   9.071  10.059  12.642  0.1205  0.9894  0.3944
  640MOL0     C86297   9.007  10.136  12.743 -0.0323 -0.0606  0.8841
  640MOL0     C86298   8.877  10.123  12.788 -0.9199  0.3722  0.1288
  640MOL0     C86299   8.826  10.223  12.863 -0.0874 -0.4407 -0.1866
  640MOL0     C86300   8.899  10.331  12.924 -0.0242 -0.5837 -0.2973
  640MOL0     O86301   8.853  10.441  12.999 -0.1793 -0.0812  0.5065
  640MOL0     C86302   8.711  10.454  13.024  0.1250  0.9659  0.0838
  640MOL0     C86303   8.680  10.573  13.130  0.3277  0.2203 -0.0170
  640MOL0     C86304   8.701  10.706  13.050  0.3340 -0.1753  1.0273
  640MOL0     C86305   8.563  10.744  12.981  0.2373  0.5414 -0.2144
  640MOL0     C86306   8.586  10.842  12.859  0.1738 -0.1439 -0.5983
  640MOL0     C86307   8.461  10.901  12.788 -0.2019 -0.5473 -0.1943
  640MOL0     C86308   8.476  10.995  12.665 -0.4022 -0.0179  0.1155
  640MOL0     C86309   8.486  11.145  12.702  0.1739 -0.0324 -0.1050
  640MOL0    Cl86310   8.325  11.204  12.773 -0.4597 -0.1910  0.2228
  640MOL0     C86311   9.027  10.339  12.888  0.5704 -0.3919 -0.2769
  640MOL0     C86312   9.078  10.243  12.791  0.3041  0.0783  0.0173
  640MOL0     O86313   8.892  10.111  12.511  0.6361  0.2287  0.0664
  640MOL0     C86314   8.990  10.000  12.279  0.3694  0.8146  0.5153
  640MOL0     C86315   9.035   9.927  12.171  0.0251 -0.1870 -0.0010
  640MOL0     N86316   9.496   9.798  11.639 -0.3504  0.6938  0.0395
  640MOL0     N86317   9.563   9.883  11.565 -0.0419 -0.1468  0.2213
  640MOL0     C86318  10.267  10.512  10.974 -0.3949  0.0708 -0.2874
  640MOL0     C86319  10.352  10.601  10.918  0.0091 -0.9249 -0.2236
  640MOL0     C86320  10.709  10.743  10.694  0.4634  0.4768  0.8976
  640MOL0     C86321  10.703  10.798  10.558  1.2109  1.8152 -0.3224
  640MOL0     C86322  10.803  10.884  10.513  0.4748  0.2649  0.4213
  640MOL0     C86323  10.906  10.920  10.600  0.0876  0.5494 -0.0781
  640MOL0     O86324  10.991  11.005  10.533  0.2435 -0.5294  0.4122
  640MOL0     C86325  11.097  11.074  10.606 -0.0553  0.3283 -0.3398
  640MOL0     C86326  11.039  11.157  10.726  0.1046 -0.3914  0.0201
  640MOL0     C86327  11.055  11.301  10.701  0.8929  0.2803  0.4534
  640MOL0     C86328  10.947  11.362  10.615  0.9813  0.0944  0.8927
  640MOL0     C86329  10.959  11.503  10.579  1.8444 -0.2868 -0.3306
  640MOL0     C86330  10.954  11.625  10.549  0.1282  0.2217  0.9341
  640MOL0     C86331  10.913  10.869  10.734 -0.1583 -0.4893 -0.3913
  640MOL0     C86332  10.814  10.783  10.781 -0.1647  0.2937  1.4015
  640MOL0     H86333  10.645  10.525  11.044  0.5413 -1.3142 -2.1942
  640MOL0     H86334  10.504  10.378  11.180  0.7873 -1.6109 -1.5878
  640MOL0     H86335  10.376  10.178  11.132  0.9561  0.6032  0.6246
  640MOL0     H86336  10.319  10.251  11.288 -1.4404  3.3006 -0.6752
  640MOL0     H86337  10.179  10.050  11.097  1.3058  1.6197 -1.7242
  640MOL0     H86338  10.216  10.037  11.270  3.8188  0.0206 -1.1685
  640MOL0     H86339  10.048  10.207  11.334  1.7565 -3.4257  1.1567
  640MOL0     H86340   9.984  10.214  11.168 -4.6641 -3.4953  0.2210
  640MOL0     H86341   9.951   9.968  11.171 -0.7501 -0.8887  0.4611
  640MOL0     H86342   9.969   9.970  11.335  1.4145  2.4537  0.6786
  640MOL0     H86343   9.805  10.106  11.397  0.1408 -1.3737  0.9564
  640MOL0     H86344   9.776  10.179  11.226  0.5562  2.0531  2.9607
  640MOL0     H86345   9.725   9.947  11.153  1.9429  0.8283  0.1121
  640MOL0     H86346   9.711   9.894  11.311  1.9862  0.0207  0.1017
  640MOL0     H86347   9.558  10.120  11.210  0.2081 -1.6251 -2.8472
  640MOL0     H86348   9.482   9.971  11.223 -0.8309  1.9827 -2.0852
  640MOL0     H86349   9.410  10.122  11.399  0.6884  1.1409  2.1293
  640MOL0     H86350   9.569  10.124  11.473 -1.0547  0.7248  0.8843
  640MOL0     H86351   9.257   9.909  11.444  2.3368  5.3771 -1.9935
  640MOL0     H86352   9.157   9.719  11.587 -0.4102  0.4900 -0.2404
  640MOL0     H86353   9.263   9.594  11.648 -0.3434  0.8711  1.9203
  640MOL0     H86354   9.100   9.693  11.816 -1.2878  0.4915 -1.4730
  640MOL0     H86355   9.182   9.847  11.805 -2.7802  0.0725  1.9850
  640MOL0     H86356   9.402   9.700  11.866 -0.0139 -0.8222 -0.3469
  640MOL0     H86357   9.295   9.576  11.897 -0.3941 -0.4250 -0.1281
  640MOL0     H86358   9.310   9.853  12.016  0.1240  0.4495  1.4255
  640MOL0     H86359   9.356   9.696  12.090 -0.9157 -0.2387 -0.6112
  640MOL0     H86360   9.232   9.708  12.319  0.8341 -0.5066 -0.2198
  640MOL0     H86361   9.275   9.897  12.576  0.6174 -0.2341 -0.3132
  640MOL0     H86362   9.124   9.828  12.635 -1.5169  0.4620 -1.2193
  640MOL0     H86363   9.233   9.726  12.526  1.3867  0.4590 -2.0873
  640MOL0     H86364   8.821  10.036  12.754  0.9159 -0.4940 -0.8049
  640MOL0     H86365   8.720  10.217  12.887 -0.0064 -1.4492 -0.0517
  640MOL0     H86366   8.647  10.475  12.938 -0.5998  2.4403  0.9430
  640MOL0     H86367   8.669  10.363  13.068  1.3497  0.4234  0.1580
  640MOL0     H86368   8.575  10.574  13.158 -0.6085  1.0935 -3.1460
  640MOL0     H86369   8.744  10.563  13.218 -0.2648  1.6673  0.6019
  640MOL0     H86370   8.784  10.694  12.980 -0.0805  0.6896  0.3660
  640MOL0     H86371   8.731  10.782  13.122  2.4722  1.2362 -1.2101
  640MOL0     H86372   8.516  10.657  12.933 -2.7818 -0.3446  3.8438
  640MOL0     H86373   8.498  10.796  13.052 -3.0970 -1.3396 -1.6657
  640MOL0     H86374   8.646  10.791  12.784  2.7494  1.1136  0.4831
  640MOL0     H86375   8.657  10.922  12.881 -0.0612 -0.3798  1.1672
  640MOL0     H86376   8.409  10.811  12.756 -3.2911  0.3107  1.9324
  640MOL0     H86377   8.386  10.948  12.853 -1.6964  1.7139 -3.3079
  640MOL0     H86378   8.400  10.977  12.589  1.4123 -1.6760 -1.3775
  640MOL0     H86379   8.565  10.960  12.614 -0.8312 -2.9389  1.1645
  640MOL0     H86380   8.514  11.204  12.614 -2.2591  0.4888 -0.6231
  640MOL0     H86381   8.558  11.152  12.784 -0.7296 -3.2087  1.1048
  640MOL0     H86382   9.085  10.425  12.924 -1.2434  0.0600  1.7612
  640MOL0     H86383   9.180  10.252  12.756  1.4684 -1.9002  2.4977
  640MOL0     H86384   8.907  10.063  12.250  0.7557  0.0641 -2.4971
  640MOL0     H86385   8.984   9.943  12.076 -0.9209  1.4342  0.7500
  640MOL0     H86386  10.161  10.510  10.952 -0.0093  1.1239 -2.5069
  640MOL0     H86387  10.308  10.681  10.858 -0.8589 -1.3410 -0.1682
  640MOL0     H86388  10.618  10.784  10.490 -0.4237 -1.4386  2.1000
  640MOL0     H86389  10.800  10.921  10.411  0.1328 -1.1970 -0.1185
  640MOL0     H86390  11.169  11.001  10.644 -2.0006 -2.1763 -1.1422
  640MOL0     H86391  11.160  11.125  10.533  0.1014 -2.5428 -2.4149
  640MOL0     H86392  11.085  11.120  10.819 -0.2538  0.1579  0.4228
  640MOL0     H86393  10.931  11.153  10.739  0.1161  2.2116  1.5311
  640MOL0     H86394  11.158  11.302  10.664  0.8746  1.7163  0.3856
  640MOL0     H86395  11.056  11.354  10.797  3.3521 -0.6395  1.0262
  640MOL0     H86396  10.850  11.340  10.661  2.7088 -6.1211  2.5698
  640MOL0     H86397  10.955  11.305  10.522  0.0199 -1.6315  1.8223
  640MOL0     H86398  10.937  11.729  10.531 -0.6887 -0.1107 -0.3998
  640MOL0     H86399  10.995  10.903  10.798 -0.5374 -4.4488  2.6376
  640MOL0     H86400  10.820  10.739  10.881  0.7586 -3.9077 -0.2669
  641MOL0     O86401   0.426   4.257   2.602 -0.2012  0.5435  0.4755
  641MOL0     C86402   0.372   4.320   2.511 -1.2955  1.1515 -0.3318
  641MOL0     O86403   0.261   4.285   2.443  0.9892  0.3455 -0.7793
  641MOL0     C86404   0.240   4.151   2.412  0.9285 -1.2493  0.0676
  641MOL0     C86405   0.111   4.122   2.366 -0.7388  0.6759  0.3227
  641MOL0     C86406   0.075   3.998   2.317  0.1619  0.6082 -0.5103
  641MOL0     C86407   0.169   3.898   2.328  0.1832 -0.0177  0.4158
  641MOL0     O86408   0.131   3.769   2.298  0.0166 -0.4001  0.5080
  641MOL0     C86409  -0.001   3.719   2.316 -0.2678 -0.6654  0.2814
  641MOL0     C86410  -0.009   3.581   2.377  0.0400  0.2414  0.0209
  641MOL0     C86411  -0.124   3.497   2.332 -0.5328  0.3490  1.1589
  641MOL0     C86412  -0.148   3.384   2.442 -0.5265  0.2862  0.4735
  641MOL0     C86413  -0.238   3.267   2.394  0.4541 -0.7863  0.7293
  641MOL0     C86414  -0.281   3.187   2.511 -0.2493 -0.6592 -0.4976
  641MOL0     C86415  -0.167   3.116   2.592  1.6929 -1.3496  0.6952
  641MOL0     C86416  -0.038   3.072   2.517 -1.0941  0.6549 -0.6430
  641MOL0     N86417  -0.047   2.954   2.429 -0.2001  0.3720 -0.0810
  641MOL0     C86418   0.046   2.852   2.439  0.3837  0.5114 -0.4592
  641MOL0     C86419   0.012   2.777   2.336  0.2841  0.0030 -0.4666
  641MOL0     C86420   0.093   2.671   2.287  0.2668  0.8522  0.1177
  641MOL0     C86421   0.027   2.579   2.190 -0.1535  0.0504 -0.5322
  641MOL0     C86422   0.126   2.470   2.132  0.5015  0.7487 -0.2895
  641MOL0     C86423   0.052   2.392   2.016 -0.3574 -0.1311  0.5322
  641MOL0     O86424  -0.070   2.340   2.056  0.4881  0.2620 -0.3926
  641MOL0     C86425  -0.101   2.217   1.999  1.3905 -0.5361  0.7771
  641MOL0     C86426  -0.213   2.162   2.054 -0.4869 -0.3327 -0.4819
  641MOL0     C86427  -0.280   2.050   2.011 -0.5270  0.1514  0.0175
  641MOL0     C86428  -0.394   1.992   2.094 -0.3375 -0.2920  0.4817
  641MOL0     C86429  -0.227   1.979   1.903 -0.4115 -0.3930  0.2699
  641MOL0     C86430  -0.292   1.862   1.845 -0.1565 -0.9205 -0.3394
  641MOL0     O86431  -0.369   1.789   1.924  0.3162  0.0769  0.3741
  641MOL0     C86432  -0.422   1.670   1.890  0.6692 -0.4310 -0.2635
  641MOL0     C86433  -0.553   1.650   1.917  0.0114 -0.3627  0.0343
  641MOL0     C86434  -0.619   1.536   1.883 -0.4551  0.1011 -0.4636
  641MOL0     C86435  -0.550   1.427   1.815  0.2976  0.3385  0.1936
  641MOL0     O86436  -0.600   1.313   1.754  0.3083 -0.5098 -0.5601
  641MOL0     C86437  -0.748   1.305   1.765 -0.8627 -0.1256 -0.0184
  641MOL0     C86438  -0.790   1.180   1.689 -0.1039  0.1217 -0.3331
  641MOL0     C86439  -0.937   1.143   1.714  0.1130  0.2033 -0.6585
  641MOL0     C86440  -0.963   1.012   1.652  0.4102  0.4377  0.0928
  641MOL0     C86441  -1.101   0.951   1.684  0.3537  0.7358  0.3614
  641MOL0     C86442  -1.232   1.032   1.686  1.0131  0.3720 -0.7054
  641MOL0     C86443  -1.334   0.958   1.773  0.0737 -1.1873 -0.1500
  641MOL0     C86444  -1.453   1.051   1.783  0.2569  0.1908 -0.6523
  641MOL0    Cl86445  -1.590   0.970   1.864  0.0855  0.3562 -0.1847
  641MOL0     C86446  -0.414   1.445   1.797 -0.2176 -0.4101  0.3239
  641MOL0     C86447  -0.350   1.564   1.842  0.1854  0.4227  0.4810
  641MOL0     O86448  -0.262   1.836   1.729  0.0199 -0.1914 -0.5223
  641MOL0     C86449  -0.112   2.026   1.839 -0.4985 -0.9581 -0.4105
  641MOL0     C86450  -0.052   2.150   1.887 -0.1823  0.3268  0.0616
  641MOL0     N86451  -0.086   2.840   2.262  0.3085  0.1235 -0.0256
  641MOL0     N86452  -0.126   2.945   2.316 -0.4092 -0.5132  0.5115
  641MOL0     C86453   0.305   3.925   2.377  0.0012  0.8857 -0.2338
  641MOL0     C86454   0.338   4.055   2.416 -1.1090  0.3845  0.1155
  641MOL0     C86455   0.424   4.447   2.475  0.2723  0.7406  0.3862
  641MOL0     C86456   0.391   4.503   2.349 -0.0412  0.9715  0.5246
  641MOL0     C86457   0.431   4.638   2.320 -0.0647 -0.7902  0.7396
  641MOL0     C86458   0.512   4.706   2.401  0.9602  0.2994 -0.2031
  641MOL0     O86459   0.563   4.826   2.364  0.1354  0.5110  0.4442
  641MOL0     C86460   0.520   4.949   2.441 -1.2429  1.1288  0.3710
  641MOL0     C86461   0.549   5.062   2.341  0.9590 -0.5375 -0.0459
  641MOL0     C86462   0.520   5.191   2.413  0.9171 -0.4666 -0.1010
  641MOL0     C86463   0.536   5.221   2.561 -0.1392  0.7621 -0.1540
  641MOL0     C86464   0.483   5.345   2.612 -0.9656 -0.3561  0.7904
  641MOL0     C86465   0.457   5.459   2.641  0.9693 -0.9462 -0.7316
  641MOL0     C86466   0.566   4.644   2.515 -0.0825 -0.7510  0.4483
  641MOL0     C86467   0.520   4.520   2.549 -0.0312  0.4052 -0.6878
  641MOL0     H86468   0.033   4.194   2.347 -0.1146  1.7246  1.5945
  641MOL0     H86469  -0.028   3.978   2.291  0.5517 -1.5237 -0.6153
  641MOL0     H86470  -0.040   3.797   2.383  2.1418  2.0824 -1.2616
  641MOL0     H86471  -0.061   3.721   2.225 -0.2952  0.8789  0.3025
  641MOL0     H86472   0.082   3.527   2.348 -1.6425 -0.4277 -5.0456
  641MOL0     H86473  -0.012   3.579   2.486  0.7600 -3.1612  0.0710
  641MOL0     H86474  -0.216   3.556   2.323 -3.5260 -3.9269  0.4901
  641MOL0     H86475  -0.100   3.467   2.230  2.0661 -1.6520  2.2519
  641MOL0     H86476  -0.050   3.343   2.470 -1.4817 -1.4100  1.4833
  641MOL0     H86477  -0.192   3.436   2.528 -1.7806 -0.2075  0.1490
  641MOL0     H86478  -0.328   3.298   2.340  0.3328 -4.2959 -1.3983
  641MOL0     H86479  -0.193   3.206   2.315  3.0656 -0.5519  1.9439
  641MOL0     H86480  -0.350   3.240   2.578  0.4950 -1.3644  0.8711
  641MOL0     H86481  -0.335   3.103   2.465 -0.0471 -0.5406 -0.9600
  641MOL0     H86482  -0.144   3.191   2.668 -0.2334 -2.1600  2.1273
  641MOL0     H86483  -0.201   3.028   2.646 -2.9349 -0.5647 -0.5139
  641MOL0     H86484   0.030   3.043   2.597 -2.1371  1.1838  0.4661
  641MOL0     H86485   0.003   3.149   2.451  1.1477  0.8295  0.8456
  641MOL0     H86486   0.120   2.843   2.518 -0.1976  1.2384  0.1891
  641MOL0     H86487   0.188   2.709   2.249  2.8274  0.3628  5.2110
  641MOL0     H86488   0.137   2.608   2.365  3.7187  1.5132 -1.1118
  641MOL0     H86489  -0.026   2.624   2.105 -0.1281 -2.8558 -2.1932
  641MOL0     H86490  -0.051   2.537   2.254 -2.8550  2.5107 -1.9129
  641MOL0     H86491   0.146   2.393   2.208  2.8825  0.0360 -1.5794
  641MOL0     H86492   0.219   2.508   2.090  0.8409  1.4111  0.9879
  641MOL0     H86493   0.120   2.316   1.976  0.2079  1.4551 -1.6972
  641MOL0     H86494   0.034   2.453   1.927  3.1949 -1.1025 -1.0628
  641MOL0     H86495  -0.263   2.219   2.132 -0.4729 -1.4858  0.3948
  641MOL0     H86496  -0.418   2.072   2.164 -1.3253 -0.1501  0.0070
  641MOL0     H86497  -0.484   1.964   2.038  0.0132 -1.9778  0.7000
  641MOL0     H86498  -0.371   1.897   2.144  0.8139 -0.9145 -1.1456
  641MOL0     H86499  -0.608   1.740   1.944 -1.2367 -1.2216  0.4723
  641MOL0     H86500  -0.727   1.540   1.896 -0.3815 -3.1559  2.4939
  641MOL0     H86501  -0.768   1.291   1.872  1.9267  2.1520  0.9320
  641MOL0     H86502  -0.784   1.404   1.734  2.4416  0.5890 -2.1108
  641MOL0     H86503  -0.772   1.199   1.583  0.6905 -0.9629 -0.4148
  641MOL0     H86504  -0.722   1.100   1.720 -0.8068 -0.3842 -0.0413
  641MOL0     H86505  -1.015   1.205   1.669  0.5872  0.6133 -0.9235
  641MOL0     H86506  -0.957   1.130   1.820  0.0220 -0.1721 -0.7207
  641MOL0     H86507  -0.967   1.017   1.543 -2.9327 -0.2171  0.0970
  641MOL0     H86508  -0.882   0.946   1.684  1.5915  1.9866  0.4447
  641MOL0     H86509  -1.096   0.915   1.787  0.9416  3.3907  1.3491
  641MOL0     H86510  -1.110   0.870   1.611  0.6818 -0.2305  1.3662
  641MOL0     H86511  -1.213   1.134   1.719  3.4751  0.9412 -3.4557
  641MOL0     H86512  -1.276   1.028   1.585 -0.2079  1.4308 -0.2341
  641MOL0     H86513  -1.296   0.944   1.874 -0.9532 -1.1881  0.2566
  641MOL0     H86514  -1.361   0.858   1.737 -0.4622  0.1976 -4.0838
  641MOL0     H86515  -1.494   1.085   1.687 -2.6124  3.0293  1.3443
  641MOL0     H86516  -1.410   1.134   1.841  1.3375  1.3369 -2.9446
  641MOL0     H86517  -0.352   1.368   1.753  0.0215  0.5980 -1.1668
  641MOL0     H86518  -0.243   1.579   1.826  0.1341  1.5832  1.1429
  641MOL0     H86519  -0.088   1.979   1.744 -0.8089 -0.0646 -0.9398
  641MOL0     H86520  -0.002   2.209   1.810  1.0110 -2.2808 -1.3016
  641MOL0     H86521   0.373   3.841   2.368  0.9272  1.7584 -1.7452
  641MOL0     H86522   0.443   4.068   2.439  0.2148 -3.2010 -2.8364
  641MOL0     H86523   0.331   4.442   2.283  2.8790 -0.9967 -0.4833
  641MOL0     H86524   0.406   4.672   2.220 -0.5577 -2.2521  0.3471
  641MOL0     H86525   0.413   4.947   2.464 -1.4170  2.4519 -0.2232
  641MOL0     H86526   0.574   4.966   2.535 -2.5846  1.8827  1.0481
  641MOL0     H86527   0.478   5.054   2.259  0.4649  2.1312  0.0407
  641MOL0     H86528   0.650   5.067   2.300  1.0680  2.4590  0.3554
  641MOL0     H86529   0.415   5.220   2.399  0.7750 -0.4373  0.9116
  641MOL0     H86530   0.554   5.265   2.340 -0.6724 -0.6052 -1.0301
  641MOL0     H86531   0.644   5.223   2.576  0.5474 -2.7686 -3.1792
  641MOL0     H86532   0.473   5.149   2.614 -2.1971  2.5386 -0.0294
  641MOL0     H86533   0.422   5.555   2.674  0.7228 -0.5776 -2.0253
  641MOL0     H86534   0.645   4.691   2.573  2.7993 -3.2134 -1.1572
  641MOL0     H86535   0.552   4.471   2.640  1.6084  0.7089 -1.0812
  642MOL0     O86536   5.738   1.585   6.661  0.2755 -0.4728 -0.0418
  642MOL0     C86537   5.837   1.515   6.640 -0.2498 -0.4133  0.0636
  642MOL0     O86538   5.839   1.403   6.566 -0.7820 -0.1260 -0.6701
  642MOL0     C86539   5.717   1.342   6.539 -0.1748  0.3188  0.5378
  642MOL0     C86540   5.643   1.351   6.418  1.1301 -0.2447 -0.3582
  642MOL0     C86541   5.518   1.282   6.409  0.9520 -0.4523 -0.3351
  642MOL0     C86542   5.453   1.216   6.520 -2.0109 -0.5261  0.3285
  642MOL0     O86543   5.330   1.159   6.519 -0.6738  0.4127  0.7861
  642MOL0     C86544   5.285   1.097   6.403  0.5843 -1.1266 -0.5774
  642MOL0     C86545   5.166   1.010   6.444 -1.1618  0.3136  0.0902
  642MOL0     C86546   5.199   0.913   6.556 -0.8043  0.3636 -0.1192
  642MOL0     C86547   5.082   0.836   6.593  0.1607 -0.0134 -0.2728
  642MOL0     C86548   5.107   0.739   6.705 -0.3617 -0.0355 -0.1761
  642MOL0     C86549   5.011   0.620   6.692  0.5754  0.4955  0.1187
  642MOL0     C86550   5.059   0.492   6.763  0.2778  0.4836  0.2536
  642MOL0     C86551   4.976   0.372   6.752  0.1778 -0.2079  0.6416
  642MOL0     N86552   5.035   0.265   6.825 -0.4704  0.7159 -0.3513
  642MOL0     C86553   5.037   0.268   6.958 -0.3990 -0.1136 -0.3545
  642MOL0     C86554   5.114   0.166   6.992  0.3320  0.3593 -0.4297
  642MOL0     C86555   5.156   0.153   7.138 -0.5004  0.0528 -1.2891
  642MOL0     C86556   5.050   0.075   7.222  0.2251  0.7711 -0.4773
  642MOL0     C86557   4.987  -0.060   7.159  0.5376  0.3200  0.1826
  642MOL0     C86558   5.098  -0.172   7.155 -0.5779  1.1432  0.2504
  642MOL0     O86559   5.039  -0.290   7.105 -0.6612  0.3326  0.4196
  642MOL0     C86560   5.015  -0.300   6.973 -0.3119  0.3078  0.2588
  642MOL0     C86561   5.045  -0.212   6.869  0.0219 -0.5695  0.2747
  642MOL0     C86562   4.997  -0.242   6.732 -0.3084 -0.1294  0.4370
  642MOL0     C86563   5.037  -0.132   6.632  0.5120  0.1188  0.4228
  642MOL0     C86564   4.915  -0.350   6.706  0.7698  0.0375  1.0942
  642MOL0     C86565   4.847  -0.382   6.571 -0.3436 -0.2057 -0.2702
  642MOL0     O86566   4.798  -0.504   6.551  0.0589  0.3526 -0.8811
  642MOL0     C86567   4.754  -0.562   6.436 -0.2473  0.5401 -0.0036
  642MOL0     C86568   4.728  -0.493   6.314 -0.4594 -0.1260 -0.5784
  642MOL0     C86569   4.680  -0.562   6.203  0.5040  0.1653  0.0608
  642MOL0     C86570   4.662  -0.695   6.200  0.5043 -1.1985  0.3372
  642MOL0     O86571   4.616  -0.751   6.082  0.7835  0.2685 -0.2452
  642MOL0     C86572   4.558  -0.884   6.075 -1.0315  0.2183  0.6647
  642MOL0     C86573   4.522  -0.928   5.929 -0.0607 -0.4708 -0.0211
  642MOL0     C86574   4.643  -0.952   5.851 -0.1954  0.4456 -0.2782
  642MOL0     C86575   4.616  -1.059   5.744  0.1769 -0.6057 -0.1855
  642MOL0     C86576   4.706  -1.180   5.773  0.5486  0.1896 -0.6870
  642MOL0     C86577   4.687  -1.296   5.668 -0.2113 -0.0707 -0.2104
  642MOL0     C86578   4.553  -1.305   5.600 -0.0851 -0.7449 -0.3052
  642MOL0     C86579   4.541  -1.418   5.493  0.2920 -0.0306  0.5649
  642MOL0    Cl86580   4.628  -1.355   5.346  0.4722 -0.2962 -0.3016
  642MOL0     C86581   4.689  -0.767   6.318 -0.3623  0.4686 -1.0878
  642MOL0     C86582   4.729  -0.701   6.438 -0.3867  0.1239  0.0280
  642MOL0     O86583   4.844  -0.292   6.487 -0.3703  0.4515 -0.2361
  642MOL0     C86584   4.891  -0.439   6.816  0.4343 -0.0875 -0.2574
  642MOL0     C86585   4.922  -0.405   6.945 -0.8068  1.3555 -0.0201
  642MOL0     N86586   5.168   0.102   6.888 -0.2965 -0.4145  1.1168
  642MOL0     N86587   5.117   0.164   6.780  0.0851 -0.3430  0.2525
  642MOL0     C86588   5.530   1.219   6.638 -0.2908  0.8714  0.2701
  642MOL0     C86589   5.652   1.284   6.652  0.2985  0.1315 -0.6879
  642MOL0     C86590   5.954   1.537   6.714  0.1892  0.4514 -0.2060
  642MOL0     C86591   6.055   1.440   6.726  0.1007 -0.5400 -0.8990
  642MOL0     C86592   6.165   1.465   6.805 -0.1580  0.2736 -0.2343
  642MOL0     C86593   6.182   1.586   6.885  0.6489 -0.9378 -0.2351
  642MOL0     O86594   6.293   1.587   6.970  0.5665  0.6259 -0.4082
  642MOL0     C86595   6.385   1.697   6.963 -0.8316  0.7661 -0.4095
  642MOL0     C86596   6.524   1.659   7.019  0.7213  0.4853  0.6941
  642MOL0     C86597   6.613   1.551   6.941  0.0805  0.8118 -0.0215
  642MOL0     C86598   6.613   1.582   6.793  0.1083  0.5460  0.1970
  642MOL0     C86599   6.725   1.514   6.727 -0.2460 -0.0852 -0.1344
  642MOL0     C86600   6.808   1.448   6.665 -0.4529  0.3261  0.0855
  642MOL0     C86601   6.069   1.679   6.882 -1.3727  0.2377  0.7243
  642MOL0     C86602   5.963   1.646   6.792 -0.1108  0.1888 -0.3254
  642MOL0     H86603   5.681   1.411   6.336  0.1146  1.7648  0.5630
  642MOL0     H86604   5.456   1.291   6.320 -2.1665 -1.5835  1.5613
  642MOL0     H86605   5.256   1.171   6.327 -0.4810 -1.7876 -0.8430
  642MOL0     H86606   5.366   1.049   6.347  3.9156  2.7924  0.4217
  642MOL0     H86607   5.074   1.058   6.479 -0.9440 -0.2591  1.4976
  642MOL0     H86608   5.145   0.948   6.356  0.7186  1.7639 -1.4817
  642MOL0     H86609   5.277   0.842   6.527  2.6429  2.0089  4.0242
  642MOL0     H86610   5.230   0.961   6.649 -2.2995 -1.5901  1.4844
  642MOL0     H86611   4.993   0.894   6.620 -0.2622 -1.3508  1.3883
  642MOL0     H86612   5.053   0.786   6.500 -1.4386  1.4575 -0.6134
  642MOL0     H86613   5.211   0.708   6.695 -0.9188 -1.9641 -0.4652
  642MOL0     H86614   5.103   0.788   6.803 -2.4970 -0.8990  0.2462
  642MOL0     H86615   4.918   0.657   6.737  1.7422  0.3629  2.7780
  642MOL0     H86616   4.987   0.595   6.588 -1.3766 -0.0270  0.6384
  642MOL0     H86617   5.154   0.455   6.724 -0.3137  0.0474 -0.7944
  642MOL0     H86618   5.067   0.511   6.871 -3.3637 -1.5885  1.0574
  642MOL0     H86619   4.969   0.344   6.646 -1.5516 -0.0169  0.6821
  642MOL0     H86620   4.873   0.387   6.783 -0.6173  3.3536 -2.7595
  642MOL0     H86621   4.977   0.338   7.015  0.3162  1.8198 -1.8306
  642MOL0     H86622   5.252   0.099   7.139 -0.3910  0.1968  0.4215
  642MOL0     H86623   5.173   0.249   7.188  1.4274 -2.2586  3.0835
  642MOL0     H86624   4.973   0.150   7.238  0.2551  0.7547 -0.2531
  642MOL0     H86625   5.094   0.058   7.321 -3.4882 -2.5114  0.8597
  642MOL0     H86626   4.940  -0.032   7.065  2.5702  4.0817  0.1186
  642MOL0     H86627   4.908  -0.091   7.228  1.8650 -0.7534  1.3127
  642MOL0     H86628   5.139  -0.196   7.253  0.5261  1.1473 -0.1942
  642MOL0     H86629   5.178  -0.127   7.096 -0.6211  3.7436  1.9948
  642MOL0     H86630   5.121  -0.137   6.890  0.7172 -1.8346  2.6055
  642MOL0     H86631   5.049  -0.160   6.527  4.6246  0.8303  0.5612
  642MOL0     H86632   4.947  -0.069   6.633 -1.6565 -2.8039  0.5940
  642MOL0     H86633   5.125  -0.073   6.659 -0.6287  4.0071 -3.1527
  642MOL0     H86634   4.755  -0.389   6.299 -2.0940  0.2648 -0.9618
  642MOL0     H86635   4.662  -0.514   6.107 -1.5093 -0.9000 -0.1442
  642MOL0     H86636   4.612  -0.963   6.129 -2.0372 -1.8262 -1.1484
  642MOL0     H86637   4.467  -0.875   6.135 -2.3480 -0.9969 -1.0249
  642MOL0     H86638   4.477  -1.027   5.940 -1.4450 -0.0001 -1.1820
  642MOL0     H86639   4.446  -0.872   5.875 -1.4970 -1.0612  1.3032
  642MOL0     H86640   4.737  -0.979   5.900  1.5711  2.4912 -2.3274
  642MOL0     H86641   4.665  -0.860   5.796 -5.7355  1.6741 -1.0352
  642MOL0     H86642   4.511  -1.088   5.735  0.1012 -0.9329  1.5102
  642MOL0     H86643   4.650  -1.025   5.646 -0.7141  0.6512 -0.0771
  642MOL0     H86644   4.676  -1.220   5.871  1.2052 -0.1563 -0.6163
  642MOL0     H86645   4.814  -1.164   5.784  0.5776  0.3272 -1.1540
  642MOL0     H86646   4.771  -1.280   5.600  1.3307  2.9427  2.1180
  642MOL0     H86647   4.711  -1.386   5.725 -2.0396 -0.8394 -0.5781
  642MOL0     H86648   4.536  -1.211   5.545  0.4161 -0.6884 -0.3656
  642MOL0     H86649   4.482  -1.325   5.681  3.4854 -3.5880  2.4225
  642MOL0     H86650   4.438  -1.419   5.458  0.9957  1.4595 -1.8358
  642MOL0     H86651   4.569  -1.519   5.524  3.5449 -0.3793 -2.8074
  642MOL0     H86652   4.678  -0.875   6.311  0.3950  0.3019  0.1643
  642MOL0     H86653   4.753  -0.754   6.530 -0.1531 -0.3545 -0.3072
  642MOL0     H86654   4.828  -0.527   6.808  2.4667 -1.7205  1.0283
  642MOL0     H86655   4.908  -0.474   7.028  2.0942 -1.4664 -1.6469
  642MOL0     H86656   5.476   1.173   6.720 -3.7542 -1.4168 -2.9451
  642MOL0     H86657   5.705   1.277   6.747 -3.4307  3.0571  1.9064
  642MOL0     H86658   6.035   1.339   6.691  0.3789 -0.6180 -0.8425
  642MOL0     H86659   6.233   1.380   6.812 -0.6037  0.0748  2.8143
  642MOL0     H86660   6.395   1.744   6.865  1.4171  2.2207  0.4514
  642MOL0     H86661   6.347   1.783   7.020  0.1945  1.9825 -1.4973
  642MOL0     H86662   6.504   1.617   7.118 -0.4758  0.4075  0.4332
  642MOL0     H86663   6.589   1.745   7.036  0.2437  0.4311  3.0294
  642MOL0     H86664   6.579   1.447   6.950 -2.1430  1.3021 -1.8873
  642MOL0     H86665   6.713   1.551   6.986  0.8118  2.4932 -1.5564
  642MOL0     H86666   6.626   1.689   6.778 -4.1595  1.4746  1.6976
  642MOL0     H86667   6.515   1.556   6.751  1.4746 -2.8176 -1.3362
  642MOL0     H86668   6.883   1.391   6.614 -0.8032  0.8036 -0.9835
  642MOL0     H86669   6.056   1.766   6.946  0.6889 -0.5332  2.2967
  642MOL0     H86670   5.880   1.715   6.804 -1.6981 -2.0259  2.6598
  643MOL0     O86671   1.948   8.285   4.953 -1.2057  0.7878 -0.0701
  643MOL0     C86672   1.842   8.228   4.931  0.4045  0.6320 -0.6081
  643MOL0     O86673   1.767   8.157   5.022  0.4976  0.0994 -0.2798
  643MOL0     C86674   1.830   8.134   5.150  0.0841 -1.0347  0.2269
  643MOL0     C86675   1.820   8.005   5.195 -0.7557 -0.3636 -0.6703
  643MOL0     C86676   1.875   7.966   5.319 -0.2863 -0.1644 -0.7477
  643MOL0     C86677   1.937   8.061   5.398  0.1097 -0.7985 -0.4437
  643MOL0     O86678   1.988   8.035   5.523  0.1172 -0.4483  0.2358
  643MOL0     C86679   2.120   8.079   5.561  0.0679 -0.0406 -0.0441
  643MOL0     C86680   2.245   8.046   5.466 -0.4153 -0.1356  0.8204
  643MOL0     C86681   2.239   7.922   5.374 -0.4248  0.0732 -0.0642
  643MOL0     C86682   2.220   7.785   5.458 -0.1470 -0.4484 -0.5985
  643MOL0     C86683   2.232   7.674   5.356 -0.8763  0.6499  0.2676
  643MOL0     C86684   2.090   7.657   5.298  0.9559 -0.4124  0.5499
  643MOL0     C86685   2.071   7.528   5.225  0.7988 -0.8091  0.1668
  643MOL0     C86686   1.946   7.526   5.132 -0.4563 -0.8627  0.3624
  643MOL0     N86687   1.967   7.596   5.008  1.0376  0.2080 -0.2137
  643MOL0     C86688   2.072   7.648   4.932  0.4674  0.0136 -0.4460
  643MOL0     C86689   2.012   7.736   4.851  0.2523 -1.2951 -0.6246
  643MOL0     C86690   2.098   7.831   4.773  0.0037 -0.4173  1.4449
  643MOL0     C86691   2.007   7.923   4.677 -0.4277 -0.4224 -0.6298
  643MOL0     C86692   2.081   8.042   4.609 -0.3737  0.5291  0.4641
  643MOL0     C86693   2.184   7.983   4.507 -0.1872 -0.1240  0.3571
  643MOL0     O86694   2.204   8.087   4.415  0.1811 -0.5888  0.6406
  643MOL0     C86695   2.124   8.081   4.299 -0.3579 -0.1319  0.0460
  643MOL0     C86696   2.118   7.971   4.204 -0.6471  0.6124 -0.6912
  643MOL0     C86697   2.048   7.976   4.080  0.3114 -1.2418  0.7524
  643MOL0     C86698   2.056   7.854   4.001 -0.6730  0.9217  1.1479
  643MOL0     C86699   1.986   8.102   4.053  1.1049  0.6458 -0.4838
  643MOL0     C86700   1.895   8.106   3.942 -0.1864 -0.6752 -0.4525
  643MOL0     O86701   1.872   8.230   3.886 -0.0551  0.6688  0.1943
  643MOL0     C86702   1.795   8.247   3.776 -0.5152  0.3522  1.0324
  643MOL0     C86703   1.843   8.343   3.685 -0.7471 -0.9305 -0.2992
  643MOL0     C86704   1.783   8.357   3.563 -0.6280  0.3049  0.7355
  643MOL0     C86705   1.671   8.280   3.531  0.0728 -0.4499  0.8349
  643MOL0     O86706   1.595   8.291   3.415 -0.0481 -0.4043  0.1995
  643MOL0     C86707   1.622   8.413   3.345  0.1924 -0.0432 -0.3693
  643MOL0     C86708   1.532   8.445   3.223 -0.4559 -0.8509  0.0088
  643MOL0     C86709   1.606   8.499   3.105 -0.7438 -0.2382  0.0641
  643MOL0     C86710   1.495   8.523   2.988 -0.3552 -0.2639  0.0041
  643MOL0     C86711   1.578   8.562   2.871 -0.7551  0.5318 -0.0066
  643MOL0     C86712   1.492   8.613   2.755  0.2025  0.9759 -0.5112
  643MOL0     C86713   1.423   8.510   2.658  0.8536  0.0330  0.4357
  643MOL0     C86714   1.523   8.411   2.593  0.0802 -0.5806 -0.4787
  643MOL0    Cl86715   1.453   8.300   2.472  0.5061  0.6560  0.1098
  643MOL0     C86716   1.611   8.199   3.628 -0.5088 -1.6892  0.3240
  643MOL0     C86717   1.678   8.175   3.750 -0.0300 -0.1753  0.0108
  643MOL0     O86718   1.817   8.009   3.936 -1.4809  0.3517 -0.3620
  643MOL0     C86719   1.989   8.207   4.144 -0.8104 -0.2898 -0.2401
  643MOL0     C86720   2.067   8.201   4.265  0.6358 -0.3179 -0.2688
  643MOL0     N86721   1.875   7.741   4.873  0.4043  0.2339  1.2410
  643MOL0     N86722   1.847   7.651   4.960  0.4039 -0.1966  0.3040
  643MOL0     C86723   1.930   8.200   5.359  0.2164  0.6330  0.4489
  643MOL0     C86724   1.876   8.235   5.234 -0.0392 -1.4303 -0.5463
  643MOL0     C86725   1.790   8.240   4.791  1.4522  0.3935  0.1779
  643MOL0     C86726   1.723   8.123   4.743 -0.0392  0.5284  0.5706
  643MOL0     C86727   1.671   8.128   4.610 -0.4038 -0.3286  0.1185
  643MOL0     C86728   1.668   8.247   4.531 -0.3735  0.0416 -1.0918
  643MOL0     O86729   1.623   8.222   4.408 -0.2590  0.0027  0.6766
  643MOL0     C86730   1.628   8.337   4.317 -0.3558 -0.0620 -0.1153
  643MOL0     C86731   1.574   8.298   4.181 -0.3411 -0.0393  0.7329
  643MOL0     C86732   1.419   8.298   4.178 -0.7322  0.2116 -0.9288
  643MOL0     C86733   1.355   8.383   4.068 -0.5719  0.1261  0.3848
  643MOL0     C86734   1.273   8.297   3.979 -0.4194 -0.4101 -0.6260
  643MOL0     C86735   1.215   8.216   3.905  0.1122 -0.6500  1.7038
  643MOL0     C86736   1.742   8.358   4.583  0.3314  0.9315 -0.3163
  643MOL0     C86737   1.801   8.358   4.716 -0.9834  0.4036 -0.0027
  643MOL0     H86738   1.785   7.931   5.123 -0.4167 -0.8008 -0.3930
  643MOL0     H86739   1.898   7.867   5.355  3.3088  0.1578 -1.7650
  643MOL0     H86740   2.109   8.184   5.589 -0.9202  0.3049 -1.6255
  643MOL0     H86741   2.138   8.024   5.653  0.8817 -2.9199 -1.7874
  643MOL0     H86742   2.262   8.137   5.407 -2.1004  1.4305  2.5817
  643MOL0     H86743   2.332   8.040   5.531 -0.9114 -0.6367  1.4484
  643MOL0     H86744   2.157   7.935   5.303 -2.7637 -3.5762  1.6981
  643MOL0     H86745   2.336   7.925   5.325  0.9832 -1.3811  2.4502
  643MOL0     H86746   2.287   7.790   5.545 -0.6112  0.2634 -0.2812
  643MOL0     H86747   2.125   7.788   5.511 -0.3499 -2.7124 -0.7375
  643MOL0     H86748   2.314   7.693   5.287 -0.9571 -0.2777 -0.1009
  643MOL0     H86749   2.258   7.582   5.409  1.5681  0.4208 -1.1639
  643MOL0     H86750   2.016   7.655   5.379 -1.1509  0.2252 -1.2413
  643MOL0     H86751   2.058   7.745   5.242  0.5102  0.6629  2.4025
  643MOL0     H86752   2.153   7.502   5.159  0.7090  0.2910 -0.4069
  643MOL0     H86753   2.058   7.446   5.296 -1.4869 -1.6327 -1.1069
  643MOL0     H86754   1.863   7.570   5.187 -0.1941  1.1223 -0.7332
  643MOL0     H86755   1.918   7.423   5.105 -0.4858 -0.2999 -1.9187
  643MOL0     H86756   2.178   7.627   4.939  2.0249  6.4034  1.4865
  643MOL0     H86757   2.131   7.903   4.848 -0.2510  1.4442 -0.1370
  643MOL0     H86758   2.182   7.776   4.730 -1.6692 -2.7534  0.9780
  643MOL0     H86759   1.929   7.964   4.741 -0.4793  0.7023 -1.3784
  643MOL0     H86760   1.960   7.860   4.601  2.2837 -0.1436 -2.6973
  643MOL0     H86761   2.151   8.105   4.664  1.2831 -0.3674 -0.5251
  643MOL0     H86762   2.012   8.116   4.567  1.1076  0.8823 -1.5336
  643MOL0     H86763   2.147   7.900   4.446  0.9621  1.5408 -2.8538
  643MOL0     H86764   2.276   7.948   4.554 -1.6450  1.2462  4.7417
  643MOL0     H86765   2.158   7.875   4.232 -1.4032  0.8268  1.2712
  643MOL0     H86766   2.047   7.887   3.897 -0.9389  2.2101  1.5599
  643MOL0     H86767   2.152   7.806   4.022 -2.2809 -2.4288  1.5335
  643MOL0     H86768   1.980   7.779   4.029 -3.5595  2.8994 -0.7683
  643MOL0     H86769   1.930   8.398   3.719 -2.3500  2.7719 -1.6552
  643MOL0     H86770   1.823   8.437   3.502  1.9192 -2.0501 -0.9130
  643MOL0     H86771   1.611   8.492   3.419  1.5538  0.1735 -0.3866
  643MOL0     H86772   1.718   8.397   3.294 -1.3927 -1.4378 -3.2030
  643MOL0     H86773   1.475   8.353   3.205 -2.4731 -0.2718  2.7657
  643MOL0     H86774   1.457   8.518   3.256 -2.2087 -1.4787 -2.3685
  643MOL0     H86775   1.686   8.437   3.062  1.4737  3.5672 -1.8733
  643MOL0     H86776   1.653   8.595   3.130 -2.1932  0.5580 -0.1518
  643MOL0     H86777   1.440   8.430   2.974 -1.1670  0.5399 -2.5806
  643MOL0     H86778   1.427   8.606   3.011 -2.1083 -0.6990 -3.0998
  643MOL0     H86779   1.635   8.474   2.839 -0.9036  0.1639  0.7007
  643MOL0     H86780   1.657   8.632   2.898  1.3567 -1.2812 -1.1803
  643MOL0     H86781   1.411   8.673   2.795  2.3043  3.2540  0.5725
  643MOL0     H86782   1.557   8.679   2.697 -1.3914  1.9942 -1.1939
  643MOL0     H86783   1.376   8.569   2.578  0.4375 -1.7750 -0.6973
  643MOL0     H86784   1.349   8.451   2.712  0.0438  2.7795  2.5771
  643MOL0     H86785   1.554   8.344   2.674  1.1776  0.3479 -0.0928
  643MOL0     H86786   1.611   8.465   2.559  0.6645 -2.2896 -1.8002
  643MOL0     H86787   1.515   8.154   3.604 -0.5141 -0.3040 -2.6310
  643MOL0     H86788   1.632   8.105   3.820 -1.9892  2.9125  2.1101
  643MOL0     H86789   1.950   8.304   4.112 -2.4923 -0.9883 -0.3937
  643MOL0     H86790   2.080   8.283   4.334 -0.3388 -3.2983  3.8019
  643MOL0     H86791   1.973   8.267   5.432  1.2917  0.2683  0.1667
  643MOL0     H86792   1.884   8.342   5.217  1.9416 -1.2662  1.1002
  643MOL0     H86793   1.712   8.036   4.807  3.3415 -0.1813  0.3569
  643MOL0     H86794   1.652   8.031   4.565  3.6698 -1.0868 -0.2929
  643MOL0     H86795   1.578   8.429   4.351 -0.4579 -1.3404  3.7171
  643MOL0     H86796   1.734   8.359   4.302  0.4173 -1.9299  1.9281
  643MOL0     H86797   1.623   8.205   4.149  2.0068  1.6673 -0.9959
  643MOL0     H86798   1.610   8.377   4.115 -1.8893  1.8936  2.0963
  643MOL0     H86799   1.382   8.346   4.270 -0.5641  0.5931 -1.0604
  643MOL0     H86800   1.378   8.198   4.194  1.2243 -0.1011  3.6077
  643MOL0     H86801   1.427   8.433   4.002  0.2719  0.0328  1.2010
  643MOL0     H86802   1.292   8.456   4.118 -1.7586 -2.1300  2.3609
  643MOL0     H86803   1.160   8.148   3.845  1.1347  2.2279 -2.9573
  643MOL0     H86804   1.774   8.446   4.529 -0.3897  1.5599  0.2599
  643MOL0     H86805   1.838   8.451   4.757  0.4470 -0.4790  0.7711
  644MOL0     O86806   1.039   9.179   5.749  0.2745  0.1313  0.9744
  644MOL0     C86807   1.162   9.166   5.737  0.0316 -0.2959 -0.0281
  644MOL0     O86808   1.228   9.045   5.747  0.7468 -0.1913  0.0340
  644MOL0     C86809   1.161   8.924   5.772  0.2909 -0.1756  0.3056
  644MOL0     C86810   1.062   8.877   5.689 -0.1327  0.2250  0.9585
  644MOL0     C86811   1.005   8.753   5.708 -0.1075 -0.1923  0.9049
  644MOL0     C86812   1.057   8.673   5.811 -0.1336 -0.8277  0.8825
  644MOL0     O86813   1.022   8.545   5.828  0.3293 -0.5189  0.5476
  644MOL0     C86814   1.124   8.451   5.826 -0.8506  0.2912 -0.6077
  644MOL0     C86815   1.082   8.325   5.914 -0.2207  0.3635  0.1094
  644MOL0     C86816   0.994   8.255   5.815  0.7016  0.1810  0.3933
  644MOL0     C86817   0.883   8.179   5.899 -0.0426  0.9514  0.4236
  644MOL0     C86818   0.808   8.079   5.802  0.1188  0.0296 -0.1969
  644MOL0     C86819   0.661   8.036   5.845  0.3496 -0.3464 -0.0995
  644MOL0     C86820   0.645   7.955   5.978  0.1975  0.0558 -0.1986
  644MOL0     C86821   0.508   7.889   6.000  1.2304 -0.4797 -0.0701
  644MOL0     N86822   0.462   7.794   5.906  0.0168  0.5696 -0.4303
  644MOL0     C86823   0.481   7.655   5.932 -0.4473 -1.3729 -0.8550
  644MOL0     C86824   0.415   7.594   5.835  0.4265 -1.4194  0.2617
  644MOL0     C86825   0.431   7.449   5.821 -0.4956  0.0967  0.1131
  644MOL0     C86826   0.301   7.370   5.866  0.7576  0.2909  0.0383
  644MOL0     C86827   0.171   7.412   5.793  0.1033 -0.5332  0.1087
  644MOL0     C86828   0.169   7.394   5.637 -0.0782  1.2367  0.0377
  644MOL0     O86829   0.034   7.387   5.588 -0.3331 -0.5309 -0.5712
  644MOL0     C86830  -0.059   7.491   5.600 -0.0120 -0.1078 -0.3636
  644MOL0     C86831  -0.029   7.626   5.629  0.3007  0.1557 -0.1260
  644MOL0     C86832  -0.111   7.722   5.672  0.2512 -0.5320 -0.2231
  644MOL0     C86833  -0.051   7.861   5.713 -0.5628  0.0172  1.1150
  644MOL0     C86834  -0.255   7.694   5.671 -0.3058  0.6184 -0.1985
  644MOL0     C86835  -0.366   7.789   5.709 -0.0809  0.4114 -0.0629
  644MOL0     O86836  -0.493   7.741   5.706  0.0755  0.6828 -0.2123
  644MOL0     C86837  -0.588   7.807   5.774  0.2424 -0.3299 -0.1561
  644MOL0     C86838  -0.666   7.897   5.702 -0.3816 -0.6839  0.3168
  644MOL0     C86839  -0.777   7.963   5.760 -0.4105  1.1048  0.4946
  644MOL0     C86840  -0.795   7.948   5.896  0.2882  0.0958  0.7245
  644MOL0     O86841  -0.913   8.000   5.958  0.1546  0.2990  0.7455
  644MOL0     C86842  -0.987   8.071   5.867  0.2522 -0.7112 -0.3657
  644MOL0     C86843  -1.098   8.137   5.945 -0.0965  0.2769 -0.3465
  644MOL0     C86844  -1.205   8.035   5.985 -0.0337 -0.0883 -0.0918
  644MOL0     C86845  -1.341   8.099   6.010  0.6658  0.4357  0.8606
  644MOL0     C86846  -1.424   7.992   6.080  0.1757 -0.1587 -0.9898
  644MOL0     C86847  -1.561   8.045   6.133 -0.6805  0.2340  0.2239
  644MOL0     C86848  -1.541   8.177   6.211 -1.2162  0.1580 -0.7436
  644MOL0     C86849  -1.667   8.204   6.286  0.4416 -0.2443 -1.5843
  644MOL0    Cl86850  -1.683   8.111   6.443  0.0449  0.1986  0.0565
  644MOL0     C86851  -0.718   7.868   5.980  0.6265  1.1717  0.6152
  644MOL0     C86852  -0.601   7.793   5.914  0.7816  0.1696 -1.0457
  644MOL0     O86853  -0.335   7.903   5.734  0.1861  0.3120 -0.3001
  644MOL0     C86854  -0.298   7.556   5.629 -0.2542 -0.4801 -1.1549
  644MOL0     C86855  -0.200   7.461   5.584 -0.4375  1.3504 -0.1917
  644MOL0     N86856   0.383   7.696   5.745  0.4477  0.6437  1.1618
  644MOL0     N86857   0.401   7.819   5.790  0.2303  0.8444 -0.5265
  644MOL0     C86858   1.143   8.733   5.907 -0.2964 -0.3463  0.8194
  644MOL0     C86859   1.201   8.852   5.885 -0.8390  0.2552 -0.3564
  644MOL0     C86860   1.244   9.295   5.726  0.1731  0.7676 -0.1225
  644MOL0     C86861   1.385   9.284   5.712  0.4844  0.6266  0.0677
  644MOL0     C86862   1.452   9.402   5.683  0.1772 -1.1834  0.0749
  644MOL0     C86863   1.394   9.533   5.700  0.2339  0.6768  0.5511
  644MOL0     O86864   1.479   9.632   5.692 -0.0351  0.2657  0.5128
  644MOL0     C86865   1.461   9.713   5.811  0.3728 -1.2593  0.2104
  644MOL0     C86866   1.599   9.763   5.852  0.6408  0.2463  0.2890
  644MOL0     C86867   1.666   9.845   5.737 -0.0626  0.1094  0.2301
  644MOL0     C86868   1.804   9.903   5.800  0.6243  0.6819 -0.1042
  644MOL0     C86869   1.911   9.940   5.709  1.0644  0.0264 -0.3753
  644MOL0     C86870   1.995   9.965   5.629 -0.5268  0.4420 -0.4178
  644MOL0     C86871   1.264   9.541   5.721 -0.3767  0.1338 -1.1477
  644MOL0     C86872   1.186   9.425   5.736 -0.9835  0.3377  1.5224
  644MOL0     H86873   1.028   8.932   5.602  0.5142 -3.0744 -1.5916
  644MOL0     H86874   0.943   8.712   5.629  2.8652 -2.0872 -0.6303
  644MOL0     H86875   1.170   8.425   5.730  0.0232  0.1236 -0.1584
  644MOL0     H86876   1.212   8.500   5.870  0.1936  0.6923 -2.9882
  644MOL0     H86877   1.165   8.256   5.932 -0.6737 -0.3235 -0.3497
  644MOL0     H86878   1.033   8.358   6.006  1.1275  0.7740  0.6931
  644MOL0     H86879   0.941   8.320   5.745  0.7008  0.2145  0.4257
  644MOL0     H86880   1.055   8.182   5.760 -0.7394  0.1247 -1.2294
  644MOL0     H86881   0.922   8.122   5.984 -4.0655 -1.5886  0.8291
  644MOL0     H86882   0.822   8.256   5.946  1.7082  1.7084  1.5574
  644MOL0     H86883   0.799   8.132   5.707 -1.1770 -0.3269 -0.2860
  644MOL0     H86884   0.855   7.982   5.787 -3.1051 -1.9639  1.4938
  644MOL0     H86885   0.596   8.124   5.841  0.3038 -0.2347  1.9581
  644MOL0     H86886   0.626   7.979   5.759  0.0635  0.6566 -0.6514
  644MOL0     H86887   0.720   7.876   5.977  3.1084  2.5863  1.2990
  644MOL0     H86888   0.667   8.018   6.065  0.8205  1.4769 -1.3523
  644MOL0     H86889   0.442   7.977   6.002  1.5641 -0.2216  1.4240
  644MOL0     H86890   0.496   7.852   6.102 -1.0670 -1.1406 -0.5133
  644MOL0     H86891   0.540   7.613   6.013 -0.9385 -3.5341 -1.5353
  644MOL0     H86892   0.449   7.440   5.713 -1.2950  2.3283 -0.2399
  644MOL0     H86893   0.521   7.419   5.877 -0.2865  5.2465  3.1091
  644MOL0     H86894   0.282   7.399   5.970 -2.9055  3.6250 -1.2779
  644MOL0     H86895   0.312   7.262   5.868  1.2147  0.3235  2.8446
  644MOL0     H86896   0.136   7.514   5.812 -4.3145 -2.1455  1.7897
  644MOL0     H86897   0.090   7.358   5.841 -0.2927  0.1152  0.1859
  644MOL0     H86898   0.202   7.291   5.622 -0.5654  0.4733  3.3571
  644MOL0     H86899   0.236   7.462   5.583 -0.8018 -0.4497 -3.2327
  644MOL0     H86900   0.077   7.649   5.637  0.3793 -0.5964  1.2438
  644MOL0     H86901  -0.097   7.939   5.652  0.8818  1.0126  1.2611
  644MOL0     H86902  -0.092   7.885   5.812  0.0589 -1.3532  1.7349
  644MOL0     H86903   0.058   7.871   5.715 -0.3345  0.1680 -3.2711
  644MOL0     H86904  -0.647   7.906   5.595  0.9149 -1.6358  0.4543
  644MOL0     H86905  -0.822   8.034   5.691  0.5105 -1.3734 -2.9597
  644MOL0     H86906  -0.928   8.154   5.828  0.9501 -2.1551 -2.5787
  644MOL0     H86907  -1.028   8.020   5.780  0.2039 -1.2188 -0.0516
  644MOL0     H86908  -1.054   8.185   6.033 -0.9841 -2.8962  1.9985
  644MOL0     H86909  -1.144   8.221   5.893 -1.4412 -1.3148 -1.8860
  644MOL0     H86910  -1.173   7.996   6.083 -0.7009  0.6319  0.4289
  644MOL0     H86911  -1.206   7.964   5.902  1.5144 -1.7955  1.2610
  644MOL0     H86912  -1.330   8.191   6.068  1.2118  1.0474 -0.2033
  644MOL0     H86913  -1.381   8.128   5.913 -2.4309  1.8103  2.4118
  644MOL0     H86914  -1.382   7.945   6.169 -3.9791 -0.1299  1.2556
  644MOL0     H86915  -1.444   7.913   6.007 -0.9814  0.7822 -1.7445
  644MOL0     H86916  -1.626   8.067   6.047 -1.8871 -0.2491  0.9884
  644MOL0     H86917  -1.608   7.977   6.204  2.6225  0.5349  2.9772
  644MOL0     H86918  -1.519   8.266   6.151  1.8236  0.5660  0.7662
  644MOL0     H86919  -1.454   8.165   6.276 -0.9639  1.0605 -0.9129
  644MOL0     H86920  -1.749   8.180   6.218 -0.6723  0.5473 -0.5636
  644MOL0     H86921  -1.668   8.307   6.325  4.0506 -0.4448 -0.6543
  644MOL0     H86922  -0.728   7.868   6.088  0.9323 -1.2587  0.6948
  644MOL0     H86923  -0.543   7.724   5.973 -0.5536 -1.2407 -1.3014
  644MOL0     H86924  -0.400   7.520   5.629 -0.2134 -0.6620  0.4645
  644MOL0     H86925  -0.243   7.367   5.549  3.3608 -0.3274 -0.8341
  644MOL0     H86926   1.170   8.681   5.999  2.0920  0.9248  0.9081
  644MOL0     H86927   1.281   8.885   5.950 -0.1702  1.1654 -1.6067
  644MOL0     H86928   1.431   9.187   5.700  3.7865  1.9269  1.0197
  644MOL0     H86929   1.558   9.404   5.661 -0.1564 -0.6587 -1.6895
  644MOL0     H86930   1.393   9.795   5.785 -3.3022 -4.0055  0.2108
  644MOL0     H86931   1.414   9.661   5.895 -1.4732 -0.5421 -0.3288
  644MOL0     H86932   1.668   9.682   5.880  2.2743  1.2865 -0.5236
  644MOL0     H86933   1.582   9.827   5.939  6.2830 -0.4072  2.3197
  644MOL0     H86934   1.597   9.923   5.702 -0.1054  0.3868  0.9176
  644MOL0     H86935   1.686   9.783   5.650  0.0287 -2.0723  1.7370
  644MOL0     H86936   1.846   9.826   5.865  1.5003  0.3315 -1.0727
  644MOL0     H86937   1.777   9.989   5.862 -0.0232  0.3395  0.0973
  644MOL0     H86938   2.072   9.975   5.556 -1.0892  0.0837 -1.0838
  644MOL0     H86939   1.219   9.639   5.732  0.2990  0.5401 -1.9120
  644MOL0     H86940   1.081   9.437   5.761 -1.4196 -0.2439  0.0322
  645MOL0     O86941   2.974   5.089   4.855  0.0580  0.3943 -0.1031
  645MOL0     C86942   3.004   5.182   4.780 -0.0400  0.3510 -1.0921
  645MOL0     O86943   3.027   5.173   4.644  0.7944 -0.1522 -0.0597
  645MOL0     C86944   3.015   5.052   4.577  0.2918 -0.2468 -0.2395
  645MOL0     C86945   2.965   5.066   4.448 -0.0176 -0.2488  0.1483
  645MOL0     C86946   2.955   4.951   4.363 -0.5633 -0.1037 -0.1740
  645MOL0     C86947   2.992   4.828   4.403  0.1905  0.4021 -0.4013
  645MOL0     O86948   2.990   4.720   4.316  0.0696 -0.6546 -0.4568
  645MOL0     C86949   2.926   4.599   4.346  0.1011  0.6217 -0.4243
  645MOL0     C86950   2.815   4.588   4.243  0.7941  0.8531  0.0999
  645MOL0     C86951   2.754   4.440   4.241  0.3593  0.3288 -0.4790
  645MOL0     C86952   2.661   4.437   4.121 -0.0100  0.0518 -0.5820
  645MOL0     C86953   2.590   4.293   4.097  0.1254 -0.5765 -0.5285
  645MOL0     C86954   2.502   4.316   3.959  0.2494 -0.4329 -0.2790
  645MOL0     C86955   2.411   4.196   3.937 -0.7078  0.3329 -0.2475
  645MOL0     C86956   2.333   4.232   3.805  0.0397 -0.7221  0.7056
  645MOL0     N86957   2.295   4.123   3.724  0.4862 -0.0987  0.9643
  645MOL0     C86958   2.262   4.003   3.778  0.3892 -0.5543 -0.0170
  645MOL0     C86959   2.239   3.922   3.670 -0.8175 -0.0831 -0.1737
  645MOL0     C86960   2.202   3.779   3.665 -0.3945  0.7775  0.8191
  645MOL0     C86961   2.048   3.780   3.687  0.6129 -0.1487  0.0389
  645MOL0     C86962   1.987   3.647   3.644 -1.7031 -0.2800 -1.1574
  645MOL0     C86963   2.051   3.543   3.731 -0.6465  0.9650 -0.7823
  645MOL0     O86964   1.980   3.410   3.740  0.1120 -0.0263  0.4232
  645MOL0     C86965   2.030   3.304   3.818 -0.8257  0.0622 -0.0709
  645MOL0     C86966   2.135   3.329   3.914  0.6948  0.0283  0.3575
  645MOL0     C86967   2.186   3.219   3.987  0.1323 -0.4654 -0.0100
  645MOL0     C86968   2.293   3.258   4.088  0.0451 -0.1714 -0.7527
  645MOL0     C86969   2.125   3.091   3.981  0.2041 -0.7510 -0.6203
  645MOL0     C86970   2.179   2.974   4.049 -0.0904  0.4106  0.0569
  645MOL0     O86971   2.120   2.853   4.018 -0.4063 -0.4925 -0.7195
  645MOL0     C86972   2.177   2.741   4.073 -0.1269  1.1605 -0.5413
  645MOL0     C86973   2.247   2.654   3.991  0.4591 -0.2074  0.2433
  645MOL0     C86974   2.284   2.534   4.038  0.6623  0.2760  0.0166
  645MOL0     C86975   2.259   2.490   4.171  0.2029 -0.5127  0.6341
  645MOL0     O86976   2.305   2.368   4.202  0.3507  0.0075 -0.7664
  645MOL0     C86977   2.284   2.326   4.348  0.1842 -0.0069 -0.1412
  645MOL0     C86978   2.333   2.191   4.380  0.1835  0.3138  0.4898
  645MOL0     C86979   2.262   2.082   4.304 -1.1424  0.5560 -0.5017
  645MOL0     C86980   2.286   2.057   4.161  0.4592  0.3592 -0.1054
  645MOL0     C86981   2.166   1.984   4.097  0.8051 -0.8945 -0.6827
  645MOL0     C86982   2.137   1.847   4.167 -0.6942 -0.4315 -0.1002
  645MOL0     C86983   2.054   1.755   4.086 -0.0109  0.8020  0.0497
  645MOL0     C86984   2.120   1.683   3.964 -0.1529 -0.0356  0.9388
  645MOL0    Cl86985   2.059   1.783   3.826 -0.1740 -0.1627 -0.0611
  645MOL0     C86986   2.203   2.586   4.252 -0.5646  0.4695 -0.8412
  645MOL0     C86987   2.158   2.710   4.206  0.3512  0.9779  0.1777
  645MOL0     O86988   2.265   2.989   4.138 -0.1825 -0.3239 -0.4267
  645MOL0     C86989   2.009   3.079   3.910  0.7106  0.1484 -0.1277
  645MOL0     C86990   1.964   3.179   3.824 -1.1829  0.1291 -0.1340
  645MOL0     N86991   2.259   3.994   3.552 -0.0630 -0.4976  0.1665
  645MOL0     N86992   2.295   4.113   3.584  0.1318 -0.7408 -0.3497
  645MOL0     C86993   3.022   4.818   4.537  0.2713 -0.2100 -1.3355
  645MOL0     C86994   3.047   4.930   4.618 -0.1788 -0.5551 -0.1148
  645MOL0     C86995   3.013   5.325   4.835  1.0036 -0.0013 -0.9757
  645MOL0     C86996   2.983   5.355   4.971  0.0163  0.2853  0.3016
  645MOL0     C86997   3.006   5.488   5.016 -0.4056  0.6978 -0.3013
  645MOL0     C86998   3.052   5.586   4.926 -0.3644 -0.5548 -0.9137
  645MOL0     O86999   3.051   5.716   4.983 -0.3564 -0.1539  0.3382
  645MOL0     C87000   3.055   5.834   4.903  0.2053 -0.1295  0.5248
  645MOL0     C87001   3.062   5.969   4.971  0.0175 -1.2463 -0.1792
  645MOL0     C87002   3.178   5.983   5.075 -1.4114 -0.2092 -0.4207
  645MOL0     C87003   3.236   6.120   5.077  0.6112 -0.0319 -0.3532
  645MOL0     C87004   3.134   6.218   5.126 -0.5683  0.7408 -0.8488
  645MOL0     C87005   3.062   6.299   5.175 -0.0745  0.9462  0.0343
  645MOL0     C87006   3.062   5.558   4.793  0.0187  0.3025 -0.0266
  645MOL0     C87007   3.048   5.425   4.747 -0.7513 -0.2053 -0.4716
  645MOL0     H87008   2.942   5.161   4.401  2.2995 -0.7771 -2.2854
  645MOL0     H87009   2.920   4.966   4.261  2.1930 -1.2413 -1.4102
  645MOL0     H87010   2.992   4.512   4.342 -0.2337  0.4125 -2.5865
  645MOL0     H87011   2.889   4.592   4.448  1.3541 -1.8025 -0.0675
  645MOL0     H87012   2.737   4.661   4.264 -1.3244 -0.2827 -3.1270
  645MOL0     H87013   2.854   4.610   4.143  0.6801 -1.2537 -0.4747
  645MOL0     H87014   2.829   4.361   4.225 -1.5740 -1.7900  0.4225
  645MOL0     H87015   2.703   4.415   4.334 -0.2406  3.2831  0.0935
  645MOL0     H87016   2.600   4.527   4.132 -0.8809 -0.4954 -0.8355
  645MOL0     H87017   2.723   4.463   4.034 -1.9962  0.4983 -1.9213
  645MOL0     H87018   2.650   4.202   4.087 -2.2224 -2.0049 -2.6889
  645MOL0     H87019   2.517   4.280   4.176 -0.5307  4.8968  0.1391
  645MOL0     H87020   2.442   4.407   3.970 -0.9029 -1.0929 -0.8328
  645MOL0     H87021   2.562   4.320   3.868 -0.1157 -2.0033 -0.6187
  645MOL0     H87022   2.471   4.105   3.941 -0.7001  0.3995  1.7971
  645MOL0     H87023   2.336   4.184   4.016 -0.8998 -0.7841 -0.5797
  645MOL0     H87024   2.396   4.292   3.738 -0.0988  0.2008  1.3819
  645MOL0     H87025   2.250   4.302   3.816  2.1347  1.8254  1.4208
  645MOL0     H87026   2.261   3.969   3.881  1.1660  1.6121  0.7847
  645MOL0     H87027   2.225   3.743   3.565 -1.0547  0.0501  0.9192
  645MOL0     H87028   2.254   3.716   3.738 -1.0346  0.3170  0.8900
  645MOL0     H87029   2.008   3.856   3.620  2.2444 -0.2730 -1.1315
  645MOL0     H87030   2.026   3.808   3.790  2.6802  4.5993 -0.5451
  645MOL0     H87031   1.997   3.629   3.536  1.3793  0.0247 -1.0060
  645MOL0     H87032   1.881   3.655   3.671 -1.4554  0.4485 -0.3373
  645MOL0     H87033   2.048   3.576   3.836 -0.4632  0.0252 -0.4699
  645MOL0     H87034   2.147   3.522   3.684 -1.7192 -1.2068 -2.1516
  645MOL0     H87035   2.176   3.430   3.917  2.0450 -0.5221  0.8977
  645MOL0     H87036   2.317   3.365   4.081 -2.4805  0.3433 -3.5741
  645MOL0     H87037   2.263   3.230   4.189 -0.3107 -1.3634 -1.1793
  645MOL0     H87038   2.379   3.197   4.060  0.5312  1.0706 -2.1338
  645MOL0     H87039   2.246   2.680   3.886 -1.7618 -1.3567 -0.0957
  645MOL0     H87040   2.343   2.469   3.975  1.7113 -1.0796  2.2534
  645MOL0     H87041   2.347   2.400   4.397 -1.0918 -0.1812  1.9094
  645MOL0     H87042   2.184   2.343   4.389  1.9491  2.0048  3.9760
  645MOL0     H87043   2.440   2.185   4.357 -0.1940 -1.9698 -0.9764
  645MOL0     H87044   2.315   2.174   4.487  2.8935 -0.0341  0.9679
  645MOL0     H87045   2.153   2.094   4.309 -1.0926  2.2901 -2.4457
  645MOL0     H87046   2.289   1.991   4.360  0.9427 -0.0571 -2.3666
  645MOL0     H87047   2.326   2.138   4.099  4.0254 -1.9363 -1.1370
  645MOL0     H87048   2.362   1.979   4.149 -0.9532 -0.6437 -4.3911
  645MOL0     H87049   2.192   1.973   3.992 -1.0753  2.5789 -1.6702
  645MOL0     H87050   2.077   2.047   4.093  2.1133  0.9903 -2.0254
  645MOL0     H87051   2.232   1.805   4.201 -0.6010  1.6249  2.5388
  645MOL0     H87052   2.088   1.867   4.263 -0.8290 -0.0956 -0.2375
  645MOL0     H87053   1.960   1.801   4.057  0.6286  0.6875 -2.3994
  645MOL0     H87054   2.026   1.677   4.157 -2.2267  1.4923 -0.0143
  645MOL0     H87055   2.083   1.581   3.966 -3.4248  0.9869 -0.6328
  645MOL0     H87056   2.228   1.692   3.945  0.1435 -0.7749  2.1700
  645MOL0     H87057   2.183   2.554   4.353  1.0973  0.5147 -0.4591
  645MOL0     H87058   2.098   2.772   4.271 -1.8803 -1.9626  1.1357
  645MOL0     H87059   1.961   2.982   3.908  1.1915 -0.1554  1.6273
  645MOL0     H87060   1.888   3.177   3.748 -1.4098  1.1119  0.0548
  645MOL0     H87061   3.051   4.721   4.574 -1.0494 -0.2154 -0.2368
  645MOL0     H87062   3.098   4.917   4.712  1.4428 -0.4842 -0.9573
  645MOL0     H87063   2.949   5.267   5.025  1.6780  0.1871  1.2698
  645MOL0     H87064   2.992   5.501   5.123 -0.5139  1.6934 -0.4305
  645MOL0     H87065   3.138   5.826   4.831 -0.9138 -2.0851 -0.6465
  645MOL0     H87066   2.966   5.838   4.840 -0.0739 -2.6587  0.6750
  645MOL0     H87067   2.971   5.986   5.030  1.4122  0.7268  1.5618
  645MOL0     H87068   3.063   6.045   4.892  0.5515  0.3200  1.2555
  645MOL0     H87069   3.260   5.913   5.055 -4.2088 -5.0165  2.6646
  645MOL0     H87070   3.147   5.937   5.170 -0.9862  0.7143  0.1807
  645MOL0     H87071   3.272   6.153   4.979 -0.2867  3.0434  0.2552
  645MOL0     H87072   3.326   6.143   5.134  2.0681 -1.3456 -2.0169
  645MOL0     H87073   2.992   6.360   5.229 -1.8418 -1.3154  0.4729
  645MOL0     H87074   3.076   5.637   4.720  3.4470 -2.2748 -2.5089
  645MOL0     H87075   3.078   5.412   4.643 -0.3531  1.4663 -0.5986
  646MOL0     O87076  10.470  11.170  10.721 -0.0225  0.4310  0.1524
  646MOL0     C87077  10.428  11.055  10.718 -1.7028  0.1725  0.0723
  646MOL0     O87078  10.463  10.957  10.807 -0.1961 -0.2811  0.3637
  646MOL0     C87079  10.547  10.994  10.911 -0.2208  1.3525 -0.4053
  646MOL0     C87080  10.513  10.953  11.038  0.3967 -0.2313 -0.4026
  646MOL0     C87081  10.597  10.979  11.150 -0.1841  0.3788  0.9698
  646MOL0     C87082  10.728  11.037  11.129  0.6046 -0.1435 -0.2672
  646MOL0     O87083  10.820  11.069  11.224  0.4616  0.9043 -0.3721
  646MOL0     C87084  10.799  11.034  11.361  0.4028 -0.1601 -0.4304
  646MOL0     C87085  10.903  11.110  11.446 -0.1629 -0.3740  0.0881
  646MOL0     C87086  10.845  11.245  11.482  1.2054 -1.0648  0.4628
  646MOL0     C87087  10.937  11.325  11.570  0.3080 -0.1892 -0.8304
  646MOL0     C87088  10.882  11.454  11.615  0.2761 -0.5077 -0.2294
  646MOL0     C87089  11.000  11.523  11.697  0.7266 -0.6828 -1.0092
  646MOL0     C87090  11.036  11.443  11.825 -0.7795  0.5006  0.0776
  646MOL0     C87091  11.123  11.512  11.930  0.6980  0.2420 -0.2327
  646MOL0     N87092  11.060  11.514  12.066  0.3797 -0.2333  0.4102
  646MOL0     C87093  11.032  11.628  12.135 -0.7820 -0.2422 -0.1044
  646MOL0     C87094  11.001  11.578  12.261 -1.2049  0.5869 -0.3376
  646MOL0     C87095  11.000  11.660  12.388 -0.2729  0.4007 -0.3850
  646MOL0     C87096  10.870  11.717  12.429 -0.6608 -0.3550  0.0158
  646MOL0     C87097  10.862  11.777  12.577  0.3807  0.1333 -0.7088
  646MOL0     C87098  10.726  11.793  12.624  0.3908  0.6069  0.1453
  646MOL0     O87099  10.675  11.916  12.568  0.5837 -0.5464 -1.3014
  646MOL0     C87100  10.564  11.970  12.627 -0.3467 -0.1405 -0.7778
  646MOL0     C87101  10.462  11.881  12.665  0.2662 -0.2327 -0.5904
  646MOL0     C87102  10.339  11.929  12.712  0.0297  0.1177  0.4149
  646MOL0     C87103  10.223  11.829  12.746  0.5778 -0.0783  0.0606
  646MOL0     C87104  10.323  12.062  12.737  1.5185  0.3953  0.1976
  646MOL0     C87105  10.200  12.135  12.784 -0.1430  0.4293 -0.0853
  646MOL0     O87106  10.087  12.125  12.701 -0.4812  0.0681 -0.5844
  646MOL0     C87107   9.955  12.135  12.752 -1.1533  1.3030  0.3844
  646MOL0     C87108   9.863  12.172  12.658  0.4145 -0.4526  0.5465
  646MOL0     C87109   9.724  12.199  12.680 -0.8716  0.6388  0.6462
  646MOL0     C87110   9.685  12.210  12.814  0.8647 -0.7039  0.2967
  646MOL0     O87111   9.558  12.252  12.832  0.4283 -0.8503  0.7472
  646MOL0     C87112   9.534  12.328  12.948 -0.5039  0.0782  0.1870
  646MOL0     C87113   9.397  12.387  12.945 -0.4593 -0.9085  0.1671
  646MOL0     C87114   9.364  12.465  13.068  0.1934  0.3932 -0.0367
  646MOL0     C87115   9.256  12.568  13.037  0.2602  0.6822  0.5456
  646MOL0     C87116   9.115  12.510  13.052  0.0289  0.6628 -0.3105
  646MOL0     C87117   9.003  12.612  13.046 -0.0336 -0.8580 -0.0182
  646MOL0     C87118   8.860  12.554  13.044 -0.5569 -0.0473  1.1620
  646MOL0     C87119   8.830  12.461  12.928 -0.6443 -0.1193 -0.3941
  646MOL0    Cl87120   8.834  12.575  12.788 -0.0434  0.6069 -0.0303
  646MOL0     C87121   9.768  12.168  12.913  0.6028  0.1346  0.4112
  646MOL0     C87122   9.906  12.135  12.887  0.6955 -0.3511  0.5598
  646MOL0     O87123  10.206  12.188  12.896  0.0914  1.1750  0.3612
  646MOL0     C87124  10.427  12.159  12.699 -0.6317 -0.0916  0.3313
  646MOL0     C87125  10.552  12.108  12.648  0.3387 -0.4088  0.3630
  646MOL0     N87126  10.992  11.438  12.248 -0.0496 -0.3430  0.1941
  646MOL0     N87127  11.033  11.397  12.133 -0.3315 -0.5665  0.0134
  646MOL0     C87128  10.766  11.069  10.995 -0.9406  0.0806  0.3506
  646MOL0     C87129  10.680  11.044  10.888  0.0936  0.6890 -0.0903
  646MOL0     C87130  10.326  11.040  10.621  0.6184 -0.3857 -0.7686
  646MOL0     C87131  10.279  10.914  10.580  0.7152  0.7406  1.0739
  646MOL0     C87132  10.179  10.895  10.481 -0.3219 -0.1095 -0.2676
  646MOL0     C87133  10.110  11.009  10.429  0.1560 -0.4856 -0.0675
  646MOL0     O87134   9.999  10.996  10.345  0.2609  0.3052 -0.1133
  646MOL0     C87135  10.010  10.939  10.213 -0.3489  0.0332 -1.0232
  646MOL0     C87136  10.079  11.038  10.125  0.4179  0.2654 -0.3033
  646MOL0     C87137  10.008  11.176  10.113  0.2817  0.2692 -0.3155
  646MOL0     C87138   9.886  11.155  10.024  0.3561 -0.3212  0.4807
  646MOL0     C87139   9.934  11.154   9.890 -0.2058  0.9160  0.7868
  646MOL0     C87140   9.949  11.153   9.767  0.6722 -0.2099 -0.1973
  646MOL0     C87141  10.147  11.137  10.478 -1.0611 -0.3552 -0.1906
  646MOL0     C87142  10.254  11.151  10.569 -0.1078 -0.1466 -0.0958
  646MOL0     H87143  10.414  10.910  11.030 -1.3264  3.1290  1.0981
  646MOL0     H87144  10.560  10.949  11.248 -0.2369 -0.9230  0.5762
  646MOL0     H87145  10.697  11.063  11.385  0.5726  2.5521 -2.5207
  646MOL0     H87146  10.802  10.927  11.386  0.9767  0.4466  2.4214
  646MOL0     H87147  10.933  11.060  11.538  1.8124  0.3688 -0.1163
  646MOL0     H87148  10.992  11.125  11.385 -0.0744 -0.8454  0.0953
  646MOL0     H87149  10.828  11.307  11.393  1.0010 -2.6885 -0.6709
  646MOL0     H87150  10.742  11.237  11.518  0.6931  0.1099 -0.6619
  646MOL0     H87151  10.951  11.267  11.662  0.5204  2.7109  1.1015
  646MOL0     H87152  11.027  11.341  11.511  0.7068  0.7989  0.0141
  646MOL0     H87153  10.851  11.520  11.533 -0.7809  0.5550  0.9941
  646MOL0     H87154  10.789  11.453  11.672 -1.4293  2.6291 -2.6279
  646MOL0     H87155  11.094  11.529  11.641  1.3656 -3.4562 -0.3738
  646MOL0     H87156  10.969  11.622  11.732 -3.9484 -1.4974 -2.1818
  646MOL0     H87157  10.946  11.408  11.878  0.1747 -0.5824  1.0352
  646MOL0     H87158  11.094  11.354  11.802 -0.3163  0.4681  1.3161
  646MOL0     H87159  11.146  11.609  11.885  0.2935 -0.1203 -1.2301
  646MOL0     H87160  11.219  11.465  11.948  1.7106  1.1608 -2.8001
  646MOL0     H87161  11.068  11.723  12.098 -0.9171  0.7421  2.1261
  646MOL0     H87162  11.041  11.595  12.466  0.0256  0.0696 -0.8097
  646MOL0     H87163  11.074  11.740  12.371 -0.3189  0.8999  1.5178
  646MOL0     H87164  10.791  11.642  12.417 -1.9052  0.6891  1.3344
  646MOL0     H87165  10.856  11.794  12.353 -1.3450 -0.1468  0.3406
  646MOL0     H87166  10.909  11.876  12.581  1.7298 -0.4658 -0.9912
  646MOL0     H87167  10.915  11.708  12.643  1.0877  0.9073 -0.4499
  646MOL0     H87168  10.722  11.797  12.733 -3.7237  2.1597  0.1249
  646MOL0     H87169  10.664  11.706  12.601  1.1102  0.1491 -0.0928
  646MOL0     H87170  10.465  11.773  12.665  1.7417 -0.2366  0.8045
  646MOL0     H87171  10.165  11.856  12.834  0.4244 -1.5520  0.4378
  646MOL0     H87172  10.158  11.826  12.658 -0.7643  1.4697  0.9542
  646MOL0     H87173  10.267  11.729  12.752 -0.2538 -0.3955  1.0808
  646MOL0     H87174   9.883  12.169  12.551 -1.1301 -1.0568  0.2361
  646MOL0     H87175   9.645  12.210  12.607 -1.5729  0.1196  1.2981
  646MOL0     H87176   9.537  12.260  13.034 -0.7754 -0.0339  0.1083
  646MOL0     H87177   9.609  12.408  12.946 -2.8110  2.4845  1.9850
  646MOL0     H87178   9.401  12.459  12.863  1.1876  0.3198  1.2610
  646MOL0     H87179   9.321  12.311  12.924  1.2445 -2.0554 -2.2059
  646MOL0     H87180   9.449  12.530  13.086  0.1522  1.2217 -2.5424
  646MOL0     H87181   9.339  12.391  13.146  0.0832 -0.1274 -0.5563
  646MOL0     H87182   9.279  12.648  13.108  2.0423  1.3223 -0.6782
  646MOL0     H87183   9.263  12.601  12.933 -2.4441 -0.7219 -0.1818
  646MOL0     H87184   9.110  12.459  13.149  2.8045  1.4370  0.3194
  646MOL0     H87185   9.092  12.434  12.977 -2.9917 -0.5304  1.6461
  646MOL0     H87186   9.004  12.679  13.132 -2.9588  0.8112 -1.1595
  646MOL0     H87187   9.025  12.670  12.956 -3.3393 -1.4359 -1.3464
  646MOL0     H87188   8.789  12.636  13.033 -0.5129 -0.3081 -1.7996
  646MOL0     H87189   8.847  12.505  13.141  1.5910 -3.2463  0.0359
  646MOL0     H87190   8.734  12.411  12.943 -1.5498  1.7776  0.5602
  646MOL0     H87191   8.907  12.384  12.924  1.2568  1.1677  4.4397
  646MOL0     H87192   9.745  12.169  13.019  2.6124  1.6250  0.9039
  646MOL0     H87193   9.981  12.102  12.958  0.2909 -1.3135  0.5565
  646MOL0     H87194  10.433  12.260  12.738 -3.2692  1.1793 -2.1918
  646MOL0     H87195  10.630  12.173  12.610 -0.7025  0.8870  0.3700
  646MOL0     H87196  10.873  11.082  10.984 -1.0563 -0.8105 -2.6811
  646MOL0     H87197  10.709  11.040  10.784  1.7273 -2.0526  0.3902
  646MOL0     H87198  10.327  10.824  10.617  0.6540  0.2001 -0.1114
  646MOL0     H87199  10.134  10.804  10.444 -1.2744  0.4316 -0.4793
  646MOL0     H87200  10.057  10.840  10.218 -1.7202 -0.5910  0.1193
  646MOL0     H87201   9.906  10.924  10.183 -1.7996  1.0723  2.9457
  646MOL0     H87202  10.093  10.989  10.029  2.8303 -2.7810  1.4237
  646MOL0     H87203  10.183  11.055  10.155  1.5994 -1.7538 -2.9458
  646MOL0     H87204  10.074  11.251  10.069 -3.3144  3.4673 -0.8525
  646MOL0     H87205   9.978  11.216  10.210 -1.6422  0.0070 -0.7549
  646MOL0     H87206   9.824  11.245  10.038 -0.5054 -0.7923 -0.2003
  646MOL0     H87207   9.822  11.070  10.051  1.0763 -0.8522  0.5399
  646MOL0     H87208   9.967  11.130   9.664 -2.3926  0.6603 -1.0347
  646MOL0     H87209  10.097  11.225  10.438  1.6310  0.5664 -1.7479
  646MOL0     H87210  10.285  11.252  10.592  1.1936 -0.6263  0.3168
  647MOL0     O87211   2.373   4.571   6.996 -0.5484 -0.3211 -0.0528
  647MOL0     C87212   2.383   4.602   7.116 -0.2335  0.2649  0.9330
  647MOL0     O87213   2.311   4.548   7.219  0.0337 -0.4220  1.3759
  647MOL0     C87214   2.214   4.454   7.187 -0.5318  0.1192  0.5604
  647MOL0     C87215   2.082   4.479   7.211  0.0516 -0.5784 -1.1024
  647MOL0     C87216   1.978   4.390   7.203 -1.1767 -0.4757 -0.2256
  647MOL0     C87217   2.007   4.264   7.153 -0.2409  0.6943 -0.0847
  647MOL0     O87218   1.902   4.176   7.131 -0.2596 -1.1153 -0.4377
  647MOL0     C87219   1.915   4.050   7.201  0.7891  0.2030 -0.4847
  647MOL0     C87220   1.778   4.010   7.253 -0.7031 -0.0196 -0.5677
  647MOL0     C87221   1.667   4.001   7.147  0.9217 -0.6149  0.1974
  647MOL0     C87222   1.563   4.115   7.150  0.0850  0.4541  0.2417
  647MOL0     C87223   1.470   4.094   7.263  1.2881  0.8100  0.1312
  647MOL0     C87224   1.410   4.233   7.293 -0.7129  0.3263 -0.9523
  647MOL0     C87225   1.361   4.318   7.171  0.5958 -0.3283 -0.0472
  647MOL0     C87226   1.263   4.436   7.217  0.0409  0.3223  0.1236
  647MOL0     N87227   1.347   4.539   7.270  0.3732 -0.2295 -0.3169
  647MOL0     C87228   1.423   4.634   7.201  0.2061  0.7050  0.3104
  647MOL0     C87229   1.476   4.716   7.294  0.3779  0.8516  1.0225
  647MOL0     C87230   1.571   4.824   7.250  0.1365 -0.3476  0.6831
  647MOL0     C87231   1.709   4.819   7.310 -0.4978  0.0485  0.3499
  647MOL0     C87232   1.795   4.718   7.224  0.1499 -0.4002 -0.0368
  647MOL0     C87233   1.843   4.758   7.081 -0.2256 -0.3227  0.0910
  647MOL0     O87234   1.865   4.640   6.999  0.3065 -0.2194 -0.3764
  647MOL0     C87235   1.765   4.561   6.957  0.1266  1.2318 -0.6557
  647MOL0     C87236   1.637   4.603   6.923 -0.1407 -0.5522 -0.5536
  647MOL0     C87237   1.541   4.515   6.864 -0.2979 -0.8402 -0.0490
  647MOL0     C87238   1.422   4.591   6.820  0.1682  0.7145 -0.0824
  647MOL0     C87239   1.565   4.377   6.850 -0.3171  0.3264 -0.6273
  647MOL0     C87240   1.477   4.276   6.800  0.2345  0.9474  0.0652
  647MOL0     O87241   1.519   4.146   6.767 -0.2579  0.4023  0.1225
  647MOL0     C87242   1.430   4.047   6.734 -0.1678  0.5206  0.6958
  647MOL0     C87243   1.472   3.952   6.639 -0.1752 -0.4763  0.3096
  647MOL0     C87244   1.388   3.855   6.593  1.2754  0.8928  0.0898
  647MOL0     C87245   1.256   3.850   6.639  1.1875 -1.1307 -0.1308
  647MOL0     O87246   1.184   3.751   6.585  0.5692  0.2215  0.6842
  647MOL0     C87247   1.106   3.666   6.676  0.2035 -0.3515  0.7185
  647MOL0     C87248   0.953   3.714   6.652 -0.1721 -0.4437 -0.2118
  647MOL0     C87249   0.868   3.684   6.780 -0.9937 -0.1486  0.1161
  647MOL0     C87250   0.723   3.686   6.761  0.0496  0.9687  0.4957
  647MOL0     C87251   0.672   3.595   6.645 -0.4676 -0.1167  0.0632
  647MOL0     C87252   0.535   3.535   6.665  1.2016 -0.1577  0.0632
  647MOL0     C87253   0.435   3.641   6.684  0.0424  0.4333  0.9432
  647MOL0     C87254   0.300   3.574   6.685 -0.1022  0.2609  0.4151
  647MOL0    Cl87255   0.254   3.515   6.518  0.2278 -0.6421 -0.2084
  647MOL0     C87256   1.217   3.932   6.746 -0.7007 -0.1586  0.5502
  647MOL0     C87257   1.311   4.023   6.797  0.2811 -0.3909 -0.1148
  647MOL0     O87258   1.365   4.320   6.773  0.0464  0.4699 -0.2555
  647MOL0     C87259   1.689   4.334   6.895  0.0011 -0.2530 -0.0553
  647MOL0     C87260   1.785   4.422   6.949  0.0380 -0.1453  0.0845
  647MOL0     N87261   1.433   4.669   7.414 -0.0408  0.5235 -0.1032
  647MOL0     N87262   1.361   4.558   7.403 -0.2809 -0.1808  0.5488
  647MOL0     C87263   2.141   4.227   7.140 -0.6361 -0.0494 -0.0779
  647MOL0     C87264   2.243   4.330   7.153  0.1944  1.1941 -0.0499
  647MOL0     C87265   2.486   4.717   7.129  0.5206  0.0102  0.1444
  647MOL0     C87266   2.543   4.785   7.018  0.2025 -0.0136  0.4769
  647MOL0     C87267   2.633   4.899   7.027  0.0464 -0.0478  0.1910
  647MOL0     C87268   2.676   4.932   7.158  0.3738  0.7004  0.0559
  647MOL0     O87269   2.760   5.029   7.192  0.5859  0.6014  0.2046
  647MOL0     C87270   2.859   5.089   7.098 -0.3434  0.5278 -0.5421
  647MOL0     C87271   2.992   5.077   7.170 -0.4024  0.1603  0.9079
  647MOL0     C87272   3.095   5.177   7.131  0.6889  0.6841  0.8173
  647MOL0     C87273   3.227   5.125   7.194 -0.2566 -0.0446  1.3257
  647MOL0     C87274   3.335   5.220   7.182 -0.0280 -0.8245 -1.0773
  647MOL0     C87275   3.433   5.295   7.166  0.7781 -0.3553  0.4531
  647MOL0     C87276   2.613   4.869   7.264  0.3482  0.6138 -0.1448
  647MOL0     C87277   2.519   4.769   7.254 -0.5910  0.4866  0.1517
  647MOL0     H87278   2.072   4.582   7.246  0.2139 -1.0632  0.4395
  647MOL0     H87279   1.877   4.421   7.225 -1.1640  0.4035 -1.3270
  647MOL0     H87280   1.957   3.971   7.138 -2.2587 -1.4232 -0.6907
  647MOL0     H87281   1.977   4.057   7.291  1.3950 -1.8949 -0.6770
  647MOL0     H87282   1.769   3.921   7.314 -1.6505  1.4529  1.5617
  647MOL0     H87283   1.765   4.095   7.321 -0.1482 -1.5036  1.4673
  647MOL0     H87284   1.716   4.006   7.050  0.5289 -0.6180 -0.0029
  647MOL0     H87285   1.617   3.903   7.140  0.2286 -0.1613 -1.9692
  647MOL0     H87286   1.616   4.211   7.155 -2.2062  1.7530  1.3197
  647MOL0     H87287   1.505   4.108   7.058 -2.0129  0.8593  1.4445
  647MOL0     H87288   1.392   4.025   7.230 -1.4692  3.7013  0.0929
  647MOL0     H87289   1.534   4.064   7.347  2.7643  1.7286 -0.6100
  647MOL0     H87290   1.322   4.230   7.357  0.1136 -0.1679  0.1841
  647MOL0     H87291   1.489   4.280   7.352  1.1706 -2.0492 -1.4272
  647MOL0     H87292   1.444   4.357   7.112  1.4918  2.6677  2.8853
  647MOL0     H87293   1.301   4.255   7.104  1.5578 -0.6989 -0.5757
  647MOL0     H87294   1.193   4.409   7.297  0.7879  2.3540  1.5396
  647MOL0     H87295   1.210   4.482   7.134  4.3738  5.0993 -0.4599
  647MOL0     H87296   1.431   4.637   7.093 -0.6314  0.4828  0.2372
  647MOL0     H87297   1.578   4.844   7.142  1.7199  0.8265  0.9717
  647MOL0     H87298   1.524   4.916   7.286 -3.7466 -1.8726  0.0807
  647MOL0     H87299   1.711   4.797   7.417  1.2848  2.2773  0.8488
  647MOL0     H87300   1.761   4.914   7.294 -1.3993  0.4815 -0.0894
  647MOL0     H87301   1.729   4.631   7.215  3.1027 -2.6605 -1.4391
  647MOL0     H87302   1.886   4.692   7.277  1.9358 -0.3780 -2.8938
  647MOL0     H87303   1.931   4.820   7.100 -0.4114 -0.2085  0.6015
  647MOL0     H87304   1.772   4.826   7.034 -0.1766 -1.8304 -2.2881
  647MOL0     H87305   1.611   4.708   6.927  0.6979 -0.3598 -0.0478
  647MOL0     H87306   1.391   4.558   6.721  1.5995  0.0976 -0.3623
  647MOL0     H87307   1.341   4.589   6.893  1.0966 -0.0572  0.9577
  647MOL0     H87308   1.438   4.697   6.795 -3.0599  1.0694 -1.0228
  647MOL0     H87309   1.559   3.957   6.574 -0.7447  0.5587 -0.3858
  647MOL0     H87310   1.424   3.775   6.528 -1.4482 -0.9235  0.6560
  647MOL0     H87311   1.123   3.559   6.664 -0.8744 -0.4849  0.2965
  647MOL0     H87312   1.128   3.686   6.782 -0.9929  0.6842  0.7909
  647MOL0     H87313   0.954   3.822   6.638 -1.1787 -0.6626 -2.3291
  647MOL0     H87314   0.909   3.676   6.560 -2.8296  3.7124 -0.9077
  647MOL0     H87315   0.899   3.753   6.859  2.1934 -1.4268  0.1305
  647MOL0     H87316   0.916   3.593   6.817  1.2476  1.5853  1.7647
  647MOL0     H87317   0.684   3.656   6.859 -0.8597 -1.0529 -0.4113
  647MOL0     H87318   0.687   3.788   6.744  2.4080  1.6048 -1.0702
  647MOL0     H87319   0.739   3.509   6.644  1.4933  1.3603 -0.1299
  647MOL0     H87320   0.672   3.649   6.550  0.4239  1.9331  1.1774
  647MOL0     H87321   0.503   3.464   6.588  0.1030 -0.5224  0.8347
  647MOL0     H87322   0.534   3.477   6.757 -0.5946 -1.4475 -0.7089
  647MOL0     H87323   0.448   3.707   6.598 -1.9135  0.8465  0.9156
  647MOL0     H87324   0.444   3.695   6.779  2.8762  1.0614  0.4187
  647MOL0     H87325   0.230   3.655   6.708  0.7668  1.2464 -0.3073
  647MOL0     H87326   0.289   3.488   6.752  4.0156 -1.8220 -1.2543
  647MOL0     H87327   1.123   3.921   6.798  0.2486  0.9206  2.6331
  647MOL0     H87328   1.283   4.083   6.883 -1.0802  0.1485 -0.9167
  647MOL0     H87329   1.723   4.233   6.878 -1.5435 -1.0072  1.0241
  647MOL0     H87330   1.881   4.373   6.963 -1.3677 -2.9914  0.5651
  647MOL0     H87331   2.173   4.127   7.114  4.8047  1.7578 -1.5691
  647MOL0     H87332   2.347   4.301   7.140 -0.3440 -0.6985 -0.4141
  647MOL0     H87333   2.517   4.731   6.927 -3.0435  0.4748  0.9822
  647MOL0     H87334   2.676   4.942   6.937 -0.4082  2.0037  0.8894
  647MOL0     H87335   2.864   5.039   7.001 -2.8585  1.0382 -0.9961
  647MOL0     H87336   2.832   5.193   7.075 -2.9348 -0.0036 -0.1814
  647MOL0     H87337   3.028   4.973   7.166  0.7796  0.5804  0.1499
  647MOL0     H87338   2.968   5.098   7.275  1.7781 -2.6765  2.1189
  647MOL0     H87339   3.075   5.281   7.158 -0.6554  0.1882  1.8207
  647MOL0     H87340   3.118   5.169   7.024 -0.8093  0.0788  0.5107
  647MOL0     H87341   3.250   5.024   7.157 -1.0876 -0.1197  0.9937
  647MOL0     H87342   3.199   5.116   7.299  0.4494 -2.3140  1.3748
  647MOL0     H87343   3.508   5.358   7.123  0.9371 -0.8938 -0.0829
  647MOL0     H87344   2.625   4.906   7.365 -0.6191  2.2216 -0.5750
  647MOL0     H87345   2.482   4.723   7.346 -0.6863 -1.2763 -0.7240
  648MOL0     O87346   3.039   3.402   5.152 -0.0496 -0.5899 -0.0995
  648MOL0     C87347   2.922   3.408   5.125 -0.4629 -0.2044  0.7639
  648MOL0     O87348   2.836   3.496   5.176  0.3596 -0.9177 -0.8885
  648MOL0     C87349   2.870   3.586   5.273 -0.5901 -0.4229  1.1487
  648MOL0     C87350   2.905   3.718   5.231  0.4676  0.4385  0.9403
  648MOL0     C87351   2.940   3.814   5.331  0.2471  0.3160 -0.4644
  648MOL0     C87352   2.936   3.778   5.473 -0.1435 -0.1515  0.4009
  648MOL0     O87353   2.985   3.865   5.574 -0.6363 -0.8678  0.2958
  648MOL0     C87354   3.036   3.997   5.538  0.4364  0.3104  1.0036
  648MOL0     C87355   3.125   4.045   5.651 -0.0242  0.3146 -0.0646
  648MOL0     C87356   3.070   4.184   5.696  0.0830  0.0926 -0.1321
  648MOL0     C87357   3.090   4.203   5.848 -0.2223  0.0645 -0.0242
  648MOL0     C87358   3.237   4.207   5.895 -0.1245 -0.1293 -0.0226
  648MOL0     C87359   3.279   4.354   5.919 -0.1844  1.7574 -0.0138
  648MOL0     C87360   3.431   4.366   5.942  1.4520  0.0069 -0.9871
  648MOL0     C87361   3.445   4.318   6.090 -1.4807 -0.1925  0.5985
  648MOL0     N87362   3.582   4.333   6.151 -0.3095  0.6765 -0.4480
  648MOL0     C87363   3.635   4.271   6.266 -0.2138  0.1309  0.3190
  648MOL0     C87364   3.759   4.320   6.279  0.6100  0.4676 -0.0900
  648MOL0     C87365   3.874   4.270   6.377  0.9541 -0.0502  1.3249
  648MOL0     C87366   3.982   4.178   6.308  0.1960 -1.2070  0.5457
  648MOL0     C87367   3.982   4.041   6.385  0.6368  0.5177 -0.5509
  648MOL0     C87368   4.086   3.945   6.332 -0.9616 -0.2015 -0.0366
  648MOL0     O87369   4.219   3.997   6.361  0.2796 -0.3867  0.2378
  648MOL0     C87370   4.329   3.932   6.309 -0.0330  0.3449 -0.4043
  648MOL0     C87371   4.437   3.904   6.389 -0.0760  0.0955  0.4749
  648MOL0     C87372   4.550   3.828   6.343 -0.2867 -0.4164  0.3535
  648MOL0     C87373   4.645   3.788   6.447 -0.3447  0.6469 -0.2575
  648MOL0     C87374   4.564   3.797   6.209  1.3691  0.6932 -0.8987
  648MOL0     C87375   4.676   3.706   6.164  0.3926  0.5388 -0.4839
  648MOL0     O87376   4.815   3.734   6.198 -0.4956  0.5173  0.0007
  648MOL0     C87377   4.920   3.667   6.147  0.4034  0.4831  0.5163
  648MOL0     C87378   4.922   3.620   6.021  0.0348  0.1042 -0.1251
  648MOL0     C87379   5.028   3.547   5.971 -0.2136 -0.3589  0.0957
  648MOL0     C87380   5.129   3.506   6.064  0.0069 -0.2346 -0.1837
  648MOL0     O87381   5.229   3.430   6.014  0.0247 -0.0094  0.5654
  648MOL0     C87382   5.315   3.347   6.102  0.6802 -0.1248  0.7027
  648MOL0     C87383   5.417   3.258   6.023 -0.1703  0.0190 -0.3100
  648MOL0     C87384   5.525   3.348   5.953  0.3498  0.5074  0.6951
  648MOL0     C87385   5.637   3.255   5.899 -0.2926 -0.1800 -0.2160
  648MOL0     C87386   5.730   3.336   5.803  0.5234  0.0970 -0.1441
  648MOL0     C87387   5.848   3.400   5.866  0.5964  0.1007  0.0228
  648MOL0     C87388   5.955   3.458   5.781  0.6722  0.1020  0.2462
  648MOL0     C87389   6.071   3.538   5.863 -0.0585 -0.3232 -0.7863
  648MOL0    Cl87390   6.006   3.685   5.928  0.7319  0.3921  0.1685
  648MOL0     C87391   5.129   3.564   6.188 -0.2039  0.0597 -0.1203
  648MOL0     C87392   5.021   3.647   6.231  0.5921  0.1479 -1.0202
  648MOL0     O87393   4.639   3.623   6.076 -0.3486  0.5673  0.6853
  648MOL0     C87394   4.461   3.831   6.121 -0.6348 -0.0313  0.1935
  648MOL0     C87395   4.344   3.890   6.170  0.7280  0.1884  0.9594
  648MOL0     N87396   3.768   4.420   6.192 -0.6095 -0.8962  1.0015
  648MOL0     N87397   3.670   4.434   6.113 -0.2097 -0.3948 -1.1366
  648MOL0     C87398   2.887   3.653   5.501  0.7893 -0.7355 -0.1924
  648MOL0     C87399   2.856   3.563   5.407 -0.5083 -0.4055 -0.7072
  648MOL0     C87400   2.878   3.315   5.025  0.2728 -0.6959 -0.4895
  648MOL0     C87401   2.958   3.246   4.932 -0.6094 -0.5045  1.0736
  648MOL0     C87402   2.898   3.170   4.828 -0.3563  0.1093 -0.2375
  648MOL0     C87403   2.753   3.166   4.821  0.6264 -0.4444 -0.8952
  648MOL0     O87404   2.682   3.108   4.713 -0.3177 -0.0252 -0.7422
  648MOL0     C87405   2.751   3.052   4.591 -0.1143 -0.9088  0.0696
  648MOL0     C87406   2.680   3.104   4.465 -0.3205 -0.1155 -0.0957
  648MOL0     C87407   2.662   3.254   4.464 -0.0354  0.0502  0.8017
  648MOL0     C87408   2.617   3.316   4.337  1.0184  0.0516  0.1016
  648MOL0     C87409   2.555   3.446   4.371 -0.3715  0.2492 -0.4541
  648MOL0     C87410   2.482   3.543   4.391  0.1644  0.7812 -0.2076
  648MOL0     C87411   2.680   3.221   4.915 -0.5980 -0.0518 -0.0719
  648MOL0     C87412   2.742   3.294   5.024  0.3511 -0.2696  1.9152
  648MOL0     H87413   2.905   3.736   5.124 -4.0885  1.5485  0.9386
  648MOL0     H87414   2.958   3.915   5.294  1.8762  0.1002 -0.3036
  648MOL0     H87415   3.104   3.984   5.453 -1.4417  0.7092 -0.6202
  648MOL0     H87416   2.958   4.069   5.513 -1.0323 -1.2620  0.9349
  648MOL0     H87417   3.138   3.971   5.730 -0.6149  0.0088 -0.2494
  648MOL0     H87418   3.214   4.079   5.596 -2.1664  2.3743 -2.5091
  648MOL0     H87419   3.112   4.266   5.636  3.7945  1.6742  4.0459
  648MOL0     H87420   2.960   4.182   5.695  0.0712  0.5201 -0.8087
  648MOL0     H87421   3.031   4.290   5.877 -0.9145 -0.1368 -0.7941
  648MOL0     H87422   3.053   4.113   5.899  2.1521 -1.5430 -0.9788
  648MOL0     H87423   3.242   4.145   5.985  1.2848  2.2611  1.6716
  648MOL0     H87424   3.308   4.160   5.826  0.7218 -0.5160  1.0906
  648MOL0     H87425   3.238   4.409   5.834 -2.5942  0.4092  0.2036
  648MOL0     H87426   3.220   4.403   5.997 -1.0225  2.6447 -1.1682
  648MOL0     H87427   3.489   4.308   5.868 -1.4972 -2.4034 -1.6408
  648MOL0     H87428   3.455   4.471   5.924 -2.5407  1.5188  1.1696
  648MOL0     H87429   3.409   4.215   6.099 -1.2785 -0.2879  0.3381
  648MOL0     H87430   3.382   4.382   6.152  0.3028  2.1063  0.1882
  648MOL0     H87431   3.602   4.186   6.325  1.7483  0.2461  1.6677
  648MOL0     H87432   3.928   4.359   6.408  0.4932 -0.1858  2.5604
  648MOL0     H87433   3.825   4.226   6.465 -1.9006 -2.0178 -1.0311
  648MOL0     H87434   4.074   4.236   6.320 -1.1889  1.0258  1.1649
  648MOL0     H87435   3.949   4.161   6.205 -1.4365  3.2893  0.0850
  648MOL0     H87436   3.888   3.986   6.376  1.0586 -0.4564  0.5921
  648MOL0     H87437   3.990   4.049   6.494  1.7533  1.2624 -0.6683
  648MOL0     H87438   4.073   3.938   6.223  2.3262 -1.9119 -0.4420
  648MOL0     H87439   4.079   3.841   6.365  0.7637 -1.5673 -3.4933
  648MOL0     H87440   4.430   3.939   6.491  1.3948 -2.2568  1.4621
  648MOL0     H87441   4.725   3.862   6.445  0.1632  0.1553  0.8827
  648MOL0     H87442   4.607   3.808   6.548 -0.8216  1.7120 -0.6351
  648MOL0     H87443   4.679   3.686   6.426 -1.4216  0.1474  0.3137
  648MOL0     H87444   4.851   3.628   5.939  0.8202 -0.8440 -0.9234
  648MOL0     H87445   5.014   3.526   5.865 -3.2424  0.6483  0.2080
  648MOL0     H87446   5.380   3.414   6.160  1.3865 -1.4976  1.5528
  648MOL0     H87447   5.246   3.282   6.156  0.0844  1.2642  1.6756
  648MOL0     H87448   5.469   3.194   6.096  0.7527 -3.4197 -3.6278
  648MOL0     H87449   5.366   3.196   5.948 -1.1195  0.6242 -0.1885
  648MOL0     H87450   5.572   3.422   6.018 -0.1192  1.5329 -0.0960
  648MOL0     H87451   5.487   3.401   5.865  1.8010  1.5134  0.6396
  648MOL0     H87452   5.693   3.197   5.973  0.2444  0.7668  0.1347
  648MOL0     H87453   5.594   3.170   5.845  1.3850 -1.9729  1.1263
  648MOL0     H87454   5.678   3.422   5.758  0.2846  0.0043 -0.0470
  648MOL0     H87455   5.766   3.277   5.718  1.6491  1.7867 -0.9048
  648MOL0     H87456   5.814   3.492   5.915  4.1717  1.3753  0.4172
  648MOL0     H87457   5.905   3.337   5.935 -0.6612 -0.2056  0.8190
  648MOL0     H87458   5.915   3.520   5.701  0.3282  0.4705  0.7012
  648MOL0     H87459   6.000   3.369   5.735  0.6492  0.8954 -1.3398
  648MOL0     H87460   6.148   3.578   5.797 -1.4538  2.1238 -1.0648
  648MOL0     H87461   6.121   3.483   5.943  0.0555  1.4292  0.4157
  648MOL0     H87462   5.211   3.535   6.252 -0.4234  1.0903  0.6531
  648MOL0     H87463   5.029   3.695   6.328  0.6502 -3.6113  1.0261
  648MOL0     H87464   4.468   3.800   6.017 -0.2604  1.2394 -0.1683
  648MOL0     H87465   4.261   3.918   6.105  0.2602 -1.5960  0.7207
  648MOL0     H87466   2.873   3.603   5.596  2.9707 -1.9739 -0.4594
  648MOL0     H87467   2.815   3.468   5.437  1.2727 -1.4935 -1.5819
  648MOL0     H87468   3.065   3.261   4.940 -0.3340 -0.1641 -2.1050
  648MOL0     H87469   2.961   3.127   4.751 -0.0527  0.0515  0.0434
  648MOL0     H87470   2.846   3.102   4.570 -0.8880  0.4788 -0.2304
  648MOL0     H87471   2.753   2.943   4.602  1.0468 -0.9073 -0.0073
  648MOL0     H87472   2.577   3.068   4.453 -0.7643  1.2320 -0.5115
  648MOL0     H87473   2.735   3.073   4.376 -0.3847 -0.4112 -0.0332
  648MOL0     H87474   2.744   3.321   4.493 -0.1144  1.2236 -1.4994
  648MOL0     H87475   2.583   3.273   4.537  0.0637  2.4986  0.3677
  648MOL0     H87476   2.545   3.254   4.282 -0.7938  2.4207 -0.3379
  648MOL0     H87477   2.702   3.333   4.271  0.4459 -0.8172 -0.8922
  648MOL0     H87478   2.423   3.627   4.422  0.3285  0.6178  0.5735
  648MOL0     H87479   2.572   3.210   4.921 -0.4285 -2.0824 -0.0504
  648MOL0     H87480   2.680   3.330   5.107 -1.0394  0.6457  0.5432
  649MOL0     O87481   7.163   6.297   8.919 -0.3663 -1.0503 -0.2697
  649MOL0     C87482   7.142   6.419   8.923 -0.9310  0.1659 -0.1378
  649MOL0     O87483   7.239   6.516   8.924 -0.1100  0.6093 -0.2739
  649MOL0     C87484   7.377   6.496   8.938 -0.5533 -0.1328 -0.3661
  649MOL0     C87485   7.457   6.597   8.874  0.8736  1.0763  0.4853
  649MOL0     C87486   7.593   6.583   8.886 -0.7166 -0.0783  0.2435
  649MOL0     C87487   7.659   6.486   8.966  0.3634  0.5850  0.1381
  649MOL0     O87488   7.791   6.475   8.980 -0.0545  0.2363  0.0958
  649MOL0     C87489   7.885   6.579   8.948  0.0842 -0.5361  0.4511
  649MOL0     C87490   7.900   6.571   8.790  0.4413  0.1186 -0.7550
  649MOL0     C87491   7.919   6.697   8.705  0.5193 -0.2588  0.6407
  649MOL0     C87492   7.929   6.659   8.560 -0.5070  0.4770  0.2377
  649MOL0     C87493   7.972   6.773   8.466  0.1480  0.0003  0.1087
  649MOL0     C87494   8.115   6.821   8.479 -0.1264 -0.2090  0.4372
  649MOL0     C87495   8.142   6.929   8.371 -0.3025  0.1059  0.4901
  649MOL0     C87496   8.278   6.987   8.404  0.6359 -0.4571  0.2475
  649MOL0     N87497   8.289   7.087   8.299 -0.8661  0.1489 -0.0038
  649MOL0     C87498   8.237   7.215   8.266 -0.9308  0.8353 -0.9466
  649MOL0     C87499   8.301   7.258   8.150 -0.2692  0.4360  0.1253
  649MOL0     C87500   8.279   7.378   8.071 -0.7755  0.8205  0.0371
  649MOL0     C87501   8.306   7.506   8.152  0.4664  0.4397  0.0027
  649MOL0     C87502   8.260   7.613   8.059 -0.1806  0.1380  0.2124
  649MOL0     C87503   8.260   7.750   8.150 -0.2427  0.1957 -0.1043
  649MOL0     O87504   8.149   7.740   8.241  0.3210 -0.2206  0.5071
  649MOL0     C87505   8.119   7.827   8.343 -0.3075 -0.2474  0.5653
  649MOL0     C87506   8.002   7.812   8.407 -0.8570 -0.0092  0.0818
  649MOL0     C87507   7.966   7.893   8.518 -0.8319 -0.8150  1.0866
  649MOL0     C87508   7.830   7.885   8.567 -0.7566 -0.0680  0.6963
  649MOL0     C87509   8.056   7.991   8.562  0.2147 -0.0420 -0.3194
  649MOL0     C87510   8.022   8.090   8.663  0.4157 -0.8284 -0.1347
  649MOL0     O87511   7.897   8.151   8.654 -0.0973  0.2845 -0.9005
  649MOL0     C87512   7.858   8.241   8.744  0.1615 -0.2312  0.6261
  649MOL0     C87513   7.946   8.331   8.807  0.1102 -0.2440 -0.1130
  649MOL0     C87514   7.898   8.399   8.920 -0.0613 -0.8552 -0.1733
  649MOL0     C87515   7.769   8.380   8.965 -0.3940 -0.0682 -0.8215
  649MOL0     O87516   7.721   8.419   9.081  0.3805  0.7122  0.5795
  649MOL0     C87517   7.815   8.456   9.190  0.1699 -0.0025  0.5376
  649MOL0     C87518   7.725   8.524   9.290 -0.7470  0.4082  0.8180
  649MOL0     C87519   7.806   8.599   9.391 -0.2958 -0.0329 -0.5482
  649MOL0     C87520   7.708   8.679   9.474  0.1831 -0.5079  0.2220
  649MOL0     C87521   7.768   8.737   9.604 -0.8156  0.0097  0.2672
  649MOL0     C87522   7.684   8.743   9.727  0.3035 -0.7891  0.2897
  649MOL0     C87523   7.648   8.607   9.773 -1.0369 -0.2726 -0.2620
  649MOL0     C87524   7.608   8.587   9.919 -0.3207 -1.0529 -0.1604
  649MOL0    Cl87525   7.641   8.426   9.981  0.0935  0.2039 -0.1292
  649MOL0     C87526   7.676   8.319   8.884 -0.5996 -0.1385 -0.2552
  649MOL0     C87527   7.724   8.249   8.772  0.3887 -0.0164 -0.2735
  649MOL0     O87528   8.115   8.119   8.740  0.0437 -0.0678 -0.2668
  649MOL0     C87529   8.180   8.010   8.497  0.2830  0.3874  0.5595
  649MOL0     C87530   8.208   7.923   8.391  1.2654 -0.8393 -0.4273
  649MOL0     N87531   8.389   7.150   8.125  0.7982  0.0682 -0.1787
  649MOL0     N87532   8.385   7.063   8.210 -0.3767  0.8127  0.9843
  649MOL0     C87533   7.579   6.377   9.008 -0.3248 -0.4168 -0.3589
  649MOL0     C87534   7.442   6.383   8.990  0.0285 -0.1453  0.0900
  649MOL0     C87535   7.006   6.465   8.919 -0.2522 -0.4599 -0.2654
  649MOL0     C87536   6.898   6.384   8.955 -0.6905  0.2146 -0.4309
  649MOL0     C87537   6.770   6.427   8.961 -0.2770 -0.1645 -0.1704
  649MOL0     C87538   6.740   6.562   8.925 -0.3449 -0.1169  0.0595
  649MOL0     O87539   6.614   6.621   8.918  0.2028  0.6033  0.4046
  649MOL0     C87540   6.521   6.552   8.991  0.4321  0.0086 -0.1448
  649MOL0     C87541   6.412   6.643   9.038 -0.3475  0.8800 -0.0844
  649MOL0     C87542   6.338   6.709   8.924  0.3772 -0.5567 -0.4304
  649MOL0     C87543   6.208   6.635   8.870 -0.6189  0.3690 -0.1262
  649MOL0     C87544   6.083   6.640   8.954 -0.9239  0.1192 -0.9438
  649MOL0     C87545   5.988   6.656   9.031  0.5264  0.4919  0.2178
  649MOL0     C87546   6.844   6.648   8.889 -0.7510  0.6371  0.2582
  649MOL0     C87547   6.981   6.602   8.890 -0.3133  0.2263 -0.1585
  649MOL0     H87548   7.417   6.673   8.808  0.7830 -0.6667 -1.5918
  649MOL0     H87549   7.656   6.662   8.848 -4.4628  1.6784 -3.0620
  649MOL0     H87550   7.855   6.679   8.981 -0.7806 -0.9199  0.8623
  649MOL0     H87551   7.981   6.567   9.000  0.4534  0.1655 -0.0481
  649MOL0     H87552   7.999   6.525   8.779  2.1803  3.3104  0.1250
  649MOL0     H87553   7.818   6.515   8.745  1.5686 -0.1823 -2.5448
  649MOL0     H87554   7.841   6.770   8.729 -0.0907 -0.1357 -1.4844
  649MOL0     H87555   8.016   6.742   8.726  1.7230 -0.9763 -2.7723
  649MOL0     H87556   7.998   6.574   8.551  1.0142  1.4495  1.9469
  649MOL0     H87557   7.834   6.618   8.525  0.3774 -0.7884 -0.8023
  649MOL0     H87558   7.957   6.737   8.364 -1.4742  2.1895 -0.4799
  649MOL0     H87559   7.908   6.857   8.494 -2.0807 -1.3188 -0.7239
  649MOL0     H87560   8.145   6.866   8.574 -1.8103  2.9978 -0.4232
  649MOL0     H87561   8.191   6.743   8.471  0.7249  0.4483  1.7117
  649MOL0     H87562   8.122   6.898   8.268 -1.4621  2.4519 -0.0713
  649MOL0     H87563   8.064   7.003   8.389 -1.6337 -1.4984  1.6011
  649MOL0     H87564   8.358   6.913   8.393  0.6416 -0.2436 -1.3035
  649MOL0     H87565   8.288   7.034   8.503 -0.1464  2.6882 -1.0645
  649MOL0     H87566   8.163   7.276   8.318 -0.7176  1.6204 -1.5385
  649MOL0     H87567   8.318   7.388   7.969  0.0177  1.0853  0.3547
  649MOL0     H87568   8.172   7.371   8.051 -1.3997  5.5368  0.5667
  649MOL0     H87569   8.408   7.525   8.187 -0.4706  0.8932  2.7709
  649MOL0     H87570   8.246   7.502   8.244  1.0860 -1.4117  0.3850
  649MOL0     H87571   8.153   7.602   8.038 -1.2428  1.9367  3.8225
  649MOL0     H87572   8.321   7.605   7.969 -0.6949 -1.3661 -0.0299
  649MOL0     H87573   8.253   7.835   8.083  0.8432 -1.2295 -2.1524
  649MOL0     H87574   8.352   7.761   8.209  0.1031 -3.1603  0.1861
  649MOL0     H87575   7.943   7.730   8.367  1.2300  0.5381 -4.8511
  649MOL0     H87576   7.772   7.974   8.545 -0.3784 -0.4026 -2.0055
  649MOL0     H87577   7.777   7.795   8.533  0.4146 -0.8775  0.9321
  649MOL0     H87578   7.828   7.877   8.676  3.3155 -0.1480  0.9441
  649MOL0     H87579   8.050   8.334   8.778 -0.5647 -3.8527 -3.9335
  649MOL0     H87580   7.972   8.460   8.972 -0.3777 -0.9787  0.4351
  649MOL0     H87581   7.856   8.365   9.235 -0.0991 -0.1050  0.5772
  649MOL0     H87582   7.894   8.524   9.157  3.2624 -3.2337  0.6851
  649MOL0     H87583   7.668   8.601   9.236  2.6090  3.1564  0.8598
  649MOL0     H87584   7.659   8.458   9.346 -0.0011 -0.2258  0.9637
  649MOL0     H87585   7.887   8.663   9.354  0.6974 -0.5136  0.7026
  649MOL0     H87586   7.854   8.523   9.454 -0.8346  2.3714  3.0862
  649MOL0     H87587   7.660   8.761   9.420 -0.6725 -0.6716  0.7152
  649MOL0     H87588   7.630   8.612   9.512 -0.0086  1.0370  2.7473
  649MOL0     H87589   7.803   8.838   9.579  2.8015 -1.1936 -0.2127
  649MOL0     H87590   7.860   8.681   9.626  0.4415  1.0879 -1.8998
  649MOL0     H87591   7.730   8.791   9.814  1.1331 -3.0731  1.1981
  649MOL0     H87592   7.590   8.795   9.708  0.0505 -1.0936  0.6889
  649MOL0     H87593   7.743   8.553   9.770  0.5230  2.3551 -1.4281
  649MOL0     H87594   7.573   8.554   9.713 -1.1061 -0.2613 -0.1859
  649MOL0     H87595   7.500   8.607   9.928  0.1070  0.3757  3.5108
  649MOL0     H87596   7.661   8.663   9.977  1.0600 -1.1586 -1.2238
  649MOL0     H87597   7.571   8.333   8.906 -0.4293  2.0592 -0.6420
  649MOL0     H87598   7.656   8.201   8.703  1.6865 -0.2226 -1.4351
  649MOL0     H87599   8.262   8.064   8.543  1.9396 -1.0145 -0.6070
  649MOL0     H87600   8.304   7.928   8.341  0.4953 -2.3220 -2.1842
  649MOL0     H87601   7.615   6.294   9.067 -3.8636 -3.8922 -2.6342
  649MOL0     H87602   7.380   6.306   9.035 -2.1661  1.4247 -0.0635
  649MOL0     H87603   6.929   6.283   8.979  1.6314  1.1395  0.8471
  649MOL0     H87604   6.692   6.353   8.976  0.2726 -0.3969  1.8453
  649MOL0     H87605   6.476   6.463   8.945 -4.3323  2.2058 -0.2999
  649MOL0     H87606   6.573   6.515   9.080  2.1314  1.8482 -0.2941
  649MOL0     H87607   6.461   6.722   9.096  0.5039  1.2422 -1.2679
  649MOL0     H87608   6.336   6.585   9.091 -0.6655  0.1444 -1.3144
  649MOL0     H87609   6.400   6.733   8.836 -1.4667  0.1136 -1.6182
  649MOL0     H87610   6.306   6.804   8.969 -0.0031 -1.6533  1.7182
  649MOL0     H87611   6.240   6.532   8.854 -0.2835  0.7154 -1.9290
  649MOL0     H87612   6.188   6.676   8.770 -0.8213  1.2525  0.2642
  649MOL0     H87613   5.907   6.677   9.098  2.6713  0.6689  2.9546
  649MOL0     H87614   6.829   6.752   8.862  0.4162  1.9070  3.8912
  649MOL0     H87615   7.059   6.673   8.864 -1.5664  2.1815  1.1972
  650MOL0     O87616  11.426  10.053   7.978 -0.1242 -0.3427  0.7610
  650MOL0     C87617  11.410   9.931   7.969 -0.6688  0.4758 -1.0279
  650MOL0     O87618  11.367   9.866   8.079  0.7930 -0.2025 -0.2111
  650MOL0     C87619  11.325   9.938   8.193 -0.0363  0.2987  0.4768
  650MOL0     C87620  11.398   9.926   8.314  0.8737 -0.4868 -0.1942
  650MOL0     C87621  11.361  10.008   8.424  0.5220  0.0379  0.8127
  650MOL0     C87622  11.246  10.090   8.421 -0.5422  0.0751  0.2827
  650MOL0     O87623  11.198  10.173   8.529 -0.0305 -0.5114 -0.6531
  650MOL0     C87624  11.295  10.241   8.603  1.1634 -0.5333  1.1253
  650MOL0     C87625  11.348  10.362   8.539  0.5268 -1.6048  0.9537
  650MOL0     C87626  11.232  10.465   8.497 -0.2752 -0.4348  0.0257
  650MOL0     C87627  11.217  10.577   8.607  0.9265 -1.5924 -0.2549
  650MOL0     C87628  11.154  10.705   8.550 -0.8540  0.3326 -0.0925
  650MOL0     C87629  11.153  10.825   8.652 -0.1649 -0.1400  0.6182
  650MOL0     C87630  11.115  10.950   8.570 -0.1747  1.1753  0.8646
  650MOL0     C87631  10.986  11.017   8.616 -0.5452 -0.3047 -0.1834
  650MOL0     N87632  10.986  11.160   8.599 -0.3577  0.2427 -0.3557
  650MOL0     C87633  11.021  11.233   8.488 -0.4094  0.0952 -0.3199
  650MOL0     C87634  11.000  11.364   8.539 -0.0066 -0.1947  0.5603
  650MOL0     C87635  11.011  11.490   8.458  0.2002  0.3298 -0.3859
  650MOL0     C87636  10.880  11.542   8.399  0.6982  0.4558 -0.5577
  650MOL0     C87637  10.852  11.687   8.452 -0.1928  0.2713  0.1022
  650MOL0     C87638  10.703  11.711   8.415 -0.2239 -0.0335  0.2801
  650MOL0     O87639  10.665  11.702   8.277  0.4973 -0.4021  0.0551
  650MOL0     C87640  10.541  11.651   8.251  0.4406  0.8378 -0.0269
  650MOL0     C87641  10.471  11.708   8.151  0.1295 -0.6379 -0.6269
  650MOL0     C87642  10.349  11.660   8.107  0.5267  0.3338 -0.0556
  650MOL0     C87643  10.276  11.733   7.996 -0.6181  0.7151  1.0888
  650MOL0     C87644  10.283  11.549   8.171 -0.2954 -0.4899 -0.1940
  650MOL0     C87645  10.142  11.496   8.148  0.0339  0.3742 -1.2260
  650MOL0     O87646  10.059  11.580   8.085 -0.3248 -0.1406 -0.4306
  650MOL0     C87647   9.934  11.532   8.072 -0.6171 -0.0549  0.5547
  650MOL0     C87648   9.831  11.599   8.147  0.7468  0.3498  0.8681
  650MOL0     C87649   9.697  11.549   8.139 -0.1068  0.1862 -0.3413
  650MOL0     C87650   9.659  11.433   8.070 -0.7094  0.9693 -0.3979
  650MOL0     O87651   9.539  11.370   8.086 -0.2687  0.4144 -0.5027
  650MOL0     C87652   9.502  11.357   8.222  0.0029  0.4923 -0.0234
  650MOL0     C87653   9.596  11.263   8.289 -0.4233 -0.8492 -0.5442
  650MOL0     C87654   9.565  11.230   8.439  0.5202 -1.3673 -0.1044
  650MOL0     C87655   9.618  11.087   8.489  1.0331 -0.4178 -0.4396
  650MOL0     C87656   9.558  11.061   8.631 -0.9814 -0.4553  0.1171
  650MOL0     C87657   9.412  11.029   8.622  0.1335 -0.5178  0.5931
  650MOL0     C87658   9.343  11.025   8.765  0.2802 -0.6041 -0.0986
  650MOL0     C87659   9.342  10.884   8.821 -1.2894  0.3990 -0.4815
  650MOL0    Cl87660   9.200  10.799   8.767 -0.0308 -0.0963 -0.6062
  650MOL0     C87661   9.761  11.373   7.991 -0.2244  0.5848  0.7731
  650MOL0     C87662   9.891  11.421   7.989 -0.1491 -0.3986  1.5132
  650MOL0     O87663  10.122  11.388   8.190  0.5722  0.7408  0.4274
  650MOL0     C87664  10.356  11.491   8.276 -1.7819  0.6673  0.1233
  650MOL0     C87665  10.481  11.542   8.316 -1.5349  0.4335 -0.3521
  650MOL0     N87666  10.955  11.362   8.660  1.2514  1.1810  0.0877
  650MOL0     N87667  10.953  11.242   8.705  0.3396 -0.5462 -0.1358
  650MOL0     C87668  11.164  10.090   8.303 -0.5360  0.3825  0.5906
  650MOL0     C87669  11.208  10.013   8.195  0.8476  0.9322 -0.7593
  650MOL0     C87670  11.440   9.862   7.845 -1.1316 -0.5497  0.4774
  650MOL0     C87671  11.441   9.926   7.719 -0.1667  0.6992  0.0284
  650MOL0     C87672  11.492   9.856   7.611  0.1145 -0.2759  0.1595
  650MOL0     C87673  11.533   9.724   7.618 -0.5684  0.7066  0.0795
  650MOL0     O87674  11.578   9.668   7.498  0.1614  0.4535  0.1068
  650MOL0     C87675  11.536   9.537   7.457  0.0864  0.2048  1.0493
  650MOL0     C87676  11.432   9.566   7.346  0.4507  0.1092 -0.8813
  650MOL0     C87677  11.353   9.434   7.315 -0.0522  0.0110 -0.5432
  650MOL0     C87678  11.424   9.342   7.206 -0.3631  0.2095  0.6571
  650MOL0     C87679  11.371   9.204   7.194  0.0663  0.0155 -0.0820
  650MOL0     C87680  11.320   9.099   7.172  0.6763  0.3616 -1.5360
  650MOL0     C87681  11.527   9.660   7.740 -0.4572 -0.7480 -0.4700
  650MOL0     C87682  11.479   9.726   7.853 -0.3669 -0.5178  0.2519
  650MOL0     H87683  11.486   9.863   8.326 -0.1845 -1.5826  2.5461
  650MOL0     H87684  11.430  10.006   8.508 -0.7128 -0.2454  1.8586
  650MOL0     H87685  11.244  10.279   8.692 -1.3112 -0.3166 -0.2648
  650MOL0     H87686  11.374  10.170   8.628  2.0695  0.4764  1.1712
  650MOL0     H87687  11.429  10.400   8.602 -1.0060 -0.5573  2.3925
  650MOL0     H87688  11.396  10.332   8.446 -0.6973  0.1743 -0.3196
  650MOL0     H87689  11.248  10.520   8.404  0.6163  0.8758  0.9226
  650MOL0     H87690  11.140  10.408   8.476 -0.5905  0.0201  0.1524
  650MOL0     H87691  11.150  10.542   8.686  2.7610  1.4549  2.9033
  650MOL0     H87692  11.316  10.606   8.643 -0.4997  1.7999  1.3253
  650MOL0     H87693  11.220  10.731   8.466  0.3380 -1.5483  0.1971
  650MOL0     H87694  11.052  10.685   8.516 -0.5648 -0.1075 -0.7349
  650MOL0     H87695  11.085  10.799   8.734 -0.3571 -2.3499 -0.1451
  650MOL0     H87696  11.249  10.832   8.704  0.6751 -2.4324 -0.4847
  650MOL0     H87697  11.206  11.010   8.575  0.8921 -0.4725  2.0567
  650MOL0     H87698  11.126  10.932   8.462  2.3808 -0.3173  1.2955
  650MOL0     H87699  10.987  10.991   8.722 -0.2629 -0.2795 -0.1791
  650MOL0     H87700  10.900  10.965   8.575 -0.8294 -2.9380  3.3104
  650MOL0     H87701  11.057  11.212   8.388  2.4169  2.2569  0.1290
  650MOL0     H87702  11.056  11.555   8.533 -2.3198  0.3675  1.2096
  650MOL0     H87703  11.082  11.472   8.376  2.9865  1.6288  1.5723
  650MOL0     H87704  10.799  11.474   8.427 -0.0915  2.6973  3.2730
  650MOL0     H87705  10.890  11.553   8.291 -1.1729  1.6844 -0.6527
  650MOL0     H87706  10.909  11.765   8.402  4.1814 -2.1912  0.7174
  650MOL0     H87707  10.858  11.701   8.560  0.2445  1.8327 -0.1012
  650MOL0     H87708  10.675  11.816   8.427 -2.1410 -0.4400 -0.3141
  650MOL0     H87709  10.633  11.652   8.473 -1.8845  1.7918  0.2412
  650MOL0     H87710  10.525  11.793   8.110  1.3433 -2.2221 -2.5065
  650MOL0     H87711  10.180  11.773   8.032 -0.2814  2.2600  0.3518
  650MOL0     H87712  10.341  11.819   7.976 -0.2174  0.0837 -0.4071
  650MOL0     H87713  10.258  11.674   7.906 -0.3145  0.2744  1.3127
  650MOL0     H87714   9.862  11.674   8.220 -0.8876  1.3339  0.6218
  650MOL0     H87715   9.618  11.599   8.193 -1.8770 -1.0104 -1.7036
  650MOL0     H87716   9.489  11.455   8.270 -0.2602  1.5748 -2.1781
  650MOL0     H87717   9.401  11.315   8.215  0.7602 -1.2251 -1.2148
  650MOL0     H87718   9.609  11.172   8.229 -0.8642 -1.4169  0.2070
  650MOL0     H87719   9.686  11.324   8.302  0.5596 -2.4570  0.4861
  650MOL0     H87720   9.458  11.251   8.448  1.0027  1.9336 -0.6712
  650MOL0     H87721   9.607  11.309   8.503 -0.0400  0.8438 -2.3000
  650MOL0     H87722   9.589  11.013   8.414  1.0828 -0.2912 -0.5837
  650MOL0     H87723   9.727  11.080   8.493  1.0738 -1.1205 -1.9569
  650MOL0     H87724   9.573  11.154   8.685 -0.9056 -0.5871  0.3244
  650MOL0     H87725   9.605  10.973   8.677 -1.3646  0.1768  1.7989
  650MOL0     H87726   9.365  11.118   8.580  0.8887  1.1586  3.0792
  650MOL0     H87727   9.391  10.936   8.568  4.0557 -1.2164 -0.0571
  650MOL0     H87728   9.242  11.066   8.755 -0.1948 -1.9355 -1.0660
  650MOL0     H87729   9.397  11.082   8.840  1.7013 -4.0504  1.7283
  650MOL0     H87730   9.328  10.884   8.929 -1.3979 -2.4796 -0.4291
  650MOL0     H87731   9.430  10.823   8.804 -2.0125 -0.8067 -0.0245
  650MOL0     H87732   9.734  11.282   7.938 -0.7602  0.9088  0.4739
  650MOL0     H87733   9.949  11.355   7.926 -2.5247 -5.1857  3.8301
  650MOL0     H87734  10.324  11.407   8.338  1.0729 -0.6860 -0.0638
  650MOL0     H87735  10.547  11.487   8.382  1.7178  0.9460 -2.9372
  650MOL0     H87736  11.073  10.149   8.300  0.8137  2.5637  0.2664
  650MOL0     H87737  11.158  10.011   8.099 -1.2015 -1.8595  0.2684
  650MOL0     H87738  11.402  10.024   7.696 -2.2793 -0.4526 -1.7706
  650MOL0     H87739  11.518   9.895   7.513  3.6671 -0.9052  0.6812
  650MOL0     H87740  11.618   9.476   7.419  0.5328  0.0217  2.2579
  650MOL0     H87741  11.487   9.483   7.539 -0.6398  1.0336  1.1782
  650MOL0     H87742  11.475   9.599   7.251  1.8758 -2.1975 -1.1208
  650MOL0     H87743  11.368   9.647   7.382 -1.4536 -0.5577 -2.5624
  650MOL0     H87744  11.259   9.451   7.260 -0.0078 -0.7738 -0.8725
  650MOL0     H87745  11.323   9.380   7.405 -4.4397  2.2953 -0.3493
  650MOL0     H87746  11.530   9.341   7.233 -0.3871  1.2496  0.8325
  650MOL0     H87747  11.423   9.387   7.106  0.2996  1.1654  1.0683
  650MOL0     H87748  11.260   9.010   7.164 -0.3614  0.7124  1.1906
  650MOL0     H87749  11.590   9.572   7.741  0.6688  0.0396  0.0411
  650MOL0     H87750  11.501   9.675   7.946  3.3402 -3.3889 -1.9254
  651MOL0     O87751   0.368   2.168   3.018  0.5286  0.3971  0.2036
  651MOL0     C87752   0.415   2.141   2.906  0.6622 -0.0298  0.3284
  651MOL0     O87753   0.505   2.216   2.831  0.0091  0.0365  0.7537
  651MOL0     C87754   0.546   2.345   2.869 -0.6181 -0.1748  0.1960
  651MOL0     C87755   0.564   2.444   2.775  0.5039  0.3499  0.6978
  651MOL0     C87756   0.596   2.570   2.806 -0.0666 -0.3954  0.3837
  651MOL0     C87757   0.621   2.603   2.936  0.2671  0.7829  0.0233
  651MOL0     O87758   0.666   2.729   2.957 -0.5102 -0.1001 -0.4752
  651MOL0     C87759   0.750   2.761   3.071 -0.3227  0.1233 -0.1287
  651MOL0     C87760   0.801   2.893   3.021 -0.4153  0.1671 -0.3788
  651MOL0     C87761   0.847   2.971   3.144 -0.2142  1.3158  0.1209
  651MOL0     C87762   0.897   3.105   3.099  0.6240  0.8237  0.4838
  651MOL0     C87763   0.979   3.185   3.196 -0.1951  0.6131 -0.0573
  651MOL0     C87764   1.072   3.285   3.135  0.2158 -0.8352 -0.2100
  651MOL0     C87765   1.178   3.335   3.229  0.0409 -0.4015  0.2865
  651MOL0     C87766   1.122   3.387   3.364 -0.4609 -1.1415  0.1193
  651MOL0     N87767   1.212   3.485   3.419  0.2894 -0.5869  0.6177
  651MOL0     C87768   1.348   3.504   3.402  0.1018 -0.4843  0.7664
  651MOL0     C87769   1.384   3.612   3.478  0.8483  0.3959 -0.1704
  651MOL0     C87770   1.524   3.662   3.496  0.2208  0.2491 -0.0267
  651MOL0     C87771   1.545   3.807   3.446  0.4200 -0.0321  0.5757
  651MOL0     C87772   1.512   3.810   3.286 -0.5229  0.3555 -0.3479
  651MOL0     C87773   1.512   3.954   3.224 -0.4386  0.6485 -0.4315
  651MOL0     O87774   1.597   3.954   3.114 -0.7956  0.3473  0.6246
  651MOL0     C87775   1.623   4.064   3.034 -1.0823 -1.0308  0.1933
  651MOL0     C87776   1.728   4.053   2.944  0.0733 -0.0465  0.3214
  651MOL0     C87777   1.767   4.157   2.856  0.5340  0.1649  0.0944
  651MOL0     C87778   1.879   4.122   2.759 -0.5577 -0.0307 -0.4354
  651MOL0     C87779   1.694   4.286   2.865 -0.1971 -0.4177 -0.0941
  651MOL0     C87780   1.724   4.416   2.783 -0.8874  0.1631 -0.1808
  651MOL0     O87781   1.635   4.524   2.797  0.5751 -1.0930  0.4595
  651MOL0     C87782   1.626   4.632   2.705  0.5821  0.8861 -0.2587
  651MOL0     C87783   1.504   4.667   2.644  0.3395  0.1296  0.9139
  651MOL0     C87784   1.496   4.784   2.561 -0.5933  0.6955 -0.8158
  651MOL0     C87785   1.610   4.865   2.540  0.0463  0.1854 -0.2466
  651MOL0     O87786   1.586   4.975   2.469 -0.4262 -1.2258 -0.2280
  651MOL0     C87787   1.693   5.070   2.454  0.2168 -0.7266  0.2645
  651MOL0     C87788   1.707   5.128   2.315 -0.6247 -0.5132  0.1952
  651MOL0     C87789   1.717   5.019   2.215  0.6551  0.3969 -0.2620
  651MOL0     C87790   1.729   5.076   2.074 -1.3150 -0.0666 -0.0439
  651MOL0     C87791   1.607   5.113   2.002  0.0597 -0.6106  0.8396
  651MOL0     C87792   1.618   5.263   1.952 -0.4547  0.3690  0.5119
  651MOL0     C87793   1.499   5.309   1.875 -0.8971 -0.7809  0.0187
  651MOL0     C87794   1.511   5.238   1.740  0.3479  0.0201 -0.7871
  651MOL0    Cl87795   1.423   5.338   1.616  0.0742  0.0703  0.2747
  651MOL0     C87796   1.737   4.815   2.577  0.2815  0.5934 -0.1543
  651MOL0     C87797   1.744   4.707   2.663 -0.1392 -0.2760 -0.8909
  651MOL0     O87798   1.807   4.404   2.693 -0.9359 -0.8366 -0.3923
  651MOL0     C87799   1.588   4.289   2.958 -0.4055 -0.2997  0.0116
  651MOL0     C87800   1.552   4.182   3.044  0.2890  0.2590  0.3285
  651MOL0     N87801   1.269   3.670   3.533  0.4793  0.1953 -0.1479
  651MOL0     N87802   1.168   3.590   3.502 -0.6103 -0.4853  0.9919
  651MOL0     C87803   0.605   2.503   3.035 -0.2271 -0.2078  0.7308
  651MOL0     C87804   0.563   2.384   3.002 -0.1130  0.7526  0.0604
  651MOL0     C87805   0.387   2.014   2.842  0.5555  0.1591 -0.6978
  651MOL0     C87806   0.442   1.986   2.715 -1.6097  0.1336  0.5903
  651MOL0     C87807   0.420   1.870   2.638  1.0836  0.5405 -0.0302
  651MOL0     C87808   0.338   1.777   2.694 -0.0393 -1.0745  1.1194
  651MOL0     O87809   0.312   1.666   2.620 -0.4677 -0.3193 -0.0327
  651MOL0     C87810   0.174   1.651   2.597  0.5547  0.5084  0.0283
  651MOL0     C87811   0.134   1.508   2.614 -0.0856  0.0211  0.4527
  651MOL0     C87812   0.195   1.412   2.504  0.8230 -0.0391  0.5337
  651MOL0     C87813   0.213   1.470   2.361 -0.3686  0.2896 -0.1566
  651MOL0     C87814   0.284   1.371   2.283  0.1990 -0.7826 -0.1281
  651MOL0     C87815   0.348   1.291   2.221 -0.6207  0.9656 -0.0005
  651MOL0     C87816   0.285   1.792   2.817 -0.2830 -0.5557 -0.7809
  651MOL0     C87817   0.306   1.907   2.897  0.2040 -0.2583 -0.3720
  651MOL0     H87818   0.550   2.404   2.674  0.6191 -1.2849  1.2922
  651MOL0     H87819   0.618   2.657   2.746  1.8190  1.5260  3.5548
  651MOL0     H87820   0.685   2.777   3.157 -3.1887  4.2852 -2.6923
  651MOL0     H87821   0.822   2.681   3.093  0.2285  0.2044 -1.5004
  651MOL0     H87822   0.884   2.868   2.953 -2.0765 -2.1762 -1.6767
  651MOL0     H87823   0.722   2.945   2.966 -1.8443  0.1599  1.5741
  651MOL0     H87824   0.779   2.985   3.228  1.2113  0.3543  1.4763
  651MOL0     H87825   0.933   2.922   3.190 -0.7288  1.1535  0.9164
  651MOL0     H87826   0.961   3.095   3.011  0.2568  1.9045  0.0757
  651MOL0     H87827   0.811   3.163   3.064  0.7312  0.6713 -0.0416
  651MOL0     H87828   0.915   3.238   3.266 -0.5127  2.8330 -1.8939
  651MOL0     H87829   1.045   3.110   3.243 -1.7078  0.6180  2.2204
  651MOL0     H87830   1.119   3.230   3.053  0.0428  4.1170 -4.1007
  651MOL0     H87831   1.009   3.372   3.111 -0.8685 -1.2149  1.0801
  651MOL0     H87832   1.248   3.253   3.246 -0.1496 -0.4828  0.6785
  651MOL0     H87833   1.229   3.417   3.176  0.3135 -0.1523  0.9263
  651MOL0     H87834   1.132   3.304   3.434  3.9833  0.2498  1.4833
  651MOL0     H87835   1.030   3.447   3.362  0.1615 -0.1752 -0.8338
  651MOL0     H87836   1.411   3.434   3.348 -2.1481 -1.2833 -0.9610
  651MOL0     H87837   1.558   3.648   3.600  1.8284 -1.5703 -0.7169
  651MOL0     H87838   1.596   3.597   3.444 -0.9758 -2.1721  1.1657
  651MOL0     H87839   1.650   3.826   3.470  1.4655 -3.2657 -0.8487
  651MOL0     H87840   1.494   3.878   3.510 -0.1350  0.6493 -0.5958
  651MOL0     H87841   1.424   3.759   3.246  0.1780  0.7013 -2.4608
  651MOL0     H87842   1.600   3.755   3.252 -0.9304 -0.9927  0.6963
  651MOL0     H87843   1.564   4.025   3.289  0.3451  2.5752 -2.9809
  651MOL0     H87844   1.410   3.976   3.191  0.0507 -0.5112 -2.9063
  651MOL0     H87845   1.797   3.969   2.944  0.0787 -0.1007  2.4668
  651MOL0     H87846   1.840   4.095   2.660  2.0931 -0.9326 -1.3245
  651MOL0     H87847   1.947   4.205   2.737  0.8632 -0.9986  0.1028
  651MOL0     H87848   1.940   4.040   2.800  0.4930  2.7131  4.2515
  651MOL0     H87849   1.411   4.618   2.671  1.5195 -1.3683  2.4085
  651MOL0     H87850   1.394   4.805   2.529 -1.7003 -1.1915  1.1479
  651MOL0     H87851   1.679   5.160   2.515 -1.2996  1.1516 -2.5795
  651MOL0     H87852   1.795   5.046   2.484 -0.0186  0.2544  1.9852
  651MOL0     H87853   1.632   5.199   2.280  0.0095 -0.0534 -0.2654
  651MOL0     H87854   1.797   5.191   2.322 -2.9910  3.3321 -0.6710
  651MOL0     H87855   1.631   4.952   2.229  3.2551 -2.5566  4.0773
  651MOL0     H87856   1.800   4.954   2.244 -0.1947 -0.3783  0.4586
  651MOL0     H87857   1.813   5.146   2.077  1.0965 -2.7537  2.7016
  651MOL0     H87858   1.775   4.994   2.017  0.1262  0.6658 -0.0037
  651MOL0     H87859   1.518   5.102   2.066  1.1973  1.6431  2.9974
  651MOL0     H87860   1.601   5.034   1.927 -3.1174  1.4939 -1.3776
  651MOL0     H87861   1.624   5.325   2.042 -0.5894  1.4177 -0.1843
  651MOL0     H87862   1.712   5.286   1.901 -1.3819 -0.6020 -1.7617
  651MOL0     H87863   1.501   5.414   1.843 -2.2429 -0.4956  0.8046
  651MOL0     H87864   1.401   5.295   1.922 -2.1520 -0.6251 -2.3820
  651MOL0     H87865   1.464   5.140   1.754  2.0284 -1.0079 -1.9563
  651MOL0     H87866   1.616   5.228   1.710  0.0409 -0.5611 -1.6869
  651MOL0     H87867   1.825   4.865   2.536 -0.2407 -0.1584 -2.2731
  651MOL0     H87868   1.841   4.675   2.699 -0.1544 -3.3569 -3.2281
  651MOL0     H87869   1.534   4.381   2.978 -3.6798 -2.4030  1.7761
  651MOL0     H87870   1.465   4.188   3.108  0.4179  0.8627  0.4510
  651MOL0     H87871   0.633   2.520   3.139  2.5767 -0.6001  0.1285
  651MOL0     H87872   0.553   2.305   3.076  1.5014 -0.1872 -0.6583
  651MOL0     H87873   0.528   2.035   2.672 -0.7731  0.2845  2.3624
  651MOL0     H87874   0.456   1.848   2.538  0.6124  2.0513 -0.5573
  651MOL0     H87875   0.116   1.721   2.658  2.1147  1.4414  0.4974
  651MOL0     H87876   0.157   1.689   2.495  0.4896 -2.3461 -1.1132
  651MOL0     H87877   0.027   1.517   2.597 -0.2155 -0.0095  1.2139
  651MOL0     H87878   0.154   1.484   2.719 -0.4111  1.7294  0.9340
  651MOL0     H87879   0.117   1.335   2.507  0.2880  0.4154 -0.8941
  651MOL0     H87880   0.290   1.373   2.542  2.0907 -1.5721 -3.6910
  651MOL0     H87881   0.274   1.560   2.356  0.6854 -0.2707  1.7780
  651MOL0     H87882   0.115   1.502   2.325  1.1434  2.6134 -2.5129
  651MOL0     H87883   0.418   1.232   2.166 -1.0473  1.8447 -1.5361
  651MOL0     H87884   0.204   1.729   2.853 -2.6822  0.9609 -3.1206
  651MOL0     H87885   0.251   1.943   2.984 -2.0649 -0.1919 -1.7443
  652MOL0     O87886   0.376   6.703   1.997  0.0404 -0.5461 -0.6263
  652MOL0     C87887   0.256   6.742   1.993  0.1692  0.6447  0.1151
  652MOL0     O87888   0.201   6.816   1.896  0.2354 -0.0747 -1.0949
  652MOL0     C87889   0.245   6.797   1.770 -0.3024  0.7564  0.8097
  652MOL0     C87890   0.343   6.877   1.730  0.7123 -0.7648 -0.5495
  652MOL0     C87891   0.386   6.875   1.591 -0.6429  0.2189 -0.8516
  652MOL0     C87892   0.314   6.791   1.503 -0.7926  0.5290  0.3161
  652MOL0     O87893   0.354   6.782   1.379 -0.5060 -0.2497  0.0106
  652MOL0     C87894   0.352   6.650   1.310  0.5686 -0.1378  0.2539
  652MOL0     C87895   0.426   6.656   1.177 -0.6925  0.3512  0.6128
  652MOL0     C87896   0.569   6.711   1.190 -0.3279 -0.9096 -0.5124
  652MOL0     C87897   0.676   6.619   1.130  0.5446 -0.3351  0.1016
  652MOL0     C87898   0.671   6.600   0.985  0.9062 -1.0091  0.2537
  652MOL0     C87899   0.773   6.499   0.929  0.1320  0.1948 -0.3537
  652MOL0     C87900   0.769   6.497   0.780 -0.5106 -0.3063 -0.0333
  652MOL0     C87901   0.855   6.381   0.724 -0.5167  0.2307 -0.4245
  652MOL0     N87902   0.790   6.249   0.756 -0.1525 -1.3532  0.1952
  652MOL0     C87903   0.698   6.189   0.677 -0.2095 -0.1330  0.6749
  652MOL0     C87904   0.702   6.064   0.700 -0.1891  0.0820 -0.4622
  652MOL0     C87905   0.612   5.953   0.655  0.1524  0.1080 -0.1235
  652MOL0     C87906   0.655   5.917   0.511  0.4004  0.2575  0.0796
  652MOL0     C87907   0.547   5.848   0.424 -0.6387  0.5111  0.4999
  652MOL0     C87908   0.612   5.802   0.289 -0.0203 -0.0260 -0.1288
  652MOL0     O87909   0.693   5.686   0.310  0.0483  0.2498  0.9792
  652MOL0     C87910   0.811   5.678   0.248  0.0567 -0.5430 -0.7011
  652MOL0     C87911   0.844   5.550   0.201  0.1267  0.7207  0.3165
  652MOL0     C87912   0.963   5.523   0.145  0.7598  0.0550  0.3347
  652MOL0     C87913   0.994   5.383   0.114 -0.2266  0.3224 -0.2460
  652MOL0     C87914   1.049   5.629   0.124 -0.6827  0.7097  0.3045
  652MOL0     C87915   1.179   5.621   0.057  0.1303 -0.0192 -0.3969
  652MOL0     O87916   1.266   5.732   0.088 -0.7219 -0.3593  0.4822
  652MOL0     C87917   1.355   5.766  -0.005 -0.3521 -0.3564  1.0093
  652MOL0     C87918   1.488   5.732   0.015  0.7002  0.5331 -0.0575
  652MOL0     C87919   1.582   5.766  -0.079  0.5999  0.9201 -0.6401
  652MOL0     C87920   1.544   5.840  -0.194 -0.0662  0.3655 -0.3741
  652MOL0     O87921   1.650   5.867  -0.285  0.1063  0.4790  0.3817
  652MOL0     C87922   1.684   6.011  -0.278  0.4034  0.0299  0.8574
  652MOL0     C87923   1.641   6.087  -0.397  0.4997  0.8923 -0.5154
  652MOL0     C87924   1.718   6.223  -0.387  0.8977 -1.0049  0.2572
  652MOL0     C87925   1.698   6.318  -0.506  0.0999 -0.1416  0.8602
  652MOL0     C87926   1.780   6.445  -0.496  0.8751 -0.1320  1.2121
  652MOL0     C87927   1.761   6.520  -0.627 -0.5967 -0.9972 -0.3276
  652MOL0     C87928   1.840   6.652  -0.633 -0.4580 -0.3036 -0.5709
  652MOL0     C87929   1.764   6.761  -0.556  0.5883  0.0547 -0.3205
  652MOL0    Cl87930   1.610   6.785  -0.631  0.2986 -0.7604 -0.6401
  652MOL0     C87931   1.416   5.884  -0.210  0.4710  0.3309  0.3193
  652MOL0     C87932   1.320   5.842  -0.114 -0.2633  0.1704 -0.7594
  652MOL0     O87933   1.200   5.533  -0.026 -0.5594 -0.5238  0.0545
  652MOL0     C87934   1.023   5.754   0.186  0.3615 -0.4700 -0.0850
  652MOL0     C87935   0.898   5.780   0.247 -0.2805  0.9694  1.2536
  652MOL0     N87936   0.786   6.045   0.808 -1.0050  0.6027 -0.3244
  652MOL0     N87937   0.835   6.158   0.852 -0.7450  0.1943 -0.2046
  652MOL0     C87938   0.201   6.708   1.551 -1.0578 -0.4029  0.2254
  652MOL0     C87939   0.175   6.707   1.688  0.3436  0.1199  0.3852
  652MOL0     C87940   0.160   6.686   2.088  0.3217 -0.3478 -1.1515
  652MOL0     C87941   0.025   6.731   2.077 -0.5642  0.0792 -0.4327
  652MOL0     C87942  -0.068   6.697   2.180 -0.1248  0.9019 -0.8294
  652MOL0     C87943  -0.033   6.614   2.290  0.1687 -0.3303 -0.4493
  652MOL0     O87944  -0.111   6.578   2.392  0.5785  0.1959 -0.7902
  652MOL0     C87945  -0.232   6.653   2.428  0.4520 -0.0255  0.7153
  652MOL0     C87946  -0.316   6.573   2.527  0.0833 -1.2130 -1.1058
  652MOL0     C87947  -0.260   6.579   2.671 -0.0823 -0.2694 -0.8680
  652MOL0     C87948  -0.367   6.551   2.776 -0.2768 -1.2064 -0.4564
  652MOL0     C87949  -0.486   6.633   2.770 -0.3348  0.4134 -0.4163
  652MOL0     C87950  -0.583   6.699   2.752  0.1398  0.1911  0.4453
  652MOL0     C87951   0.096   6.559   2.296  0.7021 -0.4508 -0.0115
  652MOL0     C87952   0.191   6.599   2.202  0.4810 -0.3154 -0.5295
  652MOL0     H87953   0.395   6.941   1.801  2.3936 -0.3894 -2.0516
  652MOL0     H87954   0.480   6.921   1.561 -0.1095 -0.5518 -0.4007
  652MOL0     H87955   0.399   6.567   1.365  1.4572  0.8933  1.0848
  652MOL0     H87956   0.247   6.628   1.290  0.0016  1.6976  1.0623
  652MOL0     H87957   0.417   6.557   1.131  0.1533 -0.9009  2.9695
  652MOL0     H87958   0.374   6.723   1.107  0.1434 -0.8225 -1.2310
  652MOL0     H87959   0.574   6.813   1.151 -2.1742 -1.6170 -2.7991
  652MOL0     H87960   0.588   6.711   1.298 -2.9667 -2.1002  0.0277
  652MOL0     H87961   0.769   6.662   1.170 -0.0578  1.6833 -0.5151
  652MOL0     H87962   0.660   6.517   1.166 -1.0761 -0.8759 -1.9736
  652MOL0     H87963   0.581   6.560   0.938  3.4231 -2.7838 -3.6336
  652MOL0     H87964   0.700   6.694   0.936 -1.2319  0.6667  2.0258
  652MOL0     H87965   0.874   6.515   0.969 -0.1180  0.9590 -0.0141
  652MOL0     H87966   0.748   6.401   0.972  2.3940 -0.8111 -1.1318
  652MOL0     H87967   0.669   6.470   0.746 -1.2210  0.0090  1.6956
  652MOL0     H87968   0.789   6.594   0.735 -0.4345 -1.4822 -2.7483
  652MOL0     H87969   0.958   6.385   0.761 -1.2270 -2.2379  2.1807
  652MOL0     H87970   0.869   6.385   0.615 -3.7614  0.2539 -0.9372
  652MOL0     H87971   0.627   6.230   0.605  1.8729 -0.7806 -1.9081
  652MOL0     H87972   0.621   5.869   0.723  2.9617  1.3859  1.2338
  652MOL0     H87973   0.508   5.987   0.662 -0.5252 -1.7347 -0.7342
  652MOL0     H87974   0.745   5.854   0.507  0.6115  0.6068 -1.6541
  652MOL0     H87975   0.669   6.011   0.457  0.7271 -0.7260 -1.6205
  652MOL0     H87976   0.472   5.924   0.403  0.7480  1.5915 -0.7420
  652MOL0     H87977   0.501   5.760   0.469  0.3974 -1.6666 -2.3720
  652MOL0     H87978   0.657   5.888   0.240  0.8360  1.2879  2.7415
  652MOL0     H87979   0.524   5.776   0.228 -2.9804  3.2522  2.3243
  652MOL0     H87980   0.773   5.473   0.233  0.2398  0.0792 -0.8824
  652MOL0     H87981   1.096   5.359   0.145 -0.3753  1.8504  1.6094
  652MOL0     H87982   0.931   5.309   0.166 -0.9484  2.4873  2.1731
  652MOL0     H87983   0.980   5.369   0.006  0.8421  1.0358 -0.4896
  652MOL0     H87984   1.518   5.679   0.104  1.3838  0.0884 -0.5414
  652MOL0     H87985   1.687   5.746  -0.058  0.5658  2.9460  2.0150
  652MOL0     H87986   1.632   6.057  -0.194 -1.5965  0.4759 -0.5596
  652MOL0     H87987   1.793   6.021  -0.276  0.3880  0.2214  3.2176
  652MOL0     H87988   1.687   6.036  -0.483  1.3661  0.6875  0.0560
  652MOL0     H87989   1.532   6.087  -0.389  0.6567 -0.2199  3.1983
  652MOL0     H87990   1.825   6.219  -0.367  0.8208  0.1402  1.0431
  652MOL0     H87991   1.683   6.270  -0.294  1.4902  1.6786 -0.7680
  652MOL0     H87992   1.720   6.251  -0.590 -0.7618 -2.2719  2.2663
  652MOL0     H87993   1.595   6.353  -0.523  1.0304  2.1885 -0.3385
  652MOL0     H87994   1.888   6.431  -0.486  0.6870 -0.8633  2.4503
  652MOL0     H87995   1.743   6.499  -0.409 -0.3896 -0.0668  0.6502
  652MOL0     H87996   1.799   6.459  -0.709  1.9839 -1.5184  1.1283
  652MOL0     H87997   1.654   6.539  -0.640 -0.1848 -0.3471 -3.5744
  652MOL0     H87998   1.851   6.686  -0.736  2.3787  3.5502  0.7709
  652MOL0     H87999   1.938   6.618  -0.598  0.5113  1.6227 -1.2917
  652MOL0     H88000   1.815   6.858  -0.555 -0.2537  0.5079 -0.4420
  652MOL0     H88001   1.755   6.725  -0.453  2.4471  1.6260  0.4438
  652MOL0     H88002   1.380   5.937  -0.298 -3.0570 -3.7919 -1.0796
  652MOL0     H88003   1.217   5.873  -0.126 -0.5876 -0.6803 -0.1866
  652MOL0     H88004   1.091   5.839   0.181  0.5999 -0.5895  0.9899
  652MOL0     H88005   0.876   5.875   0.296 -1.2793  2.4306 -1.7868
  652MOL0     H88006   0.142   6.648   1.482 -4.2952  0.0856  2.3009
  652MOL0     H88007   0.095   6.656   1.741  1.2377 -0.1515  1.5073
  652MOL0     H88008  -0.006   6.793   1.994 -0.3564  0.1608 -0.4487
  652MOL0     H88009  -0.168   6.738   2.177  0.7075  3.0070 -1.1388
  652MOL0     H88010  -0.188   6.746   2.465  2.2499 -0.6248  0.1576
  652MOL0     H88011  -0.308   6.664   2.350 -0.4343  0.2936  1.6004
  652MOL0     H88012  -0.314   6.468   2.496 -2.2460 -0.8923 -2.5972
  652MOL0     H88013  -0.421   6.601   2.516  0.7585  0.8065 -3.1566
  652MOL0     H88014  -0.210   6.676   2.686 -0.3048 -0.3962  0.9566
  652MOL0     H88015  -0.173   6.513   2.678 -1.0175 -1.5001 -0.6635
  652MOL0     H88016  -0.327   6.579   2.874  3.1841  0.8396 -2.2683
  652MOL0     H88017  -0.398   6.447   2.782 -0.0026 -1.2146  1.8339
  652MOL0     H88018  -0.664   6.767   2.734 -2.5240 -3.2628 -1.8026
  652MOL0     H88019   0.120   6.489   2.376  2.1810 -1.6589 -1.4437
  652MOL0     H88020   0.289   6.552   2.200 -0.7678 -3.1486 -2.3288
  653MOL0     O88021   7.629   9.969   2.998 -0.6099 -0.2692  0.2004
  653MOL0     C88022   7.690  10.073   3.007 -0.7453  0.0390 -0.9026
  653MOL0     O88023   7.822  10.089   2.973  0.1725 -0.0307  0.6075
  653MOL0     C88024   7.875  10.002   2.884  0.3114 -0.8944 -0.5226
  653MOL0     C88025   8.011   9.982   2.904 -1.0128 -1.1152  0.3147
  653MOL0     C88026   8.087   9.899   2.818  0.0872  0.2152 -0.6000
  653MOL0     C88027   8.029   9.831   2.709  0.4113  0.6819  0.7827
  653MOL0     O88028   8.102   9.753   2.630 -0.0635 -0.2281 -0.4724
  653MOL0     C88029   8.230   9.718   2.673  0.4603  0.0791 -0.2702
  653MOL0     C88030   8.285   9.617   2.570  0.9088 -0.1204  0.6240
  653MOL0     C88031   8.403   9.524   2.625  0.1578  0.3146  0.6944
  653MOL0     C88032   8.441   9.425   2.515  0.7472 -0.5498  1.1481
  653MOL0     C88033   8.566   9.345   2.564  0.3259  0.4818 -1.2416
  653MOL0     C88034   8.692   9.425   2.592  0.5887  0.0570 -0.5890
  653MOL0     C88035   8.810   9.329   2.619 -0.6550 -0.3423  0.7287
  653MOL0     C88036   8.946   9.379   2.578  0.5337 -0.1220  0.3710
  653MOL0     N88037   8.932   9.419   2.438  0.2049 -0.0778  0.0156
  653MOL0     C88038   8.923   9.555   2.392  0.2126 -0.0078 -0.4089
  653MOL0     C88039   8.908   9.539   2.267 -0.2781 -0.9053  0.7690
  653MOL0     C88040   8.905   9.644   2.164 -0.0168 -0.4799  0.9292
  653MOL0     C88041   8.932   9.787   2.214 -0.8607 -0.1567  0.4886
  653MOL0     C88042   8.802   9.836   2.292  0.2974  1.0527  1.4658
  653MOL0     C88043   8.827   9.976   2.359 -0.3866 -0.7187 -0.0406
  653MOL0     O88044   8.732  10.000   2.472  0.7811  0.1276 -0.4061
  653MOL0     C88045   8.631  10.094   2.454 -0.1001 -0.7340  1.0568
  653MOL0     C88046   8.498  10.059   2.491 -0.3103  1.0541  0.4835
  653MOL0     C88047   8.391  10.144   2.465 -0.2045  0.2475 -0.1164
  653MOL0     C88048   8.252  10.092   2.496  0.2757  0.2158 -0.7960
  653MOL0     C88049   8.410  10.258   2.385  0.7180 -0.2149  0.8475
  653MOL0     C88050   8.306  10.321   2.310  0.3274  0.6923 -0.4509
  653MOL0     O88051   8.332  10.451   2.281  0.0707 -0.0355  0.5689
  653MOL0     C88052   8.236  10.527   2.202  0.0601  0.5444  0.2945
  653MOL0     C88053   8.127  10.596   2.258 -0.6504  0.6425 -0.4742
  653MOL0     C88054   8.029  10.663   2.182 -0.0014  0.2633  0.3520
  653MOL0     C88055   8.033  10.649   2.042 -0.8867  0.2139 -0.4931
  653MOL0     O88056   7.930  10.700   1.961 -0.5076 -0.0105  0.2967
  653MOL0     C88057   7.893  10.835   1.982  0.6003 -0.0089 -0.3294
  653MOL0     C88058   7.789  10.882   1.880 -0.4162  0.1908  0.1987
  653MOL0     C88059   7.847  10.865   1.738  0.6366  0.0531 -0.1578
  653MOL0     C88060   7.729  10.875   1.636  0.6376 -0.6383  0.2990
  653MOL0     C88061   7.717  11.013   1.580  0.7891 -0.0850  0.2572
  653MOL0     C88062   7.603  11.034   1.471  0.1489 -0.3223 -0.9883
  653MOL0     C88063   7.626  11.147   1.370  0.7572 -0.1023 -0.2121
  653MOL0     C88064   7.672  11.288   1.424 -0.2655 -0.5798 -1.2046
  653MOL0    Cl88065   7.751  11.372   1.286 -0.1797 -0.3022  0.1835
  653MOL0     C88066   8.147  10.583   1.979  1.0822  1.2870 -0.4736
  653MOL0     C88067   8.244  10.523   2.056  0.6605 -0.2497 -0.2471
  653MOL0     O88068   8.200  10.267   2.296  0.5384 -0.1666  0.2438
  653MOL0     C88069   8.539  10.299   2.358 -0.0986  0.6878 -0.0606
  653MOL0     C88070   8.646  10.217   2.394 -0.0005  0.1354  0.2712
  653MOL0     N88071   8.910   9.408   2.229  1.4427 -0.2625  0.1428
  653MOL0     N88072   8.925   9.335   2.335 -0.0525  0.8576  1.1688
  653MOL0     C88073   7.891   9.863   2.684  0.7411  0.4825  0.0075
  653MOL0     C88074   7.813   9.940   2.776  0.0223 -0.6092 -0.2481
  653MOL0     C88075   7.626  10.197   3.055 -0.2999  0.1299  0.1320
  653MOL0     C88076   7.656  10.319   2.991 -0.6260  0.4207 -0.4140
  653MOL0     C88077   7.575  10.432   3.018 -0.1878  0.1883  0.0525
  653MOL0     C88078   7.487  10.430   3.125 -0.3586 -0.5640  0.4495
  653MOL0     O88079   7.420  10.552   3.151  0.2957  0.4010  0.2860
  653MOL0     C88080   7.302  10.555   3.240 -0.2310 -0.2031 -0.3172
  653MOL0     C88081   7.274  10.703   3.300  0.3614  1.0352  0.0942
  653MOL0     C88082   7.222  10.806   3.190  0.0269  0.0995 -0.0362
  653MOL0     C88083   7.237  10.957   3.219 -0.0260  0.1197 -0.6172
  653MOL0     C88084   7.206  10.974   3.358  0.6625  0.3327 -0.4310
  653MOL0     C88085   7.184  10.975   3.482 -0.0684 -0.6559 -0.2593
  653MOL0     C88086   7.476  10.314   3.204 -0.4956 -0.2164 -1.1773
  653MOL0     C88087   7.540  10.199   3.166  0.6669  0.9249  0.8972
  653MOL0     H88088   8.066  10.019   2.990 -1.9368 -0.1061  0.4903
  653MOL0     H88089   8.186   9.881   2.857 -1.1962 -2.0342  2.0387
  653MOL0     H88090   8.290   9.810   2.678  2.6569 -1.2315 -1.1865
  653MOL0     H88091   8.230   9.672   2.772  3.1172  0.9578  0.2310
  653MOL0     H88092   8.202   9.552   2.544  0.3657  0.9304 -0.3155
  653MOL0     H88093   8.311   9.677   2.483 -1.3982  1.4563  0.9431
  653MOL0     H88094   8.483   9.589   2.663  0.1283  1.3205 -0.8928
  653MOL0     H88095   8.369   9.458   2.706  2.9843 -0.0676  1.6701
  653MOL0     H88096   8.352   9.363   2.505  0.8685 -0.9409  2.3574
  653MOL0     H88097   8.458   9.481   2.422  0.5523 -2.2446  0.0373
  653MOL0     H88098   8.552   9.296   2.661  0.4077  1.2874 -0.8059
  653MOL0     H88099   8.588   9.267   2.491 -1.0028 -0.7921 -0.3268
  653MOL0     H88100   8.703   9.496   2.510  3.9940 -2.3664 -2.4980
  653MOL0     H88101   8.672   9.482   2.682 -1.3117 -1.1638 -0.1873
  653MOL0     H88102   8.807   9.303   2.725 -2.5707 -1.5412  0.4419
  653MOL0     H88103   8.787   9.237   2.564 -0.0320  0.4580 -0.9660
  653MOL0     H88104   9.033   9.316   2.597  0.8534 -0.1862 -1.1892
  653MOL0     H88105   8.969   9.472   2.632 -0.1380 -2.5621  5.4533
  653MOL0     H88106   8.918   9.641   2.458 -0.4419 -0.2951 -0.0792
  653MOL0     H88107   8.983   9.619   2.091  1.0663 -1.0231  2.2332
  653MOL0     H88108   8.812   9.633   2.108  0.9068 -0.9088 -0.5946
  653MOL0     H88109   8.951   9.836   2.118 -1.5507 -0.4093  0.2166
  653MOL0     H88110   9.021   9.787   2.278 -1.2623 -1.5845  1.0891
  653MOL0     H88111   8.782   9.761   2.368  0.8932 -1.6433 -0.8573
  653MOL0     H88112   8.719   9.836   2.220  1.1360 -2.7533  0.2949
  653MOL0     H88113   8.807  10.055   2.286  0.9327  1.2485  1.6298
  653MOL0     H88114   8.930   9.972   2.393 -0.7155 -1.4326  0.9369
  653MOL0     H88115   8.471   9.975   2.554  1.3959  2.0499  2.7181
  653MOL0     H88116   8.191  10.179   2.524  0.6466 -0.6764  3.3375
  653MOL0     H88117   8.213  10.032   2.413 -2.0072 -2.4341  1.9644
  653MOL0     H88118   8.252  10.026   2.583  2.2853  0.5849 -0.4682
  653MOL0     H88119   8.104  10.584   2.363 -1.1107 -0.9182 -0.7365
  653MOL0     H88120   7.953  10.708   2.246 -1.3861 -0.6473 -0.5854
  653MOL0     H88121   7.840  10.830   2.078  0.5739 -0.9970 -0.3863
  653MOL0     H88122   7.979  10.903   1.991 -2.1509  3.8174 -0.4526
  653MOL0     H88123   7.694  10.829   1.892  0.5210 -1.8040 -0.7144
  653MOL0     H88124   7.771  10.989   1.892  0.6761  0.4566 -0.3620
  653MOL0     H88125   7.883  10.763   1.725 -0.6298 -0.2012 -2.1614
  653MOL0     H88126   7.931  10.932   1.718  1.1686 -0.9403 -1.3743
  653MOL0     H88127   7.753  10.825   1.542  1.7744 -0.3704  0.4295
  653MOL0     H88128   7.636  10.834   1.676 -0.4231  2.5189  1.3831
  653MOL0     H88129   7.811  11.042   1.532  0.2200 -1.0480 -1.4901
  653MOL0     H88130   7.703  11.087   1.659 -1.0580  1.1296 -1.1202
  653MOL0     H88131   7.592  10.941   1.414 -1.3175 -0.5819 -0.3219
  653MOL0     H88132   7.506  11.042   1.519  0.3103 -0.0385 -0.7115
  653MOL0     H88133   7.546  11.151   1.295  2.9764  0.8809 -2.6781
  653MOL0     H88134   7.713  11.101   1.323  0.8222  0.5050 -0.6994
  653MOL0     H88135   7.748  11.278   1.503 -0.7836 -0.1379 -0.6397
  653MOL0     H88136   7.585  11.343   1.460 -0.2913 -0.3231 -1.6607
  653MOL0     H88137   8.151  10.594   1.871  0.1754  3.4499 -0.3291
  653MOL0     H88138   8.330  10.477   2.008  1.4376  0.4388  0.4470
  653MOL0     H88139   8.553  10.392   2.303  0.4720  1.2136  0.9479
  653MOL0     H88140   8.748  10.244   2.368  0.1348  0.0399  0.7075
  653MOL0     H88141   7.826   9.825   2.605  1.8413  0.0519 -0.7323
  653MOL0     H88142   7.711   9.969   2.754  0.0426  2.0344  2.4811
  653MOL0     H88143   7.731  10.324   2.912  2.2009 -2.1740  1.8733
  653MOL0     H88144   7.590  10.523   2.959  1.9329 -0.6870 -0.8905
  653MOL0     H88145   7.214  10.519   3.186  0.9601 -1.1776 -1.6890
  653MOL0     H88146   7.317  10.498   3.332  0.8597 -1.7856 -1.4291
  653MOL0     H88147   7.360  10.742   3.356 -0.6986  0.1569  2.4921
  653MOL0     H88148   7.189  10.693   3.368  0.7445 -0.9384  0.3423
  653MOL0     H88149   7.119  10.780   3.162 -0.0987  1.4896 -1.0127
  653MOL0     H88150   7.285  10.797   3.101 -1.3792  1.2564 -1.2196
  653MOL0     H88151   7.165  11.012   3.157 -0.3500 -1.6983 -1.9097
  653MOL0     H88152   7.337  10.988   3.186  0.2073 -2.3964 -2.5775
  653MOL0     H88153   7.160  10.976   3.586  0.2082 -0.2156 -0.1934
  653MOL0     H88154   7.405  10.307   3.286  1.4253 -1.5569  0.4849
  653MOL0     H88155   7.530  10.102   3.213  3.8651 -0.2501 -0.6043
  654MOL0     O88156   8.628   5.969   3.250 -0.1109 -0.0319  0.0075
  654MOL0     C88157   8.593   5.942   3.140 -0.1434  0.2804 -0.6411
  654MOL0     O88158   8.619   6.017   3.036  0.3063 -0.0332  0.2365
  654MOL0     C88159   8.679   6.138   3.058 -0.2749  0.2103  0.8512
  654MOL0     C88160   8.613   6.255   3.021 -0.6286 -0.5620  0.0336
  654MOL0     C88161   8.682   6.375   2.999  0.1134 -0.1137 -0.6644
  654MOL0     C88162   8.823   6.382   3.021 -0.4492 -0.0089  0.0950
  654MOL0     O88163   8.893   6.501   3.009  0.0231 -0.0371 -0.4222
  654MOL0     C88164   8.836   6.631   3.039  0.0478 -0.1538  0.5222
  654MOL0     C88165   8.795   6.712   2.915 -0.4439 -0.1526 -0.8221
  654MOL0     C88166   8.714   6.831   2.961 -0.2086 -0.2642  0.1545
  654MOL0     C88167   8.796   6.946   3.025 -0.5303  0.5269  1.0671
  654MOL0     C88168   8.717   7.018   3.130 -0.6810  0.3784 -0.4415
  654MOL0     C88169   8.616   7.110   3.080 -0.1153 -0.1781 -0.0249
  654MOL0     C88170   8.619   7.249   3.160  0.1614 -0.1098  0.2020
  654MOL0     C88171   8.492   7.335   3.149 -0.3771  0.3588 -0.1214
  654MOL0     N88172   8.492   7.431   3.259  0.6577 -0.3558 -0.1576
  654MOL0     C88173   8.523   7.563   3.252 -0.0525 -1.2828 -0.0184
  654MOL0     C88174   8.499   7.606   3.381  0.3312 -0.7964 -0.2248
  654MOL0     C88175   8.505   7.750   3.424 -0.0693 -0.3535  0.6715
  654MOL0     C88176   8.595   7.777   3.541  0.0616  0.4662 -0.6912
  654MOL0     C88177   8.606   7.925   3.574 -0.4482  1.2261  0.4780
  654MOL0     C88178   8.743   7.966   3.643  0.4765  0.2783  0.2361
  654MOL0     O88179   8.742   7.921   3.778 -0.2589  0.3402  0.3235
  654MOL0     C88180   8.859   7.923   3.848  0.5290  1.5128 -0.5578
  654MOL0     C88181   8.852   7.886   3.987 -0.5125 -0.2676 -0.0140
  654MOL0     C88182   8.968   7.886   4.074  1.2586 -0.0237  0.4688
  654MOL0     C88183   8.938   7.852   4.221 -0.0352  0.4916  0.3727
  654MOL0     C88184   9.095   7.915   4.018  0.6027 -0.0538 -0.6457
  654MOL0     C88185   9.230   7.902   4.089  0.9031  0.1148 -1.4009
  654MOL0     O88186   9.339   7.934   4.012 -0.1767 -0.9784 -0.1482
  654MOL0     C88187   9.460   7.962   4.073  0.3442  0.4681  0.7487
  654MOL0     C88188   9.568   7.963   3.976  0.0619 -0.2652  0.1057
  654MOL0     C88189   9.699   7.990   4.007 -0.4464  0.3958 -0.2423
  654MOL0     C88190   9.740   8.014   4.135 -0.2435  0.2464 -0.7681
  654MOL0     O88191   9.867   8.045   4.169 -0.0206 -1.0003  0.4523
  654MOL0     C88192   9.938   7.933   4.213 -0.0609  0.0511 -0.1558
  654MOL0     C88193  10.091   7.954   4.169 -0.0263 -0.1879  0.2125
  654MOL0     C88194  10.126   7.971   4.019 -0.5672 -0.2023 -0.6657
  654MOL0     C88195  10.085   8.110   3.969  0.4803  0.5009 -0.0866
  654MOL0     C88196  10.159   8.145   3.842  0.0397  0.3744 -0.3448
  654MOL0     C88197  10.294   8.198   3.878 -0.0375  0.6500  0.3143
  654MOL0     C88198  10.340   8.334   3.810  0.3193 -0.5667 -0.2794
  654MOL0     C88199  10.274   8.466   3.858  0.1694 -0.7107 -0.5522
  654MOL0    Cl88200  10.361   8.606   3.798  0.6255  0.5602 -0.1137
  654MOL0     C88201   9.638   7.999   4.231  0.3256 -1.2145 -0.1540
  654MOL0     C88202   9.504   7.984   4.205  0.8330 -0.7519 -0.2181
  654MOL0     O88203   9.227   7.874   4.207  0.4395  0.4779 -0.2052
  654MOL0     C88204   9.094   7.946   3.884  0.1772  0.5034  0.8501
  654MOL0     C88205   8.988   7.943   3.795 -0.5121  0.9665 -0.8898
  654MOL0     N88206   8.437   7.509   3.458 -0.5802 -0.8903 -0.5053
  654MOL0     N88207   8.421   7.414   3.376  0.2345  0.3732  0.1784
  654MOL0     C88208   8.888   6.268   3.069 -1.9678 -0.1834  0.0214
  654MOL0     C88209   8.820   6.143   3.072 -0.7104 -0.3872 -0.4759
  654MOL0     C88210   8.536   5.807   3.121 -0.4612 -0.7152 -0.0011
  654MOL0     C88211   8.538   5.747   2.995 -0.5799  1.0280 -0.2501
  654MOL0     C88212   8.478   5.628   2.975  0.7714 -0.2907  0.0310
  654MOL0     C88213   8.410   5.553   3.078 -0.4060 -0.4078  1.0142
  654MOL0     O88214   8.350   5.437   3.038  0.2814 -0.0999 -0.7477
  654MOL0     C88215   8.267   5.365   3.137  0.3376 -0.4435 -0.6611
  654MOL0     C88216   8.169   5.261   3.074 -0.2348  0.0297  0.2105
  654MOL0     C88217   8.079   5.199   3.187  0.0184  0.3992 -0.4177
  654MOL0     C88218   7.966   5.123   3.113  0.2715 -0.0963 -0.5199
  654MOL0     C88219   8.009   4.989   3.068 -0.2419 -0.9263  0.5520
  654MOL0     C88220   8.019   4.871   3.042  0.0094  0.0548  0.3838
  654MOL0     C88221   8.408   5.614   3.207 -0.6048 -0.1025 -0.4996
  654MOL0     C88222   8.468   5.742   3.229  0.7317 -0.4087  0.0748
  654MOL0     H88223   8.509   6.260   2.992 -0.0641  2.0568 -1.8737
  654MOL0     H88224   8.633   6.467   2.970 -1.6483 -0.3175  1.3612
  654MOL0     H88225   8.751   6.604   3.103 -2.5352 -1.2604 -3.0338
  654MOL0     H88226   8.918   6.682   3.091  1.0933 -0.8301 -0.4242
  654MOL0     H88227   8.882   6.752   2.862 -1.1383  1.2065 -0.9661
  654MOL0     H88228   8.738   6.654   2.842 -1.4291 -1.9470  1.2390
  654MOL0     H88229   8.655   6.885   2.886 -1.7569 -2.0157  0.0652
  654MOL0     H88230   8.635   6.791   3.025 -0.5343  0.5919  0.3128
  654MOL0     H88231   8.888   6.907   3.072 -1.3333 -2.2077  0.5529
  654MOL0     H88232   8.823   7.016   2.946 -3.0683 -1.4957 -1.7897
  654MOL0     H88233   8.677   6.947   3.203 -2.4457  2.9402  1.2526
  654MOL0     H88234   8.786   7.081   3.187 -2.1020  2.2369 -0.6861
  654MOL0     H88235   8.642   7.141   2.979  1.7378 -0.2535  0.3891
  654MOL0     H88236   8.516   7.066   3.082 -0.3116  0.2421  1.9020
  654MOL0     H88237   8.618   7.227   3.267 -2.6840 -2.6304 -0.2217
  654MOL0     H88238   8.704   7.315   3.138  0.0501  0.2357  0.7844
  654MOL0     H88239   8.408   7.266   3.163  0.5614 -1.5664 -3.0369
  654MOL0     H88240   8.479   7.379   3.049 -1.0658 -2.7363 -1.5351
  654MOL0     H88241   8.552   7.617   3.163  1.9721 -2.3359 -0.0538
  654MOL0     H88242   8.545   7.815   3.346  2.5008  2.5294  4.0996
  654MOL0     H88243   8.401   7.771   3.452 -1.2536 -1.9275 -2.1192
  654MOL0     H88244   8.700   7.749   3.530  0.4090  0.6407  1.6603
  654MOL0     H88245   8.555   7.720   3.625 -0.1347  0.3384 -0.8711
  654MOL0     H88246   8.531   7.950   3.650  3.5289  0.0192  5.3812
  654MOL0     H88247   8.595   7.980   3.480  1.6129 -2.9623 -2.5351
  654MOL0     H88248   8.744   8.076   3.636 -3.1991  0.4305 -0.1987
  654MOL0     H88249   8.823   7.926   3.582 -1.3683 -2.6234 -0.4645
  654MOL0     H88250   8.757   7.853   4.026  1.2037 -2.5094  2.6614
  654MOL0     H88251   8.839   7.810   4.239  1.5456 -5.0116 -1.5478
  654MOL0     H88252   9.006   7.785   4.275 -2.4971 -0.1151  2.9625
  654MOL0     H88253   8.942   7.952   4.263 -0.3728  1.2305 -1.2711
  654MOL0     H88254   9.544   7.944   3.872  1.7399  1.6903 -0.7068
  654MOL0     H88255   9.770   7.997   3.925 -0.7468 -0.4954 -0.5948
  654MOL0     H88256   9.927   7.921   4.321 -1.2319 -1.5894 -0.4083
  654MOL0     H88257   9.906   7.842   4.160  2.0906  0.7601 -2.9155
  654MOL0     H88258  10.129   8.042   4.222  3.7660 -2.0907  0.9877
  654MOL0     H88259  10.151   7.870   4.203  3.7351  2.1479 -0.1502
  654MOL0     H88260  10.073   7.894   3.963 -0.0748 -0.7753 -0.3535
  654MOL0     H88261  10.231   7.944   4.001 -0.8189 -2.6573  1.0919
  654MOL0     H88262   9.979   8.120   3.947  0.1324 -1.8739  0.2097
  654MOL0     H88263  10.110   8.200   4.026  5.0301  0.1976 -1.2184
  654MOL0     H88264  10.102   8.216   3.781  1.3674 -1.0663 -3.4761
  654MOL0     H88265  10.171   8.060   3.774 -0.2449  0.6467 -0.7378
  654MOL0     H88266  10.302   8.211   3.986 -1.3586 -3.3860  1.0333
  654MOL0     H88267  10.371   8.122   3.864  0.0231  0.4834  1.5074
  654MOL0     H88268  10.321   8.337   3.703 -2.1124  4.7914 -0.0200
  654MOL0     H88269  10.448   8.332   3.823  0.6097 -0.7888 -2.4866
  654MOL0     H88270  10.272   8.481   3.967  1.6986 -2.4014 -0.2431
  654MOL0     H88271  10.178   8.471   3.806  0.6773  0.5508 -1.3991
  654MOL0     H88272   9.654   8.024   4.336 -0.6712 -0.6061 -0.1287
  654MOL0     H88273   9.428   7.996   4.281 -1.1855  2.0408 -2.4460
  654MOL0     H88274   9.176   7.991   3.828  0.6398 -2.5326 -1.1184
  654MOL0     H88275   9.012   7.959   3.690 -0.4959  1.1618 -0.8557
  654MOL0     H88276   8.992   6.270   3.101 -1.8419 -0.2474 -0.3697
  654MOL0     H88277   8.868   6.049   3.096 -0.6459 -0.6660 -1.6483
  654MOL0     H88278   8.584   5.787   2.905  0.8166 -1.0807 -0.5282
  654MOL0     H88279   8.498   5.587   2.877  1.6061  1.6405 -0.6498
  654MOL0     H88280   8.337   5.308   3.199  0.2160 -1.0320 -1.0558
  654MOL0     H88281   8.204   5.429   3.198  0.1272 -0.4569 -0.8617
  654MOL0     H88282   8.228   5.185   3.021  0.2318  0.6309 -0.1421
  654MOL0     H88283   8.108   5.303   2.994  1.5180  2.3917  0.0076
  654MOL0     H88284   8.040   5.282   3.246  0.5072  0.7457 -0.5771
  654MOL0     H88285   8.136   5.137   3.257 -0.6954  0.9414  0.6584
  654MOL0     H88286   7.930   5.189   3.033  0.0311  0.8885  0.3659
  654MOL0     H88287   7.881   5.102   3.178 -0.3385 -0.4215 -1.4077
  654MOL0     H88288   8.039   4.767   3.025  0.9034 -0.2305  2.8183
  654MOL0     H88289   8.372   5.551   3.288 -0.7730  0.4061 -0.1758
  654MOL0     H88290   8.476   5.790   3.326  1.5400 -1.2529  0.4398
  655MOL0     O88291   0.059   9.450   0.098  1.0424  0.7042 -0.5975
  655MOL0     C88292  -0.028   9.468   0.016 -0.3784  0.8807 -0.2075
  655MOL0     O88293  -0.152   9.410   0.014 -0.5264  0.3708 -0.0615
  655MOL0     C88294  -0.200   9.368   0.133  0.1670 -0.1317  0.4120
  655MOL0     C88295  -0.299   9.265   0.118 -0.0233 -0.6698 -0.9191
  655MOL0     C88296  -0.380   9.226   0.228  0.2314 -0.2608  0.7258
  655MOL0     C88297  -0.349   9.278   0.355  0.2634 -0.3744  0.4804
  655MOL0     O88298  -0.415   9.229   0.461 -0.0199  0.2999 -0.2499
  655MOL0     C88299  -0.484   9.096   0.458  0.3763  0.2990  1.3581
  655MOL0     C88300  -0.491   9.052   0.602  0.8235 -0.2631 -0.2939
  655MOL0     C88301  -0.620   9.107   0.666 -0.0925  0.1305  0.4195
  655MOL0     C88302  -0.613   9.080   0.819  0.5170  0.2714 -0.5423
  655MOL0     C88303  -0.711   9.167   0.906 -1.0410  0.2331  0.5664
  655MOL0     C88304  -0.659   9.195   1.059 -0.0982 -0.2850 -0.4486
  655MOL0     C88305  -0.769   9.273   1.134 -0.2746 -0.2402 -0.2763
  655MOL0     C88306  -0.735   9.290   1.283  0.4535 -0.5573  1.0852
  655MOL0     N88307  -0.656   9.415   1.301 -1.1678 -0.1789  0.1174
  655MOL0     C88308  -0.515   9.420   1.305  0.3363  0.8791  0.4003
  655MOL0     C88309  -0.481   9.532   1.363 -0.6624  0.4049  0.1950
  655MOL0     C88310  -0.342   9.585   1.390  0.4480  0.6478  1.4183
  655MOL0     C88311  -0.336   9.588   1.535  0.3679 -0.0654  0.2701
  655MOL0     C88312  -0.340   9.449   1.602 -0.5505  0.5623  0.8825
  655MOL0     C88313  -0.378   9.465   1.749  0.5820  0.6172 -0.0620
  655MOL0     O88314  -0.424   9.337   1.812 -0.7623 -0.6780 -0.0812
  655MOL0     C88315  -0.551   9.297   1.782 -1.1965  0.0517  1.1957
  655MOL0     C88316  -0.601   9.173   1.839 -0.6393 -0.2196 -0.6353
  655MOL0     C88317  -0.725   9.123   1.804 -0.4976  0.3329  0.1974
  655MOL0     C88318  -0.775   9.007   1.881 -0.6921 -0.3010 -0.2887
  655MOL0     C88319  -0.811   9.200   1.716  0.5061 -1.1891  1.0834
  655MOL0     C88320  -0.943   9.142   1.658  0.2958  0.2457  0.4192
  655MOL0     O88321  -1.040   9.231   1.609  0.0097  0.0506 -0.1573
  655MOL0     C88322  -1.158   9.178   1.549  0.2275 -0.8980  0.3807
  655MOL0     C88323  -1.275   9.247   1.579  0.3045  0.6155  0.1450
  655MOL0     C88324  -1.403   9.214   1.531  0.3262 -0.2355  0.8089
  655MOL0     C88325  -1.412   9.119   1.439 -0.3530  1.0218  0.2070
  655MOL0     O88326  -1.535   9.095   1.380 -0.2532 -0.3571  0.2938
  655MOL0     C88327  -1.544   9.102   1.237  0.1705 -0.4066 -0.4035
  655MOL0     C88328  -1.685   9.074   1.201 -0.1881  0.1058  0.4234
  655MOL0     C88329  -1.692   9.057   1.043 -0.5187 -0.4623 -1.7788
  655MOL0     C88330  -1.617   9.165   0.954  0.6109  0.6626  0.5774
  655MOL0     C88331  -1.659   9.144   0.808  0.1967  0.1852 -0.1986
  655MOL0     C88332  -1.563   9.213   0.707 -0.0304  0.2779  0.4311
  655MOL0     C88333  -1.591   9.166   0.570 -0.4283  0.1650 -0.2034
  655MOL0     C88334  -1.485   9.242   0.466 -0.4240 -0.0005  0.2587
  655MOL0    Cl88335  -1.500   9.417   0.437  0.5222  0.4072 -0.6038
  655MOL0     C88336  -1.303   9.032   1.411 -0.1541 -0.6558  0.3978
  655MOL0     C88337  -1.178   9.068   1.459 -0.5088  0.4878 -0.2175
  655MOL0     O88338  -0.964   9.020   1.662 -0.5585  0.9834  0.3379
  655MOL0     C88339  -0.766   9.321   1.662 -0.1760 -0.3422  0.5186
  655MOL0     C88340  -0.640   9.366   1.693  0.0992 -0.0388 -0.8351
  655MOL0     N88341  -0.601   9.588   1.401  0.2065 -0.1501 -0.3141
  655MOL0     N88342  -0.701   9.528   1.348 -0.0435 -0.6737  0.2928
  655MOL0     C88343  -0.261   9.384   0.369  0.1767  0.7441 -1.0032
  655MOL0     C88344  -0.185   9.425   0.258  0.4128  0.3409 -0.4934
  655MOL0     C88345  -0.004   9.574  -0.087  1.1027  0.7819  0.3037
  655MOL0     C88346  -0.102   9.620  -0.170 -0.6064  0.3785  0.4948
  655MOL0     C88347  -0.081   9.714  -0.265  0.6556  0.3528  0.6387
  655MOL0     C88348   0.048   9.768  -0.287 -0.6028 -0.6579  0.0886
  655MOL0     O88349   0.063   9.850  -0.398 -0.5228  0.1588 -0.4957
  655MOL0     C88350   0.193   9.908  -0.423  0.4151  0.5395  0.6586
  655MOL0     C88351   0.264  10.002  -0.325  0.3020 -0.8363 -0.6961
  655MOL0     C88352   0.210  10.149  -0.326  0.2118  0.4995 -0.2324
  655MOL0     C88353   0.284  10.248  -0.220 -0.4798 -0.1169  1.3392
  655MOL0     C88354   0.372  10.344  -0.293 -0.7237 -0.9195 -0.5866
  655MOL0     C88355   0.457  10.421  -0.340  0.9813  1.2431 -0.6980
  655MOL0     C88356   0.148   9.715  -0.200 -1.2909  0.0997  0.8238
  655MOL0     C88357   0.125   9.614  -0.112 -0.8994  0.4716  0.4296
  655MOL0     H88358  -0.319   9.209   0.027 -0.6037 -2.8463  0.4695
  655MOL0     H88359  -0.441   9.141   0.202  0.4632  0.3419 -2.1064
  655MOL0     H88360  -0.583   9.101   0.411  1.9008  0.5300 -2.1443
  655MOL0     H88361  -0.431   9.015   0.407 -0.3036  0.3316  0.5796
  655MOL0     H88362  -0.487   8.944   0.615  0.4567 -0.1213  1.1941
  655MOL0     H88363  -0.399   9.087   0.649  1.9129 -3.7157  0.3864
  655MOL0     H88364  -0.634   9.214   0.646 -1.9872  0.5271  3.2122
  655MOL0     H88365  -0.700   9.045   0.625 -0.5395 -0.5088  2.1400
  655MOL0     H88366  -0.641   8.976   0.843 -2.8313  1.2659  0.3914
  655MOL0     H88367  -0.513   9.085   0.862 -0.2328 -2.2779  1.8438
  655MOL0     H88368  -0.722   9.258   0.845 -2.9379 -0.0261  0.4851
  655MOL0     H88369  -0.809   9.121   0.902 -0.0938 -1.8528  0.3123
  655MOL0     H88370  -0.659   9.102   1.118 -0.1936 -1.2198 -1.8660
  655MOL0     H88371  -0.560   9.240   1.049 -1.1810  2.2222 -0.6164
  655MOL0     H88372  -0.780   9.372   1.089  0.3635  0.5659  1.2473
  655MOL0     H88373  -0.865   9.223   1.116 -1.3076  1.2833  0.7493
  655MOL0     H88374  -0.685   9.198   1.314 -1.8747 -1.8787  1.0682
  655MOL0     H88375  -0.825   9.310   1.341  0.5945 -0.4063  1.2542
  655MOL0     H88376  -0.442   9.355   1.257  0.2233  2.1525 -1.5705
  655MOL0     H88377  -0.263   9.530   1.337 -2.2505 -2.5555  0.3206
  655MOL0     H88378  -0.341   9.685   1.345  2.0994 -0.3561 -1.0303
  655MOL0     H88379  -0.407   9.652   1.587  0.8318  0.8679 -0.2295
  655MOL0     H88380  -0.238   9.631   1.555  1.3470 -1.2282 -1.7009
  655MOL0     H88381  -0.244   9.396   1.604  0.0395  1.6032  0.7832
  655MOL0     H88382  -0.410   9.384   1.548  3.3438 -0.7330 -3.3115
  655MOL0     H88383  -0.451   9.545   1.763 -2.2423 -1.5365 -1.5856
  655MOL0     H88384  -0.288   9.504   1.799 -1.3225  3.5546  1.3603
  655MOL0     H88385  -0.529   9.127   1.906  1.4884  2.3415 -0.9966
  655MOL0     H88386  -0.800   8.926   1.811  1.6443  0.3397 -1.9985
  655MOL0     H88387  -0.694   8.954   1.932 -1.1639 -1.3403 -0.5990
  655MOL0     H88388  -0.860   9.030   1.945 -1.7134  1.5431 -2.1768
  655MOL0     H88389  -1.278   9.333   1.645  1.6468  2.2012 -1.7394
  655MOL0     H88390  -1.487   9.280   1.550  0.7855  0.7687 -0.5062
  655MOL0     H88391  -1.503   9.193   1.194 -0.8044  0.4115  0.3381
  655MOL0     H88392  -1.485   9.019   1.197 -3.0596 -1.7925 -2.7462
  655MOL0     H88393  -1.726   8.980   1.238 -0.5068  0.5907  1.3297
  655MOL0     H88394  -1.750   9.157   1.229 -4.2890 -2.6907  0.0404
  655MOL0     H88395  -1.795   9.070   1.009 -0.1469  4.4097 -1.6526
  655MOL0     H88396  -1.661   8.956   1.014 -1.1815 -1.6030  1.1407
  655MOL0     H88397  -1.642   9.267   0.983 -1.0527  0.3184  0.4229
  655MOL0     H88398  -1.509   9.148   0.963  0.5622 -1.3701 -1.7282
  655MOL0     H88399  -1.754   9.196   0.796  0.3776  0.1239 -2.3411
  655MOL0     H88400  -1.669   9.040   0.777  0.1116  0.2445 -0.3713
  655MOL0     H88401  -1.582   9.321   0.709 -0.6344  0.2273 -1.3072
  655MOL0     H88402  -1.457   9.199   0.730  0.3095  0.9751 -0.6537
  655MOL0     H88403  -1.694   9.187   0.537 -0.2316  0.7390 -0.4557
  655MOL0     H88404  -1.555   9.066   0.544  0.1887  0.6666 -1.3819
  655MOL0     H88405  -1.511   9.187   0.375 -1.6415 -1.2282  1.3128
  655MOL0     H88406  -1.380   9.226   0.493 -0.3344  1.1167  0.6126
  655MOL0     H88407  -1.308   8.943   1.349  0.2838  0.0602 -0.6824
  655MOL0     H88408  -1.092   9.005   1.436 -2.4188 -1.8085 -1.4397
  655MOL0     H88409  -0.831   9.372   1.592 -0.8353 -0.8219  0.7600
  655MOL0     H88410  -0.626   9.462   1.643 -1.1254  1.1846  1.0407
  655MOL0     H88411  -0.240   9.431   0.464  0.1091  2.2419 -1.6952
  655MOL0     H88412  -0.104   9.494   0.274  0.6143 -0.3077  1.5128
  655MOL0     H88413  -0.202   9.581  -0.154  0.0740 -1.3675  0.7400
  655MOL0     H88414  -0.159   9.741  -0.337  2.1364 -3.7242 -2.9061
  655MOL0     H88415   0.267   9.829  -0.440 -1.7311 -1.1944 -1.4493
  655MOL0     H88416   0.172   9.960  -0.517  0.0468 -0.9563 -0.1172
  655MOL0     H88417   0.373  10.006  -0.335  0.1851 -0.3480 -1.9790
  655MOL0     H88418   0.244   9.963  -0.225  0.1018  1.1373  0.0812
  655MOL0     H88419   0.108  10.158  -0.288 -0.0097  5.7220 -1.2711
  655MOL0     H88420   0.208  10.201  -0.422  1.9246 -2.9620 -2.3174
  655MOL0     H88421   0.340  10.186  -0.150  0.2155  1.5125  2.2784
  655MOL0     H88422   0.201  10.295  -0.167 -0.6091 -1.5823  2.5080
  655MOL0     H88423   0.545  10.476  -0.370 -0.1810  2.5529 -1.8591
  655MOL0     H88424   0.254   9.733  -0.218 -1.0501 -1.8971  0.0582
  655MOL0     H88425   0.211   9.568  -0.064 -0.7844 -0.6149 -0.7427
  656MOL0     O88426   6.747   0.778  10.309  0.4035 -0.4978  0.4860
  656MOL0     C88427   6.870   0.796  10.299 -0.5643  0.0404  0.2964
  656MOL0     O88428   6.958   0.781  10.399 -0.4724 -0.3175  0.3375
  656MOL0     C88429   6.916   0.774  10.529  0.3394  0.6598  0.0817
  656MOL0     C88430   6.942   0.652  10.600 -0.4588  0.4625 -0.4221
  656MOL0     C88431   6.905   0.641  10.729  0.5711 -0.0365 -0.2057
  656MOL0     C88432   6.840   0.749  10.796  0.2944 -0.2609  0.1437
  656MOL0     O88433   6.805   0.739  10.923  0.4110 -0.7719 -0.0214
  656MOL0     C88434   6.837   0.624  11.012 -0.0235  0.5684 -0.1036
  656MOL0     C88435   6.769   0.632  11.145 -1.5107  0.2946  1.3459
  656MOL0     C88436   6.615   0.650  11.137 -1.2430  0.2457  0.5341
  656MOL0     C88437   6.548   0.645  11.270  0.5857 -0.0082 -0.1842
  656MOL0     C88438   6.580   0.782  11.333 -0.3613  0.1592 -0.3583
  656MOL0     C88439   6.531   0.806  11.481 -0.1103 -0.7765 -0.1564
  656MOL0     C88440   6.376   0.780  11.496  0.3457  0.4998 -0.0468
  656MOL0     C88441   6.337   0.796  11.650 -0.1049  0.4333 -0.6935
  656MOL0     N88442   6.378   0.676  11.724 -0.2822  0.0801 -0.3436
  656MOL0     C88443   6.324   0.551  11.715  0.9548  0.7453  0.7249
  656MOL0     C88444   6.398   0.467  11.784  0.0531  0.2537 -0.3975
  656MOL0     C88445   6.390   0.311  11.808 -0.4092 -0.3149 -0.2614
  656MOL0     C88446   6.262   0.253  11.760 -0.7606  0.1488  0.1538
  656MOL0     C88447   6.266   0.102  11.761  0.4820  0.1115  0.6857
  656MOL0     C88448   6.304   0.047  11.895 -0.2745  0.2639 -0.5792
  656MOL0     O88449   6.282  -0.096  11.880 -0.4254 -0.5190  0.1417
  656MOL0     C88450   6.298  -0.175  11.978  0.0523 -0.1613  0.6201
  656MOL0     C88451   6.278  -0.305  11.952  0.0022  0.4477 -0.7400
  656MOL0     C88452   6.300  -0.403  12.049 -0.0674  0.0319  0.1770
  656MOL0     C88453   6.312  -0.546  12.000  0.0480  0.3629 -0.6251
  656MOL0     C88454   6.335  -0.369  12.182 -1.5300 -0.6715  1.0682
  656MOL0     C88455   6.356  -0.471  12.288  0.1510  0.0653  0.2352
  656MOL0     O88456   6.412  -0.414  12.398 -1.1521  0.0861 -0.4500
  656MOL0     C88457   6.441  -0.498  12.505 -0.0864 -0.5411 -0.3721
  656MOL0     C88458   6.390  -0.464  12.636  0.0490  0.3728  0.9589
  656MOL0     C88459   6.405  -0.556  12.741 -0.4268 -0.1687 -0.4616
  656MOL0     C88460   6.466  -0.685  12.714  0.5084  1.5741  1.2297
  656MOL0     O88461   6.485  -0.791  12.799 -0.2387  0.3811  0.2950
  656MOL0     C88462   6.377  -0.835  12.884  0.1958  0.3145  1.2026
  656MOL0     C88463   6.320  -0.971  12.835  1.4164 -0.1225 -0.3849
  656MOL0     C88464   6.423  -1.085  12.851  0.4283 -0.0726  0.4973
  656MOL0     C88465   6.349  -1.214  12.823  0.6839  0.1943 -0.4988
  656MOL0     C88466   6.444  -1.334  12.849  0.4591  0.1922  0.0278
  656MOL0     C88467   6.352  -1.449  12.872 -0.4688  0.1314 -0.1448
  656MOL0     C88468   6.423  -1.558  12.970  0.6166  0.3584 -0.5057
  656MOL0     C88469   6.342  -1.586  13.097  0.4158 -0.2223  0.4526
  656MOL0    Cl88470   6.431  -1.689  13.216  0.1454  0.0155  0.1735
  656MOL0     C88471   6.522  -0.708  12.590 -0.7263 -1.0929  0.3213
  656MOL0     C88472   6.497  -0.619  12.483  0.1391 -1.3395 -0.3500
  656MOL0     O88473   6.314  -0.587  12.276  0.4015 -0.3464 -0.6353
  656MOL0     C88474   6.342  -0.231  12.209 -0.2819 -0.4935  0.0240
  656MOL0     C88475   6.332  -0.130  12.105 -0.1838 -0.5485 -0.0701
  656MOL0     N88476   6.506   0.542  11.846 -0.2029  0.7391  0.2000
  656MOL0     N88477   6.491   0.664  11.803  0.2111  0.5310  0.2145
  656MOL0     C88478   6.826   0.874  10.726 -0.6328  0.1055 -0.7857
  656MOL0     C88479   6.857   0.883  10.591 -0.5502  0.8640 -1.0127
  656MOL0     C88480   6.925   0.825  10.164 -0.5091  0.1155  0.4760
  656MOL0     C88481   7.047   0.769  10.112  1.5842 -0.0927 -0.1151
  656MOL0     C88482   7.099   0.795   9.989 -0.0764  0.2716 -0.1374
  656MOL0     C88483   7.029   0.880   9.900 -0.4849  0.6805  0.0973
  656MOL0     O88484   7.081   0.928   9.783  0.0059 -0.2120  0.4862
  656MOL0     C88485   7.203   0.885   9.730  0.1951  0.5560  1.3541
  656MOL0     C88486   7.257   0.970   9.610 -0.2025  0.5904  0.6176
  656MOL0     C88487   7.288   0.877   9.475  0.5756  0.6471  0.2775
  656MOL0     C88488   7.418   0.795   9.492  0.5476  0.2181 -0.1545
  656MOL0     C88489   7.522   0.889   9.497 -0.5545 -0.8090  0.1395
  656MOL0     C88490   7.610   0.970   9.511  0.5975 -0.5566 -0.3171
  656MOL0     C88491   6.901   0.930   9.944 -0.1437 -0.2446 -0.1875
  656MOL0     C88492   6.850   0.898  10.073 -0.3978 -0.7665 -0.1385
  656MOL0     H88493   6.973   0.564  10.544 -2.5559  0.3869 -1.5386
  656MOL0     H88494   6.925   0.544  10.773 -0.1505  0.0365  0.2985
  656MOL0     H88495   6.810   0.525  10.973  1.4306 -0.1708  0.6801
  656MOL0     H88496   6.945   0.629  11.023  0.3005 -0.7493 -2.0605
  656MOL0     H88497   6.812   0.548  11.201  0.0462  0.1640 -0.0045
  656MOL0     H88498   6.815   0.726  11.177 -1.3653  0.6105  0.2281
  656MOL0     H88499   6.585   0.736  11.076 -0.0658  0.5299  0.3247
  656MOL0     H88500   6.586   0.561  11.081 -0.5594  0.0865  0.4286
  656MOL0     H88501   6.440   0.634  11.256  0.9603 -2.7615 -1.5604
  656MOL0     H88502   6.584   0.561  11.330 -0.3714 -1.1366 -1.1293
  656MOL0     H88503   6.687   0.805  11.336 -0.4905  0.7360  2.0929
  656MOL0     H88504   6.532   0.857  11.269  0.4545 -0.4337 -1.7087
  656MOL0     H88505   6.582   0.732  11.543 -0.9596 -2.7052 -1.6542
  656MOL0     H88506   6.562   0.908  11.509  0.1327  0.0278 -3.1044
  656MOL0     H88507   6.325   0.847  11.426  0.8630  0.0435 -0.8812
  656MOL0     H88508   6.354   0.677  11.465  0.6915 -0.0600  1.4773
  656MOL0     H88509   6.230   0.812  11.668 -0.1185 -0.4796  0.0774
  656MOL0     H88510   6.384   0.889  11.684  0.8659  1.7623 -5.0204
  656MOL0     H88511   6.245   0.507  11.655 -1.0551 -1.9279  4.8390
  656MOL0     H88512   6.481   0.266  11.768 -2.3574 -2.4895 -2.5040
  656MOL0     H88513   6.393   0.307  11.918  0.2481  0.6675 -0.2257
  656MOL0     H88514   6.227   0.285  11.662 -1.7815  0.8321  0.7223
  656MOL0     H88515   6.182   0.284  11.829 -1.6234 -0.2111 -0.6636
  656MOL0     H88516   6.329   0.087  11.673 -2.7011  4.1654 -2.6916
  656MOL0     H88517   6.168   0.065  11.733  0.3921  2.7778 -3.3973
  656MOL0     H88518   6.238   0.091  11.970 -1.8609  0.1532 -1.8744
  656MOL0     H88519   6.408   0.075  11.916 -1.2744  4.7694 -0.6065
  656MOL0     H88520   6.250  -0.340  11.853  0.1083  0.9221 -0.9445
  656MOL0     H88521   6.415  -0.577  12.021 -0.6652 -3.4834 -1.8550
  656MOL0     H88522   6.231  -0.610  12.038 -2.4726 -0.1132 -5.8503
  656MOL0     H88523   6.298  -0.554  11.892  0.6844 -2.1503 -0.5876
  656MOL0     H88524   6.336  -0.371  12.652 -0.8704  0.2368 -1.0093
  656MOL0     H88525   6.372  -0.531  12.841  2.2877  1.7149  0.0542
  656MOL0     H88526   6.411  -0.843  12.988 -2.2150  0.0653  2.0266
  656MOL0     H88527   6.293  -0.766  12.891  0.3159  0.4571  1.2482
  656MOL0     H88528   6.228  -0.994  12.889 -0.8005  1.9265 -3.0135
  656MOL0     H88529   6.297  -0.957  12.729 -0.7288  2.6527  0.3311
  656MOL0     H88530   6.483  -1.091  12.942  2.3255  1.5653 -0.5682
  656MOL0     H88531   6.500  -1.072  12.774  2.8260 -3.0596  2.1813
  656MOL0     H88532   6.273  -1.216  12.902  1.8945 -1.4559  0.6785
  656MOL0     H88533   6.295  -1.215  12.728 -2.6556  2.5152  1.1723
  656MOL0     H88534   6.505  -1.323  12.939 -3.7605 -1.7239  3.5357
  656MOL0     H88535   6.512  -1.341  12.764 -0.1615 -0.5840 -0.4143
  656MOL0     H88536   6.254  -1.425  12.916 -0.9752  1.3005 -1.8156
  656MOL0     H88537   6.327  -1.494  12.775 -0.0109  0.3770 -0.3758
  656MOL0     H88538   6.522  -1.527  13.005  0.1404 -0.8341  2.0833
  656MOL0     H88539   6.445  -1.651  12.916  2.8854  0.9159 -0.6605
  656MOL0     H88540   6.248  -1.636  13.071 -0.3303  1.1948  0.3121
  656MOL0     H88541   6.317  -1.490  13.144  0.2797 -0.1727  0.2825
  656MOL0     H88542   6.573  -0.803  12.577  0.8441 -0.4341  1.3814
  656MOL0     H88543   6.533  -0.642  12.383  1.6055  0.4692 -0.2880
  656MOL0     H88544   6.360  -0.205  12.313  0.6190 -1.9182  0.2560
  656MOL0     H88545   6.338  -0.026  12.136 -1.6590 -0.9215  1.6050
  656MOL0     H88546   6.783   0.957  10.780  1.4036  2.1132 -2.0236
  656MOL0     H88547   6.851   0.974  10.533 -3.3382  1.0565 -0.5364
  656MOL0     H88548   7.107   0.696  10.165  1.9475 -0.9570 -1.6763
  656MOL0     H88549   7.196   0.755   9.961 -1.1486 -1.6177 -1.3410
  656MOL0     H88550   7.288   0.884   9.800  2.3585  0.0444 -1.1091
  656MOL0     H88551   7.189   0.783   9.694  0.2207  0.8647  0.4570
  656MOL0     H88552   7.356   1.007   9.639  0.2618  0.1364 -0.3576
  656MOL0     H88553   7.184   1.050   9.600 -1.3616 -0.1084  2.7137
  656MOL0     H88554   7.281   0.934   9.383  2.0007 -0.7539 -0.7485
  656MOL0     H88555   7.217   0.794   9.476  1.8972 -0.5342  1.2053
  656MOL0     H88556   7.435   0.738   9.401 -4.8441 -3.1234  0.4757
  656MOL0     H88557   7.404   0.726   9.576 -0.2664  0.8312  0.2340
  656MOL0     H88558   7.684   1.047   9.526 -0.9163  1.0291 -0.6385
  656MOL0     H88559   6.828   0.998   9.900 -1.4502 -2.0559 -0.9589
  656MOL0     H88560   6.750   0.935  10.094 -0.1894  0.3559 -1.0494
  657MOL0     O88561   7.646  10.986   9.273  0.1523  0.4916  0.6511
  657MOL0     C88562   7.671  11.105   9.269 -0.8150  0.9543 -0.1943
  657MOL0     O88563   7.593  11.210   9.232  0.2554  0.2265  0.3449
  657MOL0     C88564   7.465  11.180   9.200 -0.1717  0.1308 -0.6721
  657MOL0     C88565   7.358  11.268   9.246 -0.0074 -0.1437  0.3646
  657MOL0     C88566   7.228  11.243   9.205 -0.6503 -0.5251 -0.5238
  657MOL0     C88567   7.192  11.141   9.121 -0.0022 -0.3598  0.1738
  657MOL0     O88568   7.070  11.117   9.062  0.3583  0.8306 -0.2818
  657MOL0     C88569   6.958  11.196   9.101 -0.3970  0.4374 -0.4339
  657MOL0     C88570   6.937  11.314   9.003 -1.3168  0.0199 -0.6049
  657MOL0     C88571   7.054  11.418   8.983 -0.0508  0.2998 -0.1226
  657MOL0     C88572   7.151  11.391   8.873 -0.5442  0.5649  0.3881
  657MOL0     C88573   7.281  11.470   8.898 -0.3894 -0.1575 -0.1402
  657MOL0     C88574   7.379  11.458   8.785 -0.4532 -0.3682  0.5332
  657MOL0     C88575   7.524  11.488   8.816  1.3048  0.3059 -0.3090
  657MOL0     C88576   7.575  11.412   8.938  0.7861 -0.2244  0.1735
  657MOL0     N88577   7.718  11.400   8.916  0.5034 -0.3294 -0.0496
  657MOL0     C88578   7.774  11.286   8.855 -0.3629 -0.4846 -0.8041
  657MOL0     C88579   7.909  11.309   8.881  0.3487 -0.1056  0.0823
  657MOL0     C88580   8.029  11.230   8.840  0.1414  0.1618 -0.3421
  657MOL0     C88581   8.076  11.151   8.951 -0.6832 -0.0145 -0.9582
  657MOL0     C88582   8.210  11.079   8.923  0.0942  0.5862 -0.1349
  657MOL0     C88583   8.196  10.963   8.823 -0.0611 -0.1718  1.2772
  657MOL0     O88584   8.105  10.868   8.866 -1.0266 -0.7516 -0.2718
  657MOL0     C88585   8.079  10.767   8.781 -0.3271  1.4446  1.1148
  657MOL0     C88586   8.140  10.725   8.661  0.0390 -0.7059 -0.2200
  657MOL0     C88587   8.095  10.624   8.580  0.3923  1.4049  0.0743
  657MOL0     C88588   8.178  10.582   8.458 -0.5979 -1.1216 -0.2645
  657MOL0     C88589   7.970  10.565   8.606 -0.7870  0.6418 -0.8397
  657MOL0     C88590   7.876  10.528   8.501 -0.1425 -0.2038 -0.6223
  657MOL0     O88591   7.772  10.448   8.547 -0.0329  0.5050 -0.1127
  657MOL0     C88592   7.655  10.427   8.476  0.1036 -1.0453 -0.6091
  657MOL0     C88593   7.579  10.540   8.419 -0.2562  0.1174 -0.3289
  657MOL0     C88594   7.471  10.513   8.334  0.4867  0.5544 -0.0295
  657MOL0     C88595   7.429  10.380   8.317  0.3563 -0.2353  0.3914
  657MOL0     O88596   7.330  10.335   8.226 -0.9257  0.1827 -0.3444
  657MOL0     C88597   7.214  10.424   8.206 -0.3878 -0.0803 -0.2331
  657MOL0     C88598   7.082  10.345   8.200  0.0071  0.3070 -0.2650
  657MOL0     C88599   7.051  10.268   8.329  0.6746 -0.1898 -1.0509
  657MOL0     C88600   6.936  10.173   8.317  0.8296 -0.0913  0.8005
  657MOL0     C88601   6.916  10.091   8.448 -0.0815 -0.2524 -0.3211
  657MOL0     C88602   7.020   9.989   8.484 -0.7454 -0.6453 -1.1450
  657MOL0     C88603   6.975   9.862   8.559 -0.4393  0.2002 -0.1033
  657MOL0     C88604   7.081   9.782   8.653 -0.4276 -0.3001 -0.1257
  657MOL0    Cl88605   7.129   9.880   8.797  0.0463 -0.2099 -0.0123
  657MOL0     C88606   7.500  10.273   8.369 -0.1988  0.0543 -0.3833
  657MOL0     C88607   7.613  10.295   8.452 -0.6506 -0.0874  0.6352
  657MOL0     O88608   7.887  10.570   8.387 -0.4174 -0.8460 -0.2611
  657MOL0     C88609   7.907  10.596   8.736 -0.0804 -0.2987 -0.4649
  657MOL0     C88610   7.962  10.694   8.823  1.2666  0.8076 -0.0799
  657MOL0     N88611   7.926  11.431   8.944 -0.4780 -0.3698 -0.2546
  657MOL0     N88612   7.808  11.486   8.960  0.2251  0.0170  0.2074
  657MOL0     C88613   7.290  11.045   9.077 -0.0203 -0.3405 -0.2960
  657MOL0     C88614   7.428  11.067   9.115  0.7112 -0.4865  0.3446
  657MOL0     C88615   7.810  11.134   9.297  0.0769 -0.2421  0.9335
  657MOL0     C88616   7.888  11.062   9.391 -0.2371  0.3361  0.3344
  657MOL0     C88617   8.019  11.096   9.424 -0.1692  0.6049 -0.2513
  657MOL0     C88618   8.079  11.207   9.364  0.7167  0.0501  1.5487
  657MOL0     O88619   8.207  11.259   9.369 -0.0957  0.0450  0.6596
  657MOL0     C88620   8.297  11.181   9.452  0.9686 -0.4199  0.9682
  657MOL0     C88621   8.352  11.063   9.368 -0.1265  0.0526  0.4866
  657MOL0     C88622   8.451  10.969   9.437 -0.3422 -0.0164 -0.2296
  657MOL0     C88623   8.549  10.896   9.340 -0.2805 -0.1893 -0.7123
  657MOL0     C88624   8.480  10.832   9.227 -0.0568  0.5598 -0.6096
  657MOL0     C88625   8.408  10.782   9.149  0.4119 -0.3310 -0.0220
  657MOL0     C88626   7.995  11.287   9.281  0.9979  0.0443  0.3570
  657MOL0     C88627   7.860  11.252   9.244 -0.4003 -0.6576 -0.6353
  657MOL0     H88628   7.367  11.363   9.297  1.1715  1.3001 -2.3456
  657MOL0     H88629   7.159  11.310   9.255 -0.1925 -2.2379  2.6610
  657MOL0     H88630   6.878  11.124   9.088  1.1425 -2.1096  2.7215
  657MOL0     H88631   6.955  11.211   9.210  1.6222  0.6280 -0.3484
  657MOL0     H88632   6.930  11.276   8.901  0.6730  1.8637 -1.5258
  657MOL0     H88633   6.853  11.373   9.042  0.6126  0.9963  2.5397
  657MOL0     H88634   7.010  11.516   8.965  2.2674  1.2742 -0.8212
  657MOL0     H88635   7.122  11.419   9.069  0.2181 -1.4108 -0.2842
  657MOL0     H88636   7.184  11.287   8.878 -0.0082  0.7927  2.6092
  657MOL0     H88637   7.099  11.419   8.780 -3.4880  0.5603  1.9119
  657MOL0     H88638   7.251  11.574   8.910 -0.6839 -0.0998 -1.2263
  657MOL0     H88639   7.322  11.432   8.992 -2.5816 -1.5159  0.3359
  657MOL0     H88640   7.381  11.361   8.734 -0.1313 -0.0971  0.0223
  657MOL0     H88641   7.349  11.528   8.707 -2.9635 -2.4081 -0.4716
  657MOL0     H88642   7.582  11.444   8.734  0.4250 -1.1466 -0.1733
  657MOL0     H88643   7.529  11.597   8.826 -2.9478  0.4785  2.5732
  657MOL0     H88644   7.528  11.314   8.947  3.3976 -1.5101  0.8379
  657MOL0     H88645   7.555  11.473   9.026  1.4023  1.0181 -0.5219
  657MOL0     H88646   7.731  11.207   8.794  0.4269 -3.3332  2.0695
  657MOL0     H88647   8.005  11.162   8.758  1.1749  0.4711 -0.9103
  657MOL0     H88648   8.113  11.288   8.802  1.1830  1.0870  3.0212
  657MOL0     H88649   7.990  11.087   8.973  0.1364 -1.7344 -2.4405
  657MOL0     H88650   8.096  11.214   9.037 -0.0059 -0.7728 -0.5422
  657MOL0     H88651   8.242  11.040   9.020 -0.2378 -0.7780 -0.5504
  657MOL0     H88652   8.295  11.141   8.893 -0.6002  1.1416 -1.0070
  657MOL0     H88653   8.296  10.922   8.812  0.9434  2.6400 -1.5092
  657MOL0     H88654   8.175  10.991   8.720  0.4373 -5.9009 -0.7359
  657MOL0     H88655   8.223  10.784   8.625 -1.8098  1.9764 -0.2986
  657MOL0     H88656   8.139  10.634   8.369 -1.9277 -1.0908  0.3085
  657MOL0     H88657   8.286  10.585   8.473 -0.5911 -2.4475  0.0138
  657MOL0     H88658   8.160  10.475   8.443  2.1669 -1.4940 -1.4381
  657MOL0     H88659   7.614  10.642   8.429 -2.0622  1.3706 -4.5653
  657MOL0     H88660   7.436  10.604   8.285  1.4389  0.2427 -1.3361
  657MOL0     H88661   7.211  10.488   8.295  1.8356 -0.7327  0.3792
  657MOL0     H88662   7.224  10.492   8.121  2.1548  1.4560  1.1724
  657MOL0     H88663   7.008  10.424   8.187  0.0919  0.3444 -0.5252
  657MOL0     H88664   7.092  10.284   8.109  1.5321  2.4312 -1.5997
  657MOL0     H88665   7.025  10.340   8.407  2.6690  1.3445 -1.7006
  657MOL0     H88666   7.137  10.206   8.357  0.3599 -0.6703 -1.1309
  657MOL0     H88667   6.850  10.230   8.281 -0.6028 -2.3500  0.4444
  657MOL0     H88668   6.958  10.105   8.234 -1.8590  1.5630 -1.4801
  657MOL0     H88669   6.818  10.041   8.441 -0.3948  0.0195  1.6660
  657MOL0     H88670   6.901  10.166   8.525  2.7845 -0.4088  0.4794
  657MOL0     H88671   7.074   9.954   8.396  0.0127 -0.8356 -0.6174
  657MOL0     H88672   7.090  10.036   8.554 -2.6783  0.7287 -0.0309
  657MOL0     H88673   6.955   9.792   8.477 -0.4859 -1.1511  1.0188
  657MOL0     H88674   6.880   9.882   8.610 -0.4090  2.5961 -0.8407
  657MOL0     H88675   7.174   9.778   8.595  0.7491  0.4286  1.6266
  657MOL0     H88676   7.039   9.685   8.678 -2.5929  0.9231  1.2976
  657MOL0     H88677   7.458  10.177   8.341 -2.1696  0.4706  0.8991
  657MOL0     H88678   7.671  10.216   8.498  1.8044  1.5478  0.5591
  657MOL0     H88679   7.807  10.556   8.749 -0.2028 -1.4027 -3.8257
  657MOL0     H88680   7.920  10.726   8.918 -0.9983 -0.7276 -0.4893
  657MOL0     H88681   7.262  10.965   9.010 -1.0171 -0.9700  0.8274
  657MOL0     H88682   7.488  10.992   9.065 -0.8235 -0.9490 -0.9100
  657MOL0     H88683   7.844  10.977   9.442  0.7318 -0.6503 -0.4457
  657MOL0     H88684   8.074  11.032   9.491  1.4398  1.9601 -0.2254
  657MOL0     H88685   8.384  11.237   9.488  1.7202 -1.0250  0.1372
  657MOL0     H88686   8.251  11.145   9.545  2.3228 -1.4730  1.2612
  657MOL0     H88687   8.397  11.118   9.285 -1.2875  1.1157  0.5315
  657MOL0     H88688   8.270  11.011   9.318 -2.3466  1.9465  1.9587
  657MOL0     H88689   8.391  10.897   9.493  1.4226 -1.0829  0.3908
  657MOL0     H88690   8.503  11.009   9.525  1.9080  0.5727 -1.7350
  657MOL0     H88691   8.593  10.815   9.400 -2.4352 -0.3882  0.7109
  657MOL0     H88692   8.636  10.955   9.307  0.4653 -1.0284 -0.3063
  657MOL0     H88693   8.346  10.717   9.090 -1.4299  0.0212  1.4295
  657MOL0     H88694   8.033  11.381   9.242  2.1955 -0.2553  0.7686
  657MOL0     H88695   7.810  11.327   9.185  1.9388  2.2241  0.7374
  658MOL0     O88696   0.913   2.886   5.358 -0.9273  0.0634  0.3453
  658MOL0     C88697   0.909   2.873   5.234 -0.3699  0.1331 -1.1886
  658MOL0     O88698   0.802   2.917   5.155  0.0887 -0.7647  0.3481
  658MOL0     C88699   0.679   2.898   5.192  0.1339  0.2390 -0.2627
  658MOL0     C88700   0.583   2.964   5.112 -0.0579 -0.1743 -0.7001
  658MOL0     C88701   0.443   2.931   5.132  0.1203 -0.0708  0.6547
  658MOL0     C88702   0.406   2.819   5.205 -0.8639  0.5825 -0.0836
  658MOL0     O88703   0.274   2.779   5.198  0.3837 -0.0170 -0.0348
  658MOL0     C88704   0.251   2.640   5.234 -0.2258 -0.2383  0.1110
  658MOL0     C88705   0.095   2.625   5.230  0.2163 -0.1485 -0.7535
  658MOL0     C88706   0.026   2.647   5.092 -0.4404  1.0135 -0.0527
  658MOL0     C88707  -0.125   2.629   5.084 -0.1109 -1.0446 -0.5425
  658MOL0     C88708  -0.205   2.710   5.191  0.0442 -0.0243  0.9554
  658MOL0     C88709  -0.196   2.854   5.165 -0.0710  0.2851  0.1259
  658MOL0     C88710  -0.305   2.920   5.255  0.0871  0.7673  0.0486
  658MOL0     C88711  -0.298   3.070   5.249 -0.2178  0.9044  0.5946
  658MOL0     N88712  -0.416   3.128   5.310  1.2621  0.1671  0.1816
  658MOL0     C88713  -0.514   3.203   5.245  0.2018  0.1347 -1.0070
  658MOL0     C88714  -0.592   3.252   5.333  1.2744 -0.1227 -0.5742
  658MOL0     C88715  -0.720   3.345   5.315 -1.0064  0.0268 -0.4945
  658MOL0     C88716  -0.690   3.467   5.236  0.5442 -0.1978  0.0956
  658MOL0     C88717  -0.822   3.552   5.219 -0.6687  0.4410 -0.2119
  658MOL0     C88718  -0.801   3.652   5.120  0.8724 -0.0218  0.6144
  658MOL0     O88719  -0.926   3.733   5.115 -0.5999 -0.1767 -0.4309
  658MOL0     C88720  -0.950   3.837   5.023  0.0950  0.4356  1.0047
  658MOL0     C88721  -0.862   3.864   4.925  0.1088  0.2569  0.3872
  658MOL0     C88722  -0.875   3.973   4.838 -0.3351 -0.3458 -0.4713
  658MOL0     C88723  -0.789   3.987   4.719 -0.2695 -0.9180 -0.2973
  658MOL0     C88724  -0.992   4.047   4.840  1.2676 -0.0852  1.0523
  658MOL0     C88725  -1.015   4.162   4.745  0.2266 -0.4434  0.7639
  658MOL0     O88726  -1.074   4.137   4.623  0.2532  1.2216  0.3928
  658MOL0     C88727  -1.055   4.229   4.520  0.1659  0.0539  0.2834
  658MOL0     C88728  -1.167   4.297   4.461 -0.8542  0.1156 -0.5004
  658MOL0     C88729  -1.166   4.389   4.353 -0.3438  0.9580 -0.2865
  658MOL0     C88730  -1.042   4.403   4.293  0.6591  0.4323  0.3404
  658MOL0     O88731  -1.048   4.476   4.176 -0.4016  0.3669 -0.6729
  658MOL0     C88732  -0.922   4.528   4.121  1.0615 -0.4145 -0.3113
  658MOL0     C88733  -0.851   4.425   4.029 -0.1823  0.5933 -0.6751
  658MOL0     C88734  -0.924   4.412   3.891  0.3463  0.1881 -1.0458
  658MOL0     C88735  -0.879   4.297   3.799 -0.9951 -0.7252 -0.2138
  658MOL0     C88736  -0.736   4.328   3.759  0.3176 -0.4297  0.4755
  658MOL0     C88737  -0.693   4.285   3.616 -0.5557  0.4939 -0.6088
  658MOL0     C88738  -0.542   4.312   3.581  0.5795 -0.3419 -0.0793
  658MOL0     C88739  -0.459   4.186   3.563  1.0647  0.0499  0.8401
  658MOL0    Cl88740  -0.452   4.088   3.712  0.5313 -0.0401  0.1162
  658MOL0     C88741  -0.934   4.328   4.342  0.0611 -0.4933 -0.2114
  658MOL0     C88742  -0.936   4.247   4.454  0.2074  0.0406 -0.1788
  658MOL0     O88743  -0.987   4.275   4.787  0.4263  0.5485  0.2569
  658MOL0     C88744  -1.083   4.026   4.948  0.8477  0.3845  0.2526
  658MOL0     C88745  -1.058   3.917   5.033  0.9190  0.3389  0.0362
  658MOL0     N88746  -0.550   3.212   5.455  0.8635  0.7400  1.0864
  658MOL0     N88747  -0.438   3.146   5.442  0.5354 -0.6411 -0.0510
  658MOL0     C88748   0.504   2.748   5.280  0.2319 -0.0903  0.2923
  658MOL0     C88749   0.633   2.796   5.275  0.1231  0.0270 -0.0410
  658MOL0     C88750   1.022   2.811   5.159 -0.0435  0.1984  0.3062
  658MOL0     C88751   1.117   2.743   5.234 -0.2372  0.3221 -1.2004
  658MOL0     C88752   1.218   2.680   5.160  0.4192 -0.0532  0.2590
  658MOL0     C88753   1.230   2.695   5.024 -0.1415  0.0842 -0.7456
  658MOL0     O88754   1.346   2.658   4.966  0.2440  0.5056 -0.2739
  658MOL0     C88755   1.346   2.561   4.865  0.3545  0.1660  0.1870
  658MOL0     C88756   1.384   2.426   4.934 -0.2240 -0.0172  0.0840
  658MOL0     C88757   1.523   2.423   5.012 -0.6453 -0.1331  0.0173
  658MOL0     C88758   1.552   2.280   5.066  0.8385  0.4769 -0.8785
  658MOL0     C88759   1.685   2.288   5.107 -0.3348  0.4006 -1.3067
  658MOL0     C88760   1.796   2.291   5.152 -0.1876 -0.6214 -0.9829
  658MOL0     C88761   1.130   2.754   4.949 -0.4761 -0.1822 -0.3177
  658MOL0     C88762   1.021   2.802   5.019 -0.5948 -0.0567  0.3403
  658MOL0     H88763   0.616   3.037   5.039 -1.8819 -0.9508 -2.3930
  658MOL0     H88764   0.367   2.990   5.082 -1.0167  0.8425  3.2769
  658MOL0     H88765   0.307   2.580   5.161  3.8374  4.2735 -0.9855
  658MOL0     H88766   0.284   2.624   5.337  1.6503  1.9857 -0.0709
  658MOL0     H88767   0.066   2.528   5.271 -0.3250  0.9314  1.6067
  658MOL0     H88768   0.058   2.698   5.304  2.1536 -0.5886  0.7390
  658MOL0     H88769   0.065   2.745   5.065  4.1162  0.4375  3.2905
  658MOL0     H88770   0.071   2.583   5.016  3.5875  2.4028  0.9480
  658MOL0     H88771  -0.166   2.656   4.987 -2.1398  1.5223  0.8890
  658MOL0     H88772  -0.148   2.522   5.081  0.1894 -1.3626  3.1015
  658MOL0     H88773  -0.308   2.678   5.173 -0.5597  1.7568  0.9983
  658MOL0     H88774  -0.182   2.699   5.297  0.3885  3.7181  1.4256
  658MOL0     H88775  -0.101   2.900   5.194 -2.4109  3.8653  3.1141
  658MOL0     H88776  -0.217   2.892   5.065  3.0763  2.5216  0.1686
  658MOL0     H88777  -0.402   2.887   5.217 -0.5738  2.4149  0.2367
  658MOL0     H88778  -0.292   2.885   5.358 -2.4597 -0.0123  0.1670
  658MOL0     H88779  -0.293   3.099   5.144 -0.7197  2.5781  1.0131
  658MOL0     H88780  -0.210   3.104   5.304 -0.4138  1.2969  0.6609
  658MOL0     H88781  -0.519   3.215   5.138  0.9540 -1.3049 -1.2238
  658MOL0     H88782  -0.804   3.288   5.274 -1.3187 -1.7627  2.3508
  658MOL0     H88783  -0.746   3.386   5.413 -2.9504  3.3789 -2.2614
  658MOL0     H88784  -0.653   3.433   5.139  0.2485  0.7232 -0.3568
  658MOL0     H88785  -0.611   3.526   5.283  0.2241 -0.3544  0.8500
  658MOL0     H88786  -0.864   3.597   5.309  2.1594 -0.3732  1.6699
  658MOL0     H88787  -0.893   3.478   5.179  0.1700  0.1828 -1.2835
  658MOL0     H88788  -0.768   3.614   5.023  0.9315  4.0356 -1.1545
  658MOL0     H88789  -0.717   3.720   5.141  0.9579 -0.0029  0.2169
  658MOL0     H88790  -0.787   3.788   4.902 -0.1745  0.1945 -0.3350
  658MOL0     H88791  -0.745   4.087   4.717  1.3337 -1.5831 -1.7497
  658MOL0     H88792  -0.704   3.918   4.713  2.5798  2.2763  0.3918
  658MOL0     H88793  -0.843   3.975   4.626  1.0664 -2.7577 -0.9031
  658MOL0     H88794  -1.256   4.269   4.517 -0.5676  0.4764  0.1553
  658MOL0     H88795  -1.261   4.433   4.324 -1.1941  0.3990  1.4468
  658MOL0     H88796  -0.921   4.628   4.078  0.1827 -0.8885 -1.4805
  658MOL0     H88797  -0.859   4.544   4.209 -1.2426 -1.2464  1.5903
  658MOL0     H88798  -0.743   4.440   4.028 -0.0586 -0.0847  0.4926
  658MOL0     H88799  -0.839   4.329   4.080  1.6913  1.8121  1.3714
  658MOL0     H88800  -0.933   4.510   3.844 -0.2820  1.0223  0.7266
  658MOL0     H88801  -1.024   4.379   3.919  0.2157  1.1587 -0.3068
  658MOL0     H88802  -0.878   4.209   3.864  0.0556 -0.3973  0.2367
  658MOL0     H88803  -0.943   4.277   3.712  1.2672 -2.2257 -1.6526
  658MOL0     H88804  -0.678   4.279   3.838 -2.7982 -1.4636  2.3187
  658MOL0     H88805  -0.718   4.435   3.763 -3.2475  0.3997 -1.7097
  658MOL0     H88806  -0.712   4.179   3.594 -0.1448 -0.1353  1.7662
  658MOL0     H88807  -0.755   4.334   3.541  1.2072  2.9015 -0.5850
  658MOL0     H88808  -0.501   4.375   3.661  1.0691 -2.0121  1.0381
  658MOL0     H88809  -0.538   4.373   3.491 -1.5178  1.2817  0.8302
  658MOL0     H88810  -0.366   4.225   3.521 -0.6910  2.4025 -1.0714
  658MOL0     H88811  -0.497   4.116   3.489  2.5440  0.1680 -0.0691
  658MOL0     H88812  -0.843   4.322   4.282 -0.4240 -1.3482 -0.8843
  658MOL0     H88813  -0.847   4.212   4.505  0.8364  2.6443  0.6532
  658MOL0     H88814  -1.160   4.102   4.956 -0.0688 -0.4526 -0.3118
  658MOL0     H88815  -1.130   3.897   5.112  2.5045  0.8521  1.6771
  658MOL0     H88816   0.492   2.665   5.348 -1.3194 -1.3213 -1.3714
  658MOL0     H88817   0.701   2.745   5.343 -0.3656  0.2463  0.6178
  658MOL0     H88818   1.119   2.731   5.342 -0.3239  0.3029 -1.2008
  658MOL0     H88819   1.303   2.642   5.217  0.8775 -0.8226 -0.9042
  658MOL0     H88820   1.247   2.564   4.819 -0.2265  1.2854  1.4464
  658MOL0     H88821   1.423   2.569   4.787 -1.0385  0.1686 -1.2354
  658MOL0     H88822   1.398   2.343   4.865  3.8619  0.4168  0.1717
  658MOL0     H88823   1.303   2.392   4.999 -0.6276  0.9088  0.0827
  658MOL0     H88824   1.503   2.496   5.091 -1.6829  0.6915 -0.9538
  658MOL0     H88825   1.595   2.469   4.944  1.2546 -0.7075  1.5803
  658MOL0     H88826   1.524   2.202   4.994  3.1507  2.6304 -4.4243
  658MOL0     H88827   1.493   2.259   5.156 -1.4308  0.8176 -2.1956
  658MOL0     H88828   1.892   2.297   5.197 -0.0811  2.7854 -1.3933
  658MOL0     H88829   1.124   2.772   4.842 -3.6049  1.0971 -0.0495
  658MOL0     H88830   0.953   2.863   4.961  0.3313  2.3044  1.5880
  659MOL0     O88831   3.419   3.789   0.067 -0.5466  0.4749  0.2438
  659MOL0     C88832   3.346   3.871   0.007  0.3431 -0.1530 -0.4132
  659MOL0     O88833   3.216   3.888   0.029 -0.4567 -0.2559 -0.3112
  659MOL0     C88834   3.164   3.818   0.134  0.9549 -0.6295  0.6725
  659MOL0     C88835   3.199   3.856   0.262  0.9462  0.3883  0.0244
  659MOL0     C88836   3.145   3.788   0.368 -0.0009 -0.1714  0.6079
  659MOL0     C88837   3.053   3.683   0.343  0.1402  0.1126  0.2863
  659MOL0     O88838   2.989   3.603   0.439  0.3702  0.4930 -0.3287
  659MOL0     C88839   3.031   3.617   0.580 -0.4845  0.0452 -0.5561
  659MOL0     C88840   2.954   3.522   0.658 -0.9477  0.2102 -0.0240
  659MOL0     C88841   2.958   3.546   0.811 -1.0932 -0.3262 -0.1050
  659MOL0     C88842   2.861   3.436   0.867  0.2040 -0.2501 -0.9908
  659MOL0     C88843   2.709   3.465   0.839  0.3027  0.0110 -0.6763
  659MOL0     C88844   2.609   3.387   0.923 -0.4417  0.1681 -0.9623
  659MOL0     C88845   2.607   3.408   1.076 -0.4868  0.3253  0.0923
  659MOL0     C88846   2.516   3.312   1.157 -0.2154 -0.1923 -0.4842
  659MOL0     N88847   2.375   3.362   1.187 -1.3405 -0.0196  0.2454
  659MOL0     C88848   2.265   3.307   1.131 -0.0059  0.8829  1.6551
  659MOL0     C88849   2.160   3.353   1.201 -0.2761 -0.8204  0.4379
  659MOL0     C88850   2.028   3.297   1.168  0.4297  0.5918 -0.4738
  659MOL0     C88851   1.908   3.399   1.166  0.5639  0.4927  0.0437
  659MOL0     C88852   1.780   3.321   1.222 -0.3775 -0.1722  0.9565
  659MOL0     C88853   1.647   3.393   1.180  0.5894 -0.1242  0.3217
  659MOL0     O88854   1.634   3.396   1.037  0.4565 -0.1189 -0.0897
  659MOL0     C88855   1.613   3.274   0.985  0.3312  1.1578  0.6163
  659MOL0     C88856   1.595   3.285   0.851 -0.8495 -0.0470 -0.5715
  659MOL0     C88857   1.553   3.173   0.774  0.3390 -0.5300 -1.0795
  659MOL0     C88858   1.524   3.211   0.633 -0.0257 -0.4269  0.0845
  659MOL0     C88859   1.505   3.057   0.832 -0.0876 -0.3522  0.4995
  659MOL0     C88860   1.466   2.932   0.757 -0.1483  0.2834  0.3443
  659MOL0     O88861   1.478   2.930   0.624 -0.3924  1.1177  1.4474
  659MOL0     C88862   1.425   2.841   0.533 -0.2633 -0.1972  0.1172
  659MOL0     C88863   1.462   2.854   0.403  0.1843 -0.6062 -0.0403
  659MOL0     C88864   1.412   2.764   0.309  0.5366 -0.4271  0.8338
  659MOL0     C88865   1.325   2.658   0.328  0.3543 -0.4527 -0.3438
  659MOL0     O88866   1.282   2.562   0.242 -0.7060 -0.3003 -0.2182
  659MOL0     C88867   1.221   2.602   0.121  0.4977 -0.3800  0.0370
  659MOL0     C88868   1.074   2.578   0.150  1.0709  0.4076  0.2924
  659MOL0     C88869   1.016   2.683   0.237  0.1314  0.0162  0.0103
  659MOL0     C88870   0.892   2.634   0.302  0.3462  0.2974 -0.1948
  659MOL0     C88871   0.803   2.759   0.360  0.9057  0.2880  1.2755
  659MOL0     C88872   0.662   2.722   0.403  0.3157  1.6658  0.0187
  659MOL0     C88873   0.590   2.837   0.462  0.6272  0.3277 -0.6513
  659MOL0     C88874   0.458   2.793   0.519 -0.0488 -0.4303 -1.3484
  659MOL0    Cl88875   0.371   2.943   0.573 -0.3109 -0.0751 -0.4737
  659MOL0     C88876   1.303   2.632   0.467 -0.7182  0.6005  0.2733
  659MOL0     C88877   1.357   2.723   0.560 -0.8584  0.3292  0.3738
  659MOL0     O88878   1.429   2.839   0.825 -0.7544  0.2704 -0.4489
  659MOL0     C88879   1.508   3.056   0.972  0.6209 -0.2900 -0.7209
  659MOL0     C88880   1.575   3.149   1.051 -0.7051 -0.0087  0.8912
  659MOL0     N88881   2.212   3.424   1.309  0.6750 -0.2729 -0.0032
  659MOL0     N88882   2.342   3.424   1.305  0.1136  0.6038  0.3552
  659MOL0     C88883   3.023   3.642   0.219 -0.3427 -0.6036  0.4652
  659MOL0     C88884   3.074   3.706   0.107 -0.5116  0.7031 -0.4096
  659MOL0     C88885   3.398   3.943  -0.115 -0.1207 -0.0425  1.0017
  659MOL0     C88886   3.325   4.042  -0.177  0.1691  0.2731  0.3750
  659MOL0     C88887   3.371   4.111  -0.289  0.3058 -0.0088  0.0791
  659MOL0     C88888   3.485   4.072  -0.351  0.4686 -0.6886 -0.8681
  659MOL0     O88889   3.526   4.155  -0.452  0.2855 -0.4143  0.2229
  659MOL0     C88890   3.657   4.133  -0.509 -0.3559 -0.1565 -1.1325
  659MOL0     C88891   3.719   4.270  -0.556 -0.2418 -1.0224 -0.8084
  659MOL0     C88892   3.830   4.254  -0.670  0.0407 -1.0455 -0.2670
  659MOL0     C88893   3.953   4.186  -0.621  0.2828  0.2645  0.5475
  659MOL0     C88894   4.044   4.156  -0.729 -0.2650 -0.3678 -0.2719
  659MOL0     C88895   4.126   4.139  -0.820 -0.4373 -1.6155  0.4538
  659MOL0     C88896   3.557   3.960  -0.290  0.2424  0.0727  1.3355
  659MOL0     C88897   3.518   3.899  -0.178 -0.3490  0.0400 -0.0723
  659MOL0     H88898   3.253   3.945   0.292  0.4923 -0.1062  2.5252
  659MOL0     H88899   3.173   3.823   0.467  2.5414  3.2556 -1.0967
  659MOL0     H88900   3.139   3.603   0.587 -0.1450  2.3030 -0.4145
  659MOL0     H88901   3.000   3.718   0.610 -1.4763 -0.5753  0.5951
  659MOL0     H88902   2.850   3.527   0.623 -0.9758  1.6989  0.2089
  659MOL0     H88903   2.987   3.418   0.647 -0.9838  0.1170  0.6667
  659MOL0     H88904   3.058   3.543   0.853  0.0083  3.2974 -2.0466
  659MOL0     H88905   2.927   3.647   0.841  2.3103  0.3750  1.4125
  659MOL0     H88906   2.881   3.333   0.835 -0.8985 -0.9778  0.5035
  659MOL0     H88907   2.884   3.435   0.974 -0.9944  0.8888 -0.6988
  659MOL0     H88908   2.698   3.571   0.866  3.4927  0.9835 -2.6596
  659MOL0     H88909   2.681   3.456   0.734  1.1133  1.0849 -1.0025
  659MOL0     H88910   2.513   3.427   0.888 -2.5148 -3.7208 -0.2145
  659MOL0     H88911   2.617   3.280   0.905 -3.9569  0.0505 -2.6919
  659MOL0     H88912   2.711   3.396   1.106 -1.2022 -0.3431  2.5899
  659MOL0     H88913   2.578   3.505   1.118  0.2779 -0.6279  3.0274
  659MOL0     H88914   2.565   3.310   1.255  0.6072  1.9743 -0.7911
  659MOL0     H88915   2.511   3.209   1.122  1.0941 -0.4352  0.0007
  659MOL0     H88916   2.264   3.241   1.044  1.3376 -0.2405  2.4582
  659MOL0     H88917   2.032   3.254   1.067 -0.6168  3.6212 -1.9504
  659MOL0     H88918   2.004   3.217   1.238 -1.2538 -1.3118 -3.0275
  659MOL0     H88919   1.879   3.418   1.062 -2.0723 -0.3945  0.5343
  659MOL0     H88920   1.925   3.490   1.224  1.2955  0.6757 -0.4454
  659MOL0     H88921   1.790   3.290   1.326  2.5470  1.7875  1.3921
  659MOL0     H88922   1.790   3.227   1.167  2.6199  0.6352 -0.0612
  659MOL0     H88923   1.643   3.496   1.216 -0.9228 -0.1638  0.3296
  659MOL0     H88924   1.556   3.354   1.228  0.3400  0.6062  0.4446
  659MOL0     H88925   1.612   3.380   0.801  1.4966  1.9564  3.5425
  659MOL0     H88926   1.429   3.173   0.594  0.3087  1.4860 -2.8615
  659MOL0     H88927   1.506   3.318   0.618 -0.0416 -0.3282  0.7702
  659MOL0     H88928   1.602   3.185   0.561 -1.2229  0.1745 -1.4703
  659MOL0     H88929   1.532   2.933   0.375 -1.5402  2.1906  2.9267
  659MOL0     H88930   1.435   2.787   0.205 -2.8083  1.1571  0.3114
  659MOL0     H88931   1.227   2.711   0.112 -3.1324  0.6054  4.9776
  659MOL0     H88932   1.251   2.536   0.040 -1.6596 -1.1151 -0.2289
  659MOL0     H88933   1.025   2.586   0.053  2.9834  1.1838 -0.6615
  659MOL0     H88934   1.054   2.479   0.192  2.3738  0.2543  0.6135
  659MOL0     H88935   0.991   2.767   0.171 -0.7445 -0.4094 -0.2049
  659MOL0     H88936   1.086   2.713   0.315  1.4807  1.6684 -1.7249
  659MOL0     H88937   0.833   2.580   0.228  1.0566  3.0016 -2.9230
  659MOL0     H88938   0.924   2.579   0.391  0.7229  0.6830 -0.0888
  659MOL0     H88939   0.796   2.819   0.269  2.4516 -2.4859 -0.8468
  659MOL0     H88940   0.860   2.805   0.441 -0.7408  0.4024  2.3955
  659MOL0     H88941   0.599   2.694   0.318  0.7126  0.0317  0.2319
  659MOL0     H88942   0.669   2.636   0.471 -0.5104  2.8292  1.6492
  659MOL0     H88943   0.587   2.911   0.382  2.7851 -1.4591 -2.5131
  659MOL0     H88944   0.643   2.867   0.553 -0.4954 -1.5071  0.6966
  659MOL0     H88945   0.477   2.719   0.598 -2.7048 -0.2341 -0.4378
  659MOL0     H88946   0.402   2.730   0.449  1.7414 -1.3397 -2.0463
  659MOL0     H88947   1.254   2.543   0.507 -1.3342  1.3673  1.2793
  659MOL0     H88948   1.347   2.693   0.664 -3.9206  1.4613  0.4872
  659MOL0     H88949   1.458   2.973   1.021 -2.1052  1.4085 -0.3829
  659MOL0     H88950   1.566   3.137   1.158  1.2695  0.9440  1.2097
  659MOL0     H88951   2.947   3.564   0.224  0.9126 -1.8880  0.2020
  659MOL0     H88952   3.030   3.691   0.009  1.2125 -0.8637 -0.9905
  659MOL0     H88953   3.228   4.072  -0.137  0.3495 -0.1050  1.1072
  659MOL0     H88954   3.321   4.202  -0.324 -3.4101 -1.8662  0.0189
  659MOL0     H88955   3.734   4.097  -0.440 -1.2935  1.1055  0.6483
  659MOL0     H88956   3.642   4.077  -0.602 -3.6246  1.3507 -1.6457
  659MOL0     H88957   3.782   4.316  -0.479 -2.0880  2.1992 -1.0402
  659MOL0     H88958   3.650   4.353  -0.571 -1.2816 -1.5481  0.7591
  659MOL0     H88959   3.859   4.356  -0.697  0.3851 -0.3076  2.5761
  659MOL0     H88960   3.794   4.212  -0.764  1.7779 -0.5348 -1.2079
  659MOL0     H88961   3.931   4.087  -0.580 -0.6417  0.9654  1.8419
  659MOL0     H88962   3.999   4.235  -0.534  1.8214  0.6817 -0.4565
  659MOL0     H88963   4.209   4.129  -0.887  0.3342  1.5861  0.7328
  659MOL0     H88964   3.650   3.933  -0.339 -0.9867 -0.1418 -1.0096
  659MOL0     H88965   3.580   3.824  -0.131  0.2110  2.0208  2.6103
  660MOL0     O88966   3.964   7.823   6.175  0.7743  0.8379  0.4982
  660MOL0     C88967   3.937   7.906   6.264 -1.5870  0.3532 -0.4735
  660MOL0     O88968   3.988   7.908   6.398 -0.5556  0.3026 -0.2456
  660MOL0     C88969   4.038   7.797   6.450  0.0432  0.0473  0.3416
  660MOL0     C88970   4.021   7.784   6.588 -0.2206 -0.0197  0.1383
  660MOL0     C88971   4.060   7.666   6.657  0.5472  1.0286 -0.0648
  660MOL0     C88972   4.121   7.556   6.586  0.1782  0.4405 -0.1255
  660MOL0     O88973   4.164   7.439   6.627 -0.6780 -0.4146 -0.7200
  660MOL0     C88974   4.143   7.395   6.764 -0.3083 -0.0441 -0.6878
  660MOL0     C88975   4.256   7.457   6.851  1.0693 -0.2561 -0.0595
  660MOL0     C88976   4.272   7.388   6.981 -0.7115 -0.1528 -0.6242
  660MOL0     C88977   4.390   7.459   7.051  0.0284 -0.0306  0.0387
  660MOL0     C88978   4.415   7.402   7.190 -0.5026  0.0448 -0.1485
  660MOL0     C88979   4.443   7.251   7.184  0.8555 -0.4712 -0.3759
  660MOL0     C88980   4.492   7.208   7.324  0.1040  0.2699  0.1470
  660MOL0     C88981   4.553   7.070   7.324 -0.2508 -0.1982  0.6578
  660MOL0     N88982   4.438   6.969   7.306 -0.2211  0.1237 -0.0055
  660MOL0     C88983   4.389   6.913   7.192 -0.4988 -0.0396  0.1206
  660MOL0     C88984   4.291   6.828   7.231  0.8881  0.6846  0.7001
  660MOL0     C88985   4.191   6.761   7.133 -0.8995 -0.0028  0.1604
  660MOL0     C88986   4.106   6.656   7.207  0.2713  0.9251  0.2523
  660MOL0     C88987   4.035   6.572   7.101  0.2768 -0.3529 -0.2148
  660MOL0     C88988   3.899   6.633   7.064 -0.6601 -0.3540  0.3966
  660MOL0     O88989   3.843   6.563   6.953 -0.4849  0.1438  0.3847
  660MOL0     C88990   3.879   6.588   6.822 -0.6935 -0.2118 -0.1285
  660MOL0     C88991   3.830   6.520   6.709  0.1414  0.8793 -0.7321
  660MOL0     C88992   3.863   6.562   6.575 -0.2052 -0.9141 -1.3084
  660MOL0     C88993   3.819   6.490   6.452 -0.1561  0.4768  0.8077
  660MOL0     C88994   3.946   6.682   6.558  0.5243  0.2753 -0.8009
  660MOL0     C88995   3.964   6.754   6.430  0.5937  0.4886  1.3309
  660MOL0     O88996   4.078   6.819   6.403  0.5557 -0.2011  0.0516
  660MOL0     C88997   4.087   6.892   6.283  0.6405  0.0208  0.5001
  660MOL0     C88998   4.137   7.024   6.277  0.8019 -0.3428 -1.1317
  660MOL0     C88999   4.155   7.094   6.161 -0.5152 -0.1935 -0.3846
  660MOL0     C89000   4.111   7.038   6.041 -1.3580 -0.6298 -0.4464
  660MOL0     O89001   4.121   7.110   5.922 -0.5009  0.0887  0.0753
  660MOL0     C89002   4.048   7.222   5.914  0.6435 -0.0411 -0.1242
  660MOL0     C89003   3.897   7.185   5.889  0.1996  0.3604  0.1672
  660MOL0     C89004   3.830   7.285   5.798  0.4919  0.0285  0.1752
  660MOL0     C89005   3.858   7.264   5.645 -0.3835  0.1372  0.8172
  660MOL0     C89006   3.770   7.359   5.566 -0.8419 -0.3909 -0.0820
  660MOL0     C89007   3.803   7.327   5.421 -0.2165  0.3001 -0.1817
  660MOL0     C89008   3.746   7.416   5.323  0.5994  0.1580 -0.7054
  660MOL0     C89009   3.805   7.562   5.316 -0.6353 -0.0182 -0.5187
  660MOL0    Cl89010   3.964   7.571   5.239 -0.0116  0.4057 -0.1396
  660MOL0     C89011   4.064   6.918   6.037  0.0745 -0.3360 -0.3854
  660MOL0     C89012   4.050   6.836   6.157  0.4518  0.6671 -0.5309
  660MOL0     O89013   3.863   6.753   6.365 -0.2472  0.3918  0.3322
  660MOL0     C89014   4.003   6.737   6.668  0.2194 -0.7503 -0.6109
  660MOL0     C89015   3.974   6.692   6.795 -0.6074 -0.0582  0.1257
  660MOL0     N89016   4.287   6.829   7.368 -0.5566  0.0832  0.2357
  660MOL0     N89017   4.375   6.908   7.412  0.5492 -0.7595  0.0109
  660MOL0     C89018   4.147   7.577   6.452 -0.4411  0.5115 -0.1667
  660MOL0     C89019   4.111   7.689   6.385  0.9385 -0.3954 -0.6735
  660MOL0     C89020   3.863   8.020   6.214  0.5737  0.2723  0.5143
  660MOL0     C89021   3.781   8.017   6.095  0.4007 -0.1349 -0.2636
  660MOL0     C89022   3.717   8.129   6.048  0.2764 -0.3933 -0.8565
  660MOL0     C89023   3.723   8.252   6.117  0.6279  0.1502  0.3541
  660MOL0     O89024   3.683   8.369   6.065 -0.1814 -0.2211  0.6307
  660MOL0     C89025   3.546   8.403   6.042  0.1787 -0.0118 -0.1183
  660MOL0     C89026   3.523   8.391   5.892 -0.2121 -0.3767 -0.4366
  660MOL0     C89027   3.399   8.465   5.854  0.0483 -1.1809  1.3171
  660MOL0     C89028   3.410   8.484   5.695  0.1591  0.2192 -0.6915
  660MOL0     C89029   3.292   8.555   5.643  0.2483  0.4431 -0.3297
  660MOL0     C89030   3.197   8.617   5.601  0.3255 -0.0779  1.2638
  660MOL0     C89031   3.799   8.257   6.244  0.0728  0.4443 -0.2346
  660MOL0     C89032   3.861   8.145   6.295 -0.5735  0.6129 -0.0614
  660MOL0     H89033   3.984   7.872   6.639  0.4739  0.2884  0.1215
  660MOL0     H89034   4.028   7.656   6.760 -0.6789 -0.4216 -0.5446
  660MOL0     H89035   4.044   7.419   6.803  0.7706  0.9013  1.6137
  660MOL0     H89036   4.162   7.288   6.753 -0.1351  0.1087 -2.1221
  660MOL0     H89037   4.350   7.456   6.795  3.1761  2.4008  3.0238
  660MOL0     H89038   4.236   7.565   6.858  5.2216  0.8793 -2.5167
  660MOL0     H89039   4.175   7.395   7.032 -2.2069 -0.7327 -3.1692
  660MOL0     H89040   4.293   7.282   6.967  0.0396  0.0161 -0.7900
  660MOL0     H89041   4.479   7.436   6.993  0.4716  2.0198 -0.1670
  660MOL0     H89042   4.391   7.568   7.060 -0.6546  0.4635 -3.8115
  660MOL0     H89043   4.506   7.449   7.228 -0.4753  0.8729 -1.1878
  660MOL0     H89044   4.330   7.437   7.249 -0.1162  0.3245  0.2446
  660MOL0     H89045   4.348   7.205   7.154 -0.3225  1.1886  0.6430
  660MOL0     H89046   4.515   7.242   7.102  0.6595  1.6185 -0.8464
  660MOL0     H89047   4.573   7.274   7.354 -0.7661  1.4606 -0.0317
  660MOL0     H89048   4.417   7.224   7.403  1.9414 -0.0883  2.0375
  660MOL0     H89049   4.599   7.068   7.424  0.7327  4.8225  0.5787
  660MOL0     H89050   4.647   7.055   7.270  0.0877  0.4180  1.0516
  660MOL0     H89051   4.419   6.935   7.090  0.9603  1.5441  0.8453
  660MOL0     H89052   4.139   6.846   7.088 -2.0298 -1.3734 -1.2328
  660MOL0     H89053   4.242   6.720   7.045 -0.3321  2.9702 -1.0035
  660MOL0     H89054   4.039   6.704   7.279  0.0676 -1.9034  2.1320
  660MOL0     H89055   4.176   6.590   7.260  1.1807 -0.8456 -2.9276
  660MOL0     H89056   4.021   6.474   7.149  1.2069 -0.8691 -0.9605
  660MOL0     H89057   4.099   6.554   7.014 -2.7140  0.3421 -2.7433
  660MOL0     H89058   3.906   6.740   7.040 -0.9263 -0.3408  0.3760
  660MOL0     H89059   3.832   6.615   7.148 -0.8426 -3.5639 -0.3122
  660MOL0     H89060   3.774   6.430   6.732  0.1736  1.5513  2.3863
  660MOL0     H89061   3.912   6.480   6.395 -0.8858  2.3389 -0.8809
  660MOL0     H89062   3.782   6.391   6.477 -1.5726  1.6102  3.4947
  660MOL0     H89063   3.743   6.543   6.394  0.6212  1.7711  0.9286
  660MOL0     H89064   4.158   7.065   6.375  0.4358  0.4399 -1.3761
  660MOL0     H89065   4.199   7.193   6.165  3.1556 -1.7046  1.6800
  660MOL0     H89066   4.061   7.286   6.002  1.2464 -1.3243  0.7500
  660MOL0     H89067   4.082   7.279   5.827  1.0304 -0.2467 -0.1111
  660MOL0     H89068   3.895   7.086   5.844  3.0441  0.4251 -0.3241
  660MOL0     H89069   3.831   7.178   5.977  2.0155 -0.6875  1.5322
  660MOL0     H89070   3.863   7.386   5.823 -3.6056  1.9724 -1.3068
  660MOL0     H89071   3.724   7.288   5.824  0.3713  3.1979 -0.2788
  660MOL0     H89072   3.961   7.293   5.622 -0.2648 -0.3750  0.6814
  660MOL0     H89073   3.849   7.157   5.623 -2.2365  0.6109 -1.0889
  660MOL0     H89074   3.785   7.463   5.594  1.3769 -0.7583  0.3582
  660MOL0     H89075   3.664   7.335   5.573 -0.5259 -2.8106 -2.0426
  660MOL0     H89076   3.910   7.343   5.410 -0.5098  2.6762 -0.1481
  660MOL0     H89077   3.772   7.222   5.414  1.9441 -0.5268  1.5688
  660MOL0     H89078   3.637   7.427   5.326  0.5961  0.1037  2.6079
  660MOL0     H89079   3.749   7.368   5.224  0.1254  0.3036 -0.7934
  660MOL0     H89080   3.806   7.608   5.415 -0.3193  2.4367 -1.6046
  660MOL0     H89081   3.729   7.624   5.267  1.8346  1.3780 -2.8441
  660MOL0     H89082   4.028   6.881   5.942  1.4688  2.8192 -2.2700
  660MOL0     H89083   3.999   6.741   6.164  0.7560  0.5329 -0.1753
  660MOL0     H89084   4.061   6.829   6.664  1.4014 -0.9755  4.3473
  660MOL0     H89085   4.010   6.756   6.875 -3.5236  1.0907  0.6349
  660MOL0     H89086   4.202   7.497   6.402 -0.3237  2.2442 -3.0238
  660MOL0     H89087   4.136   7.696   6.280 -0.3586 -4.5025 -1.4169
  660MOL0     H89088   3.772   7.924   6.040  0.7062  0.1601 -0.8237
  660MOL0     H89089   3.663   8.112   5.955 -1.0837  0.2045 -0.1995
  660MOL0     H89090   3.484   8.326   6.089 -0.1464 -0.4372 -1.2116
  660MOL0     H89091   3.529   8.500   6.089  4.9328 -0.4086  3.1674
  660MOL0     H89092   3.531   8.287   5.857  1.6666 -1.2536  2.2496
  660MOL0     H89093   3.600   8.455   5.847 -1.2858  0.4284 -1.1599
  660MOL0     H89094   3.394   8.563   5.903  0.3940 -0.5067  0.0642
  660MOL0     H89095   3.302   8.418   5.872 -1.3139  2.1899  4.1247
  660MOL0     H89096   3.423   8.388   5.645  0.5547  0.7051 -1.5316
  660MOL0     H89097   3.501   8.541   5.673  1.3012  1.3865  5.3167
  660MOL0     H89098   3.110   8.672   5.570  0.0118 -0.5378  1.3112
  660MOL0     H89099   3.820   8.346   6.303  0.9921  1.7838 -2.4482
  660MOL0     H89100   3.920   8.157   6.385 -0.7388  0.3617  0.0827
  661MOL0     O89101   8.372   8.684   4.676  0.0021 -0.3398  0.0417
  661MOL0     C89102   8.298   8.630   4.759  0.4067 -0.1362  0.0065
  661MOL0     O89103   8.191   8.551   4.727  0.6585 -0.0047 -0.3721
  661MOL0     C89104   8.160   8.537   4.604 -1.1034  0.0703 -0.3964
  661MOL0     C89105   8.091   8.637   4.533 -0.3562  0.0151 -0.2082
  661MOL0     C89106   8.067   8.609   4.404  1.0604 -0.3650  0.6868
  661MOL0     C89107   8.084   8.483   4.338  0.6966  0.5839 -0.1975
  661MOL0     O89108   8.047   8.466   4.207  0.4375 -0.0188 -0.7992
  661MOL0     C89109   7.907   8.444   4.192  0.7848  0.6527 -0.5395
  661MOL0     C89110   7.841   8.574   4.154 -0.6317  0.8522  0.4004
  661MOL0     C89111   7.702   8.554   4.090  0.8245 -0.5680  0.9470
  661MOL0     C89112   7.642   8.690   4.063 -1.2224  0.2654  0.0070
  661MOL0     C89113   7.490   8.705   4.036  0.4341 -0.1313 -0.5798
  661MOL0     C89114   7.471   8.858   4.068 -0.1356 -0.4457  0.9956
  661MOL0     C89115   7.326   8.912   4.059  0.1033  0.4177 -0.2058
  661MOL0     C89116   7.260   8.852   3.932  0.4835  0.1300 -0.7346
  661MOL0     N89117   7.156   8.936   3.892  0.0180 -0.4084  0.7049
  661MOL0     C89118   7.171   9.057   3.831 -0.5922 -0.0655 -0.4044
  661MOL0     C89119   7.047   9.101   3.818  0.5923  0.6922  0.8607
  661MOL0     C89120   7.011   9.229   3.756  0.3155 -0.4334  0.1804
  661MOL0     C89121   6.886   9.226   3.671  0.9042 -0.8574  0.3755
  661MOL0     C89122   6.907   9.170   3.523 -0.3215 -0.1615  0.7709
  661MOL0     C89123   6.953   9.021   3.519  0.2186  0.6169  1.1423
  661MOL0     O89124   6.950   8.993   3.384  1.2184 -0.3036  0.3095
  661MOL0     C89125   6.928   8.861   3.345  1.5462  0.2334 -0.9932
  661MOL0     C89126   6.944   8.743   3.420  0.0169 -0.7678 -0.3917
  661MOL0     C89127   6.928   8.619   3.378  0.4344  0.7764  0.0656
  661MOL0     C89128   6.937   8.508   3.479  0.5722  0.1098 -0.3568
  661MOL0     C89129   6.898   8.592   3.241 -0.7848 -1.1765 -0.3302
  661MOL0     C89130   6.870   8.460   3.182 -0.1315  0.1149  0.6840
  661MOL0     O89131   6.797   8.465   3.061  0.3916 -0.1326 -0.4440
  661MOL0     C89132   6.722   8.357   3.015  0.0744 -0.1648 -0.5589
  661MOL0     C89133   6.709   8.334   2.874  0.1598  0.1299 -0.0456
  661MOL0     C89134   6.618   8.230   2.824 -0.4049 -0.3392  0.3954
  661MOL0     C89135   6.554   8.147   2.910 -0.4468  0.2710 -0.5727
  661MOL0     O89136   6.474   8.061   2.839 -0.0518 -0.4999 -0.4316
  661MOL0     C89137   6.346   8.024   2.903  0.7384 -0.4206  0.2891
  661MOL0     C89138   6.255   8.147   2.951 -0.0630  0.2651 -0.4142
  661MOL0     C89139   6.195   8.225   2.832  0.3494  0.5141  0.0355
  661MOL0     C89140   6.063   8.304   2.871  1.4094 -0.0265  0.5228
  661MOL0     C89141   5.979   8.357   2.754 -0.7511 -0.6005 -0.5879
  661MOL0     C89142   6.056   8.456   2.657  1.0917  0.0230  1.4901
  661MOL0     C89143   5.976   8.481   2.528  1.0956 -0.2522  0.0874
  661MOL0     C89144   6.022   8.617   2.471  0.6086 -0.2673 -0.2907
  661MOL0    Cl89145   6.002   8.761   2.574  0.2444  0.1752  0.3785
  661MOL0     C89146   6.575   8.168   3.048  0.7884 -0.3556  1.0122
  661MOL0     C89147   6.653   8.278   3.101 -0.7822  0.0364  0.0137
  661MOL0     O89148   6.921   8.353   3.221  0.1760  0.8764  0.1356
  661MOL0     C89149   6.882   8.715   3.158 -0.4572  0.0096 -1.3677
  661MOL0     C89150   6.885   8.846   3.214 -0.5514 -0.0052 -0.5801
  661MOL0     N89151   6.959   9.008   3.870  0.6676 -0.0335 -0.1557
  661MOL0     N89152   7.023   8.910   3.920 -0.7970 -0.5849 -0.2969
  661MOL0     C89153   8.141   8.378   4.412  0.2001 -0.1517  0.0266
  661MOL0     C89154   8.173   8.410   4.550  0.9713  0.9511  0.2516
  661MOL0     C89155   8.317   8.661   4.908 -0.2945  0.5202 -0.1014
  661MOL0     C89156   8.417   8.759   4.944  0.0800  0.7955  0.5795
  661MOL0     C89157   8.443   8.801   5.077  0.2121 -0.3886  0.4837
  661MOL0     C89158   8.361   8.746   5.177  0.3126 -0.2071  0.1810
  661MOL0     O89159   8.366   8.777   5.312  0.3862  0.4268  1.2573
  661MOL0     C89160   8.423   8.899   5.345  0.4754 -0.4676  0.2682
  661MOL0     C89161   8.382   8.948   5.490 -0.1930 -0.8971 -0.3943
  661MOL0     C89162   8.477   9.040   5.571 -0.2485  0.3820  0.3221
  661MOL0     C89163   8.609   8.968   5.611  0.2876  0.2924 -0.1617
  661MOL0     C89164   8.697   9.046   5.697 -0.3921 -0.6577  0.0096
  661MOL0     C89165   8.768   9.098   5.782 -1.2872  0.5298 -0.7143
  661MOL0     C89166   8.262   8.645   5.141  0.1551 -0.5442 -0.0026
  661MOL0     C89167   8.244   8.607   5.007 -0.4461 -0.7286 -0.9219
  661MOL0     H89168   8.054   8.732   4.569 -2.0943  1.6299 -5.4260
  661MOL0     H89169   8.013   8.688   4.354  3.2180 -1.5376 -3.9981
  661MOL0     H89170   7.888   8.368   4.116  1.3464  2.1154 -2.2201
  661MOL0     H89171   7.865   8.399   4.283  0.4787 -2.2968 -2.0092
  661MOL0     H89172   7.829   8.634   4.246 -2.8903  1.4271 -0.2012
  661MOL0     H89173   7.919   8.615   4.090  3.0011 -3.2949  1.7077
  661MOL0     H89174   7.721   8.503   3.995  0.1676 -1.2246  1.1625
  661MOL0     H89175   7.637   8.492   4.153 -0.7745 -0.4711 -0.5472
  661MOL0     H89176   7.666   8.743   4.156  0.3540 -1.2498  0.5176
  661MOL0     H89177   7.699   8.747   3.989  0.4694 -2.3834 -0.8350
  661MOL0     H89178   7.460   8.672   3.936 -0.1829 -1.9586  0.1711
  661MOL0     H89179   7.431   8.657   4.115  1.1686  2.9379  2.0262
  661MOL0     H89180   7.515   8.897   4.160  2.0541 -2.1280  0.7323
  661MOL0     H89181   7.517   8.909   3.983  2.8684  0.9605  3.3047
  661MOL0     H89182   7.263   8.882   4.143  4.1917 -0.5510  2.8439
  661MOL0     H89183   7.326   9.022   4.059 -3.6534  0.5821  1.3994
  661MOL0     H89184   7.228   8.752   3.962 -0.2907  0.4493 -0.4708
  661MOL0     H89185   7.329   8.858   3.847 -0.1278  1.8995 -1.1410
  661MOL0     H89186   7.267   9.098   3.801 -0.1263 -0.7212  0.1676
  661MOL0     H89187   7.017   9.310   3.829 -1.6749  2.6449 -2.7511
  661MOL0     H89188   7.088   9.263   3.686 -1.2037 -0.7565 -1.7495
  661MOL0     H89189   6.842   9.325   3.660  0.7097 -1.0216 -0.3519
  661MOL0     H89190   6.815   9.172   3.735  0.0693  2.1078  2.1608
  661MOL0     H89191   6.984   9.233   3.478 -0.1635 -0.8852  0.0009
  661MOL0     H89192   6.816   9.182   3.464  0.5898 -2.6545 -1.3880
  661MOL0     H89193   6.881   8.952   3.564  0.4005 -3.4133 -3.7648
  661MOL0     H89194   7.050   9.002   3.566  0.9123 -2.3015 -1.1464
  661MOL0     H89195   6.970   8.745   3.525 -1.3235 -1.5283 -0.0241
  661MOL0     H89196   6.851   8.441   3.485 -0.5114  1.3568 -1.4413
  661MOL0     H89197   7.027   8.448   3.456  0.2734  0.2862 -2.1399
  661MOL0     H89198   6.933   8.544   3.581 -1.5099 -2.8966  0.7789
  661MOL0     H89199   6.759   8.389   2.795 -0.6986 -4.6657 -4.3922
  661MOL0     H89200   6.610   8.221   2.716 -1.7114  1.8652  0.2487
  661MOL0     H89201   6.299   7.948   2.840  3.0386 -1.1612 -0.6400
  661MOL0     H89202   6.368   7.966   2.994 -1.6393  0.3824  1.4668
  661MOL0     H89203   6.174   8.107   3.014 -2.1755  0.4852 -2.8545
  661MOL0     H89204   6.323   8.208   3.012  1.1334 -2.9838  1.8063
  661MOL0     H89205   6.170   8.146   2.760  2.9630 -2.4036  2.0884
  661MOL0     H89206   6.268   8.296   2.793  2.3661 -2.0263 -1.1370
  661MOL0     H89207   5.992   8.232   2.913  1.4082  0.1962  0.9034
  661MOL0     H89208   6.072   8.381   2.947 -4.1024  0.3213  1.2622
  661MOL0     H89209   5.887   8.407   2.784  0.0305  0.6814 -0.2531
  661MOL0     H89210   5.967   8.268   2.691 -1.0720  0.7956 -2.5666
  661MOL0     H89211   6.065   8.545   2.720 -0.2078  2.9284 -2.0878
  661MOL0     H89212   6.151   8.420   2.615 -0.5938 -0.1816 -2.5778
  661MOL0     H89213   5.871   8.492   2.554  0.9157 -1.4492 -0.0401
  661MOL0     H89214   5.992   8.408   2.447 -1.0466  0.8216 -1.3938
  661MOL0     H89215   5.958   8.629   2.384  0.0182 -1.2953 -0.0197
  661MOL0     H89216   6.127   8.613   2.440  0.6527 -3.9814 -0.1365
  661MOL0     H89217   6.529   8.099   3.118  1.2689  0.6628  2.3748
  661MOL0     H89218   6.661   8.292   3.208 -1.2925  0.5462 -0.0093
  661MOL0     H89219   6.873   8.688   3.053  1.0205 -1.7523 -1.0918
  661MOL0     H89220   6.870   8.931   3.149  0.6273  0.9906  0.3897
  661MOL0     H89221   8.163   8.276   4.385  0.8032 -0.9675  3.1785
  661MOL0     H89222   8.220   8.331   4.608  0.5490 -1.6857 -2.7689
  661MOL0     H89223   8.487   8.793   4.868 -1.8873 -0.3780 -1.9031
  661MOL0     H89224   8.528   8.869   5.075  1.7522 -2.2191 -1.3469
  661MOL0     H89225   8.532   8.898   5.341  0.4576 -2.1219 -0.9555
  661MOL0     H89226   8.392   8.975   5.272  1.3980  2.3335  2.6106
  661MOL0     H89227   8.360   8.856   5.545  0.1629 -0.4400  0.5359
  661MOL0     H89228   8.287   8.998   5.470  0.8172  0.8296 -1.0899
  661MOL0     H89229   8.428   9.075   5.662  0.4704  0.2221  0.7837
  661MOL0     H89230   8.506   9.128   5.512 -0.4264  1.2380  1.4686
  661MOL0     H89231   8.660   8.956   5.516 -2.9786  1.5576 -2.2353
  661MOL0     H89232   8.585   8.871   5.655 -1.5010  0.5079 -0.5847
  661MOL0     H89233   8.841   9.132   5.852 -0.5771  0.1077 -1.2332
  661MOL0     H89234   8.212   8.606   5.228 -0.7520  1.1283  0.2646
  661MOL0     H89235   8.174   8.525   4.990 -2.1580  0.7934 -1.5362
  662MOL0     O89236   0.731   8.556   0.690  0.6604 -0.1870 -0.6515
  662MOL0     C89237   0.780   8.521   0.801 -0.4172  0.5898 -0.0759
  662MOL0     O89238   0.915   8.554   0.842  0.5767  0.4512  0.2522
  662MOL0     C89239   0.986   8.642   0.759 -0.0008 -0.2150 -0.2264
  662MOL0     C89240   1.043   8.751   0.827 -0.1964  0.6714 -0.4469
  662MOL0     C89241   1.119   8.845   0.762 -0.1132  0.0555  0.3398
  662MOL0     C89242   1.155   8.833   0.627 -0.2623  0.2029  0.1869
  662MOL0     O89243   1.250   8.910   0.574  0.9357  0.3064 -0.0477
  662MOL0     C89244   1.234   8.931   0.433  0.4355 -0.2970  0.1683
  662MOL0     C89245   1.309   9.063   0.400  0.1328  0.2681 -1.2347
  662MOL0     C89246   1.306   9.095   0.254  0.6496 -0.9714 -0.2750
  662MOL0     C89247   1.190   9.172   0.213  0.6093 -0.6422 -0.0103
  662MOL0     C89248   1.198   9.195   0.058  0.9199 -0.0271  0.3016
  662MOL0     C89249   1.096   9.308   0.021 -0.3099 -0.4878 -0.7834
  662MOL0     C89250   1.099   9.362  -0.115 -0.5198  0.5498 -0.4611
  662MOL0     C89251   1.050   9.266  -0.224  0.4670  0.5672  0.0115
  662MOL0     N89252   0.908   9.257  -0.246  0.2512 -0.0752  0.0926
  662MOL0     C89253   0.833   9.155  -0.191 -0.0747  0.1365 -0.1356
  662MOL0     C89254   0.718   9.167  -0.262  1.4451  1.3143 -0.5599
  662MOL0     C89255   0.600   9.070  -0.248  0.1525 -0.2361 -0.1113
  662MOL0     C89256   0.513   9.097  -0.123 -0.1859 -0.9102  0.3917
  662MOL0     C89257   0.464   9.245  -0.119 -0.5347 -0.0631 -0.3342
  662MOL0     C89258   0.369   9.277  -0.235  0.8677 -0.3663 -0.5196
  662MOL0     O89259   0.258   9.193  -0.254 -0.4042 -0.1406 -0.1738
  662MOL0     C89260   0.161   9.246  -0.334  0.0672  0.2823  0.3406
  662MOL0     C89261   0.029   9.250  -0.289 -0.2437  0.5121 -0.6878
  662MOL0     C89262  -0.081   9.284  -0.374 -0.6903  0.4129 -1.0789
  662MOL0     C89263  -0.217   9.269  -0.310 -0.4522  0.4906 -0.2375
  662MOL0     C89264  -0.050   9.323  -0.506 -0.5413 -0.3922  0.3418
  662MOL0     C89265  -0.158   9.391  -0.589  0.6864  0.9631  0.0890
  662MOL0     O89266  -0.149   9.383  -0.722 -0.1441 -0.0044 -0.4188
  662MOL0     C89267  -0.242   9.430  -0.809 -0.0258 -0.3591 -0.4033
  662MOL0     C89268  -0.217   9.547  -0.885 -0.0927  0.5096 -0.3229
  662MOL0     C89269  -0.311   9.596  -0.966 -0.8953  0.3636  0.9987
  662MOL0     C89270  -0.432   9.535  -0.994  0.2487  0.7983  0.5058
  662MOL0     O89271  -0.512   9.600  -1.089 -0.2161  0.6487  0.6001
  662MOL0     C89272  -0.590   9.516  -1.181  0.7585  0.2902  0.3405
  662MOL0     C89273  -0.535   9.531  -1.320 -0.0694 -0.4653  0.1821
  662MOL0     C89274  -0.605   9.464  -1.429 -0.0838  0.0404 -0.2473
  662MOL0     C89275  -0.583   9.539  -1.566 -0.7042  0.3182  0.3854
  662MOL0     C89276  -0.645   9.466  -1.688  0.1324  0.3971 -1.1644
  662MOL0     C89277  -0.570   9.502  -1.813 -0.3302  0.0498  0.3670
  662MOL0     C89278  -0.649   9.461  -1.948  0.4244 -1.0638 -1.0529
  662MOL0     C89279  -0.618   9.539  -2.068 -0.0747 -0.9354  0.6280
  662MOL0    Cl89280  -0.458   9.502  -2.129 -0.0435 -0.1507  0.7061
  662MOL0     C89281  -0.465   9.412  -0.926 -0.5045 -0.5818 -0.0823
  662MOL0     C89282  -0.364   9.364  -0.831  0.1021  0.2709  0.5646
  662MOL0     O89283  -0.231   9.463  -0.522  0.0425  0.1273  0.5379
  662MOL0     C89284   0.081   9.317  -0.558  0.8778 -0.3000 -0.6308
  662MOL0     C89285   0.193   9.285  -0.473 -0.1309 -0.3676  0.3880
  662MOL0     N89286   0.718   9.280  -0.341  0.2885  0.4214 -0.3736
  662MOL0     N89287   0.832   9.334  -0.337  0.1870  0.2615 -0.4324
  662MOL0     C89288   1.113   8.704   0.563  0.8830 -0.6137  0.1255
  662MOL0     C89289   1.029   8.611   0.630  0.3471  0.1783  0.0506
  662MOL0     C89290   0.697   8.434   0.895  0.6374  0.6700  0.4745
  662MOL0     C89291   0.553   8.429   0.885  1.1074 -0.1087  0.5331
  662MOL0     C89292   0.470   8.364   0.976  0.6903  0.1838  0.2897
  662MOL0     C89293   0.518   8.307   1.089  0.2428  0.7577 -0.0128
  662MOL0     O89294   0.419   8.261   1.170  1.0045 -0.0143 -0.4634
  662MOL0     C89295   0.457   8.193   1.292 -1.5690 -0.4514  0.8472
  662MOL0     C89296   0.453   8.293   1.409  0.0294 -0.2318 -0.4621
  662MOL0     C89297   0.528   8.243   1.534  0.6550  0.2769 -0.2289
  662MOL0     C89298   0.517   8.351   1.639 -0.8337 -0.4070 -0.0049
  662MOL0     C89299   0.643   8.436   1.656  0.5554 -0.3686 -0.0173
  662MOL0     C89300   0.736   8.520   1.655 -0.7399  0.7869 -0.4807
  662MOL0     C89301   0.656   8.318   1.115 -0.2657  0.4526 -0.2741
  662MOL0     C89302   0.749   8.372   1.017 -0.3545 -0.7286 -0.7107
  662MOL0     H89303   1.023   8.753   0.934  0.7273 -1.8662 -0.1472
  662MOL0     H89304   1.170   8.927   0.812  0.2454 -0.2707  0.5228
  662MOL0     H89305   1.267   8.844   0.376 -0.6255 -1.5524  1.3849
  662MOL0     H89306   1.130   8.941   0.402  0.4910 -2.2852 -0.7842
  662MOL0     H89307   1.291   9.147   0.467  0.3314 -0.5230 -0.1601
  662MOL0     H89308   1.413   9.041   0.428 -0.9630 -0.5569  2.9138
  662MOL0     H89309   1.391   9.161   0.237 -1.0367  1.8930  1.4897
  662MOL0     H89310   1.312   9.008   0.189  0.0200 -0.9401 -0.3847
  662MOL0     H89311   1.098   9.119   0.238  0.3855  0.6581  2.1955
  662MOL0     H89312   1.188   9.273   0.255  2.7013  0.5132 -2.4011
  662MOL0     H89313   1.296   9.239   0.035  0.2510  1.3006 -0.0600
  662MOL0     H89314   1.169   9.106   0.001 -1.2683 -1.2178  3.0327
  662MOL0     H89315   0.992   9.275   0.032 -1.2851  2.0348 -1.6621
  662MOL0     H89316   1.122   9.393   0.085  0.0043  0.3024 -1.9448
  662MOL0     H89317   1.050   9.459  -0.103 -1.5153 -0.1378  1.4552
  662MOL0     H89318   1.201   9.387  -0.147 -0.2146  0.0370  0.0900
  662MOL0     H89319   1.102   9.170  -0.213  3.3322  2.0646  0.5959
  662MOL0     H89320   1.097   9.296  -0.318 -0.0433  1.1642 -0.0587
  662MOL0     H89321   0.861   9.084  -0.114 -0.6797  0.6095  0.5269
  662MOL0     H89322   0.545   9.073  -0.343 -2.3630 -1.2327  1.2436
  662MOL0     H89323   0.643   8.969  -0.250  1.7289  0.4030 -1.1428
  662MOL0     H89324   0.571   9.071  -0.034 -1.3111 -0.5770  1.2415
  662MOL0     H89325   0.420   9.040  -0.123 -0.9758  0.3200  0.4746
  662MOL0     H89326   0.546   9.318  -0.123 -0.5520 -0.0160  0.0878
  662MOL0     H89327   0.415   9.260  -0.022  1.2975 -1.9700  0.9837
  662MOL0     H89328   0.422   9.286  -0.331  0.1257  1.1893 -0.8245
  662MOL0     H89329   0.331   9.377  -0.213 -0.6773 -1.4554  2.2499
  662MOL0     H89330   0.007   9.214  -0.189  0.6757  0.1822 -0.5867
  662MOL0     H89331  -0.257   9.367  -0.281  0.4025  0.7052  0.2199
  662MOL0     H89332  -0.288   9.222  -0.379  1.5233  1.5218 -3.1498
  662MOL0     H89333  -0.209   9.193  -0.232 -0.0101 -4.1556 -4.3427
  662MOL0     H89334  -0.123   9.592  -0.856  1.0616 -2.0657  0.1861
  662MOL0     H89335  -0.291   9.694  -1.009 -0.0249 -0.3621 -0.3003
  662MOL0     H89336  -0.588   9.410  -1.156  2.3224  0.2267  0.0740
  662MOL0     H89337  -0.689   9.560  -1.168  0.5354 -0.1194  0.0374
  662MOL0     H89338  -0.527   9.640  -1.329  0.9141 -0.4503  0.9811
  662MOL0     H89339  -0.428   9.505  -1.319  0.1583  0.4121 -0.1109
  662MOL0     H89340  -0.712   9.467  -1.407 -0.0068  3.5926  0.2130
  662MOL0     H89341  -0.573   9.360  -1.433 -2.2671 -0.6834  0.1610
  662MOL0     H89342  -0.626   9.639  -1.556 -1.1122  0.2089 -0.2517
  662MOL0     H89343  -0.477   9.552  -1.590 -0.5783 -2.4044 -0.9888
  662MOL0     H89344  -0.753   9.485  -1.694 -0.0248 -0.3416 -0.7703
  662MOL0     H89345  -0.628   9.359  -1.679 -1.1143  0.3332  0.8529
  662MOL0     H89346  -0.568   9.611  -1.820 -0.8060 -0.0012 -1.0140
  662MOL0     H89347  -0.468   9.464  -1.826 -1.4192 -2.1799 -3.6057
  662MOL0     H89348  -0.752   9.486  -1.923 -0.3528 -3.8107 -1.0957
  662MOL0     H89349  -0.637   9.354  -1.968 -1.2939 -0.9221 -3.1563
  662MOL0     H89350  -0.637   9.645  -2.052 -1.6877 -0.9226 -1.0795
  662MOL0     H89351  -0.683   9.508  -2.150  1.0568 -3.7452  0.6443
  662MOL0     H89352  -0.563   9.365  -0.927 -0.2991 -1.0646 -2.2525
  662MOL0     H89353  -0.388   9.278  -0.770  0.1132  0.1512  0.3995
  662MOL0     H89354   0.080   9.350  -0.661 -2.7494 -0.9324 -0.9420
  662MOL0     H89355   0.295   9.296  -0.508 -0.8559 -0.1246 -1.7719
  662MOL0     H89356   1.147   8.676   0.464 -0.1261  0.1432 -0.4543
  662MOL0     H89357   0.982   8.527   0.580  0.9638 -0.5698  0.6908
  662MOL0     H89358   0.515   8.467   0.791  0.5695  0.8117  1.0983
  662MOL0     H89359   0.366   8.363   0.946  0.3357 -1.5181  1.4572
  662MOL0     H89360   0.404   8.101   1.316  2.1611 -2.3608  2.6925
  662MOL0     H89361   0.559   8.157   1.277 -1.7776 -0.2891 -1.1884
  662MOL0     H89362   0.349   8.315   1.437  0.0932 -1.2861  0.6822
  662MOL0     H89363   0.487   8.394   1.384 -1.1916  1.5635  4.0925
  662MOL0     H89364   0.634   8.237   1.506  0.0233  1.4515 -3.2559
  662MOL0     H89365   0.476   8.155   1.572  0.5898 -1.1273 -3.2302
  662MOL0     H89366   0.504   8.295   1.733 -2.5280  0.7535  0.4999
  662MOL0     H89367   0.427   8.412   1.625  1.3484  2.8566 -0.9260
  662MOL0     H89368   0.822   8.583   1.668  0.0847  0.0743 -2.2751
  662MOL0     H89369   0.695   8.283   1.210 -3.7580  0.3843  1.3078
  662MOL0     H89370   0.857   8.381   1.024 -0.3601 -1.6948  1.3832
  663MOL0     O89371   4.251   0.321   0.488 -0.2760  0.7706 -1.0121
  663MOL0     C89372   4.336   0.276   0.411  0.0742 -0.5960  0.4785
  663MOL0     O89373   4.344   0.300   0.278  0.2634 -0.2864  0.0294
  663MOL0     C89374   4.252   0.372   0.206 -0.5804  0.0422 -1.3971
  663MOL0     C89375   4.317   0.436   0.103  0.4947 -0.0842  0.2338
  663MOL0     C89376   4.236   0.519   0.024  0.8160  0.2258  0.5007
  663MOL0     C89377   4.102   0.541   0.059  0.2098 -0.0366  1.0317
  663MOL0     O89378   4.019   0.626  -0.008  0.3643  0.5104  0.1463
  663MOL0     C89379   4.074   0.758  -0.047 -0.0639  0.2695  0.1228
  663MOL0     C89380   4.055   0.848   0.078 -0.1662  0.9779  1.2407
  663MOL0     C89381   4.124   0.987   0.048 -0.5824  0.1720 -0.0064
  663MOL0     C89382   4.253   1.013   0.123  0.5367  0.0988  1.0138
  663MOL0     C89383   4.300   1.150   0.077  0.3193 -0.4767  0.0484
  663MOL0     C89384   4.442   1.195   0.143  0.4737 -0.1363  0.3266
  663MOL0     C89385   4.510   1.308   0.060  0.4264 -0.0578 -0.6051
  663MOL0     C89386   4.594   1.251  -0.057  0.4923  1.1870 -0.1699
  663MOL0     N89387   4.734   1.287  -0.033  0.8911 -0.4155  0.7894
  663MOL0     C89388   4.780   1.415  -0.069  0.2304  0.3115 -0.5975
  663MOL0     C89389   4.898   1.419  -0.009  0.1105  0.0350  0.1293
  663MOL0     C89390   4.985   1.543  -0.016  0.6251  0.9092 -0.5443
  663MOL0     C89391   5.037   1.557  -0.154  0.1348  0.0969  0.8112
  663MOL0     C89392   5.159   1.650  -0.161 -0.2529 -0.4630 -0.3258
  663MOL0     C89393   5.243   1.618  -0.282 -0.1076  1.2897  0.5664
  663MOL0     O89394   5.337   1.726  -0.325  0.1079 -0.5282 -0.1769
  663MOL0     C89395   5.426   1.671  -0.408 -0.3741 -0.1138 -0.9334
  663MOL0     C89396   5.524   1.575  -0.362 -0.3422 -0.5499 -0.9969
  663MOL0     C89397   5.609   1.505  -0.445 -0.7355 -0.0700  0.2200
  663MOL0     C89398   5.702   1.400  -0.390  0.4500 -0.4149 -0.2255
  663MOL0     C89399   5.596   1.520  -0.588 -0.1654  0.1029  0.0578
  663MOL0     C89400   5.686   1.461  -0.687  1.1467 -0.8340  1.2079
  663MOL0     O89401   5.621   1.440  -0.811  0.0805 -0.3702  0.4429
  663MOL0     C89402   5.697   1.378  -0.908  0.9251 -1.3932  0.3631
  663MOL0     C89403   5.659   1.247  -0.941 -0.0333  0.2037  0.4889
  663MOL0     C89404   5.730   1.188  -1.044  0.2436  0.5451  0.3186
  663MOL0     C89405   5.841   1.247  -1.113 -0.5110 -0.4305 -0.1735
  663MOL0     O89406   5.903   1.187  -1.224  0.0018 -0.3047 -0.5404
  663MOL0     C89407   5.898   1.045  -1.241 -0.2613 -0.3640 -0.2129
  663MOL0     C89408   5.800   1.001  -1.355  0.1978 -1.1940 -0.8238
  663MOL0     C89409   5.843   1.066  -1.493  0.3928  0.9021  0.1368
  663MOL0     C89410   5.965   1.016  -1.544 -0.0492 -0.1730  0.7160
  663MOL0     C89411   6.018   1.087  -1.671  0.9132 -0.2227 -0.1435
  663MOL0     C89412   6.040   1.242  -1.658  0.2893 -0.3454 -0.5675
  663MOL0     C89413   6.133   1.282  -1.539 -0.5759  0.8443 -0.5345
  663MOL0     C89414   6.202   1.409  -1.577  0.3686 -0.0962  0.5251
  663MOL0    Cl89415   6.356   1.427  -1.483  0.1857 -0.0022  0.5649
  663MOL0     C89416   5.882   1.374  -1.074  0.3401 -0.2052  1.1628
  663MOL0     C89417   5.818   1.446  -0.970  0.8593  0.5610  0.3763
  663MOL0     O89418   5.810   1.442  -0.671 -0.0206  0.3422 -0.1403
  663MOL0     C89419   5.506   1.615  -0.633 -0.7020  0.6784  0.7037
  663MOL0     C89420   5.423   1.683  -0.545  0.1156 -1.5288 -0.3924
  663MOL0     N89421   4.925   1.303   0.052 -0.5479 -0.4890 -0.4575
  663MOL0     N89422   4.826   1.226   0.055  0.6758 -0.1558 -0.2271
  663MOL0     C89423   4.044   0.479   0.164 -0.5544 -0.9976 -0.5868
  663MOL0     C89424   4.121   0.386   0.237  0.9958 -0.4230  0.3523
  663MOL0     C89425   4.451   0.208   0.469 -0.9166 -0.1949  0.4879
  663MOL0     C89426   4.572   0.179   0.395  0.1214  0.6343 -0.8588
  663MOL0     C89427   4.687   0.116   0.444  0.1477  0.1323 -0.0122
  663MOL0     C89428   4.695   0.086   0.581  0.9941  0.1880 -0.3670
  663MOL0     O89429   4.814   0.025   0.626  0.5001 -0.1692  0.1904
  663MOL0     C89430   4.829  -0.025   0.753  0.4109 -0.5179 -0.9574
  663MOL0     C89431   4.879   0.085   0.843 -0.3640 -0.7202 -1.0514
  663MOL0     C89432   4.974   0.037   0.956  0.6096  0.3979 -0.8209
  663MOL0     C89433   4.897   0.009   1.098 -0.5619  0.3329  0.5952
  663MOL0     C89434   4.788  -0.088   1.080 -0.9302  0.7220  1.5727
  663MOL0     C89435   4.691  -0.155   1.066 -0.2453 -0.0731 -0.6775
  663MOL0     C89436   4.576   0.115   0.664  1.0986  0.5904  0.4530
  663MOL0     C89437   4.463   0.171   0.606  0.2022 -0.3404 -0.4173
  663MOL0     H89438   4.425   0.426   0.096  0.7513 -0.0950  3.1648
  663MOL0     H89439   4.296   0.574  -0.049  0.4869 -0.5172 -0.3482
  663MOL0     H89440   4.171   0.749  -0.097 -0.1394 -1.9734  0.2915
  663MOL0     H89441   4.005   0.793  -0.124 -1.4554  1.1544  1.7139
  663MOL0     H89442   3.946   0.854   0.090 -0.6633  3.2695 -2.5069
  663MOL0     H89443   4.103   0.801   0.163  0.5115 -0.9096 -0.1156
  663MOL0     H89444   4.120   1.001  -0.060 -1.8716  0.9646  0.1266
  663MOL0     H89445   4.050   1.058   0.086 -0.0597  0.6613  0.1285
  663MOL0     H89446   4.224   1.010   0.229 -2.3833  2.6975  0.4231
  663MOL0     H89447   4.309   0.927   0.086 -1.0373  0.1902 -1.9101
  663MOL0     H89448   4.321   1.152  -0.030  1.3385 -0.1494  0.2442
  663MOL0     H89449   4.226   1.225   0.109 -2.0759 -2.3313 -0.8386
  663MOL0     H89450   4.416   1.233   0.242  3.3213 -1.0370  1.5123
  663MOL0     H89451   4.512   1.113   0.163  4.2722  3.1304  1.7490
  663MOL0     H89452   4.439   1.379   0.017  1.4857  1.8816  0.6605
  663MOL0     H89453   4.565   1.354   0.143 -1.7491  0.4256  0.6369
  663MOL0     H89454   4.567   1.294  -0.154  2.6291 -0.1197 -1.4418
  663MOL0     H89455   4.579   1.143  -0.062 -0.2275  1.3314 -2.7663
  663MOL0     H89456   4.740   1.496  -0.128 -1.5373 -1.0943 -1.4167
  663MOL0     H89457   4.918   1.627   0.003 -0.4610 -0.1631  0.6358
  663MOL0     H89458   5.059   1.533   0.064 -0.1374  0.8120  0.1674
  663MOL0     H89459   4.963   1.609  -0.217  1.5345 -1.7747 -2.6887
  663MOL0     H89460   5.055   1.461  -0.205 -1.5238  0.9679 -1.6114
  663MOL0     H89461   5.222   1.642  -0.071  3.5723  0.5230 -2.6620
  663MOL0     H89462   5.130   1.755  -0.168  1.6991  0.3541  2.1193
  663MOL0     H89463   5.167   1.597  -0.358  0.8392 -2.5861  0.5031
  663MOL0     H89464   5.296   1.526  -0.258 -3.0488 -0.6181  0.2394
  663MOL0     H89465   5.544   1.568  -0.256 -0.1952  0.4862 -0.9455
  663MOL0     H89466   5.703   1.400  -0.281  1.0777 -1.2495 -0.2149
  663MOL0     H89467   5.674   1.301  -0.428 -0.2549 -0.0792 -0.5918
  663MOL0     H89468   5.800   1.422  -0.434  0.7658  1.1002  1.1548
  663MOL0     H89469   5.575   1.204  -0.887  2.5370  1.9619  6.8308
  663MOL0     H89470   5.693   1.089  -1.070  2.4863 -0.2103 -0.1882
  663MOL0     H89471   5.994   0.999  -1.265  0.6560  0.2021  2.0679
  663MOL0     H89472   5.879   0.993  -1.146 -1.2727 -1.6290 -1.0687
  663MOL0     H89473   5.823   0.895  -1.365  1.1979 -1.5066  3.2373
  663MOL0     H89474   5.694   1.025  -1.343  0.1984 -0.5198 -1.9416
  663MOL0     H89475   5.860   1.171  -1.467  1.6453  1.0331 -1.1014
  663MOL0     H89476   5.769   1.040  -1.569  1.6878 -0.6548 -0.6552
  663MOL0     H89477   6.048   1.006  -1.473  0.1175  0.1573  0.5723
  663MOL0     H89478   5.937   0.915  -1.575 -0.9112  0.3022 -0.1151
  663MOL0     H89479   5.950   1.081  -1.756  0.8510 -0.9475 -0.0492
  663MOL0     H89480   6.107   1.032  -1.703  1.1047  0.3111 -0.5242
  663MOL0     H89481   6.090   1.268  -1.752  0.8912 -0.9419 -0.4169
  663MOL0     H89482   5.948   1.301  -1.647 -0.7217 -1.3486 -3.1004
  663MOL0     H89483   6.218   1.217  -1.516 -0.5820  0.7378 -0.8111
  663MOL0     H89484   6.089   1.289  -1.439  2.6961 -1.1149  1.2363
  663MOL0     H89485   6.136   1.491  -1.546  1.1335  0.1852  1.4668
  663MOL0     H89486   6.222   1.410  -1.685  1.9527 -1.8735  0.7528
  663MOL0     H89487   5.962   1.421  -1.130 -0.5740 -0.0185 -0.0123
  663MOL0     H89488   5.855   1.545  -0.946  1.8069  0.5305 -0.8776
  663MOL0     H89489   5.477   1.627  -0.737 -1.1048  3.6524  1.0759
  663MOL0     H89490   5.351   1.752  -0.587  1.6128 -0.1554 -0.8354
  663MOL0     H89491   3.940   0.499   0.188  0.3003 -1.1910  4.5652
  663MOL0     H89492   4.067   0.334   0.316 -1.7472 -0.1252 -1.2118
  663MOL0     H89493   4.560   0.211   0.292 -3.7652 -2.5292 -1.6473
  663MOL0     H89494   4.770   0.103   0.375 -0.3534 -0.0428 -0.5934
  663MOL0     H89495   4.737  -0.068   0.793  2.0186 -2.6686  0.7088
  663MOL0     H89496   4.892  -0.114   0.756  0.3013 -0.5816  0.7096
  663MOL0     H89497   4.802   0.145   0.892 -0.8122 -2.7997  0.9653
  663MOL0     H89498   4.931   0.165   0.788 -1.9502  1.1975  0.0987
  663MOL0     H89499   5.055   0.109   0.972  1.6561 -1.2535  2.2684
  663MOL0     H89500   5.021  -0.057   0.924 -0.6101  0.1457 -1.9530
  663MOL0     H89501   4.843   0.099   1.128 -1.7839 -0.1435 -0.0776
  663MOL0     H89502   4.971  -0.021   1.172  1.1676 -1.9696 -1.8518
  663MOL0     H89503   4.600  -0.211   1.069 -0.0685 -0.3076  1.4549
  663MOL0     H89504   4.560   0.100   0.770 -0.2563 -0.9917  0.0506
  663MOL0     H89505   4.383   0.205   0.671  1.3425 -2.5173  2.3046
  664MOL0     O89506   1.504   1.249   8.264 -0.2190 -1.0812  0.5096
  664MOL0     C89507   1.458   1.305   8.160 -0.4123  0.6504 -0.1760
  664MOL0     O89508   1.530   1.330   8.039  0.2312 -0.5883  0.5014
  664MOL0     C89509   1.662   1.329   8.057 -0.5800  0.3448  0.6791
  664MOL0     C89510   1.748   1.240   7.981 -0.7081 -0.7676 -0.4346
  664MOL0     C89511   1.885   1.238   7.980 -0.6476  1.0685 -0.6234
  664MOL0     C89512   1.954   1.326   8.068 -0.0834  0.3029  0.2541
  664MOL0     O89513   2.090   1.330   8.097 -0.2756  0.2055  0.3310
  664MOL0     C89514   2.173   1.213   8.070  0.2300 -0.5745 -0.6872
  664MOL0     C89515   2.308   1.243   8.140  1.0288  0.3465 -0.1367
  664MOL0     C89516   2.308   1.256   8.288 -0.1949 -0.3120 -0.6747
  664MOL0     C89517   2.277   1.129   8.364  0.3629  0.5111 -1.3299
  664MOL0     C89518   2.291   1.143   8.519  0.2840  0.3132  0.5824
  664MOL0     C89519   2.427   1.098   8.567 -0.2587  0.4455 -0.1462
  664MOL0     C89520   2.428   1.093   8.721 -0.8432  0.1733  0.2396
  664MOL0     C89521   2.421   1.230   8.787  0.3648 -0.9937 -0.0749
  664MOL0     N89522   2.505   1.320   8.717  0.2200  0.5634 -0.9771
  664MOL0     C89523   2.650   1.306   8.697  1.2900 -0.5780  0.0199
  664MOL0     C89524   2.684   1.414   8.612 -0.3008 -0.4159 -0.1020
  664MOL0     C89525   2.803   1.429   8.524  0.7263 -0.2488 -0.3131
  664MOL0     C89526   2.880   1.551   8.572  0.9154  0.6531 -0.3549
  664MOL0     C89527   2.994   1.596   8.473  0.1160  0.7617  0.1025
  664MOL0     C89528   3.058   1.716   8.535 -0.1967 -0.2884 -0.0963
  664MOL0     O89529   3.157   1.780   8.447  0.7383  0.6071 -0.3609
  664MOL0     C89530   3.273   1.717   8.467 -0.4485  0.6672 -0.6679
  664MOL0     C89531   3.370   1.776   8.552  0.3811 -0.2901 -0.4632
  664MOL0     C89532   3.489   1.712   8.582  0.1402  0.1999  0.3013
  664MOL0     C89533   3.596   1.785   8.657 -0.2741  0.0026 -0.9817
  664MOL0     C89534   3.511   1.588   8.528  0.6508  1.4083 -0.2229
  664MOL0     C89535   3.642   1.515   8.546 -0.3890 -0.6000 -0.7029
  664MOL0     O89536   3.669   1.485   8.676  0.5860  0.3787  0.0918
  664MOL0     C89537   3.753   1.388   8.718  0.3576 -0.3372 -0.7271
  664MOL0     C89538   3.705   1.271   8.779 -0.6434 -0.7046 -0.5746
  664MOL0     C89539   3.808   1.184   8.823 -0.2459  0.4944 -0.9041
  664MOL0     C89540   3.943   1.208   8.805 -0.7414  0.7745 -0.4173
  664MOL0     O89541   4.044   1.133   8.852 -0.2371 -0.4726  0.2797
  664MOL0     C89542   4.044   1.007   8.802 -0.1337 -0.9790  0.5220
  664MOL0     C89543   4.171   0.931   8.833 -0.8755 -0.3703 -0.7336
  664MOL0     C89544   4.307   0.993   8.778 -0.0935  0.4562  0.0010
  664MOL0     C89545   4.299   1.040   8.636  0.7044  0.3816  0.3529
  664MOL0     C89546   4.431   1.091   8.589  0.1629  0.3192  0.0365
  664MOL0     C89547   4.438   1.103   8.438 -0.0715  0.1547  0.5106
  664MOL0     C89548   4.558   1.178   8.385 -0.1960 -0.0975  0.0514
  664MOL0     C89549   4.576   1.167   8.239 -0.4405 -0.1500  1.2865
  664MOL0    Cl89550   4.641   1.011   8.216  0.5937  0.4616  0.5238
  664MOL0     C89551   3.980   1.319   8.730 -0.0557  0.5269  0.4138
  664MOL0     C89552   3.888   1.413   8.696  0.5026  0.2529 -0.8410
  664MOL0     O89553   3.702   1.470   8.448  0.1583 -1.1303  0.9798
  664MOL0     C89554   3.417   1.533   8.430  0.1917 -0.5802 -0.3314
  664MOL0     C89555   3.295   1.599   8.404 -1.0841  0.8989 -0.0710
  664MOL0     N89556   2.573   1.488   8.584 -0.5500  0.2610  0.7972
  664MOL0     N89557   2.473   1.432   8.639  0.3127  0.3022 -0.1674
  664MOL0     C89558   1.867   1.408   8.146  0.1574 -0.1088 -0.2904
  664MOL0     C89559   1.726   1.415   8.146 -0.0115  0.2075  0.5857
  664MOL0     C89560   1.312   1.339   8.159  0.6593  0.2726 -0.7952
  664MOL0     C89561   1.260   1.406   8.048  0.4363 -0.2179 -0.1555
  664MOL0     C89562   1.123   1.433   8.050  1.0565 -0.1150  0.2585
  664MOL0     C89563   1.041   1.391   8.158 -0.1361 -0.7296 -0.6877
  664MOL0     O89564   0.907   1.405   8.134  0.0043 -0.2583 -0.1369
  664MOL0     C89565   0.812   1.342   8.223  0.1992 -0.4320  0.0331
  664MOL0     C89566   0.678   1.383   8.184  0.1114 -0.2674  0.6261
  664MOL0     C89567   0.568   1.300   8.263  0.9150 -0.1087  0.3708
  664MOL0     C89568   0.432   1.295   8.191 -0.6244 -1.5217  0.2095
  664MOL0     C89569   0.333   1.239   8.285  0.0671  0.1283  0.2869
  664MOL0     C89570   0.240   1.195   8.353 -0.1319  0.1446 -0.9300
  664MOL0     C89571   1.097   1.323   8.259 -0.7540  0.2692  0.0155
  664MOL0     C89572   1.236   1.298   8.268  0.3195 -0.8786 -0.3900
  664MOL0     H89573   1.701   1.180   7.904 -1.0823  0.1997 -0.9835
  664MOL0     H89574   1.931   1.163   7.917 -1.8623 -0.4025  0.1651
  664MOL0     H89575   2.137   1.118   8.109 -0.4279  0.3378  1.0120
  664MOL0     H89576   2.197   1.202   7.963 -0.0547  1.2998 -0.9748
  664MOL0     H89577   2.374   1.165   8.100  1.6557  1.0662 -0.5270
  664MOL0     H89578   2.336   1.339   8.097 -0.5478  1.1812  0.6073
  664MOL0     H89579   2.408   1.297   8.305 -0.2391  0.5477 -2.2636
  664MOL0     H89580   2.238   1.335   8.318  1.9574  1.9513 -1.2480
  664MOL0     H89581   2.175   1.100   8.338 -0.5582  2.7595 -0.5288
  664MOL0     H89582   2.343   1.050   8.327 -0.6367  0.5659 -3.3903
  664MOL0     H89583   2.257   1.240   8.557  2.1779  1.2675 -0.0339
  664MOL0     H89584   2.227   1.070   8.569  0.8329 -1.6269 -1.3850
  664MOL0     H89585   2.453   0.996   8.537  1.6500  1.4554 -2.2445
  664MOL0     H89586   2.511   1.153   8.524 -0.9483  0.0863 -2.0522
  664MOL0     H89587   2.350   1.022   8.750 -2.4022 -0.1211 -4.0039
  664MOL0     H89588   2.526   1.052   8.748 -1.7633 -1.5360  1.1387
  664MOL0     H89589   2.446   1.230   8.893 -0.6610  2.2592  0.2736
  664MOL0     H89590   2.316   1.259   8.774 -0.0934 -2.3323  0.5125
  664MOL0     H89591   2.704   1.213   8.710 -0.2948 -1.4710  0.3884
  664MOL0     H89592   2.852   1.331   8.526  0.8827 -0.2161 -1.6095
  664MOL0     H89593   2.775   1.450   8.421  0.4067  1.5154  0.1051
  664MOL0     H89594   2.921   1.530   8.672 -0.3544 -0.4625 -0.0474
  664MOL0     H89595   2.807   1.630   8.557  3.7303  2.9420 -3.5489
  664MOL0     H89596   2.961   1.627   8.373  1.0530 -1.7455 -1.0840
  664MOL0     H89597   3.065   1.516   8.452  1.1102  1.6286  0.1102
  664MOL0     H89598   3.095   1.695   8.636  2.1416 -1.2108 -1.0892
  664MOL0     H89599   2.971   1.781   8.547 -2.3724 -2.3972 -3.0448
  664MOL0     H89600   3.353   1.872   8.599 -0.1572 -0.0201 -1.2051
  664MOL0     H89601   3.690   1.776   8.603 -0.9021 -0.3411 -2.0312
  664MOL0     H89602   3.561   1.888   8.655 -0.4317  0.2101  3.2093
  664MOL0     H89603   3.598   1.752   8.762  2.5059  4.8159  0.8104
  664MOL0     H89604   3.598   1.259   8.791 -0.7791  0.4852 -0.5048
  664MOL0     H89605   3.775   1.091   8.868  1.0199 -0.0515 -1.0709
  664MOL0     H89606   3.964   0.952   8.853 -3.3176  1.9643 -0.9292
  664MOL0     H89607   4.007   1.004   8.699 -0.6957 -0.2572  0.6957
  664MOL0     H89608   4.175   0.929   8.942 -3.1840 -3.8523 -0.5687
  664MOL0     H89609   4.158   0.833   8.787 -0.0865 -0.5554 -0.5847
  664MOL0     H89610   4.387   0.919   8.790  1.0477  1.8162  1.1767
  664MOL0     H89611   4.322   1.077   8.847 -0.3357 -0.7325  1.5640
  664MOL0     H89612   4.258   0.963   8.570  0.7185  1.3841 -0.8753
  664MOL0     H89613   4.231   1.125   8.627  0.9674  0.4919 -0.9044
  664MOL0     H89614   4.518   1.030   8.612  0.0479 -1.1323 -2.8715
  664MOL0     H89615   4.443   1.193   8.626 -0.3320  1.4275 -2.5782
  664MOL0     H89616   4.429   1.011   8.379  0.8687  0.6325 -0.4225
  664MOL0     H89617   4.358   1.170   8.406  0.7997  1.3085  0.7024
  664MOL0     H89618   4.644   1.139   8.440 -1.8861 -0.9085  2.2438
  664MOL0     H89619   4.546   1.286   8.401  1.4160  0.1845 -0.4806
  664MOL0     H89620   4.653   1.235   8.201  0.9559 -2.1045  0.4409
  664MOL0     H89621   4.485   1.178   8.180  0.6044 -0.7094 -0.5064
  664MOL0     H89622   4.083   1.353   8.721 -0.5717  1.7268 -1.4192
  664MOL0     H89623   3.933   1.497   8.643  2.4204 -1.1033 -1.4797
  664MOL0     H89624   3.419   1.439   8.377  0.5665 -1.2427  0.8266
  664MOL0     H89625   3.230   1.570   8.321 -0.2716 -0.5155 -0.2575
  664MOL0     H89626   1.918   1.477   8.212  3.3516 -2.8539  0.3726
  664MOL0     H89627   1.666   1.483   8.204  2.8527  3.1218  0.4406
  664MOL0     H89628   1.310   1.421   7.953  1.6089 -1.1844  0.2805
  664MOL0     H89629   1.082   1.487   7.965  1.6144  0.2794  0.2335
  664MOL0     H89630   0.815   1.233   8.213  1.5157 -0.3100 -1.3756
  664MOL0     H89631   0.826   1.374   8.326  0.3945  1.7693 -0.6217
  664MOL0     H89632   0.658   1.375   8.076  2.6705 -1.2221  0.1464
  664MOL0     H89633   0.680   1.490   8.205  2.1233  0.1449 -1.2366
  664MOL0     H89634   0.564   1.355   8.358  1.9584  0.7175 -0.0543
  664MOL0     H89635   0.606   1.200   8.285 -1.2083 -0.5117  2.7625
  664MOL0     H89636   0.440   1.251   8.092 -0.3124  0.2205 -0.5703
  664MOL0     H89637   0.399   1.396   8.166  0.3743 -1.3288 -0.3935
  664MOL0     H89638   0.160   1.150   8.408 -0.0785 -3.1519 -3.2702
  664MOL0     H89639   1.041   1.306   8.351 -0.1891  1.5701  0.6213
  664MOL0     H89640   1.277   1.251   8.357 -3.6744 -0.1563  2.0968
  665MOL0     O89641   5.336   6.649   9.723 -0.6537  1.1656 -0.0504
  665MOL0     C89642   5.409   6.596   9.810 -0.0306  0.5909 -0.7780
  665MOL0     O89643   5.362   6.518   9.925 -0.1530 -0.0835  0.2038
  665MOL0     C89644   5.232   6.479   9.927 -1.0159 -0.6386 -0.2273
  665MOL0     C89645   5.200   6.345   9.890 -0.2575 -0.1453 -0.5571
  665MOL0     C89646   5.072   6.301   9.892  0.6548  0.0327 -0.4289
  665MOL0     C89647   4.973   6.386   9.956 -0.5250  1.8020 -0.6447
  665MOL0     O89648   4.843   6.329   9.949  0.2655  0.1355  0.2563
  665MOL0     C89649   4.773   6.345  10.073 -0.3369  0.7390  0.5844
  665MOL0     C89650   4.632   6.294  10.053  0.2821 -0.0197 -0.4583
  665MOL0     C89651   4.554   6.376   9.953 -0.0579 -0.4441 -0.2768
  665MOL0     C89652   4.414   6.322   9.954  0.0022 -0.8186 -0.1799
  665MOL0     C89653   4.324   6.399   9.856  0.0051  0.5415  1.1176
  665MOL0     C89654   4.352   6.550   9.851 -0.6970 -1.2425  0.1242
  665MOL0     C89655   4.222   6.625   9.803 -0.2266  0.1486 -0.8563
  665MOL0     C89656   4.230   6.770   9.781 -0.4313  0.5816 -0.1278
  665MOL0     N89657   4.274   6.835   9.900 -0.4858  0.7318 -0.3578
  665MOL0     C89658   4.186   6.868  10.007 -0.5111 -0.0287 -0.3072
  665MOL0     C89659   4.245   6.959  10.090 -1.2239 -0.8527  1.5877
  665MOL0     C89660   4.198   7.024  10.216  0.3746  0.1003  0.1736
  665MOL0     C89661   4.056   6.997  10.271  0.1969 -0.3530 -0.0147
  665MOL0     C89662   3.955   7.105  10.228 -1.2722 -0.1751  0.3160
  665MOL0     C89663   3.811   7.060  10.227  0.9408 -0.5624  0.5306
  665MOL0     O89664   3.784   7.004  10.355  0.2351 -0.2169 -0.0863
  665MOL0     C89665   3.666   7.037  10.412  0.5857 -0.3982 -0.7886
  665MOL0     C89666   3.663   7.139  10.515 -0.3871 -0.0387  0.5891
  665MOL0     C89667   3.541   7.169  10.582  0.7223  0.2215  0.7539
  665MOL0     C89668   3.547   7.254  10.705  0.0171  0.8997  0.2478
  665MOL0     C89669   3.421   7.113  10.525  0.2205  0.8091 -0.8080
  665MOL0     C89670   3.284   7.132  10.575 -0.4697  0.1755  0.8722
  665MOL0     O89671   3.188   7.168  10.487  0.3894  0.2065 -0.0468
  665MOL0     C89672   3.088   7.252  10.514  0.5056 -0.0685  0.6131
  665MOL0     C89673   2.993   7.268  10.413  0.7098  0.3130 -1.0798
  665MOL0     C89674   2.868   7.329  10.425  0.0013  1.0890  0.0504
  665MOL0     C89675   2.857   7.406  10.547 -0.1978  0.7258  0.2477
  665MOL0     O89676   2.750   7.491  10.559 -0.1824  1.0349 -0.1848
  665MOL0     C89677   2.640   7.495  10.465  0.5060  0.6742  0.8705
  665MOL0     C89678   2.507   7.554  10.508 -0.1356  1.2801 -0.1084
  665MOL0     C89679   2.520   7.699  10.542 -0.0027  0.5415  0.4777
  665MOL0     C89680   2.390   7.781  10.539  0.7065  1.0558 -1.0856
  665MOL0     C89681   2.420   7.916  10.591  0.1266 -0.1431 -0.3500
  665MOL0     C89682   2.298   8.002  10.616  0.1807 -0.0225  0.0777
  665MOL0     C89683   2.337   8.131  10.687 -0.8790  1.6012  0.6848
  665MOL0     C89684   2.226   8.235  10.666 -0.0981  0.9247 -0.2716
  665MOL0    Cl89685   2.256   8.348  10.523  0.2139  0.1504  0.1518
  665MOL0     C89686   2.950   7.395  10.653  0.7519  0.4083  0.3391
  665MOL0     C89687   3.072   7.336  10.624 -0.9199  0.4481  0.9016
  665MOL0     O89688   3.264   7.117  10.700 -0.8089  0.6594 -0.2757
  665MOL0     C89689   3.429   7.004  10.429 -0.8668 -0.7571 -0.4704
  665MOL0     C89690   3.549   6.971  10.367 -0.2596 -0.2250 -0.3283
  665MOL0     N89691   4.363   6.985  10.028 -0.2523 -0.5816  0.0919
  665MOL0     N89692   4.376   6.915   9.917  0.1028  0.0636 -0.8701
  665MOL0     C89693   5.000   6.515  10.007  0.5915 -0.3956  0.1374
  665MOL0     C89694   5.132   6.558   9.985 -0.0176  0.2630  0.5688
  665MOL0     C89695   5.549   6.611   9.811 -0.3657 -0.3926 -0.5808
  665MOL0     C89696   5.607   6.683   9.704  0.5098  0.5532 -0.3276
  665MOL0     C89697   5.743   6.723   9.711 -0.1980  0.8066 -0.8266
  665MOL0     C89698   5.820   6.687   9.822 -0.2958  0.3007 -1.1070
  665MOL0     O89699   5.947   6.737   9.860  1.2377 -0.1725 -0.3563
  665MOL0     C89700   5.992   6.843   9.781 -0.3461 -0.3025  0.9157
  665MOL0     C89701   6.132   6.883   9.824  0.5253 -0.5742 -0.3929
  665MOL0     C89702   6.176   7.012   9.749  0.2713  0.5240  0.2364
  665MOL0     C89703   6.208   7.116   9.854  0.1859  1.8279  0.5354
  665MOL0     C89704   6.333   7.091   9.924 -0.8986  0.6945  0.9144
  665MOL0     C89705   6.452   7.080   9.973  0.8707 -0.5895  0.4041
  665MOL0     C89706   5.763   6.599   9.922 -0.1480  0.0259  0.6690
  665MOL0     C89707   5.628   6.571   9.913 -0.7963  0.2231  0.3331
  665MOL0     H89708   5.276   6.286   9.841  0.3370 -0.6753  0.9430
  665MOL0     H89709   5.032   6.207   9.855  1.7616 -1.1412  1.2470
  665MOL0     H89710   4.831   6.299  10.154 -1.4938 -0.5343  0.7245
  665MOL0     H89711   4.756   6.450  10.098  1.7322  1.2724  0.0117
  665MOL0     H89712   4.624   6.188  10.029 -0.0320 -0.1376  0.1570
  665MOL0     H89713   4.582   6.316  10.148 -0.8510 -1.5470 -0.6679
  665MOL0     H89714   4.560   6.482   9.980 -0.1918 -0.6869  0.7759
  665MOL0     H89715   4.608   6.376   9.859  4.5365  1.4714  2.0673
  665MOL0     H89716   4.411   6.214   9.937  2.2724 -0.7803 -1.1078
  665MOL0     H89717   4.368   6.328  10.053  2.2179 -0.3215  0.8681
  665MOL0     H89718   4.344   6.365   9.753 -1.0117  2.4251  0.2502
  665MOL0     H89719   4.220   6.375   9.878 -0.2977 -0.2654 -0.9166
  665MOL0     H89720   4.366   6.590   9.952  1.4662  2.8088 -1.5690
  665MOL0     H89721   4.436   6.587   9.792 -0.8578  0.3356  0.8241
  665MOL0     H89722   4.187   6.581   9.709  2.5873 -1.0202 -1.4613
  665MOL0     H89723   4.149   6.611   9.883 -2.3653 -4.4067 -3.1833
  665MOL0     H89724   4.131   6.811   9.755 -0.1627 -0.0965 -2.4069
  665MOL0     H89725   4.304   6.798   9.706 -0.8487 -0.3033 -0.8797
  665MOL0     H89726   4.091   6.821  10.030 -1.1733  1.3368 -0.1620
  665MOL0     H89727   4.268   6.994  10.294  1.5334  3.1510  0.4301
  665MOL0     H89728   4.212   7.132  10.209 -0.9517  0.2033 -2.5858
  665MOL0     H89729   4.049   7.003  10.380  2.2848 -2.4210  0.3184
  665MOL0     H89730   4.025   6.898  10.235  0.1889 -0.9327  1.4821
  665MOL0     H89731   3.988   7.154  10.136 -0.3687  0.5176  0.9868
  665MOL0     H89732   3.964   7.187  10.300  0.4960 -1.3406  1.5130
  665MOL0     H89733   3.795   6.988  10.147 -0.9695 -1.3921  1.5987
  665MOL0     H89734   3.747   7.147  10.207 -0.3907 -0.5966  3.9988
  665MOL0     H89735   3.757   7.186  10.542  0.6846  0.1170 -2.9014
  665MOL0     H89736   3.631   7.324  10.698 -0.3766  1.2558 -1.2983
  665MOL0     H89737   3.458   7.317  10.694  0.6038  2.1969  2.4210
  665MOL0     H89738   3.550   7.202  10.801  0.0759  0.9402  0.2682
  665MOL0     H89739   3.004   7.208  10.324 -2.2134 -1.0313 -0.6425
  665MOL0     H89740   2.792   7.334  10.348 -1.7018  1.6296  1.6867
  665MOL0     H89741   2.675   7.545  10.374  0.6668 -0.0326  0.5295
  665MOL0     H89742   2.608   7.393  10.441  1.1628  1.1129 -2.3414
  665MOL0     H89743   2.446   7.535  10.419  1.4302 -1.1817 -0.7257
  665MOL0     H89744   2.471   7.498  10.595  3.1172 -3.3942 -1.3913
  665MOL0     H89745   2.580   7.749  10.466 -1.5485 -0.2797 -1.3787
  665MOL0     H89746   2.575   7.711  10.635 -0.3833 -1.3381  0.9928
  665MOL0     H89747   2.345   7.787  10.439 -0.9773  0.8616 -0.3744
  665MOL0     H89748   2.323   7.738  10.615  2.5051  2.8044  1.6464
  665MOL0     H89749   2.474   7.969  10.512 -2.2249  3.8281  0.3926
  665MOL0     H89750   2.477   7.915  10.685 -0.5724 -4.2635  0.1977
  665MOL0     H89751   2.246   8.030  10.524  4.8294 -0.3106 -2.9790
  665MOL0     H89752   2.233   7.938  10.677  0.1717 -0.2068 -0.1225
  665MOL0     H89753   2.424   8.168  10.632 -0.8116  2.4429  1.3333
  665MOL0     H89754   2.371   8.112  10.789  1.6747 -0.8122 -0.4917
  665MOL0     H89755   2.218   8.296  10.757 -0.6288 -3.0424  2.5731
  665MOL0     H89756   2.129   8.184  10.659 -0.6439  1.7750  0.8368
  665MOL0     H89757   2.933   7.434  10.753 -4.3313 -2.6690  1.0015
  665MOL0     H89758   3.149   7.338  10.700  1.7386  3.9890 -1.5387
  665MOL0     H89759   3.338   6.963  10.386 -2.0990  2.3800 -1.1604
  665MOL0     H89760   3.547   6.901  10.284  1.7175  0.3645 -0.9372
  665MOL0     H89761   4.928   6.581  10.054  0.5113  0.0571 -0.6122
  665MOL0     H89762   5.173   6.654  10.014 -0.3601  0.8275 -0.7692
  665MOL0     H89763   5.569   6.707   9.605  2.1794 -0.0878 -1.1739
  665MOL0     H89764   5.784   6.785   9.631  1.4698  0.4270 -0.3174
  665MOL0     H89765   6.005   6.818   9.675 -0.3123 -1.9301  1.2633
  665MOL0     H89766   5.922   6.926   9.782 -1.1316 -0.9461  2.0454
  665MOL0     H89767   6.203   6.804   9.801  1.2859 -0.3434  1.0742
  665MOL0     H89768   6.129   6.898   9.932  0.3324 -1.2751 -0.2992
  665MOL0     H89769   6.087   7.050   9.698  2.5624  3.2906 -2.0829
  665MOL0     H89770   6.254   6.990   9.675 -0.7190 -2.0243 -0.1686
  665MOL0     H89771   6.123   7.124   9.921 -2.1181 -0.7733 -1.8354
  665MOL0     H89772   6.196   7.212   9.803 -1.4384  1.0425 -0.6656
  665MOL0     H89773   6.556   7.083   9.999  0.4069  2.0758  2.3564
  665MOL0     H89774   5.821   6.551  10.000  2.5957  0.1190 -1.1574
  665MOL0     H89775   5.585   6.498   9.980 -0.2671  1.0293  1.5978
  666MOL0     O89776   1.468   1.752   2.816 -0.3182  0.1809  0.9758
  666MOL0     C89777   1.390   1.755   2.913 -0.6482  0.4190  0.3433
  666MOL0     O89778   1.336   1.880   2.973 -0.3283  0.1746 -0.6589
  666MOL0     C89779   1.379   2.006   2.920  0.0121  0.2754  0.9708
  666MOL0     C89780   1.321   2.058   2.801 -0.1088  0.8001 -0.1206
  666MOL0     C89781   1.353   2.182   2.752 -0.0246  0.3200 -0.5067
  666MOL0     C89782   1.456   2.255   2.809 -0.4323 -0.8347  0.5865
  666MOL0     O89783   1.513   2.371   2.764 -0.4395  0.2437 -0.0276
  666MOL0     C89784   1.446   2.433   2.655 -0.9323  0.5196  0.2534
  666MOL0     C89785   1.503   2.573   2.616  0.0014  0.1044  0.1767
  666MOL0     C89786   1.641   2.552   2.555  0.5048 -1.2077  1.4268
  666MOL0     C89787   1.686   2.671   2.468  0.2092 -0.9434 -0.5918
  666MOL0     C89788   1.626   2.664   2.321 -0.7936 -0.8441 -0.0330
  666MOL0     C89789   1.678   2.744   2.205 -0.4284  0.4631  0.8856
  666MOL0     C89790   1.586   2.748   2.083 -1.6424 -0.3077  0.0987
  666MOL0     C89791   1.655   2.813   1.964 -0.2807  0.5738  0.3470
  666MOL0     N89792   1.554   2.808   1.857 -0.1806  0.3402 -1.1928
  666MOL0     C89793   1.535   2.694   1.781  0.3470 -0.5162 -0.8152
  666MOL0     C89794   1.425   2.727   1.705  0.0631  0.1424 -0.2492
  666MOL0     C89795   1.352   2.656   1.602  1.1138  0.5371 -0.5842
  666MOL0     C89796   1.374   2.509   1.610  0.6647 -0.4901  0.1360
  666MOL0     C89797   1.292   2.432   1.498  0.8106 -0.7778 -0.1572
  666MOL0     C89798   1.315   2.283   1.496  0.2172 -0.8515  0.1261
  666MOL0     O89799   1.458   2.260   1.517  0.0106 -0.2253  0.6570
  666MOL0     C89800   1.556   2.285   1.423  1.5548 -0.2765  0.2685
  666MOL0     C89801   1.682   2.284   1.465 -0.8102  0.1993 -0.1868
  666MOL0     C89802   1.790   2.307   1.383 -0.5208 -0.0365  0.8763
  666MOL0     C89803   1.927   2.272   1.442  0.1776 -0.2830 -0.7173
  666MOL0     C89804   1.764   2.340   1.243 -0.1761 -0.0433  0.0914
  666MOL0     C89805   1.865   2.389   1.142 -0.0036  0.7947  0.4814
  666MOL0     O89806   1.820   2.421   1.017  0.3882  0.7034 -0.1756
  666MOL0     C89807   1.925   2.451   0.941 -0.3152  0.4955 -0.0710
  666MOL0     C89808   1.978   2.584   0.942 -0.8912 -0.0200 -0.3633
  666MOL0     C89809   2.084   2.620   0.868 -0.7731  1.1931  0.6664
  666MOL0     C89810   2.163   2.520   0.795 -0.0340  0.2680 -0.5829
  666MOL0     O89811   2.269   2.552   0.713  0.1115  0.4939 -0.2373
  666MOL0     C89812   2.332   2.677   0.734  0.8528 -0.2764 -0.7045
  666MOL0     C89813   2.451   2.706   0.645 -0.1084 -0.6314 -0.9405
  666MOL0     C89814   2.436   2.741   0.489  0.1312  0.4005  0.3391
  666MOL0     C89815   2.569   2.772   0.426 -0.3213  0.6816 -0.5649
  666MOL0     C89816   2.645   2.635   0.386  0.5620  1.0581 -0.4589
  666MOL0     C89817   2.759   2.672   0.294 -0.0403  0.3788  0.1948
  666MOL0     C89818   2.815   2.535   0.240 -0.3741  0.9399 -0.2128
  666MOL0     C89819   2.914   2.465   0.332  0.6773  0.0268 -1.0547
  666MOL0    Cl89820   3.051   2.578   0.327  0.2696 -0.0104 -0.1744
  666MOL0     C89821   2.111   2.383   0.794 -0.3456 -0.7857 -0.5559
  666MOL0     C89822   1.995   2.353   0.871  0.2814 -0.5316 -0.5871
  666MOL0     O89823   1.980   2.415   1.186  0.2050  0.0805  1.0752
  666MOL0     C89824   1.631   2.332   1.200  0.2193  0.5282  0.6004
  666MOL0     C89825   1.525   2.308   1.291 -0.7212 -0.3237 -0.4341
  666MOL0     N89826   1.375   2.853   1.742 -0.0494 -0.2245 -0.5659
  666MOL0     N89827   1.449   2.885   1.845  0.7193 -0.1684 -0.7049
  666MOL0     C89828   1.524   2.204   2.923 -0.2230 -0.0489  0.1887
  666MOL0     C89829   1.481   2.077   2.978  0.4732  0.5888 -0.0530
  666MOL0     C89830   1.337   1.625   2.968 -0.4864  0.1257 -0.7957
  666MOL0     C89831   1.385   1.499   2.918 -0.9890 -0.9767  0.4975
  666MOL0     C89832   1.328   1.378   2.971 -0.9569 -0.3600 -0.1350
  666MOL0     C89833   1.212   1.383   3.046  0.5811 -1.1728 -1.5028
  666MOL0     O89834   1.156   1.261   3.084 -0.0533  0.3678  0.1805
  666MOL0     C89835   1.012   1.247   3.074  0.3148  0.4122 -0.5777
  666MOL0     C89836   0.961   1.230   2.932  0.9817  0.5248 -1.1696
  666MOL0     C89837   0.987   1.082   2.877  0.3710  0.1388 -1.0439
  666MOL0     C89838   0.859   1.010   2.871 -0.2133 -0.3016 -0.7074
  666MOL0     C89839   0.887   0.882   2.805 -0.3762 -0.8951  0.2296
  666MOL0     C89840   0.933   0.780   2.756 -0.3255 -0.1963  0.3425
  666MOL0     C89841   1.165   1.510   3.097  0.0905  1.5339  0.7294
  666MOL0     C89842   1.229   1.624   3.061 -0.6840  0.9078 -0.2083
  666MOL0     H89843   1.259   1.993   2.742 -0.2043  0.2997  0.5187
  666MOL0     H89844   1.298   2.216   2.665  0.5326 -0.3352 -1.1278
  666MOL0     H89845   1.459   2.364   2.572 -1.0442  0.4407  0.3018
  666MOL0     H89846   1.340   2.435   2.683 -0.6860 -2.5751  1.8170
  666MOL0     H89847   1.435   2.623   2.546  0.0291  1.6670  1.2085
  666MOL0     H89848   1.510   2.643   2.699 -0.0254  0.1466  0.1434
  666MOL0     H89849   1.719   2.535   2.629 -0.5314  1.8777  3.4485
  666MOL0     H89850   1.650   2.459   2.498 -0.0757 -0.4041 -0.0416
  666MOL0     H89851   1.667   2.766   2.520 -1.0221 -0.2500 -2.2055
  666MOL0     H89852   1.795   2.668   2.460  0.1804 -1.4214 -0.8090
  666MOL0     H89853   1.627   2.560   2.289 -3.8461 -1.2444  0.8322
  666MOL0     H89854   1.521   2.697   2.326  0.2307  2.6133  1.4860
  666MOL0     H89855   1.701   2.849   2.229 -0.3178  1.3990 -2.6814
  666MOL0     H89856   1.769   2.687   2.182  0.0055  2.0539 -1.8627
  666MOL0     H89857   1.555   2.644   2.066 -1.6281 -0.6005  1.6878
  666MOL0     H89858   1.497   2.804   2.111  0.3284  2.9299  0.3083
  666MOL0     H89859   1.738   2.747   1.936 -1.5024 -0.9433  0.1722
  666MOL0     H89860   1.681   2.918   1.976 -1.2195  1.2836 -2.8897
  666MOL0     H89861   1.594   2.603   1.782 -2.5669 -2.5387  0.1325
  666MOL0     H89862   1.244   2.672   1.597  0.9885 -0.6192 -2.9481
  666MOL0     H89863   1.392   2.703   1.512  2.0444  1.5363  0.3321
  666MOL0     H89864   1.347   2.462   1.705  3.3269 -0.9508  0.7423
  666MOL0     H89865   1.480   2.484   1.594  0.4362 -1.8181  0.5294
  666MOL0     H89866   1.314   2.479   1.401 -0.6497  0.1398 -0.0782
  666MOL0     H89867   1.185   2.449   1.511 -0.6954 -3.8942 -5.3638
  666MOL0     H89868   1.277   2.233   1.407 -1.0018 -2.5037  1.5217
  666MOL0     H89869   1.245   2.245   1.570 -1.6721  0.0975 -1.0727
  666MOL0     H89870   1.693   2.266   1.571 -1.8384  1.9316  0.2573
  666MOL0     H89871   1.990   2.361   1.430  0.4887 -0.8476 -4.2970
  666MOL0     H89872   1.910   2.264   1.550  2.6185  2.2846 -0.0189
  666MOL0     H89873   1.973   2.190   1.388 -0.6960 -2.7866  2.0937
  666MOL0     H89874   1.924   2.661   0.996 -0.3790  1.6944 -2.1706
  666MOL0     H89875   2.106   2.726   0.871 -0.6778  1.2002 -0.0107
  666MOL0     H89876   2.253   2.751   0.721  1.9652  1.7962  2.9350
  666MOL0     H89877   2.364   2.692   0.837 -1.3770  2.3665 -0.2819
  666MOL0     H89878   2.503   2.794   0.684 -2.1157  1.1410 -2.0282
  666MOL0     H89879   2.521   2.623   0.638 -1.3253 -1.9150  1.1700
  666MOL0     H89880   2.385   2.837   0.475 -0.0913  0.0439 -1.5626
  666MOL0     H89881   2.377   2.664   0.439 -2.1821  2.7195 -0.7328
  666MOL0     H89882   2.550   2.831   0.336 -0.9529 -2.7781 -2.8767
  666MOL0     H89883   2.633   2.843   0.480 -2.1336  4.0233 -2.4568
  666MOL0     H89884   2.578   2.576   0.323  1.7174  1.0433 -1.7260
  666MOL0     H89885   2.672   2.575   0.473 -2.0169 -1.5461 -1.2987
  666MOL0     H89886   2.725   2.729   0.208  1.3764 -0.5160 -1.0029
  666MOL0     H89887   2.836   2.721   0.355 -0.4816 -0.7769  1.7662
  666MOL0     H89888   2.870   2.542   0.146 -0.5918 -1.0666 -0.5209
  666MOL0     H89889   2.735   2.463   0.226 -0.4594  0.6617  1.4388
  666MOL0     H89890   2.941   2.364   0.300  1.2462 -0.5031  0.9774
  666MOL0     H89891   2.873   2.452   0.432  1.0249  0.6926 -0.8201
  666MOL0     H89892   2.141   2.304   0.726  2.8679 -3.4072  3.4292
  666MOL0     H89893   1.972   2.247   0.865 -1.9938 -0.2432  1.7337
  666MOL0     H89894   1.612   2.335   1.093  1.3409 -1.5430  0.2838
  666MOL0     H89895   1.422   2.301   1.257 -0.5363 -0.6187 -0.9545
  666MOL0     H89896   1.610   2.254   2.966 -0.7424  0.0465  1.1408
  666MOL0     H89897   1.526   2.038   3.068 -1.5303  1.5317  1.4314
  666MOL0     H89898   1.457   1.493   2.837 -1.9548  0.7533 -0.5726
  666MOL0     H89899   1.359   1.277   2.948 -1.8735 -0.9895  1.2253
  666MOL0     H89900   0.984   1.159   3.132  3.8616 -1.5819 -1.5994
  666MOL0     H89901   0.965   1.330   3.128  1.9363  0.5000  0.7874
  666MOL0     H89902   1.021   1.300   2.873  1.3837  0.9092 -0.3259
  666MOL0     H89903   0.853   1.245   2.932  0.4730 -2.3202  0.9216
  666MOL0     H89904   1.059   1.038   2.947 -1.8665  0.4712  1.6547
  666MOL0     H89905   1.021   1.090   2.773 -0.5240  0.0684 -1.3440
  666MOL0     H89906   0.802   1.077   2.806  1.2892 -0.2431 -2.0391
  666MOL0     H89907   0.802   1.006   2.963  0.8275 -1.3844 -0.0695
  666MOL0     H89908   0.975   0.691   2.714  1.5781 -0.4856  2.6204
  666MOL0     H89909   1.084   1.516   3.169 -0.6924  0.3074 -0.0037
  666MOL0     H89910   1.178   1.717   3.085 -1.5481  0.7359 -1.3078
  667MOL0     O89911   6.858   2.476   1.636 -0.3074 -0.4810  0.1885
  667MOL0     C89912   6.838   2.549   1.543  0.5816 -0.7706 -0.1396
  667MOL0     O89913   6.868   2.686   1.551 -0.0934  0.2192 -0.9001
  667MOL0     C89914   6.914   2.732   1.671  0.4964  0.5306 -0.1849
  667MOL0     C89915   6.832   2.823   1.744 -0.1039 -0.0469 -0.0716
  667MOL0     C89916   6.875   2.866   1.871  0.4571  0.0888  0.1031
  667MOL0     C89917   6.996   2.820   1.918  0.0541  0.3847  0.0456
  667MOL0     O89918   7.026   2.869   2.045 -0.8551  1.2776 -0.2505
  667MOL0     C89919   7.163   2.858   2.091  0.1451 -0.0514  0.3217
  667MOL0     C89920   7.182   2.725   2.168 -0.3077  1.0214  0.1448
  667MOL0     C89921   7.304   2.746   2.267 -0.0126 -0.1748 -0.8578
  667MOL0     C89922   7.319   2.631   2.368 -0.1112  0.0727  0.6326
  667MOL0     C89923   7.420   2.660   2.471  0.0704  0.2992  0.2207
  667MOL0     C89924   7.432   2.544   2.562  1.0163  0.2015 -0.1835
  667MOL0     C89925   7.578   2.485   2.584 -0.0816 -0.6336  0.1583
  667MOL0     C89926   7.647   2.437   2.453  0.0584  0.4224 -0.1821
  667MOL0     N89927   7.578   2.350   2.353 -0.6240  0.1170 -0.4917
  667MOL0     C89928   7.486   2.256   2.379  0.0492 -0.2556 -0.2702
  667MOL0     C89929   7.424   2.234   2.263  0.0602 -0.8924 -0.0995
  667MOL0     C89930   7.318   2.140   2.232 -0.1501  0.0405  0.2904
  667MOL0     C89931   7.370   2.002   2.193 -0.0222  0.0276  0.0685
  667MOL0     C89932   7.438   1.937   2.320 -0.3770  0.2901  0.0978
  667MOL0     C89933   7.421   1.782   2.305 -0.1789  1.0312  0.3312
  667MOL0     O89934   7.503   1.737   2.203  0.0164  0.3905  0.5905
  667MOL0     C89935   7.432   1.698   2.090 -0.1682  0.3792  0.1921
  667MOL0     C89936   7.484   1.748   1.971 -0.8998 -0.5346  0.7062
  667MOL0     C89937   7.428   1.715   1.850  0.1077 -1.2691 -0.1281
  667MOL0     C89938   7.513   1.755   1.734 -0.3077 -0.1045 -0.1815
  667MOL0     C89939   7.317   1.630   1.835  0.1358  0.7716  0.4979
  667MOL0     C89940   7.255   1.582   1.712 -0.5368 -0.3639 -0.1008
  667MOL0     O89941   7.221   1.447   1.704  0.3806 -0.2845  0.6848
  667MOL0     C89942   7.118   1.410   1.619  0.1492  0.2954  0.2149
  667MOL0     C89943   7.125   1.290   1.532 -0.1932 -0.2890 -0.1801
  667MOL0     C89944   7.021   1.249   1.449 -0.3514  0.2606  1.0368
  667MOL0     C89945   6.903   1.326   1.436  0.8896  0.9720  0.2074
  667MOL0     O89946   6.810   1.274   1.349 -0.6825 -0.4802  0.5700
  667MOL0     C89947   6.673   1.319   1.369 -0.1258  0.3839  0.0530
  667MOL0     C89948   6.605   1.278   1.502 -1.1597  0.6874  0.7499
  667MOL0     C89949   6.604   1.123   1.508 -0.0870  0.3699 -0.8162
  667MOL0     C89950   6.592   1.077   1.654  0.5003  1.2523  0.6850
  667MOL0     C89951   6.563   0.934   1.665  0.5292 -0.2821 -0.2629
  667MOL0     C89952   6.560   0.901   1.812  0.5200  0.2638 -0.2217
  667MOL0     C89953   6.506   0.760   1.833 -0.0160  0.6419 -0.2088
  667MOL0     C89954   6.494   0.690   1.962 -0.2459 -0.3005 -0.6992
  667MOL0    Cl89955   6.639   0.722   2.054 -0.1591 -0.7269  0.4305
  667MOL0     C89956   6.902   1.450   1.503  1.1412 -0.7141  0.3514
  667MOL0     C89957   7.001   1.486   1.599  0.3479  0.3137  0.3877
  667MOL0     O89958   7.235   1.671   1.629  0.4679 -0.1413  0.4618
  667MOL0     C89959   7.267   1.582   1.958  0.1822  0.9860  0.4799
  667MOL0     C89960   7.315   1.616   2.088 -1.3104 -0.6001  0.1172
  667MOL0     N89961   7.492   2.316   2.168 -0.0589 -0.8426 -0.4848
  667MOL0     N89962   7.584   2.384   2.223  0.3704  0.0040  0.0276
  667MOL0     C89963   7.076   2.726   1.849  0.1050 -0.0234 -0.1105
  667MOL0     C89964   7.036   2.682   1.723 -0.0258  0.4588 -0.3430
  667MOL0     C89965   6.774   2.489   1.429  0.7015  0.5592 -0.1859
  667MOL0     C89966   6.753   2.553   1.305  0.2923 -0.4732 -0.6888
  667MOL0     C89967   6.707   2.472   1.196  0.4492 -0.0539 -0.2346
  667MOL0     C89968   6.659   2.344   1.212 -0.2992  0.2267  0.9877
  667MOL0     O89969   6.641   2.260   1.104 -0.0238 -0.1630 -0.1202
  667MOL0     C89970   6.623   2.318   0.971 -0.6824 -0.0586  0.4720
  667MOL0     C89971   6.760   2.303   0.900  0.3017 -0.5709 -0.2651
  667MOL0     C89972   6.791   2.153   0.868 -0.3031 -0.8784 -0.0103
  667MOL0     C89973   6.946   2.150   0.829 -0.9513  0.2225  0.0921
  667MOL0     C89974   6.984   2.216   0.696  0.4046 -0.1767 -1.0216
  667MOL0     C89975   6.999   2.275   0.595 -1.1918 -0.2079  0.1259
  667MOL0     C89976   6.667   2.282   1.342  0.6230  0.8121 -0.6869
  667MOL0     C89977   6.719   2.356   1.447 -0.0266 -0.6534  0.3906
  667MOL0     H89978   6.727   2.842   1.724 -0.7213  0.4015  3.0937
  667MOL0     H89979   6.801   2.928   1.921 -2.5914 -3.6119  0.6894
  667MOL0     H89980   7.234   2.870   2.009  0.8908  2.1813  1.2079
  667MOL0     H89981   7.181   2.952   2.145 -1.7841  2.1934 -2.6872
  667MOL0     H89982   7.086   2.716   2.221 -0.1602  1.4749  0.4992
  667MOL0     H89983   7.198   2.632   2.113 -2.4982  0.9386 -0.4496
  667MOL0     H89984   7.398   2.744   2.210  0.8429  0.3064  0.4905
  667MOL0     H89985   7.296   2.842   2.318  2.1041  0.7267 -2.0374
  667MOL0     H89986   7.222   2.609   2.413 -0.0068  0.1943  0.9172
  667MOL0     H89987   7.357   2.546   2.310 -0.1344  1.6445 -1.8230
  667MOL0     H89988   7.516   2.683   2.423  0.7395 -0.3158  1.2353
  667MOL0     H89989   7.399   2.755   2.522  3.8282  1.2558  0.2838
  667MOL0     H89990   7.391   2.581   2.656  1.7926  2.2552 -0.5940
  667MOL0     H89991   7.373   2.466   2.514  0.0897  0.0018  1.2135
  667MOL0     H89992   7.634   2.556   2.646 -1.0875  0.1547  0.2073
  667MOL0     H89993   7.575   2.396   2.647 -1.3528 -2.0201 -1.7422
  667MOL0     H89994   7.742   2.387   2.476  0.8501  1.9593  0.0327
  667MOL0     H89995   7.671   2.533   2.407 -0.3330  1.6513  2.0067
  667MOL0     H89996   7.476   2.191   2.465  0.2723 -1.1093 -0.8728
  667MOL0     H89997   7.246   2.127   2.313  1.1723  0.9380  1.6577
  667MOL0     H89998   7.267   2.182   2.144  1.3877 -0.8532 -1.0917
  667MOL0     H89999   7.429   1.993   2.101  0.2451 -2.4879  0.4153
  667MOL0     H90000   7.275   1.950   2.177  0.2605 -0.8858  1.1688
  667MOL0     H90001   7.391   1.977   2.411  2.2374 -2.1507  2.7562
  667MOL0     H90002   7.542   1.970   2.319 -0.1382 -0.4283 -1.4367
  667MOL0     H90003   7.315   1.765   2.282 -0.0866  0.3560  0.3760
  667MOL0     H90004   7.450   1.722   2.392  0.9575  0.5846 -0.3362
  667MOL0     H90005   7.579   1.802   1.970 -0.0591 -1.9526  0.7332
  667MOL0     H90006   7.609   1.707   1.755 -2.4561 -4.4022  0.9492
  667MOL0     H90007   7.488   1.716   1.634 -3.4228 -0.3711  0.6033
  667MOL0     H90008   7.520   1.864   1.734 -0.8680 -0.0269  2.1100
  667MOL0     H90009   7.211   1.223   1.538  0.7559  0.8209 -0.9128
  667MOL0     H90010   7.039   1.159   1.391 -0.0691 -0.5302  2.3086
  667MOL0     H90011   6.678   1.427   1.355  1.6349  0.2023 -1.0359
  667MOL0     H90012   6.620   1.276   1.284  1.2957  1.8973 -1.7070
  667MOL0     H90013   6.638   1.328   1.594  0.4772 -0.3001  0.7457
  667MOL0     H90014   6.501   1.308   1.490 -1.2784 -0.5534 -2.2268
  667MOL0     H90015   6.700   1.084   1.473  0.9763 -1.0664  3.1161
  667MOL0     H90016   6.531   1.078   1.439  1.1515  0.3261 -2.1302
  667MOL0     H90017   6.688   1.102   1.699  1.1671  3.0487 -1.5310
  667MOL0     H90018   6.515   1.135   1.705  1.0912  2.7557 -0.0876
  667MOL0     H90019   6.640   0.882   1.607 -2.2269 -2.1914 -2.4315
  667MOL0     H90020   6.464   0.907   1.628  0.4477 -0.6309  0.2065
  667MOL0     H90021   6.659   0.923   1.852  1.4098 -0.4848 -1.8984
  667MOL0     H90022   6.488   0.966   1.862 -2.1706 -1.5811 -1.4489
  667MOL0     H90023   6.567   0.698   1.766 -1.5201  0.9662 -1.9613
  667MOL0     H90024   6.406   0.755   1.790 -0.2402  2.2921  0.0622
  667MOL0     H90025   6.487   0.581   1.948 -0.9817 -0.2027 -1.0934
  667MOL0     H90026   6.407   0.732   2.013 -0.3982 -0.9309 -0.4205
  667MOL0     H90027   6.815   1.514   1.501  2.4142  1.1306  1.1452
  667MOL0     H90028   6.983   1.581   1.646  1.4645  0.3408  0.7958
  667MOL0     H90029   7.178   1.520   1.951  2.1364 -1.9618  0.2311
  667MOL0     H90030   7.265   1.579   2.177  1.8013  2.1770  3.3408
  667MOL0     H90031   7.174   2.692   1.882  1.2256  3.7729  1.0388
  667MOL0     H90032   7.098   2.616   1.662 -0.7988 -0.9921  0.3925
  667MOL0     H90033   6.776   2.658   1.298 -3.6221  0.5128 -0.9246
  667MOL0     H90034   6.706   2.529   1.104 -4.3522 -0.1025 -0.4600
  667MOL0     H90035   6.543   2.269   0.914 -1.8552  1.3728  0.8415
  667MOL0     H90036   6.595   2.423   0.962  1.0272  0.2469 -3.0898
  667MOL0     H90037   6.837   2.356   0.957 -1.7268 -1.2612  3.4449
  667MOL0     H90038   6.760   2.356   0.804  0.8403 -1.7432 -0.9357
  667MOL0     H90039   6.730   2.126   0.781  2.3644  0.9400 -2.6608
  667MOL0     H90040   6.770   2.089   0.954 -0.1465 -1.9235 -0.7270
  667MOL0     H90041   6.978   2.047   0.815  1.2081  1.2034 -3.3033
  667MOL0     H90042   7.008   2.187   0.911 -0.9951  0.4340  0.0325
  667MOL0     H90043   7.033   2.302   0.497 -0.4443  0.2803  0.5072
  667MOL0     H90044   6.637   2.180   1.362  4.3232  0.1573  2.8515
  667MOL0     H90045   6.720   2.310   1.545 -0.1886  0.9990  1.2045
  668MOL0     O90046  11.389   9.187   5.878 -0.2698  0.0005  0.1881
  668MOL0     C90047  11.442   9.238   5.779  0.6902 -0.2176 -0.2029
  668MOL0     O90048  11.420   9.215   5.646  0.4816 -0.6316 -0.5189
  668MOL0     C90049  11.313   9.132   5.604  0.3185 -0.0076 -0.4666
  668MOL0     C90050  11.328   9.060   5.491  0.3390 -0.2819  0.1400
  668MOL0     C90051  11.231   8.967   5.442  0.6655 -0.3149  0.2297
  668MOL0     C90052  11.114   8.942   5.511 -0.3603  1.4146  0.1650
  668MOL0     O90053  11.030   8.838   5.477  0.5112  0.1883 -1.0049
  668MOL0     C90054  10.952   8.774   5.584  0.0625 -0.9304 -0.3258
  668MOL0     C90055  10.813   8.838   5.615  0.5168 -0.0832  0.1446
  668MOL0     C90056  10.738   8.867   5.488 -0.6267 -1.1964  1.3127
  668MOL0     C90057  10.597   8.916   5.506 -0.0355  0.1186 -0.7220
  668MOL0     C90058  10.543   8.973   5.370  0.7092 -0.0304 -0.2914
  668MOL0     C90059  10.395   9.008   5.399  0.4854 -0.2173 -1.3176
  668MOL0     C90060  10.331   9.065   5.271  0.3931 -0.0213  0.4585
  668MOL0     C90061  10.187   9.108   5.284 -0.1137  0.4503 -0.5140
  668MOL0     N90062  10.176   9.238   5.345 -0.1549  0.0871 -0.3546
  668MOL0     C90063  10.136   9.254   5.475 -0.1905 -0.0956 -0.3796
  668MOL0     C90064  10.199   9.374   5.517  0.2024  0.4126  0.6294
  668MOL0     C90065  10.245   9.401   5.655 -0.3364 -0.1744 -0.3196
  668MOL0     C90066  10.330   9.285   5.700  0.4631  0.7956 -0.5896
  668MOL0     C90067  10.412   9.319   5.823 -0.0183  0.0536 -0.6326
  668MOL0     C90068  10.507   9.195   5.867  1.1123  0.0519 -0.1730
  668MOL0     O90069  10.638   9.238   5.917 -0.4346  0.2078 -0.1420
  668MOL0     C90070  10.723   9.286   5.823  0.5099 -0.6531 -1.2312
  668MOL0     C90071  10.832   9.355   5.877 -0.1637  0.6664  0.1079
  668MOL0     C90072  10.931   9.407   5.785 -0.3797  0.8596  0.5818
  668MOL0     C90073  11.040   9.475   5.854 -0.7012  0.0491 -0.3203
  668MOL0     C90074  10.928   9.376   5.649 -0.0996 -0.0859  0.9632
  668MOL0     C90075  11.046   9.407   5.553  1.0299 -0.3586 -0.3736
  668MOL0     O90076  11.036   9.336   5.433 -0.2194  0.2515 -0.6560
  668MOL0     C90077  11.113   9.370   5.326 -0.6320 -0.2428  0.7331
  668MOL0     C90078  11.056   9.368   5.199 -1.3587 -0.1046  0.0020
  668MOL0     C90079  11.134   9.392   5.086  0.3781 -0.2416 -0.4269
  668MOL0     C90080  11.269   9.391   5.096 -1.2290  1.2312  0.0496
  668MOL0     O90081  11.354   9.401   4.985  0.3108 -0.2257 -0.0945
  668MOL0     C90082  11.337   9.298   4.882  0.1533 -0.1864 -0.1541
  668MOL0     C90083  11.466   9.233   4.848  0.4058  0.2964  0.1767
  668MOL0     C90084  11.431   9.105   4.767  0.5370 -0.2824 -0.2765
  668MOL0     C90085  11.547   9.034   4.697  0.4928 -0.6099  0.3717
  668MOL0     C90086  11.516   8.901   4.622  0.2728 -0.3741 -0.5392
  668MOL0     C90087  11.480   8.787   4.714  0.2477  0.2973 -0.5699
  668MOL0     C90088  11.479   8.652   4.645 -0.0246 -0.0759 -0.7501
  668MOL0     C90089  11.614   8.619   4.573  0.2151  0.9440 -0.7853
  668MOL0    Cl90090  11.746   8.621   4.698 -0.3247 -0.5986  0.1397
  668MOL0     C90091  11.325   9.389   5.218 -0.3387 -0.1562  0.3776
  668MOL0     C90092  11.248   9.380   5.332  0.5480 -0.7831  0.0606
  668MOL0     O90093  11.124   9.499   5.583 -0.7403 -0.0142 -0.3077
  668MOL0     C90094  10.813   9.304   5.605 -0.8183  0.1476  0.0479
  668MOL0     C90095  10.713   9.267   5.687  0.1057 -0.0506  0.1214
  668MOL0     N90096  10.251   9.433   5.397  0.6380 -0.3437 -0.2271
  668MOL0     N90097  10.245   9.347   5.299  0.4496 -0.1846 -0.5245
  668MOL0     C90098  11.091   9.030   5.623  0.2828 -0.7094  0.6149
  668MOL0     C90099  11.188   9.129   5.662  0.2819  0.2382 -0.4873
  668MOL0     C90100  11.553   9.339   5.810  0.6264  0.0702 -0.1181
  668MOL0     C90101  11.596   9.364   5.945  0.8993 -1.2342  0.5249
  668MOL0     C90102  11.711   9.451   5.974 -0.0066 -0.2574 -0.7267
  668MOL0     C90103  11.782   9.500   5.870 -1.0151  0.1006  0.3821
  668MOL0     O90104  11.893   9.564   5.908  0.1011 -0.3675  0.4815
  668MOL0     C90105  11.992   9.610   5.822  0.9798 -0.2812  0.4666
  668MOL0     C90106  12.105   9.689   5.887  0.2542 -0.4190 -0.2709
  668MOL0     C90107  12.093   9.840   5.895  0.9187 -0.2294  0.1699
  668MOL0     C90108  11.977   9.876   5.998 -1.1877 -0.7219 -0.2106
  668MOL0     C90109  11.965  10.022   6.025  0.0255  0.0311  0.0883
  668MOL0     C90110  11.977  10.140   6.028 -0.1855 -1.0928 -0.1732
  668MOL0     C90111  11.722   9.491   5.739  0.9102  0.0016 -0.1498
  668MOL0     C90112  11.615   9.408   5.716 -0.0185  0.0593  0.9234
  668MOL0     H90113  11.422   9.076   5.440  1.4439 -0.4865  2.0062
  668MOL0     H90114  11.258   8.914   5.351 -0.5700 -1.9200  0.7577
  668MOL0     H90115  10.942   8.668   5.557  0.5935 -1.5525  1.7220
  668MOL0     H90116  11.014   8.768   5.675  0.6807 -0.8622 -0.7375
  668MOL0     H90117  10.750   8.778   5.680  1.4855 -0.3302  0.8874
  668MOL0     H90118  10.821   8.938   5.660 -3.9958  0.2831  0.5299
  668MOL0     H90119  10.782   8.956   5.440 -3.3400  0.9513  2.5216
  668MOL0     H90120  10.740   8.781   5.421 -1.0243  0.8277 -1.4732
  668MOL0     H90121  10.536   8.830   5.534  2.6281 -1.7139 -0.1373
  668MOL0     H90122  10.601   8.991   5.586 -0.2684  0.5927 -1.1509
  668MOL0     H90123  10.594   9.056   5.320 -0.4689 -0.5599 -2.4834
  668MOL0     H90124  10.560   8.901   5.290  3.3082  3.3235 -3.0511
  668MOL0     H90125  10.348   8.916   5.436 -0.2407  0.9014  0.6602
  668MOL0     H90126  10.389   9.088   5.473 -0.7495  0.8448 -2.5245
  668MOL0     H90127  10.392   9.141   5.221  0.9232 -0.9384 -0.3196
  668MOL0     H90128  10.324   8.981   5.203 -0.5585  1.0157 -0.7643
  668MOL0     H90129  10.119   9.032   5.324 -0.4164  1.6975  1.5047
  668MOL0     H90130  10.137   9.114   5.187 -0.2312  0.1577 -0.4714
  668MOL0     H90131  10.114   9.169   5.539  1.0259  0.2852  0.5846
  668MOL0     H90132  10.304   9.494   5.651  0.9426 -1.0005 -2.0548
  668MOL0     H90133  10.167   9.411   5.731 -2.3066  3.5238 -2.5415
  668MOL0     H90134  10.388   9.248   5.615  0.8756  0.1009 -0.0190
  668MOL0     H90135  10.269   9.202   5.736  1.3320  1.0569  1.6510
  668MOL0     H90136  10.350   9.347   5.909 -0.9631 -1.1256 -0.9071
  668MOL0     H90137  10.471   9.405   5.791 -2.0729  1.0700 -1.8361
  668MOL0     H90138  10.526   9.120   5.790  3.6520  1.4781 -1.0461
  668MOL0     H90139  10.461   9.130   5.942  2.7446 -1.1347 -0.1502
  668MOL0     H90140  10.837   9.371   5.984 -0.1110  0.1582  0.1881
  668MOL0     H90141  11.033   9.467   5.962 -0.8825  0.4865 -0.2952
  668MOL0     H90142  11.135   9.432   5.821 -0.5405  0.9140 -1.0538
  668MOL0     H90143  11.042   9.581   5.824  0.3290  0.1525  0.0743
  668MOL0     H90144  10.955   9.329   5.190 -1.0626 -1.9703  3.3450
  668MOL0     H90145  11.096   9.405   4.986 -0.5774  0.6446  0.0361
  668MOL0     H90146  11.262   9.222   4.907 -1.5244  1.3497 -0.3170
  668MOL0     H90147  11.299   9.345   4.792 -1.7437  2.0198  1.6747
  668MOL0     H90148  11.540   9.293   4.793  0.8899 -2.3345 -2.2755
  668MOL0     H90149  11.523   9.207   4.938  1.4978  2.6722  0.2682
  668MOL0     H90150  11.364   9.134   4.686  1.9304  0.0264 -1.3630
  668MOL0     H90151  11.380   9.040   4.839  0.3838  0.6324  0.4643
  668MOL0     H90152  11.581   9.113   4.630 -0.8137 -0.6080 -0.3165
  668MOL0     H90153  11.631   9.003   4.761  0.6654 -0.4938  0.2008
  668MOL0     H90154  11.613   8.888   4.574  0.1454 -1.7439 -0.4672
  668MOL0     H90155  11.441   8.931   4.548  1.1662 -0.2856 -1.4312
  668MOL0     H90156  11.538   8.793   4.806 -0.5355  1.1705 -0.1181
  668MOL0     H90157  11.377   8.797   4.747  1.1912  3.0152  1.9119
  668MOL0     H90158  11.388   8.651   4.584 -1.2900  3.9776  0.7171
  668MOL0     H90159  11.470   8.578   4.725  2.3924  2.1032  1.7602
  668MOL0     H90160  11.632   8.696   4.497  1.2472  0.9137 -0.5835
  668MOL0     H90161  11.611   8.519   4.529  0.2851  0.2894  0.6590
  668MOL0     H90162  11.433   9.376   5.217 -0.2174  0.7181 -1.1128
  668MOL0     H90163  11.293   9.360   5.428  1.3097 -1.6427 -0.4511
  668MOL0     H90164  10.821   9.283   5.498  2.3847 -0.7698  0.3706
  668MOL0     H90165  10.626   9.228   5.636  0.9899  1.1679 -2.5239
  668MOL0     H90166  10.995   9.042   5.673  0.3945 -0.5778  0.7979
  668MOL0     H90167  11.150   9.216   5.715  0.8366 -0.3796  0.9733
  668MOL0     H90168  11.531   9.324   6.021  2.2231 -2.2151  1.1839
  668MOL0     H90169  11.733   9.469   6.079 -0.5819 -2.4239 -0.1730
  668MOL0     H90170  12.031   9.519   5.775  2.1567 -0.8047  2.3366
  668MOL0     H90171  11.941   9.671   5.746  1.3220 -4.7144 -3.7949
  668MOL0     H90172  12.193   9.664   5.827  0.1107  0.7467 -1.0106
  668MOL0     H90173  12.128   9.651   5.986  2.6991 -0.7961 -0.9193
  668MOL0     H90174  12.080   9.890   5.799  4.7891  0.5012 -0.1427
  668MOL0     H90175  12.187   9.879   5.935 -0.2779  1.5338  1.3909
  668MOL0     H90176  12.010   9.819   6.085 -0.2535 -2.4409 -1.6479
  668MOL0     H90177  11.879   9.842   5.964 -1.9152  1.1980 -0.2007
  668MOL0     H90178  11.983  10.246   6.023  3.2163 -1.2140 -1.8953
  668MOL0     H90179  11.763   9.547   5.655 -2.2783 -0.1958 -2.0352
  668MOL0     H90180  11.587   9.403   5.611  2.2138  0.9971  0.2097
  669MOL0     O90181   2.651   0.966   4.952 -0.2582 -0.1295 -0.2039
  669MOL0     C90182   2.607   1.034   4.852 -0.1973 -0.3548 -0.7124
  669MOL0     O90183   2.484   1.018   4.803 -0.5251  0.0148 -0.2830
  669MOL0     C90184   2.404   0.920   4.862  0.4279  0.0709  0.6817
  669MOL0     C90185   2.346   0.933   4.993  0.4200 -1.0456 -0.2399
  669MOL0     C90186   2.260   0.839   5.036 -0.3640  0.3004 -0.3248
  669MOL0     C90187   2.239   0.720   4.955 -0.6001  0.5323  0.4707
  669MOL0     O90188   2.168   0.617   5.012 -0.6038  0.1783  0.1509
  669MOL0     C90189   2.040   0.591   4.958 -0.0530  0.6090  0.4386
  669MOL0     C90190   1.934   0.621   5.068  0.8659  0.1998  0.4596
  669MOL0     C90191   1.913   0.775   5.070  0.3255  0.1004  0.0470
  669MOL0     C90192   1.796   0.811   5.161  0.6203  0.1902  0.0859
  669MOL0     C90193   1.828   0.848   5.316 -0.4975 -0.0495  0.1154
  669MOL0     C90194   1.944   0.759   5.367 -0.7324 -0.2879 -0.6273
  669MOL0     C90195   1.965   0.774   5.519 -0.4628 -0.2604 -1.1562
  669MOL0     C90196   2.018   0.909   5.558 -0.9309  0.0309  0.3575
  669MOL0     N90197   2.161   0.920   5.510  0.6344  0.4324  0.5166
  669MOL0     C90198   2.281   0.904   5.579 -0.9108 -0.6831 -0.1369
  669MOL0     C90199   2.374   0.948   5.492 -0.9249 -0.0874  0.5886
  669MOL0     C90200   2.525   0.962   5.521  0.6366  0.6444 -0.4113
  669MOL0     C90201   2.613   1.005   5.403  0.5776  0.6006  0.1498
  669MOL0     C90202   2.758   1.029   5.441  0.8110 -0.1565  0.1627
  669MOL0     C90203   2.839   1.090   5.320 -0.3006  0.3439  0.5052
  669MOL0     O90204   2.980   1.095   5.350  0.5250  0.3422 -0.4422
  669MOL0     C90205   3.047   1.153   5.249  0.1254 -0.2085 -0.1662
  669MOL0     C90206   3.001   1.269   5.175  0.3720 -0.3016 -0.3960
  669MOL0     C90207   3.086   1.332   5.086  0.1841  0.4091  1.0236
  669MOL0     C90208   3.031   1.451   5.006  0.8658  0.3473  0.9287
  669MOL0     C90209   3.226   1.312   5.100  0.3503 -0.1928 -0.4991
  669MOL0     C90210   3.338   1.390   5.026 -0.0197  1.0177 -0.7887
  669MOL0     O90211   3.298   1.503   4.962 -0.1155 -1.0288 -0.6222
  669MOL0     C90212   3.398   1.562   4.879 -0.0031 -0.0511  0.4731
  669MOL0     C90213   3.431   1.693   4.891  0.7185  1.1932  0.4608
  669MOL0     C90214   3.537   1.749   4.810  0.6102  0.1486 -0.3409
  669MOL0     C90215   3.589   1.674   4.694 -0.3726  0.0103 -0.4959
  669MOL0     O90216   3.685   1.717   4.605  0.6409  0.7675 -0.8850
  669MOL0     C90217   3.724   1.852   4.595  0.0235 -1.0254 -0.5043
  669MOL0     C90218   3.828   1.899   4.697  0.2141  0.6419 -0.1393
  669MOL0     C90219   3.885   2.036   4.675 -0.4938  0.3464  0.1566
  669MOL0     C90220   3.879   2.092   4.534 -0.7018 -0.5878 -0.5492
  669MOL0     C90221   3.965   2.213   4.535 -0.5001  0.0761 -0.2243
  669MOL0     C90222   4.114   2.171   4.499 -0.3419 -0.7419  0.1840
  669MOL0     C90223   4.213   2.281   4.540 -0.8068 -0.8458  0.2345
  669MOL0     C90224   4.215   2.395   4.435  0.8560 -0.1071  0.4114
  669MOL0    Cl90225   4.073   2.495   4.466  0.3185  0.2429  0.0522
  669MOL0     C90226   3.561   1.538   4.688 -0.3037  0.3098 -0.0762
  669MOL0     C90227   3.453   1.488   4.770  0.7572 -0.6274  0.4514
  669MOL0     O90228   3.454   1.342   5.038 -0.4404 -0.1046  0.3743
  669MOL0     C90229   3.280   1.202   5.177 -0.3289 -0.6848 -0.7831
  669MOL0     C90230   3.179   1.123   5.247 -0.9723 -0.3100  1.4756
  669MOL0     N90231   2.305   0.990   5.378  0.2406 -0.5082 -0.5121
  669MOL0     N90232   2.179   0.974   5.386 -0.0249 -0.2924  0.3197
  669MOL0     C90233   2.291   0.708   4.829  1.0064 -0.3825  0.0462
  669MOL0     C90234   2.380   0.807   4.785  0.4452  0.2757 -0.0902
  669MOL0     C90235   2.685   1.138   4.794 -1.4648 -0.8687 -0.2703
  669MOL0     C90236   2.648   1.212   4.672 -0.2676 -1.2638 -0.0816
  669MOL0     C90237   2.743   1.299   4.605 -0.9843  0.1142  0.1670
  669MOL0     C90238   2.870   1.325   4.658  0.5780 -1.4535  0.2999
  669MOL0     O90239   2.960   1.399   4.581 -0.1786 -0.2713 -0.1333
  669MOL0     C90240   3.103   1.409   4.609  0.8975  0.1074 -0.2347
  669MOL0     C90241   3.184   1.487   4.498 -0.1363 -0.2927 -0.1456
  669MOL0     C90242   3.149   1.638   4.485 -0.4469  0.4799 -0.6413
  669MOL0     C90243   3.268   1.715   4.425 -0.3015  0.1843  0.4973
  669MOL0     C90244   3.237   1.856   4.409  0.3259 -0.7421  0.8043
  669MOL0     C90245   3.214   1.976   4.395 -1.1624  0.2574 -0.7366
  669MOL0     C90246   2.906   1.259   4.773  0.2788 -0.0202  0.5689
  669MOL0     C90247   2.812   1.179   4.842 -0.0427  0.6593  0.1516
  669MOL0     H90248   2.343   1.022   5.055  0.6105  1.7320 -3.8393
  669MOL0     H90249   2.213   0.843   5.134 -1.3329  1.5244 -0.8066
  669MOL0     H90250   2.007   0.642   4.867 -0.0533 -0.8360 -0.4095
  669MOL0     H90251   2.034   0.485   4.931 -0.7846  0.8740 -0.5296
  669MOL0     H90252   1.844   0.566   5.038  2.3744 -1.3904 -1.3370
  669MOL0     H90253   1.973   0.580   5.161  2.2661 -1.0683 -0.6437
  669MOL0     H90254   1.999   0.838   5.094  0.8872 -0.7367  0.2721
  669MOL0     H90255   1.874   0.816   4.976  0.1123  3.8780  1.5885
  669MOL0     H90256   1.746   0.894   5.109 -1.7728  0.2211  2.2505
  669MOL0     H90257   1.719   0.734   5.157  0.4102  0.4022  0.0511
  669MOL0     H90258   1.834   0.957   5.320  0.6903 -0.1299  0.9503
  669MOL0     H90259   1.740   0.819   5.375  1.0126 -2.5895  1.2894
  669MOL0     H90260   1.910   0.659   5.341 -1.3641 -0.1178 -0.4689
  669MOL0     H90261   2.036   0.786   5.313 -0.0810  0.8722  0.9677
  669MOL0     H90262   1.871   0.767   5.574  0.6687  1.9168  1.2754
  669MOL0     H90263   2.031   0.700   5.566 -0.9229 -0.5234 -0.9256
  669MOL0     H90264   2.016   0.934   5.664  1.9718 -1.7483  0.9451
  669MOL0     H90265   1.965   0.984   5.500  1.2039  0.6540 -0.8917
  669MOL0     H90266   2.291   0.849   5.672 -2.9912  1.1988  1.3300
  669MOL0     H90267   2.537   1.054   5.580 -0.2443  2.6085 -3.1206
  669MOL0     H90268   2.564   0.877   5.578  3.5654  1.9598 -0.2434
  669MOL0     H90269   2.573   1.101   5.369 -1.5075 -0.1230  0.3871
  669MOL0     H90270   2.608   0.926   5.328 -0.8763  2.9541 -2.4061
  669MOL0     H90271   2.820   0.945   5.472  1.9390  1.1997  1.7394
  669MOL0     H90272   2.772   1.106   5.517  6.6133 -1.8961  1.3554
  669MOL0     H90273   2.798   1.190   5.304  3.2229  2.0813  1.2111
  669MOL0     H90274   2.804   1.035   5.232 -4.6525  2.3069  0.7701
  669MOL0     H90275   2.900   1.307   5.182  0.2075 -0.8732  0.5577
  669MOL0     H90276   2.922   1.446   4.999  0.9459  0.4390 -1.1256
  669MOL0     H90277   3.068   1.547   5.042  1.3894 -0.1109  1.6440
  669MOL0     H90278   3.056   1.449   4.899 -1.4520  1.9346  0.2747
  669MOL0     H90279   3.367   1.757   4.951 -1.3480  0.4118 -0.8023
  669MOL0     H90280   3.547   1.854   4.836 -1.2927  0.8930 -2.3361
  669MOL0     H90281   3.774   1.853   4.497 -2.3103 -0.0767 -1.7710
  669MOL0     H90282   3.639   1.920   4.600  0.5291 -0.4424  0.3318
  669MOL0     H90283   3.780   1.896   4.796 -0.7401  1.1798 -0.5720
  669MOL0     H90284   3.911   1.829   4.683  0.0850  0.5012 -0.2153
  669MOL0     H90285   3.988   2.039   4.712 -0.6218  1.6151  0.4427
  669MOL0     H90286   3.826   2.099   4.742 -1.7128 -1.7218  1.1338
  669MOL0     H90287   3.937   2.021   4.475  2.6564  0.5239  1.1254
  669MOL0     H90288   3.780   2.118   4.497  0.7947  2.9459 -2.5110
  669MOL0     H90289   3.951   2.267   4.629  0.3031 -0.1207  0.0222
  669MOL0     H90290   3.932   2.277   4.452 -1.1129 -1.8157 -1.5153
  669MOL0     H90291   4.145   2.084   4.558 -0.3837 -1.3286 -0.6364
  669MOL0     H90292   4.123   2.144   4.393  1.5114 -1.7774  0.5495
  669MOL0     H90293   4.309   2.230   4.531 -0.8086 -0.7228 -0.6557
  669MOL0     H90294   4.205   2.327   4.638  1.0547 -0.1590  0.0937
  669MOL0     H90295   4.209   2.350   4.335 -2.5223 -0.3323  0.5831
  669MOL0     H90296   4.305   2.457   4.436  0.9918 -0.2669 -0.4975
  669MOL0     H90297   3.614   1.482   4.612  0.1944 -0.4805  0.8323
  669MOL0     H90298   3.425   1.383   4.768 -0.6862 -0.2781 -2.2568
  669MOL0     H90299   3.384   1.180   5.199  0.1802  2.9648  1.3761
  669MOL0     H90300   3.214   1.042   5.310  1.6203 -1.7206 -1.5033
  669MOL0     H90301   2.270   0.619   4.772 -1.2662 -1.6203  2.6045
  669MOL0     H90302   2.431   0.795   4.690  0.7006 -1.3913  0.2193
  669MOL0     H90303   2.551   1.223   4.623  0.5958  0.9968 -1.4537
  669MOL0     H90304   2.711   1.346   4.512  0.1099 -0.2868 -0.4274
  669MOL0     H90305   3.123   1.473   4.696 -1.0692  0.8180 -0.2652
  669MOL0     H90306   3.142   1.307   4.619 -0.3665 -0.5487 -1.5678
  669MOL0     H90307   3.162   1.439   4.402  2.7368 -2.5728  0.1979
  669MOL0     H90308   3.291   1.464   4.505  1.1739  4.9866  1.6974
  669MOL0     H90309   3.121   1.674   4.584 -0.5820 -0.7158 -0.2410
  669MOL0     H90310   3.058   1.641   4.424 -1.6723  3.2409  1.1155
  669MOL0     H90311   3.285   1.683   4.322  4.4112 -0.3344  1.2388
  669MOL0     H90312   3.355   1.709   4.491 -1.0611  0.3850  1.5646
  669MOL0     H90313   3.202   2.082   4.390  0.1926  0.3855 -2.2010
  669MOL0     H90314   3.005   1.276   4.816 -0.2081  0.6728  1.4619
  669MOL0     H90315   2.854   1.121   4.924 -0.4979  0.0561 -0.0331
  670MOL0     O90316  10.446   2.910   4.772  0.1779 -0.2342 -0.1130
  670MOL0     C90317  10.375   3.012   4.754  0.6453  0.3862 -0.4564
  670MOL0     O90318  10.407   3.116   4.668  0.4575  0.0285 -0.8801
  670MOL0     C90319  10.518   3.117   4.585  0.3485  0.9383  0.1777
  670MOL0     C90320  10.523   3.213   4.486  0.3025 -0.1704 -0.4649
  670MOL0     C90321  10.620   3.223   4.383  0.1339  0.7208 -0.3242
  670MOL0     C90322  10.722   3.129   4.381  0.8230 -0.2862  0.2177
  670MOL0     O90323  10.809   3.124   4.271 -0.2969 -0.5925 -0.4031
  670MOL0     C90324  10.922   3.036   4.262  0.4293 -0.1398  0.9042
  670MOL0     C90325  11.018   3.076   4.150  0.0128 -0.8408 -0.6572
  670MOL0     C90326  11.029   3.231   4.139 -0.3707  0.2189  0.3813
  670MOL0     C90327  11.104   3.291   4.261 -0.6395  0.2420 -0.5390
  670MOL0     C90328  11.154   3.435   4.255  0.6104 -0.2766  0.5890
  670MOL0     C90329  11.219   3.487   4.393  0.7937  0.3786 -0.4723
  670MOL0     C90330  11.269   3.628   4.396 -0.1550  0.5388 -0.1793
  670MOL0     C90331  11.227   3.728   4.508  0.0036  0.5973 -0.1713
  670MOL0     N90332  11.272   3.697   4.643 -0.6575 -1.0123 -0.1342
  670MOL0     C90333  11.400   3.738   4.675  0.9280 -0.0337  0.5520
  670MOL0     C90334  11.420   3.674   4.794  0.5717 -0.0271 -0.2488
  670MOL0     C90335  11.557   3.686   4.855 -0.4627  0.6148  0.0081
  670MOL0     C90336  11.575   3.813   4.949  0.1585  0.3618 -0.4064
  670MOL0     C90337  11.720   3.844   4.985  0.4225  0.0776  0.4690
  670MOL0     C90338  11.747   3.949   5.091 -0.0128  0.1156  0.1653
  670MOL0     O90339  11.828   3.905   5.200 -0.2073  0.3575 -0.4212
  670MOL0     C90340  11.961   3.878   5.179  0.6915 -0.1131  0.5587
  670MOL0     C90341  12.024   3.896   5.057 -0.4136 -0.1273  0.3084
  670MOL0     C90342  12.164   3.877   5.036 -0.3523  0.5467  0.8160
  670MOL0     C90343  12.206   3.871   4.892  0.0464 -0.9645  0.4066
  670MOL0     C90344  12.245   3.836   5.143 -0.8280 -0.2396 -0.3841
  670MOL0     C90345  12.388   3.811   5.138  0.2593 -1.4858 -0.8304
  670MOL0     O90346  12.456   3.821   5.015 -0.4076  0.2621  0.4691
  670MOL0     C90347  12.585   3.778   5.004  0.5400 -0.4180 -0.7592
  670MOL0     C90348  12.607   3.656   4.949  0.3309  0.8813 -0.5695
  670MOL0     C90349  12.734   3.603   4.923 -0.4396 -0.0359 -0.0073
  670MOL0     C90350  12.844   3.692   4.947 -0.2471  0.1540  0.3895
  670MOL0     O90351  12.978   3.662   4.916 -0.5583  0.1791 -0.1160
  670MOL0     C90352  13.016   3.545   4.837  0.0157  0.0984  0.6287
  670MOL0     C90353  13.166   3.538   4.800  0.5599  0.4562 -0.3087
  670MOL0     C90354  13.187   3.605   4.661  0.4396 -0.6809 -0.9603
  670MOL0     C90355  13.325   3.554   4.599  0.2148  0.5973  0.0260
  670MOL0     C90356  13.350   3.606   4.466 -0.1798 -0.3647 -0.1650
  670MOL0     C90357  13.475   3.550   4.395 -0.4472 -0.4559  0.2630
  670MOL0     C90358  13.487   3.596   4.242  0.4171  0.4442 -0.0327
  670MOL0     C90359  13.621   3.610   4.193 -0.2973 -0.1856  0.5240
  670MOL0    Cl90360  13.609   3.712   4.049  0.1574  0.0472  0.3088
  670MOL0     C90361  12.823   3.809   5.012  0.6545 -1.0136 -0.0282
  670MOL0     C90362  12.692   3.853   5.044 -0.4303 -0.1376  0.2247
  670MOL0     O90363  12.442   3.771   5.243 -0.2582 -0.4593  0.3943
  670MOL0     C90364  12.175   3.810   5.266  0.1043  0.4022  0.6519
  670MOL0     C90365  12.040   3.815   5.279  0.2324 -1.2078 -0.3207
  670MOL0     N90366  11.309   3.602   4.828 -0.1960 -0.3501 -0.1528
  670MOL0     N90367  11.221   3.613   4.738 -0.7419 -0.0626  0.9330
  670MOL0     C90368  10.733   3.039   4.491 -0.4283 -0.3711 -0.1972
  670MOL0     C90369  10.631   3.036   4.592 -0.0518  1.6717  0.5248
  670MOL0     C90370  10.253   3.010   4.842  0.4575  0.3430  0.6647
  670MOL0     C90371  10.199   2.893   4.905 -0.0914 -0.0058 -0.6872
  670MOL0     C90372  10.089   2.900   4.983  0.4426  0.1550  0.2924
  670MOL0     C90373  10.013   3.016   4.996 -0.0795  0.6542 -0.7376
  670MOL0     O90374   9.895   3.031   5.063 -0.0923  0.0962  0.7757
  670MOL0     C90375   9.855   2.926   5.155  0.1353  0.6940  0.6453
  670MOL0     C90376   9.925   2.942   5.283  0.8594 -0.1125  0.7064
  670MOL0     C90377   9.897   2.832   5.379 -0.6380  0.0706 -0.0525
  670MOL0     C90378   9.968   2.700   5.327 -0.2375 -0.1817 -0.6047
  670MOL0     C90379   9.996   2.600   5.437  0.4045  0.4818  0.7034
  670MOL0     C90380  10.018   2.518   5.527 -0.8127  0.9619  0.0325
  670MOL0     C90381  10.063   3.125   4.944 -0.2404 -0.8063 -0.5321
  670MOL0     C90382  10.182   3.131   4.875 -1.1138  0.1225  1.1501
  670MOL0     H90383  10.445   3.288   4.478 -0.4708 -0.8552  0.4427
  670MOL0     H90384  10.621   3.303   4.309  1.6376  2.0201  1.0148
  670MOL0     H90385  10.985   3.047   4.351  1.1596 -0.6908  0.4712
  670MOL0     H90386  10.876   2.938   4.245 -0.9189  0.4027  1.2718
  670MOL0     H90387  11.115   3.026   4.161  0.3547  0.1024  1.1423
  670MOL0     H90388  10.972   3.037   4.059 -0.5597 -3.3357  0.5959
  670MOL0     H90389  11.090   3.253   4.051 -0.4660  0.4618  0.3744
  670MOL0     H90390  10.934   3.281   4.121 -0.6810 -0.6930 -0.6090
  670MOL0     H90391  11.034   3.280   4.344 -2.0118 -4.0378 -1.9932
  670MOL0     H90392  11.193   3.234   4.290 -0.2209  1.7051  1.2080
  670MOL0     H90393  11.227   3.454   4.175  1.9145 -0.8857  1.6049
  670MOL0     H90394  11.067   3.500   4.237  2.5995  2.1616 -0.8137
  670MOL0     H90395  11.143   3.480   4.472  3.2421  0.9703  2.0820
  670MOL0     H90396  11.294   3.414   4.425 -1.7795 -2.2773 -0.0514
  670MOL0     H90397  11.376   3.615   4.384 -0.5087 -3.6066 -0.1075
  670MOL0     H90398  11.225   3.672   4.306 -0.0259  2.3213  0.5843
  670MOL0     H90399  11.118   3.732   4.502 -0.3682 -0.1382  3.4361
  670MOL0     H90400  11.264   3.826   4.478  3.1252  0.4056  2.4878
  670MOL0     H90401  11.471   3.796   4.615 -1.5681  1.7854 -0.8297
  670MOL0     H90402  11.574   3.601   4.922 -0.4668  1.8202  1.6167
  670MOL0     H90403  11.636   3.669   4.782 -0.9715 -1.5901 -0.0805
  670MOL0     H90404  11.525   3.808   5.047  2.8302  1.3797  1.1192
  670MOL0     H90405  11.535   3.897   4.890 -1.5688 -1.7630 -2.4308
  670MOL0     H90406  11.771   3.869   4.891 -0.4304 -3.5363 -1.0919
  670MOL0     H90407  11.775   3.760   5.028  0.6897 -0.5820 -1.0962
  670MOL0     H90408  11.656   3.989   5.137  0.3241  1.0404  0.0495
  670MOL0     H90409  11.798   4.038   5.051 -0.4158  0.1977 -0.1666
  670MOL0     H90410  11.966   3.908   4.966  0.9355 -0.7025 -0.6594
  670MOL0     H90411  12.114   3.875   4.832 -3.0524 -0.7241  4.7041
  670MOL0     H90412  12.266   3.960   4.872  0.3660 -1.4292 -0.7683
  670MOL0     H90413  12.264   3.782   4.868  2.6915  0.8152 -0.2846
  670MOL0     H90414  12.521   3.590   4.942  1.1477 -0.1635 -1.0579
  670MOL0     H90415  12.758   3.512   4.871 -0.2946 -0.2687  0.4573
  670MOL0     H90416  12.978   3.458   4.892  2.0294  0.1673  2.2361
  670MOL0     H90417  12.958   3.545   4.744  0.9771  0.8254  0.0116
  670MOL0     H90418  13.220   3.593   4.878  1.0325 -2.3499  1.5031
  670MOL0     H90419  13.207   3.437   4.807 -0.9282 -0.0652  1.8038
  670MOL0     H90420  13.187   3.713   4.674 -2.2320 -0.9521  3.4388
  670MOL0     H90421  13.110   3.568   4.592 -0.8315 -0.8809  0.5122
  670MOL0     H90422  13.404   3.578   4.671 -0.6789  2.9979  0.2829
  670MOL0     H90423  13.322   3.445   4.604  0.4937  0.5656 -0.5066
  670MOL0     H90424  13.369   3.714   4.470 -0.3726 -0.2634 -1.5726
  670MOL0     H90425  13.265   3.589   4.399 -1.4030 -0.6797  1.4209
  670MOL0     H90426  13.567   3.588   4.441 -1.1704  1.9478 -0.1580
  670MOL0     H90427  13.482   3.441   4.404  1.5849 -0.3296  0.8061
  670MOL0     H90428  13.430   3.689   4.231  1.1948  1.1672  1.6330
  670MOL0     H90429  13.438   3.524   4.177  0.2451  0.7995 -0.2945
  670MOL0     H90430  13.669   3.516   4.167  3.3995  2.0009 -1.4194
  670MOL0     H90431  13.696   3.646   4.265  3.1260 -3.4401 -1.0467
  670MOL0     H90432  12.918   3.861   5.023  0.7312 -0.7721 -1.5678
  670MOL0     H90433  12.686   3.952   5.090 -2.8954  0.2487 -0.7788
  670MOL0     H90434  12.225   3.768   5.353 -1.9421 -3.2272  0.2899
  670MOL0     H90435  12.004   3.787   5.378 -0.5120  2.7945  0.7268
  670MOL0     H90436  10.817   2.972   4.506  2.1685  2.4818 -0.9749
  670MOL0     H90437  10.650   2.958   4.664  0.9933 -0.5839 -2.0128
  670MOL0     H90438  10.248   2.797   4.897 -2.2384 -1.0079 -2.7630
  670MOL0     H90439  10.066   2.814   5.046  1.8760  0.6985  1.6106
  670MOL0     H90440   9.748   2.937   5.171 -0.6027 -3.6261 -0.1639
  670MOL0     H90441   9.859   2.828   5.107 -0.9124  1.6902 -1.5733
  670MOL0     H90442   9.875   3.031   5.321 -5.5574 -2.5751 -0.6529
  670MOL0     H90443  10.032   2.955   5.264  0.7766  0.7913  0.8305
  670MOL0     H90444   9.791   2.809   5.385 -1.2957  2.7523  0.0048
  670MOL0     H90445   9.924   2.859   5.482  2.6136 -3.6551  0.2981
  670MOL0     H90446  10.062   2.723   5.275 -1.1276  0.5687 -1.9576
  670MOL0     H90447   9.902   2.655   5.252 -2.2004 -0.5572  1.2723
  670MOL0     H90448  10.023   2.451   5.610  0.3799  2.9347  1.6348
  670MOL0     H90449  10.011   3.219   4.955 -0.5249 -0.2083 -5.0052
  670MOL0     H90450  10.232   3.218   4.836  0.6111 -1.9716 -1.6780
  671MOL0     O90451   8.426   5.317   6.646 -0.0753  0.3899 -0.2982
  671MOL0     C90452   8.512   5.272   6.720  0.7290 -0.2351  0.6128
  671MOL0     O90453   8.513   5.148   6.779  0.0160 -0.0560  0.6084
  671MOL0     C90454   8.398   5.083   6.786  0.8075  0.3508  0.6637
  671MOL0     C90455   8.395   4.999   6.901 -0.0162  0.1727  0.2028
  671MOL0     C90456   8.302   4.891   6.905 -0.1714 -0.6185 -0.1499
  671MOL0     C90457   8.208   4.881   6.809 -0.2104 -0.4596  0.6886
  671MOL0     O90458   8.122   4.777   6.829 -0.4987 -0.4137 -0.7705
  671MOL0     C90459   8.015   4.754   6.731  0.2964 -0.6397 -0.5803
  671MOL0     C90460   7.959   4.615   6.735 -0.0115  0.3447 -0.2330
  671MOL0     C90461   7.876   4.589   6.856  0.6599 -0.3810  0.6923
  671MOL0     C90462   7.784   4.468   6.848  0.5612  0.1273 -0.4420
  671MOL0     C90463   7.654   4.473   6.935 -0.5915 -0.1839  0.4046
  671MOL0     C90464   7.700   4.502   7.086  0.7513 -0.4039 -0.5221
  671MOL0     C90465   7.593   4.451   7.185  0.3801 -0.0834 -0.3377
  671MOL0     C90466   7.643   4.329   7.269  0.0022 -0.1678  0.9172
  671MOL0     N90467   7.537   4.254   7.343  0.2623 -0.2046  1.3616
  671MOL0     C90468   7.484   4.305   7.460  0.1592  0.1845  0.8115
  671MOL0     C90469   7.371   4.226   7.477  0.1213  0.2937 -0.2996
  671MOL0     C90470   7.259   4.254   7.571 -0.6621  0.3494  1.1104
  671MOL0     C90471   7.297   4.181   7.703  0.4682  0.2978  0.1710
  671MOL0     C90472   7.218   4.223   7.821  0.7132  0.4610  0.6586
  671MOL0     C90473   7.253   4.150   7.953  0.2124  0.4555  0.3413
  671MOL0     O90474   7.183   4.213   8.065  0.6367 -0.0980  0.4081
  671MOL0     C90475   7.261   4.275   8.157  0.6421  0.0605 -0.4702
  671MOL0     C90476   7.268   4.407   8.163  0.1094 -0.6753 -0.0557
  671MOL0     C90477   7.347   4.482   8.249 -0.4183 -0.0816 -0.6300
  671MOL0     C90478   7.348   4.630   8.220  0.2319 -0.0001  0.2013
  671MOL0     C90479   7.429   4.408   8.343 -0.9627 -0.4160  0.1008
  671MOL0     C90480   7.522   4.476   8.447  0.0930 -0.4508  0.5222
  671MOL0     O90481   7.484   4.599   8.491 -0.4860  0.6313 -0.4743
  671MOL0     C90482   7.557   4.661   8.588 -0.1536 -0.3797 -0.4837
  671MOL0     C90483   7.635   4.774   8.553 -0.6430 -0.0038 -0.0760
  671MOL0     C90484   7.694   4.858   8.648  0.3205 -0.1110 -0.2581
  671MOL0     C90485   7.683   4.817   8.791  0.3598  0.7453  0.8108
  671MOL0     O90486   7.738   4.881   8.894 -0.2996  0.1237 -0.2995
  671MOL0     C90487   7.780   5.021   8.872 -0.6835 -0.4395  0.2629
  671MOL0     C90488   7.924   5.018   8.820 -0.7879 -0.3415 -0.0095
  671MOL0     C90489   8.028   5.035   8.924 -0.3248 -1.2204 -0.0428
  671MOL0     C90490   8.014   5.163   9.011  0.1498 -0.0628  1.1879
  671MOL0     C90491   8.157   5.215   9.053 -0.8149  0.1363 -0.7546
  671MOL0     C90492   8.166   5.276   9.193 -1.4696  0.3694  0.6419
  671MOL0     C90493   8.124   5.422   9.190 -0.0582  0.3447  0.2535
  671MOL0     C90494   8.106   5.480   9.333  0.0717 -0.3056  0.0187
  671MOL0    Cl90495   8.255   5.521   9.411 -0.5007 -0.0384 -0.6589
  671MOL0     C90496   7.611   4.704   8.823  0.0190  0.3726  0.0297
  671MOL0     C90497   7.553   4.618   8.729 -0.2292  0.1014 -0.0153
  671MOL0     O90498   7.630   4.422   8.473  0.1218  0.3209  0.3654
  671MOL0     C90499   7.436   4.267   8.332 -0.4130 -1.1423 -0.0574
  671MOL0     C90500   7.341   4.206   8.243 -0.4030 -0.3839  0.0101
  671MOL0     N90501   7.354   4.137   7.373 -0.3066  0.2304 -0.6316
  671MOL0     N90502   7.453   4.160   7.294 -0.3046  0.7337  0.2617
  671MOL0     C90503   8.208   4.970   6.695 -0.0916  0.9440 -0.5418
  671MOL0     C90504   8.303   5.068   6.674 -0.7685  0.6688  0.3260
  671MOL0     C90505   8.640   5.349   6.727 -1.2641  1.2091  0.0984
  671MOL0     C90506   8.645   5.492   6.743  0.1867  0.7541  0.4393
  671MOL0     C90507   8.763   5.558   6.751 -0.0822 -0.6253  0.2868
  671MOL0     C90508   8.884   5.485   6.724 -1.0969  0.5347  1.1799
  671MOL0     O90509   9.017   5.531   6.721 -0.0745  0.1567  0.0975
  671MOL0     C90510   9.045   5.667   6.736  0.5612 -0.8591 -0.1397
  671MOL0     C90511   9.041   5.732   6.872 -0.8468  0.1495 -0.9148
  671MOL0     C90512   9.148   5.843   6.902  0.3947 -0.9031  0.0645
  671MOL0     C90513   9.130   5.908   7.041 -0.3822 -0.7521  0.6344
  671MOL0     C90514   9.092   5.810   7.143  0.6211 -0.1947  0.5917
  671MOL0     C90515   9.057   5.744   7.237  0.4205 -0.8658 -0.0987
  671MOL0     C90516   8.872   5.348   6.692 -0.1918  0.0861  0.0916
  671MOL0     C90517   8.760   5.281   6.716 -0.5436  0.0291  0.9783
  671MOL0     H90518   8.470   5.006   6.979  0.0293 -0.0879  0.1835
  671MOL0     H90519   8.284   4.831   6.994 -2.4819 -1.4928 -1.1156
  671MOL0     H90520   7.935   4.828   6.741 -0.6597 -1.6153 -0.8179
  671MOL0     H90521   8.050   4.755   6.627 -1.1732 -1.2873 -1.0955
  671MOL0     H90522   7.908   4.611   6.638  0.2205 -0.2230 -0.3335
  671MOL0     H90523   8.047   4.551   6.727  0.9116  1.3841  1.0496
  671MOL0     H90524   7.927   4.608   6.951  0.2721  1.6203  0.5491
  671MOL0     H90525   7.812   4.677   6.866 -0.1707 -0.6180 -1.8391
  671MOL0     H90526   7.749   4.456   6.745  1.3629 -2.0012 -0.5158
  671MOL0     H90527   7.847   4.384   6.878  1.1652  0.6937 -0.0990
  671MOL0     H90528   7.585   4.554   6.911 -2.3208 -1.1103  1.9808
  671MOL0     H90529   7.600   4.379   6.937 -0.4997 -0.2559 -0.4091
  671MOL0     H90530   7.797   4.463   7.118 -0.6998 -0.6868  4.2916
  671MOL0     H90531   7.711   4.609   7.103 -1.9762 -0.1202 -0.1512
  671MOL0     H90532   7.569   4.526   7.261  0.9491 -0.5124  0.2758
  671MOL0     H90533   7.503   4.428   7.128  1.8216  2.0436 -3.7729
  671MOL0     H90534   7.706   4.372   7.347  2.1374 -0.8839 -0.3294
  671MOL0     H90535   7.704   4.259   7.211 -0.7489  0.8926 -1.2691
  671MOL0     H90536   7.517   4.397   7.506 -0.4799  0.5240  0.5955
  671MOL0     H90537   7.244   4.359   7.597  3.6912  2.1792 -2.5464
  671MOL0     H90538   7.165   4.212   7.534 -0.2438 -1.1519  1.6718
  671MOL0     H90539   7.402   4.203   7.726  0.9495 -3.1447  1.9371
  671MOL0     H90540   7.283   4.072   7.699  1.0379  0.2483 -0.8549
  671MOL0     H90541   7.113   4.206   7.797  0.7671 -0.8243  1.2986
  671MOL0     H90542   7.237   4.330   7.832  1.0569  0.5957 -0.8881
  671MOL0     H90543   7.359   4.170   7.971  0.5315 -0.5519 -0.3947
  671MOL0     H90544   7.228   4.045   7.934  3.8236 -0.1675 -1.9604
  671MOL0     H90545   7.224   4.470   8.086  3.6756  0.1036 -1.6866
  671MOL0     H90546   7.272   4.679   8.281  0.3868  0.1805  0.2473
  671MOL0     H90547   7.440   4.683   8.244  0.9037 -0.2812 -1.5676
  671MOL0     H90548   7.323   4.645   8.114 -1.1089 -1.3018  0.2972
  671MOL0     H90549   7.646   4.817   8.453 -1.3389  2.0052  0.6633
  671MOL0     H90550   7.755   4.944   8.623  1.8232 -0.0778  3.0149
  671MOL0     H90551   7.717   5.072   8.798  0.1387  0.6237  0.2769
  671MOL0     H90552   7.775   5.075   8.967  1.2811  2.3507 -1.0618
  671MOL0     H90553   7.952   4.929   8.762 -0.3383  0.3780 -0.9226
  671MOL0     H90554   7.923   5.095   8.743  0.5893  0.8508  1.1080
  671MOL0     H90555   8.120   5.037   8.864 -1.6628 -0.9118 -2.1950
  671MOL0     H90556   8.030   4.949   8.991  1.3873  0.2065  1.8600
  671MOL0     H90557   7.961   5.247   8.964 -0.2520 -1.1978 -0.4523
  671MOL0     H90558   7.961   5.138   9.104  1.4138 -1.5495  1.5402
  671MOL0     H90559   8.184   5.289   8.977 -4.0189  3.9055  1.3813
  671MOL0     H90560   8.222   5.127   9.056 -1.2062 -0.1342  0.2708
  671MOL0     H90561   8.090   5.225   9.253  0.5202 -1.4447  1.7431
  671MOL0     H90562   8.269   5.253   9.222 -0.8691  0.5074 -1.2466
  671MOL0     H90563   8.027   5.441   9.143 -0.3193  1.2347  1.0974
  671MOL0     H90564   8.203   5.482   9.143  0.3401 -2.3962 -2.9188
  671MOL0     H90565   8.052   5.401   9.387 -3.3088  3.1939  2.2327
  671MOL0     H90566   8.038   5.566   9.331 -0.3452 -0.5226  2.5557
  671MOL0     H90567   7.614   4.675   8.928  0.0812 -0.8493 -0.2907
  671MOL0     H90568   7.498   4.531   8.762  0.3005  0.4521  1.9072
  671MOL0     H90569   7.501   4.215   8.401  0.3165 -0.4428 -0.2034
  671MOL0     H90570   7.344   4.097   8.244 -1.0385 -0.4110  1.4361
  671MOL0     H90571   8.128   4.959   6.623 -0.1351 -3.1563 -0.0958
  671MOL0     H90572   8.305   5.115   6.576 -1.0266 -0.9500 -0.4784
  671MOL0     H90573   8.553   5.547   6.759 -0.9309  0.7980 -4.4118
  671MOL0     H90574   8.765   5.663   6.777 -0.5105 -0.8403  1.2590
  671MOL0     H90575   9.142   5.677   6.687  0.2857 -0.1305 -0.5479
  671MOL0     H90576   8.974   5.726   6.677  0.9374  1.2008  1.3406
  671MOL0     H90577   9.057   5.653   6.946 -1.1906 -0.3879 -1.4112
  671MOL0     H90578   8.938   5.769   6.885 -1.1547 -0.1160 -2.4123
  671MOL0     H90579   9.141   5.919   6.823  0.8742 -0.5533  0.3496
  671MOL0     H90580   9.242   5.788   6.896  0.0380 -1.4006 -1.6572
  671MOL0     H90581   9.066   5.996   7.030  0.7130 -0.0942 -0.6390
  671MOL0     H90582   9.230   5.938   7.074 -1.4804  2.3476  1.5356
  671MOL0     H90583   9.031   5.670   7.310 -0.9400 -0.9367 -0.6182
  671MOL0     H90584   8.963   5.294   6.669  0.2108  0.9326 -0.3487
  671MOL0     H90585   8.749   5.177   6.687 -4.5127  0.1290  1.5647
  672MOL0     O90586   8.516   8.470   1.181 -0.1906 -0.0019 -0.3862
  672MOL0     C90587   8.587   8.469   1.279  0.1879  0.9673  0.5382
  672MOL0     O90588   8.597   8.565   1.372  0.0826  0.1000 -0.7328
  672MOL0     C90589   8.515   8.670   1.370 -0.2896  0.0024 -0.0425
  672MOL0     C90590   8.580   8.795   1.347  0.2239  0.0685  0.1707
  672MOL0     C90591   8.508   8.912   1.323  0.6385  0.2750 -0.6887
  672MOL0     C90592   8.366   8.907   1.355 -0.1238 -0.4468  0.5659
  672MOL0     O90593   8.286   9.028   1.355 -0.7009 -0.1775 -0.8160
  672MOL0     C90594   8.344   9.150   1.304  0.2041  0.4877 -0.5424
  672MOL0     C90595   8.342   9.158   1.148 -1.3008 -0.5867  1.0079
  672MOL0     C90596   8.325   9.304   1.090 -0.6043  0.1131  0.2332
  672MOL0     C90597   8.360   9.297   0.942 -0.2057  0.1748  0.9171
  672MOL0     C90598   8.346   9.436   0.874 -0.7663 -0.7537 -0.0650
  672MOL0     C90599   8.208   9.501   0.910  0.2098 -0.6816  0.1763
  672MOL0     C90600   8.193   9.616   0.812  0.4621  0.4295 -0.6374
  672MOL0     C90601   8.064   9.685   0.848  0.4173  0.4879  0.4022
  672MOL0     N90602   8.036   9.788   0.758  1.5278 -0.1356  0.1791
  672MOL0     C90603   7.989   9.771   0.628 -0.0665 -0.1881  0.0142
  672MOL0     C90604   7.984   9.895   0.571  0.4258 -0.6585 -0.3926
  672MOL0     C90605   7.932   9.944   0.438  0.0909  0.5070 -0.0009
  672MOL0     C90606   8.027  10.019   0.347 -0.0901  0.4040 -0.3392
  672MOL0     C90607   8.051  10.159   0.390  0.5017 -0.1882 -0.0894
  672MOL0     C90608   8.155  10.217   0.300 -1.3925 -0.4320 -0.1086
  672MOL0     O90609   8.187  10.351   0.329 -0.6622 -0.6666  0.3917
  672MOL0     C90610   8.262  10.427   0.243 -0.0309  0.8132 -1.0976
  672MOL0     C90611   8.281  10.562   0.281 -0.6509 -1.4511 -0.0663
  672MOL0     C90612   8.376  10.646   0.223  0.5366 -0.6805  0.0177
  672MOL0     C90613   8.404  10.776   0.289  0.1422  1.0357  0.6707
  672MOL0     C90614   8.447  10.598   0.106 -0.2398 -0.2964  0.0917
  672MOL0     C90615   8.542  10.676   0.028 -0.7451  0.5999 -0.9839
  672MOL0     O90616   8.662  10.614   0.011  0.0457 -0.2660 -0.3921
  672MOL0     C90617   8.751  10.657  -0.087 -0.2167 -0.2700 -0.3749
  672MOL0     C90618   8.725  10.635  -0.222  0.3454 -0.0257  0.6278
  672MOL0     C90619   8.803  10.697  -0.323  0.2069  0.7751  0.0032
  672MOL0     C90620   8.925  10.761  -0.292  0.5373 -0.0922 -0.1622
  672MOL0     O90621   8.996  10.842  -0.378 -0.5098 -0.5238  0.8493
  672MOL0     C90622   8.970  10.833  -0.524 -0.0709  0.1793  0.6522
  672MOL0     C90623   9.053  10.948  -0.591 -0.2697  0.0664  1.2238
  672MOL0     C90624   9.099  10.905  -0.730  0.2030 -0.1258  0.7076
  672MOL0     C90625   9.225  10.972  -0.767 -0.1399  0.0164  1.1776
  672MOL0     C90626   9.266  10.923  -0.912 -0.7328 -0.7245  1.2235
  672MOL0     C90627   9.384  11.001  -0.974 -0.7986  0.2645  0.2920
  672MOL0     C90628   9.415  11.000  -1.125 -0.2896  0.2213  0.8460
  672MOL0     C90629   9.499  11.118  -1.178 -0.1164 -0.1095 -0.7793
  672MOL0    Cl90630   9.651  11.126  -1.079  0.0842  0.0485 -0.1974
  672MOL0     C90631   8.952  10.770  -0.153  1.0539 -0.0565  0.0664
  672MOL0     C90632   8.863  10.722  -0.054 -0.1532  0.7555 -0.0258
  672MOL0     O90633   8.514  10.786  -0.009 -0.0005 -0.0268 -0.2250
  672MOL0     C90634   8.419  10.463   0.059  0.7624 -0.1416  0.2703
  672MOL0     C90635   8.338  10.373   0.130  0.6373 -0.0027 -0.4798
  672MOL0     N90636   8.045   9.980   0.663  0.4525  0.5047  0.9679
  672MOL0     N90637   8.071   9.915   0.778  0.2230  0.9241  0.7212
  672MOL0     C90638   8.309   8.786   1.376  0.4547 -0.6261  0.1904
  672MOL0     C90639   8.374   8.667   1.372  0.1614 -0.0998  0.2650
  672MOL0     C90640   8.679   8.347   1.280 -0.0212 -0.0934  0.1545
  672MOL0     C90641   8.678   8.235   1.182  1.4974 -0.5236 -0.2570
  672MOL0     C90642   8.778   8.147   1.174 -1.9477  0.0181  0.1978
  672MOL0     C90643   8.887   8.150   1.272 -0.1258 -0.5979 -0.4727
  672MOL0     O90644   8.994   8.069   1.275 -0.1814  0.5910  0.0943
  672MOL0     C90645   9.025   7.976   1.155  0.0705 -0.1510 -0.4470
  672MOL0     C90646   9.112   8.043   1.041 -0.1053 -0.3560  0.5464
  672MOL0     C90647   9.103   7.979   0.905 -0.6737  0.3170 -0.8181
  672MOL0     C90648   9.139   7.827   0.913  0.6560 -0.3689  0.0289
  672MOL0     C90649   9.134   7.776   0.780 -1.0762  0.0817  0.7532
  672MOL0     C90650   9.142   7.737   0.662 -0.5918 -0.4518 -0.7773
  672MOL0     C90651   8.881   8.249   1.376 -0.2570  0.3725  0.4330
  672MOL0     C90652   8.783   8.345   1.372 -0.1890 -0.1073 -0.0317
  672MOL0     H90653   8.687   8.808   1.359 -0.0969  4.1814  0.0949
  672MOL0     H90654   8.541   9.011   1.294  1.4223 -0.0925 -1.0972
  672MOL0     H90655   8.290   9.227   1.358  0.5538 -0.7232  1.6606
  672MOL0     H90656   8.441   9.166   1.353 -1.6083 -1.1525  4.0532
  672MOL0     H90657   8.435   9.124   1.101 -2.3176  0.4582 -1.9949
  672MOL0     H90658   8.258   9.091   1.128  0.2451 -2.9272  1.8941
  672MOL0     H90659   8.222   9.331   1.114 -1.0399 -2.2720  1.3291
  672MOL0     H90660   8.391   9.372   1.146  0.7782 -3.1177  2.8465
  672MOL0     H90661   8.462   9.259   0.933 -1.2450 -2.8152  0.7811
  672MOL0     H90662   8.300   9.222   0.889 -1.9045  3.0565 -1.5885
  672MOL0     H90663   8.425   9.500   0.917 -0.3871 -1.4047  0.2201
  672MOL0     H90664   8.372   9.425   0.768  0.2858 -1.1577  0.2141
  672MOL0     H90665   8.121   9.437   0.896 -0.8260  0.8726 -0.8500
  672MOL0     H90666   8.217   9.516   1.018  0.6575 -3.8468  0.6791
  672MOL0     H90667   8.273   9.690   0.817  2.7017 -1.7958 -1.2699
  672MOL0     H90668   8.195   9.570   0.713  2.7990 -0.5597 -0.1837
  672MOL0     H90669   8.073   9.721   0.951 -0.6586 -0.2234  0.7540
  672MOL0     H90670   7.977   9.620   0.852  1.3369 -0.7603  0.6233
  672MOL0     H90671   7.937   9.683   0.591  0.7307 -0.4114 -0.5967
  672MOL0     H90672   7.887   9.854   0.396  0.5127 -0.6546  1.8830
  672MOL0     H90673   7.846  10.006   0.464  0.2320 -0.0715  2.0274
  672MOL0     H90674   7.994  10.023   0.243  2.7649  1.3791 -1.3020
  672MOL0     H90675   8.114   9.954   0.348 -1.2031 -1.1332  0.6733
  672MOL0     H90676   8.082  10.167   0.494  0.9194  0.2766 -0.2450
  672MOL0     H90677   7.968  10.225   0.363  1.1302  0.7999  0.3130
  672MOL0     H90678   8.128  10.199   0.196 -2.2701 -5.4869  0.7231
  672MOL0     H90679   8.249  10.164   0.315 -1.1922 -0.4010 -1.1681
  672MOL0     H90680   8.230  10.598   0.369  3.5480 -0.1380  2.0936
  672MOL0     H90681   8.510  10.790   0.310 -0.1675  2.5048  1.4307
  672MOL0     H90682   8.366  10.862   0.232 -0.9488  1.0324  1.3550
  672MOL0     H90683   8.356  10.779   0.387  3.5067 -0.9649  2.5298
  672MOL0     H90684   8.634  10.586  -0.254  0.3595 -0.1109  0.7221
  672MOL0     H90685   8.760  10.675  -0.420 -3.3825 -5.1696  2.3811
  672MOL0     H90686   8.992  10.733  -0.562  0.0576 -0.1266  1.5110
  672MOL0     H90687   8.863  10.843  -0.543 -0.0496  0.0327  0.4562
  672MOL0     H90688   8.988  11.034  -0.608  1.8128  2.6545  4.9548
  672MOL0     H90689   9.137  10.974  -0.526  2.6782 -2.8367 -1.0810
  672MOL0     H90690   9.030  10.923  -0.813  1.7760 -2.4919 -1.2838
  672MOL0     H90691   9.125  10.798  -0.724 -1.6351 -0.7580 -1.2902
  672MOL0     H90692   9.208  11.080  -0.768 -2.0153 -0.2102 -1.0473
  672MOL0     H90693   9.304  10.941  -0.697 -0.3856 -2.7165  0.3925
  672MOL0     H90694   9.179  10.924  -0.978 -2.0216  0.8552  2.8481
  672MOL0     H90695   9.282  10.815  -0.917 -2.1364 -0.9025 -0.6251
  672MOL0     H90696   9.391  11.105  -0.941  1.4998  0.3862 -0.4305
  672MOL0     H90697   9.465  10.948  -0.923 -0.4965 -2.5713 -2.7686
  672MOL0     H90698   9.325  11.000  -1.187 -0.0469 -0.3618  0.4847
  672MOL0     H90699   9.455  10.904  -1.157 -0.9897  0.1471  0.1706
  672MOL0     H90700   9.438  11.208  -1.169  2.7148  1.8189  0.3108
  672MOL0     H90701   9.516  11.084  -1.281 -2.3629 -2.4275 -0.4958
  672MOL0     H90702   9.044  10.823  -0.128  0.8217  0.1869  0.4212
  672MOL0     H90703   8.882  10.729   0.053  2.8233  3.1032 -0.5751
  672MOL0     H90704   8.476  10.412  -0.017  1.3294 -2.5857  2.1953
  672MOL0     H90705   8.346  10.266   0.114  4.9778 -0.0012  0.5504
  672MOL0     H90706   8.201   8.784   1.381  0.4108  1.6599  2.0223
  672MOL0     H90707   8.314   8.577   1.363  0.3254 -0.6182  3.4499
  672MOL0     H90708   8.614   8.225   1.095  0.8765 -1.8107  0.3235
  672MOL0     H90709   8.775   8.083   1.087  0.8774  0.3140 -0.2191
  672MOL0     H90710   9.058   7.874   1.175 -2.1571 -0.4293  2.4004
  672MOL0     H90711   8.926   7.946   1.119 -0.4835  1.0787  0.0174
  672MOL0     H90712   9.216   8.043   1.076 -0.6062  1.5067  2.2027
  672MOL0     H90713   9.069   8.143   1.031  2.9118  1.0226  0.0308
  672MOL0     H90714   9.187   8.016   0.845  0.5475 -0.9647  0.0135
  672MOL0     H90715   9.009   8.001   0.854 -2.5687  2.3116  3.0794
  672MOL0     H90716   9.064   7.770   0.969  1.9008  0.4536  2.6915
  672MOL0     H90717   9.227   7.804   0.973 -1.6127  0.3434  3.9969
  672MOL0     H90718   9.147   7.710   0.558  0.0382 -0.4778 -0.7442
  672MOL0     H90719   8.957   8.254   1.453 -1.0622  0.5342  1.2293
  672MOL0     H90720   8.781   8.416   1.454  0.7468 -0.4071  0.2566
  673MOL0     O90721   0.926   0.518  11.444  0.8621  0.3864  0.2939
  673MOL0     C90722   0.813   0.518  11.499 -0.1266 -0.6562 -0.1032
  673MOL0     O90723   0.756   0.416  11.569  1.0493  0.7451  0.3354
  673MOL0     C90724   0.831   0.300  11.569 -0.2635  0.0057  0.8985
  673MOL0     C90725   0.872   0.227  11.447  0.2791  0.5253  0.4063
  673MOL0     C90726   0.935   0.106  11.448  0.1354 -0.4008 -0.2409
  673MOL0     C90727   0.992   0.054  11.566  0.8251  0.5059  0.7979
  673MOL0     O90728   1.055  -0.067  11.580 -1.0730  0.2764 -0.5414
  673MOL0     C90729   1.108  -0.131  11.468  0.2061  0.2668 -0.0927
  673MOL0     C90730   1.212  -0.234  11.501 -0.0026  0.5650  0.4908
  673MOL0     C90731   1.319  -0.176  11.581 -0.8247 -0.7162 -0.8713
  673MOL0     C90732   1.402  -0.295  11.630 -0.1973 -0.0407 -0.2441
  673MOL0     C90733   1.508  -0.237  11.719 -0.4024 -0.2393 -0.6234
  673MOL0     C90734   1.596  -0.331  11.802  0.4724  0.4580  0.3550
  673MOL0     C90735   1.524  -0.392  11.923  0.0392 -0.4235  0.1551
  673MOL0     C90736   1.630  -0.438  12.025 -0.1520  0.2840 -0.2642
  673MOL0     N90737   1.571  -0.454  12.164  0.3139 -0.2200 -0.1700
  673MOL0     C90738   1.610  -0.382  12.278 -0.5016 -0.2738  0.2731
  673MOL0     C90739   1.543  -0.431  12.383  0.4109 -0.1046 -0.7118
  673MOL0     C90740   1.545  -0.371  12.521 -0.1971  0.0730  0.4176
  673MOL0     C90741   1.404  -0.357  12.583  0.3520  0.0177  1.0847
  673MOL0     C90742   1.408  -0.396  12.734  0.7024 -0.7454  0.3952
  673MOL0     C90743   1.430  -0.550  12.757 -0.3262  0.3726 -0.0360
  673MOL0     O90744   1.378  -0.643  12.665 -0.1269  0.5017  0.8513
  673MOL0     C90745   1.395  -0.783  12.680 -0.0078  0.3702 -0.0382
  673MOL0     C90746   1.291  -0.864  12.622 -0.7589 -1.3788 -0.0755
  673MOL0     C90747   1.300  -1.001  12.601  0.3269  1.0403 -0.3873
  673MOL0     C90748   1.179  -1.073  12.537  0.5246 -0.1133  0.5468
  673MOL0     C90749   1.420  -1.069  12.644  0.1741 -0.1088  0.8790
  673MOL0     C90750   1.434  -1.208  12.642  0.2036  0.3537  0.8370
  673MOL0     O90751   1.406  -1.264  12.520 -0.0022  0.7952  0.1313
  673MOL0     C90752   1.453  -1.382  12.482  0.8228 -0.3028  1.3354
  673MOL0     C90753   1.587  -1.430  12.506 -0.2414 -0.2073  0.4869
  673MOL0     C90754   1.627  -1.546  12.449  0.4348 -0.1793  0.2793
  673MOL0     C90755   1.545  -1.607  12.350 -0.1342 -0.2170  0.1150
  673MOL0     O90756   1.601  -1.710  12.277  0.8466 -0.2496 -0.2617
  673MOL0     C90757   1.535  -1.798  12.179  0.0982 -0.1449 -0.1705
  673MOL0     C90758   1.638  -1.872  12.104 -0.5882 -0.6417 -0.6434
  673MOL0     C90759   1.591  -2.004  12.028  0.6983 -0.1101  0.1075
  673MOL0     C90760   1.545  -2.122  12.121 -0.7254 -0.3126  0.2066
  673MOL0     C90761   1.620  -2.243  12.079  0.1081 -0.2955  0.4178
  673MOL0     C90762   1.771  -2.220  12.104  1.2514 -0.1018 -0.0324
  673MOL0     C90763   1.851  -2.344  12.104 -0.2376 -0.2037 -0.3447
  673MOL0     C90764   1.885  -2.388  11.962  0.2528  0.0865 -0.1955
  673MOL0    Cl90765   1.739  -2.472  11.882  0.1341  0.1595 -0.3658
  673MOL0     C90766   1.419  -1.560  12.326  0.0741  0.6474  0.2699
  673MOL0     C90767   1.365  -1.458  12.405 -0.7931  0.1965 -1.0613
  673MOL0     O90768   1.486  -1.263  12.740  0.0659  0.5322  0.1408
  673MOL0     C90769   1.516  -0.982  12.708 -0.0835 -0.0876 -0.2970
  673MOL0     C90770   1.511  -0.844  12.719  0.2061  0.1233  0.2159
  673MOL0     N90771   1.468  -0.539  12.334 -0.7290 -0.0358 -0.2517
  673MOL0     N90772   1.491  -0.551  12.204  0.3126 -0.2306 -0.0674
  673MOL0     C90773   0.967   0.128  11.678  0.2869  0.4719  0.6499
  673MOL0     C90774   0.878   0.242  11.684  0.4203 -0.4146 -0.0501
  673MOL0     C90775   0.735   0.644  11.491  0.1718  0.1305 -0.6133
  673MOL0     C90776   0.636   0.681  11.591  0.5672  0.3889 -0.3908
  673MOL0     C90777   0.566   0.805  11.582 -0.1377 -0.2251  0.2629
  673MOL0     C90778   0.590   0.889  11.464  0.8559  0.9276 -0.6672
  673MOL0     O90779   0.517   1.007  11.444  0.2719 -0.8053 -0.0257
  673MOL0     C90780   0.526   1.095  11.563  0.0559  0.8571  0.1493
  673MOL0     C90781   0.430   1.209  11.545 -0.2717 -0.0213 -1.4604
  673MOL0     C90782   0.395   1.294  11.676  0.2891 -0.0252  0.1434
  673MOL0     C90783   0.518   1.380  11.728 -0.7632  0.0537 -0.2671
  673MOL0     C90784   0.630   1.302  11.780 -0.6939  0.1170  0.1228
  673MOL0     C90785   0.731   1.232  11.812 -0.6506 -0.4504  0.7090
  673MOL0     C90786   0.674   0.840  11.368  0.2089 -0.2160 -0.7313
  673MOL0     C90787   0.737   0.727  11.379 -0.7650  0.4843  0.9265
  673MOL0     H90788   0.832   0.269  11.355 -0.2410 -0.2947  0.2446
  673MOL0     H90789   0.932   0.057  11.351  0.6115 -0.9045 -0.0053
  673MOL0     H90790   1.032  -0.159  11.395  0.0314 -3.1663  1.1945
  673MOL0     H90791   1.167  -0.057  11.413 -1.0303  3.0542  2.0678
  673MOL0     H90792   1.155  -0.310  11.555 -1.5742  1.7070  0.4964
  673MOL0     H90793   1.244  -0.276  11.405  0.7228 -0.6907  1.2510
  673MOL0     H90794   1.382  -0.109  11.522 -0.1135 -1.6547 -1.2105
  673MOL0     H90795   1.282  -0.124  11.669  3.8410  0.2511  0.8127
  673MOL0     H90796   1.336  -0.353  11.694 -0.9769 -0.2539 -1.2095
  673MOL0     H90797   1.451  -0.355  11.553  3.6148  1.5334  0.7483
  673MOL0     H90798   1.586  -0.192  11.656  3.2439 -3.7700  0.8613
  673MOL0     H90799   1.475  -0.152  11.780  0.4179  1.1911 -2.0830
  673MOL0     H90800   1.633  -0.416  11.744  0.6938  0.8194 -0.0434
  673MOL0     H90801   1.691  -0.282  11.823  0.7806 -0.5531  1.3676
  673MOL0     H90802   1.465  -0.316  11.975  1.1714  2.4014 -2.4349
  673MOL0     H90803   1.469  -0.475  11.878  3.0868 -1.8842 -1.1797
  673MOL0     H90804   1.705  -0.357  12.028 -2.2308  2.3224 -0.5717
  673MOL0     H90805   1.689  -0.527  12.001  3.5248  1.8018  2.2180
  673MOL0     H90806   1.674  -0.294  12.283 -3.3418  1.9047  0.5484
  673MOL0     H90807   1.599  -0.435  12.591  0.0587  0.0136  0.1722
  673MOL0     H90808   1.593  -0.273  12.518  2.3338 -1.0802  0.3940
  673MOL0     H90809   1.348  -0.428  12.521 -0.5894  2.5721 -1.1618
  673MOL0     H90810   1.371  -0.254  12.570  1.7983  0.2120 -1.6952
  673MOL0     H90811   1.315  -0.364  12.780  1.0986 -0.8517  1.2886
  673MOL0     H90812   1.489  -0.345  12.787  0.3735 -0.7445  0.8970
  673MOL0     H90813   1.369  -0.569  12.846 -0.1477  0.3262  0.0779
  673MOL0     H90814   1.532  -0.580  12.784 -0.7441  0.7132  2.1377
  673MOL0     H90815   1.197  -0.818  12.591  1.4077  2.8579 -1.1947
  673MOL0     H90816   1.095  -1.004  12.542  0.8257  0.3341 -0.3271
  673MOL0     H90817   1.193  -1.090  12.429  1.0020  0.7805  0.4608
  673MOL0     H90818   1.165  -1.167  12.591  4.7067 -1.6681 -0.6879
  673MOL0     H90819   1.647  -1.377  12.580 -1.0702 -0.6624  1.5157
  673MOL0     H90820   1.729  -1.579  12.466  0.9277  0.9458 -0.3473
  673MOL0     H90821   1.467  -1.861  12.237 -0.7066  1.1650  0.3530
  673MOL0     H90822   1.473  -1.738  12.112  0.5634  3.4916  2.3555
  673MOL0     H90823   1.671  -1.804  12.025 -0.2008 -0.3315 -0.2249
  673MOL0     H90824   1.724  -1.906  12.163  1.7402 -5.3052 -5.8162
  673MOL0     H90825   1.663  -2.039  11.953  2.2311 -0.0515  1.5018
  673MOL0     H90826   1.499  -1.973  11.978 -0.8502 -2.2326  1.4554
  673MOL0     H90827   1.578  -2.089  12.220  0.6244  1.6676 -0.8252
  673MOL0     H90828   1.438  -2.138  12.109 -0.9515  1.5031 -0.5674
  673MOL0     H90829   1.594  -2.254  11.974 -0.2170 -1.9636  0.6459
  673MOL0     H90830   1.580  -2.329  12.134  0.1467 -0.6701 -0.1358
  673MOL0     H90831   1.816  -2.148  12.035  0.5163 -0.0675 -0.4911
  673MOL0     H90832   1.782  -2.178  12.204  0.9966 -3.1909  1.3913
  673MOL0     H90833   1.796  -2.426  12.151  1.4151 -0.8772  0.4955
  673MOL0     H90834   1.938  -2.327  12.169  0.3275 -0.7276 -0.9625
  673MOL0     H90835   1.963  -2.465  11.967 -1.5860 -1.9268 -0.8787
  673MOL0     H90836   1.922  -2.307  11.898  1.8438 -1.4182 -1.2685
  673MOL0     H90837   1.366  -1.619  12.252  2.3226  1.1681 -1.8946
  673MOL0     H90838   1.266  -1.415  12.400 -1.3610 -0.1858  3.3913
  673MOL0     H90839   1.597  -1.039  12.753  1.0010  1.1303 -0.6393
  673MOL0     H90840   1.607  -0.796  12.738  0.6244  0.6397 -2.6605
  673MOL0     H90841   1.000   0.097  11.777 -0.5875  0.8464  1.0717
  673MOL0     H90842   0.855   0.289  11.779 -1.0717  1.8780 -1.4413
  673MOL0     H90843   0.612   0.632  11.685 -1.1907 -0.8514 -1.4196
  673MOL0     H90844   0.499   0.844  11.657 -0.0755 -0.8388  0.6484
  673MOL0     H90845   0.512   1.038  11.655  1.4109 -2.2651 -1.4238
  673MOL0     H90846   0.615   1.159  11.560  0.6788  0.0314 -2.5809
  673MOL0     H90847   0.342   1.167  11.496  0.0469  0.2120 -2.2380
  673MOL0     H90848   0.470   1.279  11.472  0.9225 -0.1610 -0.9699
  673MOL0     H90849   0.352   1.228  11.752  2.3194 -2.0934 -0.4091
  673MOL0     H90850   0.321   1.371  11.651 -1.3975 -1.4667  0.4245
  673MOL0     H90851   0.484   1.446  11.808 -2.0172 -1.5680  0.5962
  673MOL0     H90852   0.550   1.438  11.641  3.7168 -0.2560  0.9322
  673MOL0     H90853   0.824   1.177  11.811 -0.0706  0.4417 -1.7446
  673MOL0     H90854   0.691   0.898  11.278 -0.7431 -0.1734 -0.8876
  673MOL0     H90855   0.802   0.710  11.294 -4.1858 -0.8873 -1.6780
  674MOL0     O90856   6.170   1.012   6.426 -0.5613 -0.6574  0.1870
  674MOL0     C90857   6.067   1.017   6.357 -0.6250  0.6536  0.4707
  674MOL0     O90858   5.936   0.999   6.389 -0.2854  0.3234 -0.5854
  674MOL0     C90859   5.894   0.937   6.511 -2.0507  0.4715  0.9223
  674MOL0     C90860   5.973   0.864   6.602  0.9488 -0.7983  0.8798
  674MOL0     C90861   5.920   0.803   6.717 -0.3461 -0.8155  0.1015
  674MOL0     C90862   5.791   0.822   6.743 -0.3614 -0.6554 -0.4435
  674MOL0     O90863   5.734   0.757   6.857  0.1335  0.0690  0.6614
  674MOL0     C90864   5.612   0.800   6.907 -0.2334 -0.6648  0.0176
  674MOL0     C90865   5.489   0.729   6.848 -0.1463  0.7248  0.5552
  674MOL0     C90866   5.475   0.586   6.899  0.2774  1.3027  0.8256
  674MOL0     C90867   5.447   0.565   7.052 -0.1036  0.0266  0.1694
  674MOL0     C90868   5.401   0.417   7.103  0.4295 -0.2120  0.3611
  674MOL0     C90869   5.386   0.414   7.258 -0.6274 -0.5428 -0.5094
  674MOL0     C90870   5.269   0.482   7.326 -0.7730 -0.7516 -0.7705
  674MOL0     C90871   5.259   0.467   7.477 -0.4099  0.5640 -0.9080
  674MOL0     N90872   5.253   0.332   7.533 -0.2071 -0.2617 -0.3674
  674MOL0     C90873   5.361   0.255   7.560 -0.0337  0.6468  0.3185
  674MOL0     C90874   5.308   0.137   7.608  0.5821  0.8044  0.2061
  674MOL0     C90875   5.393   0.014   7.627 -0.2969  1.1740 -0.0350
  674MOL0     C90876   5.353  -0.100   7.529  1.1507 -0.4913 -0.6751
  674MOL0     C90877   5.436  -0.220   7.546 -0.6765 -0.1224 -0.1038
  674MOL0     C90878   5.390  -0.351   7.471  0.2954 -0.2417 -0.2030
  674MOL0     O90879   5.408  -0.353   7.331  0.2108  0.6791  0.1138
  674MOL0     C90880   5.360  -0.467   7.262  0.9103  0.0128 -0.5559
  674MOL0     C90881   5.308  -0.593   7.312 -0.9884 -0.5501 -0.6000
  674MOL0     C90882   5.236  -0.679   7.235 -0.3096 -0.7219  0.9605
  674MOL0     C90883   5.161  -0.788   7.301  0.0647  0.6834 -0.5759
  674MOL0     C90884   5.220  -0.659   7.100 -0.7960  0.1791  0.2077
  674MOL0     C90885   5.173  -0.769   7.005  0.1163 -0.2547 -0.1160
  674MOL0     O90886   5.092  -0.724   6.893  0.1103 -0.0440 -0.3193
  674MOL0     C90887   5.060  -0.816   6.799  0.3203  0.5972  0.1955
  674MOL0     C90888   4.947  -0.909   6.809 -0.6028 -0.2590 -0.5309
  674MOL0     C90889   4.925  -0.986   6.697  0.9049 -0.3009  0.3714
  674MOL0     C90890   5.000  -0.975   6.576 -1.1922  1.6228 -0.3156
  674MOL0     O90891   4.976  -1.062   6.474 -0.4742  0.5069 -0.1284
  674MOL0     C90892   5.024  -1.038   6.342  0.4646  0.2531  0.5409
  674MOL0     C90893   4.960  -1.109   6.221  0.2001  0.2736  0.1441
  674MOL0     C90894   5.071  -1.164   6.115  0.1259 -0.8193  0.1484
  674MOL0     C90895   5.015  -1.275   6.022  0.1062 -0.3394  0.5072
  674MOL0     C90896   5.129  -1.331   5.942 -0.5240  1.5226  0.6892
  674MOL0     C90897   5.082  -1.463   5.868  0.8706 -0.5782  0.3620
  674MOL0     C90898   5.190  -1.507   5.768 -0.4438  0.1659 -0.0604
  674MOL0     C90899   5.190  -1.665   5.724  0.2060 -0.8777  0.0118
  674MOL0    Cl90900   5.359  -1.717   5.715  0.0084  0.0841  0.0716
  674MOL0     C90901   5.099  -0.884   6.570 -0.9452  0.5234  0.0127
  674MOL0     C90902   5.128  -0.808   6.679  0.0305  0.6970 -0.7737
  674MOL0     O90903   5.219  -0.884   7.021  0.5987 -0.1665 -0.4684
  674MOL0     C90904   5.272  -0.540   7.050 -0.7369 -0.1728  0.1480
  674MOL0     C90905   5.334  -0.443   7.131 -0.1001 -0.4357  0.4621
  674MOL0     N90906   5.168   0.149   7.612 -0.3894 -0.3411 -0.4231
  674MOL0     N90907   5.142   0.270   7.576 -1.0724 -0.3199 -0.3084
  674MOL0     C90908   5.706   0.890   6.663  0.3167 -0.5778  0.1856
  674MOL0     C90909   5.764   0.955   6.544  0.7768  0.1801 -0.3553
  674MOL0     C90910   6.092   1.060   6.211  0.3174 -0.0632  0.3356
  674MOL0     C90911   6.203   1.140   6.181 -0.3034  1.0059  0.0038
  674MOL0     C90912   6.230   1.180   6.045 -0.0761 -0.6994 -0.7415
  674MOL0     C90913   6.144   1.149   5.938 -0.0722  0.0826 -0.5013
  674MOL0     O90914   6.184   1.187   5.813 -0.1464  0.0326 -1.1599
  674MOL0     C90915   6.086   1.226   5.720 -0.2776 -0.7457  0.2373
  674MOL0     C90916   6.073   1.387   5.721 -0.5961  1.0611  1.2337
  674MOL0     C90917   6.202   1.452   5.664  0.2746  0.7577 -1.0904
  674MOL0     C90918   6.293   1.520   5.770 -0.5129 -1.0117 -0.7856
  674MOL0     C90919   6.436   1.510   5.720  0.0820 -0.8764 -0.2859
  674MOL0     C90920   6.549   1.483   5.682 -0.6652 -0.8061 -0.0514
  674MOL0     C90921   6.028   1.071   5.965 -0.4460 -1.0703 -0.5077
  674MOL0     C90922   6.012   1.021   6.100  0.0209  1.0968  0.6791
  674MOL0     H90923   6.081   0.862   6.591  0.7025 -2.8123 -2.1179
  674MOL0     H90924   5.980   0.747   6.787  1.3736 -0.2927 -0.8899
  674MOL0     H90925   5.617   0.773   7.013  1.0581 -0.4913  0.0226
  674MOL0     H90926   5.596   0.908   6.897 -0.4920 -0.5722  1.3325
  674MOL0     H90927   5.400   0.791   6.864  0.3720  0.9976  2.6049
  674MOL0     H90928   5.496   0.727   6.739 -0.6514 -1.3006  0.5307
  674MOL0     H90929   5.399   0.528   6.846  2.2354  0.2473 -1.0025
  674MOL0     H90930   5.569   0.534   6.878 -0.4913  0.0140  0.4041
  674MOL0     H90931   5.536   0.597   7.108  0.9652 -1.3646 -0.6488
  674MOL0     H90932   5.363   0.633   7.064  0.2054  0.7617 -1.5972
  674MOL0     H90933   5.302   0.397   7.062 -0.5127  2.8131  0.8831
  674MOL0     H90934   5.479   0.350   7.067 -0.0214  0.1472 -1.3399
  674MOL0     H90935   5.379   0.307   7.279 -1.5194  0.0377  2.5467
  674MOL0     H90936   5.479   0.460   7.293 -0.9781  1.6092 -2.1278
  674MOL0     H90937   5.264   0.590   7.306 -2.0341 -1.1719 -2.9562
  674MOL0     H90938   5.181   0.440   7.278 -2.5180  3.6941 -1.9835
  674MOL0     H90939   5.166   0.507   7.519 -1.4469 -2.6406  0.0731
  674MOL0     H90940   5.347   0.519   7.517  0.8737 -1.6757 -0.6645
  674MOL0     H90941   5.466   0.277   7.543 -0.1091  0.4124 -0.5136
  674MOL0     H90942   5.498   0.038   7.611 -0.6977  2.0627 -1.4508
  674MOL0     H90943   5.363  -0.025   7.725 -1.3498  0.6083 -0.5649
  674MOL0     H90944   5.363  -0.050   7.432  1.4343 -0.8009 -0.8073
  674MOL0     H90945   5.252  -0.129   7.559  1.5723 -3.4769 -1.7552
  674MOL0     H90946   5.438  -0.244   7.653 -1.4570 -0.2630 -0.1158
  674MOL0     H90947   5.539  -0.200   7.516 -0.5855  1.4038  1.1110
  674MOL0     H90948   5.282  -0.360   7.486  0.2026  0.4587 -0.4047
  674MOL0     H90949   5.437  -0.432   7.528 -1.6612  0.8195  3.2549
  674MOL0     H90950   5.310  -0.620   7.417 -0.7655 -1.1075 -0.7465
  674MOL0     H90951   5.060  -0.795   7.260 -0.0825 -0.8882 -0.0109
  674MOL0     H90952   5.203  -0.889   7.301 -2.1706 -0.4635  3.5310
  674MOL0     H90953   5.144  -0.773   7.408  2.0680 -0.7125  0.0047
  674MOL0     H90954   4.893  -0.910   6.903  1.7375  3.3428  1.0686
  674MOL0     H90955   4.849  -1.062   6.686 -0.4428  1.1824 -1.0887
  674MOL0     H90956   5.034  -0.932   6.319  0.3944  0.4582  1.4266
  674MOL0     H90957   5.128  -1.072   6.344  0.3870 -0.0266  0.0791
  674MOL0     H90958   4.900  -1.184   6.275  3.9545 -2.4610  0.8910
  674MOL0     H90959   4.897  -1.033   6.174  0.7940  0.6757 -0.0054
  674MOL0     H90960   5.155  -1.212   6.165  0.5079 -0.7113 -0.3773
  674MOL0     H90961   5.108  -1.075   6.063 -2.0500  0.8829  1.3354
  674MOL0     H90962   4.972  -1.349   6.090  2.3506  1.0085  3.6266
  674MOL0     H90963   4.933  -1.232   5.964  1.1401  3.6298  1.6763
  674MOL0     H90964   5.211  -1.362   6.008  0.1715  0.1700 -0.7521
  674MOL0     H90965   5.175  -1.253   5.882  0.0397 -0.5860 -1.8031
  674MOL0     H90966   5.069  -1.539   5.947 -3.0911 -2.5492 -1.8907
  674MOL0     H90967   4.991  -1.450   5.810  1.1504 -3.6919 -0.9768
  674MOL0     H90968   5.283  -1.497   5.826  0.5073 -0.2860 -1.4589
  674MOL0     H90969   5.204  -1.432   5.690 -4.3029  1.2936  0.1384
  674MOL0     H90970   5.143  -1.661   5.625 -4.4623  1.1164  2.0058
  674MOL0     H90971   5.145  -1.733   5.797  2.6057 -1.4665  1.0422
  674MOL0     H90972   5.149  -0.866   6.475 -4.0877  1.7097 -1.5615
  674MOL0     H90973   5.216  -0.745   6.687 -0.3616  1.1291  0.5016
  674MOL0     H90974   5.272  -0.529   6.942 -0.9811 -2.2310 -0.0958
  674MOL0     H90975   5.363  -0.350   7.084 -2.3005 -1.3011 -2.9993
  674MOL0     H90976   5.602   0.910   6.686  0.3371 -1.7137  1.3793
  674MOL0     H90977   5.703   1.002   6.468  0.4611 -2.4940 -1.8905
  674MOL0     H90978   6.286   1.165   6.245 -0.3350  1.3053 -0.0707
  674MOL0     H90979   6.315   1.245   6.031 -2.0514  2.0898 -0.7019
  674MOL0     H90980   6.115   1.183   5.623 -0.3179 -1.6785  0.6253
  674MOL0     H90981   5.989   1.186   5.754  0.0603 -0.4876  1.5689
  674MOL0     H90982   6.047   1.418   5.823  2.0994  0.8318  2.0815
  674MOL0     H90983   5.988   1.409   5.656 -0.8359  1.3886  1.6502
  674MOL0     H90984   6.174   1.531   5.594 -0.8603 -0.3763 -1.9887
  674MOL0     H90985   6.263   1.382   5.605  3.6407  2.5430  0.0312
  674MOL0     H90986   6.270   1.482   5.870 -1.7380  2.7607  0.5512
  674MOL0     H90987   6.258   1.623   5.781 -1.6713 -1.6202  1.8768
  674MOL0     H90988   6.646   1.472   5.638 -0.5446  1.3915 -0.4694
  674MOL0     H90989   5.964   1.018   5.895 -1.7998  1.4555 -1.3077
  674MOL0     H90990   5.938   0.943   6.119  1.0650  0.1448  0.9505
  675MOL0     O90991   8.395   3.572   3.105 -0.2411  0.2342  0.1280
  675MOL0     C90992   8.325   3.674   3.092  0.2501 -0.0032 -0.7674
  675MOL0     O90993   8.273   3.753   3.193  0.1656 -0.4489 -0.2258
  675MOL0     C90994   8.285   3.724   3.326 -0.2580  0.2423  0.0545
  675MOL0     C90995   8.306   3.831   3.414  0.3118 -0.3612  0.2374
  675MOL0     C90996   8.313   3.808   3.546 -0.2293  0.1317 -0.7058
  675MOL0     C90997   8.315   3.674   3.594 -0.0167 -0.2412  0.9040
  675MOL0     O90998   8.318   3.645   3.733  0.3369 -0.2646 -0.0328
  675MOL0     C90999   8.370   3.736   3.830  0.8847  0.7023 -0.6166
  675MOL0     C91000   8.349   3.670   3.966 -0.4741  0.3016 -0.2616
  675MOL0     C91001   8.323   3.777   4.073  0.4035 -0.1525 -0.2561
  675MOL0     C91002   8.302   3.716   4.206  0.5508 -0.3664 -0.1727
  675MOL0     C91003   8.233   3.812   4.301 -0.2791 -0.3133  0.3145
  675MOL0     C91004   8.217   3.745   4.434 -1.0626 -0.7064  0.7708
  675MOL0     C91005   8.155   3.839   4.539 -0.4395 -0.2902 -0.0481
  675MOL0     C91006   8.196   3.801   4.688  0.3918 -0.4436  0.4327
  675MOL0     N91007   8.333   3.805   4.738  0.7464 -0.6918  0.5007
  675MOL0     C91008   8.394   3.721   4.824 -0.0120 -0.1489  0.3712
  675MOL0     C91009   8.513   3.781   4.845  0.0110 -0.2896  0.7020
  675MOL0     C91010   8.614   3.727   4.949 -0.1321 -0.2180  0.5254
  675MOL0     C91011   8.654   3.585   4.910 -0.1304 -0.3781  0.3512
  675MOL0     C91012   8.786   3.526   4.974  0.2079 -0.3817  0.4016
  675MOL0     C91013   8.810   3.387   4.928 -0.0416 -0.3231  0.2208
  675MOL0     O91014   8.697   3.295   4.944  0.2893  0.5181 -0.1971
  675MOL0     C91015   8.701   3.240   5.071  1.0126 -0.6295  0.0927
  675MOL0     C91016   8.803   3.145   5.088  0.1028 -0.4656  0.3095
  675MOL0     C91017   8.819   3.067   5.206 -1.2942 -0.4246 -0.0384
  675MOL0     C91018   8.922   2.956   5.197 -0.7909  0.0494  1.1076
  675MOL0     C91019   8.741   3.111   5.317  0.1227 -0.0650 -0.2466
  675MOL0     C91020   8.749   3.039   5.452 -0.5254 -0.6296  0.2615
  675MOL0     O91021   8.686   3.110   5.555  0.2060 -0.1392 -0.4735
  675MOL0     C91022   8.718   3.087   5.688 -0.0790 -0.0316 -0.0306
  675MOL0     C91023   8.662   3.170   5.785  0.8557 -0.2205  0.3213
  675MOL0     C91024   8.678   3.150   5.917  0.2211  0.0370 -0.3124
  675MOL0     C91025   8.747   3.040   5.964 -0.0143  0.4557 -0.5746
  675MOL0     O91026   8.764   3.009   6.097 -0.2351 -0.2656 -0.7583
  675MOL0     C91027   8.654   3.019   6.188  0.1970 -1.0456  0.6584
  675MOL0     C91028   8.700   2.965   6.323 -0.3275 -0.0257 -0.0115
  675MOL0     C91029   8.812   3.044   6.398 -0.2118 -1.5033 -0.1225
  675MOL0     C91030   8.894   2.958   6.492  0.3009 -0.0997 -1.7547
  675MOL0     C91031   9.014   2.886   6.442  0.2893  0.2588  0.1629
  675MOL0     C91032   9.074   2.794   6.546 -0.8687  0.0612  0.2831
  675MOL0     C91033   9.186   2.720   6.494 -0.4654 -1.0236 -0.4836
  675MOL0     C91034   9.148   2.598   6.410  0.7814  1.0836  0.3965
  675MOL0    Cl91035   9.079   2.457   6.498  0.1787 -0.1888 -0.0502
  675MOL0     C91036   8.820   2.968   5.874 -0.1576  0.2252  0.2437
  675MOL0     C91037   8.808   2.990   5.736 -0.5985  0.6380 -1.4170
  675MOL0     O91038   8.772   2.922   5.457 -0.1303 -0.3854  0.5322
  675MOL0     C91039   8.653   3.222   5.298 -0.0541  0.4394 -0.2599
  675MOL0     C91040   8.621   3.282   5.179 -0.2320 -0.9291 -0.1400
  675MOL0     N91041   8.527   3.888   4.770 -0.7627  0.2271  0.4703
  675MOL0     N91042   8.417   3.901   4.700 -0.0331 -0.7280 -0.6178
  675MOL0     C91043   8.301   3.563   3.503 -0.2636 -1.2763 -0.9538
  675MOL0     C91044   8.283   3.594   3.371  0.5035  0.5798  0.3749
  675MOL0     C91045   8.292   3.723   2.957 -0.5693 -0.4179 -0.1465
  675MOL0     C91046   8.225   3.849   2.943  0.2992 -0.5140  0.0958
  675MOL0     C91047   8.182   3.889   2.813 -1.1963 -0.1492 -0.5497
  675MOL0     C91048   8.204   3.809   2.699  0.8226 -0.5762 -0.4317
  675MOL0     O91049   8.162   3.864   2.581  1.1233  0.1684  0.4972
  675MOL0     C91050   8.217   3.835   2.454 -0.3551 -0.2440 -0.2818
  675MOL0     C91051   8.164   3.928   2.345 -0.1056 -0.0960  0.4683
  675MOL0     C91052   8.167   4.076   2.405 -0.1872  0.2861  0.1258
  675MOL0     C91053   8.142   4.183   2.293  0.8561 -0.4590 -0.1249
  675MOL0     C91054   8.004   4.197   2.261 -0.4531  0.2545  1.3219
  675MOL0     C91055   7.885   4.208   2.230 -0.1623  0.1146  0.3884
  675MOL0     C91056   8.270   3.683   2.714  0.2116  0.6344 -0.7508
  675MOL0     C91057   8.324   3.649   2.843 -0.0816 -0.1762 -0.3218
  675MOL0     H91058   8.308   3.930   3.372 -3.3432  0.2285  1.1389
  675MOL0     H91059   8.321   3.885   3.622 -0.7636 -3.3109  3.2076
  675MOL0     H91060   8.476   3.754   3.811  1.5166 -1.3112  0.7035
  675MOL0     H91061   8.309   3.827   3.828 -2.1399 -1.1571 -3.2197
  675MOL0     H91062   8.262   3.605   3.950 -1.8868  2.4603 -1.9010
  675MOL0     H91063   8.444   3.618   3.982 -0.7496 -1.4968 -3.5398
  675MOL0     H91064   8.388   3.864   4.079 -2.7694  2.3195  2.2968
  675MOL0     H91065   8.230   3.820   4.035 -0.9052 -1.7169  1.0157
  675MOL0     H91066   8.246   3.622   4.195 -0.6810  0.0844  1.7787
  675MOL0     H91067   8.397   3.688   4.253  0.1965  0.3397  0.9986
  675MOL0     H91068   8.298   3.899   4.308 -1.1750  0.6446 -2.0985
  675MOL0     H91069   8.140   3.835   4.248  1.4413  0.1211 -2.7895
  675MOL0     H91070   8.164   3.650   4.419  0.4102 -0.9447 -5.6773
  675MOL0     H91071   8.320   3.723   4.466  0.4773  0.3747 -2.9670
  675MOL0     H91072   8.168   3.945   4.515 -2.5127  0.4326  1.6964
  675MOL0     H91073   8.046   3.829   4.542 -0.7688  2.4540 -0.9189
  675MOL0     H91074   8.171   3.695   4.702 -1.2859 -0.0989  0.3213
  675MOL0     H91075   8.142   3.867   4.757  2.4749  0.6446  1.0877
  675MOL0     H91076   8.351   3.633   4.870 -1.2251 -0.7451 -1.7622
  675MOL0     H91077   8.703   3.790   4.941 -1.9696  2.5046  0.3157
  675MOL0     H91078   8.579   3.726   5.053  0.7916 -3.7816  0.9391
  675MOL0     H91079   8.671   3.585   4.802  1.4385  0.6975  0.5656
  675MOL0     H91080   8.569   3.520   4.935  1.4777 -2.2730  1.1197
  675MOL0     H91081   8.775   3.528   5.082 -0.9550  0.8235  0.2863
  675MOL0     H91082   8.873   3.586   4.947 -1.0845  0.7942 -1.4190
  675MOL0     H91083   8.904   3.361   4.977  0.5821  2.3666  0.6193
  675MOL0     H91084   8.840   3.398   4.823 -0.6534  0.8555  0.1456
  675MOL0     H91085   8.861   3.113   5.002  4.5843  1.8758  2.1648
  675MOL0     H91086   8.914   2.885   5.115 -0.3953 -1.3605  2.2502
  675MOL0     H91087   9.022   3.000   5.197  0.6216 -2.8531 -0.6252
  675MOL0     H91088   8.925   2.894   5.287  2.3613 -0.6877  0.6143
  675MOL0     H91089   8.604   3.259   5.766  1.3678  0.0363 -0.0919
  675MOL0     H91090   8.622   3.218   5.981 -2.2910 -0.1652 -2.1606
  675MOL0     H91091   8.609   3.118   6.188  1.5806 -0.3776 -0.1878
  675MOL0     H91092   8.572   2.960   6.147  0.9286 -1.3996 -0.3322
  675MOL0     H91093   8.616   2.963   6.393 -0.3074  2.3847  0.1992
  675MOL0     H91094   8.744   2.866   6.317 -0.9297 -0.3244  0.4096
  675MOL0     H91095   8.770   3.131   6.449  1.7484  0.2492 -1.3465
  675MOL0     H91096   8.863   3.086   6.311 -3.0108  2.3549 -0.1522
  675MOL0     H91097   8.935   3.026   6.566  2.2914 -2.0281 -0.9686
  675MOL0     H91098   8.834   2.893   6.556 -0.2266  1.0986 -1.0056
  675MOL0     H91099   9.067   2.969   6.395 -2.3373 -0.0594 -3.9233
  675MOL0     H91100   8.984   2.825   6.356  1.5480 -1.1632  0.6909
  675MOL0     H91101   9.100   2.854   6.634 -0.9568 -2.6268  2.2907
  675MOL0     H91102   8.993   2.726   6.577 -0.5116 -2.4025 -3.5680
  675MOL0     H91103   9.249   2.686   6.577  1.9086  0.4630 -1.5774
  675MOL0     H91104   9.244   2.792   6.436 -0.2829 -0.9515 -0.2117
  675MOL0     H91105   9.231   2.561   6.349 -0.9976 -2.7254  0.0057
  675MOL0     H91106   9.073   2.633   6.338  1.5836  1.4555 -0.2723
  675MOL0     H91107   8.876   2.895   5.931 -1.6560  0.3250  1.9466
  675MOL0     H91108   8.866   2.919   5.678  0.6253 -0.2625  0.7556
  675MOL0     H91109   8.603   3.259   5.386  0.6106  1.2136 -0.2008
  675MOL0     H91110   8.545   3.359   5.174 -1.2242 -1.8239  0.6475
  675MOL0     H91111   8.267   3.468   3.542 -2.4148 -1.8529 -3.8380
  675MOL0     H91112   8.258   3.508   3.310  3.0688 -1.2817  1.7694
  675MOL0     H91113   8.193   3.912   3.025  0.1553  1.0506 -1.0916
  675MOL0     H91114   8.132   3.985   2.809 -1.5083 -0.3479 -1.8386
  675MOL0     H91115   8.326   3.843   2.464 -0.6741  2.8890  2.2777
  675MOL0     H91116   8.195   3.731   2.424 -1.5513 -0.3520  0.8688
  675MOL0     H91117   8.068   3.886   2.316  1.0767 -0.8300 -2.7395
  675MOL0     H91118   8.227   3.927   2.256 -1.2679  1.8309 -0.4362
  675MOL0     H91119   8.267   4.085   2.449 -0.8874  1.1423  1.6209
  675MOL0     H91120   8.090   4.079   2.483 -0.4465  1.5317 -0.1433
  675MOL0     H91121   8.184   4.146   2.199 -0.9226  1.3899 -1.7319
  675MOL0     H91122   8.183   4.283   2.314 -1.4526  0.1506  2.0005
  675MOL0     H91123   7.783   4.212   2.198 -0.8669  0.1740  2.4867
  675MOL0     H91124   8.285   3.606   2.640  1.5622 -0.2195  0.3493
  675MOL0     H91125   8.364   3.549   2.847  3.2714  0.9275 -2.1447
  676MOL0     O91126   0.319   3.289  10.415  0.3542 -0.4950  0.7701
  676MOL0     C91127   0.214   3.230  10.410  0.0714 -0.5869  0.6172
  676MOL0     O91128   0.190   3.098  10.386 -0.8957  0.3135  0.9248
  676MOL0     C91129   0.293   3.023  10.335  0.6116 -0.2831 -0.1443
  676MOL0     C91130   0.402   3.081  10.265  0.4755 -0.1916 -0.3753
  676MOL0     C91131   0.499   2.995  10.217 -0.1152  0.3225  0.7953
  676MOL0     C91132   0.516   2.855  10.244 -0.5671  0.0778  0.3885
  676MOL0     O91133   0.630   2.794  10.197  0.6458 -0.1619  0.6798
  676MOL0     C91134   0.618   2.737  10.065 -0.2433 -0.1660 -0.7202
  676MOL0     C91135   0.750   2.715   9.992  0.3263  0.9401 -0.6035
  676MOL0     C91136   0.792   2.853   9.943 -0.4229 -0.1030  0.1018
  676MOL0     C91137   0.937   2.858   9.917  0.2879 -0.0224 -0.2192
  676MOL0     C91138   0.976   2.933   9.793  0.0375  0.3616  0.5220
  676MOL0     C91139   0.919   3.073   9.773  0.0962  0.1949  0.8891
  676MOL0     C91140   0.975   3.129   9.644  0.2956  1.0619  0.3985
  676MOL0     C91141   0.919   3.264   9.598  0.0484  0.2399 -0.1068
  676MOL0     N91142   0.779   3.273   9.557  0.4076 -0.2800  0.8798
  676MOL0     C91143   0.721   3.377   9.484 -0.7751  0.3505 -0.3537
  676MOL0     C91144   0.592   3.343   9.465  0.1823  1.0624 -0.4452
  676MOL0     C91145   0.486   3.424   9.389  0.1898  0.2604  0.5732
  676MOL0     C91146   0.401   3.499   9.489  0.5606  0.4352 -0.8265
  676MOL0     C91147   0.269   3.551   9.438 -0.4572 -0.9447 -0.2592
  676MOL0     C91148   0.297   3.671   9.337 -0.1974  0.0840  0.0861
  676MOL0     O91149   0.168   3.708   9.309  0.3917 -0.4299 -0.2689
  676MOL0     C91150   0.153   3.821   9.235 -1.0312 -0.7681  0.5152
  676MOL0     C91151   0.257   3.895   9.174 -0.3808  0.4991 -0.8520
  676MOL0     C91152   0.248   4.008   9.114  0.8540  0.3357  1.0150
  676MOL0     C91153   0.369   4.059   9.045  0.2271  0.0783  0.0626
  676MOL0     C91154   0.111   4.063   9.111 -0.6333 -0.1734 -0.0557
  676MOL0     C91155   0.092   4.182   9.033  0.3045 -0.7042  0.7071
  676MOL0     O91156   0.070   4.304   9.090 -0.2193 -0.0803  0.1727
  676MOL0     C91157   0.068   4.411   9.008 -0.4746  0.0748 -0.6184
  676MOL0     C91158  -0.045   4.441   8.939  0.8997 -0.2983  0.2750
  676MOL0     C91159  -0.054   4.546   8.842 -0.1509  1.0242 -0.0294
  676MOL0     C91160   0.057   4.624   8.817  0.7277 -0.1949  0.0000
  676MOL0     O91161   0.066   4.745   8.753  0.1437 -0.5936  0.2628
  676MOL0     C91162  -0.028   4.851   8.801 -0.1335 -0.6856 -0.4546
  676MOL0     C91163   0.027   4.988   8.755  0.8673 -0.5533  0.0424
  676MOL0     C91164  -0.095   5.083   8.709 -0.9744  0.3965  0.4776
  676MOL0     C91165  -0.071   5.234   8.684 -0.2623  0.4933 -0.6030
  676MOL0     C91166  -0.041   5.256   8.536 -0.7378 -1.0105  0.5544
  676MOL0     C91167  -0.045   5.407   8.495 -0.1962  0.1126 -0.6604
  676MOL0     C91168  -0.051   5.432   8.342  0.2366 -0.2880 -0.0098
  676MOL0     C91169  -0.172   5.381   8.270 -0.1866 -0.4381  0.5448
  676MOL0    Cl91170  -0.143   5.423   8.099 -0.2063  0.1224  0.0040
  676MOL0     C91171   0.173   4.600   8.899 -0.3430  0.6352  0.2144
  676MOL0     C91172   0.179   4.494   8.987  0.2707  0.3606  0.4526
  676MOL0     O91173   0.119   4.166   8.912  0.4836 -0.9208 -0.1283
  676MOL0     C91174  -0.001   3.993   9.162 -0.0922 -0.2555  0.4133
  676MOL0     C91175   0.018   3.871   9.217  0.7052 -0.7085 -0.7164
  676MOL0     N91176   0.579   3.218   9.522  0.3526 -0.3049  0.3719
  676MOL0     N91177   0.684   3.183   9.579 -0.5940  0.6684  0.3535
  676MOL0     C91178   0.423   2.801  10.319  0.3843  0.0918  0.2174
  676MOL0     C91179   0.319   2.888  10.368  0.5865  0.3239 -0.3049
  676MOL0     C91180   0.104   3.305  10.459  1.0820 -0.2105 -0.0744
  676MOL0     C91181  -0.022   3.239  10.502 -0.0268 -0.7365 -0.1018
  676MOL0     C91182  -0.136   3.305  10.530  0.1984 -0.2788  0.5227
  676MOL0     C91183  -0.125   3.449  10.530  0.5250 -0.0845 -0.3101
  676MOL0     O91184  -0.238   3.520  10.561 -0.1899 -0.4640 -0.8066
  676MOL0     C91185  -0.343   3.457  10.644  1.0687  0.5313  0.1505
  676MOL0     C91186  -0.438   3.558  10.701  0.4189 -0.4496 -0.2604
  676MOL0     C91187  -0.558   3.511  10.779 -0.9181  1.0899 -1.1102
  676MOL0     C91188  -0.654   3.631  10.818 -0.5073  0.1189 -0.2707
  676MOL0     C91189  -0.597   3.687  10.945 -0.0286 -0.7136  0.3381
  676MOL0     C91190  -0.566   3.749  11.044  0.1113 -0.1452  0.4664
  676MOL0     C91191  -0.003   3.516  10.495  0.0113 -0.7244  0.6341
  676MOL0     C91192   0.106   3.443  10.459  0.9135 -0.3375  0.1968
  676MOL0     H91193   0.409   3.187  10.244 -1.3320 -0.1708 -1.0071
  676MOL0     H91194   0.584   3.042  10.168  2.8296 -2.6066  2.6704
  676MOL0     H91195   0.561   2.647  10.089 -2.2192  1.7106  2.1754
  676MOL0     H91196   0.568   2.798   9.989  2.4981 -0.7881 -3.2169
  676MOL0     H91197   0.811   2.690  10.079 -2.9493 -0.2779  1.5589
  676MOL0     H91198   0.734   2.642   9.913 -1.8649  0.4085  0.2511
  676MOL0     H91199   0.741   2.878   9.849 -2.0903  1.1275  1.2842
  676MOL0     H91200   0.772   2.929  10.019  0.2605  2.5719 -2.2000
  676MOL0     H91201   0.998   2.874  10.007 -0.5488 -4.0902  1.2869
  676MOL0     H91202   0.954   2.757   9.878 -3.7235 -0.4519 -1.2626
  676MOL0     H91203   1.084   2.945   9.793 -0.0351  1.1472 -0.3394
  676MOL0     H91204   0.948   2.870   9.708 -1.6608  1.3607  0.2858
  676MOL0     H91205   0.812   3.086   9.756  0.4345 -1.0386 -3.0426
  676MOL0     H91206   0.944   3.133   9.861  0.3920 -2.2472  2.5614
  676MOL0     H91207   1.082   3.143   9.659  0.4210 -0.6056  1.2210
  676MOL0     H91208   0.951   3.058   9.564 -2.0679  0.9594  1.1131
  676MOL0     H91209   0.978   3.299   9.513  2.2824 -0.7903  0.9356
  676MOL0     H91210   0.933   3.324   9.688  2.2462 -1.0271  0.4894
  676MOL0     H91211   0.759   3.476   9.462 -2.9214  1.0664 -1.0056
  676MOL0     H91212   0.533   3.501   9.326  2.9583  2.2723  4.6829
  676MOL0     H91213   0.435   3.351   9.326  1.3788 -0.0695 -0.0343
  676MOL0     H91214   0.449   3.577   9.548  1.1277 -2.2589  2.5628
  676MOL0     H91215   0.382   3.431   9.572 -1.2368  0.9429 -0.7686
  676MOL0     H91216   0.212   3.587   9.525  1.3241  0.6013  0.3524
  676MOL0     H91217   0.226   3.465   9.386  1.3910 -0.4134 -2.8620
  676MOL0     H91218   0.350   3.626   9.253 -1.6896  1.5404 -1.7387
  676MOL0     H91219   0.363   3.740   9.391  0.1085  1.5070 -2.0089
  676MOL0     H91220   0.358   3.853   9.175  0.4155  2.2089  1.7717
  676MOL0     H91221   0.423   4.140   9.094  1.3080  0.5847 -1.8575
  676MOL0     H91222   0.445   3.981   9.032  1.1784  0.7701  1.2753
  676MOL0     H91223   0.343   4.098   8.947 -1.0173 -0.5001  0.1461
  676MOL0     H91224  -0.147   4.409   8.959  1.1165  0.8260  3.6947
  676MOL0     H91225  -0.147   4.565   8.790  0.8050 -0.6487 -2.5537
  676MOL0     H91226  -0.126   4.826   8.760 -0.5418  0.3978 -0.1558
  676MOL0     H91227  -0.037   4.851   8.910  0.3071  0.5790 -0.4111
  676MOL0     H91228   0.076   5.036   8.841  0.2909 -1.6127  0.9944
  676MOL0     H91229   0.100   4.978   8.674  0.6893  0.8603 -0.3190
  676MOL0     H91230  -0.165   5.080   8.793 -0.0997 -1.4848  1.2112
  676MOL0     H91231  -0.144   5.041   8.621  1.1824  0.2527 -0.7275
  676MOL0     H91232  -0.169   5.273   8.712 -1.4218 -2.2867 -0.4287
  676MOL0     H91233   0.003   5.277   8.752  0.3575 -0.8775 -0.3696
  676MOL0     H91234  -0.106   5.198   8.470 -1.0890  1.6233 -1.5629
  676MOL0     H91235   0.054   5.207   8.510 -0.7140  0.1938 -1.8208
  676MOL0     H91236  -0.144   5.439   8.530 -0.6416 -1.1244 -0.7156
  676MOL0     H91237   0.037   5.463   8.539  0.1508  0.0101 -1.1722
  676MOL0     H91238   0.041   5.398   8.294  0.8574  1.5883 -0.2140
  676MOL0     H91239  -0.039   5.540   8.330  0.2566 -0.1051  1.4664
  676MOL0     H91240  -0.269   5.425   8.292 -0.8377  0.1456 -3.0023
  676MOL0     H91241  -0.186   5.272   8.277 -5.2855  0.0341  1.6891
  676MOL0     H91242   0.266   4.655   8.894  0.0990 -0.2009 -1.9256
  676MOL0     H91243   0.266   4.481   9.051 -0.3336  1.3229  1.5119
  676MOL0     H91244  -0.101   4.032   9.143  0.5165  0.4269 -1.7483
  676MOL0     H91245  -0.067   3.815   9.254  0.1762 -0.9755 -2.2744
  676MOL0     H91246   0.419   2.694  10.339 -1.0132 -0.4862 -2.6487
  676MOL0     H91247   0.243   2.844  10.431 -0.5522 -0.5757 -2.2165
  676MOL0     H91248   0.004   3.135  10.521  2.4583 -0.0221  0.7148
  676MOL0     H91249  -0.230   3.250  10.537 -0.3021  0.5678  0.6330
  676MOL0     H91250  -0.399   3.383  10.586 -1.3482 -0.9000  3.9095
  676MOL0     H91251  -0.307   3.399  10.729 -0.3256  1.6189  1.5633
  676MOL0     H91252  -0.478   3.617  10.618  1.4051  2.7207  1.3285
  676MOL0     H91253  -0.386   3.629  10.767 -0.1368 -0.0696 -0.2221
  676MOL0     H91254  -0.530   3.456  10.869 -3.1596 -0.2271 -1.1416
  676MOL0     H91255  -0.614   3.441  10.717 -2.7842  1.1255  0.4727
  676MOL0     H91256  -0.752   3.594  10.851 -1.2692  2.1787 -0.0604
  676MOL0     H91257  -0.669   3.715  10.750 -1.4363  0.0734 -0.1333
  676MOL0     H91258  -0.532   3.808  11.127 -0.2844  1.3358 -0.3874
  676MOL0     H91259   0.002   3.624  10.491  0.3702 -0.7696 -1.3401
  676MOL0     H91260   0.202   3.492  10.444 -0.0483  0.5956 -4.3576
  677MOL0     O91261   1.809  11.373   4.669 -0.0817 -0.3720 -0.3264
  677MOL0     C91262   1.855  11.325   4.561  0.1639 -0.0690 -0.8732
  677MOL0     O91263   1.917  11.199   4.555  0.3073 -0.4408  0.1902
  677MOL0     C91264   1.914  11.132   4.677 -0.5017 -0.1051 -0.2245
  677MOL0     C91265   2.024  11.146   4.766  0.4467 -0.0651 -0.3959
  677MOL0     C91266   2.020  11.084   4.889 -0.3184  0.3551  0.0434
  677MOL0     C91267   1.899  11.031   4.930  1.1687  0.2202  0.9148
  677MOL0     O91268   1.902  10.975   5.058  0.7551  0.8259 -0.3423
  677MOL0     C91269   1.797  10.880   5.097 -0.0214 -0.1770 -0.8166
  677MOL0     C91270   1.814  10.819   5.243 -0.3715 -0.0649  1.1340
  677MOL0     C91271   1.734  10.700   5.277  0.2703 -0.4014 -0.4552
  677MOL0     C91272   1.759  10.661   5.418 -0.8130 -0.0040 -0.1697
  677MOL0     C91273   1.646  10.558   5.461  0.5057 -0.1976 -1.8887
  677MOL0     C91274   1.665  10.508   5.605  0.0980  0.1357 -0.6631
  677MOL0     C91275   1.792  10.423   5.632  0.0200 -0.8495  0.2512
  677MOL0     C91276   1.761  10.276   5.647 -1.2522  0.0996 -0.1417
  677MOL0     N91277   1.708  10.220   5.516 -0.8754  0.3809 -0.3110
  677MOL0     C91278   1.778  10.163   5.416  0.1515  0.3830  0.0397
  677MOL0     C91279   1.688  10.109   5.330  0.4206  0.6307 -0.5108
  677MOL0     C91280   1.717  10.042   5.207  0.1490 -0.7644  0.0293
  677MOL0     C91281   1.792  10.135   5.115  0.9554 -1.0614 -0.0204
  677MOL0     C91282   1.681  10.229   5.048 -1.1340  0.7527 -0.5705
  677MOL0     C91283   1.757  10.335   4.974 -0.0752 -0.2865 -0.3124
  677MOL0     O91284   1.689  10.462   4.976  0.2922  0.0632  0.8228
  677MOL0     C91285   1.667  10.540   4.865 -0.6901 -0.3931  1.3680
  677MOL0     C91286   1.592  10.657   4.894  0.6672 -1.1093 -0.4835
  677MOL0     C91287   1.553  10.738   4.783  0.1676 -0.5532  0.4323
  677MOL0     C91288   1.428  10.827   4.810 -0.5287 -0.0125  0.6396
  677MOL0     C91289   1.610  10.720   4.651 -0.0125  0.9189 -0.6989
  677MOL0     C91290   1.589  10.814   4.540 -1.1924  0.5679  0.0198
  677MOL0     O91291   1.495  10.901   4.545 -0.0110  0.2383 -0.5284
  677MOL0     C91292   1.478  10.990   4.438 -0.0166  0.3200 -0.1950
  677MOL0     C91293   1.367  10.965   4.355  0.1464  0.5328 -0.4078
  677MOL0     C91294   1.356  11.027   4.229  0.6371 -0.0973 -0.0813
  677MOL0     C91295   1.464  11.105   4.182  0.1705  0.1047 -0.5687
  677MOL0     O91296   1.467  11.162   4.057 -0.0224 -0.1472  0.1051
  677MOL0     C91297   1.373  11.120   3.951  0.1003  0.4274 -0.9213
  677MOL0     C91298   1.434  11.163   3.817 -0.3460 -0.0229  0.7960
  677MOL0     C91299   1.419  11.320   3.806  0.1724 -0.2368 -1.2755
  677MOL0     C91300   1.522  11.375   3.717  0.3610  0.2937 -0.0343
  677MOL0     C91301   1.501  11.532   3.715  0.0577 -0.9677  0.7837
  677MOL0     C91302   1.566  11.600   3.837  0.8637 -0.0531 -0.4711
  677MOL0     C91303   1.522  11.745   3.852 -0.1273  0.5298  0.0910
  677MOL0     C91304   1.409  11.760   3.946  0.4207  0.0654 -0.6231
  677MOL0    Cl91305   1.248  11.734   3.860  0.0461 -0.5818  0.4930
  677MOL0     C91306   1.572  11.136   4.265 -0.4480  1.0000 -0.3770
  677MOL0     C91307   1.571  11.085   4.390  1.0045  0.5161 -0.1171
  677MOL0     O91308   1.684  10.813   4.457  0.6207  0.8206  0.4620
  677MOL0     C91309   1.695  10.607   4.629 -0.6757  0.3646  0.1756
  677MOL0     C91310   1.725  10.516   4.737 -0.1057  0.6117  0.6613
  677MOL0     N91311   1.559  10.131   5.382 -1.1713  0.4116  0.2105
  677MOL0     N91312   1.574  10.203   5.486  0.1900  0.1753  0.4910
  677MOL0     C91313   1.795  10.998   4.839  0.5133  0.5447 -0.1228
  677MOL0     C91314   1.802  11.057   4.709  0.5721 -0.5963 -0.4883
  677MOL0     C91315   1.865  11.419   4.446  0.1123  0.8238  0.7210
  677MOL0     C91316   1.811  11.548   4.445  0.4199  0.2834  1.3402
  677MOL0     C91317   1.848  11.646   4.347 -0.0109  0.5918  1.0273
  677MOL0     C91318   1.942  11.611   4.248  0.2029  0.2857 -0.2802
  677MOL0     O91319   1.975  11.717   4.170 -0.0767  0.8379 -0.1425
  677MOL0     C91320   1.990  11.680   4.031 -0.4551  1.0658 -0.4460
  677MOL0     C91321   1.986  11.811   3.960  0.4859  0.1258 -0.3186
  677MOL0     C91322   2.044  11.818   3.823 -0.0935 -0.2943 -0.3840
  677MOL0     C91323   2.181  11.769   3.806 -0.7054 -0.0315 -0.3706
  677MOL0     C91324   2.214  11.746   3.661  0.0568 -0.7917  0.2823
  677MOL0     C91325   2.245  11.744   3.537 -0.3027 -0.3652 -1.0287
  677MOL0     C91326   1.990  11.477   4.237  0.3754  0.3721  0.1595
  677MOL0     C91327   1.960  11.385   4.342  1.3437 -0.8229  0.1016
  677MOL0     H91328   2.123  11.180   4.736 -0.3129  1.7710 -0.9860
  677MOL0     H91329   2.098  11.098   4.962  0.3882 -0.0801 -0.6124
  677MOL0     H91330   1.707  10.941   5.111  1.2634  1.2288  2.1972
  677MOL0     H91331   1.791  10.794   5.029  2.7921  0.1769 -1.6403
  677MOL0     H91332   1.921  10.799   5.249 -0.2135 -0.2636 -1.2378
  677MOL0     H91333   1.780  10.894   5.315 -2.2549 -0.1361  0.4012
  677MOL0     H91334   1.628  10.717   5.256 -0.4041 -2.8596  0.6193
  677MOL0     H91335   1.773  10.619   5.215  1.0633  0.5449 -1.2428
  677MOL0     H91336   1.858  10.616   5.431 -0.6412  0.5039  0.3395
  677MOL0     H91337   1.747  10.750   5.481 -1.5808 -0.5193  0.4281
  677MOL0     H91338   1.549  10.608   5.450  0.7467  2.3250  3.8427
  677MOL0     H91339   1.650  10.477   5.388  1.9593 -0.5353 -1.4775
  677MOL0     H91340   1.658  10.595   5.671 -1.2398 -0.9296  0.6677
  677MOL0     H91341   1.583  10.441   5.632  2.1745 -1.9756  0.8287
  677MOL0     H91342   1.865  10.429   5.551  2.7181  1.1986  2.6595
  677MOL0     H91343   1.848  10.457   5.719 -0.7494  1.2989 -0.0407
  677MOL0     H91344   1.693  10.248   5.728  1.2108 -0.6824  1.7755
  677MOL0     H91345   1.851  10.219   5.670 -1.0182  0.3456 -0.4465
  677MOL0     H91346   1.887  10.167   5.415  0.1321  1.8952 -2.2255
  677MOL0     H91347   1.791   9.964   5.225  1.8903  1.0347  1.0249
  677MOL0     H91348   1.634   9.999   5.149  0.8122 -2.1091  0.0336
  677MOL0     H91349   1.844  10.081   5.035  1.0803  1.4401 -1.7801
  677MOL0     H91350   1.867  10.194   5.169 -1.2846  0.3851  1.6895
  677MOL0     H91351   1.622  10.274   5.128 -0.6857 -0.6686  0.5993
  677MOL0     H91352   1.613  10.179   4.978 -0.2841 -1.8842  0.3541
  677MOL0     H91353   1.778  10.301   4.872  3.4974  1.1828 -0.2377
  677MOL0     H91354   1.855  10.362   5.013 -0.3129  0.0172  0.0837
  677MOL0     H91355   1.548  10.664   4.993  0.3356 -2.1725 -0.5477
  677MOL0     H91356   1.456  10.932   4.795 -0.6164 -0.3702 -2.7693
  677MOL0     H91357   1.352  10.808   4.734 -2.0593  0.8247  1.8921
  677MOL0     H91358   1.376  10.817   4.906 -1.1338 -2.1510  0.1400
  677MOL0     H91359   1.306  10.879   4.383 -2.0085  1.5108 -1.8533
  677MOL0     H91360   1.274  11.004   4.162 -1.1451 -1.3947  2.3854
  677MOL0     H91361   1.360  11.012   3.940  1.8882  0.3687 -3.2661
  677MOL0     H91362   1.284  11.181   3.970 -0.7034 -0.2152 -2.4721
  677MOL0     H91363   1.538  11.133   3.831 -0.4505 -0.6818  0.2052
  677MOL0     H91364   1.385  11.112   3.733  0.2193 -1.4879  1.3264
  677MOL0     H91365   1.435  11.359   3.907  1.2749  1.6307 -2.0995
  677MOL0     H91366   1.319  11.360   3.788 -0.3718 -0.8692  0.1521
  677MOL0     H91367   1.624  11.351   3.747 -0.4132 -1.3914  1.4186
  677MOL0     H91368   1.513  11.325   3.620 -0.3850  2.8540 -1.4013
  677MOL0     H91369   1.392  11.542   3.716  0.0425 -0.9566 -0.2024
  677MOL0     H91370   1.544  11.563   3.620  0.5010  0.9484  1.5778
  677MOL0     H91371   1.534  11.538   3.921  3.2962 -1.3427 -0.4035
  677MOL0     H91372   1.675  11.596   3.828  1.1103  1.5931  1.0989
  677MOL0     H91373   1.508  11.798   3.758 -2.0755  1.6269  0.9555
  677MOL0     H91374   1.608  11.793   3.900  1.0103  2.2623 -3.3605
  677MOL0     H91375   1.415  11.856   3.999 -0.3890 -0.8341  1.1598
  677MOL0     H91376   1.412  11.678   4.018 -0.8483 -0.6899 -1.4053
  677MOL0     H91377   1.644  11.210   4.230 -0.2957  3.0423  3.6338
  677MOL0     H91378   1.659  11.105   4.449  0.6754 -0.7106  0.8219
  677MOL0     H91379   1.737  10.576   4.534  3.2000 -1.4178  2.2410
  677MOL0     H91380   1.779  10.426   4.712  1.4123  2.3381 -2.9136
  677MOL0     H91381   1.708  10.946   4.875  0.1640  2.0572  1.3130
  677MOL0     H91382   1.720  11.049   4.638 -0.1607 -2.1730  0.4763
  677MOL0     H91383   1.746  11.581   4.525 -0.6205  1.1939  0.1800
  677MOL0     H91384   1.831  11.752   4.360  0.7985  0.6239  1.9251
  677MOL0     H91385   2.070  11.608   4.013  0.3955  1.9852 -0.4572
  677MOL0     H91386   1.899  11.629   3.998  1.4796 -1.8239 -1.7003
  677MOL0     H91387   2.041  11.889   4.013 -1.9859  0.1526  2.4874
  677MOL0     H91388   1.887  11.857   3.960  0.7960  0.8191  0.3181
  677MOL0     H91389   2.043  11.919   3.780  0.9862 -0.4561 -0.8286
  677MOL0     H91390   1.991  11.755   3.751  1.9666 -0.9413 -1.4376
  677MOL0     H91391   2.194  11.665   3.840 -2.2311 -0.1403 -0.0499
  677MOL0     H91392   2.259  11.835   3.844  1.0494 -1.0364 -2.0471
  677MOL0     H91393   2.248  11.725   3.432 -1.6112 -2.7909 -0.6958
  677MOL0     H91394   2.060  11.440   4.163 -1.4965 -1.6151 -0.7413
  677MOL0     H91395   2.016  11.293   4.353  1.5413 -0.6684  0.3775
  678MOL0     O91396   9.347   5.819   6.280 -0.4961  0.1915 -0.4812
  678MOL0     C91397   9.399   5.728   6.348 -0.7346  0.5231  0.6351
  678MOL0     O91398   9.386   5.595   6.325 -0.2072 -0.6258 -0.6906
  678MOL0     C91399   9.299   5.538   6.234  0.6525  0.7647 -0.2802
  678MOL0     C91400   9.182   5.467   6.283  0.6479  0.4815  0.4215
  678MOL0     C91401   9.083   5.430   6.186  0.0737 -0.5037  0.2303
  678MOL0     C91402   9.104   5.433   6.050  0.6235  0.7092  0.3952
  678MOL0     O91403   9.004   5.397   5.960 -0.1623  0.1952 -0.3800
  678MOL0     C91404   9.043   5.335   5.840  0.8390  0.6105  0.5582
  678MOL0     C91405   8.921   5.271   5.781 -0.3070  0.1055 -0.5386
  678MOL0     C91406   8.850   5.174   5.874  0.5024 -0.0321  1.5456
  678MOL0     C91407   8.750   5.091   5.795 -0.6423 -0.0550  0.1928
  678MOL0     C91408   8.685   4.994   5.893  0.2783  0.8902 -0.9735
  678MOL0     C91409   8.536   4.987   5.880 -0.1897  1.2792 -0.1738
  678MOL0     C91410   8.501   4.929   5.744  0.7574  0.2073  0.5749
  678MOL0     C91411   8.350   4.886   5.729 -1.0718 -0.4494  0.1299
  678MOL0     N91412   8.262   4.990   5.678 -0.1989 -0.3916 -0.1683
  678MOL0     C91413   8.210   5.079   5.771 -0.1607  0.3266  0.4831
  678MOL0     C91414   8.146   5.175   5.696  0.0352 -0.2527  0.3798
  678MOL0     C91415   8.067   5.290   5.749 -0.5190  0.4208 -0.3697
  678MOL0     C91416   7.921   5.253   5.751 -0.2772 -0.0768  0.5216
  678MOL0     C91417   7.834   5.354   5.839 -0.8103  0.2287  0.1644
  678MOL0     C91418   7.688   5.306   5.854 -0.5618 -0.4835  0.1553
  678MOL0     O91419   7.658   5.188   5.935 -0.7664 -0.4497  1.2262
  678MOL0     C91420   7.686   5.177   6.067 -0.3024 -0.0096  0.7090
  678MOL0     C91421   7.724   5.289   6.152 -1.1446 -0.3438  0.0002
  678MOL0     C91422   7.746   5.274   6.281  0.0979  0.5538  0.4564
  678MOL0     C91423   7.771   5.398   6.356 -0.4662  0.4591  1.1156
  678MOL0     C91424   7.743   5.147   6.339  0.3441  0.3637 -1.0249
  678MOL0     C91425   7.782   5.104   6.478 -0.0640 -0.7803  0.3501
  678MOL0     O91426   7.755   5.206   6.572 -0.0575 -0.3305 -0.4531
  678MOL0     C91427   7.822   5.213   6.691 -0.2041  0.7949  0.7707
  678MOL0     C91428   7.754   5.214   6.808  0.7905 -0.4483 -0.5730
  678MOL0     C91429   7.823   5.254   6.925 -0.2892 -0.5027 -0.2448
  678MOL0     C91430   7.959   5.285   6.930 -0.7898 -0.4631  0.5240
  678MOL0     O91431   8.016   5.304   7.051  0.5646 -0.0407  0.1774
  678MOL0     C91432   8.145   5.235   7.082  0.8681  0.2311  1.2372
  678MOL0     C91433   8.182   5.258   7.221 -0.2178 -0.1990  0.5593
  678MOL0     C91434   8.179   5.119   7.291 -0.8402  0.5303  0.1617
  678MOL0     C91435   8.222   5.133   7.431  0.0616 -0.0812 -0.2518
  678MOL0     C91436   8.118   5.202   7.522  0.3356 -0.0348 -0.6664
  678MOL0     C91437   8.183   5.212   7.658  0.4180 -0.2270 -0.7078
  678MOL0     C91438   8.095   5.258   7.787  0.0267 -0.3834 -0.4606
  678MOL0     C91439   8.142   5.194   7.915  0.2163  0.3869  0.2963
  678MOL0    Cl91440   8.113   5.022   7.894 -0.0955  0.1483 -0.1253
  678MOL0     C91441   8.033   5.286   6.809 -0.7174  0.1377 -0.2807
  678MOL0     C91442   7.969   5.247   6.692  0.6889 -1.5502 -0.5879
  678MOL0     O91443   7.832   4.996   6.503 -0.0479 -0.7227 -0.4530
  678MOL0     C91444   7.701   5.032   6.267  0.0725  0.2121 -0.2887
  678MOL0     C91445   7.672   5.049   6.131  0.4474  0.1917  0.6115
  678MOL0     N91446   8.157   5.139   5.566  0.1828 -0.4039  0.5620
  678MOL0     N91447   8.233   5.028   5.554 -0.1791 -0.6403  0.1990
  678MOL0     C91448   9.219   5.491   5.998  0.0135 -0.0353 -1.4240
  678MOL0     C91449   9.311   5.549   6.093 -1.3606  0.3863 -0.1638
  678MOL0     C91450   9.506   5.770   6.443  0.4343 -0.4472  0.9141
  678MOL0     C91451   9.591   5.680   6.501 -0.0088 -0.0953 -0.2564
  678MOL0     C91452   9.682   5.731   6.596  0.0748 -0.5245 -0.0833
  678MOL0     C91453   9.697   5.869   6.627 -0.6229 -0.4720  0.3250
  678MOL0     O91454   9.762   5.934   6.734 -0.4361  0.7895 -0.2801
  678MOL0     C91455   9.820   5.859   6.846  0.5198  0.1993  0.2346
  678MOL0     C91456   9.713   5.819   6.944 -0.0019 -0.7107  0.6795
  678MOL0     C91457   9.596   5.922   6.975 -0.0387 -0.6673  0.1426
  678MOL0     C91458   9.551   5.927   7.120 -0.3130  0.8551 -0.2478
  678MOL0     C91459   9.496   5.793   7.157  1.0690  0.4875 -0.1534
  678MOL0     C91460   9.459   5.689   7.199  1.1492 -0.1392 -0.2487
  678MOL0     C91461   9.624   5.955   6.550  0.5890  0.5140 -0.0360
  678MOL0     C91462   9.525   5.908   6.462  1.3581  0.3400  0.4543
  678MOL0     H91463   9.170   5.444   6.388 -2.3114  0.7982  0.2472
  678MOL0     H91464   8.992   5.384   6.222  0.8923 -0.6897  2.1861
  678MOL0     H91465   9.094   5.401   5.769 -0.9846  2.1463  0.6004
  678MOL0     H91466   9.119   5.264   5.876 -0.0750 -0.3963  0.5569
  678MOL0     H91467   8.856   5.353   5.751 -0.7638  0.4030  1.1965
  678MOL0     H91468   8.951   5.210   5.695  2.0705 -1.4074  1.2245
  678MOL0     H91469   8.929   5.114   5.921  2.8240  0.2827 -1.6201
  678MOL0     H91470   8.788   5.233   5.942 -1.4417 -0.6831  0.4179
  678MOL0     H91471   8.682   5.160   5.745 -1.3471  2.6807  4.3947
  678MOL0     H91472   8.812   5.037   5.723  0.8820 -0.6927  1.8990
  678MOL0     H91473   8.721   4.891   5.891  0.0427  0.8158 -1.5735
  678MOL0     H91474   8.708   5.022   5.996  1.5651 -0.4723 -0.8523
  678MOL0     H91475   8.512   4.912   5.956  2.3797  0.4514 -0.0870
  678MOL0     H91476   8.490   5.086   5.889 -0.9438  0.8544  0.9213
  678MOL0     H91477   8.528   4.989   5.656 -0.5874  0.6066  0.4237
  678MOL0     H91478   8.556   4.835   5.729  0.9251  0.5909 -1.5146
  678MOL0     H91479   8.319   4.854   5.829  1.1546 -0.9153  0.7457
  678MOL0     H91480   8.351   4.799   5.662  3.1002 -2.0360  1.8562
  678MOL0     H91481   8.223   5.070   5.878 -1.1545  3.5657  0.9818
  678MOL0     H91482   8.090   5.313   5.853  0.3716  1.1722 -0.7236
  678MOL0     H91483   8.092   5.381   5.694  0.2008 -0.8302 -2.2032
  678MOL0     H91484   7.920   5.151   5.790  0.3034  0.5671  2.3343
  678MOL0     H91485   7.869   5.246   5.655  0.0202 -1.7547  0.4581
  678MOL0     H91486   7.819   5.445   5.780  0.0916  1.4194  1.7068
  678MOL0     H91487   7.875   5.367   5.939 -2.4256 -1.1357  1.0429
  678MOL0     H91488   7.645   5.285   5.756  2.4797 -3.5963 -0.6955
  678MOL0     H91489   7.636   5.393   5.896  0.0122  0.4414 -1.0027
  678MOL0     H91490   7.736   5.385   6.103 -5.3459 -0.0757 -0.8879
  678MOL0     H91491   7.701   5.417   6.438 -2.5269  1.0689 -0.6596
  678MOL0     H91492   7.870   5.401   6.402  0.1425 -0.0083 -0.1183
  678MOL0     H91493   7.759   5.487   6.293 -0.0012  0.4937  1.0751
  678MOL0     H91494   7.646   5.201   6.811  0.1341  3.2490 -2.1823
  678MOL0     H91495   7.772   5.256   7.021  1.6607 -2.0461  0.8961
  678MOL0     H91496   8.113   5.132   7.061 -0.0822  0.7553  0.0140
  678MOL0     H91497   8.236   5.244   7.022  0.5315 -3.3091 -0.0443
  678MOL0     H91498   8.277   5.312   7.222 -0.8343  0.9705  2.4887
  678MOL0     H91499   8.101   5.311   7.272 -0.5422 -2.6407  2.7720
  678MOL0     H91500   8.258   5.058   7.247  1.1006  1.7085  1.8382
  678MOL0     H91501   8.078   5.078   7.284 -1.7956  2.5640  1.3202
  678MOL0     H91502   8.239   5.032   7.470  1.3181  0.3219  0.2793
  678MOL0     H91503   8.321   5.179   7.436  0.1054 -0.0745 -0.9941
  678MOL0     H91504   8.024   5.146   7.528 -0.2595  0.7740 -2.0555
  678MOL0     H91505   8.098   5.304   7.490  2.0451  0.3859 -0.4779
  678MOL0     H91506   8.215   5.111   7.685 -0.7393  0.0966  2.3294
  678MOL0     H91507   8.269   5.279   7.665 -0.6388  1.0546  0.6591
  678MOL0     H91508   7.989   5.233   7.772  0.0618  0.0755 -1.5648
  678MOL0     H91509   8.101   5.367   7.791  3.9751 -0.3985 -2.0075
  678MOL0     H91510   8.082   5.234   7.998 -3.0591 -1.4530 -0.9640
  678MOL0     H91511   8.246   5.221   7.934 -0.5126  3.2831  0.7705
  678MOL0     H91512   8.140   5.299   6.805 -0.6046  0.0935  1.6923
  678MOL0     H91513   8.022   5.254   6.598  1.2524 -0.6612 -0.2139
  678MOL0     H91514   7.721   4.935   6.311 -0.1219  0.0086 -0.6409
  678MOL0     H91515   7.656   4.963   6.066  0.0912 -0.3477  1.3885
  678MOL0     H91516   9.219   5.507   5.891  0.3224  1.1326 -1.2715
  678MOL0     H91517   9.406   5.589   6.058 -0.5052 -0.5529  0.9780
  678MOL0     H91518   9.589   5.575   6.474  0.2963 -0.2913  0.4461
  678MOL0     H91519   9.737   5.652   6.647 -2.1442 -0.9312  1.8453
  678MOL0     H91520   9.878   5.775   6.806 -2.4674 -1.2857 -1.3246
  678MOL0     H91521   9.888   5.925   6.900  1.6827 -0.4758 -0.3534
  678MOL0     H91522   9.767   5.772   7.028  0.8785 -0.7238  0.1217
  678MOL0     H91523   9.660   5.735   6.898 -0.1036 -0.1597 -0.2187
  678MOL0     H91524   9.509   5.908   6.910 -0.3676  1.5881  0.0240
  678MOL0     H91525   9.635   6.020   6.947  1.4868 -1.1428  0.5222
  678MOL0     H91526   9.482   6.010   7.133 -1.7783 -0.1153 -1.5130
  678MOL0     H91527   9.632   5.948   7.191  0.8352  1.3797 -1.6833
  678MOL0     H91528   9.437   5.592   7.240  2.4430 -1.8721 -3.2574
  678MOL0     H91529   9.610   6.059   6.578  0.9659  0.1468  1.6333
  678MOL0     H91530   9.463   5.982   6.413 -1.6766 -2.5090 -0.3433
  679MOL0     O91531   1.923   0.990   6.510 -0.4818  0.3599 -0.0761
  679MOL0     C91532   1.960   0.908   6.594 -0.0920 -0.6938 -0.4578
  679MOL0     O91533   1.981   0.938   6.727  0.0027 -0.2524  0.3598
  679MOL0     C91534   1.940   1.057   6.785 -0.6523 -0.6106  0.3815
  679MOL0     C91535   1.808   1.104   6.775  0.4221  0.0300 -0.4103
  679MOL0     C91536   1.766   1.219   6.838  0.2287 -0.5075 -0.1868
  679MOL0     C91537   1.860   1.298   6.913  0.3369 -0.6166  0.3074
  679MOL0     O91538   1.833   1.425   6.957  0.3505 -0.5383  0.1118
  679MOL0     C91539   1.712   1.495   6.910 -0.2060  0.8371 -0.1345
  679MOL0     C91540   1.741   1.644   6.935  0.4731 -0.3386 -0.7552
  679MOL0     C91541   1.630   1.737   6.912  0.2741  0.6243 -0.0272
  679MOL0     C91542   1.535   1.727   7.034 -0.4161  0.3605 -0.4331
  679MOL0     C91543   1.454   1.857   7.053  0.3180  0.8921  0.7087
  679MOL0     C91544   1.535   1.981   7.099  0.6636  0.1250  0.2744
  679MOL0     C91545   1.424   2.093   7.127 -0.2919  1.0280  0.5891
  679MOL0     C91546   1.478   2.228   7.152  0.2431  1.2896  0.1965
  679MOL0     N91547   1.383   2.295   7.239  0.6158  0.2241  0.1144
  679MOL0     C91548   1.415   2.346   7.362 -0.0760  0.3957 -0.1831
  679MOL0     C91549   1.305   2.405   7.415  0.0427 -0.4746  0.0200
  679MOL0     C91550   1.297   2.475   7.548 -0.0485  0.0585 -0.7949
  679MOL0     C91551   1.202   2.429   7.650 -1.1843  0.6152 -0.3910
  679MOL0     C91552   1.239   2.295   7.721 -0.2809 -1.0308  0.0265
  679MOL0     C91553   1.255   2.314   7.875 -0.5658 -0.6888  0.6164
  679MOL0     O91554   1.373   2.399   7.895  0.0641 -0.6816  0.5657
  679MOL0     C91555   1.461   2.357   7.977  0.4646  0.7440  0.3862
  679MOL0     C91556   1.477   2.437   8.083  0.7226  0.1159  0.0605
  679MOL0     C91557   1.569   2.405   8.191  0.0820  0.2554 -0.4442
  679MOL0     C91558   1.575   2.508   8.309  1.4075  0.4953  0.0954
  679MOL0     C91559   1.633   2.279   8.186 -0.4694  0.1465 -0.3235
  679MOL0     C91560   1.730   2.224   8.287  0.1104  1.0591 -0.3449
  679MOL0     O91561   1.825   2.307   8.333 -0.7860  0.3060 -0.2205
  679MOL0     C91562   1.940   2.254   8.393  0.1383 -0.1488 -0.2601
  679MOL0     C91563   2.022   2.159   8.329  0.7317  0.7319 -0.4621
  679MOL0     C91564   2.121   2.106   8.403  0.6836  0.5339  0.0417
  679MOL0     C91565   2.159   2.150   8.536  0.5481  0.5240  0.0840
  679MOL0     O91566   2.257   2.097   8.612  0.0015  0.1396  0.6146
  679MOL0     C91567   2.389   2.118   8.564 -0.6205 -0.1749  1.1633
  679MOL0     C91568   2.449   2.255   8.575  0.1839  1.3259 -0.1238
  679MOL0     C91569   2.446   2.298   8.722 -0.2923 -0.4214  0.0864
  679MOL0     C91570   2.550   2.240   8.809 -0.8449  0.3738  0.1500
  679MOL0     C91571   2.656   2.327   8.874 -0.4216  0.1930  0.0652
  679MOL0     C91572   2.752   2.376   8.771 -0.8553 -0.7355 -0.2136
  679MOL0     C91573   2.814   2.513   8.802  0.3287  0.3532 -0.8268
  679MOL0     C91574   2.932   2.511   8.901 -0.3787  0.4750  0.1427
  679MOL0    Cl91575   3.060   2.389   8.844  0.4139  0.5419 -0.5067
  679MOL0     C91576   2.072   2.246   8.597 -0.4499 -0.3917  0.6573
  679MOL0     C91577   1.962   2.301   8.519 -0.0124  0.1895  1.3284
  679MOL0     O91578   1.724   2.100   8.309 -0.0239 -0.0696  0.1860
  679MOL0     C91579   1.620   2.197   8.071  0.1977 -0.1409 -0.1344
  679MOL0     C91580   1.531   2.243   7.966 -0.5762 -0.2021  0.4299
  679MOL0     N91581   1.206   2.402   7.313  0.3796  0.2133 -0.5299
  679MOL0     N91582   1.260   2.342   7.207  0.5303  1.4513  0.2373
  679MOL0     C91583   1.983   1.247   6.928 -0.0706  1.4655 -0.1345
  679MOL0     C91584   2.030   1.134   6.864 -0.1221 -0.7101  0.0796
  679MOL0     C91585   1.975   0.768   6.553 -0.4811 -0.4632 -0.9921
  679MOL0     C91586   1.924   0.665   6.631 -0.0727 -0.0412 -0.1421
  679MOL0     C91587   1.910   0.537   6.579  0.6151  0.6843  0.6305
  679MOL0     C91588   1.956   0.501   6.442 -0.0584 -0.2010 -0.7723
  679MOL0     O91589   1.934   0.365   6.406 -0.5579  0.1221 -0.4658
  679MOL0     C91590   1.954   0.326   6.270 -0.3469  0.2084  0.2457
  679MOL0     C91591   1.842   0.392   6.179  0.5929  0.0505 -0.2216
  679MOL0     C91592   1.719   0.313   6.155  0.6549 -0.2360  0.1878
  679MOL0     C91593   1.729   0.173   6.091 -0.7155  0.2358 -0.6589
  679MOL0     C91594   1.805   0.177   5.964 -0.6341  0.0635  0.0124
  679MOL0     C91595   1.871   0.193   5.861 -0.1763  0.2381 -1.6248
  679MOL0     C91596   2.021   0.605   6.368 -0.9151  0.5250 -0.2232
  679MOL0     C91597   2.014   0.738   6.421 -0.6418  0.4808 -0.6075
  679MOL0     H91598   1.738   1.041   6.720 -1.4422  0.8564  0.9205
  679MOL0     H91599   1.667   1.262   6.828 -0.1681 -1.3232  0.1110
  679MOL0     H91600   1.702   1.484   6.802  1.8303 -0.5308 -0.2583
  679MOL0     H91601   1.626   1.455   6.964  0.2150 -0.3286 -0.2791
  679MOL0     H91602   1.775   1.649   7.039 -1.6128  0.1077 -0.0333
  679MOL0     H91603   1.830   1.663   6.875 -0.1340 -4.1513 -3.1704
  679MOL0     H91604   1.670   1.838   6.900 -0.3121  0.7181 -1.3728
  679MOL0     H91605   1.573   1.721   6.820  0.1644  1.6111 -0.1347
  679MOL0     H91606   1.464   1.645   7.017  0.5613 -0.1899 -2.1471
  679MOL0     H91607   1.590   1.713   7.127 -0.8100  2.7307  0.2214
  679MOL0     H91608   1.410   1.881   6.955  0.0566  1.3014  0.9207
  679MOL0     H91609   1.373   1.847   7.126  0.6268  0.2271  0.9637
  679MOL0     H91610   1.584   1.960   7.195 -2.8067 -0.2893  2.1040
  679MOL0     H91611   1.604   2.031   7.030  0.1545 -0.0876 -0.3974
  679MOL0     H91612   1.363   2.102   7.036 -0.2389 -2.3928  0.0669
  679MOL0     H91613   1.382   2.053   7.219  2.9521  1.6273  2.4672
  679MOL0     H91614   1.478   2.279   7.054 -0.5399 -0.2220 -0.6207
  679MOL0     H91615   1.579   2.233   7.193  0.6781  2.1142 -0.9161
  679MOL0     H91616   1.516   2.341   7.399  0.1361 -0.6078 -0.8641
  679MOL0     H91617   1.397   2.481   7.592 -0.6174  2.9846  0.3609
  679MOL0     H91618   1.255   2.572   7.520 -3.2777 -0.6742  1.0345
  679MOL0     H91619   1.100   2.421   7.613 -1.7445  1.8412  0.8093
  679MOL0     H91620   1.190   2.510   7.722 -1.2285  0.1437  0.1377
  679MOL0     H91621   1.334   2.257   7.682 -1.0940 -2.8158 -0.3000
  679MOL0     H91622   1.160   2.223   7.700 -3.9515  2.2665  1.3531
  679MOL0     H91623   1.264   2.220   7.930 -0.7405 -0.4503  1.0584
  679MOL0     H91624   1.170   2.379   7.900 -1.5998  0.2233 -4.2562
  679MOL0     H91625   1.414   2.525   8.094 -1.1063 -1.2737  1.4581
  679MOL0     H91626   1.589   2.451   8.401 -0.0574 -1.7401 -0.9863
  679MOL0     H91627   1.658   2.578   8.298  0.7641  1.1425 -0.8928
  679MOL0     H91628   1.473   2.548   8.299 -1.0795 -5.3383 -1.9271
  679MOL0     H91629   1.999   2.134   8.226 -5.1346  1.0393  0.4366
  679MOL0     H91630   2.171   2.026   8.350 -1.4130  0.3784 -1.8354
  679MOL0     H91631   2.450   2.038   8.608 -2.3591 -1.7860  0.7470
  679MOL0     H91632   2.394   2.089   8.458 -1.4001  0.4012  0.9604
  679MOL0     H91633   2.548   2.259   8.529 -0.3504  1.0968 -1.3186
  679MOL0     H91634   2.390   2.320   8.510  1.3990  0.0443 -2.6276
  679MOL0     H91635   2.353   2.276   8.774  0.4824 -3.9738  0.2267
  679MOL0     H91636   2.460   2.407   8.725  0.6514 -0.5575  1.0671
  679MOL0     H91637   2.506   2.177   8.886  1.6418  0.0205  1.3970
  679MOL0     H91638   2.601   2.169   8.744  2.5704  1.1090  1.7811
  679MOL0     H91639   2.706   2.263   8.947 -0.1117 -0.7879 -0.9718
  679MOL0     H91640   2.622   2.413   8.932 -1.3022 -0.3645  0.3972
  679MOL0     H91641   2.819   2.290   8.763 -0.7477 -0.7695  0.8858
  679MOL0     H91642   2.713   2.375   8.669  0.3276 -0.9337 -0.6854
  679MOL0     H91643   2.743   2.584   8.846  1.4064  2.6320 -2.5576
  679MOL0     H91644   2.856   2.564   8.715  2.0204  0.3782 -0.0299
  679MOL0     H91645   2.904   2.474   9.000 -3.7835  0.5496 -0.6687
  679MOL0     H91646   2.970   2.613   8.903 -0.2007  0.4351 -0.8357
  679MOL0     H91647   2.093   2.289   8.695 -1.0859  1.2689  0.1141
  679MOL0     H91648   1.884   2.357   8.571 -1.6638 -4.4856  4.4560
  679MOL0     H91649   1.658   2.096   8.065  0.7538 -0.1930  2.6796
  679MOL0     H91650   1.520   2.184   7.876  0.2813  0.3605 -0.0627
  679MOL0     H91651   2.056   1.297   6.993  1.0530  0.8956 -0.9220
  679MOL0     H91652   2.135   1.108   6.878 -0.0883 -0.8776 -0.4540
  679MOL0     H91653   1.879   0.674   6.730 -1.2956  0.8067 -0.7341
  679MOL0     H91654   1.864   0.460   6.640  0.6621 -0.6525 -0.9497
  679MOL0     H91655   2.051   0.354   6.226 -0.4693 -1.3599 -1.1455
  679MOL0     H91656   1.944   0.217   6.269 -1.7551  0.1590  4.3314
  679MOL0     H91657   1.884   0.408   6.080  3.3073 -1.2775  0.6067
  679MOL0     H91658   1.811   0.488   6.222  0.3572 -0.5747  1.0667
  679MOL0     H91659   1.654   0.378   6.096  1.4049  3.0407  2.6689
  679MOL0     H91660   1.666   0.312   6.251  0.2070 -2.5100 -0.0300
  679MOL0     H91661   1.630   0.138   6.058 -0.2544 -0.2067 -1.6178
  679MOL0     H91662   1.771   0.091   6.150 -0.8130  1.2183  0.8173
  679MOL0     H91663   1.955   0.204   5.795  2.4551 -4.2021  0.5260
  679MOL0     H91664   2.070   0.579   6.274 -0.9203 -3.8447  0.7532
  679MOL0     H91665   2.053   0.799   6.341  0.8114 -0.8888 -0.9992
  680MOL0     O91666   9.598   1.879   9.853  0.0038 -0.3401 -0.5379
  680MOL0     C91667   9.696   1.919   9.915  0.5412  0.1203  1.0923
  680MOL0     O91668   9.743   2.045   9.914 -0.2691 -0.2101  0.1425
  680MOL0     C91669   9.664   2.143   9.856  0.0711  0.2962 -0.4368
  680MOL0     C91670   9.579   2.224   9.933 -0.7864 -0.3480  0.0896
  680MOL0     C91671   9.495   2.321   9.866 -0.6288 -0.6703  0.5443
  680MOL0     C91672   9.495   2.340   9.726  0.8935 -0.2390 -0.5136
  680MOL0     O91673   9.421   2.443   9.680 -0.6393  0.2227 -0.3786
  680MOL0     C91674   9.346   2.427   9.556  0.3247  0.0373 -0.6935
  680MOL0     C91675   9.330   2.567   9.493  0.6546 -1.0782  0.1732
  680MOL0     C91676   9.232   2.650   9.579  0.0220 -0.6141 -0.0778
  680MOL0     C91677   9.312   2.721   9.690 -0.6059 -0.6733  1.7388
  680MOL0     C91678   9.229   2.794   9.787 -1.0849  0.1323  0.3351
  680MOL0     C91679   9.325   2.848   9.902  0.1612 -0.1550 -0.4772
  680MOL0     C91680   9.250   2.894  10.024  1.7849 -0.0569 -0.9532
  680MOL0     C91681   9.345   2.927  10.141  0.1202  0.5498  0.1535
  680MOL0     N91682   9.402   3.060  10.142 -0.0700  0.0498  0.5007
  680MOL0     C91683   9.335   3.179  10.158 -0.9342  0.5830  0.2524
  680MOL0     C91684   9.432   3.274  10.128 -0.0848  0.6800  0.6325
  680MOL0     C91685   9.412   3.428  10.120  0.6661  0.7872 -0.8065
  680MOL0     C91686   9.543   3.503  10.154  0.8209 -0.1990  0.0352
  680MOL0     C91687   9.507   3.645  10.208  0.1549 -0.4212  0.6413
  680MOL0     C91688   9.629   3.723  10.266  0.4423  0.0718 -0.2152
  680MOL0     O91689   9.702   3.788  10.160 -0.1749  0.5594  0.3884
  680MOL0     C91690   9.681   3.922  10.153 -0.0250  0.6131  0.3366
  680MOL0     C91691   9.624   3.965  10.028  0.0404 -0.6204 -0.8059
  680MOL0     C91692   9.622   4.102  10.004 -0.4118 -0.4913  0.1118
  680MOL0     C91693   9.551   4.133   9.870  0.1856  1.2986 -0.6944
  680MOL0     C91694   9.658   4.194  10.106 -0.4189 -0.4926  0.4925
  680MOL0     C91695   9.647   4.348  10.085 -0.0613  0.5076  0.2908
  680MOL0     O91696   9.644   4.425  10.192 -0.6754 -0.8808  0.3222
  680MOL0     C91697   9.656   4.563  10.179 -0.1461 -0.3012  0.1915
  680MOL0     C91698   9.776   4.621  10.229 -0.3839 -0.1901 -0.9075
  680MOL0     C91699   9.788   4.758  10.224  0.0945 -0.8491  0.1928
  680MOL0     C91700   9.690   4.842  10.171  0.5640  0.2983 -0.5571
  680MOL0     O91701   9.725   4.971  10.155  0.3341  0.8759  0.1710
  680MOL0     C91702   9.659   5.066  10.078  0.1739  1.1669  0.9965
  680MOL0     C91703   9.725   5.193  10.110  0.0971 -0.0601 -0.2017
  680MOL0     C91704   9.681   5.308  10.025 -0.3067  0.4133  0.0658
  680MOL0     C91705   9.682   5.438  10.103 -0.7079 -0.3597 -0.6221
  680MOL0     C91706   9.644   5.566  10.024  0.4994 -0.1007  0.8439
  680MOL0     C91707   9.492   5.560  10.000 -0.5943 -0.1703 -0.1459
  680MOL0     C91708   9.454   5.677   9.911  0.0877 -0.1340  0.3574
  680MOL0     C91709   9.316   5.642   9.849  0.1718 -1.0352  0.5741
  680MOL0    Cl91710   9.271   5.781   9.748 -0.3332 -0.1739 -0.5958
  680MOL0     C91711   9.569   4.783  10.128  0.7444 -0.4079  0.1237
  680MOL0     C91712   9.556   4.646  10.129  1.1619 -1.0960 -0.0362
  680MOL0     O91713   9.653   4.385   9.969 -0.1431 -0.1450 -0.5015
  680MOL0     C91714   9.706   4.154  10.225 -0.4681  1.0103  0.2931
  680MOL0     C91715   9.726   4.015  10.248  0.1989  0.7170 -0.5535
  680MOL0     N91716   9.544   3.212  10.089  0.4503  0.5338  0.1103
  680MOL0     N91717   9.533   3.082  10.110 -0.0046 -0.2400  0.0721
  680MOL0     C91718   9.579   2.258   9.653  0.2904  0.3019  1.6993
  680MOL0     C91719   9.665   2.171   9.716  0.2660  0.1378  0.0000
  680MOL0     C91720   9.774   1.820   9.982 -0.0972  0.8172  0.1526
  680MOL0     C91721   9.743   1.682   9.989  0.0751  0.1631 -0.5316
  680MOL0     C91722   9.828   1.579  10.043 -0.5329  0.0470 -0.1774
  680MOL0     C91723   9.955   1.609  10.084  0.3792 -0.1224 -0.4056
  680MOL0     O91724  10.053   1.530  10.126  0.2013  0.0004 -0.9096
  680MOL0     C91725  10.062   1.388  10.101  0.1344 -0.4481  0.2950
  680MOL0     C91726   9.976   1.313  10.214  0.9775 -0.0607 -0.6393
  680MOL0     C91727   9.960   1.165  10.203 -0.1992  1.0326  0.2389
  680MOL0     C91728   9.931   1.113  10.066  0.0267 -0.0572  0.0896
  680MOL0     C91729   9.850   0.991  10.074  0.3329  0.4006 -0.4459
  680MOL0     C91730   9.788   0.887  10.068 -0.8845  1.0029  0.5636
  680MOL0     C91731   9.991   1.741  10.081  0.0020  0.2548 -0.3086
  680MOL0     C91732   9.901   1.843  10.035 -0.6871 -0.0903  0.3970
  680MOL0     H91733   9.591   2.220  10.041 -0.9397 -1.2036  0.0798
  680MOL0     H91734   9.434   2.381   9.933  1.1133 -0.9292  2.4406
  680MOL0     H91735   9.402   2.371   9.481  0.5905 -0.2336 -0.2989
  680MOL0     H91736   9.246   2.390   9.579  1.1689 -0.7558  2.0695
  680MOL0     H91737   9.425   2.618   9.474  0.4547 -1.6004 -2.8278
  680MOL0     H91738   9.280   2.558   9.396  1.1420  0.0607 -0.2037
  680MOL0     H91739   9.187   2.731   9.521  0.3106 -0.5443 -0.2052
  680MOL0     H91740   9.150   2.589   9.619 -0.6047  0.4098  0.2284
  680MOL0     H91741   9.366   2.651   9.753  0.7417 -0.8483  0.4558
  680MOL0     H91742   9.374   2.790   9.632 -0.9898 -1.6020  0.1590
  680MOL0     H91743   9.175   2.877   9.741  0.2509  0.1574 -1.2591
  680MOL0     H91744   9.148   2.726   9.815  0.7551 -1.0967  3.0872
  680MOL0     H91745   9.383   2.761   9.935 -1.7540 -0.5396  2.2674
  680MOL0     H91746   9.384   2.933   9.870 -0.4392  0.6570  0.4939
  680MOL0     H91747   9.195   2.986  10.002  0.3019 -1.1818 -2.2035
  680MOL0     H91748   9.184   2.811  10.051  0.5507  0.1350 -3.1078
  680MOL0     H91749   9.407   2.838  10.149  0.3624  0.7527  0.5764
  680MOL0     H91750   9.285   2.918  10.233  0.7578 -1.5201  0.4133
  680MOL0     H91751   9.234   3.207  10.186  0.4234  3.5429  2.7705
  680MOL0     H91752   9.378   3.451  10.019 -0.1164  0.1973 -0.6804
  680MOL0     H91753   9.328   3.450  10.186 -1.7114 -2.1246 -2.6558
  680MOL0     H91754   9.612   3.496  10.069 -1.8681  0.6288 -2.3591
  680MOL0     H91755   9.599   3.453  10.234  2.2988  2.1001  0.5373
  680MOL0     H91756   9.417   3.638  10.270  0.0915 -0.2658  0.5684
  680MOL0     H91757   9.489   3.697  10.114  1.4773 -2.0002 -0.5364
  680MOL0     H91758   9.697   3.655  10.319  2.8504  1.4649 -1.3743
  680MOL0     H91759   9.583   3.784  10.345  0.3027  1.7712 -1.5646
  680MOL0     H91760   9.602   3.897   9.946 -0.5176 -0.3635 -0.8742
  680MOL0     H91761   9.619   4.104   9.790 -0.3123 -1.2896 -0.2433
  680MOL0     H91762   9.455   4.081   9.874  0.8320  0.1231 -0.2014
  680MOL0     H91763   9.519   4.236   9.851 -1.7938  1.3745  2.2607
  680MOL0     H91764   9.855   4.562  10.274 -0.3238  1.9065  2.0059
  680MOL0     H91765   9.879   4.816  10.238 -1.2546  1.7118 -0.9916
  680MOL0     H91766   9.674   5.049   9.971  2.3085 -2.6060  1.7132
  680MOL0     H91767   9.554   5.065  10.107 -0.6597 -0.3499 -1.6914
  680MOL0     H91768   9.693   5.219  10.211 -3.4945  1.0136 -1.4685
  680MOL0     H91769   9.834   5.187  10.115  0.0395 -0.1356  2.4354
  680MOL0     H91770   9.581   5.293   9.984 -0.1311  1.3202 -0.7488
  680MOL0     H91771   9.740   5.320   9.933 -0.0109 -0.0879  0.1881
  680MOL0     H91772   9.610   5.417  10.182 -0.2010 -1.0325 -0.3389
  680MOL0     H91773   9.781   5.458  10.143 -2.2431  4.1625  1.5694
  680MOL0     H91774   9.702   5.567   9.931  0.5814  0.4133  0.8979
  680MOL0     H91775   9.649   5.664  10.073 -3.3002 -0.9092  3.2579
  680MOL0     H91776   9.471   5.463   9.953  2.3504  0.4610 -3.2203
  680MOL0     H91777   9.448   5.587  10.096  0.9020  1.3512  0.1634
  680MOL0     H91778   9.525   5.679   9.828  0.4856 -1.9585  0.6129
  680MOL0     H91779   9.447   5.772   9.965 -0.1458  2.1490 -3.3491
  680MOL0     H91780   9.246   5.628   9.932 -2.6016  1.5327 -1.1034
  680MOL0     H91781   9.321   5.557   9.781 -0.3954 -0.3810 -0.3169
  680MOL0     H91782   9.495   4.843  10.076 -0.6207 -1.6207  0.6091
  680MOL0     H91783   9.466   4.603  10.085 -1.9211 -0.2654  4.7516
  680MOL0     H91784   9.718   4.220  10.310 -1.3545  0.2518  1.0315
  680MOL0     H91785   9.762   3.978  10.343 -0.5417 -1.0383 -0.9145
  680MOL0     H91786   9.581   2.246   9.545  0.8101 -0.7124  1.8101
  680MOL0     H91787   9.727   2.099   9.662 -0.9579 -0.5838 -0.4877
  680MOL0     H91788   9.640   1.655   9.970  0.1720 -1.9847  1.5534
  680MOL0     H91789   9.795   1.476  10.049  0.5488 -0.3946 -1.2381
  680MOL0     H91790  10.022   1.356  10.004  1.2864 -2.4565  0.4236
  680MOL0     H91791  10.168   1.362  10.100  0.8554  2.2618 -0.0188
  680MOL0     H91792   9.878   1.360  10.213  1.6541  1.4381 -2.7042
  680MOL0     H91793  10.025   1.336  10.309  0.7298 -3.2342  0.3857
  680MOL0     H91794   9.872   1.151  10.266  1.6362  1.8998  3.2078
  680MOL0     H91795  10.049   1.123  10.253 -0.2663  0.5023 -0.0774
  680MOL0     H91796  10.027   1.090  10.019 -0.2227 -2.5171  0.6550
  680MOL0     H91797   9.874   1.188  10.012 -0.4675 -0.1513  0.4805
  680MOL0     H91798   9.740   0.791  10.073  0.0183  0.4408 -0.9250
  680MOL0     H91799  10.093   1.770  10.104  0.0946  1.2459 -1.8077
  680MOL0     H91800   9.941   1.944  10.044 -3.3885  0.9453  1.9869
  681MOL0     O91801   2.375   3.188   2.598  0.5988  0.0227  0.7145
  681MOL0     C91802   2.462   3.274   2.593  0.8995  0.6187  0.6334
  681MOL0     O91803   2.475   3.374   2.682  0.4751  0.3911  0.4599
  681MOL0     C91804   2.369   3.414   2.762  0.2971  0.1654 -0.0132
  681MOL0     C91805   2.237   3.448   2.718 -0.8388  0.1398 -0.4630
  681MOL0     C91806   2.148   3.493   2.822 -0.0930  0.1753  0.1533
  681MOL0     C91807   2.186   3.511   2.954  0.3814  0.5786 -0.3956
  681MOL0     O91808   2.088   3.561   3.042  0.3700  0.1291  0.6688
  681MOL0     C91809   2.126   3.677   3.119  0.3244 -0.3139  0.7198
  681MOL0     C91810   2.016   3.762   3.153 -0.8264 -0.0597  0.6222
  681MOL0     C91811   2.068   3.893   3.207 -0.5070  0.6057 -0.3346
  681MOL0     C91812   1.946   3.958   3.272  0.2387 -0.2506  0.5142
  681MOL0     C91813   1.983   4.090   3.328  0.4815 -1.2755 -1.1946
  681MOL0     C91814   1.850   4.149   3.384  0.9572 -0.7668  0.4137
  681MOL0     C91815   1.835   4.300   3.382 -0.1770  0.1186 -0.0155
  681MOL0     C91816   1.922   4.375   3.480  0.8289  0.7630 -0.3222
  681MOL0     N91817   1.876   4.345   3.613  0.0771  0.0599 -0.5295
  681MOL0     C91818   1.931   4.254   3.702 -0.1816 -0.1112  0.1832
  681MOL0     C91819   1.838   4.229   3.798 -0.3400 -0.2699 -0.2142
  681MOL0     C91820   1.848   4.120   3.899 -0.3795 -0.2854  0.4580
  681MOL0     C91821   1.958   4.143   4.005 -0.9573  0.9080 -0.5250
  681MOL0     C91822   1.930   4.049   4.126 -0.3777  0.5647 -0.6051
  681MOL0     C91823   2.039   4.051   4.225 -0.9502  0.7192  0.7378
  681MOL0     O91824   2.159   3.985   4.179  0.5394  0.3407  0.1468
  681MOL0     C91825   2.273   3.986   4.253 -0.6446  0.0678 -0.8332
  681MOL0     C91826   2.386   3.931   4.197  0.3745  0.0827  0.4050
  681MOL0     C91827   2.517   3.941   4.264  0.0039  0.3572  0.9273
  681MOL0     C91828   2.643   3.903   4.186 -0.2450  0.4690  0.0793
  681MOL0     C91829   2.522   4.012   4.389 -0.1561 -0.8363  0.2127
  681MOL0     C91830   2.647   4.032   4.465  0.1578  0.2307  0.0886
  681MOL0     O91831   2.652   4.156   4.524 -0.3084 -0.1513 -0.6927
  681MOL0     C91832   2.766   4.176   4.611  0.2772  0.4224  0.5374
  681MOL0     C91833   2.887   4.249   4.572 -0.5148  0.2448  0.2170
  681MOL0     C91834   3.002   4.265   4.657  1.0326  0.0319 -0.2738
  681MOL0     C91835   2.988   4.220   4.785 -0.5249 -0.2093  0.2832
  681MOL0     O91836   3.102   4.220   4.858  0.8276  0.4580 -0.2502
  681MOL0     C91837   3.097   4.290   4.983 -0.3427 -0.5522 -0.5725
  681MOL0     C91838   3.213   4.385   4.972 -0.6821 -0.0008 -0.5986
  681MOL0     C91839   3.273   4.428   5.106 -0.3946 -0.0789  0.0521
  681MOL0     C91840   3.348   4.320   5.190  0.0063 -0.2615  0.1451
  681MOL0     C91841   3.409   4.373   5.321 -1.0080 -0.7001  0.4101
  681MOL0     C91842   3.477   4.251   5.408 -0.5277 -0.5236  0.1399
  681MOL0     C91843   3.527   4.294   5.546 -0.2784  0.0763 -0.6174
  681MOL0     C91844   3.642   4.205   5.614  0.3367  0.3398  0.4398
  681MOL0    Cl91845   3.583   4.053   5.666  0.9260  0.3582 -0.1915
  681MOL0     C91846   2.865   4.167   4.836 -0.7586 -0.0438  0.3480
  681MOL0     C91847   2.769   4.129   4.738 -0.0114  0.4017 -0.2604
  681MOL0     O91848   2.733   3.945   4.456  0.0093  0.1928  0.2174
  681MOL0     C91849   2.404   4.067   4.439  0.8358  0.3487 -0.2997
  681MOL0     C91850   2.285   4.052   4.378 -0.2310  0.3033 -0.5557
  681MOL0     N91851   1.729   4.317   3.784 -0.1604 -0.9053  0.6203
  681MOL0     N91852   1.749   4.372   3.664 -0.7494 -0.5069 -0.2562
  681MOL0     C91853   2.315   3.476   2.998 -0.5850  1.0653  0.4055
  681MOL0     C91854   2.404   3.441   2.896  0.0252  0.3788  0.3085
  681MOL0     C91855   2.558   3.248   2.496 -0.6585  0.0188 -0.1328
  681MOL0     C91856   2.549   3.161   2.389  0.5330 -0.9848 -0.5703
  681MOL0     C91857   2.654   3.129   2.301 -0.1091  0.1097 -0.1622
  681MOL0     C91858   2.773   3.193   2.313 -0.6528  0.3331 -0.5151
  681MOL0     O91859   2.877   3.178   2.223  0.4262 -0.4280 -0.4781
  681MOL0     C91860   2.878   3.067   2.139  0.6905 -0.3532 -0.0161
  681MOL0     C91861   3.016   3.047   2.080  0.1889  0.6666 -0.3454
  681MOL0     C91862   3.058   3.151   1.974  1.3418 -0.8002  0.2368
  681MOL0     C91863   3.184   3.119   1.894  0.6881  0.2419 -0.2995
  681MOL0     C91864   3.287   3.182   1.975 -0.4291  0.0381 -0.3662
  681MOL0     C91865   3.370   3.219   2.054 -0.3596 -0.0981  0.6520
  681MOL0     C91866   2.787   3.288   2.420  0.5767  0.6080  0.1207
  681MOL0     C91867   2.684   3.309   2.509 -0.1407  0.2605  0.2857
  681MOL0     H91868   2.213   3.443   2.612 -1.0041 -3.3039 -0.3736
  681MOL0     H91869   2.050   3.527   2.790 -0.1035 -1.0032 -1.1423
  681MOL0     H91870   2.171   3.647   3.214 -0.5368  1.2311  1.6473
  681MOL0     H91871   2.205   3.730   3.064 -1.2487 -0.7503 -2.1996
  681MOL0     H91872   1.964   3.791   3.061 -1.1256  3.1963  1.6860
  681MOL0     H91873   1.957   3.703   3.224 -0.2125 -0.4261  0.8353
  681MOL0     H91874   2.155   3.894   3.273  0.0654  1.4366 -1.0690
  681MOL0     H91875   2.097   3.960   3.126 -2.2468  0.0075 -1.5141
  681MOL0     H91876   1.864   3.971   3.200  0.1934 -0.6791  0.4876
  681MOL0     H91877   1.895   3.905   3.352 -1.7352 -2.5820 -2.0842
  681MOL0     H91878   2.058   4.084   3.408  2.2850 -0.1625 -2.7274
  681MOL0     H91879   2.025   4.162   3.257 -0.0772  0.9800  0.6394
  681MOL0     H91880   1.763   4.121   3.323  1.6799 -1.5303 -0.3066
  681MOL0     H91881   1.826   4.108   3.483 -0.5094  0.2328  0.5032
  681MOL0     H91882   1.872   4.325   3.282 -0.0224  0.6893  0.1805
  681MOL0     H91883   1.733   4.335   3.397 -0.0040  0.2020  1.0117
  681MOL0     H91884   1.907   4.478   3.448 -3.7123  0.0208 -1.3734
  681MOL0     H91885   2.025   4.340   3.467 -0.1896 -2.0093 -1.7636
  681MOL0     H91886   2.029   4.211   3.686 -0.2598  0.0647 -0.8258
  681MOL0     H91887   1.748   4.099   3.938  0.1847 -1.2467  1.4507
  681MOL0     H91888   1.888   4.040   3.836  0.7385  1.8629 -1.7372
  681MOL0     H91889   1.969   4.245   4.043  0.3719 -0.5216  3.5427
  681MOL0     H91890   2.057   4.124   3.963 -0.8098 -2.1302  0.9452
  681MOL0     H91891   1.913   3.948   4.088  3.0708  0.6491 -2.8085
  681MOL0     H91892   1.842   4.084   4.180  0.4698  3.4074 -0.8881
  681MOL0     H91893   2.011   4.014   4.324 -0.3859 -1.3372  0.1759
  681MOL0     H91894   2.060   4.155   4.250 -2.4201  2.5514 -4.3951
  681MOL0     H91895   2.374   3.897   4.094  1.4783 -0.0525  0.3078
  681MOL0     H91896   2.610   3.920   4.083 -0.7166  0.6866  0.2621
  681MOL0     H91897   2.728   3.962   4.218  1.5482 -1.9873  0.1555
  681MOL0     H91898   2.663   3.795   4.187  0.0574  0.5282  1.7124
  681MOL0     H91899   2.889   4.301   4.477  1.0670  1.3018  0.7768
  681MOL0     H91900   3.094   4.320   4.635  1.6843 -1.3244 -1.1245
  681MOL0     H91901   3.007   4.352   4.989  0.2345  0.2217  0.4415
  681MOL0     H91902   3.106   4.225   5.070  1.3526  3.2707  2.4112
  681MOL0     H91903   3.295   4.340   4.915  0.9250  0.9925  0.8238
  681MOL0     H91904   3.178   4.474   4.920  0.7618  1.6803  1.1527
  681MOL0     H91905   3.190   4.455   5.171 -1.9398  0.0955 -1.9241
  681MOL0     H91906   3.331   4.520   5.094 -3.6369  2.8759  4.1459
  681MOL0     H91907   3.281   4.241   5.223 -0.2220 -1.0447 -2.0491
  681MOL0     H91908   3.433   4.283   5.132  0.2036 -1.7201  1.3276
  681MOL0     H91909   3.325   4.409   5.381 -1.6025  0.1877 -0.9170
  681MOL0     H91910   3.468   4.463   5.301 -3.5197  0.9631  0.0418
  681MOL0     H91911   3.398   4.177   5.429  0.3688 -0.6267  3.8139
  681MOL0     H91912   3.550   4.201   5.343 -0.3622  1.5674 -1.3723
  681MOL0     H91913   3.442   4.297   5.615 -0.0426 -0.9787 -0.2729
  681MOL0     H91914   3.567   4.396   5.552  2.1050 -0.8296 -0.0824
  681MOL0     H91915   3.673   4.241   5.712 -0.3987  0.4996  0.6186
  681MOL0     H91916   3.729   4.192   5.549  0.4584  1.7522  0.2969
  681MOL0     H91917   2.855   4.130   4.938  1.4135  0.6267  0.8548
  681MOL0     H91918   2.685   4.073   4.778  0.9355 -1.6379 -0.9587
  681MOL0     H91919   2.393   4.114   4.536 -0.9820 -1.0653  0.2364
  681MOL0     H91920   2.205   4.098   4.435 -0.4338 -1.7167  0.8866
  681MOL0     H91921   2.353   3.478   3.100 -0.0486 -0.4498  0.2714
  681MOL0     H91922   2.509   3.424   2.920  0.3441 -1.7562 -2.1647
  681MOL0     H91923   2.453   3.112   2.379 -1.7125  2.2960  2.5354
  681MOL0     H91924   2.638   3.058   2.221 -0.4835 -1.1135  0.9524
  681MOL0     H91925   2.854   2.976   2.195  0.5994  0.1253  0.7296
  681MOL0     H91926   2.799   3.082   2.065 -1.1567 -2.9028  1.3075
  681MOL0     H91927   3.009   2.948   2.033  1.4971 -0.7810  2.2319
  681MOL0     H91928   3.091   3.037   2.159  1.6780  0.5241 -1.7260
  681MOL0     H91929   3.063   3.252   2.017  0.2362  0.3188 -2.0856
  681MOL0     H91930   2.967   3.160   1.915  0.6589  0.7174  1.4520
  681MOL0     H91931   3.163   3.164   1.796 -2.5634  0.6372  0.4741
  681MOL0     H91932   3.207   3.014   1.874 -0.4997  0.3454 -2.5190
  681MOL0     H91933   3.438   3.243   2.134 -0.8150  1.5826  0.5653
  681MOL0     H91934   2.877   3.342   2.446  1.3871 -1.1057  0.9674
  681MOL0     H91935   2.700   3.376   2.593 -2.9105  1.4650 -0.0210
  682MOL0     O91936   2.268   1.495   4.299  0.3408  0.4395  0.5870
  682MOL0     C91937   2.171   1.436   4.339 -0.1774 -0.0217 -0.3268
  682MOL0     O91938   2.072   1.489   4.394  0.0463  0.2505 -0.5562
  682MOL0     C91939   2.075   1.603   4.466 -0.8309 -0.4664  0.8148
  682MOL0     C91940   2.200   1.653   4.507 -0.3106 -0.5096 -0.8423
  682MOL0     C91941   2.198   1.760   4.601  0.2018  0.2275  0.2858
  682MOL0     C91942   2.073   1.812   4.656  0.2316  0.5246  0.4590
  682MOL0     O91943   2.082   1.909   4.758 -0.6255 -0.4948 -1.1945
  682MOL0     C91944   1.969   1.953   4.829 -0.0452  0.3899 -0.6083
  682MOL0     C91945   1.918   1.839   4.921  0.1799 -0.5735  1.1544
  682MOL0     C91946   1.945   1.864   5.068 -0.4318 -0.4409  0.8986
  682MOL0     C91947   2.085   1.894   5.107  0.5990  0.4133 -0.6216
  682MOL0     C91948   2.106   1.935   5.246  0.1754 -0.4445  0.4555
  682MOL0     C91949   2.259   1.951   5.272  1.3641  0.0999 -0.5384
  682MOL0     C91950   2.279   1.969   5.418 -0.0389  0.0105 -0.5203
  682MOL0     C91951   2.423   1.938   5.457  0.6682  0.4069  0.2419
  682MOL0     N91952   2.462   1.968   5.592  0.4000 -0.4160  0.4608
  682MOL0     C91953   2.448   2.093   5.645  0.2884  0.2484 -0.5388
  682MOL0     C91954   2.499   2.086   5.772  0.8661 -1.4012  0.4779
  682MOL0     C91955   2.503   2.198   5.872 -0.7949 -0.2523  0.3951
  682MOL0     C91956   2.437   2.168   6.014 -1.0054 -0.5092  0.5717
  682MOL0     C91957   2.286   2.173   6.020  0.1584  0.5892  0.4229
  682MOL0     C91958   2.221   2.315   6.010 -0.0192  0.6542 -0.4046
  682MOL0     O91959   2.261   2.414   6.106  0.7622  0.4061  0.3384
  682MOL0     C91960   2.235   2.384   6.233  0.5198 -0.1199 -0.4766
  682MOL0     C91961   2.106   2.401   6.281  0.2539 -0.6337 -0.4808
  682MOL0     C91962   2.071   2.365   6.414 -0.4466  0.1372 -0.1442
  682MOL0     C91963   1.922   2.379   6.457  0.4411 -0.5401 -0.0009
  682MOL0     C91964   2.177   2.325   6.505  0.9550 -0.5241  0.3756
  682MOL0     C91965   2.164   2.292   6.656  0.7422  0.3390 -0.4650
  682MOL0     O91966   2.265   2.232   6.721  0.1286 -0.6597  0.7669
  682MOL0     C91967   2.309   2.299   6.836 -0.4891  0.1618  0.2157
  682MOL0     C91968   2.443   2.267   6.879 -0.4855  0.3723 -0.5803
  682MOL0     C91969   2.475   2.302   7.012 -0.1864  0.0479  0.3843
  682MOL0     C91970   2.389   2.388   7.090 -0.0062 -1.0285 -0.4629
  682MOL0     O91971   2.418   2.414   7.226  0.0341  0.2806  0.5302
  682MOL0     C91972   2.556   2.450   7.252 -0.7013 -0.8850 -0.0354
  682MOL0     C91973   2.581   2.496   7.388 -0.8115 -0.8734  0.4299
  682MOL0     C91974   2.710   2.577   7.398  0.0651 -0.6855  0.7298
  682MOL0     C91975   2.759   2.592   7.545 -0.3583 -0.1959 -0.1321
  682MOL0     C91976   2.897   2.665   7.544  0.7016 -0.7558  0.3235
  682MOL0     C91977   3.022   2.616   7.478  0.8146  0.3350  0.5164
  682MOL0     C91978   3.130   2.727   7.485 -0.6538  0.3266  0.6322
  682MOL0     C91979   3.259   2.694   7.413 -0.5042  0.9143 -0.0496
  682MOL0    Cl91980   3.313   2.516   7.466 -0.7276  0.1554  0.0973
  682MOL0     C91981   2.272   2.433   7.037 -0.1323 -0.1133  0.3127
  682MOL0     C91982   2.229   2.388   6.915 -0.4748 -0.4187 -0.1311
  682MOL0     O91983   2.053   2.307   6.700  0.1147  0.3663  0.0076
  682MOL0     C91984   2.305   2.316   6.445  0.8096  0.0150 -0.2809
  682MOL0     C91985   2.336   2.342   6.319 -0.1646 -0.6235  0.1824
  682MOL0     N91986   2.545   1.966   5.786 -0.1230 -0.0641  0.7832
  682MOL0     N91987   2.520   1.886   5.680 -1.5437 -0.4526 -0.1616
  682MOL0     C91988   1.945   1.768   4.603 -0.1941  0.1305 -0.0273
  682MOL0     C91989   1.951   1.658   4.511  0.9364 -0.4378  0.4046
  682MOL0     C91990   2.182   1.281   4.327 -0.6989  0.0327  0.7809
  682MOL0     C91991   2.305   1.222   4.336  0.2404  0.3643  0.1557
  682MOL0     C91992   2.310   1.083   4.308 -0.8508  0.5211  0.5602
  682MOL0     C91993   2.197   1.016   4.267  0.5150  0.2958 -0.6545
  682MOL0     O91994   2.220   0.879   4.226 -0.3146 -0.4811 -0.5980
  682MOL0     C91995   2.295   0.794   4.309 -0.1120  0.6788 -1.0212
  682MOL0     C91996   2.205   0.760   4.433 -0.2927  0.3748 -0.2477
  682MOL0     C91997   2.056   0.744   4.401 -0.3394 -0.3662  0.5465
  682MOL0     C91998   2.022   0.607   4.342  0.5180 -0.3495  0.0669
  682MOL0     C91999   1.883   0.600   4.305  0.1966 -0.5512  0.4501
  682MOL0     C92000   1.770   0.576   4.268  0.7202 -0.1575 -0.2544
  682MOL0     C92001   2.079   1.076   4.256  0.2490 -0.5756 -0.2604
  682MOL0     C92002   2.065   1.214   4.288  0.5808 -0.0714  0.0039
  682MOL0     H92003   2.299   1.622   4.474 -1.2001 -2.9254 -1.3936
  682MOL0     H92004   2.296   1.797   4.628  0.4604  0.1464 -0.4977
  682MOL0     H92005   1.995   2.049   4.874  1.8180  0.1281 -1.0296
  682MOL0     H92006   1.882   1.976   4.769 -1.4852 -0.6066  0.9931
  682MOL0     H92007   1.811   1.837   4.898  0.1093  0.6217  1.3107
  682MOL0     H92008   1.960   1.744   4.887  0.2045 -0.0818 -0.2737
  682MOL0     H92009   1.885   1.951   5.095 -0.3418  0.4754 -1.6365
  682MOL0     H92010   1.898   1.781   5.123  1.1366 -0.9954  1.4454
  682MOL0     H92011   2.145   1.807   5.078  2.2655  0.5193  2.1168
  682MOL0     H92012   2.113   1.987   5.057 -1.4583  2.1202  1.2175
  682MOL0     H92013   2.054   2.029   5.269  1.1190  0.3849 -0.6929
  682MOL0     H92014   2.059   1.855   5.303 -0.5504 -0.3044  0.0594
  682MOL0     H92015   2.319   1.863   5.245  1.6123  0.3167 -0.6951
  682MOL0     H92016   2.279   2.040   5.212 -2.4538  0.3863 -1.6120
  682MOL0     H92017   2.259   2.071   5.449 -0.2657 -0.8475  2.4422
  682MOL0     H92018   2.211   1.907   5.478  2.3929 -0.1365  2.2952
  682MOL0     H92019   2.495   1.987   5.391 -1.0880  0.6792 -1.5828
  682MOL0     H92020   2.434   1.831   5.439 -4.6911 -0.6709  1.5171
  682MOL0     H92021   2.395   2.177   5.601  0.0478 -0.0414 -0.8100
  682MOL0     H92022   2.607   2.214   5.901 -0.7304 -1.3144  0.7856
  682MOL0     H92023   2.463   2.286   5.821  0.9427  0.4201  0.1203
  682MOL0     H92024   2.475   2.239   6.087  0.0511 -2.6992  2.2809
  682MOL0     H92025   2.469   2.065   6.032  0.5417 -0.9780 -3.6241
  682MOL0     H92026   2.254   2.123   6.111 -0.9778 -2.6062 -1.5651
  682MOL0     H92027   2.237   2.104   5.950 -0.9564 -0.4565  2.1518
  682MOL0     H92028   2.112   2.306   6.002  0.1569 -0.4506 -1.9894
  682MOL0     H92029   2.245   2.356   5.911  1.7514 -3.1410 -1.7290
  682MOL0     H92030   2.023   2.427   6.216 -0.0608 -0.7355 -0.1193
  682MOL0     H92031   1.884   2.277   6.460  0.3020 -0.9345 -5.2677
  682MOL0     H92032   1.901   2.438   6.547 -0.2056 -2.5221  1.2022
  682MOL0     H92033   1.870   2.430   6.375 -0.9633 -0.0623  1.1518
  682MOL0     H92034   2.508   2.219   6.807 -1.6840  0.6696 -1.9252
  682MOL0     H92035   2.569   2.279   7.061  0.0050 -0.4196 -0.1826
  682MOL0     H92036   2.624   2.365   7.240 -0.9622 -0.9966 -0.7714
  682MOL0     H92037   2.592   2.524   7.180 -1.9360 -0.9820 -0.7782
  682MOL0     H92038   2.492   2.550   7.421 -0.9391 -0.6187 -0.3047
  682MOL0     H92039   2.599   2.410   7.453  1.9033  0.4081  1.5485
  682MOL0     H92040   2.701   2.673   7.347 -0.1168 -2.2097 -2.3478
  682MOL0     H92041   2.789   2.518   7.351  0.2852  1.8974 -2.4834
  682MOL0     H92042   2.681   2.646   7.600 -2.0016 -2.6993  0.1552
  682MOL0     H92043   2.766   2.491   7.586 -0.5687 -1.4869 -3.0321
  682MOL0     H92044   2.928   2.688   7.647  1.0498 -2.5345  0.6568
  682MOL0     H92045   2.868   2.761   7.501 -0.6347 -1.2614  0.0440
  682MOL0     H92046   3.052   2.518   7.515  1.9019 -0.4135 -2.1123
  682MOL0     H92047   3.006   2.591   7.373 -0.6181 -0.8758  1.0001
  682MOL0     H92048   3.150   2.755   7.589 -3.2651  2.9202  0.5795
  682MOL0     H92049   3.094   2.821   7.441  1.7066  0.1708 -1.8719
  682MOL0     H92050   3.335   2.772   7.427  2.8698 -1.9153 -0.9827
  682MOL0     H92051   3.253   2.688   7.304  0.7305  3.4822 -0.3399
  682MOL0     H92052   2.205   2.480   7.109 -0.1007  0.5298 -0.0662
  682MOL0     H92053   2.124   2.410   6.901 -0.1877  1.0086 -0.1980
  682MOL0     H92054   2.395   2.281   6.496  3.5240 -1.5550 -5.4778
  682MOL0     H92055   2.435   2.329   6.278  0.0013  2.0807 -0.5101
  682MOL0     H92056   1.848   1.793   4.643 -0.1233  0.7150 -0.2069
  682MOL0     H92057   1.856   1.614   4.480 -0.0736 -0.0189  2.7310
  682MOL0     H92058   2.402   1.262   4.364  1.0070  1.0723 -3.0886
  682MOL0     H92059   2.404   1.031   4.324 -0.4928  1.9869  4.1720
  682MOL0     H92060   2.310   0.710   4.241  1.0006  1.2663 -1.5379
  682MOL0     H92061   2.390   0.830   4.350  0.4285 -0.4635 -1.2324
  682MOL0     H92062   2.224   0.816   4.525 -2.2367 -0.0851  0.4756
  682MOL0     H92063   2.252   0.666   4.464  1.7468  0.5995 -2.3935
  682MOL0     H92064   2.017   0.820   4.333 -1.8875  0.2819  2.0949
  682MOL0     H92065   1.999   0.774   4.489 -2.1232 -0.8050 -0.4172
  682MOL0     H92066   2.042   0.527   4.414  2.2344  0.2536  0.2977
  682MOL0     H92067   2.080   0.594   4.250  0.4380 -1.3032  0.1418
  682MOL0     H92068   1.667   0.559   4.245  0.0383  0.8569  1.8079
  682MOL0     H92069   1.994   1.020   4.218 -2.3615  0.9294  2.7868
  682MOL0     H92070   1.969   1.265   4.281  0.9833  0.5783 -1.0783
  683MOL0     O92071   8.763   5.092   0.729  0.5376  0.5827 -0.1613
  683MOL0     C92072   8.679   5.009   0.781 -0.6273  0.3451  0.0927
  683MOL0     O92073   8.601   5.041   0.878 -0.0322 -0.2103  0.0274
  683MOL0     C92074   8.598   5.172   0.916  0.4159  0.5837  0.3327
  683MOL0     C92075   8.563   5.285   0.828  0.1761  0.1971  0.7373
  683MOL0     C92076   8.570   5.411   0.891 -0.3893  0.0893  0.1362
  683MOL0     C92077   8.603   5.428   1.022 -0.4222  0.4417 -0.2481
  683MOL0     O92078   8.620   5.548   1.078 -0.6154 -0.1083 -0.0613
  683MOL0     C92079   8.534   5.657   1.057 -0.3221  0.6102 -0.2521
  683MOL0     C92080   8.607   5.794   1.098  0.9086  0.2778  0.0066
  683MOL0     C92081   8.530   5.905   1.031  0.1780 -0.5428 -0.2879
  683MOL0     C92082   8.562   6.053   1.071 -0.2533 -0.4070 -0.0904
  683MOL0     C92083   8.496   6.135   0.966  0.2746  0.5960  0.3210
  683MOL0     C92084   8.513   6.278   1.029 -0.5031  0.3318  1.0087
  683MOL0     C92085   8.671   6.329   1.051  1.0888 -1.0350  0.0961
  683MOL0     C92086   8.661   6.477   1.107 -0.3244 -1.1992  0.7931
  683MOL0     N92087   8.781   6.558   1.064  0.6727 -0.5023  0.1969
  683MOL0     C92088   8.860   6.630   1.141 -1.0921  0.1538 -0.2465
  683MOL0     C92089   8.976   6.666   1.068 -0.0075  0.0241 -0.8401
  683MOL0     C92090   9.105   6.742   1.109  0.0513  0.9885  0.0820
  683MOL0     C92091   9.213   6.647   1.158  0.3460  1.1308 -0.4498
  683MOL0     C92092   9.285   6.587   1.043  0.3618 -0.1383 -0.1874
  683MOL0     C92093   9.391   6.498   1.105  1.2041 -0.1340 -0.2028
  683MOL0     O92094   9.519   6.555   1.134  0.4021  0.5217 -0.1480
  683MOL0     C92095   9.604   6.465   1.195 -0.2563 -0.4590 -0.1147
  683MOL0     C92096   9.623   6.336   1.161  0.2890 -0.0776  0.0519
  683MOL0     C92097   9.724   6.244   1.209  1.6517  0.4986 -1.0467
  683MOL0     C92098   9.726   6.105   1.150  0.3163 -0.5286  0.3048
  683MOL0     C92099   9.778   6.286   1.331 -0.1367 -0.3301  0.1853
  683MOL0     C92100   9.878   6.197   1.391  0.1032 -0.4806 -0.5510
  683MOL0     O92101   9.974   6.143   1.313  0.2424 -0.1043 -0.9530
  683MOL0     C92102  10.052   6.039   1.359 -0.5369  0.3756  1.4469
  683MOL0     C92103  10.174   6.027   1.290 -0.0314 -0.1146  0.3891
  683MOL0     C92104  10.264   5.924   1.310 -0.3213  0.0898 -0.0426
  683MOL0     C92105  10.234   5.819   1.402  0.1931 -1.0032  0.5851
  683MOL0     O92106  10.331   5.729   1.422 -0.1320 -0.3390 -0.4398
  683MOL0     C92107  10.338   5.640   1.531 -0.1963  0.6552 -0.6062
  683MOL0     C92108  10.438   5.696   1.628  0.1956 -0.8261 -0.1665
  683MOL0     C92109  10.491   5.612   1.737 -0.3123  0.4001  0.5823
  683MOL0     C92110  10.594   5.687   1.825 -0.0635  0.3017  0.3177
  683MOL0     C92111  10.740   5.710   1.781 -0.3467  0.8320  0.3807
  683MOL0     C92112  10.792   5.619   1.673 -0.0030  0.1742  0.3162
  683MOL0     C92113  10.930   5.674   1.627 -0.1198 -0.4603 -0.2785
  683MOL0     C92114  10.981   5.610   1.495 -0.7152  0.2811  0.2716
  683MOL0    Cl92115  10.946   5.439   1.485  0.5355  0.2065 -0.0570
  683MOL0     C92116  10.109   5.829   1.472 -0.1544 -0.6937  0.1531
  683MOL0     C92117  10.017   5.931   1.436  0.7944  0.3540 -0.0020
  683MOL0     O92118   9.860   6.163   1.508 -0.0366  0.3093 -0.1231
  683MOL0     C92119   9.746   6.407   1.390  0.9365 -0.9389 -0.0331
  683MOL0     C92120   9.659   6.499   1.322 -0.9269  0.7823 -0.2971
  683MOL0     N92121   8.957   6.597   0.950  0.2235  0.4874  0.2145
  683MOL0     N92122   8.845   6.544   0.947  0.1789  0.4377  0.4964
  683MOL0     C92123   8.631   5.322   1.109 -0.6368 -0.4384 -0.1848
  683MOL0     C92124   8.626   5.197   1.050  1.1155 -0.0127  0.2117
  683MOL0     C92125   8.684   4.866   0.746  0.3591 -0.1131  0.0570
  683MOL0     C92126   8.610   4.776   0.825 -0.4897 -0.5883 -0.6508
  683MOL0     C92127   8.620   4.637   0.806  0.2982  0.5306  0.6894
  683MOL0     C92128   8.720   4.586   0.726  0.1599 -0.3566  0.9623
  683MOL0     O92129   8.748   4.447   0.725  0.8877  0.4810  0.5915
  683MOL0     C92130   8.834   4.399   0.627  0.8643 -0.6873 -0.9706
  683MOL0     C92131   8.819   4.257   0.616  0.9149  0.8271 -0.1991
  683MOL0     C92132   8.826   4.209   0.475 -0.8730 -0.1357 -0.0692
  683MOL0     C92133   8.951   4.249   0.393  0.4288  0.5522 -0.2930
  683MOL0     C92134   8.934   4.362   0.312 -0.0317  0.2104 -0.3468
  683MOL0     C92135   8.913   4.452   0.232 -0.1631  1.2032 -0.0557
  683MOL0     C92136   8.786   4.682   0.639 -0.9554  0.7973  0.9183
  683MOL0     C92137   8.772   4.824   0.649  1.7776  0.2541  0.8700
  683MOL0     H92138   8.550   5.265   0.722  1.2152 -1.2215  0.8377
  683MOL0     H92139   8.565   5.494   0.820 -0.3098 -2.1483 -2.6568
  683MOL0     H92140   8.504   5.664   0.952 -4.9340  0.1891  0.7935
  683MOL0     H92141   8.441   5.658   1.115 -0.8758  3.6011 -1.0512
  683MOL0     H92142   8.602   5.799   1.207 -0.1518  3.8186 -0.0754
  683MOL0     H92143   8.714   5.784   1.075  1.0422  0.4418  0.5644
  683MOL0     H92144   8.555   5.898   0.924 -1.3411  2.6889 -0.9665
  683MOL0     H92145   8.422   5.893   1.037  0.2535 -2.0006 -1.2220
  683MOL0     H92146   8.547   6.082   1.175 -0.1992 -0.0859 -0.1703
  683MOL0     H92147   8.668   6.074   1.055 -1.5080  6.1123 -3.4502
  683MOL0     H92148   8.555   6.130   0.874 -1.1304  2.5968 -0.7559
  683MOL0     H92149   8.391   6.110   0.950  0.2445 -0.0141  1.4011
  683MOL0     H92150   8.456   6.341   0.960 -0.4490  1.6521  2.1140
  683MOL0     H92151   8.460   6.287   1.124  3.8906  2.0983  3.6047
  683MOL0     H92152   8.731   6.261   1.113 -2.2313 -1.6359  3.0121
  683MOL0     H92153   8.719   6.335   0.953 -0.4352 -4.8707 -1.0644
  683MOL0     H92154   8.656   6.475   1.217  1.3166  0.3694  0.9417
  683MOL0     H92155   8.572   6.528   1.070  0.5605  1.9651  2.5645
  683MOL0     H92156   8.852   6.639   1.249  4.6518  2.4401  0.3412
  683MOL0     H92157   9.136   6.795   1.018 -0.9213 -0.2551 -1.0177
  683MOL0     H92158   9.094   6.818   1.187  3.0723  0.7368  0.8810
  683MOL0     H92159   9.167   6.575   1.227 -0.1675  3.3492  1.6904
  683MOL0     H92160   9.275   6.707   1.225 -1.7517 -0.3299  3.0978
  683MOL0     H92161   9.331   6.665   0.981  1.2449 -0.0035  0.6097
  683MOL0     H92162   9.217   6.542   0.971 -2.0735  1.2492  1.1030
  683MOL0     H92163   9.389   6.407   1.044  0.8346 -0.9895  1.0292
  683MOL0     H92164   9.354   6.461   1.201  2.1236  0.1642  0.2752
  683MOL0     H92165   9.587   6.307   1.063  0.5227 -2.8091  0.6668
  683MOL0     H92166   9.636   6.087   1.090 -0.4254  1.3259  0.7726
  683MOL0     H92167   9.811   6.102   1.082 -1.5868  1.3106 -2.3805
  683MOL0     H92168   9.727   6.026   1.226  1.1246 -1.1033 -0.2886
  683MOL0     H92169  10.202   6.108   1.223  0.7704  0.3301  1.2355
  683MOL0     H92170  10.364   5.920   1.267 -0.8667 -2.0628 -1.2973
  683MOL0     H92171  10.245   5.619   1.584  0.0405  1.1224  0.0156
  683MOL0     H92172  10.384   5.551   1.487  3.9036  1.3249  1.7822
  683MOL0     H92173  10.522   5.730   1.566 -0.2800 -0.4923 -0.6311
  683MOL0     H92174  10.401   5.783   1.683 -0.0645  0.1220 -1.7683
  683MOL0     H92175  10.536   5.524   1.690 -0.5574  1.5962 -2.0036
  683MOL0     H92176  10.406   5.582   1.800 -0.1437  0.6445  0.9305
  683MOL0     H92177  10.541   5.776   1.859 -0.2492  0.6043 -0.7329
  683MOL0     H92178  10.603   5.631   1.919 -0.3174  3.3013  2.2695
  683MOL0     H92179  10.799   5.709   1.873  0.1931 -2.4606  0.1154
  683MOL0     H92180  10.735   5.806   1.730  0.5036  1.6670  1.8163
  683MOL0     H92181  10.794   5.517   1.713 -1.9261  0.4597  1.2340
  683MOL0     H92182  10.715   5.615   1.595 -1.4806 -1.5623  1.7691
  683MOL0     H92183  11.006   5.647   1.700 -0.3217  0.1097  0.1541
  683MOL0     H92184  10.934   5.784   1.620  2.3227 -0.4959 -0.1819
  683MOL0     H92185  11.089   5.623   1.479 -1.3800  3.6725 -2.9738
  683MOL0     H92186  10.946   5.658   1.403  1.8015 -2.0306 -2.0603
  683MOL0     H92187  10.072   5.762   1.549 -1.6253 -0.1425 -0.0297
  683MOL0     H92188   9.920   5.933   1.484  0.1204 -0.7326 -1.2620
  683MOL0     H92189   9.788   6.432   1.487 -1.0255  0.2194  0.5721
  683MOL0     H92190   9.637   6.588   1.380  0.1795  0.3026  0.9106
  683MOL0     H92191   8.651   5.330   1.216  1.9145 -1.0758 -0.5588
  683MOL0     H92192   8.652   5.117   1.119 -1.1958 -2.1161 -1.1718
  683MOL0     H92193   8.532   4.818   0.888 -2.4235 -0.0851 -3.2141
  683MOL0     H92194   8.562   4.582   0.880 -0.3851  0.8949  0.4385
  683MOL0     H92195   8.800   4.439   0.531 -0.9632 -1.0223 -0.5076
  683MOL0     H92196   8.934   4.440   0.644 -0.7196  2.8600  1.1783
  683MOL0     H92197   8.723   4.224   0.658  1.2956  2.7277  2.3783
  683MOL0     H92198   8.901   4.210   0.671  1.8528 -0.2800 -2.4412
  683MOL0     H92199   8.738   4.242   0.420 -0.6826 -1.0543 -0.9478
  683MOL0     H92200   8.822   4.100   0.484  2.2604 -0.9431 -4.7500
  683MOL0     H92201   8.969   4.161   0.330 -0.2366 -0.7583  1.2532
  683MOL0     H92202   9.038   4.274   0.455 -0.8074 -0.8982  2.1813
  683MOL0     H92203   8.881   4.525   0.160  2.1047  3.3352  0.9416
  683MOL0     H92204   8.864   4.646   0.571  0.7014 -0.7884  3.4834
  683MOL0     H92205   8.836   4.891   0.593  1.7391 -0.6167 -0.2505
  684MOL0     O92206  11.300   1.467   3.806  0.0150 -0.0398 -0.6658
  684MOL0     C92207  11.302   1.418   3.693  0.5615 -0.4317  0.3795
  684MOL0     O92208  11.413   1.365   3.627  0.5854 -0.3509 -1.4494
  684MOL0     C92209  11.535   1.358   3.695  0.6773  0.0318  0.1848
  684MOL0     C92210  11.635   1.459   3.679 -0.0600 -0.4224  0.1115
  684MOL0     C92211  11.755   1.450   3.748  0.2188 -0.2645  0.4209
  684MOL0     C92212  11.790   1.353   3.839 -0.3159 -0.3127  0.9070
  684MOL0     O92213  11.910   1.361   3.908 -0.2556  0.4675  0.0529
  684MOL0     C92214  12.022   1.410   3.841  0.9891  0.6362  0.4323
  684MOL0     C92215  12.144   1.366   3.924 -0.9265 -0.1969 -0.5178
  684MOL0     C92216  12.146   1.445   4.057  0.3045 -0.1118  1.0959
  684MOL0     C92217  12.255   1.553   4.058 -0.2425 -0.8482  0.6239
  684MOL0     C92218  12.220   1.671   3.965 -1.5790 -0.7786 -0.1869
  684MOL0     C92219  12.312   1.791   3.976 -0.6134  0.1407 -0.2879
  684MOL0     C92220  12.279   1.902   4.074 -0.5431  0.8055 -0.1476
  684MOL0     C92221  12.361   2.030   4.060  0.4313  0.1468  0.1779
  684MOL0     N92222  12.356   2.105   4.190 -0.3830  0.3164 -0.3416
  684MOL0     C92223  12.419   2.069   4.307 -0.5925 -0.1018  0.5962
  684MOL0     C92224  12.433   2.183   4.374 -0.4579 -0.1610  0.8940
  684MOL0     C92225  12.519   2.215   4.501  1.3847 -0.0807 -0.4448
  684MOL0     C92226  12.417   2.253   4.620 -0.6396  0.2601  0.8390
  684MOL0     C92227  12.482   2.194   4.749 -0.2981 -0.4819 -0.4674
  684MOL0     C92228  12.635   2.224   4.773 -0.0993  0.2332 -0.6660
  684MOL0     O92229  12.675   2.183   4.904  0.1238  0.7934  0.0818
  684MOL0     C92230  12.704   2.059   4.952  0.0023 -0.7069  0.4400
  684MOL0     C92231  12.718   1.954   4.870 -0.3576  0.6149  0.0864
  684MOL0     C92232  12.756   1.824   4.922 -1.1923 -0.4670 -0.0838
  684MOL0     C92233  12.752   1.713   4.822 -0.0284  0.1051 -0.2463
  684MOL0     C92234  12.796   1.807   5.062  0.5226  0.5172 -0.0414
  684MOL0     C92235  12.832   1.685   5.129  0.0318  0.8144 -0.1250
  684MOL0     O92236  12.838   1.693   5.269 -0.0129 -0.3515  1.0139
  684MOL0     C92237  12.893   1.591   5.337  0.3973  0.5429  0.5594
  684MOL0     C92238  12.976   1.626   5.443 -1.1173  0.8109  0.1638
  684MOL0     C92239  13.034   1.526   5.518  0.1233 -0.2183 -0.0294
  684MOL0     C92240  13.006   1.387   5.493 -0.4113  0.1142 -0.4104
  684MOL0     O92241  13.061   1.289   5.578  0.1145  0.5347  0.3027
  684MOL0     C92242  13.207   1.322   5.611  0.4381  0.7154 -0.3776
  684MOL0     C92243  13.303   1.297   5.497 -0.5295  0.3877  0.5780
  684MOL0     C92244  13.410   1.410   5.474 -0.9700  0.7648 -1.2209
  684MOL0     C92245  13.475   1.383   5.335  0.4650  0.4296  0.6163
  684MOL0     C92246  13.606   1.455   5.321 -0.0413  0.1969  0.1670
  684MOL0     C92247  13.707   1.350   5.277 -0.8843 -0.1920  0.9506
  684MOL0     C92248  13.854   1.393   5.268 -0.1100 -0.1021 -0.4580
  684MOL0     C92249  13.931   1.291   5.182 -0.2872 -0.9238  0.7141
  684MOL0    Cl92250  14.107   1.343   5.186  0.4303 -0.2890 -0.2154
  684MOL0     C92251  12.912   1.350   5.404  0.2091 -0.0294 -0.0019
  684MOL0     C92252  12.849   1.450   5.325 -0.5322  0.1682 -0.6318
  684MOL0     O92253  12.860   1.582   5.061  0.7086 -0.4619 -0.0341
  684MOL0     C92254  12.785   1.920   5.143 -1.0987 -0.9610  0.1167
  684MOL0     C92255  12.735   2.037   5.084 -0.4586  0.0146 -0.4957
  684MOL0     N92256  12.385   2.286   4.299  0.0913  0.1880 -0.9757
  684MOL0     N92257  12.336   2.241   4.195  0.6130  0.9583  0.0683
  684MOL0     C92258  11.693   1.258   3.853  0.7187  0.1134  0.0580
  684MOL0     C92259  11.561   1.261   3.788 -0.7343  0.6462 -0.5587
  684MOL0     C92260  11.169   1.418   3.615 -0.2945 -0.2549 -0.2624
  684MOL0     C92261  11.055   1.478   3.672 -0.9553  0.1717 -0.5158
  684MOL0     C92262  10.939   1.492   3.601 -0.2338 -0.5311 -0.2814
  684MOL0     C92263  10.934   1.450   3.465  0.0988 -0.3751 -0.1939
  684MOL0     O92264  10.830   1.481   3.377 -0.0930 -0.4900 -0.0633
  684MOL0     C92265  10.693   1.459   3.409  0.2777 -0.2018 -0.2691
  684MOL0     C92266  10.619   1.425   3.277  0.6083 -0.7739  0.4934
  684MOL0     C92267  10.647   1.272   3.244  0.1157 -0.9188  0.4048
  684MOL0     C92268  10.573   1.225   3.121  0.1844 -0.4321 -0.1541
  684MOL0     C92269  10.434   1.249   3.123  0.5353 -0.7141 -0.5621
  684MOL0     C92270  10.316   1.272   3.126 -0.4878  0.1148  1.6479
  684MOL0     C92271  11.050   1.396   3.413 -0.9523  0.2374 -0.8576
  684MOL0     C92272  11.169   1.375   3.485 -0.0037  0.0975  0.7674
  684MOL0     H92273  11.629   1.544   3.612 -2.8004 -1.0934 -0.6108
  684MOL0     H92274  11.819   1.534   3.720  1.9153 -2.3910 -2.6103
  684MOL0     H92275  12.031   1.361   3.743 -1.1454  1.3502 -0.1650
  684MOL0     H92276  12.016   1.516   3.815 -2.6548  0.1117 -1.4835
  684MOL0     H92277  12.148   1.260   3.952 -2.1651 -0.1061  0.0838
  684MOL0     H92278  12.235   1.400   3.874  1.0398  2.7695  4.3293
  684MOL0     H92279  12.050   1.496   4.073 -0.8299 -1.8926  0.1773
  684MOL0     H92280  12.168   1.383   4.144  1.1348 -1.8751 -0.3199
  684MOL0     H92281  12.268   1.599   4.156 -0.8271  1.1443 -0.1984
  684MOL0     H92282  12.354   1.522   4.024  0.3636  2.0222 -0.5011
  684MOL0     H92283  12.212   1.662   3.856  1.1812  3.1226 -0.8824
  684MOL0     H92284  12.121   1.710   3.991 -1.2802 -0.2295  0.1361
  684MOL0     H92285  12.414   1.758   3.997 -0.5500 -1.1101 -2.2849
  684MOL0     H92286  12.302   1.843   3.880 -2.2899 -0.3770 -0.4324
  684MOL0     H92287  12.178   1.936   4.047 -1.0087 -1.3363 -1.3640
  684MOL0     H92288  12.285   1.861   4.175  0.6485 -2.7086 -1.4759
  684MOL0     H92289  12.305   2.079   3.980 -1.7056 -0.6351  1.0965
  684MOL0     H92290  12.467   2.018   4.039  1.2358  1.0194  3.1596
  684MOL0     H92291  12.451   1.969   4.332 -0.9645 -0.7188 -1.2383
  684MOL0     H92292  12.568   2.119   4.522  0.5744 -0.2146  0.9337
  684MOL0     H92293  12.591   2.292   4.473  0.0818  1.6285  0.6667
  684MOL0     H92294  12.318   2.209   4.604 -0.6660  0.3576  0.7357
  684MOL0     H92295  12.415   2.361   4.638 -0.3095  0.5835 -0.9439
  684MOL0     H92296  12.457   2.087   4.747 -2.4683 -0.0977  1.7594
  684MOL0     H92297  12.414   2.238   4.822 -3.6665 -1.7021 -2.5599
  684MOL0     H92298  12.659   2.329   4.754 -0.8916  0.3586 -1.0013
  684MOL0     H92299  12.701   2.168   4.706  1.0258  1.5254 -0.6760
  684MOL0     H92300  12.710   1.969   4.763 -0.2237  1.3318  0.1751
  684MOL0     H92301  12.701   1.753   4.734 -2.2323  1.5746  1.6052
  684MOL0     H92302  12.855   1.680   4.805 -0.3087 -0.8055 -0.2408
  684MOL0     H92303  12.696   1.629   4.865 -2.1668  2.0733  1.0194
  684MOL0     H92304  12.999   1.730   5.463  0.6981  1.1819 -3.1065
  684MOL0     H92305  13.090   1.560   5.604 -1.2998  0.2572  0.7377
  684MOL0     H92306  13.218   1.420   5.658 -2.8622  0.7822  0.4673
  684MOL0     H92307  13.247   1.242   5.673  1.8440  1.2372 -0.5706
  684MOL0     H92308  13.357   1.202   5.502 -0.3876  0.2788 -1.7687
  684MOL0     H92309  13.244   1.309   5.406 -1.3231  2.2018  1.2746
  684MOL0     H92310  13.488   1.409   5.550 -1.4683  2.4916 -0.6319
  684MOL0     H92311  13.364   1.508   5.489  1.3502  2.0550 -2.0363
  684MOL0     H92312  13.489   1.275   5.321  5.6967  1.0523 -1.1829
  684MOL0     H92313  13.407   1.433   5.265 -0.7826  0.5697  1.8788
  684MOL0     H92314  13.643   1.503   5.412 -0.8968 -0.0782  0.6755
  684MOL0     H92315  13.588   1.538   5.253  0.3081  0.5759  0.5262
  684MOL0     H92316  13.697   1.253   5.325 -0.3135 -0.5214  0.4279
  684MOL0     H92317  13.688   1.323   5.172  3.8366 -0.6216 -0.0158
  684MOL0     H92318  13.901   1.396   5.367  3.0635 -0.6403 -1.8261
  684MOL0     H92319  13.866   1.494   5.228  2.1920  1.4600  3.5394
  684MOL0     H92320  13.902   1.304   5.078  2.5890 -0.5249 -0.1019
  684MOL0     H92321  13.914   1.187   5.212 -0.8541 -2.0270 -2.9448
  684MOL0     H92322  12.889   1.244   5.403 -0.3129  0.0641  0.6975
  684MOL0     H92323  12.791   1.410   5.243  1.1701 -1.4405 -1.1038
  684MOL0     H92324  12.811   1.918   5.249 -1.1414  0.2281  0.1656
  684MOL0     H92325  12.731   2.119   5.155 -0.3328  0.5168 -1.0550
  684MOL0     H92326  11.715   1.172   3.916  0.1319 -0.0409  0.0506
  684MOL0     H92327  11.487   1.183   3.806  0.3493  0.3423  3.7372
  684MOL0     H92328  11.058   1.512   3.775 -0.8734 -1.7273  0.1624
  684MOL0     H92329  10.846   1.530   3.641 -1.0171 -0.9576 -1.6179
  684MOL0     H92330  10.670   1.385   3.486  1.2873 -0.2108  0.0399
  684MOL0     H92331  10.639   1.545   3.451 -0.3032 -1.7786  2.5240
  684MOL0     H92332  10.667   1.476   3.193  2.4625 -1.0679  1.3319
  684MOL0     H92333  10.512   1.446   3.276  0.7158 -0.1765  1.0008
  684MOL0     H92334  10.623   1.203   3.326 -1.6211  2.3189  2.8600
  684MOL0     H92335  10.753   1.276   3.218 -0.1489  1.4205 -0.5664
  684MOL0     H92336  10.588   1.119   3.099  1.4631 -0.5732  1.2112
  684MOL0     H92337  10.614   1.277   3.035 -3.5273  1.5747 -0.8974
  684MOL0     H92338  10.211   1.291   3.121 -0.6232 -0.9096 -0.7109
  684MOL0     H92339  11.030   1.395   3.306  0.1974  0.1641 -1.0936
  684MOL0     H92340  11.252   1.324   3.438 -2.1664 -1.2772 -1.8723
  685MOL0     O92341   4.532   0.654   0.014  0.2410 -1.0045 -0.0119
  685MOL0     C92342   4.628   0.730   0.047  0.3740  0.1778 -0.7408
  685MOL0     O92343   4.685   0.734   0.168 -0.2185 -0.5164 -0.5819
  685MOL0     C92344   4.635   0.679   0.288 -0.3237 -0.7525 -1.2005
  685MOL0     C92345   4.501   0.650   0.312  0.5601 -0.0706 -0.9278
  685MOL0     C92346   4.461   0.590   0.435 -0.1454 -0.2199 -0.0005
  685MOL0     C92347   4.554   0.575   0.537 -0.7750  0.0825  0.2102
  685MOL0     O92348   4.501   0.507   0.644  0.1611 -0.2538  0.5520
  685MOL0     C92349   4.561   0.507   0.770 -0.0351  1.0651  0.4750
  685MOL0     C92350   4.537   0.639   0.837  0.7512  0.0470 -0.5585
  685MOL0     C92351   4.641   0.670   0.944  0.1564  1.0253  0.8790
  685MOL0     C92352   4.687   0.822   0.948  0.7829 -0.3758  0.0255
  685MOL0     C92353   4.828   0.833   1.008 -0.2326  0.6429 -0.6896
  685MOL0     C92354   4.877   0.983   1.026  0.9547 -0.0378  0.6526
  685MOL0     C92355   5.012   1.013   1.095  1.1223  0.6161  0.2240
  685MOL0     C92356   5.132   0.934   1.023  0.1738 -0.3763 -0.2178
  685MOL0     N92357   5.264   0.951   1.092 -0.2643  0.0898  0.2829
  685MOL0     C92358   5.376   1.015   1.043  0.0632  0.3545 -0.0640
  685MOL0     C92359   5.474   1.002   1.126  0.3950 -0.0511  0.1198
  685MOL0     C92360   5.613   1.057   1.114  0.2397 -0.0300 -0.0821
  685MOL0     C92361   5.632   1.199   1.170 -0.3040 -0.3248  0.0298
  685MOL0     C92362   5.716   1.192   1.300  0.0294  0.3705 -0.1588
  685MOL0     C92363   5.638   1.132   1.424 -0.8274 -0.4250 -0.1857
  685MOL0     O92364   5.710   1.172   1.532 -0.3757 -0.2171 -0.6972
  685MOL0     C92365   5.628   1.167   1.646  1.0811  0.4793  0.1096
  685MOL0     C92366   5.567   1.048   1.690  0.0634  0.5124 -0.2829
  685MOL0     C92367   5.488   1.045   1.805 -0.0077 -0.5838  0.1874
  685MOL0     C92368   5.428   0.912   1.836  0.2935  0.0135 -0.2062
  685MOL0     C92369   5.469   1.168   1.886 -0.0387  0.0206 -0.0610
  685MOL0     C92370   5.382   1.175   2.004 -0.0911  0.0156 -0.7851
  685MOL0     O92371   5.361   1.308   2.046 -0.2611 -0.0112  0.6438
  685MOL0     C92372   5.280   1.342   2.148  0.1475 -0.8899 -0.5499
  685MOL0     C92373   5.189   1.257   2.219  0.2582 -0.2558 -0.2996
  685MOL0     C92374   5.108   1.316   2.320 -0.0626 -0.5178  0.2697
  685MOL0     C92375   5.142   1.447   2.369 -0.1728  0.8364  0.1771
  685MOL0     O92376   5.062   1.480   2.475  0.1223  0.8861 -0.7126
  685MOL0     C92377   4.969   1.584   2.446  0.5800 -1.2681  0.7048
  685MOL0     C92378   4.860   1.587   2.553 -0.7347  0.1461  0.1525
  685MOL0     C92379   4.741   1.684   2.542  0.1461 -0.7116 -0.1817
  685MOL0     C92380   4.780   1.833   2.582  0.9765  0.0580  0.1291
  685MOL0     C92381   4.691   1.953   2.519  0.4739 -0.5279  0.1900
  685MOL0     C92382   4.536   1.930   2.553 -0.0782 -0.0832  0.1033
  685MOL0     C92383   4.503   1.963   2.697  0.8474 -0.0152  0.0410
  685MOL0     C92384   4.354   1.944   2.711  0.6461 -0.9080 -0.4084
  685MOL0    Cl92385   4.247   2.058   2.610  0.2209 -0.5916  0.0255
  685MOL0     C92386   5.236   1.529   2.304  0.2133 -0.6785  0.1916
  685MOL0     C92387   5.302   1.470   2.196 -1.1634  0.2216  0.9401
  685MOL0     O92388   5.340   1.076   2.062 -0.1015  0.4296 -0.3586
  685MOL0     C92389   5.547   1.277   1.851  0.6462  0.1088  0.5823
  685MOL0     C92390   5.615   1.279   1.729  0.9213  0.0446 -0.8701
  685MOL0     N92391   5.422   0.943   1.240  0.2930  0.5051  0.8496
  685MOL0     N92392   5.296   0.908   1.218  0.2903  0.4554 -0.0305
  685MOL0     C92393   4.685   0.614   0.513  0.3150  0.0524 -0.4508
  685MOL0     C92394   4.725   0.680   0.394 -0.7381 -0.8550  0.4135
  685MOL0     C92395   4.695   0.798  -0.065 -0.2087 -0.2359  1.0045
  685MOL0     C92396   4.657   0.782  -0.201  0.1847  0.3428 -0.2242
  685MOL0     C92397   4.713   0.852  -0.303  0.5653 -0.0052  0.2525
  685MOL0     C92398   4.814   0.951  -0.274 -0.1555 -0.1944 -0.5441
  685MOL0     O92399   4.860   1.040  -0.372 -0.0624  0.1711  0.5633
  685MOL0     C92400   4.792   1.167  -0.397 -0.6584  1.0562 -0.0067
  685MOL0     C92401   4.802   1.228  -0.530 -0.8762  0.3971 -0.1948
  685MOL0     C92402   4.957   1.241  -0.571  0.5638  0.0618  0.1977
  685MOL0     C92403   4.975   1.342  -0.686 -0.5270  0.1861  1.0059
  685MOL0     C92404   5.102   1.320  -0.762  0.4909  0.2089  0.0486
  685MOL0     C92405   5.213   1.299  -0.820 -1.4288 -0.2338  0.1281
  685MOL0     C92406   4.852   0.969  -0.139 -1.8177  0.6523  0.3674
  685MOL0     C92407   4.792   0.901  -0.033  0.1856 -0.0832 -0.5458
  685MOL0     H92408   4.432   0.661   0.229  1.0094 -0.6642 -1.3809
  685MOL0     H92409   4.359   0.554   0.431 -0.3723  0.5137 -2.4124
  685MOL0     H92410   4.528   0.431   0.841 -0.7085  1.7290  0.8798
  685MOL0     H92411   4.666   0.477   0.771 -0.4731 -0.6543 -1.1103
  685MOL0     H92412   4.526   0.722   0.766  1.5227  2.3015  1.7923
  685MOL0     H92413   4.437   0.643   0.882  1.0723  1.6142  0.1081
  685MOL0     H92414   4.613   0.631   1.042  1.1836 -3.3028 -0.3565
  685MOL0     H92415   4.736   0.623   0.918 -0.8192 -0.3044 -0.3815
  685MOL0     H92416   4.708   0.858   0.847  2.0717  1.1498  0.7903
  685MOL0     H92417   4.612   0.879   1.003 -1.5050 -2.1730 -1.0795
  685MOL0     H92418   4.823   0.773   1.099 -0.4303 -0.3019 -1.3155
  685MOL0     H92419   4.905   0.790   0.943  0.3464  1.9733 -0.9203
  685MOL0     H92420   4.882   1.037   0.930  0.3594  1.8730  1.6477
  685MOL0     H92421   4.800   1.033   1.085 -1.0145 -1.3020 -0.7268
  685MOL0     H92422   5.023   1.121   1.109  1.2240  0.6203  0.1185
  685MOL0     H92423   5.013   0.979   1.198 -1.8337 -1.6541 -0.3787
  685MOL0     H92424   5.133   0.959   0.916 -1.3536  2.2689  0.3010
  685MOL0     H92425   5.113   0.826   1.030  0.4482 -0.4329 -0.3172
  685MOL0     H92426   5.392   1.072   0.952  0.9600  0.8179  0.3733
  685MOL0     H92427   5.687   0.983   1.145 -0.3366 -0.6837 -0.2601
  685MOL0     H92428   5.624   1.057   1.005  0.1694 -2.9496 -0.1553
  685MOL0     H92429   5.538   1.250   1.192 -0.2942 -0.8514  1.4088
  685MOL0     H92430   5.687   1.260   1.098 -0.4781 -1.3242 -0.9808
  685MOL0     H92431   5.743   1.297   1.316  1.6130  0.2552 -1.7104
  685MOL0     H92432   5.803   1.139   1.261  0.2033  0.9376 -0.5608
  685MOL0     H92433   5.624   1.024   1.420 -0.8313 -0.4297 -0.0341
  685MOL0     H92434   5.538   1.177   1.428 -0.6123 -0.0200  1.5045
  685MOL0     H92435   5.595   0.964   1.628 -0.7770  2.6674 -3.8729
  685MOL0     H92436   5.329   0.912   1.789  0.9001  2.8378 -1.6928
  685MOL0     H92437   5.486   0.829   1.795 -1.3647  0.2251 -3.2772
  685MOL0     H92438   5.413   0.895   1.943  3.4812  2.5237  0.8234
  685MOL0     H92439   5.157   1.157   2.193 -0.2763  0.0730 -0.9027
  685MOL0     H92440   5.034   1.250   2.362  0.5694 -0.9094  0.7892
  685MOL0     H92441   5.025   1.678   2.444  1.7238 -1.9081  1.7401
  685MOL0     H92442   4.927   1.568   2.346  2.4577  0.0195 -0.3566
  685MOL0     H92443   4.822   1.484   2.553 -1.0017  0.2428 -0.3130
  685MOL0     H92444   4.902   1.597   2.654  2.8199 -0.8511 -1.0989
  685MOL0     H92445   4.654   1.657   2.603 -0.4965 -0.2693 -0.8830
  685MOL0     H92446   4.719   1.684   2.435  0.8827  2.5120 -0.4297
  685MOL0     H92447   4.755   1.843   2.688 -5.3558 -2.1490 -0.7375
  685MOL0     H92448   4.886   1.853   2.561  1.3334 -3.2832 -1.9455
  685MOL0     H92449   4.696   1.943   2.410  0.7155 -0.3525  0.1851
  685MOL0     H92450   4.738   2.044   2.556 -0.8949  1.2706 -2.2271
  685MOL0     H92451   4.479   2.002   2.492  0.5594  0.9466  0.7012
  685MOL0     H92452   4.497   1.831   2.526 -0.7057  0.6686 -1.9580
  685MOL0     H92453   4.536   2.064   2.725  2.3013 -0.2609 -0.7225
  685MOL0     H92454   4.548   1.886   2.760 -1.9508 -0.7411  1.3455
  685MOL0     H92455   4.336   1.958   2.818  1.9651  2.6877 -0.5276
  685MOL0     H92456   4.332   1.840   2.686  0.5377 -0.8164 -0.6929
  685MOL0     H92457   5.261   1.633   2.323 -0.1539 -0.8088  1.4852
  685MOL0     H92458   5.370   1.528   2.134 -0.8880 -2.6688 -1.7124
  685MOL0     H92459   5.548   1.365   1.914  1.5194 -0.0351  0.7847
  685MOL0     H92460   5.678   1.366   1.714  0.7672  0.5523  1.1165
  685MOL0     H92461   4.759   0.604   0.592 -0.6188 -0.9389  0.3402
  685MOL0     H92462   4.829   0.704   0.377 -0.2353 -1.8202  1.9421
  685MOL0     H92463   4.571   0.723  -0.232 -0.8871  2.4877 -1.6200
  685MOL0     H92464   4.684   0.825  -0.404  0.0500  0.5015  0.2600
  685MOL0     H92465   4.685   1.152  -0.377 -0.2136 -1.2456  0.9548
  685MOL0     H92466   4.834   1.240  -0.328  2.1898 -1.4300  1.0953
  685MOL0     H92467   4.765   1.330  -0.511 -2.5830 -0.0881 -0.6855
  685MOL0     H92468   4.735   1.168  -0.593  1.0271 -1.4730 -0.5207
  685MOL0     H92469   4.993   1.140  -0.595 -0.3007 -0.8774  2.5804
  685MOL0     H92470   5.009   1.284  -0.485 -2.2800 -1.4952  2.8717
  685MOL0     H92471   4.950   1.444  -0.656 -1.6614 -0.7138  3.4198
  685MOL0     H92472   4.903   1.310  -0.762  2.6788 -1.0684 -1.7403
  685MOL0     H92473   5.308   1.281  -0.866 -1.8335 -1.5551 -0.2435
  685MOL0     H92474   4.922   1.051  -0.127 -0.4800 -0.6313  1.8321
  685MOL0     H92475   4.818   0.936   0.066  0.9348 -0.0952 -0.7280
  686MOL0     O92476  10.797   5.570   4.805 -0.1838 -0.0130  0.1681
  686MOL0     C92477  10.807   5.450   4.799  0.1827  1.1696  0.4421
  686MOL0     O92478  10.830   5.371   4.686 -1.3959 -0.0751 -0.0895
  686MOL0     C92479  10.857   5.434   4.567 -0.1575  0.4025  0.3001
  686MOL0     C92480  10.940   5.373   4.475 -0.4489  0.1925 -0.2640
  686MOL0     C92481  10.965   5.441   4.351  0.4372 -0.1033  0.2813
  686MOL0     C92482  10.895   5.559   4.325  0.5144 -0.2309  0.0103
  686MOL0     O92483  10.924   5.611   4.201  0.0845 -0.2221 -0.2110
  686MOL0     C92484  10.955   5.756   4.197 -0.3586 -0.0709 -0.0275
  686MOL0     C92485  11.081   5.766   4.105 -0.9610 -1.1665  0.0349
  686MOL0     C92486  11.199   5.703   4.175  0.0890  0.3158  0.1033
  686MOL0     C92487  11.265   5.792   4.279  1.2848  1.1100 -0.0430
  686MOL0     C92488  11.342   5.707   4.383  1.4804  0.3863  0.7920
  686MOL0     C92489  11.408   5.798   4.487  0.3222  0.6632  0.1980
  686MOL0     C92490  11.445   5.715   4.611 -0.1974 -0.3135 -0.6791
  686MOL0     C92491  11.517   5.801   4.714  0.3351 -0.2567  0.6024
  686MOL0     N92492  11.652   5.844   4.667 -0.0829 -0.2290 -0.5120
  686MOL0     C92493  11.700   5.966   4.677  0.0557 -0.2003 -0.1673
  686MOL0     C92494  11.833   5.951   4.646 -0.6315 -0.5718  0.0866
  686MOL0     C92495  11.941   6.055   4.639 -0.3530 -0.4780  0.0655
  686MOL0     C92496  12.009   6.051   4.775  0.2838  0.1182 -0.1113
  686MOL0     C92497  12.112   6.155   4.794 -0.2194 -0.0400 -0.5958
  686MOL0     C92498  12.213   6.131   4.906 -0.0696 -0.1523 -0.1644
  686MOL0     O92499  12.156   6.176   5.029  0.4403 -0.0204 -0.1943
  686MOL0     C92500  12.250   6.192   5.130 -0.3446  0.7448 -0.5697
  686MOL0     C92501  12.385   6.144   5.132  0.3681  0.8138  0.5464
  686MOL0     C92502  12.471   6.170   5.241  0.1187 -0.4842 -0.7945
  686MOL0     C92503  12.621   6.161   5.221 -0.5007 -0.0930  0.6575
  686MOL0     C92504  12.410   6.207   5.362 -0.6236  0.2691  0.2388
  686MOL0     C92505  12.484   6.220   5.484  0.3639  0.5964 -0.2396
  686MOL0     O92506  12.546   6.101   5.527  0.0885 -0.3120 -0.2643
  686MOL0     C92507  12.635   6.123   5.628 -0.3566  1.6571 -0.9562
  686MOL0     C92508  12.602   6.081   5.761 -0.2548 -0.1052  0.8375
  686MOL0     C92509  12.697   6.095   5.862 -1.0034 -1.2678 -0.0591
  686MOL0     C92510  12.831   6.152   5.832  0.5563 -0.0757  0.6162
  686MOL0     O92511  12.923   6.162   5.929  0.3117  0.0825  0.2924
  686MOL0     C92512  13.057   6.208   5.906 -0.5846  0.3284  0.1242
  686MOL0     C92513  13.124   6.179   6.039 -0.1405 -0.0996 -0.8204
  686MOL0     C92514  13.265   6.242   6.044 -0.2373  0.9164  0.9166
  686MOL0     C92515  13.331   6.213   6.180 -0.5964 -0.9843 -0.6621
  686MOL0     C92516  13.403   6.082   6.205 -0.0601 -0.2969 -0.5146
  686MOL0     C92517  13.464   6.071   6.340  0.1620 -0.9285 -0.6124
  686MOL0     C92518  13.361   6.081   6.457 -0.3792  0.8752  0.5736
  686MOL0     C92519  13.420   6.036   6.592  0.3921  0.8004  0.2965
  686MOL0    Cl92520  13.566   5.927   6.601 -0.4277  0.1488  0.3175
  686MOL0     C92521  12.863   6.189   5.707  0.2051  0.2206  0.2145
  686MOL0     C92522  12.764   6.184   5.605  0.6938 -0.6879 -0.4459
  686MOL0     O92523  12.498   6.329   5.531 -0.4537 -0.6498  0.4463
  686MOL0     C92524  12.276   6.241   5.371 -0.0309  0.4388 -0.6191
  686MOL0     C92525  12.206   6.241   5.249  0.9483 -0.5158  0.4195
  686MOL0     N92526  11.871   5.817   4.628  0.3226  0.7075  0.0096
  686MOL0     N92527  11.752   5.759   4.627  0.7912 -0.3559 -0.5641
  686MOL0     C92528  10.810   5.613   4.414 -0.2163 -0.0009  0.0721
  686MOL0     C92529  10.786   5.553   4.532 -0.1706  0.3959 -0.4230
  686MOL0     C92530  10.792   5.377   4.930  0.7481  1.1539  1.2559
  686MOL0     C92531  10.855   5.254   4.939  0.5097  0.4562 -0.2938
  686MOL0     C92532  10.859   5.185   5.054  0.2786  0.3305  0.0891
  686MOL0     C92533  10.803   5.245   5.172  1.2615 -0.6820 -0.6892
  686MOL0     O92534  10.821   5.174   5.282  0.1456 -0.6035 -0.2390
  686MOL0     C92535  10.813   5.248   5.403  0.2523 -0.6422  0.9210
  686MOL0     C92536  10.901   5.177   5.498 -0.0995  0.6803 -0.5961
  686MOL0     C92537  10.884   5.021   5.514 -0.6383 -0.6420  0.4544
  686MOL0     C92538  10.928   4.980   5.657 -1.0169  0.7147 -0.5784
  686MOL0     C92539  10.928   4.838   5.675  0.3090 -0.4932 -0.1056
  686MOL0     C92540  10.948   4.724   5.712  0.3268 -0.7280 -0.8368
  686MOL0     C92541  10.725   5.364   5.154 -0.4616  0.2702 -0.2124
  686MOL0     C92542  10.724   5.434   5.037 -0.2577 -0.0705  0.4079
  686MOL0     H92543  10.992   5.282   4.502 -1.7667 -0.6918 -0.6431
  686MOL0     H92544  11.030   5.404   4.273  1.0203 -0.4443  0.9134
  686MOL0     H92545  10.875   5.816   4.152  0.4899 -0.9432 -2.8902
  686MOL0     H92546  10.989   5.799   4.292 -1.8789  0.8948  0.1118
  686MOL0     H92547  11.063   5.701   4.018 -1.0436 -0.0597 -0.7902
  686MOL0     H92548  11.102   5.868   4.071  1.9481 -1.0866  1.7779
  686MOL0     H92549  11.154   5.610   4.210 -3.1068  2.7407  3.2317
  686MOL0     H92550  11.285   5.676   4.113 -0.2358 -5.9909  1.7611
  686MOL0     H92551  11.318   5.870   4.224  0.6392  2.1354  0.7437
  686MOL0     H92552  11.176   5.836   4.326 -3.5403 -3.8101 -3.2552
  686MOL0     H92553  11.272   5.636   4.427  1.4341  0.9021  1.5729
  686MOL0     H92554  11.414   5.640   4.335 -1.0627 -1.8736 -0.1088
  686MOL0     H92555  11.505   5.832   4.452 -0.0620  0.5582 -1.0146
  686MOL0     H92556  11.342   5.881   4.516 -1.2694 -1.6378  3.8930
  686MOL0     H92557  11.353   5.666   4.644  0.5158 -2.4923 -1.7571
  686MOL0     H92558  11.511   5.630   4.597 -0.3824 -0.6534  0.4440
  686MOL0     H92559  11.514   5.755   4.813 -1.7674 -2.9427 -0.5505
  686MOL0     H92560  11.452   5.889   4.723 -0.9892 -1.2918  1.6357
  686MOL0     H92561  11.639   6.056   4.686  0.6505  0.0248  2.5431
  686MOL0     H92562  12.013   6.033   4.560 -1.0025 -1.0399 -0.3815
  686MOL0     H92563  11.886   6.146   4.615  0.1528  0.2259  1.4496
  686MOL0     H92564  12.052   5.950   4.787  3.0571  0.7826 -2.9937
  686MOL0     H92565  11.935   6.070   4.853  0.6188 -1.2038  0.5778
  686MOL0     H92566  12.061   6.252   4.802 -2.3339 -1.2087  0.6381
  686MOL0     H92567  12.169   6.166   4.700  0.0577  0.8155 -0.3383
  686MOL0     H92568  12.299   6.190   4.873 -0.6966  0.0691 -1.4532
  686MOL0     H92569  12.231   6.024   4.917  0.2816  0.0295  1.2854
  686MOL0     H92570  12.417   6.093   5.042 -0.2996  0.2136  0.6396
  686MOL0     H92571  12.651   6.143   5.117 -2.6161 -3.5563  0.4982
  686MOL0     H92572  12.664   6.258   5.248 -2.2183  1.6413 -2.3058
  686MOL0     H92573  12.650   6.070   5.273  0.6201 -0.8459 -1.1867
  686MOL0     H92574  12.508   6.029   5.779  0.9529 -2.0191  2.0225
  686MOL0     H92575  12.680   6.075   5.967  2.6315 -0.6084  0.7968
  686MOL0     H92576  13.101   6.157   5.820 -3.6854  0.9096 -1.9646
  686MOL0     H92577  13.052   6.314   5.882 -0.1354  0.4076  0.3763
  686MOL0     H92578  13.065   6.214   6.125  1.1348 -2.8272  1.3242
  686MOL0     H92579  13.121   6.073   6.067 -2.0762  0.0995 -0.0613
  686MOL0     H92580  13.266   6.346   6.012  2.7048 -0.0048 -2.7878
  686MOL0     H92581  13.319   6.189   5.965  0.1172  0.9437  1.1381
  686MOL0     H92582  13.393   6.301   6.200 -0.0117 -1.5295 -0.0028
  686MOL0     H92583  13.243   6.223   6.244 -0.5127  2.5504 -0.8971
  686MOL0     H92584  13.490   6.082   6.139  2.4346  2.3735  2.4476
  686MOL0     H92585  13.328   6.006   6.180  0.0906 -0.4894 -0.3759
  686MOL0     H92586  13.513   5.973   6.347  3.3300  0.6320  1.5802
  686MOL0     H92587  13.544   6.143   6.360 -2.6466  1.9893  0.9596
  686MOL0     H92588  13.279   6.014   6.430  0.1528  0.0024  1.0500
  686MOL0     H92589  13.321   6.183   6.454 -4.4115 -0.5321  0.1521
  686MOL0     H92590  13.339   5.994   6.654  1.4497 -2.8493 -0.5690
  686MOL0     H92591  13.463   6.129   6.630  1.0799 -0.1433  1.9337
  686MOL0     H92592  12.962   6.226   5.681  0.3317  1.3063  2.0522
  686MOL0     H92593  12.796   6.227   5.510 -2.3113  1.5353 -0.6020
  686MOL0     H92594  12.218   6.281   5.454 -0.7630  3.2640 -2.3732
  686MOL0     H92595  12.103   6.277   5.250  1.5555  1.3575  0.4675
  686MOL0     H92596  10.763   5.710   4.400  3.0219  1.5551 -0.8821
  686MOL0     H92597  10.721   5.602   4.603  0.8427 -2.1608  2.5234
  686MOL0     H92598  10.895   5.209   4.849 -1.2916 -1.5789 -0.1755
  686MOL0     H92599  10.884   5.080   5.065 -1.3274 -0.0491  0.3416
  686MOL0     H92600  10.860   5.346   5.395 -0.7410 -0.3027 -1.6412
  686MOL0     H92601  10.711   5.257   5.441  0.0468  0.3681  0.1339
  686MOL0     H92602  10.887   5.218   5.599 -0.5159 -0.9588  0.0427
  686MOL0     H92603  11.005   5.186   5.466  0.2371 -2.0755 -0.4963
  686MOL0     H92604  10.935   4.962   5.437 -1.2447 -0.2270 -0.2810
  686MOL0     H92605  10.778   4.996   5.505 -0.5896 -0.6437 -0.1740
  686MOL0     H92606  10.852   5.020   5.725 -2.0353 -2.2405  0.2051
  686MOL0     H92607  11.030   5.011   5.681 -0.0088 -1.2102 -2.0202
  686MOL0     H92608  10.972   4.638   5.771 -2.3387  0.6865  2.6686
  686MOL0     H92609  10.677   5.402   5.243  0.5473  0.1611  0.4009
  686MOL0     H92610  10.682   5.534   5.036  0.3964  0.2663 -2.8499
  687MOL0     O92611   3.714   2.886   4.348  0.8201  0.2333 -0.1911
  687MOL0     C92612   3.665   2.886   4.460  0.1285 -0.1715  0.1632
  687MOL0     O92613   3.602   2.981   4.518  0.9025 -0.7995  0.2865
  687MOL0     C92614   3.581   3.107   4.461  0.2885 -0.8310  0.0294
  687MOL0     C92615   3.565   3.219   4.551  0.1628  0.7738 -0.3817
  687MOL0     C92616   3.533   3.345   4.520 -0.0477 -0.3295 -0.2151
  687MOL0     C92617   3.527   3.377   4.388  0.2560 -0.0068 -0.0051
  687MOL0     O92618   3.505   3.509   4.363 -0.5386 -0.6374 -0.0274
  687MOL0     C92619   3.523   3.551   4.223 -0.3644 -0.2699 -0.5983
  687MOL0     C92620   3.463   3.692   4.205 -0.8548  0.1215  0.1778
  687MOL0     C92621   3.445   3.737   4.063  0.0218  0.2401 -0.0190
  687MOL0     C92622   3.419   3.890   4.059 -0.4334 -0.4514  0.0299
  687MOL0     C92623   3.416   3.937   3.918  0.2893 -0.1918 -0.4802
  687MOL0     C92624   3.353   4.075   3.915  0.4574 -0.5149  0.3057
  687MOL0     C92625   3.348   4.130   3.775 -0.7161 -1.0348 -0.6708
  687MOL0     C92626   3.211   4.066   3.718 -0.9355 -0.5622 -0.0563
  687MOL0     N92627   3.186   4.133   3.586 -0.7759 -0.8283  0.1028
  687MOL0     C92628   3.131   4.255   3.592 -1.4534 -1.0741 -0.7851
  687MOL0     C92629   3.142   4.293   3.458  0.4922 -0.4493 -0.6724
  687MOL0     C92630   3.079   4.411   3.388  0.4541  0.5865  0.4133
  687MOL0     C92631   3.111   4.546   3.456  0.3853 -0.0586 -0.1061
  687MOL0     C92632   3.081   4.667   3.369 -0.1898 -0.1084 -0.8579
  687MOL0     C92633   3.205   4.710   3.276  0.3640  0.2843  0.2747
  687MOL0     O92634   3.185   4.814   3.184 -0.5843 -0.3462 -0.7423
  687MOL0     C92635   3.292   4.860   3.112 -1.6928  0.0677  0.2423
  687MOL0     C92636   3.428   4.807   3.116 -0.7946  0.8588 -0.0522
  687MOL0     C92637   3.532   4.849   3.031  0.7425  1.0316 -0.7838
  687MOL0     C92638   3.670   4.796   3.060  0.2680 -0.0959  0.1669
  687MOL0     C92639   3.496   4.954   2.939  0.6232 -1.0632  0.8148
  687MOL0     C92640   3.579   5.023   2.843 -0.6644  0.2047 -0.0569
  687MOL0     O92641   3.535   5.023   2.718  0.0501 -0.7777  0.1934
  687MOL0     C92642   3.603   5.093   2.623 -0.0580  0.5657 -0.2004
  687MOL0     C92643   3.738   5.052   2.596 -0.6746 -0.1631  0.0621
  687MOL0     C92644   3.795   5.095   2.474 -0.0236 -0.1366 -0.4352
  687MOL0     C92645   3.726   5.161   2.377 -0.4573  0.2559 -0.4956
  687MOL0     O92646   3.777   5.175   2.257 -0.0704 -0.1740  0.1719
  687MOL0     C92647   3.868   5.287   2.241  0.1589 -0.0819 -0.9069
  687MOL0     C92648   3.932   5.275   2.111  0.0546  0.1932 -0.6140
  687MOL0     C92649   3.949   5.415   2.049  0.3375 -0.2125 -0.1333
  687MOL0     C92650   4.045   5.406   1.930  0.4335  0.4179 -1.1070
  687MOL0     C92651   4.047   5.535   1.846 -0.0591  0.0684 -0.3372
  687MOL0     C92652   4.116   5.503   1.715  0.8326 -0.2621 -0.1129
  687MOL0     C92653   4.143   5.637   1.642 -0.9216  0.3384  0.4002
  687MOL0     C92654   4.241   5.725   1.718  0.1689 -0.5098  0.2411
  687MOL0    Cl92655   4.394   5.639   1.765  0.6754  0.3939  0.2415
  687MOL0     C92656   3.604   5.214   2.412 -0.0475  0.6651 -0.1919
  687MOL0     C92657   3.534   5.172   2.534 -0.2162  0.2630 -0.7481
  687MOL0     O92658   3.680   5.071   2.887  0.3031  0.0006  0.2889
  687MOL0     C92659   3.365   5.009   2.939  0.1258  0.4585  1.0304
  687MOL0     C92660   3.266   4.959   3.024 -0.5024 -0.1270 -0.4115
  687MOL0     N92661   3.181   4.185   3.379 -0.2856 -0.0774  0.6410
  687MOL0     N92662   3.229   4.100   3.462  0.8626  0.3387 -0.4170
  687MOL0     C92663   3.529   3.271   4.290  0.6897 -0.0972  0.8039
  687MOL0     C92664   3.557   3.142   4.325 -0.8716  1.3004 -0.3261
  687MOL0     C92665   3.652   2.750   4.526 -0.2424 -0.3479  0.8299
  687MOL0     C92666   3.752   2.646   4.504 -0.3530 -0.7425 -0.4175
  687MOL0     C92667   3.739   2.526   4.556 -1.2892  0.9057  0.0200
  687MOL0     C92668   3.632   2.492   4.638 -0.0365  1.1561  0.1157
  687MOL0     O92669   3.638   2.354   4.678 -0.1464 -0.8952 -0.0912
  687MOL0     C92670   3.557   2.307   4.787 -0.3325  1.2566  1.0488
  687MOL0     C92671   3.417   2.254   4.735  0.2148  0.0577  0.3825
  687MOL0     C92672   3.400   2.105   4.691  0.2892  0.5610 -0.0127
  687MOL0     C92673   3.278   2.034   4.758 -0.6831 -0.5072 -0.3535
  687MOL0     C92674   3.284   2.026   4.913  0.0585  0.1944 -0.5246
  687MOL0     C92675   3.288   2.026   5.041  0.1067 -0.2553  1.2332
  687MOL0     C92676   3.534   2.590   4.669 -0.1886  0.4301  0.5441
  687MOL0     C92677   3.548   2.720   4.616 -0.3101 -0.5446 -0.7667
  687MOL0     H92678   3.577   3.197   4.656  0.8729 -0.5000 -0.6969
  687MOL0     H92679   3.504   3.413   4.599  2.2787  4.2660 -2.8553
  687MOL0     H92680   3.629   3.547   4.195  0.3700 -3.3770  2.0217
  687MOL0     H92681   3.450   3.504   4.156  0.7557 -1.7270 -0.8365
  687MOL0     H92682   3.368   3.678   4.258  0.5873  2.8230  3.9095
  687MOL0     H92683   3.525   3.765   4.257  0.1678 -0.9593  0.5221
  687MOL0     H92684   3.531   3.712   3.999  0.9181  1.0141  0.8550
  687MOL0     H92685   3.358   3.683   4.026  0.2867  0.2219 -0.6361
  687MOL0     H92686   3.328   3.925   4.108 -1.7809  0.2615 -2.8108
  687MOL0     H92687   3.506   3.933   4.109  0.1214 -2.4018  0.8396
  687MOL0     H92688   3.514   3.937   3.868 -0.0533 -0.2747 -1.1678
  687MOL0     H92689   3.359   3.863   3.861  2.4912 -1.1209 -1.5961
  687MOL0     H92690   3.258   4.072   3.968 -0.3108  2.3655 -0.7451
  687MOL0     H92691   3.428   4.135   3.967 -0.3716 -1.7460  3.1503
  687MOL0     H92692   3.339   4.239   3.785  4.9220 -0.3860  0.2516
  687MOL0     H92693   3.437   4.115   3.714 -1.0140  1.5401 -1.8834
  687MOL0     H92694   3.136   4.073   3.797  1.9955 -1.8980  3.0883
  687MOL0     H92695   3.233   3.959   3.714  1.9378 -0.2365  2.7477
  687MOL0     H92696   3.111   4.314   3.681  4.4517  0.1530  0.1237
  687MOL0     H92697   3.105   4.407   3.282 -1.9454 -0.1558 -0.2250
  687MOL0     H92698   2.970   4.397   3.383  0.8709 -3.8274 -2.3434
  687MOL0     H92699   3.210   4.541   3.502 -0.1798 -2.2759  0.9951
  687MOL0     H92700   3.043   4.539   3.541  0.1217 -2.7197 -0.4558
  687MOL0     H92701   3.039   4.748   3.430  2.5964  0.0246  1.0671
  687MOL0     H92702   2.990   4.640   3.314 -0.9418  1.9147 -0.6986
  687MOL0     H92703   3.244   4.624   3.220 -1.2021 -0.0404 -0.3683
  687MOL0     H92704   3.280   4.743   3.349 -0.1549  1.6952  0.2075
  687MOL0     H92705   3.439   4.726   3.187 -0.7216  1.6009  0.7961
  687MOL0     H92706   3.729   4.812   2.969 -0.5726 -0.1037 -0.3839
  687MOL0     H92707   3.717   4.845   3.146  0.7382 -2.1073  1.1176
  687MOL0     H92708   3.660   4.689   3.078  1.3171  0.0765  2.1019
  687MOL0     H92709   3.789   4.988   2.667  0.7027  1.7183  0.8424
  687MOL0     H92710   3.899   5.072   2.453 -0.5243  0.0625 -3.5936
  687MOL0     H92711   3.814   5.382   2.251 -0.8236 -0.5119 -1.9694
  687MOL0     H92712   3.950   5.283   2.314  1.2647 -1.4568 -2.1770
  687MOL0     H92713   4.026   5.219   2.109  0.9376  1.5262 -4.7894
  687MOL0     H92714   3.860   5.222   2.048 -2.8535  4.4813 -1.3291
  687MOL0     H92715   3.975   5.487   2.127  1.7921  2.0100 -2.4863
  687MOL0     H92716   3.855   5.448   2.005 -0.7617 -0.8112  1.6677
  687MOL0     H92717   4.145   5.379   1.965 -0.0637 -2.1790 -1.5419
  687MOL0     H92718   4.004   5.318   1.881 -3.7201 -0.9066  3.8915
  687MOL0     H92719   4.101   5.608   1.907 -2.3434  0.9599  0.7112
  687MOL0     H92720   3.950   5.579   1.824  0.7745  2.1854 -0.0339
  687MOL0     H92721   4.205   5.447   1.745  0.6458 -0.6708 -0.3240
  687MOL0     H92722   4.048   5.449   1.649 -3.0053  1.1959  2.2371
  687MOL0     H92723   4.048   5.686   1.616 -2.4760 -3.1001 -1.1528
  687MOL0     H92724   4.188   5.604   1.548 -1.2321  0.1051  0.3295
  687MOL0     H92725   4.199   5.770   1.808 -0.1781  0.9310 -0.6087
  687MOL0     H92726   4.266   5.813   1.659  2.1258 -1.3226 -0.2345
  687MOL0     H92727   3.543   5.259   2.333 -2.1703  1.6348  1.8652
  687MOL0     H92728   3.428   5.193   2.536 -0.0320  1.2929  1.5173
  687MOL0     H92729   3.341   5.097   2.881  1.3769  0.6744  0.8163
  687MOL0     H92730   3.168   5.004   3.014  1.0490  2.9772 -4.3273
  687MOL0     H92731   3.530   3.275   4.182  0.4581 -4.4525  0.4473
  687MOL0     H92732   3.579   3.070   4.247 -0.5806 -1.8651  2.4557
  687MOL0     H92733   3.845   2.677   4.457 -1.2916  1.8424 -0.7619
  687MOL0     H92734   3.819   2.454   4.544  2.1517  4.5423 -0.8386
  687MOL0     H92735   3.605   2.230   4.847 -2.1513 -2.1085 -1.4734
  687MOL0     H92736   3.537   2.393   4.852 -2.0970  3.3116 -1.9440
  687MOL0     H92737   3.374   2.312   4.653  1.1043  0.4053  0.1520
  687MOL0     H92738   3.349   2.264   4.820 -0.1980 -0.7794  0.1603
  687MOL0     H92739   3.490   2.044   4.699 -0.7843 -1.1182 -0.3106
  687MOL0     H92740   3.364   2.098   4.588  0.0147 -2.8483  0.1943
  687MOL0     H92741   3.275   1.928   4.733  0.9500 -0.7150  0.2304
  687MOL0     H92742   3.189   2.084   4.718 -1.4872  0.0770  2.0239
  687MOL0     H92743   3.305   2.018   5.147  0.7811 -0.1480  1.1412
  687MOL0     H92744   3.452   2.564   4.734 -1.0741  1.9312  0.0802
  687MOL0     H92745   3.480   2.795   4.655  0.7338  2.2239 -3.7986
  688MOL0     O92746   6.048   3.944   8.457  0.3085 -0.2147  0.2577
  688MOL0     C92747   6.137   3.979   8.535 -0.6461 -1.1267  0.2443
  688MOL0     O92748   6.224   3.899   8.612 -0.4299 -0.3716  0.2767
  688MOL0     C92749   6.205   3.770   8.604  0.2234  0.2024  0.3640
  688MOL0     C92750   6.282   3.679   8.528 -0.8404 -0.6240  0.0551
  688MOL0     C92751   6.254   3.545   8.522  0.5555 -0.0250  0.4237
  688MOL0     C92752   6.141   3.488   8.587 -0.2336  0.1592  0.3184
  688MOL0     O92753   6.100   3.354   8.572  0.6538 -0.1912  1.1833
  688MOL0     C92754   6.130   3.287   8.444  0.1080 -0.5923 -0.4342
  688MOL0     C92755   6.040   3.338   8.333  0.2203  0.1816  0.3852
  688MOL0     C92756   5.884   3.347   8.361 -0.9439 -0.1945 -0.3715
  688MOL0     C92757   5.827   3.212   8.426 -0.1693 -0.9607  0.5793
  688MOL0     C92758   5.685   3.236   8.483  0.7130 -0.0975 -0.1201
  688MOL0     C92759   5.593   3.120   8.458 -0.6273  0.4564 -0.2557
  688MOL0     C92760   5.476   3.102   8.558 -1.2268  0.1516 -0.5211
  688MOL0     C92761   5.378   2.999   8.500  0.1864  0.5974  0.9666
  688MOL0     N92762   5.267   2.977   8.583  0.5637  0.1470 -0.0849
  688MOL0     C92763   5.272   2.906   8.704 -0.2401 -0.8391 -1.4754
  688MOL0     C92764   5.148   2.902   8.755  0.0550  0.1339 -0.5278
  688MOL0     C92765   5.116   2.851   8.902  0.8130 -0.6819  0.7617
  688MOL0     C92766   5.192   2.928   9.009  0.7845 -0.0498  0.5473
  688MOL0     C92767   5.143   2.942   9.152  0.6833  0.2077 -0.4947
  688MOL0     C92768   5.209   3.051   9.247 -0.2430  0.0653 -0.5080
  688MOL0     O92769   5.175   3.182   9.203  1.2368  0.3041 -0.1573
  688MOL0     C92770   5.049   3.224   9.233  0.9246  0.0661  0.6148
  688MOL0     C92771   4.983   3.180   9.348  0.4649 -0.1342 -0.3063
  688MOL0     C92772   4.848   3.226   9.370  0.2581  0.0714  0.5056
  688MOL0     C92773   4.760   3.158   9.477  0.8780 -1.0106  0.7159
  688MOL0     C92774   4.795   3.337   9.298  0.4145 -0.0263  1.0939
  688MOL0     C92775   4.673   3.408   9.323 -0.4045 -0.5590 -1.0882
  688MOL0     O92776   4.643   3.431   9.458 -0.3130 -0.1985 -0.3153
  688MOL0     C92777   4.536   3.510   9.491 -0.3576  0.2842 -1.2034
  688MOL0     C92778   4.556   3.646   9.512 -0.1251  0.3029  0.7563
  688MOL0     C92779   4.440   3.731   9.537 -0.2754  0.3426  0.3339
  688MOL0     C92780   4.308   3.679   9.523  0.8720 -0.3522 -0.9752
  688MOL0     O92781   4.209   3.763   9.540  1.0974  0.0386  0.2238
  688MOL0     C92782   4.070   3.725   9.527 -0.0635 -0.0435 -1.0935
  688MOL0     C92783   3.984   3.855   9.522 -0.3898  0.8847 -0.1136
  688MOL0     C92784   3.833   3.820   9.492  0.7304  0.0645 -0.4516
  688MOL0     C92785   3.740   3.947   9.493  0.0694  0.0920 -0.1638
  688MOL0     C92786   3.598   3.907   9.476 -0.1171  0.4258 -0.0505
  688MOL0     C92787   3.535   3.826   9.592 -1.2963 -0.6741 -0.0383
  688MOL0     C92788   3.383   3.816   9.568  0.8777 -0.5452  0.5226
  688MOL0     C92789   3.340   3.728   9.682 -0.2017  0.0233 -0.0430
  688MOL0    Cl92790   3.172   3.709   9.704 -0.0029  0.0855  0.4151
  688MOL0     C92791   4.295   3.548   9.501 -0.6977  0.1162  0.0134
  688MOL0     C92792   4.405   3.463   9.480  0.0909 -0.1302 -0.6257
  688MOL0     O92793   4.601   3.443   9.229 -0.3417  0.2374 -0.4279
  688MOL0     C92794   4.873   3.384   9.194 -0.3505  1.3018  0.8789
  688MOL0     C92795   4.991   3.317   9.149 -0.0610  0.6086  0.1405
  688MOL0     N92796   5.064   2.973   8.674 -0.7148  0.4647  0.4990
  688MOL0     N92797   5.129   3.017   8.574 -0.3186  0.0360 -0.2288
  688MOL0     C92798   6.078   3.572   8.673  0.2951  0.8459 -1.0760
  688MOL0     C92799   6.096   3.713   8.674 -0.7466  0.5955  0.3803
  688MOL0     C92800   6.182   4.120   8.533  0.5016 -0.2610  0.6583
  688MOL0     C92801   6.160   4.209   8.420  0.6140  0.8211 -0.4221
  688MOL0     C92802   6.192   4.341   8.419 -0.1704  0.2745 -0.0488
  688MOL0     C92803   6.226   4.409   8.527 -0.8051  0.6018 -0.5004
  688MOL0     O92804   6.247   4.545   8.515 -0.1839 -0.3677  0.6296
  688MOL0     C92805   6.278   4.615   8.633  0.4319  0.2401  0.4599
  688MOL0     C92806   6.240   4.759   8.616  0.0391 -0.0220 -0.2511
  688MOL0     C92807   6.269   4.827   8.756 -0.8421  0.1068 -0.0793
  688MOL0     C92808   6.291   4.975   8.755  0.6868  1.9898  0.0429
  688MOL0     C92809   6.315   5.000   8.900  1.3824  0.6005  0.0684
  688MOL0     C92810   6.357   5.008   9.015  0.5087  0.0510  0.6063
  688MOL0     C92811   6.236   4.326   8.645 -0.2802 -0.1290 -0.4231
  688MOL0     C92812   6.221   4.188   8.647 -0.4126 -0.7370  0.3044
  688MOL0     H92813   6.357   3.730   8.468 -0.2210 -1.1237  0.3921
  688MOL0     H92814   6.313   3.492   8.447  1.1569  0.8288  0.2738
  688MOL0     H92815   6.232   3.301   8.405 -0.2164  5.0996 -0.1603
  688MOL0     H92816   6.128   3.181   8.470  4.1013 -0.6600  0.2150
  688MOL0     H92817   6.075   3.437   8.302  3.2385 -0.2445  2.0401
  688MOL0     H92818   6.046   3.270   8.247 -0.3449  0.9976 -0.3171
  688MOL0     H92819   5.858   3.433   8.425 -0.5302  1.8227 -2.7669
  688MOL0     H92820   5.824   3.357   8.270  1.4039  1.2711 -1.8805
  688MOL0     H92821   5.821   3.134   8.349 -1.0342  2.1737 -2.7627
  688MOL0     H92822   5.888   3.163   8.503 -2.0231 -1.6368  1.7142
  688MOL0     H92823   5.698   3.256   8.590 -3.4223 -0.1567  0.5744
  688MOL0     H92824   5.629   3.317   8.435  0.9084 -1.5715 -3.0403
  688MOL0     H92825   5.568   3.124   8.352 -1.1322 -0.9763 -0.2147
  688MOL0     H92826   5.643   3.023   8.466 -3.0869 -0.9616 -1.0678
  688MOL0     H92827   5.504   3.076   8.660 -2.6774 -0.1651 -0.1817
  688MOL0     H92828   5.419   3.195   8.563 -1.2663  0.0605  1.5931
  688MOL0     H92829   5.437   2.908   8.488 -1.2683 -1.1196  5.2124
  688MOL0     H92830   5.338   3.026   8.402 -3.3109 -2.3881  1.3729
  688MOL0     H92831   5.359   2.867   8.756 -0.5975  3.1931  2.9482
  688MOL0     H92832   5.012   2.874   8.924  1.5301  3.5738  0.5482
  688MOL0     H92833   5.134   2.744   8.913 -1.4933 -1.0600  1.2820
  688MOL0     H92834   5.200   3.031   8.974  1.4781 -0.1726  0.3165
  688MOL0     H92835   5.293   2.885   9.009  1.6979  2.0144  1.0998
  688MOL0     H92836   5.159   2.847   9.203  1.8144  0.7268  0.1400
  688MOL0     H92837   5.034   2.953   9.151  0.4811 -1.4883 -0.3500
  688MOL0     H92838   5.317   3.042   9.230 -0.5180  0.9518 -3.2877
  688MOL0     H92839   5.185   3.028   9.351 -1.4156  2.9549 -0.0383
  688MOL0     H92840   5.014   3.108   9.424 -2.2584  3.1244  4.4457
  688MOL0     H92841   4.766   3.208   9.574  0.1153  2.1258 -0.7129
  688MOL0     H92842   4.662   3.139   9.433  1.1621 -1.7340  0.3660
  688MOL0     H92843   4.796   3.056   9.492  2.6817 -0.1802  2.5259
  688MOL0     H92844   4.655   3.689   9.516 -0.4880  1.2019  0.3579
  688MOL0     H92845   4.449   3.831   9.579  0.7669 -0.4611  2.1942
  688MOL0     H92846   4.067   3.675   9.430 -1.0067 -2.7381  0.2282
  688MOL0     H92847   4.032   3.659   9.605  0.1210  0.8385 -0.2386
  688MOL0     H92848   3.989   3.895   9.624 -1.4747  0.8161 -0.0278
  688MOL0     H92849   4.033   3.915   9.444  0.9644 -2.5898 -2.1582
  688MOL0     H92850   3.790   3.760   9.572 -1.5785  1.2289 -0.7151
  688MOL0     H92851   3.815   3.769   9.397 -7.1428  1.2236 -0.2897
  688MOL0     H92852   3.757   3.992   9.592 -0.6083 -3.4249  1.7369
  688MOL0     H92853   3.768   4.016   9.414  0.6916  1.9387  1.5752
  688MOL0     H92854   3.588   3.866   9.375 -0.0319  2.5236 -0.9731
  688MOL0     H92855   3.539   3.998   9.461 -1.8615 -0.2249  2.1973
  688MOL0     H92856   3.583   3.728   9.593  1.5034  0.5969  1.3651
  688MOL0     H92857   3.560   3.882   9.682  0.3445 -0.4311 -0.5950
  688MOL0     H92858   3.367   3.790   9.462 -0.2952 -0.3786  0.6472
  688MOL0     H92859   3.343   3.917   9.578  0.6418 -0.7957  2.3083
  688MOL0     H92860   3.379   3.759   9.780  1.8250  1.2144 -1.1692
  688MOL0     H92861   3.387   3.633   9.655 -0.7848  0.2391 -1.9337
  688MOL0     H92862   4.201   3.496   9.490 -1.6998  1.8356  0.0903
  688MOL0     H92863   4.393   3.357   9.460  1.5630 -1.5793  4.6109
  688MOL0     H92864   4.851   3.466   9.125  2.3512 -0.8647 -2.9344
  688MOL0     H92865   5.052   3.359   9.070  1.7130 -0.1886  1.0260
  688MOL0     H92866   6.001   3.531   8.739  0.4558  0.3552 -1.1935
  688MOL0     H92867   6.062   3.777   8.755  0.4029  0.9542  0.5952
  688MOL0     H92868   6.122   4.157   8.332 -1.9275  0.3575  0.8575
  688MOL0     H92869   6.170   4.396   8.328 -0.1855 -0.1079 -0.2762
  688MOL0     H92870   6.216   4.571   8.711  1.7130  0.3933  1.6015
  688MOL0     H92871   6.383   4.594   8.657  0.6195 -2.6214 -2.2412
  688MOL0     H92872   6.134   4.770   8.590  0.2395 -0.9453 -1.5594
  688MOL0     H92873   6.290   4.806   8.531  1.8405 -1.2619  0.0720
  688MOL0     H92874   6.350   4.770   8.803 -1.5370  0.3988  1.5243
  688MOL0     H92875   6.182   4.817   8.821  0.9830 -0.7460  2.4125
  688MOL0     H92876   6.209   5.027   8.704 -1.0576 -0.0216  0.6694
  688MOL0     H92877   6.381   5.008   8.703  2.2091 -1.8075 -0.0653
  688MOL0     H92878   6.356   5.021   9.121  3.4566  2.1201  0.5019
  688MOL0     H92879   6.254   4.370   8.743 -0.1573  2.2154 -1.4141
  688MOL0     H92880   6.232   4.132   8.739 -0.5659 -2.7505 -0.8278
  689MOL0     O92881   2.364   8.723   8.756 -1.1308  0.6461  1.6396
  689MOL0     C92882   2.297   8.718   8.854  0.3132 -0.9836  0.4902
  689MOL0     O92883   2.241   8.604   8.919 -0.8015  0.5123 -0.4632
  689MOL0     C92884   2.263   8.475   8.865 -0.1191 -1.3632  0.2828
  689MOL0     C92885   2.263   8.374   8.963  0.2153 -0.3539  0.5728
  689MOL0     C92886   2.266   8.239   8.924 -0.4325 -1.5034 -0.7314
  689MOL0     C92887   2.286   8.209   8.788 -0.1695 -0.1495  0.0109
  689MOL0     O92888   2.295   8.076   8.776 -0.0732  0.0876  0.4795
  689MOL0     C92889   2.407   8.031   8.701 -0.5488 -0.5265 -0.6075
  689MOL0     C92890   2.406   7.882   8.677  0.8915 -0.6435 -0.8983
  689MOL0     C92891   2.544   7.812   8.634  0.3949 -0.2749 -0.6613
  689MOL0     C92892   2.593   7.857   8.489  0.4788  0.1735  0.8022
  689MOL0     C92893   2.749   7.839   8.484  0.5828  0.1024 -0.1332
  689MOL0     C92894   2.824   7.863   8.348 -1.2348  0.4226 -0.2338
  689MOL0     C92895   2.764   7.980   8.264  0.3080 -0.2702 -0.3294
  689MOL0     C92896   2.824   8.003   8.123  0.3895 -0.8420 -0.4551
  689MOL0     N92897   2.785   8.135   8.070 -0.0425  0.9853 -0.3751
  689MOL0     C92898   2.820   8.260   8.117 -0.0629 -0.2876  0.6125
  689MOL0     C92899   2.756   8.349   8.042  0.0010 -0.3294 -1.2983
  689MOL0     C92900   2.774   8.498   8.065  0.7328  0.1073  0.4113
  689MOL0     C92901   2.870   8.565   7.964 -0.7550 -0.5049  0.2591
  689MOL0     C92902   2.833   8.549   7.814  0.7007  0.2442  0.7267
  689MOL0     C92903   2.693   8.596   7.782  0.0735 -0.0924 -0.1210
  689MOL0     O92904   2.682   8.601   7.638  0.7233  0.2518 -0.9198
  689MOL0     C92905   2.700   8.709   7.565  2.2854 -0.1566 -0.3640
  689MOL0     C92906   2.617   8.710   7.458  0.6426  0.5831 -0.2324
  689MOL0     C92907   2.611   8.806   7.360  0.3335 -0.3998  0.0938
  689MOL0     C92908   2.536   8.771   7.232  0.7044 -0.2892 -0.0678
  689MOL0     C92909   2.704   8.914   7.379 -0.6979 -0.4175 -0.3138
  689MOL0     C92910   2.718   9.034   7.289 -1.3409  0.2661  0.8333
  689MOL0     O92911   2.825   9.127   7.316  0.0666 -0.2465  0.5961
  689MOL0     C92912   2.859   9.222   7.225 -0.3186 -0.2992 -0.8061
  689MOL0     C92913   2.882   9.181   7.098  0.1806 -0.3617  1.1916
  689MOL0     C92914   2.948   9.267   7.006 -0.6689 -0.1386 -0.3318
  689MOL0     C92915   2.993   9.390   7.049 -0.5516  0.6694 -0.9652
  689MOL0     O92916   3.056   9.467   6.953  0.2268 -0.2534 -0.0006
  689MOL0     C92917   3.078   9.606   6.989  0.2675  0.0594  0.3084
  689MOL0     C92918   3.197   9.641   7.077 -1.2347 -1.0122  0.0066
  689MOL0     C92919   3.330   9.574   7.036 -0.4547  0.1031 -0.3340
  689MOL0     C92920   3.332   9.425   7.046 -0.3508  0.3321  0.5253
  689MOL0     C92921   3.477   9.358   7.074  0.1681 -0.4381 -0.2461
  689MOL0     C92922   3.450   9.204   7.085 -0.0358 -0.6125 -0.0961
  689MOL0     C92923   3.578   9.124   7.118 -0.4328 -0.6913  0.4428
  689MOL0     C92924   3.571   8.998   7.196 -0.0068  0.0813  0.1763
  689MOL0    Cl92925   3.491   9.007   7.356  0.0338  0.1844 -0.0369
  689MOL0     C92926   2.960   9.437   7.179 -0.0739  0.4880  0.3228
  689MOL0     C92927   2.893   9.351   7.265  0.8177 -1.4240 -0.1977
  689MOL0     O92928   2.636   9.045   7.198  0.5843 -0.4265 -0.2377
  689MOL0     C92929   2.794   8.909   7.497  0.1444  0.7439  0.4029
  689MOL0     C92930   2.780   8.807   7.589  0.0829  0.5377  0.3225
  689MOL0     N92931   2.683   8.283   7.948  0.1829  0.2748 -0.5767
  689MOL0     N92932   2.683   8.151   7.974  0.5466 -0.2458 -0.3117
  689MOL0     C92933   2.300   8.308   8.690  0.1446 -0.9799 -0.7515
  689MOL0     C92934   2.282   8.445   8.730  0.7052  0.3990  0.4658
  689MOL0     C92935   2.258   8.850   8.897  0.3877  0.5124  0.1638
  689MOL0     C92936   2.294   8.976   8.833  0.3936 -0.0615 -0.0604
  689MOL0     C92937   2.227   9.090   8.873  1.1284  0.3051 -0.3916
  689MOL0     C92938   2.155   9.098   8.990 -0.6974  0.8062  0.7407
  689MOL0     O92939   2.093   9.207   9.047 -0.6274 -0.4900 -0.0765
  689MOL0     C92940   2.087   9.334   8.962 -0.5456 -0.1353  0.2816
  689MOL0     C92941   1.985   9.432   9.030  0.2008 -0.4191 -0.8676
  689MOL0     C92942   1.988   9.573   8.977 -0.2007  0.1190 -0.2993
  689MOL0     C92943   2.101   9.659   9.041 -0.1332 -0.8744  0.3296
  689MOL0     C92944   2.077   9.719   9.172 -0.4037 -0.1492  0.2570
  689MOL0     C92945   2.061   9.764   9.285  0.1215 -0.1109 -0.6171
  689MOL0     C92946   2.130   8.980   9.057 -0.2204  0.0298 -0.9507
  689MOL0     C92947   2.186   8.858   9.014 -0.2310 -1.0603 -0.3492
  689MOL0     H92948   2.245   8.394   9.068 -2.6074 -0.7570  0.2499
  689MOL0     H92949   2.247   8.167   9.004  3.7022  0.3213  2.2220
  689MOL0     H92950   2.416   8.090   8.609 -2.1611 -0.0741 -0.5154
  689MOL0     H92951   2.500   8.063   8.750 -0.8655 -0.6475  0.0888
  689MOL0     H92952   2.379   7.828   8.768 -0.8577  1.1380 -0.2843
  689MOL0     H92953   2.334   7.884   8.594  0.7199  4.8929 -0.9584
  689MOL0     H92954   2.610   7.846   8.714  1.3712 -1.9255 -0.7200
  689MOL0     H92955   2.554   7.704   8.642 -0.4363 -0.4401 -1.6310
  689MOL0     H92956   2.534   7.800   8.417 -0.5495 -0.0811  1.8266
  689MOL0     H92957   2.571   7.964   8.476 -1.4151 -0.1835  0.8333
  689MOL0     H92958   2.779   7.923   8.547 -2.9846  1.3290  0.1525
  689MOL0     H92959   2.771   7.736   8.514 -2.2641 -1.1336 -1.9152
  689MOL0     H92960   2.931   7.882   8.362 -1.4000  2.0716 -0.9408
  689MOL0     H92961   2.816   7.781   8.276  3.2402  1.1033 -1.8322
  689MOL0     H92962   2.655   7.969   8.259  0.0843  0.7198  1.4680
  689MOL0     H92963   2.777   8.068   8.328  0.8491  0.9886 -2.1116
  689MOL0     H92964   2.783   7.931   8.051  0.4605  0.9630 -2.4298
  689MOL0     H92965   2.932   7.991   8.137  0.2853 -2.1054 -0.5933
  689MOL0     H92966   2.883   8.285   8.202  0.4969  0.3630  0.0188
  689MOL0     H92967   2.681   8.553   8.051  1.5680  1.8736  1.4184
  689MOL0     H92968   2.799   8.524   8.168  1.5841  0.8572  0.0225
  689MOL0     H92969   2.970   8.523   7.982 -0.7344 -0.3402  0.5435
  689MOL0     H92970   2.872   8.672   7.986  0.9670 -1.1425  4.0707
  689MOL0     H92971   2.857   8.456   7.763  0.6216  1.8399 -2.5066
  689MOL0     H92972   2.895   8.619   7.757 -1.5210  2.4155  0.7560
  689MOL0     H92973   2.664   8.689   7.832 -3.3621 -1.8578  1.4880
  689MOL0     H92974   2.619   8.530   7.827  0.3840 -0.0876  0.3992
  689MOL0     H92975   2.579   8.613   7.430 -0.1392  0.8119  0.0238
  689MOL0     H92976   2.473   8.683   7.251  2.7184 -1.3546  2.1727
  689MOL0     H92977   2.473   8.857   7.207  2.4988  0.8072 -0.9939
  689MOL0     H92978   2.600   8.742   7.149  0.7945  2.9725 -1.2890
  689MOL0     H92979   2.861   9.078   7.072  0.2084 -0.3287  1.0406
  689MOL0     H92980   2.986   9.237   6.908 -0.4763 -1.1250  0.0362
  689MOL0     H92981   3.088   9.680   6.909 -1.3589 -0.6053 -0.5538
  689MOL0     H92982   2.986   9.649   7.029  0.2837  0.5150 -0.1219
  689MOL0     H92983   3.209   9.749   7.074  0.2044 -1.1623 -0.1411
  689MOL0     H92984   3.185   9.606   7.180  0.6362 -0.3109  0.4921
  689MOL0     H92985   3.398   9.626   7.104 -3.8791  0.9213  2.8106
  689MOL0     H92986   3.357   9.593   6.932  1.5010  2.3262  0.5027
  689MOL0     H92987   3.256   9.389   7.116 -2.0786 -0.8007 -1.8073
  689MOL0     H92988   3.304   9.391   6.946  0.7562  1.0262 -0.0393
  689MOL0     H92989   3.528   9.389   7.166  2.1498 -0.3017 -1.3234
  689MOL0     H92990   3.546   9.385   6.993  1.6764 -0.7850  0.8697
  689MOL0     H92991   3.381   9.177   7.165  2.2378 -4.2470  0.8850
  689MOL0     H92992   3.405   9.182   6.988 -3.1558  0.5897  0.9623
  689MOL0     H92993   3.644   9.190   7.175 -1.3123  1.3461 -0.8109
  689MOL0     H92994   3.635   9.105   7.027  2.5669  1.9061  1.6049
  689MOL0     H92995   3.670   8.953   7.208  0.7288  1.1025 -1.6333
  689MOL0     H92996   3.504   8.933   7.138  1.5633 -0.4824 -1.0800
  689MOL0     H92997   2.978   9.541   7.200  0.6182  0.4145  0.1109
  689MOL0     H92998   2.885   9.385   7.368  1.6743 -2.4008  0.2077
  689MOL0     H92999   2.862   8.982   7.539  1.3066 -0.7631  1.2556
  689MOL0     H93000   2.833   8.818   7.683  0.3032  1.4834  0.0954
  689MOL0     H93001   2.312   8.281   8.586  0.9765 -0.2695 -0.8544
  689MOL0     H93002   2.275   8.524   8.656 -2.2880 -0.8359 -0.7071
  689MOL0     H93003   2.360   8.986   8.747  1.7311  1.5269  1.0668
  689MOL0     H93004   2.232   9.180   8.813 -1.8148 -1.2785 -3.2638
  689MOL0     H93005   2.185   9.381   8.951 -1.3071  1.6997  0.8822
  689MOL0     H93006   2.042   9.304   8.867  0.2390 -1.9462  0.4487
  689MOL0     H93007   2.002   9.442   9.137 -3.4619  2.3681 -0.3648
  689MOL0     H93008   1.885   9.389   9.020 -1.1258  1.3795  2.9259
  689MOL0     H93009   1.887   9.613   8.989  0.0430  0.9063 -0.8003
  689MOL0     H93010   2.015   9.579   8.871 -0.2325 -2.1620 -0.4816
  689MOL0     H93011   2.140   9.734   8.972  2.5845  0.0293  2.5993
  689MOL0     H93012   2.186   9.592   9.056  0.4232 -0.4210 -0.7188
  689MOL0     H93013   2.048   9.794   9.387  0.3509 -0.4104 -0.4967
  689MOL0     H93014   2.065   8.971   9.144 -0.6086 -0.5506 -1.2888
  689MOL0     H93015   2.164   8.771   9.076  1.9812 -0.9455  0.7164
  690MOL0     O93016   4.047   0.114   3.612 -0.1805 -0.3695 -0.7962
  690MOL0     C93017   4.093   0.020   3.683 -0.6718 -0.1362  0.4417
  690MOL0     O93018   4.188   0.033   3.781  0.6233  0.3012  0.1266
  690MOL0     C93019   4.258   0.156   3.781  0.5359  0.0008 -0.0028
  690MOL0     C93020   4.330   0.196   3.670  0.7794 -0.1476  0.3135
  690MOL0     C93021   4.421   0.305   3.680  0.6234  1.5462 -0.2447
  690MOL0     C93022   4.445   0.365   3.802  0.0364  0.6623 -0.9116
  690MOL0     O93023   4.531   0.462   3.812 -0.9254 -0.1562 -0.5190
  690MOL0     C93024   4.668   0.439   3.799 -0.7664 -0.2377 -0.3420
  690MOL0     C93025   4.749   0.539   3.710  0.4404  0.0529 -0.8820
  690MOL0     C93026   4.725   0.502   3.559  0.1240 -1.0727  0.1354
  690MOL0     C93027   4.643   0.616   3.493  0.4093  0.1242 -0.1895
  690MOL0     C93028   4.610   0.565   3.354 -0.1702 -0.6695  0.5306
  690MOL0     C93029   4.535   0.664   3.257 -0.0291 -0.4465  0.3740
  690MOL0     C93030   4.385   0.673   3.296 -0.3571  0.3833  0.5552
  690MOL0     C93031   4.301   0.756   3.205 -0.8860 -0.1014 -0.3100
  690MOL0     N93032   4.306   0.892   3.238 -0.8685 -0.0564  0.3537
  690MOL0     C93033   4.223   0.968   3.302 -0.6519  0.5153  0.2036
  690MOL0     C93034   4.275   1.087   3.335  0.5077  0.0127  0.2360
  690MOL0     C93035   4.200   1.192   3.404 -0.3184  0.2330  0.2034
  690MOL0     C93036   4.193   1.316   3.318 -0.1069 -1.2785 -0.5366
  690MOL0     C93037   4.319   1.403   3.294  0.0461  0.4716  0.9385
  690MOL0     C93038   4.414   1.416   3.417 -0.7971 -0.1363  0.0528
  690MOL0     O93039   4.518   1.504   3.389 -0.1189 -0.3107  1.0780
  690MOL0     C93040   4.633   1.468   3.322  0.4493 -0.0150  0.2079
  690MOL0     C93041   4.660   1.335   3.284 -0.1484  0.6041  0.6899
  690MOL0     C93042   4.789   1.310   3.217  0.4781  0.0172  0.7089
  690MOL0     C93043   4.805   1.169   3.169  0.2086  0.1879  1.0724
  690MOL0     C93044   4.882   1.414   3.198 -0.0308 -0.3728  0.4337
  690MOL0     C93045   5.014   1.403   3.125  0.3852 -0.2826  0.5940
  690MOL0     O93046   5.067   1.280   3.103  0.0033 -0.7799 -0.9390
  690MOL0     C93047   5.172   1.286   3.020 -0.3303  0.4020 -1.0429
  690MOL0     C93048   5.311   1.260   3.048 -0.5094  0.2558  0.5021
  690MOL0     C93049   5.410   1.259   2.954  0.1385  0.6074 -0.1274
  690MOL0     C93050   5.373   1.286   2.826  0.4334  0.1465  0.4106
  690MOL0     O93051   5.475   1.277   2.741  1.2826  0.2800  0.0777
  690MOL0     C93052   5.444   1.255   2.604 -1.3350  0.5255 -0.7396
  690MOL0     C93053   5.575   1.221   2.533  0.5109  0.0823  0.6787
  690MOL0     C93054   5.562   1.180   2.382  0.2261  0.3281  0.4498
  690MOL0     C93055   5.678   1.106   2.324  0.4141  0.7343 -0.1432
  690MOL0     C93056   5.637   1.042   2.199 -0.5394  0.5244 -0.7812
  690MOL0     C93057   5.742   0.968   2.123  0.5004  0.0280  0.1689
  690MOL0     C93058   5.873   1.048   2.092 -0.4512 -0.1826 -0.2763
  690MOL0     C93059   5.947   1.004   1.972 -0.5703 -0.0165  0.3574
  690MOL0    Cl93060   6.028   0.851   1.997 -0.2096 -0.4958  0.3871
  690MOL0     C93061   5.237   1.303   2.787  0.1777 -0.4868  0.4279
  690MOL0     C93062   5.142   1.293   2.889 -0.6872 -0.2626  0.8239
  690MOL0     O93063   5.079   1.515   3.120  0.4660  0.2987  0.8781
  690MOL0     C93064   4.844   1.537   3.240 -1.3255 -0.2931 -0.4730
  690MOL0     C93065   4.723   1.562   3.299 -0.0432  0.7372 -0.2669
  690MOL0     N93066   4.393   1.083   3.265  0.4759  0.0627 -0.8518
  690MOL0     N93067   4.420   0.971   3.208  0.3089 -0.2947  0.1472
  690MOL0     C93068   4.365   0.340   3.908  0.2286  0.2597 -0.5162
  690MOL0     C93069   4.271   0.230   3.903 -1.4096  0.2089 -0.9363
  690MOL0     C93070   4.032  -0.110   3.647  0.3799  0.1568  0.1021
  690MOL0     C93071   4.032  -0.217   3.741  0.1049 -0.2618  0.1146
  690MOL0     C93072   3.977  -0.346   3.704 -0.2550 -0.2204 -0.3245
  690MOL0     C93073   3.932  -0.372   3.577  0.5476 -0.2637  0.7736
  690MOL0     O93074   3.877  -0.481   3.525  0.0121  0.2372  0.0562
  690MOL0     C93075   3.896  -0.595   3.597 -0.0200  0.0546 -0.1802
  690MOL0     C93076   3.851  -0.727   3.526 -0.3920 -0.0534 -0.5564
  690MOL0     C93077   3.825  -0.834   3.637  0.1998 -1.1744 -0.9505
  690MOL0     C93078   3.781  -0.963   3.562  0.4759  0.5319 -0.1914
  690MOL0     C93079   3.766  -1.089   3.638 -0.4505  0.0671  0.2265
  690MOL0     C93080   3.771  -1.210   3.684  0.0290  0.7272  0.4967
  690MOL0     C93081   3.954  -0.273   3.486  0.2454  0.0892 -0.0626
  690MOL0     C93082   3.984  -0.138   3.516 -0.1135  1.1721 -0.1138
  690MOL0     H93083   4.321   0.141   3.578  0.1596 -1.7038  1.2618
  690MOL0     H93084   4.475   0.329   3.589 -1.4446  0.0423 -1.9858
  690MOL0     H93085   4.709   0.457   3.899  0.4853  1.0739 -1.0407
  690MOL0     H93086   4.684   0.336   3.766 -3.2922  0.2125 -3.3887
  690MOL0     H93087   4.724   0.644   3.727  3.0859  1.2754 -3.5803
  690MOL0     H93088   4.854   0.530   3.739 -0.4873 -0.6421  2.7291
  690MOL0     H93089   4.824   0.507   3.513  0.5788  2.1217  1.2314
  690MOL0     H93090   4.680   0.403   3.549 -1.5901 -0.1447 -2.5355
  690MOL0     H93091   4.554   0.638   3.553  2.9795  1.1849  3.6107
  690MOL0     H93092   4.694   0.713   3.504 -3.4905  2.5251 -1.3366
  690MOL0     H93093   4.707   0.541   3.309 -1.5599  1.1336 -3.9873
  690MOL0     H93094   4.559   0.468   3.362 -1.2252 -0.2471 -0.7201
  690MOL0     H93095   4.581   0.762   3.274  1.1182 -0.7075 -0.9667
  690MOL0     H93096   4.561   0.638   3.153  3.4974  1.3328  0.6524
  690MOL0     H93097   4.340   0.575   3.275 -1.5418  0.2874  3.1722
  690MOL0     H93098   4.367   0.683   3.403  2.1205 -1.6591  1.2601
  690MOL0     H93099   4.196   0.724   3.204 -0.8563 -0.2114  0.0622
  690MOL0     H93100   4.335   0.752   3.101 -3.0540 -1.1593 -1.0407
  690MOL0     H93101   4.124   0.938   3.333 -0.6588  1.5308  1.2119
  690MOL0     H93102   4.102   1.155   3.436 -0.3624 -0.6597 -0.9211
  690MOL0     H93103   4.249   1.213   3.500  1.1225 -2.1816  0.0867
  690MOL0     H93104   4.127   1.387   3.369  0.1903  0.5530 -2.5509
  690MOL0     H93105   4.148   1.303   3.219 -2.8017  3.1852 -0.1681
  690MOL0     H93106   4.289   1.501   3.257 -1.5456  0.4928  2.1668
  690MOL0     H93107   4.375   1.347   3.218 -2.6841 -3.9273  1.7737
  690MOL0     H93108   4.458   1.320   3.445 -1.1450 -0.4413 -0.4419
  690MOL0     H93109   4.375   1.467   3.506 -0.9977  1.7832 -1.0736
  690MOL0     H93110   4.594   1.251   3.304 -1.3864  0.8574 -1.8613
  690MOL0     H93111   4.831   1.165   3.063 -0.7733  1.1570  0.7753
  690MOL0     H93112   4.887   1.123   3.225  1.7533  2.8911  1.1926
  690MOL0     H93113   4.711   1.113   3.179  0.4925 -1.1870 -2.3838
  690MOL0     H93114   5.330   1.238   3.153  2.5155  2.0425  0.4338
  690MOL0     H93115   5.514   1.237   2.976  1.0210  3.0708 -1.5118
  690MOL0     H93116   5.371   1.175   2.593 -1.4912  0.7789 -1.5850
  690MOL0     H93117   5.413   1.345   2.550  2.0775  0.6480 -2.8112
  690MOL0     H93118   5.633   1.313   2.549 -4.2485  3.7385 -0.4615
  690MOL0     H93119   5.626   1.137   2.580 -1.3575 -1.1934  0.5149
  690MOL0     H93120   5.531   1.266   2.322 -0.0030  0.0809  0.2139
  690MOL0     H93121   5.475   1.115   2.371  0.3080  0.4830 -1.3576
  690MOL0     H93122   5.759   1.177   2.306  0.7920 -0.0503 -1.7223
  690MOL0     H93123   5.715   1.036   2.399  0.5734  0.6256 -0.3204
  690MOL0     H93124   5.598   1.124   2.137  1.2720  2.7460  0.8333
  690MOL0     H93125   5.553   0.974   2.213 -0.7814  0.7227 -1.2430
  690MOL0     H93126   5.768   0.879   2.181  0.9637  1.4179  2.1857
  690MOL0     H93127   5.700   0.933   2.028  1.2693 -0.0710 -0.1400
  690MOL0     H93128   5.940   1.047   2.178 -2.6458 -3.5215  1.6232
  690MOL0     H93129   5.838   1.147   2.059  0.7173  0.1847 -0.4554
  690MOL0     H93130   6.031   1.072   1.957  1.7356 -2.1072  2.7782
  690MOL0     H93131   5.878   0.991   1.888 -0.8399 -2.0716  0.8349
  690MOL0     H93132   5.208   1.303   2.682 -0.7255  2.2644  0.5751
  690MOL0     H93133   5.036   1.303   2.865 -0.4281  0.7086  0.0244
  690MOL0     H93134   4.912   1.621   3.233  1.2617 -2.2630 -0.3757
  690MOL0     H93135   4.702   1.667   3.318  0.1380  0.9432 -1.1764
  690MOL0     H93136   4.363   0.391   4.003  0.6466 -1.7910  0.6584
  690MOL0     H93137   4.211   0.196   3.987 -2.3087 -0.8103 -1.9473
  690MOL0     H93138   4.073  -0.199   3.840  2.3071  2.0400 -1.1027
  690MOL0     H93139   3.967  -0.415   3.788  1.5842  0.5272  0.5700
  690MOL0     H93140   4.004  -0.596   3.611  0.7435  2.8812 -4.2110
  690MOL0     H93141   3.848  -0.581   3.695  0.6978  4.4641 -0.2525
  690MOL0     H93142   3.926  -0.760   3.454  0.4425 -1.7055  0.9956
  690MOL0     H93143   3.757  -0.693   3.480 -0.6927  2.8382  1.8812
  690MOL0     H93144   3.752  -0.800   3.711  1.6335 -1.1303  0.5014
  690MOL0     H93145   3.925  -0.849   3.679  0.4723 -0.6052 -1.3859
  690MOL0     H93146   3.844  -0.985   3.475 -2.0478 -1.1219 -1.7179
  690MOL0     H93147   3.686  -0.937   3.516 -1.7663 -3.7838  1.4429
  690MOL0     H93148   3.786  -1.308   3.726 -0.7977  0.4155  0.0827
  690MOL0     H93149   3.937  -0.303   3.383 -4.8964 -1.0293  0.8341
  690MOL0     H93150   3.998  -0.058   3.444 -0.2367  1.2297 -0.0745
  691MOL0     O93151   7.347   8.384   2.519 -0.0711 -0.1948 -0.0453
  691MOL0     C93152   7.268   8.456   2.464  0.1287  0.2838 -0.1405
  691MOL0     O93153   7.269   8.477   2.325  0.2503  0.9021  0.9147
  691MOL0     C93154   7.360   8.422   2.249 -0.3317 -0.6194  0.1934
  691MOL0     C93155   7.348   8.295   2.197  0.0898 -0.9797 -0.4087
  691MOL0     C93156   7.447   8.241   2.110 -1.0094  0.5418  0.3881
  691MOL0     C93157   7.565   8.316   2.083 -0.0575 -0.0282  0.3823
  691MOL0     O93158   7.655   8.270   1.989  0.3266 -0.4099  0.2377
  691MOL0     C93159   7.724   8.148   1.985  0.4934  0.5145 -0.6971
  691MOL0     C93160   7.833   8.165   1.864 -0.5801  0.6287  0.6229
  691MOL0     C93161   7.927   8.289   1.848  0.1695 -0.3500 -0.4890
  691MOL0     C93162   8.047   8.282   1.938 -0.5863  0.4261  0.9659
  691MOL0     C93163   8.151   8.385   1.886 -0.4010 -0.3732  0.6669
  691MOL0     C93164   8.224   8.353   1.748  0.0985 -0.6023 -0.8312
  691MOL0     C93165   8.319   8.241   1.756  0.0464  0.2463 -0.1321
  691MOL0     C93166   8.359   8.196   1.617 -0.3970  0.5550 -0.2703
  691MOL0     N93167   8.453   8.079   1.620  0.8757 -0.1119 -0.3945
  691MOL0     C93168   8.590   8.069   1.602  0.4792 -0.3887 -0.5342
  691MOL0     C93169   8.620   7.937   1.612 -0.1978 -0.1330  0.5856
  691MOL0     C93170   8.761   7.887   1.599 -0.2442  0.0580  1.2279
  691MOL0     C93171   8.799   7.858   1.454 -0.3904 -0.1533 -0.3845
  691MOL0     C93172   8.740   7.724   1.413 -0.6985 -0.6635  0.4062
  691MOL0     C93173   8.819   7.673   1.292 -0.3562  0.5544  0.0909
  691MOL0     O93174   8.947   7.634   1.342 -0.2378  0.2342 -0.1814
  691MOL0     C93175   9.052   7.595   1.256 -0.9174 -1.0486  0.2384
  691MOL0     C93176   9.034   7.538   1.125  0.3576 -0.2392 -0.3323
  691MOL0     C93177   9.134   7.493   1.044  0.2272  0.7135  0.1152
  691MOL0     C93178   9.105   7.420   0.909 -0.7648 -0.0362 -0.1820
  691MOL0     C93179   9.270   7.517   1.086  0.0477 -0.0245 -0.9324
  691MOL0     C93180   9.388   7.495   0.996  0.7675  0.9697  0.2519
  691MOL0     O93181   9.513   7.525   1.049  0.5596 -0.3801 -0.1573
  691MOL0     C93182   9.633   7.476   1.002 -0.0363 -0.1842 -0.8711
  691MOL0     C93183   9.736   7.506   1.089 -0.1145 -0.8915  1.0116
  691MOL0     C93184   9.861   7.470   1.052 -0.1470  0.0715  0.0150
  691MOL0     C93185   9.883   7.401   0.935 -1.4851  0.9414  0.0505
  691MOL0     O93186  10.013   7.366   0.911 -0.7135  0.2290  0.1607
  691MOL0     C93187  10.035   7.227   0.902  0.1986  0.6992  0.6180
  691MOL0     C93188  10.181   7.203   0.867 -0.1322 -0.5354  1.0331
  691MOL0     C93189  10.236   7.280   0.750  0.5075  0.3160  0.5131
  691MOL0     C93190  10.382   7.250   0.732 -0.0955  0.3196 -0.1835
  691MOL0     C93191  10.452   7.305   0.608 -0.2358 -1.2593 -0.5116
  691MOL0     C93192  10.465   7.459   0.628  0.3304  0.1690  0.6287
  691MOL0     C93193  10.553   7.522   0.517  0.3587  0.5165 -0.1368
  691MOL0     C93194  10.516   7.660   0.455 -1.0125  0.6032 -0.4034
  691MOL0    Cl93195  10.357   7.639   0.386  0.0143  0.0025 -0.0767
  691MOL0     C93196   9.778   7.363   0.854  1.2121  0.1603 -0.3237
  691MOL0     C93197   9.653   7.400   0.891  0.4502 -0.2570  0.7036
  691MOL0     O93198   9.370   7.480   0.876 -0.1350 -0.1665 -1.0565
  691MOL0     C93199   9.298   7.549   1.221  0.6183 -0.6690 -0.5324
  691MOL0     C93200   9.182   7.588   1.300 -0.5982 -0.0135 -0.0862
  691MOL0     N93201   8.497   7.875   1.642 -1.0582  0.1049  0.2541
  691MOL0     N93202   8.397   7.959   1.634 -0.2333 -0.1049 -0.5844
  691MOL0     C93203   7.577   8.441   2.148 -0.1844 -0.3406  0.5305
  691MOL0     C93204   7.480   8.494   2.231  0.1458 -0.4071  0.1512
  691MOL0     C93205   7.153   8.509   2.538  0.8107 -0.8921 -0.7090
  691MOL0     C93206   7.071   8.615   2.485  1.0541  0.3362 -0.4960
  691MOL0     C93207   6.959   8.663   2.553  0.4268 -0.2097 -0.3034
  691MOL0     C93208   6.946   8.625   2.689 -0.0269  0.8241  0.3385
  691MOL0     O93209   6.854   8.673   2.769 -0.5218  0.3996 -0.0424
  691MOL0     C93210   6.731   8.722   2.709 -0.0479 -0.9604 -0.5498
  691MOL0     C93211   6.632   8.768   2.811  0.3933  0.5909 -1.0535
  691MOL0     C93212   6.662   8.902   2.886 -0.0942 -0.5398  0.0555
  691MOL0     C93213   6.535   8.948   2.966  0.0942  0.9113 -0.1033
  691MOL0     C93214   6.581   9.025   3.082 -0.1826 -0.4929 -0.7585
  691MOL0     C93215   6.613   9.110   3.161 -0.5417 -0.6602 -0.3699
  691MOL0     C93216   7.032   8.536   2.740 -0.3007  0.1427 -0.3739
  691MOL0     C93217   7.133   8.475   2.674  0.5328 -1.1955  0.9174
  691MOL0     H93218   7.264   8.245   2.244  1.9326 -1.6903  2.3666
  691MOL0     H93219   7.453   8.142   2.066  1.7359  0.1672  1.4349
  691MOL0     H93220   7.776   8.132   2.080 -2.5037  0.7680  1.1295
  691MOL0     H93221   7.654   8.068   1.959 -2.6462  2.1562  1.8870
  691MOL0     H93222   7.903   8.081   1.865 -0.7560  0.4577 -0.2424
  691MOL0     H93223   7.777   8.167   1.770  2.1258 -1.4600 -1.1919
  691MOL0     H93224   7.956   8.298   1.743 -0.9229  0.4248 -0.7448
  691MOL0     H93225   7.873   8.382   1.871 -1.7542 -2.0612  2.4944
  691MOL0     H93226   8.036   8.308   2.043  1.4729 -1.5616  1.7515
  691MOL0     H93227   8.092   8.183   1.932  0.1093  0.6948  1.7375
  691MOL0     H93228   8.097   8.477   1.863 -0.4325 -0.1587  1.5681
  691MOL0     H93229   8.227   8.406   1.962 -2.0299  1.1697  1.9622
  691MOL0     H93230   8.160   8.331   1.661  1.8834 -2.4873 -1.7484
  691MOL0     H93231   8.282   8.442   1.723  1.8598 -1.7480 -1.0059
  691MOL0     H93232   8.408   8.271   1.813  0.1916  1.3314 -0.8977
  691MOL0     H93233   8.271   8.157   1.806 -0.6291 -0.4479 -1.8648
  691MOL0     H93234   8.404   8.274   1.555 -0.9644  0.2868 -1.0374
  691MOL0     H93235   8.269   8.170   1.561 -1.7893  3.4994  0.3857
  691MOL0     H93236   8.666   8.144   1.580  0.3049  0.0982  0.4866
  691MOL0     H93237   8.840   7.949   1.641 -0.4331  0.3301  1.1811
  691MOL0     H93238   8.776   7.787   1.641  0.7875 -0.0735  0.5922
  691MOL0     H93239   8.908   7.854   1.451 -0.3333  0.7019  0.3568
  691MOL0     H93240   8.778   7.938   1.383 -0.9500 -0.1532 -0.2274
  691MOL0     H93241   8.639   7.744   1.377 -0.3507 -0.7099 -0.6519
  691MOL0     H93242   8.745   7.645   1.488 -0.4653 -0.7202  0.3327
  691MOL0     H93243   8.829   7.737   1.203  2.4880 -1.4088 -1.1494
  691MOL0     H93244   8.764   7.588   1.253  2.5254 -0.7421 -1.4729
  691MOL0     H93245   8.933   7.510   1.095  1.2029 -0.8686 -2.8670
  691MOL0     H93246   9.131   7.494   0.832 -0.9233  1.3750  1.0851
  691MOL0     H93247   9.163   7.327   0.910  0.2696  0.4730  3.9443
  691MOL0     H93248   8.998   7.401   0.902 -1.6899  3.7003  1.4092
  691MOL0     H93249   9.720   7.565   1.179  1.3891  2.1866 -0.5715
  691MOL0     H93250   9.946   7.472   1.119 -1.2325 -0.0557  1.4364
  691MOL0     H93251  10.014   7.179   0.999  0.1584 -2.6012 -0.9006
  691MOL0     H93252   9.971   7.199   0.818  1.2107  1.3373 -0.3733
  691MOL0     H93253  10.224   7.245   0.959 -3.4889  4.1299  0.8893
  691MOL0     H93254  10.190   7.096   0.849 -0.8857 -0.1142 -2.7221
  691MOL0     H93255  10.224   7.388   0.745  4.1037  0.8090 -1.1041
  691MOL0     H93256  10.181   7.241   0.664 -0.5937  2.3101  0.2781
  691MOL0     H93257  10.422   7.288   0.827  0.6852 -0.3523 -0.2252
  691MOL0     H93258  10.407   7.144   0.732 -0.6561  0.1873  0.2362
  691MOL0     H93259  10.411   7.269   0.514 -2.9332  0.7096 -0.1840
  691MOL0     H93260  10.557   7.274   0.612 -0.4696 -2.0443 -0.1866
  691MOL0     H93261  10.362   7.489   0.605  1.1337  1.3684 -1.6921
  691MOL0     H93262  10.503   7.491   0.726  0.7144  3.7147 -0.5183
  691MOL0     H93263  10.535   7.447   0.438  1.1653  0.6227 -0.4314
  691MOL0     H93264  10.655   7.512   0.554  0.1319 -0.6793  0.2107
  691MOL0     H93265  10.593   7.672   0.378  0.1993 -4.1421 -0.3063
  691MOL0     H93266  10.520   7.743   0.526 -0.3863  0.3217 -0.0992
  691MOL0     H93267   9.791   7.296   0.769  0.1113 -2.5881  1.5330
  691MOL0     H93268   9.574   7.377   0.820  0.4973  1.0859  0.1933
  691MOL0     H93269   9.395   7.543   1.268  0.7097  1.4568 -0.3545
  691MOL0     H93270   9.194   7.611   1.405 -1.8834 -0.6540  0.2206
  691MOL0     H93271   7.670   8.493   2.126 -0.2957  0.6434  2.2435
  691MOL0     H93272   7.493   8.593   2.274  0.1944 -0.3419 -0.0139
  691MOL0     H93273   7.081   8.651   2.383 -0.3964  1.2975 -0.3212
  691MOL0     H93274   6.894   8.739   2.511  3.0190  1.4605 -1.5501
  691MOL0     H93275   6.765   8.813   2.657 -1.9488  0.5915  0.7722
  691MOL0     H93276   6.682   8.650   2.643  0.9180 -1.2953 -0.9241
  691MOL0     H93277   6.620   8.689   2.886 -3.3547  0.8800 -1.1723
  691MOL0     H93278   6.535   8.784   2.764 -0.2975  0.2741  0.2308
  691MOL0     H93279   6.690   8.980   2.815  4.6808  0.0008  2.1096
  691MOL0     H93280   6.751   8.897   2.950 -1.5515  1.5919  2.4601
  691MOL0     H93281   6.508   8.851   3.008  1.6152  0.7500  0.5677
  691MOL0     H93282   6.449   8.999   2.922 -1.3430 -1.1558  0.1264
  691MOL0     H93283   6.644   9.192   3.223 -1.4892 -0.5754  0.0170
  691MOL0     H93284   7.036   8.534   2.849  0.9105  2.3204 -0.3236
  691MOL0     H93285   7.219   8.419   2.711  3.5568  2.1526 -0.3739
  692MOL0     O93286   2.397   5.976   1.361  0.7079 -0.0768  0.0914
  692MOL0     C93287   2.350   5.997   1.475 -0.0384 -0.2360 -0.6910
  692MOL0     O93288   2.394   6.088   1.560 -0.1335  0.0668  0.3469
  692MOL0     C93289   2.475   6.196   1.529  0.4421 -0.0386 -0.1738
  692MOL0     C93290   2.509   6.250   1.406 -0.4808  0.1259 -0.1531
  692MOL0     C93291   2.595   6.361   1.401 -0.6942  0.5285  0.0104
  692MOL0     C93292   2.654   6.424   1.515 -0.1128 -0.2163 -0.6085
  692MOL0     O93293   2.748   6.523   1.491  0.3726 -0.1100 -0.2562
  692MOL0     C93294   2.852   6.544   1.586 -0.2734  0.4314  0.2462
  692MOL0     C93295   2.813   6.670   1.652 -0.7929 -0.1232  0.1422
  692MOL0     C93296   2.925   6.711   1.742 -0.1753  0.3759 -0.0616
  692MOL0     C93297   2.949   6.609   1.860 -0.2241  0.0983 -0.1087
  692MOL0     C93298   3.024   6.672   1.979 -1.1218 -0.6519  0.7703
  692MOL0     C93299   3.070   6.562   2.081  0.4761  0.3824  0.3861
  692MOL0     C93300   3.174   6.607   2.184 -0.6262  0.2050 -0.1221
  692MOL0     C93301   3.298   6.616   2.110 -0.7147 -0.2622  0.5887
  692MOL0     N93302   3.423   6.639   2.184 -0.3560 -0.0158  0.1596
  692MOL0     C93303   3.440   6.724   2.297 -0.0037  0.0485 -0.3155
  692MOL0     C93304   3.576   6.723   2.312  0.2556 -0.1068  0.7317
  692MOL0     C93305   3.666   6.790   2.411  0.7548  0.1690  0.5397
  692MOL0     C93306   3.598   6.783   2.546  0.6506 -0.4012 -0.2219
  692MOL0     C93307   3.680   6.859   2.654  0.6622 -0.5653  1.1081
  692MOL0     C93308   3.593   6.882   2.781 -0.6966  0.4341  0.6958
  692MOL0     O93309   3.678   6.951   2.867  0.5768 -0.0186  0.1860
  692MOL0     C93310   3.718   6.882   2.983 -0.8332  0.9519  1.2102
  692MOL0     C93311   3.806   6.771   2.978 -0.4654  0.4545  0.7810
  692MOL0     C93312   3.840   6.692   3.089 -0.3762 -1.3392  0.8803
  692MOL0     C93313   3.941   6.579   3.063 -0.6774 -0.1595 -0.0886
  692MOL0     C93314   3.790   6.725   3.213 -0.4859 -0.7772 -0.0772
  692MOL0     C93315   3.815   6.660   3.344  0.3657  1.2183 -0.0121
  692MOL0     O93316   3.784   6.721   3.458 -0.1672  0.3737  0.0918
  692MOL0     C93317   3.802   6.656   3.578  0.2556 -1.2950  0.4807
  692MOL0     C93318   3.706   6.564   3.618 -0.2271  0.2010  0.3788
  692MOL0     C93319   3.698   6.503   3.743  0.7721  0.1537  0.6038
  692MOL0     C93320   3.810   6.531   3.828  0.2635 -0.2089  0.2465
  692MOL0     O93321   3.803   6.478   3.957 -0.2860 -0.0742 -0.3872
  692MOL0     C93322   3.789   6.330   3.965  0.1996 -0.2905  0.0884
  692MOL0     C93323   3.904   6.251   3.901 -0.7248 -0.6675  0.0424
  692MOL0     C93324   3.853   6.100   3.876 -0.3710  1.4112  0.0516
  692MOL0     C93325   3.970   6.021   3.808 -0.4189  0.2477  0.0384
  692MOL0     C93326   3.954   5.868   3.817  0.4409  0.1969  1.0152
  692MOL0     C93327   4.076   5.800   3.735  0.7488 -0.4098  0.0813
  692MOL0     C93328   4.063   5.653   3.715 -0.5941 -0.1860 -0.2622
  692MOL0     C93329   4.043   5.606   3.567 -0.1673  0.2502  0.7158
  692MOL0    Cl93330   4.186   5.601   3.476 -0.0637 -0.0554  0.0065
  692MOL0     C93331   3.908   6.620   3.793 -0.7850  0.3700 -0.3387
  692MOL0     C93332   3.908   6.686   3.668  0.1520 -0.2745  0.8536
  692MOL0     O93333   3.842   6.537   3.335  0.1205  0.3617  0.0644
  692MOL0     C93334   3.703   6.843   3.220 -0.9862 -0.5560  0.1293
  692MOL0     C93335   3.679   6.921   3.104  0.0005  1.4546  0.0230
  692MOL0     N93336   3.630   6.648   2.203 -0.3641  0.6668 -0.3415
  692MOL0     N93337   3.536   6.605   2.125  0.7115  0.2952 -0.5135
  692MOL0     C93338   2.606   6.368   1.637  0.5831 -0.1885  0.3585
  692MOL0     C93339   2.514   6.260   1.642  0.1208 -0.9904 -0.6539
  692MOL0     C93340   2.244   5.921   1.536  0.5076 -0.3152  0.8450
  692MOL0     C93341   2.223   5.784   1.519 -0.7513 -0.4385 -0.9124
  692MOL0     C93342   2.111   5.707   1.574  0.2405  0.0474  0.7359
  692MOL0     C93343   2.032   5.766   1.676 -0.6412  0.3667 -0.0433
  692MOL0     O93344   1.921   5.704   1.734  0.4764 -0.4393  0.5400
  692MOL0     C93345   1.895   5.564   1.699 -0.8745 -0.3160 -0.0047
  692MOL0     C93346   1.776   5.545   1.607  0.2761  0.4411  0.9260
  692MOL0     C93347   1.811   5.534   1.460 -0.5931 -0.3913  0.6495
  692MOL0     C93348   1.710   5.474   1.369 -0.7495 -0.2750 -0.3116
  692MOL0     C93349   1.766   5.454   1.232  0.5580  0.8448 -0.4943
  692MOL0     C93350   1.810   5.434   1.116 -0.3891 -0.5474 -0.2050
  692MOL0     C93351   2.042   5.904   1.688 -0.4542 -0.7676 -0.6536
  692MOL0     C93352   2.144   5.979   1.622 -0.4911 -0.0877 -0.0685
  692MOL0     H93353   2.463   6.211   1.316 -1.2668  3.9084 -1.5867
  692MOL0     H93354   2.615   6.414   1.309  1.0678  0.3372  0.2528
  692MOL0     H93355   2.854   6.451   1.644 -1.6036  1.9468  2.8886
  692MOL0     H93356   2.950   6.553   1.538 -1.0018 -4.1936 -2.7592
  692MOL0     H93357   2.789   6.754   1.587 -2.0936 -0.0737  0.6603
  692MOL0     H93358   2.717   6.658   1.705 -1.8414  2.4853 -0.9991
  692MOL0     H93359   3.014   6.719   1.679  0.4973 -2.3070  0.4403
  692MOL0     H93360   2.892   6.809   1.778 -1.2698  0.6885 -1.8123
  692MOL0     H93361   2.852   6.563   1.881  0.0349 -0.9780 -1.1435
  692MOL0     H93362   3.004   6.522   1.823 -3.7070 -1.8312 -1.1452
  692MOL0     H93363   3.115   6.712   1.934 -1.9146  0.1381 -0.1654
  692MOL0     H93364   2.970   6.762   2.010  1.0537  1.2635 -0.7685
  692MOL0     H93365   2.979   6.531   2.132  0.4410  0.8909  0.6413
  692MOL0     H93366   3.100   6.472   2.026  1.7784  0.6822  0.5675
  692MOL0     H93367   3.136   6.706   2.212 -0.4959  0.3744 -0.5318
  692MOL0     H93368   3.179   6.541   2.271  0.3295 -0.1569 -0.4437
  692MOL0     H93369   3.285   6.696   2.036  0.3219 -1.5600 -1.0487
  692MOL0     H93370   3.320   6.528   2.050 -0.5370 -2.6047  3.7994
  692MOL0     H93371   3.372   6.773   2.366 -1.0363  0.9788 -1.9346
  692MOL0     H93372   3.755   6.728   2.420 -1.2448 -2.9895  0.2033
  692MOL0     H93373   3.699   6.889   2.379 -0.6965  0.4954 -0.0315
  692MOL0     H93374   3.605   6.680   2.581  0.4695  0.1959  1.6550
  692MOL0     H93375   3.493   6.812   2.539  0.8953  0.8790  0.9677
  692MOL0     H93376   3.695   6.964   2.625 -4.0535  0.9637  3.2585
  692MOL0     H93377   3.776   6.808   2.665  1.9272  0.4843 -3.2145
  692MOL0     H93378   3.550   6.785   2.805 -1.5464  1.2287  2.5772
  692MOL0     H93379   3.504   6.941   2.755 -1.9466 -1.7108 -0.1267
  692MOL0     H93380   3.845   6.729   2.886 -0.9579  1.2587  0.1878
  692MOL0     H93381   3.997   6.561   3.155 -0.6733  1.1321  0.1820
  692MOL0     H93382   3.879   6.502   3.017 -2.6009  1.8710 -1.0831
  692MOL0     H93383   4.019   6.594   2.987  1.6575 -2.8989  1.5590
  692MOL0     H93384   3.623   6.547   3.551 -0.7343  1.5734  0.6227
  692MOL0     H93385   3.618   6.437   3.775  0.4093  0.9469  1.3732
  692MOL0     H93386   3.783   6.310   4.073 -1.9446  3.9858  0.9595
  692MOL0     H93387   3.692   6.295   3.927  0.2490 -0.0764 -0.2350
  692MOL0     H93388   3.928   6.299   3.806 -2.5928 -0.9644 -0.6252
  692MOL0     H93389   3.988   6.246   3.971 -0.5988 -3.6244 -0.2353
  692MOL0     H93390   3.768   6.097   3.808  0.1769  2.5878 -0.7306
  692MOL0     H93391   3.843   6.057   3.976  2.3691  1.2210  0.3356
  692MOL0     H93392   3.969   6.058   3.705 -0.4287  1.1043  0.3423
  692MOL0     H93393   4.063   6.060   3.851 -0.1087 -1.3053  0.8269
  692MOL0     H93394   3.865   5.842   3.760  2.7970 -0.8378 -2.5873
  692MOL0     H93395   3.959   5.824   3.917  0.5964 -2.9136 -0.2297
  692MOL0     H93396   4.092   5.847   3.637  3.6965 -0.6023  0.3815
  692MOL0     H93397   4.167   5.832   3.787  0.5585 -0.5723  0.5204
  692MOL0     H93398   3.974   5.614   3.766 -2.7152  1.3818 -2.4832
  692MOL0     H93399   4.146   5.595   3.755 -0.2207  0.3595 -0.2423
  692MOL0     H93400   3.979   5.681   3.519  2.2107  1.0909 -1.3262
  692MOL0     H93401   3.988   5.511   3.570  1.4160 -0.7148  0.2159
  692MOL0     H93402   3.984   6.648   3.866  0.2842  0.8169 -1.5851
  692MOL0     H93403   3.992   6.751   3.646 -1.9240  1.7855 -1.6963
  692MOL0     H93404   3.663   6.887   3.311 -1.7192 -3.2055  1.1957
  692MOL0     H93405   3.603   6.998   3.107 -0.4196  1.0365  0.3611
  692MOL0     H93406   2.633   6.422   1.728 -0.4460  0.3278  0.3668
  692MOL0     H93407   2.477   6.213   1.732  1.7508 -1.4538 -0.1852
  692MOL0     H93408   2.288   5.719   1.460 -0.6796 -1.3306  0.1144
  692MOL0     H93409   2.107   5.604   1.542 -0.5025  0.1156  0.5735
  692MOL0     H93410   1.974   5.501   1.657 -1.1724  0.6810 -2.2301
  692MOL0     H93411   1.889   5.520   1.799  3.1630  0.3560  0.7458
  692MOL0     H93412   1.705   5.624   1.632  0.0368  1.1922 -1.8266
  692MOL0     H93413   1.741   5.444   1.631 -1.3345  0.2814 -1.7301
  692MOL0     H93414   1.908   5.490   1.438  0.3092 -0.8908  4.7782
  692MOL0     H93415   1.838   5.635   1.427  2.6686 -0.3192  3.0702
  692MOL0     H93416   1.623   5.541   1.372 -0.4987  0.0746 -0.6660
  692MOL0     H93417   1.692   5.375   1.410  1.2463 -0.0125  1.3731
  692MOL0     H93418   1.852   5.414   1.019 -2.1138  0.2555 -1.1581
  692MOL0     H93419   1.974   5.973   1.736 -0.3469 -0.5689 -0.7868
  692MOL0     H93420   2.151   6.087   1.618  3.1413 -0.0298  2.5031
  693MOL0     O93421   2.389  10.255  10.552 -0.2723 -0.4315  0.3504
  693MOL0     C93422   2.282  10.193  10.568  0.3841  0.0584  0.6111
  693MOL0     O93423   2.206  10.144  10.458 -0.2413 -0.3205 -0.1130
  693MOL0     C93424   2.239  10.148  10.327  0.2738  0.9228  0.6243
  693MOL0     C93425   2.365  10.169  10.266  0.1151  0.0931  0.5174
  693MOL0     C93426   2.371  10.146  10.124 -0.5232 -0.1881 -0.4390
  693MOL0     C93427   2.260  10.113  10.046  0.0726 -1.1107  0.6114
  693MOL0     O93428   2.274  10.089   9.913 -0.5955 -0.1706  0.1897
  693MOL0     C93429   2.166  10.070   9.819 -0.7375 -0.4249 -0.2646
  693MOL0     C93430   2.220  10.058   9.680 -0.1607 -0.7970  0.1924
  693MOL0     C93431   2.252  10.200   9.623 -0.0147 -0.3077 -0.6039
  693MOL0     C93432   2.235  10.207   9.467  0.1073  0.4671 -0.1033
  693MOL0     C93433   2.096  10.173   9.407 -0.4300 -0.1868  0.0966
  693MOL0     C93434   2.075  10.249   9.275  0.8114  0.2091 -0.2527
  693MOL0     C93435   1.927  10.236   9.231  0.1307  0.8803 -0.5145
  693MOL0     C93436   1.890  10.299   9.103  0.4878  0.5607 -0.4718
  693MOL0     N93437   1.975  10.237   9.000  1.2798 -0.8069 -0.0348
  693MOL0     C93438   1.963  10.109   8.945  0.6601 -0.9432  0.0327
  693MOL0     C93439   2.030  10.111   8.823 -0.7708 -0.8051  0.4464
  693MOL0     C93440   2.049   9.997   8.731 -0.6531  1.5150  0.2747
  693MOL0     C93441   2.191   9.990   8.665  1.0431 -0.4565 -0.5750
  693MOL0     C93442   2.194   9.879   8.558 -0.0638  0.3690 -0.7045
  693MOL0     C93443   2.189   9.743   8.614  0.1109  0.5484  0.1641
  693MOL0     O93444   2.303   9.727   8.710 -0.0820  0.5769 -0.1395
  693MOL0     C93445   2.428   9.701   8.668 -0.3374 -0.6894 -0.2274
  693MOL0     C93446   2.524   9.680   8.769 -0.2084 -0.0118 -0.5286
  693MOL0     C93447   2.663   9.647   8.743 -0.2628 -0.5915  0.0110
  693MOL0     C93448   2.759   9.634   8.860 -0.4705  0.8359 -0.4386
  693MOL0     C93449   2.696   9.631   8.605 -0.0447  0.0851  0.2604
  693MOL0     C93450   2.830   9.589   8.568 -0.7303 -1.1410  0.7587
  693MOL0     O93451   2.851   9.558   8.442 -0.3270 -1.4623  0.0660
  693MOL0     C93452   2.962   9.488   8.405 -0.5247 -0.0328  1.0413
  693MOL0     C93453   3.012   9.370   8.467  0.4420 -0.1064  0.0689
  693MOL0     C93454   3.131   9.316   8.421 -0.4678 -1.1076 -0.5650
  693MOL0     C93455   3.198   9.370   8.306  0.2276  0.4555  0.1648
  693MOL0     O93456   3.315   9.302   8.264  0.4311  0.1811  0.2390
  693MOL0     C93457   3.427   9.318   8.356  0.1841 -0.0354  0.7199
  693MOL0     C93458   3.497   9.455   8.332  0.1409 -0.1923  0.0962
  693MOL0     C93459   3.587   9.449   8.204  0.3140  1.2931  0.6275
  693MOL0     C93460   3.711   9.547   8.214  1.4771 -0.0262 -0.0776
  693MOL0     C93461   3.791   9.524   8.091 -0.1681  0.0840  0.2425
  693MOL0     C93462   3.912   9.613   8.071 -0.0711 -0.2222 -0.8388
  693MOL0     C93463   3.957   9.604   7.924  0.5547 -0.7237  0.1617
  693MOL0     C93464   4.110   9.648   7.892  0.0285 -0.5663  0.3361
  693MOL0    Cl93465   4.147   9.820   7.943  0.7048  0.3510  0.2690
  693MOL0     C93466   3.138   9.477   8.241 -0.1302 -0.4040  1.1725
  693MOL0     C93467   3.026   9.540   8.297  0.1182  0.7757 -0.1177
  693MOL0     O93468   2.921   9.593   8.651  0.3867  0.5540 -0.0286
  693MOL0     C93469   2.596   9.649   8.503 -0.2021  0.2786 -0.0272
  693MOL0     C93470   2.465   9.681   8.532  1.0705  0.1640  0.5780
  693MOL0     N93471   2.084  10.240   8.806 -1.1255 -0.0933 -0.2320
  693MOL0     N93472   2.043  10.308   8.912  0.0353 -0.7539  0.4474
  693MOL0     C93473   2.137  10.106  10.111 -0.4798  0.0530  0.2464
  693MOL0     C93474   2.130  10.116  10.250 -0.3492  0.2937 -0.6263
  693MOL0     C93475   2.230  10.177  10.692  1.0647  1.2288 -0.1922
  693MOL0     C93476   2.104  10.115  10.711  0.1084  1.4025 -0.3620
  693MOL0     C93477   2.043  10.112  10.834 -0.5775  0.4473 -0.6788
  693MOL0     C93478   2.096  10.171  10.951 -1.2126 -0.0021 -0.1062
  693MOL0     O93479   2.049  10.172  11.073 -0.1993  0.0811 -0.0022
  693MOL0     C93480   1.926  10.103  11.098  0.0070  0.5577 -0.3295
  693MOL0     C93481   1.804  10.178  11.040  0.9493 -0.3467  0.1835
  693MOL0     C93482   1.670  10.152  11.106  0.0499  0.8424  0.8886
  693MOL0     C93483   1.647  10.001  11.129 -0.3405  0.4914 -0.1116
  693MOL0     C93484   1.660   9.979  11.272  1.5085 -0.3555  0.7921
  693MOL0     C93485   1.662   9.964  11.389  0.3556 -1.2245 -0.5089
  693MOL0     C93486   2.224  10.225  10.928  0.0646  0.1952 -0.4049
  693MOL0     C93487   2.287  10.229  10.808 -0.0800 -0.1706 -0.5042
  693MOL0     H93488   2.458  10.194  10.317  0.6464 -2.6107  0.9793
  693MOL0     H93489   2.459  10.141  10.061 -1.0088  2.7389 -1.4964
  693MOL0     H93490   2.124   9.971   9.835  1.7766 -1.3957  0.8460
  693MOL0     H93491   2.090  10.150   9.816 -1.4206 -1.1012 -2.1766
  693MOL0     H93492   2.310   9.997   9.676  1.7789  1.7075  2.0523
  693MOL0     H93493   2.141  10.009   9.622 -2.9788  2.6155  0.8164
  693MOL0     H93494   2.200  10.282   9.673  1.3084 -0.2246  0.6727
  693MOL0     H93495   2.357  10.219   9.648  0.9033 -2.8781 -2.1246
  693MOL0     H93496   2.269  10.306   9.434 -0.7346  1.4130  1.7149
  693MOL0     H93497   2.309  10.134   9.431 -1.0409 -0.0732 -1.4363
  693MOL0     H93498   2.107  10.070   9.374 -2.0883  0.3364 -2.4171
  693MOL0     H93499   2.019  10.202   9.480 -3.1539  0.1669 -2.6787
  693MOL0     H93500   2.089  10.355   9.297 -1.9879  0.7872 -0.8870
  693MOL0     H93501   2.147  10.211   9.202  1.7283 -0.7153  1.0921
  693MOL0     H93502   1.913  10.130   9.208  1.8373 -0.0110  2.0599
  693MOL0     H93503   1.864  10.260   9.316 -0.3754 -3.0952  0.4416
  693MOL0     H93504   1.886  10.407   9.117 -1.3480  0.3148  1.2791
  693MOL0     H93505   1.789  10.259   9.089  1.0958 -1.3232  0.1903
  693MOL0     H93506   1.904  10.031   8.992 -1.8418 -0.1665 -1.5897
  693MOL0     H93507   2.027   9.904   8.784 -3.8464  0.4975 -2.5111
  693MOL0     H93508   1.964   9.993   8.663 -0.6833 -1.5432  0.3833
  693MOL0     H93509   2.269   9.973   8.740  1.0762  1.6023 -0.0673
  693MOL0     H93510   2.212  10.089   8.622  1.2373  0.0845  0.7026
  693MOL0     H93511   2.292   9.883   8.509  0.5803 -0.1251  0.4952
  693MOL0     H93512   2.117   9.894   8.482  1.7249 -0.7796 -2.8664
  693MOL0     H93513   2.197   9.678   8.526  4.1277  2.1030 -0.8374
  693MOL0     H93514   2.095   9.704   8.653 -1.4666  2.3673 -1.6367
  693MOL0     H93515   2.485   9.674   8.870 -1.6405  3.1852 -0.7723
  693MOL0     H93516   2.830   9.717   8.865 -0.5987  0.8997  0.5602
  693MOL0     H93517   2.696   9.643   8.949 -0.6273 -0.5805 -0.3821
  693MOL0     H93518   2.815   9.540   8.865 -0.6973  0.7187 -0.0535
  693MOL0     H93519   2.966   9.322   8.554 -3.5198  0.7836 -1.3387
  693MOL0     H93520   3.164   9.228   8.476 -1.9548 -0.5842  1.2898
  693MOL0     H93521   3.398   9.296   8.460  0.7966 -0.1908  0.8613
  693MOL0     H93522   3.497   9.236   8.338 -2.3710 -2.4499  1.1172
  693MOL0     H93523   3.426   9.538   8.323  2.6112  2.2447  1.7303
  693MOL0     H93524   3.562   9.472   8.418 -0.1135 -1.7105  0.6263
  693MOL0     H93525   3.521   9.467   8.118 -0.0933 -0.2949  0.5664
  693MOL0     H93526   3.628   9.348   8.191 -0.4382  0.7951  1.8835
  693MOL0     H93527   3.681   9.651   8.204 -1.0874 -0.5825  0.9002
  693MOL0     H93528   3.758   9.528   8.311 -3.6169 -0.8070  2.6066
  693MOL0     H93529   3.721   9.539   8.009 -1.4145  0.4854  1.3476
  693MOL0     H93530   3.834   9.424   8.084 -0.9039 -0.3243  1.3935
  693MOL0     H93531   3.877   9.714   8.091 -0.6265 -0.4464 -0.6759
  693MOL0     H93532   3.984   9.580   8.147 -1.2832 -0.5432  0.1899
  693MOL0     H93533   3.890   9.658   7.856  2.4868  1.3788 -0.2041
  693MOL0     H93534   3.962   9.500   7.889 -0.4764 -1.0316  0.8980
  693MOL0     H93535   4.119   9.636   7.784 -2.8820  1.3261 -0.2226
  693MOL0     H93536   4.186   9.578   7.928 -0.3492 -2.8347 -2.8874
  693MOL0     H93537   3.177   9.521   8.150  3.6772 -0.5734  2.5461
  693MOL0     H93538   2.993   9.627   8.242  3.9022 -0.1879 -4.5583
  693MOL0     H93539   2.633   9.635   8.402  0.7186 -1.0691  0.4700
  693MOL0     H93540   2.388   9.713   8.462  0.5217  2.4397  2.0853
  693MOL0     H93541   2.049  10.075  10.057 -0.9915  2.1411 -0.2240
  693MOL0     H93542   2.037  10.108  10.307 -1.7713  0.7068 -2.7681
  693MOL0     H93543   2.048  10.065  10.632 -2.9715  0.5628  2.1483
  693MOL0     H93544   1.954  10.051  10.837  0.7935 -1.6242  1.9914
  693MOL0     H93545   1.944  10.000  11.066  1.8429  0.8519 -0.3736
  693MOL0     H93546   1.913  10.097  11.207 -1.0306 -0.5649 -0.4964
  693MOL0     H93547   1.784  10.150  10.936 -0.8227  2.6209 -0.4005
  693MOL0     H93548   1.811  10.287  11.050 -2.8160  0.0840 -0.4505
  693MOL0     H93549   1.588  10.190  11.045  2.8362  0.4268 -3.4912
  693MOL0     H93550   1.663  10.213  11.197 -1.3895 -0.6573  1.8543
  693MOL0     H93551   1.703   9.927  11.072 -3.9380 -0.9579 -2.1465
  693MOL0     H93552   1.541   9.994  11.101 -0.4046 -2.4942  0.5236
  693MOL0     H93553   1.685   9.956  11.493  2.4318  3.1292 -0.4151
  693MOL0     H93554   2.281  10.247  11.018 -1.0108 -0.5991  0.4936
  693MOL0     H93555   2.389  10.266  10.804  0.2155 -0.7835  0.9043
  694MOL0     O93556   3.906  10.770   3.901  0.0211 -0.7703  0.3467
  694MOL0     C93557   3.860  10.687   3.971 -0.5573  0.1073 -0.3726
  694MOL0     O93558   3.927  10.570   4.000  0.0396  0.3510  0.0069
  694MOL0     C93559   4.058  10.528   3.960  0.0108 -0.2708 -0.1461
  694MOL0     C93560   4.117  10.425   4.035  0.3152  0.5885 -0.3553
  694MOL0     C93561   4.247  10.389   4.019  0.9052  0.6187  1.3536
  694MOL0     C93562   4.323  10.450   3.918 -0.1196  0.6466  0.5986
  694MOL0     O93563   4.448  10.401   3.886 -1.1023 -0.4201  0.8733
  694MOL0     C93564   4.540  10.331   3.983  0.3635  0.3405 -0.0313
  694MOL0     C93565   4.682  10.338   3.942  0.4328 -0.0634 -0.3579
  694MOL0     C93566   4.724  10.271   3.810 -0.1828 -0.0626 -0.2157
  694MOL0     C93567   4.711  10.118   3.812 -0.3336  0.5116  0.1644
  694MOL0     C93568   4.753  10.075   3.674 -0.2191  0.3237  0.3360
  694MOL0     C93569   4.782   9.926   3.688 -0.3209  0.6141 -0.5618
  694MOL0     C93570   4.797   9.849   3.558 -0.3963 -0.1041 -0.3635
  694MOL0     C93571   4.943   9.874   3.514 -0.4675  0.1630 -0.0944
  694MOL0     N93572   4.986   9.756   3.435 -0.3052 -0.0599 -0.3754
  694MOL0     C93573   5.044   9.638   3.481  0.1580 -0.9793  0.2047
  694MOL0     C93574   5.069   9.573   3.362 -0.2974 -0.3487  0.1763
  694MOL0     C93575   5.160   9.453   3.342 -0.1917 -0.0001 -0.4392
  694MOL0     C93576   5.101   9.320   3.384 -0.2779  0.0495  0.3628
  694MOL0     C93577   5.121   9.279   3.528 -0.3471  0.2664  0.3700
  694MOL0     C93578   5.269   9.221   3.542  1.1459 -0.2447 -0.3204
  694MOL0     O93579   5.373   9.329   3.528 -0.0238 -0.3893  0.5334
  694MOL0     C93580   5.500   9.304   3.545 -0.3595  0.2613  0.4668
  694MOL0     C93581   5.593   9.412   3.523 -0.1964  0.2306  0.1105
  694MOL0     C93582   5.727   9.408   3.555  0.6687  0.2862 -0.1323
  694MOL0     C93583   5.813   9.532   3.524  0.3518 -0.2363  0.0403
  694MOL0     C93584   5.777   9.286   3.608  0.3144 -0.1057 -0.3892
  694MOL0     C93585   5.919   9.276   3.657  0.3941 -0.4311  1.4202
  694MOL0     O93586   6.024   9.336   3.584  0.5448  0.2260 -0.1994
  694MOL0     C93587   6.144   9.356   3.641 -1.1010  0.4262  0.1361
  694MOL0     C93588   6.242   9.254   3.635 -0.1751 -0.7881 -0.3275
  694MOL0     C93589   6.373   9.292   3.670 -0.5052  0.4658 -0.8030
  694MOL0     C93590   6.415   9.421   3.712  0.5086 -0.2413 -0.2882
  694MOL0     O93591   6.550   9.446   3.727  0.0904  0.3993  0.1730
  694MOL0     C93592   6.583   9.547   3.816  0.4593 -0.6104  0.1691
  694MOL0     C93593   6.706   9.507   3.896  0.7057  0.3921 -0.0555
  694MOL0     C93594   6.677   9.397   3.995 -0.5811 -0.1527  0.0566
  694MOL0     C93595   6.785   9.315   4.065  0.4002 -0.3348  0.5851
  694MOL0     C93596   6.724   9.215   4.167 -0.7238  0.9723  0.1294
  694MOL0     C93597   6.829   9.176   4.274 -0.3196  0.1796  0.6208
  694MOL0     C93598   6.979   9.141   4.231 -0.0777 -0.0512  1.1274
  694MOL0     C93599   7.077   9.150   4.349  0.6744  0.6391 -0.0182
  694MOL0    Cl93600   7.008   9.064   4.488  0.2278  0.2241 -0.2583
  694MOL0     C93601   6.306   9.518   3.732 -0.4756  0.7652 -0.0022
  694MOL0     C93602   6.181   9.480   3.693  0.8123 -0.1827  0.6453
  694MOL0     O93603   5.931   9.213   3.762  0.3018 -0.0642  0.5823
  694MOL0     C93604   5.693   9.178   3.636 -0.0307  0.4472  0.1955
  694MOL0     C93605   5.558   9.187   3.605 -0.2627 -0.8309 -0.6100
  694MOL0     N93606   4.996   9.638   3.263  0.1078 -0.2691 -1.0442
  694MOL0     N93607   4.962   9.753   3.304  0.3452  0.4373 -0.4846
  694MOL0     C93608   4.269  10.555   3.843 -0.5017  0.3152  0.9456
  694MOL0     C93609   4.141  10.598   3.867 -0.6484  0.0246  0.3228
  694MOL0     C93610   3.741  10.724   4.047  0.0450 -0.0544 -0.5878
  694MOL0     C93611   3.675  10.622   4.122 -0.0858  0.5104  0.2028
  694MOL0     C93612   3.560  10.643   4.203 -0.5989  0.0912  0.6171
  694MOL0     C93613   3.497  10.770   4.193  0.6612 -1.5516 -1.4161
  694MOL0     O93614   3.374  10.785   4.258 -0.7982  0.6529 -0.2206
  694MOL0     C93615   3.282  10.676   4.256 -0.0801  0.1627 -1.1160
  694MOL0     C93616   3.145  10.728   4.220  0.6302 -0.6131  0.3869
  694MOL0     C93617   3.040  10.611   4.209  0.5685  0.3141 -1.3527
  694MOL0     C93618   2.976  10.567   4.344  0.5231  1.2265  0.0908
  694MOL0     C93619   3.062  10.468   4.429 -0.1077 -0.4720 -0.5614
  694MOL0     C93620   3.128  10.378   4.477 -0.9148  0.1708 -0.5943
  694MOL0     C93621   3.553  10.871   4.113 -0.1502 -0.0895 -0.0846
  694MOL0     C93622   3.681  10.851   4.051 -0.0653  0.0507  0.1380
  694MOL0     H93623   4.072  10.370   4.117  0.7211  1.3065  0.3587
  694MOL0     H93624   4.282  10.304   4.076 -3.9356 -4.0966 -1.7473
  694MOL0     H93625   4.523  10.382   4.078  0.1697  1.5667 -0.7037
  694MOL0     H93626   4.509  10.227   3.993 -0.2407  0.4544 -0.6521
  694MOL0     H93627   4.698  10.446   3.938 -2.0825  0.3412 -1.5537
  694MOL0     H93628   4.744  10.296   4.021  0.8350  1.8924  0.4300
  694MOL0     H93629   4.665  10.323   3.734 -0.0474 -1.5295 -1.3749
  694MOL0     H93630   4.830  10.299   3.812  0.1740 -1.3514 -0.1086
  694MOL0     H93631   4.781  10.080   3.887 -2.2068 -1.1616  1.1714
  694MOL0     H93632   4.613  10.079   3.841 -0.2141  0.0709 -0.0097
  694MOL0     H93633   4.674  10.091   3.600  0.0450  2.8259  0.5110
  694MOL0     H93634   4.850  10.115   3.641 -0.7666  1.8268  0.4593
  694MOL0     H93635   4.870   9.904   3.749 -2.1583 -2.5186  1.2234
  694MOL0     H93636   4.694   9.886   3.741 -2.7751 -1.2439 -5.4085
  694MOL0     H93637   4.779   9.743   3.575 -0.7615  0.1687  1.0469
  694MOL0     H93638   4.721   9.897   3.496  0.0931  1.3718  0.1301
  694MOL0     H93639   5.015   9.866   3.596  0.2808 -4.2459 -0.8786
  694MOL0     H93640   4.933   9.964   3.452 -3.0512  0.1422  0.1915
  694MOL0     H93641   5.079   9.607   3.579  2.5474 -0.9812 -0.5816
  694MOL0     H93642   5.177   9.448   3.234  0.9466 -4.0150 -0.2315
  694MOL0     H93643   5.260   9.466   3.386 -0.1762 -3.8344  1.0667
  694MOL0     H93644   5.151   9.251   3.316  0.5832  0.8757  0.1354
  694MOL0     H93645   4.997   9.321   3.351 -0.6003  2.0207  1.2906
  694MOL0     H93646   5.026   9.229   3.546 -1.3380  2.7098  2.5405
  694MOL0     H93647   5.108   9.371   3.585  2.9690  1.6719 -0.8549
  694MOL0     H93648   5.282   9.142   3.468  0.0861 -0.6965 -0.0491
  694MOL0     H93649   5.278   9.167   3.637 -2.8320 -1.1014 -0.2558
  694MOL0     H93650   5.560   9.513   3.502 -0.6319  0.0777  0.0511
  694MOL0     H93651   5.884   9.554   3.605  0.5322 -0.9291  0.0780
  694MOL0     H93652   5.887   9.519   3.444  0.1078 -1.3225 -0.0191
  694MOL0     H93653   5.746   9.613   3.496 -3.1515 -2.4319  1.4553
  694MOL0     H93654   6.225   9.152   3.603 -5.0342  0.1032 -1.2773
  694MOL0     H93655   6.440   9.206   3.664  0.1316  0.9484 -0.7568
  694MOL0     H93656   6.610   9.637   3.761 -1.8706  0.0249 -0.0320
  694MOL0     H93657   6.498   9.571   3.882 -0.1318  3.1719 -1.6953
  694MOL0     H93658   6.792   9.472   3.838  1.4431 -0.9685  1.7588
  694MOL0     H93659   6.730   9.600   3.947  0.4168  0.7792 -0.6220
  694MOL0     H93660   6.606   9.327   3.949 -1.5471  2.2638 -2.3962
  694MOL0     H93661   6.627   9.437   4.083  1.6890 -3.4731  3.1250
  694MOL0     H93662   6.847   9.254   3.999  0.4256  0.3486 -0.0379
  694MOL0     H93663   6.847   9.394   4.110  1.3535 -0.8834  0.2561
  694MOL0     H93664   6.695   9.133   4.100 -3.8644  2.4439 -0.5194
  694MOL0     H93665   6.636   9.257   4.218 -0.5609  2.2805 -0.6383
  694MOL0     H93666   6.840   9.260   4.343  0.9835  1.1899 -0.7483
  694MOL0     H93667   6.798   9.085   4.325  0.8895 -1.0514 -0.7700
  694MOL0     H93668   7.005   9.203   4.144  0.6759 -0.3437  1.1364
  694MOL0     H93669   6.991   9.043   4.184  2.9031  0.4137  0.6936
  694MOL0     H93670   7.103   9.250   4.387  0.0913 -0.1046  2.5854
  694MOL0     H93671   7.173   9.106   4.319  0.7397  0.5089  0.3728
  694MOL0     H93672   6.318   9.620   3.768  1.0604  1.8951 -3.3701
  694MOL0     H93673   6.108   9.560   3.705  0.7091 -0.4579  2.0365
  694MOL0     H93674   5.727   9.089   3.689 -2.3268 -0.2668  0.5931
  694MOL0     H93675   5.492   9.109   3.643 -1.9349  1.1604  0.7588
  694MOL0     H93676   4.324  10.593   3.758  1.8616 -0.6834  1.9466
  694MOL0     H93677   4.115  10.678   3.798 -2.3611 -2.0548 -1.6212
  694MOL0     H93678   3.711  10.520   4.117  1.8504  1.0901  1.2527
  694MOL0     H93679   3.530  10.572   4.280  0.1770 -2.6580 -1.4505
  694MOL0     H93680   3.307  10.601   4.180 -0.8573 -0.2266 -0.9962
  694MOL0     H93681   3.285  10.627   4.354 -0.1700  0.8858 -0.7475
  694MOL0     H93682   3.152  10.784   4.126  0.4594 -1.3544 -0.0789
  694MOL0     H93683   3.116  10.800   4.296  0.1380  1.8504 -1.9758
  694MOL0     H93684   3.094  10.523   4.172 -1.2279 -0.4070 -2.3993
  694MOL0     H93685   2.962  10.638   4.137 -1.1669 -1.3897 -0.1945
  694MOL0     H93686   2.882  10.517   4.321  2.0584 -1.3070 -1.1616
  694MOL0     H93687   2.941  10.649   4.407  0.9856 -0.1954  2.3001
  694MOL0     H93688   3.194  10.307   4.522 -2.7840 -2.6815 -2.0439
  694MOL0     H93689   3.500  10.965   4.101 -2.0143 -1.2036 -0.9873
  694MOL0     H93690   3.705  10.938   3.991 -2.8386 -0.3529 -1.7239
  695MOL0     O93691   8.020   3.748   7.388 -0.4448 -0.8618  0.1543
  695MOL0     C93692   8.019   3.858   7.323 -0.1129 -0.3892  0.0673
  695MOL0     O93693   8.082   3.968   7.370 -0.6950  0.2059 -0.0229
  695MOL0     C93694   8.164   3.970   7.485 -1.1360  1.0024 -0.9093
  695MOL0     C93695   8.146   3.883   7.595  0.2969  0.9631 -0.1816
  695MOL0     C93696   8.243   3.888   7.700  0.9865 -0.1733 -0.6583
  695MOL0     C93697   8.357   3.978   7.689 -0.3107  0.1143  0.7565
  695MOL0     O93698   8.437   3.994   7.800 -0.4904 -0.4510 -0.0898
  695MOL0     C93699   8.386   4.057   7.917 -0.3459  0.4886 -0.2417
  695MOL0     C93700   8.483   4.064   8.035 -0.0116  0.2499 -0.2159
  695MOL0     C93701   8.531   3.923   8.085 -0.8131  0.3068  0.9725
  695MOL0     C93702   8.622   3.931   8.203  0.1201  0.1343 -0.2012
  695MOL0     C93703   8.706   3.803   8.230 -0.3323  0.1795 -0.0115
  695MOL0     C93704   8.633   3.701   8.324  1.8042 -0.2290 -0.6893
  695MOL0     C93705   8.715   3.592   8.390 -0.1711  0.4095  0.1695
  695MOL0     C93706   8.771   3.483   8.297 -0.5986  0.0241 -0.2804
  695MOL0     N93707   8.844   3.375   8.364  0.0726 -0.6431 -0.0176
  695MOL0     C93708   8.796   3.264   8.422  1.2895 -0.1215  0.5239
  695MOL0     C93709   8.901   3.188   8.458  1.0641  0.0173 -0.1603
  695MOL0     C93710   8.888   3.041   8.506  0.5111  0.8563 -0.6002
  695MOL0     C93711   8.852   3.019   8.657 -0.3464  0.0190 -0.3079
  695MOL0     C93712   8.947   3.074   8.763 -0.6147  0.0998  0.0107
  695MOL0     C93713   9.071   2.994   8.788 -0.1195 -0.3760 -0.0637
  695MOL0     O93714   9.038   2.859   8.834  0.5391  0.0680  0.2695
  695MOL0     C93715   8.988   2.845   8.965 -0.9503  0.6078 -1.1139
  695MOL0     C93716   8.856   2.854   8.998  1.0553  0.0384  0.2748
  695MOL0     C93717   8.810   2.851   9.126  0.1549  0.4127  0.8564
  695MOL0     C93718   8.667   2.895   9.137 -0.1804  0.5539  0.7107
  695MOL0     C93719   8.896   2.807   9.227 -0.9161 -0.2185 -0.4201
  695MOL0     C93720   8.864   2.790   9.369  0.1018  0.6177  0.0334
  695MOL0     O93721   8.956   2.793   9.475  0.1697  0.7458 -0.3298
  695MOL0     C93722   8.906   2.805   9.601 -0.4965 -0.0524 -0.0335
  695MOL0     C93723   8.862   2.929   9.652 -0.7701  0.4299  0.2207
  695MOL0     C93724   8.812   2.949   9.782 -0.2246  0.1075 -0.0014
  695MOL0     C93725   8.802   2.838   9.868 -0.1238  0.8849  0.2646
  695MOL0     O93726   8.758   2.830   9.996 -0.7127  0.2778 -0.3286
  695MOL0     C93727   8.702   2.946  10.052  0.2718 -0.2936 -0.5671
  695MOL0     C93728   8.632   2.894  10.178 -0.1283 -0.0549 -0.0002
  695MOL0     C93729   8.495   2.829  10.152  0.7445 -0.2495 -0.7509
  695MOL0     C93730   8.382   2.833  10.245 -0.1479 -0.7214 -0.4406
  695MOL0     C93731   8.407   2.737  10.359 -1.4717  0.7940  0.5610
  695MOL0     C93732   8.302   2.736  10.459 -0.1985 -0.0523  0.0215
  695MOL0     C93733   8.301   2.614  10.554 -0.0225 -0.0673  0.4052
  695MOL0     C93734   8.180   2.526  10.520 -1.6012 -0.2495 -1.1167
  695MOL0    Cl93735   8.032   2.565  10.613  0.1165 -0.3242 -0.1289
  695MOL0     C93736   8.842   2.713   9.815 -0.3255  1.1180  0.5213
  695MOL0     C93737   8.890   2.693   9.685  0.2023 -0.3005  0.8159
  695MOL0     O93738   8.745   2.776   9.382  0.2615  0.5243  0.0942
  695MOL0     C93739   9.036   2.784   9.194 -0.1312  0.0122  0.4155
  695MOL0     C93740   9.082   2.821   9.068 -1.7459 -0.6694  0.1693
  695MOL0     N93741   9.011   3.270   8.435 -0.9308 -0.3402 -0.6995
  695MOL0     N93742   8.972   3.385   8.401  0.9484 -0.2855  0.7260
  695MOL0     C93743   8.372   4.056   7.575 -0.2561  0.4913 -0.1977
  695MOL0     C93744   8.279   4.050   7.465 -0.0977 -0.2136 -0.7703
  695MOL0     C93745   7.928   3.889   7.211  0.0857 -0.0241 -0.8988
  695MOL0     C93746   7.920   4.025   7.163 -0.1535 -0.9989  0.0484
  695MOL0     C93747   7.849   4.059   7.044  0.0490 -0.0838  0.1760
  695MOL0     C93748   7.775   3.958   6.975  0.9111  0.7356 -0.6545
  695MOL0     O93749   7.686   3.984   6.878 -0.1102 -0.2824  0.4011
  695MOL0     C93750   7.567   4.052   6.917 -0.2865  0.5177 -0.5637
  695MOL0     C93751   7.455   3.953   6.973  0.2091 -1.4770  1.0493
  695MOL0     C93752   7.409   3.858   6.856 -0.4492 -0.5168 -0.4736
  695MOL0     C93753   7.298   3.765   6.909  0.2692 -1.0629 -0.1438
  695MOL0     C93754   7.183   3.839   6.974  0.7140 -0.0751  0.2207
  695MOL0     C93755   7.102   3.900   7.043  0.2269  0.5693 -0.5422
  695MOL0     C93756   7.791   3.831   7.019 -0.5493  0.8646  0.1246
  695MOL0     C93757   7.872   3.785   7.126  0.4852  0.9986  0.2109
  695MOL0     H93758   8.065   3.811   7.597  1.1074  0.0435  0.3739
  695MOL0     H93759   8.243   3.832   7.794 -0.8015 -0.2341 -0.6596
  695MOL0     H93760   8.369   4.162   7.892 -0.3797  1.0632  1.9564
  695MOL0     H93761   8.292   4.009   7.947  0.1704  0.5196  1.5677
  695MOL0     H93762   8.576   4.120   8.020  0.8879 -1.2473 -0.5282
  695MOL0     H93763   8.435   4.107   8.123 -0.8508 -2.4733  0.7566
  695MOL0     H93764   8.450   3.860   8.125  0.8571 -2.5613  0.1597
  695MOL0     H93765   8.573   3.865   8.002 -2.1434 -1.9291  1.7680
  695MOL0     H93766   8.697   4.010   8.189 -2.1117  1.9819 -2.8412
  695MOL0     H93767   8.563   3.969   8.287  1.1683  0.5492  0.3726
  695MOL0     H93768   8.731   3.757   8.134 -3.2561  0.8071 -1.1851
  695MOL0     H93769   8.786   3.842   8.293 -2.2211  5.1452 -0.1840
  695MOL0     H93770   8.577   3.766   8.391  0.5124  0.8245 -2.6812
  695MOL0     H93771   8.558   3.646   8.267  0.0827  0.1935  1.0615
  695MOL0     H93772   8.797   3.643   8.440 -0.0179  1.5810 -1.2448
  695MOL0     H93773   8.661   3.554   8.478 -1.0185  1.6960  0.2272
  695MOL0     H93774   8.841   3.536   8.231 -0.8907  0.6399 -0.0996
  695MOL0     H93775   8.691   3.442   8.235  0.4744 -2.6521 -0.0060
  695MOL0     H93776   8.695   3.225   8.423  0.9714  0.6972  0.7205
  695MOL0     H93777   8.820   2.990   8.437 -1.5292  3.8794 -1.0431
  695MOL0     H93778   8.987   3.002   8.481 -0.4109 -3.4796  1.5159
  695MOL0     H93779   8.844   2.912   8.679  0.7840  0.3818  2.3319
  695MOL0     H93780   8.757   3.062   8.690  1.5344  3.3566  1.2948
  695MOL0     H93781   8.888   3.088   8.854 -0.7571  0.3801 -0.1221
  695MOL0     H93782   8.988   3.168   8.725 -1.4805 -0.8701 -3.7868
  695MOL0     H93783   9.119   3.048   8.870  1.7536 -0.4793 -1.0476
  695MOL0     H93784   9.139   2.988   8.703 -0.6675  1.4201 -0.6606
  695MOL0     H93785   8.794   2.890   8.915  0.3984  2.1541  1.5984
  695MOL0     H93786   8.597   2.812   9.151  0.4808 -0.3470 -1.0897
  695MOL0     H93787   8.670   2.957   9.227  0.6312 -3.0337  3.3720
  695MOL0     H93788   8.641   2.951   9.047  0.8867  2.3505  1.4619
  695MOL0     H93789   8.879   3.019   9.593  0.0966  1.3962  1.8717
  695MOL0     H93790   8.777   3.044   9.820  1.4483  0.5111  0.6155
  695MOL0     H93791   8.776   3.023  10.078  0.5889 -1.1777  1.3648
  695MOL0     H93792   8.629   2.992   9.986 -0.0416 -2.2361 -1.6332
  695MOL0     H93793   8.705   2.829  10.226  1.5969  2.0717  0.4181
  695MOL0     H93794   8.613   2.965  10.259 -4.1422 -1.2376  0.3532
  695MOL0     H93795   8.524   2.726  10.125 -0.9791 -0.8094 -0.5544
  695MOL0     H93796   8.446   2.876  10.066  2.7144  2.4993 -0.5075
  695MOL0     H93797   8.389   2.936  10.281 -0.4649  1.6737 -6.2319
  695MOL0     H93798   8.289   2.820  10.190 -1.5903  1.2846  1.3360
  695MOL0     H93799   8.500   2.761  10.412 -2.0533  2.8504  0.7525
  695MOL0     H93800   8.412   2.637  10.315 -0.7545 -0.2404  2.8006
  695MOL0     H93801   8.322   2.829  10.514  3.2500  2.1916 -4.3488
  695MOL0     H93802   8.208   2.758  10.408  1.1093  2.8545 -1.3553
  695MOL0     H93803   8.305   2.644  10.659  2.9149  0.8432  0.1394
  695MOL0     H93804   8.398   2.566  10.535 -0.5141 -2.7343  3.6322
  695MOL0     H93805   8.197   2.419  10.536 -0.3635 -0.3746 -3.0257
  695MOL0     H93806   8.157   2.535  10.414  1.5055 -1.3077 -1.9849
  695MOL0     H93807   8.832   2.632   9.886 -0.9510 -0.9600 -1.7819
  695MOL0     H93808   8.910   2.592   9.652  1.5659  0.5079 -0.9534
  695MOL0     H93809   9.103   2.754   9.273 -1.4942  0.2301  1.6946
  695MOL0     H93810   9.185   2.805   9.037 -1.6173  1.4705 -0.6728
  695MOL0     H93811   8.466   4.109   7.564 -0.4072  0.9515  0.6495
  695MOL0     H93812   8.298   4.111   7.377 -0.2193  0.1665 -0.5384
  695MOL0     H93813   7.975   4.110   7.202  0.1856 -1.1149 -0.1655
  695MOL0     H93814   7.822   4.163   7.027  0.7666  0.3905  1.7287
  695MOL0     H93815   7.579   4.133   6.990 -1.2083  0.3524 -0.2017
  695MOL0     H93816   7.523   4.093   6.825  3.3483 -0.8559 -3.1447
  695MOL0     H93817   7.370   4.011   7.010  0.3775  1.0543 -2.0538
  695MOL0     H93818   7.496   3.902   7.061 -0.2085 -0.0500  2.1177
  695MOL0     H93819   7.491   3.799   6.815 -0.4810 -0.6289 -0.3749
  695MOL0     H93820   7.376   3.923   6.774  0.4111  0.0712 -0.3657
  695MOL0     H93821   7.330   3.690   6.982 -1.2571 -0.1502  1.5561
  695MOL0     H93822   7.256   3.712   6.823 -1.2164 -1.5713  0.8478
  695MOL0     H93823   7.034   3.942   7.114 -1.9093 -2.9509 -0.2643
  695MOL0     H93824   7.727   3.760   6.968  0.1667  0.0672  0.3198
  695MOL0     H93825   7.881   3.677   7.135  1.7300  1.1185  0.6602
  696MOL0     O93826   8.035  11.479   9.691  0.4436  0.2797 -0.7472
  696MOL0     C93827   8.048  11.514   9.572  0.1957 -0.2005 -0.8162
  696MOL0     O93828   8.162  11.549   9.513 -0.0441 -1.1286  0.5675
  696MOL0     C93829   8.274  11.577   9.582  0.4647  0.2215  0.2136
  696MOL0     C93830   8.314  11.506   9.693  0.3722  0.4854 -0.5244
  696MOL0     C93831   8.407  11.556   9.784 -0.0556  0.0474  1.4563
  696MOL0     C93832   8.477  11.672   9.760 -1.0960 -0.1634 -0.2809
  696MOL0     O93833   8.593  11.703   9.835  0.1555 -0.4921 -0.1808
  696MOL0     C93834   8.557  11.778   9.952  0.1060  1.1573  0.4389
  696MOL0     C93835   8.521  11.925   9.933  1.6366  0.3707 -0.4352
  696MOL0     C93836   8.626  12.011   9.864  0.9828 -0.3838  0.9058
  696MOL0     C93837   8.592  12.158   9.878 -0.1158  0.5892  0.9739
  696MOL0     C93838   8.683  12.243   9.789  0.2517  0.0721 -0.4256
  696MOL0     C93839   8.649  12.244   9.640 -1.5431  0.3177  0.1936
  696MOL0     C93840   8.728  12.357   9.565  0.0118 -0.0773 -0.7901
  696MOL0     C93841   8.661  12.488   9.565  0.5203  0.2365  0.2205
  696MOL0     N93842   8.534  12.488   9.492  0.5213  0.5311 -0.0036
  696MOL0     C93843   8.519  12.501   9.356 -1.0162  0.7207 -0.6174
  696MOL0     C93844   8.389  12.510   9.342  0.9339  0.2002 -0.0710
  696MOL0     C93845   8.327  12.532   9.208  0.6461 -0.2009 -0.1028
  696MOL0     C93846   8.302  12.402   9.129 -0.4256 -0.0257  0.4186
  696MOL0     C93847   8.237  12.428   8.989 -0.6084 -0.5525 -0.3211
  696MOL0     C93848   8.182  12.301   8.942 -1.4975  0.4562  0.1937
  696MOL0     O93849   8.276  12.183   8.930 -0.0479  0.7487  0.1932
  696MOL0     C93850   8.374  12.170   8.836 -0.5138  0.5537  1.1224
  696MOL0     C93851   8.478  12.080   8.865 -0.3787  0.9263 -0.5311
  696MOL0     C93852   8.605  12.072   8.795  0.2800  0.0397 -0.7347
  696MOL0     C93853   8.714  11.979   8.847  0.2802 -0.2249 -0.8278
  696MOL0     C93854   8.619  12.153   8.671  0.7506 -0.6411 -0.7137
  696MOL0     C93855   8.723  12.150   8.576  0.7290 -1.5248 -1.1538
  696MOL0     O93856   8.821  12.056   8.600  0.0447  0.2198 -0.0269
  696MOL0     C93857   8.936  12.066   8.528 -0.6035 -0.5318 -0.1973
  696MOL0     C93858   9.051  12.126   8.574  0.2938 -0.6616 -1.3318
  696MOL0     C93859   9.166  12.132   8.494  0.4438  0.4996  0.0736
  696MOL0     C93860   9.154  12.074   8.364  0.0054  0.4186 -0.5826
  696MOL0     O93861   9.263  12.072   8.280 -0.5431  0.1823  0.0134
  696MOL0     C93862   9.248  12.123   8.148  0.2704 -0.7474  0.2661
  696MOL0     C93863   9.379  12.120   8.074  0.4395  0.3982  0.0624
  696MOL0     C93864   9.390  11.978   8.024  0.1007 -0.1315  0.8227
  696MOL0     C93865   9.526  11.955   7.979 -0.5251 -0.4627 -0.0838
  696MOL0     C93866   9.567  11.997   7.837 -0.1311  0.6119 -0.4024
  696MOL0     C93867   9.714  11.948   7.808 -0.3411 -0.4681  0.2443
  696MOL0     C93868   9.776  12.002   7.683  0.3797  0.0915  0.5351
  696MOL0     C93869   9.912  11.943   7.675 -0.1004  0.0389 -0.0361
  696MOL0    Cl93870  10.042  12.043   7.742 -0.3019 -0.3848  0.2242
  696MOL0     C93871   9.043  11.996   8.332  0.2756 -0.1816 -0.0207
  696MOL0     C93872   8.926  12.010   8.401 -0.6067  0.6223 -0.1378
  696MOL0     O93873   8.719  12.231   8.488  0.7647 -0.0176 -0.6644
  696MOL0     C93874   8.518  12.247   8.647  0.1099  0.2840  0.1623
  696MOL0     C93875   8.398  12.252   8.716  0.0052  0.0036 -0.5864
  696MOL0     N93876   8.325  12.480   9.461  0.2353  0.3322  0.6771
  696MOL0     N93877   8.412  12.477   9.550  1.4974 -0.3759 -0.0907
  696MOL0     C93878   8.439  11.744   9.650  1.4603 -0.0218  0.5968
  696MOL0     C93879   8.350  11.697   9.551  0.6061 -0.2765  0.3576
  696MOL0     C93880   7.920  11.533   9.495 -0.0269 -0.1136 -0.1842
  696MOL0     C93881   7.803  11.457   9.518 -0.9921  0.6918  0.1638
  696MOL0     C93882   7.689  11.481   9.435 -0.8320  0.6207 -0.2678
  696MOL0     C93883   7.676  11.588   9.353 -0.4475  0.4446  0.8333
  696MOL0     O93884   7.549  11.608   9.288  0.4043  0.3718  0.1518
  696MOL0     C93885   7.548  11.728   9.209  0.1352  0.6211 -0.7207
  696MOL0     C93886   7.400  11.765   9.171  0.0133  0.4731  0.0537
  696MOL0     C93887   7.290  11.770   9.279  0.6575 -0.0724 -0.2187
  696MOL0     C93888   7.169  11.822   9.208 -0.3458  0.0301  0.1005
  696MOL0     C93889   7.060  11.726   9.236  0.9630 -0.3684  0.5519
  696MOL0     C93890   6.965  11.661   9.254 -0.9564 -0.7336 -1.3642
  696MOL0     C93891   7.791  11.658   9.328 -0.1992  0.7036  1.0265
  696MOL0     C93892   7.912  11.634   9.396  0.2681  0.0625 -0.0449
  696MOL0     H93893   8.255  11.422   9.726 -0.1218 -0.4592 -3.5224
  696MOL0     H93894   8.413  11.505   9.880  1.9352  1.0733  1.9173
  696MOL0     H93895   8.479  11.717   9.997  0.1253 -1.1615 -2.3962
  696MOL0     H93896   8.649  11.776  10.012  2.2742  0.6866 -2.6779
  696MOL0     H93897   8.432  11.923   9.870  1.4266  3.3401 -0.3546
  696MOL0     H93898   8.506  11.966  10.033  0.7834  4.0426 -1.9228
  696MOL0     H93899   8.724  11.988   9.908  1.4109 -1.5112 -0.5454
  696MOL0     H93900   8.622  11.991   9.757 -2.2866  0.5583  0.7513
  696MOL0     H93901   8.490  12.166   9.841  1.2214 -1.1703 -3.8510
  696MOL0     H93902   8.621  12.196   9.977 -0.8263  1.3535  0.9014
  696MOL0     H93903   8.660  12.341   9.832 -2.6533 -0.9765  0.7078
  696MOL0     H93904   8.788  12.224   9.812  0.1230  0.8197  0.8571
  696MOL0     H93905   8.678  12.148   9.597 -0.6657 -0.5432  2.5240
  696MOL0     H93906   8.541  12.255   9.626 -2.3386 -2.8350  2.6561
  696MOL0     H93907   8.825  12.369   9.614  0.8868 -1.5037 -2.0721
  696MOL0     H93908   8.747  12.331   9.461 -2.9324  0.2016 -1.4934
  696MOL0     H93909   8.727  12.563   9.521 -0.3713  3.1131  3.3647
  696MOL0     H93910   8.646  12.523   9.668  0.4545  0.7570  0.0387
  696MOL0     H93911   8.607  12.500   9.292 -1.6085 -1.2637 -1.4904
  696MOL0     H93912   8.226  12.573   9.221  0.5290 -0.4176 -0.3230
  696MOL0     H93913   8.397  12.586   9.144  2.3731 -5.1658 -2.9573
  696MOL0     H93914   8.234  12.339   9.187 -2.2990 -0.4088 -2.0135
  696MOL0     H93915   8.398  12.353   9.111 -1.1151 -0.8181 -1.2659
  696MOL0     H93916   8.319  12.465   8.928 -0.6128  0.3774  0.2138
  696MOL0     H93917   8.149  12.494   8.998 -1.1613 -1.4763  1.6788
  696MOL0     H93918   8.143  12.330   8.844 -0.7530  1.2105  0.1169
  696MOL0     H93919   8.094  12.274   9.003 -2.3255  2.8960  0.1832
  696MOL0     H93920   8.465  12.029   8.959 -3.4742  2.3003 -0.0714
  696MOL0     H93921   8.715  11.889   8.785  2.1038 -0.0721 -1.0675
  696MOL0     H93922   8.807  12.036   8.849 -1.2174  2.3991 -0.4906
  696MOL0     H93923   8.704  11.950   8.952 -0.3538  1.8096 -0.2787
  696MOL0     H93924   9.048  12.183   8.666  0.9531 -3.1093  0.2684
  696MOL0     H93925   9.262  12.176   8.517  0.5280  0.6051 -0.4666
  696MOL0     H93926   9.170  12.075   8.088 -0.1063 -0.3431  0.4234
  696MOL0     H93927   9.221  12.228   8.138  1.2731 -0.5297 -0.2393
  696MOL0     H93928   9.389  12.199   7.999  0.0605  1.9557  1.5935
  696MOL0     H93929   9.463  12.132   8.143  1.2656 -2.6832 -0.2567
  696MOL0     H93930   9.322  11.962   7.940 -1.4430  1.1417  1.7660
  696MOL0     H93931   9.364  11.907   8.104  0.7721 -2.2039 -0.6941
  696MOL0     H93932   9.596  11.998   8.051  0.8914 -1.1351 -1.0151
  696MOL0     H93933   9.531  11.846   7.973  0.1089 -0.4889  0.7228
  696MOL0     H93934   9.575  12.106   7.841  0.7475  0.6549 -2.1804
  696MOL0     H93935   9.492  11.963   7.765 -0.5121  3.0945 -1.2796
  696MOL0     H93936   9.772  12.006   7.880  0.4088  2.6042 -2.5901
  696MOL0     H93937   9.726  11.840   7.818 -1.0163 -0.5228  0.5541
  696MOL0     H93938   9.772  12.109   7.659  1.3169 -0.7295 -4.3635
  696MOL0     H93939   9.738  11.952   7.594  1.6881  3.0726 -1.8989
  696MOL0     H93940   9.937  11.916   7.572  2.0691  1.2778  0.1143
  696MOL0     H93941   9.933  11.846   7.720  0.5683  0.1281 -0.1492
  696MOL0     H93942   9.051  11.935   8.243  0.9363  2.0041 -1.5292
  696MOL0     H93943   8.835  11.966   8.362 -0.5232  2.2890 -2.4436
  696MOL0     H93944   8.527  12.322   8.568  1.0128 -0.7860 -0.7992
  696MOL0     H93945   8.333  12.332   8.683  2.0025  2.2819  0.6722
  696MOL0     H93946   8.497  11.834   9.631  1.7009 -0.8735 -3.8007
  696MOL0     H93947   8.316  11.760   9.469  0.9940  2.9289  2.4945
  696MOL0     H93948   7.796  11.379   9.593 -1.2884  1.2906  0.7727
  696MOL0     H93949   7.595  11.432   9.457 -1.3865  2.0178  0.6497
  696MOL0     H93950   7.583  11.807   9.277  4.0225 -0.4379 -1.2514
  696MOL0     H93951   7.612  11.726   9.120 -0.7128 -2.2748 -1.3595
  696MOL0     H93952   7.374  11.686   9.099  1.3520 -0.7692  0.8846
  696MOL0     H93953   7.396  11.864   9.125 -2.4413  1.0549  1.3188
  696MOL0     H93954   7.317  11.845   9.355  1.4951  0.3711 -0.9264
  696MOL0     H93955   7.275  11.671   9.323  1.1960 -0.2797 -0.4880
  696MOL0     H93956   7.173  11.841   9.100 -0.6301  0.7944  0.2156
  696MOL0     H93957   7.142  11.918   9.253  0.3243  1.2351 -1.9214
  696MOL0     H93958   6.881  11.595   9.255 -1.0938 -0.6802  2.0172
  696MOL0     H93959   7.796  11.733   9.250  1.2782 -2.6957 -2.5159
  696MOL0     H93960   7.994  11.698   9.364 -0.4602  1.8520  1.4526
  697MOL0     O93961   9.611   9.689   1.516 -0.0976  0.0025  0.1276
  697MOL0     C93962   9.609   9.569   1.474  1.1830 -0.7429  0.9565
  697MOL0     O93963   9.666   9.462   1.533  0.0141  1.0559  0.4801
  697MOL0     C93964   9.720   9.449   1.658  0.5671 -0.1079  1.4630
  697MOL0     C93965   9.716   9.531   1.770  1.1364  0.4361  0.9787
  697MOL0     C93966   9.762   9.492   1.891  0.0938 -0.7468  0.6439
  697MOL0     C93967   9.824   9.371   1.903 -0.1581  0.4419  0.0608
  697MOL0     O93968   9.885   9.333   2.019  0.0171  0.2408  0.6380
  697MOL0     C93969  10.010   9.279   2.021  0.0628  0.2625 -0.1591
  697MOL0     C93970  10.055   9.240   2.165 -0.4808  0.2377 -0.5725
  697MOL0     C93971  10.150   9.128   2.172  0.1537  0.2682 -0.2155
  697MOL0     C93972  10.222   9.116   2.308 -1.3056 -0.3000 -0.3639
  697MOL0     C93973  10.331   9.006   2.301  0.1701  1.3530 -0.4479
  697MOL0     C93974  10.274   8.862   2.336  0.0415 -0.6071  0.9544
  697MOL0     C93975  10.253   8.830   2.483 -0.9932 -1.0729 -0.1633
  697MOL0     C93976  10.267   8.689   2.523  0.2137  0.0816 -1.0042
  697MOL0     N93977  10.408   8.639   2.526  1.0538  0.6275  0.5778
  697MOL0     C93978  10.484   8.656   2.639  0.5433 -0.8583  0.6439
  697MOL0     C93979  10.602   8.601   2.594  0.5722 -1.0061 -0.6467
  697MOL0     C93980  10.721   8.610   2.686  0.4289  0.4101 -0.2728
  697MOL0     C93981  10.732   8.483   2.781  0.5612 -0.2782 -0.3622
  697MOL0     C93982  10.620   8.476   2.887 -0.3070 -0.2929  0.2862
  697MOL0     C93983  10.658   8.367   2.998  0.5539  0.4000  0.7823
  697MOL0     O93984  10.610   8.232   2.963 -0.2426  0.0373 -0.8434
  697MOL0     C93985  10.651   8.138   3.052  0.3932  0.7698 -0.1095
  697MOL0     C93986  10.765   8.137   3.139  0.7073  0.0007 -0.0968
  697MOL0     C93987  10.779   8.022   3.224  0.1782 -0.7435 -0.1602
  697MOL0     C93988  10.901   8.034   3.317  0.1094  0.6671  0.0174
  697MOL0     C93989  10.687   7.922   3.247  0.4457 -0.4614 -0.5978
  697MOL0     C93990  10.716   7.797   3.332  0.9601 -0.5308 -0.3707
  697MOL0     O93991  10.594   7.745   3.374 -0.1813 -0.2671 -0.2620
  697MOL0     C93992  10.594   7.633   3.455  0.2671 -0.7223  0.4243
  697MOL0     C93993  10.493   7.542   3.433  0.2817  0.5729 -0.4723
  697MOL0     C93994  10.466   7.438   3.531 -0.9144  0.4175  0.5150
  697MOL0     C93995  10.544   7.423   3.638 -0.3285 -0.1245 -0.1401
  697MOL0     O93996  10.512   7.314   3.709 -0.7535 -0.5360 -0.3363
  697MOL0     C93997  10.616   7.253   3.790 -0.9055  0.2280 -0.3468
  697MOL0     C93998  10.559   7.124   3.861 -0.0221  0.0302  0.0815
  697MOL0     C93999  10.456   7.166   3.973  0.3375 -0.7496  0.1961
  697MOL0     C94000  10.378   7.054   4.038 -0.1776 -0.5713 -0.7504
  697MOL0     C94001  10.469   6.962   4.127 -0.4723 -0.1587  0.8505
  697MOL0     C94002  10.391   6.873   4.223  0.9016  0.0009 -0.4339
  697MOL0     C94003  10.474   6.847   4.351  0.3971  0.5328  0.1990
  697MOL0     C94004  10.434   6.722   4.430 -0.0022 -0.9401 -0.0482
  697MOL0    Cl94005  10.511   6.697   4.592 -0.2229  0.5420 -0.1484
  697MOL0     C94006  10.648   7.511   3.662 -0.2217 -0.1960 -0.0034
  697MOL0     C94007  10.678   7.607   3.565  0.0080  0.1698 -0.8107
  697MOL0     O94008  10.831   7.748   3.344  0.6823  0.4898  0.3392
  697MOL0     C94009  10.574   7.934   3.170 -1.4048  0.0529  0.3725
  697MOL0     C94010  10.559   8.038   3.075 -1.2512  0.6316 -0.9906
  697MOL0     N94011  10.584   8.537   2.482 -0.0102  0.5731 -0.5842
  697MOL0     N94012  10.462   8.557   2.435  1.0664 -0.0577 -0.6887
  697MOL0     C94013   9.831   9.280   1.787  0.0737 -0.2017 -0.5071
  697MOL0     C94014   9.780   9.322   1.670 -0.1127  0.7954 -0.6822
  697MOL0     C94015   9.551   9.532   1.346 -0.4666  0.0406  0.3778
  697MOL0     C94016   9.488   9.628   1.260  0.3693 -0.2304 -0.8753
  697MOL0     C94017   9.461   9.586   1.131 -1.4049 -0.0633  0.3782
  697MOL0     C94018   9.500   9.471   1.074 -0.1107 -0.2773  0.3381
  697MOL0     O94019   9.463   9.460   0.942  1.4567 -0.2862 -0.7424
  697MOL0     C94020   9.544   9.369   0.865  0.6848 -0.8731 -0.7818
  697MOL0     C94021   9.535   9.404   0.723 -1.0245  0.1951 -0.4331
  697MOL0     C94022   9.395   9.373   0.671  0.4989 -0.4509  0.8442
  697MOL0     C94023   9.388   9.250   0.577 -0.7688  0.2809  0.9484
  697MOL0     C94024   9.440   9.130   0.649  0.5344  0.2442  0.3128
  697MOL0     C94025   9.492   9.039   0.708  0.3894  0.7408  0.4012
  697MOL0     C94026   9.551   9.376   1.158 -0.3030  0.4032  0.1807
  697MOL0     C94027   9.572   9.403   1.294 -0.0390 -0.9079  0.5553
  697MOL0     H94028   9.671   9.630   1.765 -0.2637 -0.2425 -1.1902
  697MOL0     H94029   9.762   9.566   1.970  2.5360  0.4802 -0.3933
  697MOL0     H94030  10.008   9.190   1.957 -2.1504 -1.0946  1.5860
  697MOL0     H94031  10.078   9.357   1.988  0.8345 -0.9988 -1.6949
  697MOL0     H94032  10.077   9.330   2.224 -2.4227  1.1444 -1.1570
  697MOL0     H94033   9.964   9.215   2.220  1.7782 -0.5563  3.1909
  697MOL0     H94034  10.099   9.033   2.154 -3.3248  1.9964 -0.4512
  697MOL0     H94035  10.226   9.134   2.093 -1.6619  1.4725 -1.9729
  697MOL0     H94036  10.280   9.206   2.331  0.9966 -2.1445  1.4970
  697MOL0     H94037  10.165   9.082   2.395 -1.8549  1.8743  0.1884
  697MOL0     H94038  10.370   9.000   2.199  0.4964 -3.3175 -0.2545
  697MOL0     H94039  10.416   9.024   2.368 -0.0085  0.8228 -0.0749
  697MOL0     H94040  10.174   8.854   2.293 -0.5524  3.8049  0.9911
  697MOL0     H94041  10.338   8.789   2.286  0.2466  2.0322 -3.0922
  697MOL0     H94042  10.318   8.893   2.545 -2.5728  2.2447 -1.6182
  697MOL0     H94043  10.147   8.847   2.502 -1.0027 -2.2079  0.8531
  697MOL0     H94044  10.198   8.640   2.453  4.1129 -4.0980 -2.3977
  697MOL0     H94045  10.223   8.667   2.621  0.3503 -2.9393 -1.5123
  697MOL0     H94046  10.471   8.709   2.733  1.0954  2.0106 -0.7906
  697MOL0     H94047  10.803   8.612   2.613  0.9178 -0.1806  0.2469
  697MOL0     H94048  10.716   8.706   2.739 -1.2823  0.1633  0.0629
  697MOL0     H94049  10.832   8.495   2.825  0.0051 -0.8655  1.1376
  697MOL0     H94050  10.725   8.386   2.730 -3.7734 -1.8848  2.7255
  697MOL0     H94051  10.523   8.444   2.848  0.2084 -1.4934 -0.0617
  697MOL0     H94052  10.618   8.575   2.933  2.0496 -0.5871  1.1291
  697MOL0     H94053  10.626   8.404   3.096  0.2358 -0.2406  0.9294
  697MOL0     H94054  10.767   8.373   3.006  0.5923  4.6143 -0.5589
  697MOL0     H94055  10.840   8.214   3.122  1.1246 -0.4369 -0.2753
  697MOL0     H94056  10.983   7.977   3.273 -1.1362 -0.2009 -1.2753
  697MOL0     H94057  10.942   8.135   3.318 -4.3524  2.7444 -0.6510
  697MOL0     H94058  10.884   8.011   3.422  2.0079  1.7040  0.5963
  697MOL0     H94059  10.423   7.553   3.351 -0.5261 -0.9813 -0.0103
  697MOL0     H94060  10.388   7.363   3.527 -1.4834  0.9935  0.5696
  697MOL0     H94061  10.700   7.221   3.729 -1.7051  0.0556 -1.3779
  697MOL0     H94062  10.656   7.317   3.869  1.1727  0.3355 -1.4027
  697MOL0     H94063  10.507   7.068   3.783 -2.1410 -0.5453  1.8141
  697MOL0     H94064  10.638   7.060   3.900 -0.9467 -4.4029 -4.3634
  697MOL0     H94065  10.371   7.223   3.935 -0.3246  1.1799  4.0805
  697MOL0     H94066  10.505   7.225   4.051 -0.6371 -0.2184  0.4228
  697MOL0     H94067  10.293   7.095   4.094  0.7137  3.2910 -1.9091
  697MOL0     H94068  10.327   6.990   3.966  0.2532  2.7878 -4.3643
  697MOL0     H94069  10.536   7.031   4.180 -0.5046 -0.7583  1.6957
  697MOL0     H94070  10.536   6.899   4.067  1.4315  3.2365 -0.9362
  697MOL0     H94071  10.299   6.922   4.257  0.4858 -0.7087 -0.5176
  697MOL0     H94072  10.373   6.776   4.178  2.2102  0.4222 -1.9640
  697MOL0     H94073  10.464   6.940   4.407 -0.0141  0.3830  0.3787
  697MOL0     H94074  10.577   6.827   4.319 -0.5954  0.6954 -3.5549
  697MOL0     H94075  10.467   6.640   4.365  1.3152 -0.2205 -0.3182
  697MOL0     H94076  10.325   6.718   4.431 -0.0089 -0.9811 -0.7794
  697MOL0     H94077  10.700   7.503   3.757 -1.1526 -2.1634  0.3860
  697MOL0     H94078  10.761   7.668   3.597  0.1038 -0.1468 -0.4530
  697MOL0     H94079  10.495   7.863   3.193 -1.6918  0.6320  1.2667
  697MOL0     H94080  10.477   8.050   3.005 -1.6360  2.3535 -0.2854
  697MOL0     H94081   9.852   9.174   1.801 -3.0672 -1.0517 -1.3706
  697MOL0     H94082   9.764   9.252   1.588  2.0647 -0.3054 -0.2369
  697MOL0     H94083   9.465   9.726   1.299 -1.2774 -1.1234  0.5566
  697MOL0     H94084   9.405   9.650   1.063  2.0937  2.8790 -0.0781
  697MOL0     H94085   9.648   9.347   0.889  0.3172 -3.0145 -0.9900
  697MOL0     H94086   9.494   9.272   0.875 -1.8553  0.4541  0.5210
  697MOL0     H94087   9.615   9.350   0.672 -0.4658  0.8592 -0.2817
  697MOL0     H94088   9.557   9.511   0.722 -2.0738  0.5068  1.8042
  697MOL0     H94089   9.373   9.463   0.612  3.2575 -1.3708 -1.8512
  697MOL0     H94090   9.317   9.382   0.747  1.2338  4.6907  1.3370
  697MOL0     H94091   9.457   9.268   0.493 -1.4778  0.9080  0.4808
  697MOL0     H94092   9.287   9.227   0.541 -1.1015 -2.3005  3.2328
  697MOL0     H94093   9.556   8.956   0.733  2.0337  1.0684 -2.3213
  697MOL0     H94094   9.591   9.282   1.122  1.0915  1.1992 -0.4221
  697MOL0     H94095   9.626   9.331   1.354  0.1009 -0.8067  0.5536
  698MOL0     O94096  10.912   8.547   5.286  0.0339  0.2892  0.1145
  698MOL0     C94097  10.964   8.454   5.346 -0.2519 -0.5444  0.2424
  698MOL0     O94098  10.897   8.352   5.411 -1.0972 -0.3995  0.2328
  698MOL0     C94099  10.760   8.382   5.439  0.2141 -1.2704  0.4499
  698MOL0     C94100  10.665   8.291   5.403  0.3541  0.1836  1.0903
  698MOL0     C94101  10.526   8.307   5.407 -0.7671  0.7439  1.7512
  698MOL0     C94102  10.473   8.418   5.477 -0.4029  0.4967  0.7164
  698MOL0     O94103  10.343   8.456   5.476 -0.4234  0.0938  0.3648
  698MOL0     C94104  10.248   8.365   5.431  0.3489  0.2224  0.6698
  698MOL0     C94105  10.110   8.434   5.421  0.1966 -0.3893 -0.0745
  698MOL0     C94106  10.034   8.471   5.551 -0.5319 -1.3845  0.0225
  698MOL0     C94107   9.951   8.353   5.614  0.0253 -0.7873  0.1367
  698MOL0     C94108   9.927   8.383   5.762  0.4778 -0.7564  0.1136
  698MOL0     C94109   9.826   8.306   5.843 -0.1628 -0.5426  0.0308
  698MOL0     C94110   9.690   8.309   5.771  0.1326 -1.3501 -0.5042
  698MOL0     C94111   9.575   8.260   5.847  0.8613 -0.7255 -0.8576
  698MOL0     N94112   9.530   8.346   5.958 -0.1454  0.1079  0.0927
  698MOL0     C94113   9.446   8.451   5.939 -0.1616  0.7217 -0.7401
  698MOL0     C94114   9.435   8.516   6.056  0.2773  0.7186 -0.6974
  698MOL0     C94115   9.338   8.619   6.070 -0.6338  0.6125  0.4964
  698MOL0     C94116   9.400   8.753   6.034  0.6960  0.1020  1.0092
  698MOL0     C94117   9.451   8.838   6.142 -0.4180  0.8217  0.0826
  698MOL0     C94118   9.553   8.946   6.109  0.2999  0.7450  0.2855
  698MOL0     O94119   9.496   9.021   6.000  0.1486 -0.5684  0.5861
  698MOL0     C94120   9.577   9.109   5.926 -0.6011 -0.1060 -0.6275
  698MOL0     C94121   9.700   9.161   5.980  0.0931  0.1331 -0.3455
  698MOL0     C94122   9.773   9.259   5.907 -0.1336 -0.2103  0.5291
  698MOL0     C94123   9.886   9.316   5.983 -0.4452 -0.9941 -0.3664
  698MOL0     C94124   9.714   9.312   5.782 -0.3985  0.8481  0.1590
  698MOL0     C94125   9.781   9.415   5.696  0.5288 -0.5807 -0.3414
  698MOL0     O94126   9.722   9.455   5.581  0.5834 -0.6467  0.3319
  698MOL0     C94127   9.790   9.545   5.509  0.2082 -0.7361 -0.3424
  698MOL0     C94128   9.760   9.682   5.528 -0.6247  0.6789  1.0301
  698MOL0     C94129   9.833   9.777   5.459 -0.6038  0.1407 -0.8158
  698MOL0     C94130   9.945   9.737   5.381 -0.9591 -0.7991  0.2299
  698MOL0     O94131  10.019   9.846   5.325  0.8004  0.2633 -0.2466
  698MOL0     C94132  10.137   9.818   5.246  1.6468  0.1736 -0.4854
  698MOL0     C94133  10.234   9.933   5.242 -0.0575  0.2386  0.2741
  698MOL0     C94134  10.164  10.060   5.179 -0.7909 -0.5277  0.6858
  698MOL0     C94135  10.116  10.036   5.033 -1.0718 -0.3185  0.0054
  698MOL0     C94136  10.100  10.169   4.951 -0.1191  0.2437 -0.7636
  698MOL0     C94137  10.047  10.128   4.814  0.5434 -0.3977 -0.6273
  698MOL0     C94138   9.886  10.109   4.807 -1.1328 -0.1672 -0.5808
  698MOL0     C94139   9.849  10.069   4.660  1.2142  0.4954  0.5478
  698MOL0    Cl94140   9.665  10.068   4.663 -0.5261 -0.2247 -0.1405
  698MOL0     C94141   9.972   9.608   5.355 -0.2006  0.4401 -0.0231
  698MOL0     C94142   9.899   9.505   5.422  0.7717 -0.5329  0.6620
  698MOL0     O94143   9.885   9.463   5.749 -0.4039  0.6220  1.1894
  698MOL0     C94144   9.595   9.259   5.734 -0.2331 -0.1951 -0.0499
  698MOL0     C94145   9.522   9.168   5.814 -0.9211  0.0287  0.8274
  698MOL0     N94146   9.498   8.428   6.150 -0.3250  0.3185 -0.3912
  698MOL0     N94147   9.537   8.316   6.094  0.3366  0.0661 -0.2469
  698MOL0     C94148  10.572   8.509   5.539 -0.0026 -0.1713  0.0304
  698MOL0     C94149  10.711   8.495   5.504 -1.0975  0.0383 -0.0412
  698MOL0     C94150  11.114   8.465   5.371  0.2451 -0.1295  0.7057
  698MOL0     C94151  11.185   8.351   5.435 -0.2973  0.9122  0.8172
  698MOL0     C94152  11.320   8.376   5.467 -0.4620 -0.0506 -0.0324
  698MOL0     C94153  11.381   8.499   5.434 -0.4888 -1.0110  0.9152
  698MOL0     O94154  11.521   8.506   5.452  0.4171 -0.2859  0.3184
  698MOL0     C94155  11.576   8.466   5.583  0.4107 -0.2354 -0.2326
  698MOL0     C94156  11.712   8.526   5.609 -0.7397  0.4329 -0.3897
  698MOL0     C94157  11.715   8.674   5.641  0.7431  0.4315 -0.1412
  698MOL0     C94158  11.701   8.765   5.518  1.0146  0.5643 -1.0414
  698MOL0     C94159  11.717   8.901   5.557  0.1294 -0.0433  0.1426
  698MOL0     C94160  11.715   9.021   5.572 -0.1672 -0.2448  0.8661
  698MOL0     C94161  11.310   8.603   5.364  0.4414  0.5614  1.0322
  698MOL0     C94162  11.179   8.576   5.330 -0.9617 -0.3837 -0.3266
  698MOL0     H94163  10.693   8.195   5.361  0.5357  0.1253  1.3408
  698MOL0     H94164  10.466   8.227   5.364  0.3728  0.8772 -0.2207
  698MOL0     H94165  10.261   8.320   5.332 -0.3255 -0.0749  0.7143
  698MOL0     H94166  10.242   8.278   5.497  0.1607 -0.8878 -0.7674
  698MOL0     H94167  10.111   8.516   5.350  0.5551  0.4052  0.8220
  698MOL0     H94168  10.054   8.349   5.380 -1.4163 -0.6791  2.4502
  698MOL0     H94169  10.114   8.498   5.621 -0.6875 -1.1019  0.0914
  698MOL0     H94170   9.972   8.560   5.537  3.3563  1.1853 -3.6518
  698MOL0     H94171   9.859   8.349   5.555  0.9243  2.4446 -1.7978
  698MOL0     H94172  10.003   8.257   5.607 -0.6420 -1.1037 -0.6529
  698MOL0     H94173  10.024   8.371   5.809  0.4101 -1.5820  0.0502
  698MOL0     H94174   9.907   8.491   5.756 -3.0475 -1.3641 -3.0114
  698MOL0     H94175   9.859   8.202   5.852 -0.3557 -0.6072 -0.0088
  698MOL0     H94176   9.822   8.342   5.946 -0.5862 -0.3751 -0.0457
  698MOL0     H94177   9.660   8.410   5.740  2.3570  0.6536  3.1466
  698MOL0     H94178   9.691   8.248   5.681  1.7153 -0.8355 -0.8632
  698MOL0     H94179   9.597   8.158   5.881  2.5323  0.1021  0.7159
  698MOL0     H94180   9.488   8.250   5.781  1.1959 -0.6356 -1.3112
  698MOL0     H94181   9.418   8.489   5.841 -0.5171  3.4818  0.3614
  698MOL0     H94182   9.248   8.603   6.010 -0.8291 -1.4553  1.2542
  698MOL0     H94183   9.304   8.628   6.174 -0.8191 -0.9913  0.5960
  698MOL0     H94184   9.307   8.802   6.004 -1.2482 -1.7504  3.5670
  698MOL0     H94185   9.462   8.744   5.944 -0.6945  2.6774 -0.3273
  698MOL0     H94186   9.504   8.766   6.205 -0.2117  0.9488  0.0543
  698MOL0     H94187   9.374   8.875   6.211  0.5383 -3.9111  4.2446
  698MOL0     H94188   9.651   8.903   6.086 -1.1969 -3.4499  0.9444
  698MOL0     H94189   9.569   9.003   6.201 -1.7476 -2.5114  2.9228
  698MOL0     H94190   9.742   9.138   6.077 -1.0255  2.2269  0.7002
  698MOL0     H94191   9.878   9.425   5.980 -1.9166 -1.1029 -0.9978
  698MOL0     H94192   9.888   9.276   6.085  2.0659 -0.6878 -0.2233
  698MOL0     H94193   9.979   9.282   5.937 -0.1871 -1.5776  0.5536
  698MOL0     H94194   9.677   9.710   5.591 -3.9475 -1.1885 -2.1431
  698MOL0     H94195   9.791   9.874   5.482 -2.6948 -0.8203 -0.2383
  698MOL0     H94196  10.192   9.728   5.276 -0.4264 -0.8387  0.5088
  698MOL0     H94197  10.103   9.799   5.144  2.3013 -3.0947 -0.2060
  698MOL0     H94198  10.263   9.970   5.340 -0.6154  2.3378 -0.3022
  698MOL0     H94199  10.328   9.929   5.185 -1.6277 -0.4013 -2.4513
  698MOL0     H94200  10.241  10.137   5.181 -0.6691 -0.6120 -0.3636
  698MOL0     H94201  10.078  10.088   5.241 -0.5995 -1.2930  1.3188
  698MOL0     H94202  10.188   9.968   4.987 -2.6460 -1.1592 -1.3191
  698MOL0     H94203  10.019   9.988   5.043 -0.3213 -1.6566  1.3069
  698MOL0     H94204  10.198  10.215   4.937  0.7272 -1.1821  0.1374
  698MOL0     H94205  10.032  10.234   5.006  1.1093 -1.2209  2.7660
  698MOL0     H94206  10.087  10.189   4.733  2.2999 -0.7291 -0.0611
  698MOL0     H94207  10.087  10.030   4.787 -1.1208 -0.5023 -2.9407
  698MOL0     H94208   9.833  10.202   4.833  1.1468  1.3922 -1.2121
  698MOL0     H94209   9.848  10.031   4.874  0.8242 -0.5765  0.1077
  698MOL0     H94210   9.894   9.971   4.638 -1.1612 -0.3414 -0.8675
  698MOL0     H94211   9.892  10.145   4.595  2.0355  2.3585  3.0831
  698MOL0     H94212  10.061   9.578   5.301  0.1735 -0.0438  0.8617
  698MOL0     H94213   9.934   9.406   5.395  1.8778 -0.0151  0.1382
  698MOL0     H94214   9.550   9.300   5.645  0.4479 -2.1122 -1.3413
  698MOL0     H94215   9.421   9.142   5.782 -0.9004  1.2372 -0.2774
  698MOL0     H94216  10.516   8.591   5.581 -0.7961 -1.1000  0.8186
  698MOL0     H94217  10.786   8.567   5.534  0.5464 -1.3845 -0.5554
  698MOL0     H94218  11.133   8.259   5.459  1.4988  0.7662  4.9193
  698MOL0     H94219  11.384   8.301   5.515  0.4878  0.9318  0.2738
  698MOL0     H94220  11.511   8.494   5.667  0.2526 -0.6318 -0.2196
  698MOL0     H94221  11.598   8.359   5.585  0.9814 -0.1177  0.5146
  698MOL0     H94222  11.785   8.500   5.531  0.6961  0.1122  0.9970
  698MOL0     H94223  11.756   8.474   5.695 -1.7562 -1.8388 -1.1770
  698MOL0     H94224  11.808   8.696   5.694 -0.7487  3.1754  1.5991
  698MOL0     H94225  11.630   8.695   5.706 -0.4110  1.3722 -1.8818
  698MOL0     H94226  11.603   8.744   5.474  1.6079 -2.3762 -1.1734
  698MOL0     H94227  11.777   8.732   5.447 -0.1948 -3.3675 -0.7789
  698MOL0     H94228  11.698   9.126   5.582  1.6967  0.1466  0.3195
  698MOL0     H94229  11.351   8.694   5.323 -0.3099 -0.9031 -3.4381
  698MOL0     H94230  11.142   8.646   5.255  3.5970  5.0905  1.7535
  699MOL0     O94231   5.058   1.454   6.295  0.2403  0.6672 -0.9922
  699MOL0     C94232   5.110   1.489   6.397  0.8775 -0.3714 -0.0839
  699MOL0     O94233   5.062   1.461   6.520 -0.3116  0.1048 -0.0526
  699MOL0     C94234   4.947   1.398   6.531  0.3037 -0.2017  0.8653
  699MOL0     C94235   4.940   1.260   6.567  0.0506 -0.4551  0.4013
  699MOL0     C94236   4.815   1.204   6.595  0.5050  0.1439  0.2310
  699MOL0     C94237   4.702   1.271   6.567 -0.3581  0.1753  1.3289
  699MOL0     O94238   4.581   1.220   6.595  0.6605 -0.2592  0.1660
  699MOL0     C94239   4.559   1.171   6.732 -0.1633 -0.4914  0.3066
  699MOL0     C94240   4.408   1.158   6.738  0.3626  0.6128 -0.6249
  699MOL0     C94241   4.344   1.128   6.876 -0.9628 -0.0790 -0.3073
  699MOL0     C94242   4.339   1.233   6.990  0.1633  0.7870 -0.5386
  699MOL0     C94243   4.311   1.160   7.121  0.1672 -0.0823  0.2929
  699MOL0     C94244   4.308   1.253   7.246 -0.1423 -0.2918  0.9633
  699MOL0     C94245   4.316   1.175   7.377  0.1955  0.0700 -0.4248
  699MOL0     C94246   4.245   1.249   7.498 -0.0234  0.4364  0.1770
  699MOL0     N94247   4.101   1.232   7.503 -0.4737 -0.8384 -0.2399
  699MOL0     C94248   4.019   1.345   7.479 -0.7366 -0.7464 -0.2726
  699MOL0     C94249   3.897   1.286   7.464 -0.1419 -0.6248 -0.1479
  699MOL0     C94250   3.773   1.369   7.444 -0.0887 -0.2414  0.3539
  699MOL0     C94251   3.740   1.457   7.561  1.2850 -0.9859 -0.8755
  699MOL0     C94252   3.593   1.486   7.569 -0.2584  0.0683 -0.0241
  699MOL0     C94253   3.549   1.582   7.454  0.0927  0.9979 -1.1329
  699MOL0     O94254   3.617   1.708   7.475 -0.5291  0.3774  0.6229
  699MOL0     C94255   3.603   1.816   7.394  0.1902 -0.0148  0.1793
  699MOL0     C94256   3.663   1.933   7.431 -0.0706  0.2695 -0.1744
  699MOL0     C94257   3.641   2.045   7.351  0.0625 -0.3419  0.0782
  699MOL0     C94258   3.680   2.169   7.415 -0.2018 -1.5111 -0.5284
  699MOL0     C94259   3.560   2.035   7.234 -0.6880 -0.1358  0.3332
  699MOL0     C94260   3.537   2.149   7.138 -1.2262  0.3640 -0.3113
  699MOL0     O94261   3.569   2.279   7.181  0.4869 -0.6498 -0.4040
  699MOL0     C94262   3.533   2.380   7.089 -0.8165  0.0941  0.1942
  699MOL0     C94263   3.624   2.400   6.978  0.1819 -0.2732 -0.1953
  699MOL0     C94264   3.633   2.523   6.911 -0.1221 -0.3562  0.8075
  699MOL0     C94265   3.532   2.615   6.932  0.0544  0.4087  0.7028
  699MOL0     O94266   3.535   2.729   6.857 -0.0231 -0.4153 -1.0325
  699MOL0     C94267   3.403   2.793   6.844 -0.3401  0.1068 -0.2955
  699MOL0     C94268   3.295   2.717   6.757 -0.7193  0.1110  0.3210
  699MOL0     C94269   3.174   2.811   6.729 -0.0106  0.8393  0.3757
  699MOL0     C94270   3.057   2.745   6.663  0.3545 -0.2572  0.2610
  699MOL0     C94271   2.969   2.833   6.569 -0.6833 -0.0365  0.3147
  699MOL0     C94272   2.904   2.945   6.655 -0.0988 -1.3656  0.3046
  699MOL0     C94273   2.796   3.026   6.577 -0.2550  0.2565  0.4407
  699MOL0     C94274   2.710   3.128   6.655  0.1199  0.4542  0.4664
  699MOL0    Cl94275   2.574   3.036   6.723 -0.1017 -0.9195 -0.4453
  699MOL0     C94276   3.436   2.591   7.035 -0.4883  0.6232  0.5017
  699MOL0     C94277   3.437   2.475   7.112 -1.0767  0.5834 -0.3151
  699MOL0     O94278   3.470   2.127   7.040 -0.4125  0.7580  0.1568
  699MOL0     C94279   3.504   1.914   7.203 -0.0918 -0.6468 -0.3512
  699MOL0     C94280   3.523   1.802   7.274 -0.1703  0.0176 -0.5033
  699MOL0     N94281   3.901   1.152   7.460 -0.0062  0.0028  0.0903
  699MOL0     N94282   4.026   1.120   7.499 -0.0183  0.2419 -0.6061
  699MOL0     C94283   4.712   1.407   6.526  0.8244  0.0787 -0.6067
  699MOL0     C94284   4.832   1.472   6.508 -0.2804 -0.0076 -0.0455
  699MOL0     C94285   5.244   1.555   6.380  0.3613  0.0992 -0.3654
  699MOL0     C94286   5.302   1.632   6.482 -0.1651  0.0337 -0.4820
  699MOL0     C94287   5.433   1.680   6.473  0.5688  0.8125 -0.0955
  699MOL0     C94288   5.505   1.649   6.348  0.3907 -0.4141 -0.5798
  699MOL0     O94289   5.634   1.700   6.329 -0.0221  1.0196 -1.0377
  699MOL0     C94290   5.646   1.841   6.307 -0.0218  0.4829 -0.5783
  699MOL0     C94291   5.594   1.888   6.169  0.2121  0.5126  0.1887
  699MOL0     C94292   5.688   1.838   6.054  0.0021  0.0294  1.3386
  699MOL0     C94293   5.820   1.914   6.049 -0.5026 -0.4599 -0.1888
  699MOL0     C94294   5.907   1.833   5.962  0.6697  0.7629 -1.1648
  699MOL0     C94295   5.959   1.765   5.875  0.9332  0.1722  0.5655
  699MOL0     C94296   5.436   1.590   6.248  0.3170 -0.6348  0.9683
  699MOL0     C94297   5.315   1.537   6.262 -0.7643  0.4307 -0.6267
  699MOL0     H94298   5.041   1.222   6.581  1.1137  1.1431 -2.1690
  699MOL0     H94299   4.800   1.104   6.634  0.0941 -0.9281 -2.4038
  699MOL0     H94300   4.612   1.078   6.754 -0.8735 -1.2514 -1.0276
  699MOL0     H94301   4.593   1.246   6.803 -1.1237 -1.4785  1.8656
  699MOL0     H94302   4.368   1.257   6.717  3.1328  2.3244  1.5136
  699MOL0     H94303   4.367   1.085   6.668 -1.2383  1.0627 -0.1975
  699MOL0     H94304   4.244   1.089   6.856  0.1365 -4.7905  1.9158
  699MOL0     H94305   4.405   1.046   6.915  0.7592  0.5293 -1.5752
  699MOL0     H94306   4.430   1.294   6.990  1.5620 -1.1566  1.3818
  699MOL0     H94307   4.255   1.301   6.973 -0.6714 -0.1157 -0.1408
  699MOL0     H94308   4.217   1.107   7.106 -0.5623  1.2193  0.0997
  699MOL0     H94309   4.398   1.096   7.138  2.6044  1.9633 -3.1193
  699MOL0     H94310   4.387   1.329   7.240 -2.1701  1.9879  1.4574
  699MOL0     H94311   4.216   1.312   7.243 -1.1233 -1.6811  2.1876
  699MOL0     H94312   4.265   1.080   7.362  1.0563 -0.8762  2.0856
  699MOL0     H94313   4.419   1.151   7.407  0.2092  1.1399  0.4533
  699MOL0     H94314   4.272   1.354   7.510  2.7153 -0.4263  2.8479
  699MOL0     H94315   4.279   1.197   7.588 -2.1063 -0.5988  0.4284
  699MOL0     H94316   4.061   1.445   7.481 -2.4499 -0.0014 -0.2088
  699MOL0     H94317   3.799   1.436   7.361 -0.6390  0.7664  0.9848
  699MOL0     H94318   3.690   1.304   7.416 -0.2273  1.1717 -2.9926
  699MOL0     H94319   3.808   1.541   7.542  1.7490 -1.4369 -1.2322
  699MOL0     H94320   3.762   1.421   7.662 -2.1291  2.4628  1.3842
  699MOL0     H94321   3.563   1.529   7.665  1.4662  4.5480 -1.2306
  699MOL0     H94322   3.535   1.394   7.560 -1.1797  0.6717 -0.3133
  699MOL0     H94323   3.441   1.597   7.469 -0.3808 -2.3181 -0.2554
  699MOL0     H94324   3.567   1.544   7.352  1.4316  1.5297 -1.1037
  699MOL0     H94325   3.709   1.928   7.529 -1.2584 -1.1047  0.3466
  699MOL0     H94326   3.593   2.234   7.418  2.7073  2.8212 -0.8241
  699MOL0     H94327   3.722   2.149   7.515 -2.0060 -3.2212 -0.0608
  699MOL0     H94328   3.760   2.216   7.358  0.8021  0.0797  1.9919
  699MOL0     H94329   3.710   2.337   6.959  2.1157  1.8865  0.8615
  699MOL0     H94330   3.695   2.544   6.825 -3.1234  4.8597 -0.5410
  699MOL0     H94331   3.363   2.830   6.939  1.7375  1.1916  0.2152
  699MOL0     H94332   3.428   2.890   6.801 -1.6458  0.7192  0.2806
  699MOL0     H94333   3.333   2.685   6.660  0.2137 -0.4112  0.8469
  699MOL0     H94334   3.251   2.635   6.814 -0.4363 -0.8687 -0.8346
  699MOL0     H94335   3.215   2.888   6.663 -2.0819  2.1565  0.5405
  699MOL0     H94336   3.138   2.856   6.821 -0.3992  0.5529  0.3678
  699MOL0     H94337   3.092   2.664   6.598  0.2682 -0.9331  1.0378
  699MOL0     H94338   2.994   2.711   6.746  1.7890 -0.0249  1.5106
  699MOL0     H94339   2.887   2.774   6.527  2.5027 -2.8705 -2.5764
  699MOL0     H94340   3.033   2.873   6.490  0.5563 -0.9148  0.8348
  699MOL0     H94341   2.843   2.894   6.731 -3.0026  0.7477 -0.4030
  699MOL0     H94342   2.984   3.001   6.704  0.7701 -1.7142 -0.6789
  699MOL0     H94343   2.731   2.958   6.522 -0.3468  1.7176 -1.3489
  699MOL0     H94344   2.853   3.092   6.510  0.5630  0.1941  1.0576
  699MOL0     H94345   2.673   3.213   6.597  1.3370  1.0491  0.5174
  699MOL0     H94346   2.771   3.170   6.735  3.9502  0.7621 -2.3001
  699MOL0     H94347   3.361   2.662   7.069  1.1371  2.6662  0.0316
  699MOL0     H94348   3.371   2.472   7.198  2.2511 -0.1684  2.4418
  699MOL0     H94349   3.437   1.902   7.118 -1.2084  0.9066  0.2538
  699MOL0     H94350   3.494   1.703   7.240  1.4064  0.6413 -4.0002
  699MOL0     H94351   4.623   1.468   6.525 -0.4282 -1.5972 -3.0631
  699MOL0     H94352   4.827   1.578   6.484  3.2364 -0.0718 -1.7576
  699MOL0     H94353   5.265   1.642   6.583  1.5399 -0.8362  0.2752
  699MOL0     H94354   5.475   1.724   6.562  3.3582  0.1877 -1.0082
  699MOL0     H94355   5.599   1.889   6.394  1.3959  0.8168  0.0322
  699MOL0     H94356   5.754   1.859   6.313  0.0910 -0.4922  1.1237
  699MOL0     H94357   5.594   1.998   6.165  1.1630  0.5814  1.3948
  699MOL0     H94358   5.495   1.846   6.152  0.2924 -0.1013  1.1559
  699MOL0     H94359   5.637   1.835   5.957  0.3357 -0.3207  1.1677
  699MOL0     H94360   5.708   1.732   6.072  2.1326 -0.4160 -2.4792
  699MOL0     H94361   5.872   1.935   6.143  0.0760  0.7045 -0.7444
  699MOL0     H94362   5.801   2.006   5.992  0.5469  0.0385  0.2244
  699MOL0     H94363   5.992   1.722   5.783 -1.5262  0.1186 -0.3759
  699MOL0     H94364   5.482   1.566   6.153 -1.8796  2.1782 -0.9555
  699MOL0     H94365   5.276   1.475   6.181  1.9756 -0.4467 -1.3923
  700MOL0     O94366   1.155   1.792   7.316 -0.4077 -0.4007  1.0195
  700MOL0     C94367   1.099   1.788   7.203 -0.6725  0.2001  0.7889
  700MOL0     O94368   1.092   1.688   7.122 -0.5939 -0.2764 -0.4513
  700MOL0     C94369   1.166   1.576   7.129 -0.8212  0.1217  0.4156
  700MOL0     C94370   1.270   1.544   7.223 -0.0793  0.4869  0.5214
  700MOL0     C94371   1.347   1.427   7.213 -0.6893  0.7934  0.4475
  700MOL0     C94372   1.302   1.319   7.129 -0.3538 -0.0242  0.3603
  700MOL0     O94373   1.360   1.203   7.104  0.0631  0.6175 -1.1891
  700MOL0     C94374   1.473   1.171   7.183 -0.5404 -0.2818  0.0116
  700MOL0     C94375   1.485   1.017   7.152 -0.5312 -0.3508 -0.3439
  700MOL0     C94376   1.624   0.958   7.206 -0.0948  0.2013  0.1562
  700MOL0     C94377   1.744   0.998   7.108 -1.1491  0.1107 -0.9771
  700MOL0     C94378   1.890   0.968   7.163  1.2410 -0.1093 -0.6505
  700MOL0     C94379   1.934   1.085   7.254  0.4666  1.0083  0.3008
  700MOL0     C94380   2.073   1.075   7.308  0.5999 -0.6654 -1.4571
  700MOL0     C94381   2.104   0.936   7.379 -0.4368  0.4432  0.9216
  700MOL0     N94382   2.034   0.921   7.509  0.1345  0.5170 -0.2496
  700MOL0     C94383   1.933   0.835   7.554  0.0254  0.5567  0.7427
  700MOL0     C94384   1.891   0.886   7.678  0.4707 -0.4902 -0.9690
  700MOL0     C94385   1.792   0.810   7.777  0.0337  0.3162  0.3391
  700MOL0     C94386   1.856   0.695   7.852  0.3876  1.4921  0.1945
  700MOL0     C94387   1.760   0.642   7.955  0.3957 -0.7122  0.1303
  700MOL0     C94388   1.811   0.523   8.039  0.5069 -0.5298  0.4624
  700MOL0     O94389   1.858   0.425   7.957 -0.0009 -0.1961  0.0866
  700MOL0     C94390   1.801   0.308   7.948  0.3282 -0.5334 -1.2150
  700MOL0     C94391   1.664   0.298   7.937 -1.0681 -0.5577  0.3204
  700MOL0     C94392   1.601   0.176   7.911  0.5045  1.3814  0.2760
  700MOL0     C94393   1.465   0.190   7.868  0.4952 -0.7831  0.2262
  700MOL0     C94394   1.671   0.057   7.910 -0.3492 -0.7932  0.0326
  700MOL0     C94395   1.626  -0.069   7.871  0.1446 -0.4136 -0.6887
  700MOL0     O94396   1.583  -0.150   7.971 -0.3460 -0.2959 -0.5615
  700MOL0     C94397   1.546  -0.280   7.955 -0.5206  0.0710 -0.3258
  700MOL0     C94398   1.409  -0.306   7.941  0.1473  0.6915  0.0239
  700MOL0     C94399   1.365  -0.437   7.913  1.2858  0.0381  0.4218
  700MOL0     C94400   1.456  -0.545   7.928  0.6663  0.3198 -0.9537
  700MOL0     O94401   1.403  -0.681   7.937  0.0125  0.2840 -0.1200
  700MOL0     C94402   1.307  -0.722   7.839 -0.3153 -0.5223 -0.2331
  700MOL0     C94403   1.275  -0.873   7.841  0.4836 -0.8037  0.4499
  700MOL0     C94404   1.172  -0.912   7.736  0.5369  0.3798 -0.5937
  700MOL0     C94405   1.131  -1.060   7.747 -0.4300 -1.2663 -0.2305
  700MOL0     C94406   1.014  -1.097   7.655  0.4267  0.0595  0.1482
  700MOL0     C94407   1.075  -1.136   7.519 -0.6163  1.6781 -0.0722
  700MOL0     C94408   0.992  -1.150   7.395 -0.0200  0.2769 -0.5543
  700MOL0     C94409   0.884  -1.258   7.394 -0.7079 -0.4349  0.6119
  700MOL0    Cl94410   0.765  -1.242   7.508 -0.0641  0.0914  0.3058
  700MOL0     C94411   1.596  -0.525   7.951  0.7267 -0.3116  0.0572
  700MOL0     C94412   1.636  -0.390   7.969 -0.6349 -0.5167  0.4680
  700MOL0     O94413   1.639  -0.097   7.750 -0.1104 -0.1920  0.0083
  700MOL0     C94414   1.805   0.068   7.937 -0.2280 -0.0800  0.1048
  700MOL0     C94415   1.873   0.190   7.952  0.2414 -0.1627 -0.0918
  700MOL0     N94416   1.966   0.992   7.712 -0.8184 -0.6014  0.0210
  700MOL0     N94417   2.042   1.013   7.606 -1.1997 -0.5868 -1.2833
  700MOL0     C94418   1.191   1.347   7.049 -0.2571 -0.3531  0.4719
  700MOL0     C94419   1.137   1.476   7.036 -0.1670 -1.0019 -0.2199
  700MOL0     C94420   1.016   1.914   7.177 -0.4204  0.0092 -0.6912
  700MOL0     C94421   0.944   1.914   7.064  0.2481  0.0597  0.5836
  700MOL0     C94422   0.848   2.010   7.030 -1.0012  1.0708 -0.0401
  700MOL0     C94423   0.831   2.105   7.128 -0.7726 -0.2583  0.5672
  700MOL0     O94424   0.733   2.201   7.116  0.0357 -0.4466  0.2815
  700MOL0     C94425   0.631   2.201   7.224 -0.1350  0.1126  0.0115
  700MOL0     C94426   0.503   2.140   7.160  0.3099  0.0016 -0.6181
  700MOL0     C94427   0.438   2.256   7.087  0.9283 -0.6753  0.2957
  700MOL0     C94428   0.361   2.213   6.969  0.1086 -0.3340  0.7319
  700MOL0     C94429   0.269   2.310   6.902  0.1933 -0.3488 -0.0424
  700MOL0     C94430   0.212   2.402   6.846  0.9855  1.0929  0.6133
  700MOL0     C94431   0.918   2.124   7.232 -0.3517 -0.5314 -0.5248
  700MOL0     C94432   1.011   2.018   7.263  0.3506 -0.9266  0.6174
  700MOL0     H94433   1.300   1.622   7.293  1.6971  1.3526 -1.1061
  700MOL0     H94434   1.442   1.418   7.265 -1.9978  2.0692  3.2272
  700MOL0     H94435   1.566   1.208   7.139 -0.5309 -0.6029 -0.2383
  700MOL0     H94436   1.469   1.184   7.292 -1.4432  1.3417 -0.1723
  700MOL0     H94437   1.400   0.966   7.197 -2.2550  2.2666 -0.3897
  700MOL0     H94438   1.486   0.999   7.044  1.3390  1.3044 -0.6644
  700MOL0     H94439   1.645   0.995   7.307 -1.5111  4.7451 -0.9473
  700MOL0     H94440   1.611   0.850   7.203 -0.1215  0.2239 -1.2036
  700MOL0     H94441   1.736   0.931   7.022 -3.1378 -2.1476  0.8108
  700MOL0     H94442   1.739   1.100   7.068  2.0073  1.1074  0.7908
  700MOL0     H94443   1.890   0.873   7.216 -1.1548  0.5623  0.7059
  700MOL0     H94444   1.950   0.958   7.072  1.8776 -2.8761 -0.0059
  700MOL0     H94445   1.931   1.178   7.198 -1.9871  0.4290 -0.6403
  700MOL0     H94446   1.860   1.092   7.334 -0.7547 -1.4472 -0.5124
  700MOL0     H94447   2.143   1.119   7.237 -1.9112  2.1591 -2.3815
  700MOL0     H94448   2.089   1.152   7.383 -0.0677 -1.2612 -0.6878
  700MOL0     H94449   2.211   0.916   7.394 -0.0602  0.3482 -1.4930
  700MOL0     H94450   2.077   0.853   7.314  1.6695 -0.5419  1.2347
  700MOL0     H94451   1.888   0.752   7.501 -0.9245  1.5397 -0.0531
  700MOL0     H94452   1.750   0.888   7.841 -0.3006 -0.8455  1.5736
  700MOL0     H94453   1.709   0.778   7.715  1.0103  1.0942 -1.4572
  700MOL0     H94454   1.948   0.720   7.905  0.4847 -0.4612  1.0379
  700MOL0     H94455   1.872   0.620   7.773  1.2642  3.4827 -1.6147
  700MOL0     H94456   1.669   0.625   7.896  0.9993 -1.0041 -0.7235
  700MOL0     H94457   1.730   0.715   8.031  2.1509  0.2349 -0.0418
  700MOL0     H94458   1.728   0.487   8.100 -0.3364  0.3285 -0.1414
  700MOL0     H94459   1.888   0.553   8.110  0.6012 -1.7636  0.9048
  700MOL0     H94460   1.608   0.391   7.935  0.8770  0.6746 -2.2209
  700MOL0     H94461   1.455   0.237   7.769  4.3907  0.0293  0.0535
  700MOL0     H94462   1.417   0.091   7.868 -1.0471 -0.1245  2.5824
  700MOL0     H94463   1.409   0.254   7.937  0.6181 -1.6435  1.1448
  700MOL0     H94464   1.349  -0.218   7.921 -3.4032 -1.8545 -1.5977
  700MOL0     H94465   1.258  -0.449   7.901  1.1934 -1.0446  2.0093
  700MOL0     H94466   1.217  -0.660   7.843  0.1915  0.1794  0.8560
  700MOL0     H94467   1.342  -0.695   7.739 -1.2122  1.4281 -0.0580
  700MOL0     H94468   1.371  -0.922   7.825 -1.2504 -3.6199 -2.6209
  700MOL0     H94469   1.238  -0.915   7.935  1.9725 -0.8997  1.0225
  700MOL0     H94470   1.214  -0.888   7.638 -0.1642  2.0644 -0.5102
  700MOL0     H94471   1.085  -0.848   7.754  0.0209 -0.8365  1.5889
  700MOL0     H94472   1.218  -1.127   7.739 -0.6068 -1.8828  2.2691
  700MOL0     H94473   1.089  -1.057   7.848  0.7690  3.5893  0.3469
  700MOL0     H94474   0.937  -1.020   7.646 -2.1096 -2.0315  2.3889
  700MOL0     H94475   0.956  -1.175   7.705 -0.4708  3.1554  4.5977
  700MOL0     H94476   1.156  -1.073   7.482 -1.7002  1.6172 -2.7592
  700MOL0     H94477   1.113  -1.238   7.533 -1.6927  0.9752 -1.8888
  700MOL0     H94478   1.063  -1.177   7.316  2.9072  0.5564  1.8288
  700MOL0     H94479   0.939  -1.056   7.375 -0.3456 -0.3558 -3.0811
  700MOL0     H94480   0.946  -1.347   7.401  0.3462  0.3535  1.6107
  700MOL0     H94481   0.833  -1.249   7.298  3.1239 -1.2873 -1.7034
  700MOL0     H94482   1.665  -0.604   7.978  1.4966  0.2684 -0.1610
  700MOL0     H94483   1.734  -0.362   8.005 -0.8334  2.2611 -0.8873
  700MOL0     H94484   1.867  -0.019   7.955 -0.5299 -0.4666 -0.7232
  700MOL0     H94485   1.980   0.203   7.968 -0.2099  1.1685  2.3006
  700MOL0     H94486   1.150   1.270   6.984 -0.3422  0.3605 -0.3347
  700MOL0     H94487   1.062   1.499   6.961  0.3128  0.5862 -0.2393
  700MOL0     H94488   0.956   1.830   6.997  2.9545  0.8361  0.0135
  700MOL0     H94489   0.784   1.987   6.946 -1.7711 -0.5476  0.9392
  700MOL0     H94490   0.668   2.148   7.313 -3.7762 -0.8282  1.1440
  700MOL0     H94491   0.614   2.305   7.253  0.8560  0.1206  0.6240
  700MOL0     H94492   0.435   2.094   7.233 -0.6829 -1.7128 -2.5384
  700MOL0     H94493   0.522   2.064   7.084 -3.6967 -1.8201 -0.1091
  700MOL0     H94494   0.512   2.325   7.045  1.2859  0.6851  2.9643
  700MOL0     H94495   0.379   2.310   7.162  4.8304  2.5181  1.4538
  700MOL0     H94496   0.295   2.130   6.997  2.5659 -2.2597  1.2187
  700MOL0     H94497   0.437   2.161   6.911  0.3893  2.6171 -1.7690
  700MOL0     H94498   0.148   2.479   6.806 -0.4634 -0.2589  0.2177
  700MOL0     H94499   0.902   2.194   7.313 -2.7353  0.7084 -1.9745
  700MOL0     H94500   1.069   2.012   7.355 -1.8757 -3.2985  2.0068
  701MOL0     O94501  11.363   4.070   9.569 -0.7430 -0.1502 -0.1472
  701MOL0     C94502  11.270   4.019   9.504  0.4807 -1.1130  0.4705
  701MOL0     O94503  11.212   3.904   9.540  0.1717 -0.6099  0.5037
  701MOL0     C94504  11.197   3.880   9.677  0.6130  0.1946 -0.8181
  701MOL0     C94505  11.158   3.979   9.777  0.2267  0.4664  0.8593
  701MOL0     C94506  11.181   3.952   9.914 -0.8851 -0.4017  0.0944
  701MOL0     C94507  11.248   3.829   9.949  0.0963  0.2541 -0.0270
  701MOL0     O94508  11.283   3.826  10.084  0.2076  0.3701  0.3261
  701MOL0     C94509  11.271   3.703  10.163 -0.0230 -0.4428  0.1508
  701MOL0     C94510  11.128   3.707  10.234 -0.4941 -0.5924  0.1186
  701MOL0     C94511  11.108   3.820  10.335  0.4091 -0.2673  0.3471
  701MOL0     C94512  10.961   3.823  10.376 -0.2212  0.1153 -0.0290
  701MOL0     C94513  10.863   3.878  10.276  0.0947  0.5444 -0.0933
  701MOL0     C94514  10.873   4.037  10.266 -0.6797 -0.6011  0.8780
  701MOL0     C94515  10.799   4.076  10.139  0.2193 -0.2783 -0.2438
  701MOL0     C94516  10.790   4.226  10.118 -0.7112  0.1032 -0.0164
  701MOL0     N94517  10.748   4.288   9.989 -0.0425 -0.5220  0.1384
  701MOL0     C94518  10.624   4.331   9.957 -0.4260  0.4100 -0.5261
  701MOL0     C94519  10.639   4.397   9.832 -0.3992 -0.4343 -1.0280
  701MOL0     C94520  10.529   4.468   9.752 -0.8395 -0.8939 -0.4042
  701MOL0     C94521  10.490   4.401   9.620  0.4079 -0.3271 -0.0591
  701MOL0     C94522  10.356   4.459   9.573  0.3890  0.1728 -0.1775
  701MOL0     C94523  10.313   4.394   9.440  0.4247  0.5592  1.0434
  701MOL0     O94524  10.177   4.445   9.400 -0.1362 -0.2689 -0.2532
  701MOL0     C94525  10.176   4.575   9.344 -0.1762 -0.1103  0.1343
  701MOL0     C94526  10.055   4.643   9.363 -0.0889 -1.1430  0.6801
  701MOL0     C94527  10.034   4.775   9.326  0.4804  0.1764 -0.8021
  701MOL0     C94528   9.900   4.837   9.363 -0.4410  0.9281 -0.1456
  701MOL0     C94529  10.145   4.855   9.274 -0.7606  0.4437  0.2383
  701MOL0     C94530  10.141   5.002   9.238  0.1069  0.0629  0.3492
  701MOL0     O94531  10.261   5.054   9.185  0.1416  0.4136  0.5271
  701MOL0     C94532  10.280   5.190   9.186  1.0571  0.7116 -0.9093
  701MOL0     C94533  10.333   5.242   9.066 -0.4855 -0.1661 -0.1151
  701MOL0     C94534  10.361   5.379   9.049  0.5265  0.6738  0.3469
  701MOL0     C94535  10.329   5.458   9.163  0.4274 -0.4887 -0.0430
  701MOL0     O94536  10.352   5.596   9.154  0.0789  0.0974  0.7536
  701MOL0     C94537  10.463   5.633   9.222  0.4886 -0.3860  0.5904
  701MOL0     C94538  10.487   5.792   9.209  0.7191 -0.0735 -0.4677
  701MOL0     C94539  10.525   5.811   9.064  0.3872  0.2090 -0.3666
  701MOL0     C94540  10.683   5.779   9.060  0.1608 -0.6296 -0.4975
  701MOL0     C94541  10.761   5.798   8.934  0.0217 -0.0165  1.3126
  701MOL0     C94542  10.710   5.698   8.822 -0.6854 -0.3739  0.1550
  701MOL0     C94543  10.746   5.758   8.687  0.3071 -0.1294  0.1091
  701MOL0     C94544  10.679   5.671   8.576  0.8712  0.2436  0.1386
  701MOL0    Cl94545  10.721   5.732   8.411  0.4753 -0.1828 -0.5148
  701MOL0     C94546  10.267   5.405   9.279 -0.8564  0.2339  0.6892
  701MOL0     C94547  10.237   5.275   9.291  0.0914 -0.6070 -0.2787
  701MOL0     O94548  10.033   5.059   9.233 -0.1633 -0.2873 -0.2211
  701MOL0     C94549  10.269   4.780   9.251  0.3682 -0.8713  0.9727
  701MOL0     C94550  10.282   4.651   9.289  0.2471 -0.3131 -0.5673
  701MOL0     N94551  10.778   4.394   9.811  0.2525 -0.7697 -0.3972
  701MOL0     N94552  10.832   4.341   9.899 -0.8536  1.2370  0.7901
  701MOL0     C94553  11.269   3.732   9.854 -0.2517  0.7507 -0.3691
  701MOL0     C94554  11.251   3.761   9.722 -0.8662  0.5508  0.6997
  701MOL0     C94555  11.229   4.099   9.379 -0.4495 -0.6509  0.1943
  701MOL0     C94556  11.139   4.047   9.295 -0.1275  0.0749 -0.1297
  701MOL0     C94557  11.101   4.125   9.180  1.2562  0.3894 -1.1048
  701MOL0     C94558  11.162   4.239   9.141 -0.8926  0.2013 -0.5143
  701MOL0     O94559  11.119   4.301   9.029 -0.0938  0.5521  0.0455
  701MOL0     C94560  11.059   4.232   8.925  0.4146 -0.1496  0.3040
  701MOL0     C94561  11.026   4.318   8.807 -0.8359 -0.6330  0.1186
  701MOL0     C94562  11.149   4.364   8.734  0.7221  0.2663  0.4028
  701MOL0     C94563  11.095   4.473   8.648 -0.1025 -0.3663 -0.4334
  701MOL0     C94564  11.013   4.418   8.538  0.6656  0.8682  0.0664
  701MOL0     C94565  10.924   4.383   8.459  0.2750  0.3374  0.2237
  701MOL0     C94566  11.257   4.297   9.234 -0.0160  0.3210  0.8560
  701MOL0     C94567  11.295   4.220   9.345  0.5392  0.0418  0.1086
  701MOL0     H94568  11.123   4.071   9.733 -0.1101 -0.4299 -0.8512
  701MOL0     H94569  11.172   4.016  10.001 -0.6280 -2.9951  2.1690
  701MOL0     H94570  11.291   3.610  10.109  1.8834 -0.6172  1.0852
  701MOL0     H94571  11.346   3.697  10.242  0.2911 -1.4491 -0.2079
  701MOL0     H94572  11.045   3.718  10.164 -0.6500  4.3390  0.7464
  701MOL0     H94573  11.113   3.612  10.286 -0.2226 -0.5006  0.3688
  701MOL0     H94574  11.176   3.794  10.416  1.4121  0.1498 -0.3334
  701MOL0     H94575  11.140   3.914  10.289 -0.4371  0.0483  0.3808
  701MOL0     H94576  10.919   3.724  10.400 -2.2740  1.2945  1.6209
  701MOL0     H94577  10.964   3.878  10.470  0.4578 -0.8312  0.5218
  701MOL0     H94578  10.865   3.825  10.180 -1.4877 -1.9723  1.1429
  701MOL0     H94579  10.760   3.862  10.310 -0.5758 -1.4892 -2.7298
  701MOL0     H94580  10.828   4.090  10.351  0.5975  0.1198  1.1352
  701MOL0     H94581  10.976   4.074  10.260 -0.8569 -0.3267 -1.2008
  701MOL0     H94582  10.847   4.028  10.053 -0.0337  0.7429 -0.9579
  701MOL0     H94583  10.702   4.026  10.144 -1.5245  3.0201  1.6563
  701MOL0     H94584  10.884   4.273  10.148  0.0798 -2.0140  1.0568
  701MOL0     H94585  10.726   4.267  10.196  2.0268  0.8668  2.0114
  701MOL0     H94586  10.529   4.312  10.005 -0.5551 -3.7343 -2.0447
  701MOL0     H94587  10.437   4.490   9.808  1.1789  0.0635  2.7853
  701MOL0     H94588  10.571   4.555   9.700 -1.9890  0.6455  1.0966
  701MOL0     H94589  10.485   4.292   9.630 -2.2740 -0.2651 -0.0813
  701MOL0     H94590  10.575   4.416   9.552 -0.4170  0.0764 -1.0253
  701MOL0     H94591  10.368   4.567   9.572  0.9431  0.1456  1.5737
  701MOL0     H94592  10.279   4.429   9.644  1.9474 -0.9300  1.1127
  701MOL0     H94593  10.318   4.285   9.433 -0.0876  0.4881  1.6874
  701MOL0     H94594  10.386   4.422   9.363  0.2082 -0.9277  0.2630
  701MOL0     H94595   9.975   4.593   9.417 -2.5160  1.1867 -0.5129
  701MOL0     H94596   9.852   4.771   9.436 -1.1712  0.6843 -0.8374
  701MOL0     H94597   9.915   4.930   9.418 -2.3977 -0.1818  2.4445
  701MOL0     H94598   9.833   4.851   9.278 -1.1525 -0.9794  0.0651
  701MOL0     H94599  10.357   5.165   8.992 -0.7996 -2.8309  2.3836
  701MOL0     H94600  10.406   5.403   8.953 -3.2275  1.9025 -1.2954
  701MOL0     H94601  10.451   5.602   9.326 -0.1340  0.5876  0.8210
  701MOL0     H94602  10.550   5.586   9.176 -0.8722 -2.4810 -0.0585
  701MOL0     H94603  10.399   5.855   9.222  1.1078  0.4399 -0.3135
  701MOL0     H94604  10.558   5.826   9.285 -1.3702 -1.4420  2.2589
  701MOL0     H94605  10.514   5.918   9.046 -0.5920  0.4719  1.5212
  701MOL0     H94606  10.470   5.746   8.995  2.9673 -0.3500 -2.0320
  701MOL0     H94607  10.742   5.844   9.125  1.4957 -3.0675  0.8867
  701MOL0     H94608  10.696   5.673   9.086 -1.7481 -0.7278  0.2170
  701MOL0     H94609  10.871   5.802   8.937  0.1975  3.2732 -1.8712
  701MOL0     H94610  10.734   5.899   8.903 -0.7625 -0.7731 -0.5979
  701MOL0     H94611  10.765   5.606   8.844 -0.7209 -0.5029 -0.2749
  701MOL0     H94612  10.601   5.692   8.829 -0.6249 -2.3326  0.1099
  701MOL0     H94613  10.855   5.764   8.676  0.1998  0.9902 -0.4688
  701MOL0     H94614  10.702   5.858   8.674 -1.4359 -0.7564  0.8584
  701MOL0     H94615  10.571   5.664   8.591  1.2295 -2.3629  2.3020
  701MOL0     H94616  10.719   5.569   8.570  0.3274 -0.0488  1.2833
  701MOL0     H94617  10.255   5.472   9.363 -0.6626  2.9947 -1.3288
  701MOL0     H94618  10.200   5.231   9.383  1.9114  1.7889  1.7116
  701MOL0     H94619  10.364   4.823   9.219  1.0596 -1.1293  2.5955
  701MOL0     H94620  10.384   4.617   9.280  1.4182  2.6884 -0.0241
  701MOL0     H94621  11.327   3.648   9.891 -1.7951 -0.2445 -0.1058
  701MOL0     H94622  11.291   3.685   9.655 -1.1364 -0.1673  1.3375
  701MOL0     H94623  11.099   3.946   9.305  0.3598 -0.1462 -0.3860
  701MOL0     H94624  11.017   4.081   9.129 -1.7411  0.4518  3.2069
  701MOL0     H94625  11.120   4.147   8.893 -0.5977 -0.5936 -0.5129
  701MOL0     H94626  10.961   4.196   8.957 -0.4202 -1.9274 -3.6410
  701MOL0     H94627  10.971   4.405   8.842 -1.7918 -1.7806  1.6408
  701MOL0     H94628  10.968   4.263   8.732 -2.5472  0.0908  0.8557
  701MOL0     H94629  11.190   4.277   8.681  1.0835 -1.3204  3.1073
  701MOL0     H94630  11.223   4.402   8.806 -0.3349  1.2389  0.9980
  701MOL0     H94631  11.178   4.523   8.598  0.5618 -0.0542  0.9407
  701MOL0     H94632  11.036   4.552   8.696  1.3987  1.6667 -1.7528
  701MOL0     H94633  10.843   4.340   8.404 -0.7262  0.0355  1.8713
  701MOL0     H94634  11.291   4.395   9.201 -0.4328 -0.0905 -0.8553
  701MOL0     H94635  11.371   4.262   9.410  1.0715 -0.0975 -0.4217
  702MOL0     O94636   9.603   2.537   7.358 -0.0955  0.5913  0.4013
  702MOL0     C94637   9.566   2.484   7.248 -0.9343  0.7062  0.3165
  702MOL0     O94638   9.444   2.486   7.193  0.4063 -0.2468 -0.2950
  702MOL0     C94639   9.322   2.479   7.267 -0.0473  0.0153 -0.8936
  702MOL0     C94640   9.308   2.482   7.410  0.4442  0.1046 -0.0224
  702MOL0     C94641   9.188   2.477   7.471 -0.1536  0.2307 -0.4002
  702MOL0     C94642   9.070   2.480   7.399  0.1531 -1.1974  0.3975
  702MOL0     O94643   8.959   2.466   7.477  0.1068 -0.0628 -0.1299
  702MOL0     C94644   8.827   2.517   7.431  0.0844 -0.0220 -0.0384
  702MOL0     C94645   8.823   2.665   7.464  0.0443  0.1829 -0.4871
  702MOL0     C94646   8.874   2.704   7.605 -0.3282  0.2077  0.3023
  702MOL0     C94647   8.998   2.777   7.591  0.3402  0.0289 -0.4682
  702MOL0     C94648   9.040   2.822   7.731  0.4321  0.5010  0.0391
  702MOL0     C94649   9.187   2.874   7.765 -1.0958 -0.0815 -0.0723
  702MOL0     C94650   9.251   2.971   7.661 -0.0843  0.4151  0.0406
  702MOL0     C94651   9.189   3.112   7.677 -0.1610 -0.1999  0.2142
  702MOL0     N94652   9.098   3.136   7.566  0.3499 -0.9387 -0.3794
  702MOL0     C94653   8.957   3.142   7.577  0.2850 -0.1662  0.5467
  702MOL0     C94654   8.923   3.155   7.448 -0.2477 -0.1656 -0.0571
  702MOL0     C94655   8.784   3.182   7.392 -0.7882 -0.2017  0.9291
  702MOL0     C94656   8.684   3.064   7.412 -0.3043  0.6987  1.1121
  702MOL0     C94657   8.550   3.098   7.355 -0.4584  0.2897 -0.3639
  702MOL0     C94658   8.469   3.198   7.444 -0.0926  0.4446  0.8676
  702MOL0     O94659   8.448   3.139   7.575  0.8727  0.2992  0.3520
  702MOL0     C94660   8.352   3.189   7.649 -0.0483 -0.0041  0.1059
  702MOL0     C94661   8.289   3.105   7.741  0.1106 -0.1917 -0.6976
  702MOL0     C94662   8.184   3.149   7.824  0.1972  0.2926 -0.0177
  702MOL0     C94663   8.118   3.045   7.912 -0.4997  1.9782 -0.7301
  702MOL0     C94664   8.144   3.284   7.815  0.6398  0.1427  0.0728
  702MOL0     C94665   8.047   3.351   7.907  0.4360 -0.1308  0.6110
  702MOL0     O94666   7.975   3.274   7.994  0.6807  0.6199  0.9863
  702MOL0     C94667   7.886   3.325   8.081 -0.0724  0.0780  0.3024
  702MOL0     C94668   7.927   3.313   8.213  0.3832  1.0031 -0.8295
  702MOL0     C94669   7.858   3.363   8.332 -0.3382  0.1124  0.9424
  702MOL0     C94670   7.743   3.436   8.302  1.1389 -0.0224 -0.8371
  702MOL0     O94671   7.646   3.483   8.395  0.0310 -0.1353  0.8065
  702MOL0     C94672   7.662   3.451   8.536  0.5388  0.2582  0.6090
  702MOL0     C94673   7.552   3.507   8.612 -0.0624  0.2431 -0.3412
  702MOL0     C94674   7.478   3.392   8.684  0.2165  0.2372  0.5098
  702MOL0     C94675   7.364   3.332   8.600  0.3082 -0.3542 -0.6428
  702MOL0     C94676   7.261   3.258   8.677  1.0091  0.5109 -0.0882
  702MOL0     C94677   7.152   3.193   8.588  0.0288 -0.1489 -0.3267
  702MOL0     C94678   7.051   3.122   8.675  0.3260  0.1431  0.4523
  702MOL0     C94679   6.942   3.049   8.591 -0.1334 -0.5170 -0.6212
  702MOL0    Cl94680   6.861   3.181   8.501  0.0868  0.1290 -0.2598
  702MOL0     C94681   7.701   3.456   8.170 -0.2388  0.3368  1.1344
  702MOL0     C94682   7.776   3.401   8.061  0.8550 -0.6593 -0.1945
  702MOL0     O94683   8.033   3.470   7.901 -0.7834 -0.1675 -0.4599
  702MOL0     C94684   8.217   3.367   7.728  0.2661  0.2917  0.2326
  702MOL0     C94685   8.317   3.325   7.641 -1.0419 -0.3765  0.7976
  702MOL0     N94686   9.029   3.153   7.367  0.6901  0.5686 -0.1219
  702MOL0     N94687   9.136   3.143   7.439 -0.2153  0.1722 -0.6294
  702MOL0     C94688   9.071   2.479   7.261 -1.0302  0.2084  0.0248
  702MOL0     C94689   9.203   2.490   7.198 -0.0775  0.3084  0.2642
  702MOL0     C94690   9.685   2.425   7.164  0.4147 -0.1803 -0.6562
  702MOL0     C94691   9.819   2.436   7.205 -0.0680 -0.7646  0.4459
  702MOL0     C94692   9.919   2.370   7.129 -0.0806  0.7670  0.6779
  702MOL0     C94693   9.893   2.286   7.020 -0.2242  0.0650  0.4132
  702MOL0     O94694   9.988   2.229   6.932 -0.3463  0.2227  0.1558
  702MOL0     C94695  10.129   2.257   6.943 -0.7713  0.6908  0.0728
  702MOL0     C94696  10.189   2.371   6.860 -0.5756  0.4265 -0.3095
  702MOL0     C94697  10.339   2.403   6.891  1.0898 -0.0996  1.4171
  702MOL0     C94698  10.373   2.429   7.032 -0.3425 -0.2604 -0.8562
  702MOL0     C94699  10.276   2.533   7.082 -1.3028 -1.6155  0.2332
  702MOL0     C94700  10.191   2.599   7.127 -0.2085 -0.8561 -0.3487
  702MOL0     C94701   9.756   2.279   6.984 -0.7220  0.1368  0.3548
  702MOL0     C94702   9.659   2.356   7.046  0.7432 -0.5645  0.5396
  702MOL0     H94703   9.393   2.466   7.474 -0.8841  1.1336  2.1096
  702MOL0     H94704   9.183   2.503   7.577  0.9044  3.3872 -1.0136
  702MOL0     H94705   8.816   2.509   7.323  1.5130  1.5456 -0.3462
  702MOL0     H94706   8.748   2.472   7.492 -2.6344  3.2746 -0.8613
  702MOL0     H94707   8.889   2.708   7.388  1.9329  1.4421  1.7408
  702MOL0     H94708   8.723   2.711   7.458  0.7507  2.1136  1.2231
  702MOL0     H94709   8.797   2.773   7.641 -2.2019 -0.1723 -2.6240
  702MOL0     H94710   8.893   2.621   7.674  2.2873  2.0354  1.9556
  702MOL0     H94711   9.075   2.711   7.549 -1.6796 -4.5346  2.1505
  702MOL0     H94712   8.980   2.861   7.524  1.8651 -2.0083 -3.6643
  702MOL0     H94713   8.983   2.914   7.748  0.6854  0.2696  2.5360
  702MOL0     H94714   9.013   2.741   7.800  1.0506  0.7256  0.5594
  702MOL0     H94715   9.187   2.920   7.864 -3.5531  0.5653 -0.3003
  702MOL0     H94716   9.249   2.784   7.766  0.8869  1.2001 -0.8762
  702MOL0     H94717   9.358   2.975   7.681 -0.3548 -3.3131  3.4997
  702MOL0     H94718   9.235   2.929   7.561 -1.5834 -0.1380  0.4823
  702MOL0     H94719   9.255   3.199   7.680  0.1808 -0.3179 -2.3517
  702MOL0     H94720   9.135   3.124   7.772 -0.2158  2.7594 -0.0853
  702MOL0     H94721   8.897   3.158   7.666 -1.7175  0.4807 -0.8562
  702MOL0     H94722   8.750   3.267   7.451  1.0913  1.1687  0.1059
  702MOL0     H94723   8.775   3.230   7.295 -1.1974  0.8039  1.4531
  702MOL0     H94724   8.680   3.038   7.518  1.0138  1.0762  1.2763
  702MOL0     H94725   8.724   2.976   7.362 -0.4729  1.4538 -0.3973
  702MOL0     H94726   8.491   3.007   7.352  0.6716 -0.5717  1.4358
  702MOL0     H94727   8.562   3.134   7.252 -2.1793 -0.4649 -0.8623
  702MOL0     H94728   8.375   3.216   7.390  1.6749 -0.8059 -3.0343
  702MOL0     H94729   8.533   3.286   7.460  0.8535  0.2474 -1.4805
  702MOL0     H94730   8.306   2.998   7.753  1.9611 -0.1638 -2.4943
  702MOL0     H94731   8.012   3.058   7.892 -0.9164 -2.1747 -2.3689
  702MOL0     H94732   8.142   2.939   7.896 -0.3591  1.7989  0.5931
  702MOL0     H94733   8.137   3.064   8.018 -0.3428  0.9326 -0.5530
  702MOL0     H94734   8.024   3.264   8.221 -0.4396 -0.3935  2.2825
  702MOL0     H94735   7.895   3.343   8.432 -3.6838  2.7282  2.9149
  702MOL0     H94736   7.687   3.345   8.544 -1.2497 -0.2638 -0.2169
  702MOL0     H94737   7.754   3.499   8.572  0.2541  0.3426  1.2400
  702MOL0     H94738   7.599   3.572   8.687  0.3491  0.2652 -0.6174
  702MOL0     H94739   7.491   3.573   8.551 -1.2943 -0.3100  0.2592
  702MOL0     H94740   7.450   3.433   8.782  1.7332  5.8112 -0.9762
  702MOL0     H94741   7.554   3.317   8.704 -0.4449 -0.2993  1.0495
  702MOL0     H94742   7.314   3.421   8.560  2.9730  3.2394  3.2014
  702MOL0     H94743   7.413   3.288   8.513  0.7866  0.9858 -1.0859
  702MOL0     H94744   7.207   3.313   8.754  1.1125 -0.2487  0.5475
  702MOL0     H94745   7.304   3.184   8.745 -1.2254  0.6039  1.5342
  702MOL0     H94746   7.101   3.264   8.522  2.9939 -0.9393 -3.8797
  702MOL0     H94747   7.201   3.131   8.513 -1.4745  0.0668 -1.5401
  702MOL0     H94748   7.010   3.197   8.743  0.2537  1.2231 -0.7404
  702MOL0     H94749   7.108   3.048   8.731  3.0795  3.0008  1.6822
  702MOL0     H94750   6.860   3.004   8.647 -0.3332  1.8777  1.1735
  702MOL0     H94751   6.986   2.974   8.525 -1.8516 -0.7995 -1.5065
  702MOL0     H94752   7.612   3.511   8.141  1.6661  2.4453 -1.2711
  702MOL0     H94753   7.747   3.424   7.959  3.5170 -1.5707 -1.2318
  702MOL0     H94754   8.202   3.474   7.722  2.2767  0.5561 -1.6374
  702MOL0     H94755   8.367   3.389   7.569 -1.5463 -2.2293 -1.3055
  702MOL0     H94756   8.977   2.498   7.210 -0.9966  0.7350  0.1489
  702MOL0     H94757   9.209   2.510   7.091 -1.2954  1.3316  0.3669
  702MOL0     H94758   9.849   2.505   7.283  2.2335  0.1700 -1.1726
  702MOL0     H94759  10.023   2.389   7.151 -0.0196  1.5188 -0.2143
  702MOL0     H94760  10.155   2.267   7.049 -1.1695  2.4456  0.0397
  702MOL0     H94761  10.179   2.168   6.904 -0.9638 -0.2028  1.7705
  702MOL0     H94762  10.136   2.462   6.889  1.4463  1.3190  0.8170
  702MOL0     H94763  10.166   2.365   6.753 -0.8557 -0.1918 -0.2232
  702MOL0     H94764  10.377   2.488   6.834  0.1829 -1.4864 -1.4282
  702MOL0     H94765  10.399   2.319   6.857 -1.9963 -2.5420  1.5634
  702MOL0     H94766  10.479   2.457   7.032 -0.9119  2.5972 -3.8147
  702MOL0     H94767  10.367   2.341   7.096 -0.1586  1.4277  1.6578
  702MOL0     H94768  10.106   2.632   7.183 -0.3619 -3.6331  1.2239
  702MOL0     H94769   9.727   2.231   6.891 -1.2244 -0.7904  0.9654
  702MOL0     H94770   9.559   2.340   7.006  2.4706 -3.9483 -3.0752
  703MOL0     O94771   1.279   3.778   9.078  0.3621 -0.3677 -0.5928
  703MOL0     C94772   1.269   3.898   9.065 -0.1435 -0.2564 -0.9367
  703MOL0     O94773   1.339   3.984   9.145  0.3660  0.2641 -0.6543
  703MOL0     C94774   1.426   3.943   9.247  0.3415  0.2628 -0.0906
  703MOL0     C94775   1.438   4.017   9.365  0.3600  0.4539  0.2896
  703MOL0     C94776   1.534   3.963   9.459  0.2645  0.0099 -0.3900
  703MOL0     C94777   1.624   3.859   9.434  0.0730 -0.8703 -0.3908
  703MOL0     O94778   1.701   3.830   9.543 -0.1490 -0.1477 -0.1431
  703MOL0     C94779   1.802   3.728   9.520  0.3412  0.2833 -0.2443
  703MOL0     C94780   1.908   3.707   9.627  0.5715 -0.3343  1.0778
  703MOL0     C94781   1.872   3.759   9.772  0.0978  0.0112 -0.5383
  703MOL0     C94782   1.781   3.657   9.844  1.0465  0.2610 -1.1320
  703MOL0     C94783   1.766   3.685   9.996  0.4451 -0.2602  0.3104
  703MOL0     C94784   1.889   3.666  10.081 -0.0297  0.0982 -0.0389
  703MOL0     C94785   1.875   3.694  10.227  0.5753 -0.8665 -0.7270
  703MOL0     C94786   1.834   3.842  10.263 -0.4287 -0.1158 -0.4967
  703MOL0     N94787   1.948   3.939  10.248  0.1467  0.5517  0.1223
  703MOL0     C94788   1.922   4.070  10.225  0.7868 -0.6554  0.1147
  703MOL0     C94789   2.041   4.131  10.227 -0.2458 -0.3403 -0.8118
  703MOL0     C94790   2.079   4.280  10.203  0.0069 -0.3159  0.7834
  703MOL0     C94791   1.994   4.375  10.291  0.4319  0.2874 -0.0551
  703MOL0     C94792   1.990   4.360  10.445  0.0174 -0.3322  0.1002
  703MOL0     C94793   2.123   4.339  10.515 -0.7180  0.2138  1.4471
  703MOL0     O94794   2.211   4.447  10.485 -0.5004 -1.3492  0.1455
  703MOL0     C94795   2.211   4.567  10.563  0.3438  0.6796 -1.0610
  703MOL0     C94796   2.155   4.691  10.522 -0.4371  0.8340  1.1055
  703MOL0     C94797   2.137   4.798  10.613 -0.8483 -0.0104  0.1801
  703MOL0     C94798   2.086   4.935  10.562  0.4547  1.5526  0.4539
  703MOL0     C94799   2.174   4.775  10.750  0.2314  0.5528 -1.2688
  703MOL0     C94800   2.150   4.877  10.861  0.5449 -0.5296  0.6696
  703MOL0     O94801   2.214   4.853  10.977  0.2678  0.2547 -0.1918
  703MOL0     C94802   2.205   4.928  11.095  0.3531 -0.2003 -0.5325
  703MOL0     C94803   2.175   5.067  11.104  0.1764  1.0984  0.4211
  703MOL0     C94804   2.142   5.131  11.220 -0.1137  0.0508  0.2872
  703MOL0     C94805   2.132   5.051  11.340 -1.0434  0.4076 -0.0230
  703MOL0     O94806   2.116   5.107  11.470 -0.4510 -0.9768  0.4761
  703MOL0     C94807   2.006   5.194  11.492  0.1391  0.1197 -0.3743
  703MOL0     C94808   2.033   5.327  11.578  0.0778  0.6731  0.1552
  703MOL0     C94809   2.029   5.291  11.726 -0.2758  0.4573  0.5146
  703MOL0     C94810   2.020   5.414  11.808  0.1237  0.2370 -0.0653
  703MOL0     C94811   2.019   5.365  11.955  0.8393 -0.0644  0.6462
  703MOL0     C94812   1.951   5.467  12.058  0.0173  0.5662 -0.3471
  703MOL0     C94813   2.007   5.607  12.043  0.1635  0.5252  0.0827
  703MOL0     C94814   2.006   5.677  12.180  0.1630  0.3218  0.1419
  703MOL0    Cl94815   2.050   5.848  12.161 -0.1501 -0.0389 -0.3660
  703MOL0     C94816   2.174   4.920  11.337  0.0503 -0.0542 -0.0902
  703MOL0     C94817   2.212   4.858  11.216 -0.3815 -0.2634 -0.2592
  703MOL0     O94818   2.058   4.959  10.851  0.3368  0.6199  0.5807
  703MOL0     C94819   2.233   4.652  10.790  0.7350 -0.7146 -0.0510
  703MOL0     C94820   2.248   4.549  10.701 -0.3245 -1.4865  0.4957
  703MOL0     N94821   2.136   4.037  10.254  0.0665 -0.2581  0.1205
  703MOL0     N94822   2.087   3.920  10.272  0.3340 -0.1305 -0.6123
  703MOL0     C94823   1.612   3.802   9.309 -0.3925  0.0989 -0.3428
  703MOL0     C94824   1.512   3.835   9.217 -0.4832  0.8912 -0.7795
  703MOL0     C94825   1.185   3.953   8.959 -0.0028  0.4435  0.2423
  703MOL0     C94826   1.192   4.079   8.907 -0.0809 -0.0949 -0.5348
  703MOL0     C94827   1.109   4.121   8.803 -0.2684  0.3466  0.1513
  703MOL0     C94828   1.015   4.034   8.744  0.9535  0.0364 -0.2533
  703MOL0     O94829   0.939   4.071   8.634 -0.2757 -0.5383  0.6886
  703MOL0     C94830   1.022   4.130   8.529 -0.3001  0.2276 -0.7020
  703MOL0     C94831   0.923   4.129   8.407 -0.8016 -0.3562  0.2385
  703MOL0     C94832   0.988   4.223   8.302 -0.1199  1.0392 -0.4072
  703MOL0     C94833   0.983   4.165   8.165  0.5495 -0.4846  0.1331
  703MOL0     C94834   1.073   4.233   8.070 -0.1064 -0.1241 -0.7657
  703MOL0     C94835   1.147   4.289   7.991 -0.8002  0.0830  0.4044
  703MOL0     C94836   1.004   3.908   8.804 -0.8660  0.2712 -1.0451
  703MOL0     C94837   1.092   3.867   8.901 -0.3548  0.2468  0.2059
  703MOL0     H94838   1.369   4.096   9.392  0.4301  0.8740 -0.7026
  703MOL0     H94839   1.532   4.021   9.550 -0.1674 -0.8397  0.1505
  703MOL0     H94840   1.742   3.640   9.494  1.7384 -0.4273 -1.1257
  703MOL0     H94841   1.849   3.760   9.427 -0.4328  2.6032  0.1046
  703MOL0     H94842   1.947   3.605   9.615  2.7879  0.6931 -1.3667
  703MOL0     H94843   1.988   3.770   9.588  0.4829 -1.4529 -1.0804
  703MOL0     H94844   1.965   3.764   9.829 -0.6313 -3.8412  1.2733
  703MOL0     H94845   1.834   3.861   9.776  1.4735  0.4942  1.6897
  703MOL0     H94846   1.694   3.638   9.781  1.7036  1.2493 -2.3847
  703MOL0     H94847   1.830   3.559   9.849 -1.2278 -0.9529 -1.4012
  703MOL0     H94848   1.717   3.781  10.015  3.5657  1.2349  1.3993
  703MOL0     H94849   1.698   3.612  10.040  1.6172 -2.3259 -1.1145
  703MOL0     H94850   1.921   3.562  10.072 -1.0298 -0.3112  0.8235
  703MOL0     H94851   1.973   3.726  10.045  2.4556 -1.4948  2.6917
  703MOL0     H94852   1.798   3.627  10.267  0.0002 -0.3390 -0.9312
  703MOL0     H94853   1.975   3.678  10.266  0.9915 -0.1144 -1.4448
  703MOL0     H94854   1.801   3.833  10.368 -0.1209 -1.3319 -0.4921
  703MOL0     H94855   1.748   3.880  10.206 -0.8960 -0.7205 -0.2114
  703MOL0     H94856   1.824   4.116  10.217  0.3916 -0.6488  3.5643
  703MOL0     H94857   2.184   4.303  10.222  0.7662  0.7191 -3.5383
  703MOL0     H94858   2.059   4.294  10.096 -0.3139  0.0500  0.8891
  703MOL0     H94859   1.887   4.377  10.266  1.2445  1.7880 -4.2455
  703MOL0     H94860   2.035   4.474  10.266 -0.4546 -0.1084 -3.7320
  703MOL0     H94861   1.932   4.272  10.476 -2.0866  0.1057 -2.2316
  703MOL0     H94862   1.947   4.449  10.490  2.6042  1.1029 -0.0939
  703MOL0     H94863   2.173   4.250  10.473  2.2323  1.7895  1.3310
  703MOL0     H94864   2.108   4.332  10.623  1.4279  0.1299  1.7814
  703MOL0     H94865   2.135   4.708  10.417 -0.7354 -1.6257  0.7185
  703MOL0     H94866   2.042   4.940  10.462 -2.5690  3.4777  1.7372
  703MOL0     H94867   2.009   4.983  10.622 -2.8894 -2.4104 -0.1583
  703MOL0     H94868   2.171   5.003  10.557  2.6129 -0.9187  0.9321
  703MOL0     H94869   2.159   5.115  11.008  0.8501 -0.0879 -0.3160
  703MOL0     H94870   2.108   5.234  11.211  1.8156  0.6625 -0.5692
  703MOL0     H94871   1.960   5.232  11.400 -2.3504  5.0686  2.4954
  703MOL0     H94872   1.922   5.135  11.530  0.3963  1.0710  1.7601
  703MOL0     H94873   2.125   5.377  11.546 -1.3539  0.6955 -4.6507
  703MOL0     H94874   1.946   5.388  11.554 -0.0739  0.2918 -0.2845
  703MOL0     H94875   2.113   5.228  11.757 -0.4140  0.5440  1.0776
  703MOL0     H94876   1.941   5.227  11.744  0.1474 -0.4160 -0.4296
  703MOL0     H94877   2.100   5.488  11.791 -0.5467  0.5281 -2.2452
  703MOL0     H94878   1.927   5.465  11.781 -0.9542 -1.3169  0.5858
  703MOL0     H94879   2.113   5.328  11.998  0.4156  1.9259  3.5308
  703MOL0     H94880   1.952   5.281  11.974 -0.0416  0.6557  0.7972
  703MOL0     H94881   1.843   5.470  12.041 -0.2730  0.5234  1.2729
  703MOL0     H94882   1.969   5.429  12.159  0.2876 -0.6008 -0.8172
  703MOL0     H94883   1.947   5.663  11.970  0.6356  2.3322  1.0015
  703MOL0     H94884   2.110   5.611  12.005  1.2779  4.6233  2.8415
  703MOL0     H94885   2.092   5.638  12.237  0.5041 -0.2661 -0.7497
  703MOL0     H94886   1.912   5.671  12.235  0.5899 -0.4375  0.8159
  703MOL0     H94887   2.192   4.869  11.432  0.5623  0.1772 -0.0648
  703MOL0     H94888   2.234   4.752  11.213  0.6873 -0.1115  1.1670
  703MOL0     H94889   2.258   4.640  10.895  0.5880  0.3624  0.1131
  703MOL0     H94890   2.301   4.455  10.714 -0.0723 -1.3801  0.2556
  703MOL0     H94891   1.689   3.733   9.277 -0.9578 -0.2029 -1.0893
  703MOL0     H94892   1.504   3.787   9.120  0.8034 -0.9036 -0.0539
  703MOL0     H94893   1.263   4.153   8.942  0.2404 -0.1572 -1.0387
  703MOL0     H94894   1.140   4.215   8.759  1.4893  0.3714  1.3276
  703MOL0     H94895   1.060   4.230   8.553  0.5528 -0.7919  2.8121
  703MOL0     H94896   1.104   4.068   8.493  0.8108  2.8916 -3.1312
  703MOL0     H94897   0.835   4.180   8.448 -2.0001 -1.4115 -0.9195
  703MOL0     H94898   0.913   4.027   8.370  2.1966 -0.4333 -0.6263
  703MOL0     H94899   1.093   4.218   8.331 -0.0211 -0.7226 -0.9689
  703MOL0     H94900   0.950   4.325   8.288  2.6145  1.8621 -2.8078
  703MOL0     H94901   0.884   4.173   8.120 -0.0467  1.5649  1.6386
  703MOL0     H94902   0.996   4.057   8.169  1.8903 -0.3204  0.6733
  703MOL0     H94903   1.204   4.346   7.920  0.7336  0.7189  2.0867
  703MOL0     H94904   0.922   3.842   8.781 -2.6368  1.7876  0.5916
  703MOL0     H94905   1.087   3.767   8.941  0.6046  0.9209  2.1230
  704MOL0     O94906  10.681   1.534   4.069 -0.8258  0.4439 -0.4249
  704MOL0     C94907  10.696   1.413   4.087  0.1891 -0.1466  0.2883
  704MOL0     O94908  10.606   1.336   4.149 -0.4994  0.0730 -0.0185
  704MOL0     C94909  10.498   1.407   4.210 -0.1335  0.3730  0.2299
  704MOL0     C94910  10.526   1.468   4.330  0.0544  0.0864  0.6001
  704MOL0     C94911  10.430   1.531   4.403 -0.4644 -1.2801 -0.1306
  704MOL0     C94912  10.293   1.530   4.370  0.6520  0.6997  1.0673
  704MOL0     O94913  10.189   1.586   4.438 -0.0704  0.6856 -0.4262
  704MOL0     C94914  10.217   1.666   4.550 -0.8330 -0.2875  0.4270
  704MOL0     C94915  10.237   1.808   4.505  1.1103 -0.7634 -1.1587
  704MOL0     C94916  10.232   1.918   4.617 -0.5324 -0.2140  0.2259
  704MOL0     C94917  10.295   2.044   4.565  0.5219  0.1721  0.0082
  704MOL0     C94918  10.306   2.134   4.686 -0.2333 -0.3885 -0.3943
  704MOL0     C94919  10.420   2.232   4.661  0.0103  0.2664  1.1974
  704MOL0     C94920  10.560   2.167   4.684  0.8139  0.1179  0.0124
  704MOL0     C94921  10.585   2.164   4.832  0.6266  0.3366 -0.1089
  704MOL0     N94922  10.591   2.299   4.888 -0.2827  0.0294  0.4865
  704MOL0     C94923  10.669   2.404   4.831 -0.4691  0.4725 -0.3977
  704MOL0     C94924  10.617   2.517   4.877 -0.4241 -0.6227  0.3320
  704MOL0     C94925  10.641   2.655   4.812 -0.3361  0.2295  0.2803
  704MOL0     C94926  10.779   2.669   4.753 -0.3841  0.5713 -0.6020
  704MOL0     C94927  10.890   2.671   4.855  0.2818  0.7989  0.0757
  704MOL0     C94928  10.886   2.786   4.956  0.7102  0.3713 -0.1347
  704MOL0     O94929  10.897   2.920   4.899 -0.0004  0.5793 -0.9091
  704MOL0     C94930  11.009   2.958   4.831 -0.8383 -0.1431 -0.2378
  704MOL0     C94931  11.004   3.078   4.760 -0.3116 -0.8773 -0.4079
  704MOL0     C94932  11.111   3.132   4.702 -0.6880  0.2791  0.4115
  704MOL0     C94933  11.094   3.269   4.631 -0.1165  0.2873  0.3060
  704MOL0     C94934  11.244   3.070   4.711 -0.4801 -0.2126 -0.1037
  704MOL0     C94935  11.374   3.122   4.640  0.2803 -0.2864 -0.2839
  704MOL0     O94936  11.492   3.151   4.706  0.4107  0.4751 -1.6693
  704MOL0     C94937  11.491   3.162   4.850  0.3646 -0.4886  0.7936
  704MOL0     C94938  11.551   3.059   4.935  0.1053 -0.1653 -0.4943
  704MOL0     C94939  11.574   3.086   5.073 -1.0685  0.7029 -0.6902
  704MOL0     C94940  11.526   3.205   5.130 -0.1941 -0.8689  0.5687
  704MOL0     O94941  11.536   3.237   5.267 -0.2197 -0.1665  0.2808
  704MOL0     C94942  11.640   3.177   5.347 -0.3706  0.4198 -0.0921
  704MOL0     C94943  11.677   3.269   5.465 -1.0595  0.2116 -0.7599
  704MOL0     C94944  11.596   3.276   5.596 -0.5419  0.2783 -0.1561
  704MOL0     C94945  11.457   3.338   5.566 -0.3869  0.5423 -0.3946
  704MOL0     C94946  11.352   3.340   5.689  0.2642  0.1499  0.3550
  704MOL0     C94947  11.244   3.453   5.682  0.3492  0.6161 -0.1872
  704MOL0     C94948  11.141   3.425   5.795  0.2258  0.0110 -0.4462
  704MOL0     C94949  11.037   3.539   5.807 -0.5328 -0.1448 -0.0370
  704MOL0    Cl94950  10.908   3.482   5.906 -0.4799 -0.6505  0.2716
  704MOL0     C94951  11.462   3.303   5.048  0.5004 -0.5749  0.0324
  704MOL0     C94952  11.433   3.274   4.912 -0.1681  0.2705  0.8430
  704MOL0     O94953  11.365   3.137   4.521 -0.3397 -0.2105  1.1948
  704MOL0     C94954  11.248   2.953   4.779 -1.4997  0.8110 -0.7487
  704MOL0     C94955  11.134   2.903   4.846  0.8341  0.2594  0.4211
  704MOL0     N94956  10.510   2.478   4.964  0.2494 -0.3752 -0.6166
  704MOL0     N94957  10.503   2.353   4.973 -0.8034  0.4341  0.1727
  704MOL0     C94958  10.266   1.449   4.259 -0.3871 -0.1334  0.0803
  704MOL0     C94959  10.370   1.391   4.174  0.9661  0.4629 -0.1967
  704MOL0     C94960  10.835   1.360   4.068  0.4919  0.6527  0.4612
  704MOL0     C94961  10.869   1.221   4.063  0.3452 -0.2309 -0.0969
  704MOL0     C94962  10.992   1.180   4.054 -0.6143  0.4234 -0.1423
  704MOL0     C94963  11.094   1.270   4.053  0.0286  0.0826 -0.0808
  704MOL0     O94964  11.220   1.223   4.085  0.6457 -0.2577 -0.1032
  704MOL0     C94965  11.316   1.312   4.128 -0.5881  0.1194  0.4704
  704MOL0     C94966  11.447   1.246   4.141  0.0468  0.6970 -1.1957
  704MOL0     C94967  11.432   1.143   4.259 -0.2149 -0.2203 -0.8306
  704MOL0     C94968  11.558   1.125   4.338 -0.1865 -0.7224  0.1095
  704MOL0     C94969  11.655   1.065   4.249 -1.1462 -0.8559 -0.0428
  704MOL0     C94970  11.719   1.001   4.169 -0.7347 -0.3571 -0.7294
  704MOL0     C94971  11.065   1.404   4.039  0.2117 -0.8625  0.1780
  704MOL0     C94972  10.932   1.446   4.054  0.2571 -0.0578 -0.1719
  704MOL0     H94973  10.628   1.468   4.367 -0.0744 -0.2408  0.9670
  704MOL0     H94974  10.472   1.581   4.490  2.2719 -2.7136 -0.5052
  704MOL0     H94975  10.137   1.665   4.625  0.2044  0.1102  1.5816
  704MOL0     H94976  10.299   1.623   4.609 -1.9103 -1.1866  1.3317
  704MOL0     H94977  10.332   1.808   4.450  1.5385 -1.0858 -0.4392
  704MOL0     H94978  10.168   1.827   4.423 -2.5763 -2.5580  1.2650
  704MOL0     H94979  10.127   1.942   4.632 -0.9179 -1.0588 -0.9998
  704MOL0     H94980  10.256   1.877   4.716 -0.0312 -1.5568 -0.4294
  704MOL0     H94981  10.395   2.010   4.536 -0.0357 -0.8379 -0.8016
  704MOL0     H94982  10.242   2.102   4.489  3.4559  0.9475 -1.6269
  704MOL0     H94983  10.220   2.195   4.712  0.9659  0.6339  1.4174
  704MOL0     H94984  10.328   2.070   4.773  0.0716  1.4274  0.9081
  704MOL0     H94985  10.421   2.280   4.563 -4.0049 -0.5998  0.5799
  704MOL0     H94986  10.412   2.321   4.723  2.8824  1.0000  0.6747
  704MOL0     H94987  10.568   2.065   4.644 -3.5461  0.6267 -2.9244
  704MOL0     H94988  10.629   2.230   4.628  1.1043 -1.1218 -1.0872
  704MOL0     H94989  10.686   2.128   4.853  1.0717  2.0694  0.9374
  704MOL0     H94990  10.507   2.099   4.874 -0.5367  0.7978 -1.4698
  704MOL0     H94991  10.756   2.395   4.767 -0.3142  0.3860 -0.1739
  704MOL0     H94992  10.562   2.672   4.738 -0.0070 -0.2685 -0.1964
  704MOL0     H94993  10.615   2.741   4.874  3.1851  1.3982  0.3333
  704MOL0     H94994  10.778   2.761   4.693 -3.4315  0.9687 -0.0772
  704MOL0     H94995  10.801   2.592   4.679  0.6711  3.3885 -3.4354
  704MOL0     H94996  10.976   2.669   4.788 -2.4963 -2.1610 -3.8968
  704MOL0     H94997  10.873   2.578   4.909 -1.5902  1.0076 -0.0910
  704MOL0     H94998  10.970   2.777   5.024  0.5485  0.7896  0.1273
  704MOL0     H94999  10.792   2.774   5.010  0.7260  0.5833 -0.0574
  704MOL0     H95000  10.909   3.125   4.736 -0.9228 -3.4274 -3.8538
  704MOL0     H95001  11.120   3.347   4.704  1.4579 -1.1068  1.3252
  704MOL0     H95002  11.142   3.278   4.533  2.7246 -0.2182  1.5303
  704MOL0     H95003  10.987   3.271   4.611 -0.1283  0.8102  0.4076
  704MOL0     H95004  11.579   2.962   4.895  0.4345 -0.9614  1.5391
  704MOL0     H95005  11.611   3.000   5.128 -2.2389 -0.0707 -1.0982
  704MOL0     H95006  11.626   3.075   5.384  0.9595 -0.2646 -1.3508
  704MOL0     H95007  11.731   3.172   5.286 -0.3529  0.2840 -0.0542
  704MOL0     H95008  11.780   3.247   5.495 -0.5730  0.0559 -2.4614
  704MOL0     H95009  11.686   3.372   5.429  0.3091  0.1848 -0.5429
  704MOL0     H95010  11.640   3.325   5.684 -1.7319 -0.6718  0.9976
  704MOL0     H95011  11.573   3.173   5.623 -3.0649  0.5247 -1.0670
  704MOL0     H95012  11.464   3.443   5.538  0.9025  1.4146  2.8285
  704MOL0     H95013  11.414   3.284   5.480 -0.9153 -0.9604  0.7596
  704MOL0     H95014  11.413   3.358   5.778 -1.5575  2.7231  1.1771
  704MOL0     H95015  11.304   3.243   5.698  3.2005 -1.3005  1.9507
  704MOL0     H95016  11.286   3.553   5.697  1.6600 -0.0449  0.8350
  704MOL0     H95017  11.188   3.445   5.589 -2.8723 -3.6921  1.7881
  704MOL0     H95018  11.186   3.422   5.894 -0.4068 -0.2002 -0.1600
  704MOL0     H95019  11.098   3.326   5.775  0.2994 -0.1548  0.2140
  704MOL0     H95020  10.989   3.554   5.710 -1.0233  2.5430  0.5475
  704MOL0     H95021  11.084   3.630   5.847 -2.4934  0.5321  0.8403
  704MOL0     H95022  11.421   3.390   5.099  1.5657 -1.8900  3.4249
  704MOL0     H95023  11.376   3.342   4.849  0.5088  0.8527  0.8355
  704MOL0     H95024  11.341   2.898   4.783 -1.7506  0.3016 -1.5606
  704MOL0     H95025  11.154   2.818   4.910  0.6685 -0.6743 -0.7219
  704MOL0     H95026  10.160   1.453   4.235  0.1596  1.6609 -2.3649
  704MOL0     H95027  10.351   1.333   4.084 -1.4195  0.3558  0.3176
  704MOL0     H95028  10.789   1.150   4.085  0.5658  0.5654  4.2852
  704MOL0     H95029  11.009   1.076   4.080 -1.1557  0.6947  1.3914
  704MOL0     H95030  11.333   1.391   4.055  0.3150 -0.7763 -0.3282
  704MOL0     H95031  11.295   1.362   4.222  1.1658 -1.2907  1.6948
  704MOL0     H95032  11.506   1.333   4.173 -2.5045  1.7412  1.0581
  704MOL0     H95033  11.481   1.196   4.050 -2.3765 -1.2416 -1.1221
  704MOL0     H95034  11.395   1.042   4.238  1.6198 -0.3719 -3.9981
  704MOL0     H95035  11.363   1.186   4.332 -0.7569  0.8862 -1.9836
  704MOL0     H95036  11.550   1.076   4.436 -0.9082  0.3731  0.6222
  704MOL0     H95037  11.590   1.226   4.364  1.9177 -0.6997 -2.1877
  704MOL0     H95038  11.774   0.938   4.102  0.9469  0.6405 -0.3521
  704MOL0     H95039  11.136   1.486   4.041 -0.3304 -0.3750  2.0826
  704MOL0     H95040  10.909   1.553   4.053 -0.0237 -0.0668  1.5824
  705MOL0     O95041  10.964  10.116   4.188 -0.1497 -0.0958  0.5477
  705MOL0     C95042  10.952  10.201   4.099  0.7270  0.9388  0.1567
  705MOL0     O95043  10.858  10.189   4.005  0.2908  0.0671 -0.5279
  705MOL0     C95044  10.754  10.097   4.023  0.3070 -0.8595 -0.0450
  705MOL0     C95045  10.761   9.965   4.063  0.2268 -0.2269 -0.8020
  705MOL0     C95046  10.654   9.877   4.051 -0.7709 -0.0521  0.1933
  705MOL0     C95047  10.523   9.935   4.035  0.2572  0.1152  0.2653
  705MOL0     O95048  10.408   9.856   4.058 -0.1636  0.2037  0.3728
  705MOL0     C95049  10.275   9.907   4.049  0.3071 -0.3843  0.4315
  705MOL0     C95050  10.222   9.904   3.900  0.7524 -0.2814 -0.2810
  705MOL0     C95051  10.075   9.903   3.883  0.0717 -0.1165  0.4319
  705MOL0     C95052  10.030  10.040   3.807 -0.7110 -0.0859 -0.9470
  705MOL0     C95053  10.065  10.050   3.657 -0.0325 -0.6081 -0.2044
  705MOL0     C95054   9.995  10.165   3.575  0.0166 -0.1736 -0.4062
  705MOL0     C95055  10.081  10.285   3.591  0.3911 -0.3663  0.0452
  705MOL0     C95056  10.011  10.400   3.530  0.4723  0.5137  0.7906
  705MOL0     N95057  10.002  10.378   3.383 -0.0836  0.2919  0.0281
  705MOL0     C95058   9.886  10.383   3.303  0.1893  0.5056  0.8076
  705MOL0     C95059   9.924  10.333   3.189  0.1676 -0.2094  0.3423
  705MOL0     C95060   9.830  10.290   3.074 -0.1544 -0.6918 -0.4248
  705MOL0     C95061   9.836  10.396   2.968  0.5659 -0.6804 -0.3894
  705MOL0     C95062   9.945  10.363   2.866 -0.4508 -0.2134  0.2048
  705MOL0     C95063   9.944  10.457   2.747  0.4776 -0.9616  1.1326
  705MOL0     O95064   9.834  10.440   2.652 -0.2616  0.0732  0.7164
  705MOL0     C95065   9.749  10.549   2.617 -0.3402  0.0701 -0.6651
  705MOL0     C95066   9.700  10.558   2.484  0.6111 -0.2176  0.3616
  705MOL0     C95067   9.636  10.677   2.433 -0.2349  0.1731  0.2260
  705MOL0     C95068   9.598  10.687   2.289 -0.5273  0.1399  0.6652
  705MOL0     C95069   9.610  10.778   2.532 -0.1482  0.1322  0.5910
  705MOL0     C95070   9.515  10.896   2.505 -0.6954  0.6459 -0.0308
  705MOL0     O95071   9.385  10.863   2.491 -0.2058 -0.3279  0.5589
  705MOL0     C95072   9.282  10.956   2.513 -0.4877  0.0160 -0.1995
  705MOL0     C95073   9.286  11.099   2.526 -0.4613  1.2888  0.9654
  705MOL0     C95074   9.178  11.172   2.570 -0.6000 -0.1047  0.4151
  705MOL0     C95075   9.058  11.111   2.618 -0.9870 -0.7144  1.0369
  705MOL0     O95076   8.950  11.191   2.651  0.3012  0.5065  0.0678
  705MOL0     C95077   8.974  11.331   2.695  0.6029 -0.0947 -0.3148
  705MOL0     C95078   8.936  11.346   2.837  0.6124 -0.0891  0.4273
  705MOL0     C95079   9.049  11.271   2.917  0.3532  0.1941 -0.2354
  705MOL0     C95080   9.035  11.283   3.074 -0.4447  0.1112  0.1897
  705MOL0     C95081   8.933  11.182   3.124 -0.0989 -0.0825 -0.3439
  705MOL0     C95082   8.948  11.043   3.070  0.8731 -0.6839 -0.5298
  705MOL0     C95083   8.878  10.924   3.147  0.2982  0.1620  0.7283
  705MOL0     C95084   8.729  10.946   3.158 -0.8872  1.1000 -0.1289
  705MOL0    Cl95085   8.654  10.784   3.179  0.2953  0.0714 -0.2120
  705MOL0     C95086   9.050  10.976   2.593 -0.2997 -0.8254  0.5503
  705MOL0     C95087   9.155  10.900   2.539 -0.3311  0.1487  0.5875
  705MOL0     O95088   9.567  11.007   2.512  0.4968  0.2078  0.5350
  705MOL0     C95089   9.660  10.764   2.665  0.0957  0.5619 -0.2577
  705MOL0     C95090   9.721  10.646   2.703  1.0209 -0.5166 -0.0408
  705MOL0     N95091  10.061  10.326   3.186  1.0032  0.2154 -0.1057
  705MOL0     N95092  10.108  10.358   3.295 -0.4898 -0.3270 -0.0163
  705MOL0     C95093  10.508  10.073   4.015 -0.2620 -0.4520  0.2780
  705MOL0     C95094  10.630  10.153   4.005  1.2233  0.2535  0.5162
  705MOL0     C95095  11.066  10.287   4.067 -0.1932 -0.7414 -0.1253
  705MOL0     C95096  11.182  10.280   4.135 -0.0640 -0.3374 -0.1803
  705MOL0     C95097  11.285  10.382   4.119 -0.5575  0.3223 -0.4263
  705MOL0     C95098  11.267  10.479   4.020  0.7791 -0.1039  0.1077
  705MOL0     O95099  11.369  10.565   3.979 -0.1652 -0.1236  0.6675
  705MOL0     C95100  11.434  10.527   3.863 -0.7779  0.4983  0.0986
  705MOL0     C95101  11.585  10.548   3.881  0.3546 -0.1122  0.6149
  705MOL0     C95102  11.613  10.694   3.886  1.2481 -0.8623  0.3973
  705MOL0     C95103  11.758  10.736   3.857 -0.6500  0.6344  0.2108
  705MOL0     C95104  11.769  10.852   3.770  0.2773 -0.0471  0.4555
  705MOL0     C95105  11.785  10.947   3.686  0.8429 -0.4739 -0.6751
  705MOL0     C95106  11.154  10.477   3.931  0.2576  0.4461 -0.1974
  705MOL0     C95107  11.049  10.383   3.965  0.4911 -0.4853 -0.3294
  705MOL0     H95108  10.861   9.925   4.077  0.1932 -1.3555 -3.2042
  705MOL0     H95109  10.664   9.770   4.063  1.7961  0.1113  0.2234
  705MOL0     H95110  10.218   9.835   4.108 -2.4183  1.7589  0.6520
  705MOL0     H95111  10.247  10.002   4.096 -1.8025 -0.4100 -0.6648
  705MOL0     H95112  10.274   9.981   3.842  1.4012 -0.6418 -0.1881
  705MOL0     H95113  10.259   9.812   3.854 -1.3271 -2.0003  1.2638
  705MOL0     H95114  10.044   9.822   3.817  0.4496 -0.6383  0.8870
  705MOL0     H95115  10.027   9.887   3.980  1.9648 -1.3172  1.2360
  705MOL0     H95116   9.921  10.043   3.812 -0.7488  2.5576 -1.5105
  705MOL0     H95117  10.067  10.124   3.867 -1.3976 -0.6592  0.3102
  705MOL0     H95118  10.172  10.044   3.637 -0.2976 -2.4612 -1.3080
  705MOL0     H95119  10.022   9.956   3.622 -1.9598  1.1747 -3.1469
  705MOL0     H95120   9.992  10.113   3.478 -2.6142 -0.5177 -0.2178
  705MOL0     H95121   9.898  10.170   3.626 -0.2936 -0.9221 -0.8964
  705MOL0     H95122  10.087  10.311   3.697 -0.3674  0.8944 -0.1964
  705MOL0     H95123  10.182  10.269   3.553  0.9691  0.7188  1.0444
  705MOL0     H95124  10.069  10.491   3.552  2.2263 -0.5872  0.8837
  705MOL0     H95125   9.910  10.417   3.567 -1.1890 -0.6418 -2.8260
  705MOL0     H95126   9.784  10.392   3.337  0.7309 -1.3418  3.2151
  705MOL0     H95127   9.864  10.193   3.037  0.7669  0.4474 -2.8077
  705MOL0     H95128   9.728  10.289   3.113 -0.2981 -0.0816 -0.7653
  705MOL0     H95129   9.854  10.495   3.011 -0.0959 -2.3031  4.1768
  705MOL0     H95130   9.740  10.393   2.916  1.5469 -0.0289 -2.3397
  705MOL0     H95131   9.942  10.256   2.841 -0.3593 -0.5521  1.5603
  705MOL0     H95132  10.039  10.377   2.920  0.1802  0.2805 -0.9902
  705MOL0     H95133  10.037  10.445   2.689  0.1601 -0.4676  0.5117
  705MOL0     H95134   9.945  10.560   2.783 -5.7308  0.7740 -2.3260
  705MOL0     H95135   9.708  10.471   2.419  0.3988 -0.2705  0.4082
  705MOL0     H95136   9.661  10.619   2.232  1.4361  0.1995  2.6397
  705MOL0     H95137   9.497  10.646   2.280 -0.2703 -0.7601  1.6314
  705MOL0     H95138   9.606  10.788   2.249 -0.6453 -0.4208 -0.8105
  705MOL0     H95139   9.375  11.151   2.492 -1.0115  1.4795 -0.2056
  705MOL0     H95140   9.179  11.281   2.569  0.9542 -0.1029 -0.1986
  705MOL0     H95141   9.073  11.377   2.687  1.3278 -1.3079  1.1520
  705MOL0     H95142   8.917  11.393   2.626  1.3920  1.8657  0.7283
  705MOL0     H95143   8.919  11.449   2.870 -1.6241  0.9747 -3.3975
  705MOL0     H95144   8.843  11.288   2.846  1.0643 -1.5003 -2.8249
  705MOL0     H95145   9.140  11.327   2.891 -0.1269  1.1065  0.0165
  705MOL0     H95146   9.058  11.166   2.889 -0.3123  0.0055  0.2385
  705MOL0     H95147   9.135  11.262   3.113 -0.1249  1.1202 -0.0719
  705MOL0     H95148   9.006  11.383   3.108  1.1792  0.5140  0.4467
  705MOL0     H95149   8.841  11.219   3.078  0.7926  1.4190 -1.0036
  705MOL0     H95150   8.905  11.186   3.230 -0.0859  2.7968 -0.3779
  705MOL0     H95151   8.898  11.028   2.974 -4.1637 -1.2781  1.8950
  705MOL0     H95152   9.055  11.018   3.062  1.2545  0.4648  0.7069
  705MOL0     H95153   8.914  10.908   3.249  1.4561  0.4475  0.3825
  705MOL0     H95154   8.895  10.829   3.096 -1.2390 -0.0414  0.5593
  705MOL0     H95155   8.688  10.992   3.068 -0.0542 -1.2299 -1.8015
  705MOL0     H95156   8.705  11.003   3.248 -0.6154  2.4891 -0.9199
  705MOL0     H95157   8.961  10.919   2.618 -1.1112  0.5369  0.8805
  705MOL0     H95158   9.139  10.794   2.528 -0.0971 -0.0978  2.3392
  705MOL0     H95159   9.638  10.833   2.746 -1.9816 -0.0900 -0.2283
  705MOL0     H95160   9.750  10.640   2.807 -0.2837 -0.7796  0.3203
  705MOL0     H95161  10.407  10.112   4.016  0.2901  1.0667  2.0405
  705MOL0     H95162  10.607  10.254   3.975 -1.0199 -0.0004  1.2193
  705MOL0     H95163  11.208  10.212   4.215  5.4132  1.6021  0.0648
  705MOL0     H95164  11.378  10.368   4.175 -0.6011  2.0527  0.1390
  705MOL0     H95165  11.414  10.420   3.853 -2.2698  0.3975  3.2077
  705MOL0     H95166  11.388  10.576   3.776 -0.3629  0.6138 -0.0611
  705MOL0     H95167  11.649  10.496   3.810 -2.0142 -2.0871 -0.1928
  705MOL0     H95168  11.601  10.495   3.975  1.7983 -0.6352  0.1012
  705MOL0     H95169  11.589  10.733   3.985  3.7687  0.7391  0.4847
  705MOL0     H95170  11.549  10.749   3.816 -0.1623 -0.1564  2.1958
  705MOL0     H95171  11.807  10.654   3.805  1.6276  1.6056  0.7181
  705MOL0     H95172  11.807  10.750   3.954 -0.4925  1.7672 -0.0272
  705MOL0     H95173  11.802  11.024   3.614  2.1128 -0.5506 -0.4784
  705MOL0     H95174  11.155  10.540   3.842  0.0277 -0.7046 -1.0329
  705MOL0     H95175  10.964  10.391   3.897  0.1534 -1.9532 -0.1151
  706MOL0     O95176   7.559   6.812   2.385  0.1219  0.6090  0.2243
  706MOL0     C95177   7.619   6.715   2.334  0.0240 -0.0954  0.0616
  706MOL0     O95178   7.611   6.584   2.365  0.0651  0.2648 -0.2500
  706MOL0     C95179   7.501   6.535   2.426  0.6404  0.3230 -0.2277
  706MOL0     C95180   7.416   6.455   2.354  1.0879 -0.3384  1.1109
  706MOL0     C95181   7.296   6.412   2.420  0.0656 -0.5188  0.6838
  706MOL0     C95182   7.266   6.431   2.555 -0.8146 -0.1274  1.0303
  706MOL0     O95183   7.143   6.388   2.618 -0.1634  0.1742 -0.0805
  706MOL0     C95184   7.063   6.289   2.553  0.9027  0.2817  0.4809
  706MOL0     C95185   6.997   6.208   2.667 -0.2898  0.0682  0.2161
  706MOL0     C95186   6.857   6.253   2.692 -0.0768 -0.3389 -0.2880
  706MOL0     C95187   6.746   6.196   2.605  0.3191  0.4289 -0.2701
  706MOL0     C95188   6.618   6.267   2.634 -1.1685  0.4893 -0.6597
  706MOL0     C95189   6.521   6.259   2.522  1.3339  0.5052  0.1736
  706MOL0     C95190   6.379   6.310   2.558  0.1936  0.0853 -0.0954
  706MOL0     C95191   6.289   6.304   2.429 -0.1101  0.0360 -0.0685
  706MOL0     N95192   6.206   6.427   2.420  0.1223  0.8684  0.5596
  706MOL0     C95193   6.245   6.534   2.340 -0.1240 -0.1034  0.3666
  706MOL0     C95194   6.155   6.634   2.363  0.3212 -0.1748 -0.1015
  706MOL0     C95195   6.154   6.765   2.298  0.1194  0.1180  0.8406
  706MOL0     C95196   6.264   6.798   2.208  0.3115  0.0504 -0.2321
  706MOL0     C95197   6.249   6.729   2.072 -0.1256 -0.5605  1.0090
  706MOL0     C95198   6.375   6.741   1.993  0.4248  0.3178  0.4215
  706MOL0     O95199   6.410   6.880   1.969 -0.1917  0.3872 -0.5928
  706MOL0     C95200   6.544   6.913   1.944  0.4076 -0.6935  0.0668
  706MOL0     C95201   6.589   7.043   1.968 -0.7071  0.6886 -0.8045
  706MOL0     C95202   6.721   7.080   1.953  0.2842 -0.2415  0.2164
  706MOL0     C95203   6.744   7.233   1.964 -0.3913  0.1053  0.7198
  706MOL0     C95204   6.822   6.985   1.915  1.4491  0.0088  0.1787
  706MOL0     C95205   6.961   7.022   1.871  0.1431 -0.5298 -0.1577
  706MOL0     O95206   6.989   7.156   1.823 -0.1923  0.8614  0.2491
  706MOL0     C95207   7.121   7.185   1.782  0.8501 -0.2792 -0.6679
  706MOL0     C95208   7.185   7.137   1.665  0.5677  0.2771  0.0418
  706MOL0     C95209   7.315   7.170   1.638  0.0303 -0.3057  0.4257
  706MOL0     C95210   7.393   7.244   1.731 -0.0662 -0.1852  0.2879
  706MOL0     O95211   7.523   7.272   1.723  0.1952 -0.4217  0.4448
  706MOL0     C95212   7.583   7.266   1.593 -0.1383 -0.1961 -0.1834
  706MOL0     C95213   7.737   7.299   1.627  0.9651 -0.0662 -0.6987
  706MOL0     C95214   7.798   7.337   1.495 -0.9326  0.4574  0.5229
  706MOL0     C95215   7.770   7.478   1.467  0.2380  1.6237  0.3192
  706MOL0     C95216   7.889   7.557   1.426 -0.5904  0.5031  0.8527
  706MOL0     C95217   7.907   7.514   1.276 -0.6107 -0.7129  0.6863
  706MOL0     C95218   8.043   7.580   1.234 -0.1634 -0.0915 -0.5398
  706MOL0     C95219   8.110   7.523   1.117  0.6552 -0.5079  0.5246
  706MOL0    Cl95220   8.265   7.617   1.091  0.2234  0.2363  0.0511
  706MOL0     C95221   7.335   7.284   1.848 -0.9074  0.0715 -1.3714
  706MOL0     C95222   7.195   7.263   1.874  0.6106  0.4575  0.0489
  706MOL0     O95223   7.025   6.925   1.853  0.0764  0.1365 -0.2431
  706MOL0     C95224   6.785   6.847   1.924  0.3505  0.4315  0.0821
  706MOL0     C95225   6.645   6.819   1.928  0.0935  0.8840  0.4260
  706MOL0     N95226   6.063   6.584   2.458 -0.3412 -0.4661  0.6610
  706MOL0     N95227   6.091   6.458   2.490 -0.7216 -0.0948  0.2602
  706MOL0     C95228   7.352   6.510   2.622  0.4476 -0.9110 -0.5339
  706MOL0     C95229   7.467   6.566   2.565 -0.0514  0.5595 -0.8022
  706MOL0     C95230   7.727   6.761   2.240  0.6043 -0.1775 -0.3999
  706MOL0     C95231   7.778   6.895   2.232 -0.9911 -0.4381  0.0480
  706MOL0     C95232   7.874   6.928   2.137 -0.1317  0.1411  0.6675
  706MOL0     C95233   7.931   6.832   2.053  0.3763 -0.1577  0.8857
  706MOL0     O95234   8.026   6.860   1.951  0.1165  0.4451 -0.0144
  706MOL0     C95235   8.105   6.981   1.948 -0.1650  0.4880 -0.0283
  706MOL0     C95236   8.248   6.940   1.904  0.2915 -0.6565  0.1697
  706MOL0     C95237   8.361   7.043   1.946 -0.2534 -0.3883 -0.0974
  706MOL0     C95238   8.505   6.996   1.912  0.2939  0.8402  0.3693
  706MOL0     C95239   8.530   6.988   1.770  0.2705  0.4351  0.3807
  706MOL0     C95240   8.548   6.984   1.645 -0.9102 -0.6014  0.0896
  706MOL0     C95241   7.875   6.702   2.052  0.1230  1.3514 -1.0439
  706MOL0     C95242   7.777   6.662   2.142 -0.2532 -0.4584  0.7933
  706MOL0     H95243   7.440   6.427   2.252  0.2150 -1.6102  1.2261
  706MOL0     H95244   7.230   6.367   2.347 -0.0396  2.8189 -1.5332
  706MOL0     H95245   6.987   6.341   2.494 -0.7456 -0.5971  1.7532
  706MOL0     H95246   7.110   6.217   2.485 -1.7005 -0.9954 -0.0743
  706MOL0     H95247   6.977   6.109   2.624  1.5142  0.1147 -0.8144
  706MOL0     H95248   7.048   6.214   2.763 -4.3968  1.7770  2.5749
  706MOL0     H95249   6.831   6.224   2.794 -1.4813  2.5890  0.2833
  706MOL0     H95250   6.865   6.362   2.695 -1.4406 -0.0968 -2.6167
  706MOL0     H95251   6.771   6.213   2.500 -0.7322  1.2227 -0.4091
  706MOL0     H95252   6.733   6.088   2.619 -2.0678  0.1307 -3.4531
  706MOL0     H95253   6.589   6.227   2.731  2.3559  1.0824  0.7855
  706MOL0     H95254   6.638   6.375   2.640  2.0522 -0.0520  0.4935
  706MOL0     H95255   6.546   6.333   2.445  0.1075  0.0131 -0.7134
  706MOL0     H95256   6.524   6.158   2.482  1.1913  1.3450 -2.0984
  706MOL0     H95257   6.334   6.253   2.640 -0.8823  0.1735 -0.5996
  706MOL0     H95258   6.379   6.409   2.604 -0.9684 -1.6511  4.1299
  706MOL0     H95259   6.225   6.217   2.445  0.6469 -0.3857  0.7232
  706MOL0     H95260   6.342   6.282   2.336 -1.7598  2.1492 -1.6225
  706MOL0     H95261   6.334   6.537   2.278  0.3616 -1.5177  0.9470
  706MOL0     H95262   6.063   6.773   2.238  0.8059 -1.0162 -0.4015
  706MOL0     H95263   6.154   6.846   2.371 -0.1350  1.0199 -0.1362
  706MOL0     H95264   6.361   6.780   2.254  1.3613  1.7079 -1.7081
  706MOL0     H95265   6.254   6.904   2.184 -0.4734  0.0210 -0.0746
  706MOL0     H95266   6.185   6.790   2.007  2.6655  3.1549  1.3954
  706MOL0     H95267   6.220   6.624   2.078  1.3835 -0.9723  1.6533
  706MOL0     H95268   6.368   6.683   1.900  1.3420  1.9155 -0.6815
  706MOL0     H95269   6.454   6.693   2.052  0.6672 -0.1086 -0.2384
  706MOL0     H95270   6.520   7.121   1.999 -0.1402 -0.0759  2.9149
  706MOL0     H95271   6.668   7.286   2.022 -1.2175  0.8069 -0.9557
  706MOL0     H95272   6.840   7.266   2.005 -0.3995 -0.0838  0.8924
  706MOL0     H95273   6.732   7.271   1.862  0.7577  1.9147  1.2147
  706MOL0     H95274   7.126   7.072   1.601  2.0129 -0.9784 -0.0634
  706MOL0     H95275   7.360   7.132   1.547 -1.9100  1.5826 -1.4318
  706MOL0     H95276   7.576   7.163   1.557 -3.2330 -0.2393  0.2758
  706MOL0     H95277   7.536   7.331   1.519 -1.4758 -2.0034 -0.9895
  706MOL0     H95278   7.742   7.380   1.700 -0.1209 -2.1362  1.8204
  706MOL0     H95279   7.779   7.208   1.670  1.1199  0.6909  0.8346
  706MOL0     H95280   7.771   7.265   1.417 -1.3367  1.3482 -0.1690
  706MOL0     H95281   7.905   7.317   1.508 -1.3371 -0.9129  2.1186
  706MOL0     H95282   7.696   7.480   1.387  0.9941 -1.7897 -0.6071
  706MOL0     H95283   7.734   7.536   1.553  2.4021  0.4908  2.1075
  706MOL0     H95284   7.972   7.541   1.496 -1.1670 -3.0528  0.9070
  706MOL0     H95285   7.861   7.662   1.439 -2.4832 -0.0816  1.8349
  706MOL0     H95286   7.923   7.408   1.257  0.8763 -0.0985 -2.2269
  706MOL0     H95287   7.827   7.545   1.209  1.6714  1.2832 -1.3607
  706MOL0     H95288   8.109   7.570   1.321  0.3999  1.5448 -0.7393
  706MOL0     H95289   8.024   7.687   1.222 -0.9282 -0.0115  1.0122
  706MOL0     H95290   8.045   7.548   1.032  0.4671  2.2548  1.3770
  706MOL0     H95291   8.142   7.419   1.119  0.9181 -0.4306  0.3996
  706MOL0     H95292   7.403   7.341   1.910 -1.4838 -1.5288  0.8508
  706MOL0     H95293   7.147   7.299   1.964 -0.2108 -3.4659  1.3773
  706MOL0     H95294   6.855   6.767   1.906  0.6032  0.9944 -1.7104
  706MOL0     H95295   6.635   6.712   1.914  2.4675  0.3155  2.4354
  706MOL0     H95296   7.343   6.528   2.728  0.8626 -2.1943 -0.2627
  706MOL0     H95297   7.540   6.616   2.628 -0.3961  2.4994 -1.8916
  706MOL0     H95298   7.746   6.973   2.300 -2.7450 -1.3364  0.3027
  706MOL0     H95299   7.904   7.031   2.125  1.4644 -0.2625  0.8635
  706MOL0     H95300   8.064   7.049   1.873  0.7615 -1.0531 -2.0276
  706MOL0     H95301   8.117   7.019   2.050  1.7824 -0.5853  0.1782
  706MOL0     H95302   8.251   6.933   1.795  1.1170 -0.2416  0.1535
  706MOL0     H95303   8.281   6.846   1.951  0.1440 -1.7405 -1.7751
  706MOL0     H95304   8.364   7.042   2.055  1.2848  2.6181 -0.0049
  706MOL0     H95305   8.328   7.140   1.908 -1.6736 -0.2169  1.4580
  706MOL0     H95306   8.537   6.916   1.978  1.2184  3.8678  3.9182
  706MOL0     H95307   8.581   7.070   1.941 -0.1420  2.4749 -2.2846
  706MOL0     H95308   8.590   6.981   1.547  1.9490 -0.5135  1.2180
  706MOL0     H95309   7.904   6.616   1.992 -1.2542  0.1238 -0.0394
  706MOL0     H95310   7.751   6.557   2.154 -1.4215 -0.6832 -2.5600
  707MOL0     O95311   3.683   8.437   5.379  0.4496 -0.6705  0.2748
  707MOL0     C95312   3.772   8.354   5.358  0.4645 -0.5870  1.2175
  707MOL0     O95313   3.829   8.326   5.242  0.1215  0.8408  0.4247
  707MOL0     C95314   3.818   8.401   5.125  1.1759 -1.5939 -0.3030
  707MOL0     C95315   3.742   8.528   5.110 -0.6398  0.1573  0.7332
  707MOL0     C95316   3.747   8.584   4.983  0.4292  0.5781 -0.5674
  707MOL0     C95317   3.802   8.521   4.876 -0.8395 -0.0070  0.7314
  707MOL0     O95318   3.802   8.592   4.761 -0.0191 -0.3749  0.4827
  707MOL0     C95319   3.931   8.618   4.698 -0.8940 -1.2641 -0.4646
  707MOL0     C95320   4.010   8.723   4.755  1.1284 -0.3403  0.4686
  707MOL0     C95321   3.941   8.861   4.718  0.1248  1.0979  0.6219
  707MOL0     C95322   4.007   8.974   4.788  0.0419 -0.4826 -0.9928
  707MOL0     C95323   3.910   9.094   4.792 -0.6595  0.3210 -0.3593
  707MOL0     C95324   3.851   9.140   4.652 -0.6001 -0.3568 -0.2405
  707MOL0     C95325   3.800   9.281   4.659 -0.3403  0.2041  0.4598
  707MOL0     C95326   3.806   9.357   4.523 -0.8891 -0.3809  0.1751
  707MOL0     N95327   3.763   9.493   4.526  0.1897  0.3421  0.2486
  707MOL0     C95328   3.839   9.595   4.564 -0.0996  0.1678  1.4394
  707MOL0     C95329   3.759   9.705   4.556 -0.3732  0.2253  0.1629
  707MOL0     C95330   3.782   9.847   4.605  0.0434 -0.4989  0.0994
  707MOL0     C95331   3.865   9.865   4.725 -0.1899  0.3362  0.0861
  707MOL0     C95332   3.796   9.810   4.850 -0.6110 -0.5125  0.0694
  707MOL0     C95333   3.893   9.802   4.971 -0.4499  0.4052  0.2150
  707MOL0     O95334   3.827   9.802   5.096  0.4013 -0.9758 -0.0086
  707MOL0     C95335   3.756   9.688   5.144 -0.0829 -0.3300  0.7019
  707MOL0     C95336   3.744   9.571   5.072  1.0002  0.6815  0.3174
  707MOL0     C95337   3.677   9.458   5.129  0.5666 -0.1093 -0.0235
  707MOL0     C95338   3.645   9.337   5.050 -0.3077  0.3718 -0.4857
  707MOL0     C95339   3.629   9.467   5.270 -0.5001  0.2151  0.3871
  707MOL0     C95340   3.552   9.361   5.337 -0.6488 -1.0045 -0.6828
  707MOL0     O95341   3.554   9.362   5.474 -0.1432 -0.1833  0.5585
  707MOL0     C95342   3.464   9.276   5.531  0.7241  0.7118 -0.7614
  707MOL0     C95343   3.490   9.138   5.557  0.2684 -0.6111  0.4706
  707MOL0     C95344   3.390   9.051   5.614 -0.0641  1.2736  0.0735
  707MOL0     C95345   3.268   9.105   5.648 -0.3246  0.1614  0.5363
  707MOL0     O95346   3.179   9.013   5.700  0.3682 -0.1632  0.8306
  707MOL0     C95347   3.042   9.054   5.687  0.6533 -0.7293 -0.2740
  707MOL0     C95348   2.954   8.933   5.682 -0.8953  0.3079 -0.4594
  707MOL0     C95349   2.985   8.846   5.809  0.0448 -0.3243 -0.6393
  707MOL0     C95350   2.888   8.734   5.821 -0.1469 -0.9048  0.5427
  707MOL0     C95351   2.872   8.689   5.968  0.9679  0.4820 -0.7921
  707MOL0     C95352   2.778   8.571   5.975  0.2518 -0.8523 -0.0163
  707MOL0     C95353   2.747   8.514   6.116 -0.1690 -0.0079 -0.3385
  707MOL0     C95354   2.631   8.419   6.112 -0.3633 -0.5549 -0.9225
  707MOL0    Cl95355   2.617   8.322   6.267  0.3100 -0.2758  0.0842
  707MOL0     C95356   3.243   9.247   5.633  0.2102  0.0938 -1.0189
  707MOL0     C95357   3.342   9.326   5.579  0.4312  0.3569  0.5097
  707MOL0     O95358   3.470   9.298   5.270 -0.2182 -0.3149  0.0069
  707MOL0     C95359   3.647   9.584   5.333  0.3345 -0.7073 -0.7356
  707MOL0     C95360   3.717   9.694   5.271  0.3582 -0.0083 -1.1515
  707MOL0     N95361   3.632   9.664   4.513  0.1873  0.1385 -0.8020
  707MOL0     N95362   3.634   9.540   4.507  0.1941  0.4499  0.0549
  707MOL0     C95363   3.871   8.397   4.886 -0.2172 -0.2014 -0.0062
  707MOL0     C95364   3.889   8.345   5.018 -0.6601 -0.1376  0.0507
  707MOL0     C95365   3.812   8.267   5.480  0.0154 -0.7857  0.4655
  707MOL0     C95366   3.772   8.296   5.617  1.1109  0.1874 -0.3238
  707MOL0     C95367   3.810   8.222   5.722 -0.2557  0.1499  0.0170
  707MOL0     C95368   3.881   8.106   5.700 -0.0673 -0.9940 -0.3349
  707MOL0     O95369   3.935   8.047   5.806 -0.4452 -1.1226 -0.3958
  707MOL0     C95370   4.063   8.108   5.860  0.9765 -0.3295  0.5250
  707MOL0     C95371   4.132   8.025   5.964  0.5837  0.8529 -0.8841
  707MOL0     C95372   4.156   7.884   5.906  0.9556  0.4319 -0.3755
  707MOL0     C95373   4.273   7.818   5.977  0.4716 -0.6099 -0.1774
  707MOL0     C95374   4.305   7.704   5.898 -0.8453  0.3792 -0.3808
  707MOL0     C95375   4.337   7.606   5.839  1.1143 -0.7922  0.2911
  707MOL0     C95376   3.925   8.073   5.572 -0.3078  0.1796  0.7902
  707MOL0     C95377   3.884   8.148   5.461 -0.1666 -0.2508  0.5227
  707MOL0     H95378   3.696   8.576   5.195 -0.6315  0.6528  0.4601
  707MOL0     H95379   3.690   8.677   4.974 -2.5127 -0.6463  2.9470
  707MOL0     H95380   3.999   8.533   4.699  0.6423 -0.0825  1.1963
  707MOL0     H95381   3.920   8.644   4.592  1.7332 -1.1290 -0.7611
  707MOL0     H95382   4.033   8.699   4.859 -1.4802 -0.4400  1.0790
  707MOL0     H95383   4.105   8.710   4.702 -0.6621 -1.4236 -2.8087
  707MOL0     H95384   3.964   8.875   4.612  0.2734 -0.9776  0.3402
  707MOL0     H95385   3.833   8.853   4.735  0.3620 -0.9259  1.5125
  707MOL0     H95386   4.037   8.947   4.890 -0.6331 -1.2547 -0.9924
  707MOL0     H95387   4.100   9.003   4.738  0.1437 -0.3307 -0.7226
  707MOL0     H95388   3.818   9.067   4.845 -1.0032  0.3374 -0.9398
  707MOL0     H95389   3.959   9.180   4.840 -1.3096  1.1860 -1.1895
  707MOL0     H95390   3.926   9.139   4.573  2.8855  0.1201  2.7714
  707MOL0     H95391   3.771   9.076   4.614 -1.6518  0.1883  0.9682
  707MOL0     H95392   3.694   9.276   4.684 -1.0760 -0.5574 -2.3929
  707MOL0     H95393   3.866   9.333   4.729  0.1295  0.6254 -0.2830
  707MOL0     H95394   3.760   9.294   4.446  2.4496  1.0498 -3.3697
  707MOL0     H95395   3.907   9.353   4.479 -0.6938 -1.0842  0.6689
  707MOL0     H95396   3.946   9.593   4.582 -0.1023 -0.2142  1.4105
  707MOL0     H95397   3.814   9.905   4.518 -0.9572  3.0112  1.8987
  707MOL0     H95398   3.680   9.879   4.630 -0.0881 -0.0945 -0.8862
  707MOL0     H95399   3.897   9.969   4.737 -0.0043  0.3998 -0.8959
  707MOL0     H95400   3.950   9.795   4.723  0.9478  1.5764  1.9312
  707MOL0     H95401   3.739   9.717   4.840 -0.1663 -1.2863  3.3278
  707MOL0     H95402   3.719   9.884   4.876  1.9767  1.3518  3.1624
  707MOL0     H95403   3.956   9.891   4.970  0.2029 -0.0557  0.1944
  707MOL0     H95404   3.968   9.724   4.958 -0.3348  0.3600  1.1070
  707MOL0     H95405   3.783   9.572   4.971  1.5075  3.0447  0.4672
  707MOL0     H95406   3.690   9.251   5.099 -0.0717  0.6901 -0.1409
  707MOL0     H95407   3.537   9.326   5.036 -0.0197 -0.9144 -1.9041
  707MOL0     H95408   3.695   9.339   4.953  2.7883 -1.0148  0.9573
  707MOL0     H95409   3.587   9.096   5.536 -1.4478 -3.7920 -1.8895
  707MOL0     H95410   3.420   8.948   5.630  1.3456  2.0048  2.8240
  707MOL0     H95411   3.021   9.108   5.780 -2.1989  1.1172 -1.8376
  707MOL0     H95412   3.024   9.127   5.608  5.1180  0.5255 -0.4135
  707MOL0     H95413   2.852   8.965   5.659 -0.7507  0.7145 -0.5366
  707MOL0     H95414   2.988   8.877   5.594  3.0348  1.5454  0.0683
  707MOL0     H95415   2.977   8.916   5.892  0.1271 -0.1111 -0.8113
  707MOL0     H95416   3.088   8.810   5.813  0.8545  1.9171 -0.1973
  707MOL0     H95417   2.791   8.758   5.775  1.3142 -2.1174 -3.6327
  707MOL0     H95418   2.924   8.651   5.759  2.2713  0.3302  0.2034
  707MOL0     H95419   2.837   8.775   6.027  1.2409  0.2686 -0.3116
  707MOL0     H95420   2.962   8.656   6.019 -0.5900 -1.0236  1.1508
  707MOL0     H95421   2.679   8.604   5.940  1.3327  1.2816 -1.2638
  707MOL0     H95422   2.820   8.498   5.906  1.1874 -1.2170  0.9147
  707MOL0     H95423   2.735   8.597   6.186  1.9144 -0.7009  0.9437
  707MOL0     H95424   2.834   8.457   6.150  0.7034  1.7927  0.5815
  707MOL0     H95425   2.628   8.358   6.021  1.2740 -0.6165 -0.9653
  707MOL0     H95426   2.532   8.465   6.105 -0.7083 -0.4611  2.6956
  707MOL0     H95427   3.153   9.301   5.663  0.5513 -0.2985  0.7977
  707MOL0     H95428   3.325   9.430   5.556 -3.1558 -0.2255  0.0254
  707MOL0     H95429   3.606   9.598   5.433  0.3360 -1.5797 -0.6050
  707MOL0     H95430   3.719   9.790   5.323  0.8638 -0.7952  0.3368
  707MOL0     H95431   3.927   8.354   4.804  0.4509 -0.3991  0.5474
  707MOL0     H95432   3.951   8.256   5.021  1.2672  1.1631  2.4198
  707MOL0     H95433   3.710   8.382   5.636 -1.0382 -1.6169  1.4446
  707MOL0     H95434   3.800   8.255   5.824 -0.8318 -0.0235  0.0203
  707MOL0     H95435   4.128   8.140   5.779  1.2188 -1.0643  0.4216
  707MOL0     H95436   4.031   8.192   5.923 -1.4024 -2.0341  1.7164
  707MOL0     H95437   4.067   8.008   6.050 -2.0197 -1.4696 -3.0930
  707MOL0     H95438   4.224   8.075   5.995 -0.5407  2.2117  0.3914
  707MOL0     H95439   4.176   7.882   5.798  0.7083  1.5005 -0.4483
  707MOL0     H95440   4.064   7.828   5.922  1.8435 -0.8199  0.5840
  707MOL0     H95441   4.230   7.780   6.070  1.1264  1.9587  1.2747
  707MOL0     H95442   4.359   7.883   5.991 -0.9074  2.1142 -2.9273
  707MOL0     H95443   4.361   7.519   5.782 -1.1413 -0.9028 -0.5850
  707MOL0     H95444   3.968   7.976   5.548 -1.6622  0.1271 -1.8326
  707MOL0     H95445   3.926   8.137   5.362  1.4185 -1.1559  1.2584
  708MOL0     O95446   1.091  11.185   8.401 -0.4265 -0.1570 -0.0964
  708MOL0     C95447   1.110  11.231   8.290 -0.2127 -0.2327  0.7426
  708MOL0     O95448   1.105  11.158   8.173  0.5720 -1.1552 -0.3659
  708MOL0     C95449   1.051  11.035   8.193  0.6313  0.5428  0.0922
  708MOL0     C95450   0.913  11.008   8.175 -0.3298 -1.8744  0.3663
  708MOL0     C95451   0.865  10.872   8.183 -0.4905  0.2459 -0.0115
  708MOL0     C95452   0.955  10.761   8.183 -0.5709  0.4736  0.2611
  708MOL0     O95453   0.928  10.624   8.166 -0.5596  0.4143 -0.0482
  708MOL0     C95454   0.793  10.574   8.126 -0.6603  0.0367 -0.5521
  708MOL0     C95455   0.780  10.423   8.180  1.2382  0.0575 -0.1641
  708MOL0     C95456   0.640  10.356   8.177 -0.4678 -0.1630 -0.0779
  708MOL0     C95457   0.652  10.206   8.206  0.2647 -0.2052  0.1206
  708MOL0     C95458   0.713  10.186   8.344  0.7795  0.0534  0.4522
  708MOL0     C95459   0.665  10.038   8.402 -0.7122 -0.8517  0.8930
  708MOL0     C95460   0.744   9.981   8.522  1.0070 -0.3665 -0.0362
  708MOL0     C95461   0.710  10.079   8.639 -0.1863 -0.3291 -0.4871
  708MOL0     N95462   0.764  10.032   8.768  0.3053  1.1847  0.2474
  708MOL0     C95463   0.890  10.058   8.818 -0.2132  0.6501  0.0283
  708MOL0     C95464   0.900   9.976   8.920  0.2316 -0.3767 -0.8048
  708MOL0     C95465   1.032   9.969   8.997  0.4699 -0.3486  0.2348
  708MOL0     C95466   1.068   9.823   9.029 -0.0597 -1.3610 -0.1618
  708MOL0     C95467   1.125   9.744   8.911 -0.3729  0.1973  0.5327
  708MOL0     C95468   1.144   9.600   8.950  0.1409 -0.4528  0.5693
  708MOL0     O95469   1.189   9.536   8.828 -0.0043  1.3266 -0.3012
  708MOL0     C95470   1.286   9.446   8.831  0.2332 -0.1993  0.2961
  708MOL0     C95471   1.389   9.436   8.925  0.3491 -0.1229 -0.2961
  708MOL0     C95472   1.486   9.343   8.925  0.2662  0.2401  0.6524
  708MOL0     C95473   1.567   9.335   9.050 -0.2279  0.3110  1.0902
  708MOL0     C95474   1.479   9.244   8.823 -0.4987  0.0047  0.1214
  708MOL0     C95475   1.559   9.131   8.825  0.1734 -0.2060  0.2558
  708MOL0     O95476   1.642   9.109   8.719  0.2117  0.3035  0.4322
  708MOL0     C95477   1.690   8.985   8.720  0.7848  0.7841 -0.0576
  708MOL0     C95478   1.637   8.894   8.631 -0.1012  0.0097  0.0442
  708MOL0     C95479   1.696   8.765   8.620  0.1228  0.8044 -0.6893
  708MOL0     C95480   1.807   8.731   8.700  0.3129 -0.8767 -1.0013
  708MOL0     O95481   1.869   8.614   8.687 -0.1293 -0.0700 -0.3341
  708MOL0     C95482   1.907   8.527   8.803  0.2521  0.2453  1.4259
  708MOL0     C95483   1.791   8.436   8.830  0.8434  0.1842 -0.1941
  708MOL0     C95484   1.828   8.338   8.943 -0.2611 -0.3070  0.5493
  708MOL0     C95485   1.878   8.409   9.063 -0.2063 -0.9513 -0.4346
  708MOL0     C95486   1.893   8.311   9.188 -0.8197 -0.7895  0.3828
  708MOL0     C95487   1.976   8.188   9.143 -0.6972 -0.0858  1.0465
  708MOL0     C95488   1.963   8.086   9.259  0.8799  0.8794 -0.2753
  708MOL0     C95489   2.056   7.963   9.268  0.7675 -0.3604 -0.2291
  708MOL0    Cl95490   2.221   8.002   9.292 -0.2229 -0.1126  0.5216
  708MOL0     C95491   1.852   8.820   8.795 -0.2253 -0.7667  0.6715
  708MOL0     C95492   1.795   8.945   8.806 -0.1682  0.1157 -0.5110
  708MOL0     O95493   1.544   9.060   8.926  0.5200  0.2991  0.7682
  708MOL0     C95494   1.393   9.257   8.710 -0.6283  0.4117  0.5024
  708MOL0     C95495   1.293   9.361   8.715  0.5592 -0.6698 -0.0967
  708MOL0     N95496   0.780   9.904   8.937 -0.1935  0.4730 -0.1733
  708MOL0     N95497   0.700   9.946   8.849  0.0664 -0.5201 -0.7136
  708MOL0     C95498   1.095  10.798   8.198 -0.2903 -0.2415 -0.0846
  708MOL0     C95499   1.140  10.930   8.211  0.7999 -0.4646 -0.2473
  708MOL0     C95500   1.154  11.369   8.268  0.6922 -0.3858 -0.0273
  708MOL0     C95501   1.165  11.430   8.141  0.2677 -0.4320 -0.0718
  708MOL0     C95502   1.225  11.552   8.129 -0.7008  0.7781 -0.1617
  708MOL0     C95503   1.257  11.635   8.235 -0.1942  1.1872 -0.5134
  708MOL0     O95504   1.332  11.749   8.226  1.0175  0.4539  0.3045
  708MOL0     C95505   1.472  11.715   8.262 -0.4120  0.5335  0.4302
  708MOL0     C95506   1.548  11.834   8.321 -0.2974  0.5608 -0.9728
  708MOL0     C95507   1.512  11.847   8.469 -0.6882 -0.2484 -0.6416
  708MOL0     C95508   1.616  11.945   8.533  0.3097  1.2018  0.2045
  708MOL0     C95509   1.572  11.978   8.672 -0.0423 -0.3514  0.2567
  708MOL0     C95510   1.526  12.024   8.778  0.7736  0.7795  0.4922
  708MOL0     C95511   1.224  11.585   8.363 -0.1036 -0.7387 -0.1507
  708MOL0     C95512   1.176  11.458   8.379  0.1097  1.0938  0.7941
  708MOL0     H95513   0.841  11.087   8.156  1.9218 -0.1775 -1.7549
  708MOL0     H95514   0.762  10.844   8.164 -0.1732  0.2994 -2.0623
  708MOL0     H95515   0.710  10.629   8.172 -0.6358 -1.7157  1.7547
  708MOL0     H95516   0.777  10.574   8.018 -2.4938 -0.7124 -0.3076
  708MOL0     H95517   0.852  10.367   8.118 -1.0036  0.1747 -3.1043
  708MOL0     H95518   0.816  10.416   8.283 -1.3509 -0.3140  0.7685
  708MOL0     H95519   0.584  10.402   8.259  0.5971  4.9210 -1.7897
  708MOL0     H95520   0.589  10.372   8.081  0.1491  0.1628 -0.3562
  708MOL0     H95521   0.555  10.155   8.205 -0.6939  1.5353  0.7859
  708MOL0     H95522   0.718  10.160   8.131  0.1603 -1.2936  0.6678
  708MOL0     H95523   0.822  10.196   8.335  0.6670  0.1336 -1.0372
  708MOL0     H95524   0.659  10.249   8.415  0.0019 -0.8955  0.7243
  708MOL0     H95525   0.557  10.042   8.421 -0.9026  2.9629 -0.2856
  708MOL0     H95526   0.676   9.967   8.319 -0.9692 -1.4355  1.3485
  708MOL0     H95527   0.720   9.880   8.557 -2.5628  0.0997 -0.7625
  708MOL0     H95528   0.850   9.980   8.494  1.0876  0.4323  0.1986
  708MOL0     H95529   0.604  10.106   8.632  0.4173  1.8646 -4.9309
  708MOL0     H95530   0.765  10.171   8.619  1.6662 -1.4837 -0.9545
  708MOL0     H95531   0.968  10.113   8.767  0.4881 -1.3045 -1.1004
  708MOL0     H95532   1.118  10.014   8.948 -0.8188 -0.2508 -2.0660
  708MOL0     H95533   1.005  10.026   9.086  0.5085  2.1465 -1.2529
  708MOL0     H95534   0.977   9.793   9.082  0.6151  2.5793  3.7910
  708MOL0     H95535   1.146   9.823   9.105 -0.9207 -0.1215  0.7555
  708MOL0     H95536   1.226   9.778   8.884 -0.2327 -1.0728 -0.6663
  708MOL0     H95537   1.051   9.759   8.832 -1.0182 -0.7903  0.9355
  708MOL0     H95538   1.050   9.552   8.980  0.5031 -3.6137 -2.5576
  708MOL0     H95539   1.209   9.588   9.037  0.9841 -1.2673 -0.1462
  708MOL0     H95540   1.410   9.523   8.987 -1.3078  0.8455 -1.0380
  708MOL0     H95541   1.670   9.327   9.014 -0.6962  3.5938 -1.5369
  708MOL0     H95542   1.574   9.426   9.112  0.2935  0.1533  1.2702
  708MOL0     H95543   1.542   9.255   9.120 -2.7999  1.2751  1.3733
  708MOL0     H95544   1.557   8.915   8.561  1.0895  4.4227 -0.2883
  708MOL0     H95545   1.655   8.697   8.547  0.9344  1.0696 -1.4130
  708MOL0     H95546   1.986   8.458   8.771 -2.0455 -4.0174  3.9745
  708MOL0     H95547   1.937   8.580   8.894 -2.8967  2.3911  1.3491
  708MOL0     H95548   1.697   8.489   8.847  1.5457  0.8244  1.9715
  708MOL0     H95549   1.789   8.372   8.741  0.3105  1.9129 -1.4905
  708MOL0     H95550   1.895   8.265   8.897 -0.1588  0.2193 -0.1551
  708MOL0     H95551   1.737   8.285   8.973 -2.6971  2.9067 -0.5851
  708MOL0     H95552   1.977   8.452   9.044 -0.4913  0.1027  0.3655
  708MOL0     H95553   1.806   8.485   9.094 -0.5313 -1.2061 -0.5489
  708MOL0     H95554   1.793   8.289   9.228 -1.0113 -1.0808 -0.2275
  708MOL0     H95555   1.953   8.358   9.266  1.5578 -2.6178 -0.2257
  708MOL0     H95556   1.926   8.135   9.062 -0.7644 -1.8513  2.1894
  708MOL0     H95557   2.079   8.222   9.132 -1.4374  2.6233  1.5700
  708MOL0     H95558   1.862   8.045   9.247 -0.3215  2.7825  2.4374
  708MOL0     H95559   1.976   8.132   9.357  1.0181 -0.0143  0.1344
  708MOL0     H95560   2.060   7.898   9.180  4.4275 -2.7398  1.4451
  708MOL0     H95561   2.015   7.897   9.345 -0.6553 -1.5653 -1.9293
  708MOL0     H95562   1.935   8.798   8.861  0.5459 -0.1308 -0.0673
  708MOL0     H95563   1.843   9.007   8.881 -0.1172 -1.6611  0.9768
  708MOL0     H95564   1.388   9.195   8.621 -2.1340  3.9232 -2.1360
  708MOL0     H95565   1.229   9.388   8.632  2.5234  2.9772 -0.6460
  708MOL0     H95566   1.164  10.715   8.211 -2.3018 -1.9829 -0.0159
  708MOL0     H95567   1.247  10.944   8.226  0.4089  1.1312  1.4444
  708MOL0     H95568   1.129  11.383   8.050 -2.8546 -0.9901  1.2991
  708MOL0     H95569   1.227  11.588   8.026  0.4255 -4.4432 -2.2776
  708MOL0     H95570   1.481  11.642   8.342  2.1980  2.1208  1.7517
  708MOL0     H95571   1.520  11.673   8.173  1.7989 -0.0084  1.7838
  708MOL0     H95572   1.516  11.929   8.278 -0.6617  0.8393 -0.1098
  708MOL0     H95573   1.654  11.811   8.314 -0.4657 -0.6842  0.1089
  708MOL0     H95574   1.527  11.751   8.519 -2.1800  0.6082  1.6409
  708MOL0     H95575   1.412  11.890   8.487 -1.6230 -2.2326 -0.8511
  708MOL0     H95576   1.633  12.041   8.485 -0.0879  1.8007  1.2377
  708MOL0     H95577   1.710  11.888   8.532 -0.4748 -0.1727  0.7427
  708MOL0     H95578   1.493  12.079   8.864  2.2544  2.5031  0.0222
  708MOL0     H95579   1.258  11.634   8.454  0.0023 -1.5323  0.2564
  708MOL0     H95580   1.174  11.417   8.480 -1.0482 -0.7941  0.0599
  709MOL0     O95581   3.146   4.218   6.679 -0.5780  0.3345 -0.0138
  709MOL0     C95582   3.179   4.105   6.642 -0.4253  0.0212  0.4268
  709MOL0     O95583   3.168   4.058   6.510 -0.0188  0.3944 -0.2327
  709MOL0     C95584   3.111   4.140   6.413 -0.5853 -0.1602 -0.3720
  709MOL0     C95585   2.987   4.108   6.355 -0.0676  0.9043 -0.5656
  709MOL0     C95586   2.928   4.190   6.264 -0.0260 -0.9285 -0.1870
  709MOL0     C95587   3.005   4.301   6.225  0.1757  0.6333  0.8174
  709MOL0     O95588   2.948   4.374   6.127  0.1464  0.2779  0.2988
  709MOL0     C95589   2.907   4.504   6.156 -0.0723  0.1908  0.8920
  709MOL0     C95590   2.845   4.554   6.023 -0.1253  0.0878 -0.2810
  709MOL0     C95591   2.935   4.644   5.939 -0.2052 -0.3176 -0.4349
  709MOL0     C95592   2.843   4.699   5.837 -0.4149 -0.5338  1.1170
  709MOL0     C95593   2.911   4.781   5.720 -0.4078 -0.2504 -0.4681
  709MOL0     C95594   2.993   4.686   5.623  0.7767  0.2096 -1.0116
  709MOL0     C95595   2.903   4.599   5.535 -0.6065 -0.6423 -0.6739
  709MOL0     C95596   2.988   4.573   5.407  0.5387 -0.1179 -0.2531
  709MOL0     N95597   2.945   4.445   5.332 -0.3508  0.2908 -0.1834
  709MOL0     C95598   2.832   4.431   5.256  0.3905  0.2047  0.2062
  709MOL0     C95599   2.817   4.301   5.220  0.4107 -0.6186  0.2971
  709MOL0     C95600   2.705   4.247   5.138  0.5296 -0.5312 -0.9028
  709MOL0     C95601   2.567   4.302   5.192  0.5815  0.3684 -0.5568
  709MOL0     C95602   2.536   4.267   5.340 -0.6989 -0.7599  0.7573
  709MOL0     C95603   2.388   4.292   5.372 -0.1765  0.3565  0.3813
  709MOL0     O95604   2.361   4.440   5.361  0.3820 -0.1357  0.0753
  709MOL0     C95605   2.231   4.476   5.330  0.3256 -0.3351 -0.8073
  709MOL0     C95606   2.226   4.610   5.287  1.0940  0.5292 -0.4736
  709MOL0     C95607   2.101   4.668   5.269  0.0208 -0.4178  0.1475
  709MOL0     C95608   2.105   4.808   5.218  0.5074  0.6475 -0.1545
  709MOL0     C95609   1.986   4.594   5.300 -0.0240  0.2797  0.1543
  709MOL0     C95610   1.853   4.654   5.294 -0.1750 -0.0358  0.0588
  709MOL0     O95611   1.838   4.789   5.290  0.9109  0.0134  0.4191
  709MOL0     C95612   1.712   4.846   5.279  0.5465  1.0827 -0.2463
  709MOL0     C95613   1.694   4.951   5.365  0.5476  0.2310 -0.0268
  709MOL0     C95614   1.582   5.023   5.357  0.5428  0.0231 -0.6679
  709MOL0     C95615   1.484   4.994   5.258 -0.1367  0.5099  0.1785
  709MOL0     O95616   1.367   5.065   5.243  0.2514 -0.1555 -0.8179
  709MOL0     C95617   1.303   5.116   5.364 -0.7251  0.0214 -0.2651
  709MOL0     C95618   1.165   5.167   5.360 -0.3895 -0.1731 -0.2013
  709MOL0     C95619   1.066   5.080   5.278  0.7104 -0.1180 -0.3788
  709MOL0     C95620   0.928   5.119   5.293  0.6196  0.0216 -0.3756
  709MOL0     C95621   0.906   5.256   5.235  0.6958 -0.3589  0.3806
  709MOL0     C95622   0.761   5.295   5.246  0.4370  0.4152 -0.6076
  709MOL0     C95623   0.703   5.304   5.383  0.9192 -0.0784  0.3189
  709MOL0     C95624   0.581   5.399   5.373  0.4261  0.6370 -0.2787
  709MOL0    Cl95625   0.516   5.431   5.536  0.2193  0.0542 -0.1994
  709MOL0     C95626   1.497   4.887   5.173 -0.7217 -0.0135  1.2247
  709MOL0     C95627   1.614   4.810   5.194 -0.4116 -1.1888 -1.1214
  709MOL0     O95628   1.760   4.572   5.311 -0.3601  0.6268  1.2536
  709MOL0     C95629   2.002   4.464   5.348  0.5851  0.5515 -0.6351
  709MOL0     C95630   2.120   4.399   5.361  0.3250  0.6485 -0.9385
  709MOL0     N95631   2.924   4.239   5.273  0.8725  0.6693 -0.6200
  709MOL0     N95632   3.002   4.321   5.347 -0.5830 -0.1791 -1.2541
  709MOL0     C95633   3.125   4.342   6.280 -0.4744  1.3913  0.4063
  709MOL0     C95634   3.179   4.253   6.378 -0.1187  0.3329 -0.1457
  709MOL0     C95635   3.223   4.009   6.740  1.4586  0.3611 -0.1663
  709MOL0     C95636   3.262   4.049   6.861 -0.2920 -0.6563  0.1289
  709MOL0     C95637   3.285   3.954   6.962 -0.0987  0.3805 -0.5464
  709MOL0     C95638   3.271   3.818   6.930  0.3152 -0.8163  0.2524
  709MOL0     O95639   3.289   3.718   7.023 -0.0563  0.5493 -0.7787
  709MOL0     C95640   3.268   3.746   7.163  0.2610  0.4218 -0.1363
  709MOL0     C95641   3.268   3.608   7.239  0.3317 -0.3594 -0.1121
  709MOL0     C95642   3.405   3.565   7.261 -0.4430 -0.5843  1.3978
  709MOL0     C95643   3.467   3.474   7.145 -0.7718  0.0472  0.2075
  709MOL0     C95644   3.616   3.465   7.139  0.0421  0.3316  0.5016
  709MOL0     C95645   3.736   3.453   7.152 -0.3132  0.6921 -0.7032
  709MOL0     C95646   3.241   3.778   6.801 -0.1520 -0.7891 -0.3134
  709MOL0     C95647   3.227   3.874   6.704 -0.2462 -0.2258  0.3200
  709MOL0     H95648   2.935   4.021   6.395 -0.0836  1.1852  0.0477
  709MOL0     H95649   2.831   4.174   6.218 -0.5042  3.0846 -0.9886
  709MOL0     H95650   2.822   4.493   6.224 -2.2559  0.6253 -1.6119
  709MOL0     H95651   2.979   4.573   6.199  0.0227  0.5009  0.2437
  709MOL0     H95652   2.810   4.475   5.956 -3.4009  1.0227  0.1453
  709MOL0     H95653   2.754   4.605   6.056 -0.3413 -1.2741  1.3464
  709MOL0     H95654   2.986   4.716   6.003  0.8596 -2.1322  0.8608
  709MOL0     H95655   3.009   4.579   5.891 -0.9441 -2.9158  1.6763
  709MOL0     H95656   2.800   4.614   5.784 -0.8006  1.3419 -1.7699
  709MOL0     H95657   2.758   4.752   5.880 -0.2102 -0.1121  1.0173
  709MOL0     H95658   2.831   4.830   5.664 -0.0635  1.0509  0.1354
  709MOL0     H95659   2.977   4.857   5.763 -2.0263  0.7558  0.3040
  709MOL0     H95660   3.054   4.763   5.575 -0.4209  2.7318  1.1950
  709MOL0     H95661   3.064   4.617   5.670  3.1495  2.1384 -1.5890
  709MOL0     H95662   2.887   4.501   5.580  1.3005 -1.4489 -1.6239
  709MOL0     H95663   2.811   4.653   5.511 -1.5708 -1.2512  1.3927
  709MOL0     H95664   3.095   4.561   5.426  0.1773 -2.2536  0.6242
  709MOL0     H95665   2.983   4.654   5.332 -2.9334 -0.6540 -0.7980
  709MOL0     H95666   2.757   4.505   5.230  1.4635  0.3800 -2.8512
  709MOL0     H95667   2.725   4.284   5.036 -1.9668  2.9016 -0.3445
  709MOL0     H95668   2.692   4.139   5.126  2.3280 -0.7720 -0.8818
  709MOL0     H95669   2.499   4.257   5.119  3.3947 -0.8248 -2.6084
  709MOL0     H95670   2.572   4.409   5.173 -1.4863  0.3323 -1.6109
  709MOL0     H95671   2.614   4.319   5.396 -0.2097  1.4216 -1.7085
  709MOL0     H95672   2.558   4.160   5.346  0.3000 -0.6450 -0.3788
  709MOL0     H95673   2.370   4.258   5.474  2.3263  1.3585  1.2527
  709MOL0     H95674   2.322   4.241   5.302 -1.4554  1.2118  0.9396
  709MOL0     H95675   2.322   4.657   5.269  2.3181 -1.7562 -0.3540
  709MOL0     H95676   2.195   4.841   5.166  0.5066  2.9323  1.1292
  709MOL0     H95677   2.019   4.822   5.151  0.5556 -0.5838 -0.4837
  709MOL0     H95678   2.081   4.877   5.300 -1.9588  0.1278 -0.3685
  709MOL0     H95679   1.752   4.972   5.454 -0.9223 -0.0796  1.0574
  709MOL0     H95680   1.563   5.106   5.423 -1.0281 -1.3323  0.6598
  709MOL0     H95681   1.306   5.034   5.436 -3.5438  1.2871  1.4498
  709MOL0     H95682   1.363   5.202   5.396 -0.2316 -0.7423  0.9293
  709MOL0     H95683   1.130   5.182   5.462  0.6911  0.0863  0.1459
  709MOL0     H95684   1.170   5.262   5.307  2.9963 -0.1569 -0.0486
  709MOL0     H95685   1.074   4.974   5.303 -0.0721 -0.3542 -1.0679
  709MOL0     H95686   1.096   5.093   5.173  0.4385 -1.5003 -0.6460
  709MOL0     H95687   0.868   5.051   5.232 -1.5590 -0.6340  2.2728
  709MOL0     H95688   0.909   5.111   5.401  2.0015  1.4751  0.0145
  709MOL0     H95689   0.919   5.257   5.127  1.5392 -2.2280  0.4292
  709MOL0     H95690   0.969   5.331   5.284  0.9156 -0.9659  1.0472
  709MOL0     H95691   0.756   5.394   5.199 -0.2562 -0.5074 -2.6034
  709MOL0     H95692   0.691   5.242   5.181 -1.1651  0.5968  0.8986
  709MOL0     H95693   0.773   5.338   5.460 -0.5670 -1.3623  2.3481
  709MOL0     H95694   0.663   5.206   5.411 -1.8637  1.2306  1.2300
  709MOL0     H95695   0.507   5.360   5.302  3.2849  0.3002 -3.3560
  709MOL0     H95696   0.623   5.489   5.327  2.7161 -0.8925 -1.3852
  709MOL0     H95697   1.424   4.858   5.098  2.3707  1.0484 -2.6114
  709MOL0     H95698   1.638   4.718   5.141  0.6213 -0.8402 -1.2892
  709MOL0     H95699   1.911   4.405   5.350 -0.9757  2.6159 -3.3590
  709MOL0     H95700   2.128   4.297   5.395 -2.8426  0.2802 -1.0732
  709MOL0     H95701   3.189   4.426   6.252 -0.8242  1.3881 -0.4471
  709MOL0     H95702   3.282   4.272   6.404  0.2551  1.8163 -2.3958
  709MOL0     H95703   3.276   4.156   6.872  0.9099 -0.9005  1.2121
  709MOL0     H95704   3.321   3.998   7.055 -2.4226  3.0203 -0.7480
  709MOL0     H95705   3.344   3.814   7.202  0.1629  0.4117  0.0734
  709MOL0     H95706   3.169   3.792   7.169 -0.1079 -0.3672 -0.0073
  709MOL0     H95707   3.193   3.541   7.198 -0.2451 -0.5582  1.2195
  709MOL0     H95708   3.229   3.626   7.340  1.4134  2.4762 -0.0958
  709MOL0     H95709   3.395   3.499   7.347  0.4257 -1.2451  1.0029
  709MOL0     H95710   3.463   3.652   7.292 -0.7692  0.2713 -0.2198
  709MOL0     H95711   3.414   3.508   7.056 -0.9517  0.2942  0.4073
  709MOL0     H95712   3.439   3.369   7.134  1.2895 -0.3980 -1.5991
  709MOL0     H95713   3.840   3.431   7.165 -0.2873 -0.6816 -2.8134
  709MOL0     H95714   3.224   3.673   6.783  1.0387 -1.5562  2.4796
  709MOL0     H95715   3.200   3.847   6.602 -0.0623 -0.1904  0.2613
  710MOL0     O95716   2.564   4.847   0.304  0.0312  0.0739  0.7121
  710MOL0     C95717   2.587   4.849   0.181  0.5761 -0.7198 -0.6357
  710MOL0     O95718   2.518   4.784   0.089  0.4460  0.1395  0.0201
  710MOL0     C95719   2.386   4.737   0.122 -0.0153  0.2730  0.2502
  710MOL0     C95720   2.307   4.759   0.237 -0.6006  0.1584  0.5010
  710MOL0     C95721   2.185   4.689   0.248 -0.2319  0.6843 -0.1888
  710MOL0     C95722   2.145   4.596   0.150 -0.4403 -0.0262  0.5807
  710MOL0     O95723   2.033   4.516   0.160 -0.2045 -0.5355 -0.4725
  710MOL0     C95724   1.915   4.599   0.156 -0.1873  0.9772  0.1628
  710MOL0     C95725   1.886   4.607   0.004  0.2419  0.9659 -0.3077
  710MOL0     C95726   1.758   4.683  -0.024  0.3469 -0.2907  0.2910
  710MOL0     C95727   1.783   4.794  -0.129  0.5778 -0.5242 -0.4929
  710MOL0     C95728   1.673   4.896  -0.116  0.1070 -0.6565  0.1725
  710MOL0     C95729   1.622   4.942  -0.246 -0.3555  0.0638  0.8094
  710MOL0     C95730   1.731   5.036  -0.323 -0.7193  0.2920 -0.3072
  710MOL0     C95731   1.673   5.142  -0.425  0.1507 -0.6632  0.6299
  710MOL0     N95732   1.580   5.062  -0.499  0.4437  0.2935  0.0781
  710MOL0     C95733   1.618   4.960  -0.587  0.5193  0.1405  0.7956
  710MOL0     C95734   1.505   4.900  -0.632  0.1214  0.3608  0.0982
  710MOL0     C95735   1.503   4.770  -0.711  0.1760 -0.2004  0.3968
  710MOL0     C95736   1.528   4.653  -0.628 -0.7512 -0.6194 -0.6016
  710MOL0     C95737   1.438   4.631  -0.501 -0.5407 -1.2742  0.5050
  710MOL0     C95738   1.289   4.635  -0.551 -0.4693  0.1779 -0.2984
  710MOL0     O95739   1.189   4.571  -0.473 -0.0314 -0.7648 -0.0860
  710MOL0     C95740   1.162   4.627  -0.347 -0.3869  0.1205 -0.3821
  710MOL0     C95741   1.205   4.747  -0.298 -1.5993 -0.1351 -0.5696
  710MOL0     C95742   1.195   4.787  -0.164 -0.1664 -0.7355 -0.7398
  710MOL0     C95743   1.252   4.920  -0.125 -0.4079  0.8864 -0.5560
  710MOL0     C95744   1.118   4.704  -0.075  0.2902  0.3174  0.1230
  710MOL0     C95745   1.107   4.719   0.076  0.4144 -0.6587 -0.0328
  710MOL0     O95746   1.029   4.631   0.134  0.1509  0.1626 -0.5940
  710MOL0     C95747   0.968   4.670   0.251 -0.6289  0.6090  1.0459
  710MOL0     C95748   0.966   4.573   0.354 -0.5500 -0.8158  0.5467
  710MOL0     C95749   0.902   4.591   0.477 -0.3985 -0.2597  0.3847
  710MOL0     C95750   0.847   4.723   0.493  0.1140  0.7856 -0.4641
  710MOL0     O95751   0.788   4.768   0.606 -0.0708 -0.8008  1.1500
  710MOL0     C95752   0.868   4.775   0.724 -0.3896  0.4904  0.3035
  710MOL0     C95753   0.780   4.790   0.852  0.2183 -0.2199  0.3512
  710MOL0     C95754   0.678   4.900   0.859 -0.0232  0.5031  0.0482
  710MOL0     C95755   0.747   5.033   0.858  0.3959  0.6528 -1.0450
  710MOL0     C95756   0.655   5.156   0.871  0.1538  0.5841 -0.3766
  710MOL0     C95757   0.564   5.173   0.756  0.9578  0.6146  0.6945
  710MOL0     C95758   0.504   5.314   0.760 -0.4356  0.5601  0.0044
  710MOL0     C95759   0.390   5.333   0.659  0.6951  0.0854  0.8300
  710MOL0    Cl95760   0.259   5.232   0.682  0.0526 -0.4921  0.1572
  710MOL0     C95761   0.828   4.819   0.388 -0.3445  0.0603 -1.1588
  710MOL0     C95762   0.910   4.796   0.275 -0.3330 -0.2655 -0.1659
  710MOL0     O95763   1.171   4.804   0.138 -0.5402 -0.0576  0.2221
  710MOL0     C95764   1.058   4.584  -0.133 -0.3557  0.9608  0.1939
  710MOL0     C95765   1.089   4.545  -0.265  0.3219 -0.6785  0.1548
  710MOL0     N95766   1.399   4.954  -0.568  1.1413  0.8491  0.3586
  710MOL0     N95767   1.443   5.045  -0.486  0.4632 -0.4592  0.3047
  710MOL0     C95768   2.231   4.574   0.045 -0.2243  0.5586  0.0249
  710MOL0     C95769   2.347   4.642   0.027  0.1328 -0.1961 -1.1891
  710MOL0     C95770   2.682   4.947   0.140 -0.2174 -1.5377  0.0213
  710MOL0     C95771   2.762   4.929   0.026  0.2010 -0.8963 -0.2317
  710MOL0     C95772   2.867   5.016  -0.004 -0.2499  0.5045  0.3694
  710MOL0     C95773   2.909   5.122   0.084 -0.2968  1.1693  0.4079
  710MOL0     O95774   3.014   5.207   0.064 -0.9436  0.0171 -0.4093
  710MOL0     C95775   3.114   5.135  -0.014  0.5074  0.0022 -0.2232
  710MOL0     C95776   3.239   5.218  -0.032  0.2843 -0.1439 -0.1880
  710MOL0     C95777   3.215   5.339  -0.131  0.1099  0.1269  0.4976
  710MOL0     C95778   3.292   5.315  -0.264  0.7200  0.2708 -0.7495
  710MOL0     C95779   3.240   5.407  -0.365 -1.2484  0.0630 -0.5744
  710MOL0     C95780   3.190   5.473  -0.454 -0.1379 -0.0551 -0.1167
  710MOL0     C95781   2.820   5.143   0.195  0.1780 -0.5620 -0.4566
  710MOL0     C95782   2.712   5.056   0.228 -1.2384 -0.1128 -0.5504
  710MOL0     H95783   2.325   4.850   0.294 -2.4484  3.5810 -3.7349
  710MOL0     H95784   2.121   4.703   0.334  1.0063  0.2537  0.8440
  710MOL0     H95785   1.829   4.539   0.185 -1.8929  2.1474 -2.1487
  710MOL0     H95786   1.926   4.699   0.200  0.0730  0.4928  1.2249
  710MOL0     H95787   1.967   4.654  -0.053  0.4122  1.2065  0.1273
  710MOL0     H95788   1.876   4.507  -0.040 -1.4768  1.3431 -0.8561
  710MOL0     H95789   1.680   4.617  -0.060  0.8204 -1.8948  2.0286
  710MOL0     H95790   1.718   4.725   0.069 -0.7923  2.2016 -1.2031
  710MOL0     H95791   1.874   4.847  -0.099  0.9131 -2.4384  2.2400
  710MOL0     H95792   1.792   4.751  -0.229  0.8950  0.9270 -1.1109
  710MOL0     H95793   1.581   4.857  -0.070  0.0353 -0.7405 -0.0426
  710MOL0     H95794   1.707   4.977  -0.051  1.4775 -0.0898 -1.1947
  710MOL0     H95795   1.575   4.868  -0.312 -0.6975  0.4889  0.5694
  710MOL0     H95796   1.538   5.009  -0.225 -1.2363 -1.1902  1.3886
  710MOL0     H95797   1.790   5.083  -0.243 -1.3613 -0.5430  0.6725
  710MOL0     H95798   1.809   4.976  -0.370 -1.9451 -1.8347  0.2498
  710MOL0     H95799   1.754   5.177  -0.489  0.7058 -0.1819  1.5839
  710MOL0     H95800   1.623   5.222  -0.371 -0.8642  0.4855 -1.8284
  710MOL0     H95801   1.718   4.929  -0.616 -0.3573 -2.4065  0.2141
  710MOL0     H95802   1.408   4.767  -0.765  0.2470  2.7728 -0.0204
  710MOL0     H95803   1.578   4.761  -0.790 -0.8947 -1.5187 -0.5246
  710MOL0     H95804   1.634   4.651  -0.604  0.1227 -0.3477 -3.8979
  710MOL0     H95805   1.507   4.574  -0.701 -3.9010  1.3415 -2.0377
  710MOL0     H95806   1.456   4.713  -0.432  0.2602  1.9557 -3.2052
  710MOL0     H95807   1.470   4.532  -0.466 -0.0072 -1.1025  0.4999
  710MOL0     H95808   1.278   4.570  -0.639 -2.4317 -0.8600  0.6512
  710MOL0     H95809   1.262   4.736  -0.583  1.8944  0.3057 -2.2031
  710MOL0     H95810   1.260   4.815  -0.363  0.6332 -1.3615 -0.0678
  710MOL0     H95811   1.303   4.974  -0.206 -1.5755 -0.5145 -2.2820
  710MOL0     H95812   1.169   4.973  -0.077 -0.1367  0.0763  0.8710
  710MOL0     H95813   1.331   4.893  -0.054 -0.7612 -1.6361 -1.0493
  710MOL0     H95814   1.025   4.482   0.348 -1.5382 -1.4358 -0.0710
  710MOL0     H95815   0.887   4.519   0.557  1.6665  0.4033  1.4245
  710MOL0     H95816   0.937   4.690   0.729  1.5307  1.7858 -1.9961
  710MOL0     H95817   0.923   4.869   0.719 -1.0858  0.8181 -2.1750
  710MOL0     H95818   0.724   4.696   0.859 -0.1271 -0.0975 -0.6003
  710MOL0     H95819   0.842   4.790   0.942  0.0098 -2.5761  0.5762
  710MOL0     H95820   0.621   4.890   0.952  1.6577  0.7521  1.1561
  710MOL0     H95821   0.606   4.888   0.778 -0.2843 -0.9182  0.4564
  710MOL0     H95822   0.823   5.039   0.937 -0.4295  1.1739 -0.2804
  710MOL0     H95823   0.790   5.041   0.758  1.6273 -0.6205 -0.6512
  710MOL0     H95824   0.730   5.236   0.872  3.2467 -2.1037  0.7792
  710MOL0     H95825   0.604   5.166   0.967  0.4061 -1.1887 -0.0316
  710MOL0     H95826   0.623   5.160   0.664  0.9513  2.6849  0.3392
  710MOL0     H95827   0.478   5.106   0.758  1.8233 -0.5784 -0.1471
  710MOL0     H95828   0.577   5.394   0.746  0.0529  0.2712  0.8032
  710MOL0     H95829   0.461   5.320   0.860  1.3420 -1.2310  0.9589
  710MOL0     H95830   0.428   5.308   0.559 -1.3352 -4.0139  0.8811
  710MOL0     H95831   0.360   5.438   0.662 -0.2831 -0.2060  1.6796
  710MOL0     H95832   0.785   4.916   0.411 -0.4305 -0.2419  0.0420
  710MOL0     H95833   0.909   4.870   0.196  0.8758  0.6317  0.6191
  710MOL0     H95834   1.000   4.509  -0.081  0.6287 -1.3894 -1.9133
  710MOL0     H95835   1.048   4.456  -0.312 -3.7578  0.4392  1.1817
  710MOL0     H95836   2.204   4.499  -0.029  0.2036 -1.0419  1.4268
  710MOL0     H95837   2.411   4.629  -0.060  0.1757  0.6531 -1.2968
  710MOL0     H95838   2.746   4.857  -0.054 -1.3706 -2.2543  1.2291
  710MOL0     H95839   2.923   4.999  -0.096 -0.6817  1.8254 -0.1552
  710MOL0     H95840   3.137   5.038   0.032 -0.5269  0.3761  1.1454
  710MOL0     H95841   3.077   5.111  -0.115 -1.1870  2.5043 -0.2779
  710MOL0     H95842   3.327   5.161  -0.063  1.1827  2.1661 -2.1307
  710MOL0     H95843   3.260   5.251   0.071 -2.3056  0.1340  0.3316
  710MOL0     H95844   3.245   5.433  -0.083 -0.1370  0.3068  0.3040
  710MOL0     H95845   3.109   5.358  -0.149  0.8417  2.8101 -1.5647
  710MOL0     H95846   3.273   5.214  -0.302 -1.1875  0.4689 -0.4390
  710MOL0     H95847   3.398   5.336  -0.249  0.2212  0.5665  4.1805
  710MOL0     H95848   3.142   5.536  -0.526  3.1743  3.7434  0.6460
  710MOL0     H95849   2.858   5.223   0.258  2.0297 -0.4812 -1.6225
  710MOL0     H95850   2.664   5.068   0.325 -2.3148  1.5830 -1.2406
  711MOL0     O95851   2.710   7.196   8.882  0.1527  0.3944 -0.0062
  711MOL0     C95852   2.759   7.091   8.841 -0.8129 -0.4077 -0.7869
  711MOL0     O95853   2.894   7.080   8.805  0.0715 -0.1125  0.5801
  711MOL0     C95854   2.971   7.198   8.808  0.1486 -0.0198  0.8210
  711MOL0     C95855   2.948   7.308   8.728 -0.2452 -0.3580 -0.5835
  711MOL0     C95856   3.034   7.421   8.742 -0.0404 -0.4000  0.4321
  711MOL0     C95857   3.147   7.418   8.816 -0.1091  0.1021 -0.1676
  711MOL0     O95858   3.216   7.529   8.841 -0.2163 -0.6083 -0.3698
  711MOL0     C95859   3.175   7.653   8.773 -0.7273  0.0503 -0.2161
  711MOL0     C95860   3.280   7.752   8.797  0.1310 -0.8586 -0.7151
  711MOL0     C95861   3.245   7.894   8.741  0.3550  0.5327  0.0835
  711MOL0     C95862   3.365   7.952   8.651  0.2742  1.3596 -0.5324
  711MOL0     C95863   3.324   8.084   8.580 -0.0763  1.1472 -0.4357
  711MOL0     C95864   3.200   8.070   8.488 -0.4391 -0.0987  0.5582
  711MOL0     C95865   3.188   8.203   8.417 -1.2181  0.3121  0.1347
  711MOL0     C95866   3.109   8.313   8.475  1.1798 -0.3314  0.7748
  711MOL0     N95867   3.107   8.437   8.391 -0.0916  0.6694 -0.5583
  711MOL0     C95868   3.162   8.560   8.432  0.0373 -0.5996 -0.6098
  711MOL0     C95869   3.129   8.651   8.340  0.8076  0.4679  0.8281
  711MOL0     C95870   3.164   8.801   8.349 -0.5815 -0.4520 -0.2166
  711MOL0     C95871   3.083   8.874   8.240 -1.0061  0.1078  0.1831
  711MOL0     C95872   3.087   9.025   8.236  0.9595 -0.3183  1.1953
  711MOL0     C95873   3.035   9.066   8.093 -0.1224 -0.0693  0.0224
  711MOL0     O95874   2.893   9.034   8.070 -1.3795  0.4522  0.1370
  711MOL0     C95875   2.799   9.127   8.078  0.9193 -0.7737  0.3126
  711MOL0     C95876   2.679   9.102   8.004 -0.1323 -0.4156 -0.0796
  711MOL0     C95877   2.575   9.197   7.984  0.1554 -0.3465  0.7080
  711MOL0     C95878   2.453   9.166   7.902  0.1415  0.4921  0.3076
  711MOL0     C95879   2.594   9.326   8.043  0.4800  0.9045  0.4322
  711MOL0     C95880   2.508   9.442   8.019  0.9445 -0.9716  0.3105
  711MOL0     O95881   2.487   9.528   8.121 -0.9160  0.4085 -0.3111
  711MOL0     C95882   2.375   9.599   8.124  0.1117 -0.0456 -0.7775
  711MOL0     C95883   2.377   9.740   8.127 -0.1495  0.1853 -0.2938
  711MOL0     C95884   2.262   9.814   8.141 -0.0880  0.3546 -0.7033
  711MOL0     C95885   2.134   9.761   8.170 -0.9191  1.0317  0.7938
  711MOL0     O95886   2.028   9.849   8.181  0.1591 -0.2501 -0.1325
  711MOL0     C95887   1.892   9.779   8.171 -1.0688 -0.9144 -0.4597
  711MOL0     C95888   1.777   9.879   8.170  0.4641  0.5879  0.0939
  711MOL0     C95889   1.783   9.982   8.058 -0.2333  0.4081  0.2565
  711MOL0     C95890   1.751   9.932   7.918  0.7556 -0.2910 -1.2249
  711MOL0     C95891   1.762  10.030   7.795 -1.1186  0.3749 -0.0954
  711MOL0     C95892   1.907  10.076   7.748 -1.4293  0.2770  0.1187
  711MOL0     C95893   1.984   9.966   7.676  0.6379 -0.4815  0.9950
  711MOL0     C95894   2.117  10.030   7.636  0.7160  0.5216 -0.7032
  711MOL0    Cl95895   2.230  10.023   7.773 -0.3973  0.4757  0.3708
  711MOL0     C95896   2.124   9.620   8.168  0.2075  0.6006 -0.4193
  711MOL0     C95897   2.243   9.543   8.147  0.1042 -0.4674 -0.5390
  711MOL0     O95898   2.453   9.446   7.909  0.3237 -0.0582 -0.1333
  711MOL0     C95899   2.706   9.345   8.118 -0.2937 -0.2051  0.0117
  711MOL0     C95900   2.818   9.254   8.133 -0.3461  0.0094 -0.1385
  711MOL0     N95901   3.059   8.578   8.237 -0.7176  0.2658  0.3009
  711MOL0     N95902   3.050   8.453   8.271 -0.2120  0.6293 -0.3560
  711MOL0     C95903   3.175   7.305   8.884 -0.3864 -0.7023 -0.9300
  711MOL0     C95904   3.089   7.192   8.883 -0.8305 -0.3550 -0.6585
  711MOL0     C95905   2.684   6.963   8.846  0.5790 -0.2085 -0.2470
  711MOL0     C95906   2.742   6.845   8.816 -0.1248  0.1673 -0.0071
  711MOL0     C95907   2.656   6.734   8.805 -0.8940 -0.0961  0.4241
  711MOL0     C95908   2.514   6.735   8.825 -0.6745  0.8348 -0.2436
  711MOL0     O95909   2.420   6.638   8.796  0.3334  0.3278 -0.2711
  711MOL0     C95910   2.460   6.507   8.772  0.5928 -0.3463 -0.4381
  711MOL0     C95911   2.340   6.408   8.743 -0.0665  0.0934  0.1078
  711MOL0     C95912   2.363   6.254   8.749  0.3579  0.1187  0.1574
  711MOL0     C95913   2.498   6.228   8.680 -0.1835  0.2351  0.4530
  711MOL0     C95914   2.543   6.085   8.663  0.2405  0.2729 -0.1666
  711MOL0     C95915   2.587   5.972   8.671 -0.5070 -0.2803 -0.1955
  711MOL0     C95916   2.463   6.855   8.862 -0.2114 -0.8312 -0.2140
  711MOL0     C95917   2.544   6.968   8.872 -0.4287  0.3754 -1.1052
  711MOL0     H95918   2.859   7.315   8.666  0.5252 -2.4869 -2.0573
  711MOL0     H95919   2.994   7.506   8.689  2.7263  1.7390  1.5387
  711MOL0     H95920   3.161   7.633   8.666  2.6056  1.2438 -1.0032
  711MOL0     H95921   3.080   7.680   8.819 -0.8905  2.5671 -1.8475
  711MOL0     H95922   3.299   7.756   8.904 -0.4827  1.4381 -0.6439
  711MOL0     H95923   3.374   7.718   8.752 -0.0092 -2.3128  0.0213
  711MOL0     H95924   3.160   7.895   8.673  0.6643  1.4074 -0.3021
  711MOL0     H95925   3.209   7.953   8.826 -1.2657  1.3083 -1.0923
  711MOL0     H95926   3.449   7.966   8.720 -0.6943 -0.4761  1.1021
  711MOL0     H95927   3.387   7.873   8.578  1.6472 -1.4750  2.6622
  711MOL0     H95928   3.311   8.171   8.646  3.2456  0.8337  0.8484
  711MOL0     H95929   3.407   8.106   8.513  0.1910  1.4184 -0.0192
  711MOL0     H95930   3.211   7.999   8.405  2.0552  0.2426  0.5126
  711MOL0     H95931   3.102   8.047   8.531 -1.9745  2.7788 -1.0724
  711MOL0     H95932   3.288   8.241   8.396 -0.1616  1.0036  5.0935
  711MOL0     H95933   3.141   8.182   8.320 -2.8389  1.1620  0.6986
  711MOL0     H95934   3.144   8.345   8.574 -3.8598  2.7773  1.8593
  711MOL0     H95935   3.005   8.283   8.490  0.6089 -0.5499 -2.8530
  711MOL0     H95936   3.221   8.581   8.520  0.8947  0.5916 -1.4280
  711MOL0     H95937   3.146   8.833   8.452 -1.1793  1.9843 -1.0180
  711MOL0     H95938   3.271   8.816   8.330 -0.8338  3.3714  0.5302
  711MOL0     H95939   2.980   8.841   8.251 -0.9213 -1.2784 -2.3917
  711MOL0     H95940   3.127   8.846   8.144  2.0610  1.9402  0.9181
  711MOL0     H95941   3.192   9.055   8.248  1.3080 -0.2261 -1.5362
  711MOL0     H95942   3.017   9.065   8.310  0.1569 -1.5761  1.1485
  711MOL0     H95943   3.087   9.017   8.011 -0.1318  1.2995 -0.8382
  711MOL0     H95944   3.045   9.175   8.091 -3.6273  0.5365  3.0658
  711MOL0     H95945   2.664   9.007   7.953  0.0030  0.6721 -2.2944
  711MOL0     H95946   2.429   9.059   7.895 -0.0530  0.6260 -1.5900
  711MOL0     H95947   2.366   9.220   7.940 -0.2673 -0.4616  0.7833
  711MOL0     H95948   2.475   9.203   7.801  0.3531 -1.1494 -0.2808
  711MOL0     H95949   2.473   9.790   8.118 -0.3971  1.1204  1.7751
  711MOL0     H95950   2.273   9.920   8.117 -1.4320 -0.0753 -3.6491
  711MOL0     H95951   1.903   9.729   8.075  3.0697 -1.2802  0.0291
  711MOL0     H95952   1.874   9.712   8.256  1.2376 -2.7070 -1.2709
  711MOL0     H95953   1.674   9.842   8.173  0.1617  1.0540 -2.3498
  711MOL0     H95954   1.773   9.935   8.264 -1.3931  1.9071 -0.7127
  711MOL0     H95955   1.881  10.032   8.053 -0.7414  1.7714  2.3977
  711MOL0     H95956   1.697  10.049   8.071 -0.1289  0.8914 -1.3265
  711MOL0     H95957   1.822   9.853   7.896  3.4221  1.8277 -0.7442
  711MOL0     H95958   1.646   9.900   7.924  0.0073  2.0629 -0.1600
  711MOL0     H95959   1.700  10.117   7.822 -2.3026 -1.5105  4.1631
  711MOL0     H95960   1.721   9.982   7.706  2.2781 -0.5765 -1.2864
  711MOL0     H95961   1.891  10.158   7.678  1.8897 -0.8661 -2.2583
  711MOL0     H95962   1.960  10.124   7.830  0.8590 -1.2814 -0.3436
  711MOL0     H95963   1.933   9.925   7.588 -1.8043 -2.6225  3.2290
  711MOL0     H95964   2.007   9.881   7.741 -2.3880 -1.0610  1.4520
  711MOL0     H95965   2.110  10.128   7.588  3.5018  0.3973 -1.5441
  711MOL0     H95966   2.152   9.964   7.557 -0.5721  0.0816 -0.9288
  711MOL0     H95967   2.030   9.573   8.197  1.3838 -1.0619  0.8995
  711MOL0     H95968   2.235   9.434   8.146  2.4491 -0.6948 -3.0059
  711MOL0     H95969   2.733   9.435   8.173  0.4229 -0.3063 -0.1674
  711MOL0     H95970   2.894   9.284   8.204 -2.1194 -1.2804  2.4602
  711MOL0     H95971   3.268   7.306   8.939  0.8800  3.8052 -2.7072
  711MOL0     H95972   3.114   7.093   8.921 -5.1944 -3.2068 -4.2175
  711MOL0     H95973   2.849   6.828   8.810  0.3781  2.2856  1.6460
  711MOL0     H95974   2.702   6.640   8.777 -2.2530 -1.5113  2.6186
  711MOL0     H95975   2.528   6.505   8.686 -4.3442  1.0317 -4.8926
  711MOL0     H95976   2.494   6.467   8.868 -1.7584 -0.9306  0.2040
  711MOL0     H95977   2.290   6.434   8.649  2.5099 -0.3115 -1.4545
  711MOL0     H95978   2.275   6.430   8.829  2.6072 -2.4021  3.0011
  711MOL0     H95979   2.284   6.190   8.710 -0.1849  0.1091  1.2304
  711MOL0     H95980   2.374   6.228   8.855  2.1945 -1.5387 -0.3848
  711MOL0     H95981   2.580   6.277   8.733  1.1830  2.6884 -3.4504
  711MOL0     H95982   2.501   6.273   8.580  1.0887 -1.1807 -0.1899
  711MOL0     H95983   2.639   5.878   8.675 -1.5529 -0.8490  0.4276
  711MOL0     H95984   2.358   6.861   8.889  0.1939  1.2460  1.1101
  711MOL0     H95985   2.499   7.051   8.926  2.5059 -0.2118  2.6616
  712MOL0     O95986   5.719   6.607   8.662 -0.0340 -0.0887 -0.4425
  712MOL0     C95987   5.699   6.513   8.750 -0.9303 -0.7465  0.7647
  712MOL0     O95988   5.752   6.387   8.732 -0.0442 -0.1362 -0.9387
  712MOL0     C95989   5.828   6.367   8.625 -0.2239  1.1581 -0.5097
  712MOL0     C95990   5.760   6.318   8.506 -0.1934 -0.3613 -0.1084
  712MOL0     C95991   5.834   6.311   8.390  0.2406  0.3068  0.6592
  712MOL0     C95992   5.966   6.363   8.394 -0.8509  1.1688  0.9847
  712MOL0     O95993   6.039   6.350   8.279  0.0161  0.2067  0.6934
  712MOL0     C95994   6.020   6.455   8.188 -0.9953 -0.3672  0.2633
  712MOL0     C95995   6.115   6.471   8.066 -0.0650 -0.3861  1.1840
  712MOL0     C95996   6.139   6.358   7.967 -0.1887  0.1260  0.4783
  712MOL0     C95997   6.269   6.384   7.877  0.1668  0.0592  0.0542
  712MOL0     C95998   6.296   6.266   7.786 -0.6786  0.2750 -0.8060
  712MOL0     C95999   6.422   6.287   7.692  0.7712 -0.6640  0.1971
  712MOL0     C96000   6.363   6.346   7.557 -0.2586  0.7105  0.6627
  712MOL0     C96001   6.475   6.400   7.471 -0.0735  0.1259  0.1379
  712MOL0     N96002   6.518   6.539   7.509  0.3494  0.3022 -0.1132
  712MOL0     C96003   6.468   6.660   7.473 -0.2483  0.5323  0.8302
  712MOL0     C96004   6.514   6.748   7.574  0.2113  0.5814 -0.1030
  712MOL0     C96005   6.487   6.892   7.615  0.4396  0.2682  0.6620
  712MOL0     C96006   6.486   6.911   7.770 -1.2236  0.4217 -0.5473
  712MOL0     C96007   6.393   6.806   7.841 -0.2231 -0.3335  0.4837
  712MOL0     C96008   6.308   6.847   7.970 -0.6945  0.3571  0.5134
  712MOL0     O96009   6.201   6.934   7.931 -0.1158  0.8898 -0.4272
  712MOL0     C96010   6.183   7.061   7.966  0.4475  0.1898  0.3068
  712MOL0     C96011   6.154   7.156   7.866  0.5809  0.1629 -0.2998
  712MOL0     C96012   6.137   7.291   7.892  0.6565 -0.2901 -0.5551
  712MOL0     C96013   6.106   7.375   7.775  0.0348 -0.2057  0.2821
  712MOL0     C96014   6.145   7.333   8.026  1.2495  1.0370 -0.1689
  712MOL0     C96015   6.098   7.468   8.080 -0.6522  1.0882 -0.1546
  712MOL0     O96016   6.107   7.570   7.988 -0.7230  1.0566 -0.1531
  712MOL0     C96017   6.067   7.700   8.022  0.7478  0.3869  0.9761
  712MOL0     C96018   5.972   7.764   7.945 -0.1428  0.3322  0.4471
  712MOL0     C96019   5.930   7.889   7.982  0.7871  0.1556 -0.0171
  712MOL0     C96020   5.970   7.949   8.106  0.1495 -0.0539 -0.3589
  712MOL0     O96021   5.933   8.080   8.120 -0.1609  0.0542  0.4002
  712MOL0     C96022   5.841   8.085   8.233 -0.8459 -0.2882 -0.0516
  712MOL0     C96023   5.785   8.223   8.287  0.5099  0.8114 -0.3498
  712MOL0     C96024   5.739   8.314   8.181 -0.0219 -0.0416 -0.3795
  712MOL0     C96025   5.658   8.431   8.233 -0.4661  0.1958 -0.2687
  712MOL0     C96026   5.593   8.507   8.117  0.1146 -0.2307  0.5763
  712MOL0     C96027   5.469   8.447   8.062  0.3082 -0.3613  0.4507
  712MOL0     C96028   5.440   8.520   7.933  0.4341 -0.5588 -0.2613
  712MOL0     C96029   5.292   8.502   7.872 -0.8388 -0.7911  1.0743
  712MOL0    Cl96030   5.171   8.557   7.991  0.0338 -0.1450 -0.1161
  712MOL0     C96031   6.057   7.880   8.192 -0.6006  0.3115  0.2589
  712MOL0     C96032   6.107   7.768   8.140  0.7857 -0.5091 -0.8458
  712MOL0     O96033   6.068   7.483   8.198  0.5312 -0.0432  0.9366
  712MOL0     C96034   6.182   7.233   8.124  0.4788  0.0504 -0.5585
  712MOL0     C96035   6.208   7.101   8.099  0.4822 -0.7814  0.0245
  712MOL0     N96036   6.598   6.666   7.654  0.7059 -0.0104 -0.1763
  712MOL0     N96037   6.595   6.545   7.622  0.2782  0.2027 -0.0291
  712MOL0     C96038   6.034   6.411   8.507 -0.2102 -0.4109 -0.0357
  712MOL0     C96039   5.957   6.419   8.619 -0.9976  1.0388  0.0511
  712MOL0     C96040   5.601   6.537   8.859 -0.4895  0.9381  0.1349
  712MOL0     C96041   5.525   6.656   8.867 -0.0843  0.1913  0.4727
  712MOL0     C96042   5.427   6.666   8.971  0.3454 -0.7880  0.2849
  712MOL0     C96043   5.429   6.579   9.077 -0.2285  0.3774 -0.4182
  712MOL0     O96044   5.350   6.609   9.182  0.0909 -0.0417 -1.2942
  712MOL0     C96045   5.310   6.495   9.271 -1.3155 -0.1777 -0.5471
  712MOL0     C96046   5.192   6.522   9.359  0.6247  0.0434  0.2934
  712MOL0     C96047   5.186   6.670   9.423  0.1909  0.1050  0.5166
  712MOL0     C96048   5.104   6.765   9.330  0.2514  0.2263 -0.0598
  712MOL0     C96049   4.960   6.729   9.323 -0.0122  0.7872  0.6743
  712MOL0     C96050   4.851   6.674   9.298 -0.0409 -0.4393 -0.4198
  712MOL0     C96051   5.494   6.453   9.063 -0.9152  0.0192  0.2706
  712MOL0     C96052   5.582   6.432   8.950  0.4918 -0.3774 -0.1520
  712MOL0     H96053   5.661   6.275   8.520 -0.4771 -0.2610 -1.7221
  712MOL0     H96054   5.788   6.261   8.305 -1.2548  1.6468  0.6335
  712MOL0     H96055   5.916   6.452   8.157 -0.3571 -2.4372 -1.9930
  712MOL0     H96056   6.050   6.541   8.249  3.9644 -0.9640 -0.8588
  712MOL0     H96057   6.079   6.559   8.011  3.1343  0.1576 -0.2827
  712MOL0     H96058   6.205   6.508   8.115  0.3751 -0.6199  0.5660
  712MOL0     H96059   6.150   6.261   8.017 -0.6073 -1.6104 -2.5105
  712MOL0     H96060   6.049   6.343   7.906 -2.3899  2.1609  2.9729
  712MOL0     H96061   6.252   6.471   7.813 -0.1900 -1.8464 -2.6108
  712MOL0     H96062   6.359   6.392   7.939 -0.6458  0.5887  1.2061
  712MOL0     H96063   6.315   6.183   7.855  3.1845  1.6570  0.0508
  712MOL0     H96064   6.208   6.231   7.730 -0.6748 -2.1956  0.5890
  712MOL0     H96065   6.494   6.359   7.732  2.5605 -1.2420 -1.8354
  712MOL0     H96066   6.462   6.189   7.666  2.5951 -0.1331  0.8466
  712MOL0     H96067   6.302   6.269   7.511 -0.1136  1.3047 -0.5697
  712MOL0     H96068   6.303   6.436   7.576  3.6614  3.7739  0.0359
  712MOL0     H96069   6.437   6.386   7.369  0.7843 -1.0349 -0.0349
  712MOL0     H96070   6.569   6.346   7.484  1.1575  1.8984 -0.9601
  712MOL0     H96071   6.394   6.671   7.395 -2.2169  2.2082  2.8038
  712MOL0     H96072   6.571   6.944   7.567  1.6829 -2.2264 -0.0142
  712MOL0     H96073   6.399   6.936   7.568 -1.4492 -1.2277  2.6142
  712MOL0     H96074   6.445   7.010   7.793 -3.7155 -0.7543  0.5084
  712MOL0     H96075   6.584   6.917   7.819 -2.1239  2.1482  1.1539
  712MOL0     H96076   6.449   6.713   7.859 -1.8847 -1.8672 -1.7797
  712MOL0     H96077   6.322   6.778   7.764 -0.1523  0.8148 -0.0134
  712MOL0     H96078   6.378   6.894   8.039 -0.6228 -0.8583  1.3024
  712MOL0     H96079   6.273   6.752   8.010  0.4894  0.0237  0.8083
  712MOL0     H96080   6.143   7.116   7.766  3.1729  1.3109 -1.1396
  712MOL0     H96081   6.114   7.318   7.682  3.5670 -0.7426  0.7809
  712MOL0     H96082   6.006   7.418   7.790  0.4546  0.3028  1.7235
  712MOL0     H96083   6.181   7.455   7.768 -0.5716  0.7018  2.9773
  712MOL0     H96084   5.929   7.715   7.858 -1.7812 -0.1668  1.5103
  712MOL0     H96085   5.865   7.949   7.919  1.8924  2.1360  0.6641
  712MOL0     H96086   5.763   8.017   8.199  0.1142 -0.2442 -2.6147
  712MOL0     H96087   5.887   8.042   8.322 -0.3420  0.3845  0.0197
  712MOL0     H96088   5.699   8.195   8.348 -0.3706 -1.9630 -2.6205
  712MOL0     H96089   5.860   8.278   8.344  1.0417  0.5488 -0.7797
  712MOL0     H96090   5.679   8.257   8.110 -1.7253 -2.3547  2.6772
  712MOL0     H96091   5.836   8.351   8.144  0.0807 -0.5973 -0.6689
  712MOL0     H96092   5.575   8.395   8.295 -1.8631  1.1541 -1.4877
  712MOL0     H96093   5.716   8.493   8.301 -0.0657 -2.7241  2.3056
  712MOL0     H96094   5.660   8.520   8.031 -1.0716  1.8872 -0.1073
  712MOL0     H96095   5.560   8.606   8.149 -2.8372 -1.5182  1.8659
  712MOL0     H96096   5.475   8.342   8.033  3.7715 -0.2536  0.3770
  712MOL0     H96097   5.387   8.469   8.131  1.8003  0.1418  2.1370
  712MOL0     H96098   5.509   8.484   7.856 -0.6029  1.6106 -2.3730
  712MOL0     H96099   5.456   8.626   7.956 -1.7135 -0.7618  2.7114
  712MOL0     H96100   5.277   8.395   7.854  2.0633 -1.0696 -0.2408
  712MOL0     H96101   5.292   8.558   7.778  2.0200 -1.0002  0.8640
  712MOL0     H96102   6.089   7.926   8.285  3.9329  0.7586 -1.3097
  712MOL0     H96103   6.185   7.717   8.196  1.3717 -0.9172 -1.9806
  712MOL0     H96104   6.186   7.270   8.227 -1.2270 -0.4784 -0.2829
  712MOL0     H96105   6.235   7.037   8.183 -2.8590  1.0201  2.7613
  712MOL0     H96106   6.137   6.441   8.490 -0.4258  0.2180 -0.2797
  712MOL0     H96107   6.008   6.470   8.700 -2.7628  1.4414  0.9536
  712MOL0     H96108   5.521   6.728   8.786  1.0869  1.5220  1.5442
  712MOL0     H96109   5.372   6.757   8.995  0.5490 -1.2061  2.5209
  712MOL0     H96110   5.296   6.400   9.219 -2.0868 -1.8562  2.4466
  712MOL0     H96111   5.396   6.473   9.335  0.3790  0.6706 -2.4327
  712MOL0     H96112   5.190   6.453   9.445  2.9158  2.0017  2.0469
  712MOL0     H96113   5.101   6.500   9.302  1.0821 -2.3439  0.3575
  712MOL0     H96114   5.286   6.706   9.447 -0.4317  1.3214  1.4014
  712MOL0     H96115   5.136   6.663   9.521 -0.7072  1.9740  0.2418
  712MOL0     H96116   5.139   6.755   9.227  2.0421  2.5950  0.2211
  712MOL0     H96117   5.109   6.872   9.354 -0.3437  0.7203 -1.9453
  712MOL0     H96118   4.753   6.634   9.283 -0.3434  0.0673  0.1227
  712MOL0     H96119   5.502   6.386   9.148  2.4264 -2.6220 -1.8630
  712MOL0     H96120   5.624   6.332   8.942 -0.3259 -0.8718  1.3754
  713MOL0     O96121  10.813   3.893   2.628  0.4461  0.6368 -0.3643
  713MOL0     C96122  10.766   3.910   2.521 -0.7988  0.2700  0.0398
  713MOL0     O96123  10.666   3.996   2.481  0.3164 -0.7157  0.4281
  713MOL0     C96124  10.616   4.088   2.569 -0.5660 -0.5501  0.7254
  713MOL0     C96125  10.688   4.199   2.594 -0.1375 -0.5606 -0.0958
  713MOL0     C96126  10.628   4.320   2.648 -0.6342 -0.1110  0.1198
  713MOL0     C96127  10.494   4.324   2.686  0.0034 -0.3465 -0.2662
  713MOL0     O96128  10.440   4.435   2.745  0.1561  0.1674  0.4541
  713MOL0     C96129  10.297   4.444   2.757  0.8988 -0.2612 -0.0629
  713MOL0     C96130  10.266   4.576   2.832  0.4497  0.2725 -0.6275
  713MOL0     C96131  10.308   4.583   2.987  0.4896 -0.1973 -0.3207
  713MOL0     C96132  10.355   4.728   3.028 -0.9088 -0.8484 -0.4181
  713MOL0     C96133  10.266   4.796   3.134 -0.1387 -0.2553 -0.5142
  713MOL0     C96134  10.324   4.929   3.162  0.3371  0.8353 -0.0742
  713MOL0     C96135  10.259   5.011   3.270 -1.0920 -0.5168  0.4188
  713MOL0     C96136  10.106   4.985   3.310  0.7612  0.1755 -1.6970
  713MOL0     N96137  10.055   5.098   3.388  0.5543  0.1000  0.1694
  713MOL0     C96138   9.946   5.190   3.350 -1.0011  0.0531 -0.8549
  713MOL0     C96139   9.911   5.255   3.459 -0.5918 -0.4109  0.4277
  713MOL0     C96140   9.812   5.361   3.473 -0.6334  0.1786 -0.0957
  713MOL0     C96141   9.730   5.372   3.610 -1.2453 -0.1898 -0.4545
  713MOL0     C96142   9.825   5.437   3.714  0.3672  0.1178  0.3071
  713MOL0     C96143   9.742   5.468   3.842  0.0934  0.5545 -0.0856
  713MOL0     O96144   9.667   5.353   3.889  0.8010 -0.7999  0.0762
  713MOL0     C96145   9.577   5.367   3.990  0.1859 -0.6272 -0.1464
  713MOL0     C96146   9.527   5.248   4.034 -0.4751 -0.0911  0.6298
  713MOL0     C96147   9.429   5.233   4.134 -0.4471 -0.2951 -0.1389
  713MOL0     C96148   9.388   5.096   4.175  0.2294  0.0638  0.5784
  713MOL0     C96149   9.393   5.352   4.204  0.3883  0.2286 -1.0452
  713MOL0     C96150   9.295   5.357   4.321  0.8312  0.0891  0.3840
  713MOL0     O96151   9.214   5.468   4.320  0.2113 -0.6151  1.3605
  713MOL0     C96152   9.136   5.498   4.422  0.8406 -0.1087  0.4902
  713MOL0     C96153   9.187   5.539   4.548 -0.5289 -0.1173  0.0631
  713MOL0     C96154   9.099   5.568   4.645  0.0615  0.7185 -1.3796
  713MOL0     C96155   8.961   5.548   4.642  0.8041 -0.4745 -0.1489
  713MOL0     O96156   8.882   5.554   4.758  0.3575 -0.1838 -0.3453
  713MOL0     C96157   8.753   5.596   4.744 -0.1221  0.0468 -1.0829
  713MOL0     C96158   8.690   5.616   4.873 -0.2658 -0.3122 -0.0979
  713MOL0     C96159   8.747   5.733   4.959  0.0010  0.1522  1.4045
  713MOL0     C96160   8.714   5.870   4.897 -0.4118 -0.0579  0.8195
  713MOL0     C96161   8.766   5.981   4.989  0.3111 -0.7429 -0.1168
  713MOL0     C96162   8.704   6.109   4.931  0.4024 -0.4794 -0.3124
  713MOL0     C96163   8.741   6.233   5.007  1.1627 -0.4138 -0.5658
  713MOL0     C96164   8.749   6.333   4.899 -1.4906 -0.7993  0.5459
  713MOL0    Cl96165   8.587   6.351   4.807 -0.2129  0.4955  0.4079
  713MOL0     C96166   8.904   5.515   4.513  0.5933  0.6795 -0.0280
  713MOL0     C96167   8.990   5.499   4.408  0.1931  0.2180 -1.2646
  713MOL0     O96168   9.288   5.275   4.406 -0.9893  0.1116  0.6412
  713MOL0     C96169   9.439   5.476   4.159  1.4171 -0.7205 -0.4193
  713MOL0     C96170   9.529   5.483   4.062  0.4511 -0.7917  0.5544
  713MOL0     N96171   9.994   5.209   3.553  0.3307  0.3694  0.4615
  713MOL0     N96172  10.083   5.118   3.516 -0.2072  0.5718 -0.4273
  713MOL0     C96173  10.422   4.196   2.681  0.6642 -0.5518  0.0994
  713MOL0     C96174  10.474   4.089   2.613 -0.4473  0.1459  0.4303
  713MOL0     C96175  10.837   3.823   2.423  0.6612  0.4964  0.5747
  713MOL0     C96176  10.820   3.844   2.289 -0.2985 -0.4703 -0.0210
  713MOL0     C96177  10.897   3.772   2.194  0.1791 -0.4935  0.3167
  713MOL0     C96178  10.965   3.662   2.241 -0.3366 -0.1100  0.4179
  713MOL0     O96179  11.050   3.587   2.159  0.2032  0.6892  0.1325
  713MOL0     C96180  11.031   3.592   2.017 -0.1036  1.3146  0.6753
  713MOL0     C96181  11.072   3.454   1.962 -0.2793 -0.9095 -0.2550
  713MOL0     C96182  11.000   3.335   2.014  0.1528  0.0468  0.0736
  713MOL0     C96183  11.020   3.204   1.933 -0.5116 -0.0958  0.6640
  713MOL0     C96184  11.160   3.174   1.940 -0.6697  0.7687 -0.0901
  713MOL0     C96185  11.286   3.170   1.940  0.0055 -0.4933  0.2049
  713MOL0     C96186  10.978   3.625   2.376 -0.0035  0.2241  0.4541
  713MOL0     C96187  10.913   3.714   2.463 -0.6566 -0.2076 -0.5162
  713MOL0     H96188  10.796   4.194   2.585 -0.2051 -3.3852 -0.0462
  713MOL0     H96189  10.685   4.411   2.659 -0.3928  0.0871 -2.2627
  713MOL0     H96190  10.247   4.445   2.660 -3.6476  1.0007  2.0357
  713MOL0     H96191  10.256   4.364   2.819 -1.1216  0.2546 -0.6458
  713MOL0     H96192  10.289   4.665   2.773  1.0024  0.1682 -0.5804
  713MOL0     H96193  10.157   4.573   2.830  0.4347 -1.1419  0.5334
  713MOL0     H96194  10.227   4.555   3.055  0.1942  0.3452 -0.4394
  713MOL0     H96195  10.395   4.517   2.992  0.1565 -0.5451  2.9299
  713MOL0     H96196  10.460   4.742   3.055 -1.1690  1.6369 -0.4440
  713MOL0     H96197  10.344   4.787   2.937  0.3434 -0.8455 -0.5814
  713MOL0     H96198  10.160   4.799   3.106 -0.6819 -1.0936  1.3401
  713MOL0     H96199  10.260   4.749   3.232  0.2173  1.0508  0.1565
  713MOL0     H96200  10.427   4.917   3.197 -0.2761 -4.5436  0.6466
  713MOL0     H96201  10.323   4.977   3.063  1.4881 -1.1000 -1.0809
  713MOL0     H96202  10.317   5.018   3.362  1.8594  2.8604 -1.4590
  713MOL0     H96203  10.255   5.114   3.234 -1.6797 -0.9168 -0.7271
  713MOL0     H96204  10.120   4.898   3.375  2.0570  0.9680 -0.8686
  713MOL0     H96205  10.038   4.970   3.225 -0.0531 -2.0435 -0.7278
  713MOL0     H96206   9.909   5.228   3.255 -0.5634  3.4801  0.1873
  713MOL0     H96207   9.860   5.457   3.452 -0.5990  0.2580  0.3270
  713MOL0     H96208   9.735   5.351   3.396 -2.3529  3.2117  1.0420
  713MOL0     H96209   9.707   5.270   3.642  0.0903 -0.6352 -0.8173
  713MOL0     H96210   9.636   5.418   3.578 -0.8443 -0.1398 -1.6144
  713MOL0     H96211   9.870   5.530   3.678  3.0848 -0.1673  2.6184
  713MOL0     H96212   9.908   5.368   3.735 -2.4195 -4.2874 -1.6279
  713MOL0     H96213   9.675   5.552   3.821 -1.5082 -1.2591 -2.7356
  713MOL0     H96214   9.815   5.493   3.920  0.6889  1.0749 -0.7938
  713MOL0     H96215   9.547   5.155   3.983 -1.3813  0.6622 -1.1913
  713MOL0     H96216   9.292   5.086   4.227  0.9737 -1.2604  1.7798
  713MOL0     H96217   9.376   5.047   4.078 -0.9204 -0.5228  0.9949
  713MOL0     H96218   9.466   5.057   4.242  0.2611  2.3960  2.0026
  713MOL0     H96219   9.292   5.552   4.572 -0.2673 -4.2238  2.0640
  713MOL0     H96220   9.137   5.613   4.736 -3.4211  0.8869  0.1612
  713MOL0     H96221   8.761   5.691   4.689  1.0263  0.1521 -0.7662
  713MOL0     H96222   8.697   5.525   4.683 -0.1056 -0.8365 -0.0865
  713MOL0     H96223   8.585   5.642   4.861 -0.8720 -3.2438 -2.4951
  713MOL0     H96224   8.695   5.520   4.925  2.5115 -1.8199 -2.8332
  713MOL0     H96225   8.855   5.718   4.970 -0.0847  0.5098  3.0335
  713MOL0     H96226   8.693   5.729   5.054 -0.1161  1.0367  1.3900
  713MOL0     H96227   8.759   5.885   4.799  1.6650  1.3339  1.8956
  713MOL0     H96228   8.606   5.878   4.891 -0.3867  0.8869  1.3785
  713MOL0     H96229   8.875   5.979   4.983  0.6614 -0.6545  3.6856
  713MOL0     H96230   8.725   5.980   5.091 -1.7567 -0.3622 -0.9082
  713MOL0     H96231   8.745   6.108   4.830 -0.1406 -2.7938 -0.5813
  713MOL0     H96232   8.596   6.100   4.923  0.4167  0.3220 -1.7965
  713MOL0     H96233   8.841   6.219   5.049  1.4578  1.6988 -0.4527
  713MOL0     H96234   8.673   6.246   5.091  0.9180 -0.7734 -0.7032
  713MOL0     H96235   8.835   6.312   4.835  0.0730  0.1846  2.2218
  713MOL0     H96236   8.783   6.430   4.936  2.9452 -2.6874  2.0708
  713MOL0     H96237   8.800   5.505   4.483  0.5231  0.6434  0.2239
  713MOL0     H96238   8.953   5.457   4.315  0.8028 -3.7623  0.0657
  713MOL0     H96239   9.415   5.560   4.224 -0.3847 -3.2764  2.5657
  713MOL0     H96240   9.554   5.587   4.049 -1.2953 -0.0736  2.3988
  713MOL0     H96241  10.321   4.188   2.721 -1.4840  2.6484 -3.8997
  713MOL0     H96242  10.430   3.992   2.592  1.9189 -1.6164  2.7912
  713MOL0     H96243  10.763   3.929   2.252 -0.0837 -0.8924 -1.3684
  713MOL0     H96244  10.895   3.805   2.090  2.4017  0.3310  0.4835
  713MOL0     H96245  10.932   3.617   1.977  1.1759  1.6677 -2.5871
  713MOL0     H96246  11.092   3.666   1.964 -2.8245  1.9459 -1.8994
  713MOL0     H96247  11.175   3.456   1.999 -0.9479  2.4274  1.7783
  713MOL0     H96248  11.074   3.475   1.855 -1.2444  2.1814  0.2638
  713MOL0     H96249  10.891   3.345   2.026  0.1028 -1.4886  1.2979
  713MOL0     H96250  11.033   3.328   2.118  0.0208  1.3376  0.2275
  713MOL0     H96251  10.988   3.221   1.830  0.1243  0.2452  0.5125
  713MOL0     H96252  10.968   3.123   1.985 -0.5429 -1.0104 -0.7433
  713MOL0     H96253  11.392   3.168   1.950  0.0695  1.1473  0.0569
  713MOL0     H96254  11.036   3.541   2.412 -0.8559 -0.3754  0.4471
  713MOL0     H96255  10.944   3.695   2.566  0.9690  1.7293 -0.5922
  714MOL0     O96256   5.483   0.502   4.657 -0.4865 -0.1434  0.5619
  714MOL0     C96257   5.372   0.459   4.625  0.3322  0.4917  0.9348
  714MOL0     O96258   5.278   0.524   4.546  0.5710  0.4694  0.5924
  714MOL0     C96259   5.299   0.660   4.516 -0.9739  0.5187  0.7865
  714MOL0     C96260   5.350   0.748   4.608 -0.7826 -0.7052  0.3169
  714MOL0     C96261   5.357   0.884   4.592 -0.8854 -0.1641 -0.2609
  714MOL0     C96262   5.312   0.939   4.471  0.2441  1.0966  0.0467
  714MOL0     O96263   5.328   1.072   4.436  0.1091 -0.2923 -0.6730
  714MOL0     C96264   5.359   1.168   4.534 -0.4201 -0.1013  0.3099
  714MOL0     C96265   5.349   1.308   4.485  0.0245  0.1469  0.1414
  714MOL0     C96266   5.448   1.387   4.581  0.1348 -0.3834  1.4929
  714MOL0     C96267   5.451   1.544   4.544 -0.0837  0.7286  0.9200
  714MOL0     C96268   5.530   1.617   4.648 -0.6983 -0.2994 -0.0475
  714MOL0     C96269   5.554   1.764   4.607  1.4428 -0.7044 -0.0012
  714MOL0     C96270   5.647   1.835   4.709  0.6464  0.6062  0.2169
  714MOL0     C96271   5.614   1.987   4.713 -0.2570  0.2722  0.0401
  714MOL0     N96272   5.669   2.057   4.589  1.1222  0.4642 -0.3503
  714MOL0     C96273   5.801   2.074   4.555  0.5276  0.0168  0.9676
  714MOL0     C96274   5.799   2.142   4.441 -0.0669 -0.3653 -0.8233
  714MOL0     C96275   5.922   2.175   4.362  0.4366  0.0834  1.2344
  714MOL0     C96276   6.053   2.172   4.433  0.0810 -0.2689 -0.0027
  714MOL0     C96277   6.172   2.225   4.356  0.4676  0.5041 -0.0645
  714MOL0     C96278   6.196   2.373   4.371  0.5484  0.3818  0.0757
  714MOL0     O96279   6.180   2.415   4.513 -1.3226  0.6489 -0.1435
  714MOL0     C96280   6.173   2.545   4.544  0.0251  0.2117  0.5794
  714MOL0     C96281   6.265   2.636   4.487 -0.6958 -1.2548 -0.4302
  714MOL0     C96282   6.254   2.771   4.506 -0.7200 -0.1009  0.2495
  714MOL0     C96283   6.335   2.860   4.412 -0.0791 -0.6177 -1.0622
  714MOL0     C96284   6.156   2.810   4.592 -0.3537  0.2971  0.1313
  714MOL0     C96285   6.127   2.957   4.616  0.4617  0.1680 -0.0091
  714MOL0     O96286   6.219   3.053   4.580 -0.7149  0.2630  0.3532
  714MOL0     C96287   6.167   3.181   4.597 -0.7104  0.6396  0.5551
  714MOL0     C96288   6.198   3.271   4.705 -0.5346 -0.2705 -0.2819
  714MOL0     C96289   6.150   3.404   4.712  0.3948  0.6729 -0.8750
  714MOL0     C96290   6.069   3.456   4.607 -0.2841  0.9282  1.3382
  714MOL0     O96291   6.026   3.579   4.594 -0.0400  0.2757 -0.0489
  714MOL0     C96292   6.104   3.679   4.659 -0.8140 -0.4676  0.7348
  714MOL0     C96293   6.068   3.824   4.622  0.8624 -0.5894 -0.1664
  714MOL0     C96294   6.164   3.934   4.660 -0.7286 -0.4003 -0.0091
  714MOL0     C96295   6.131   4.069   4.599  0.0588 -0.6580 -0.1423
  714MOL0     C96296   6.240   4.167   4.641 -0.0966 -0.3683 -0.9621
  714MOL0     C96297   6.211   4.309   4.596  0.5898  0.6243  0.7942
  714MOL0     C96298   6.106   4.375   4.679  0.4353 -0.2685 -0.4119
  714MOL0     C96299   6.131   4.523   4.679  0.7170 -0.8521 -0.3831
  714MOL0    Cl96300   6.300   4.562   4.726  0.2435 -0.0806  0.0233
  714MOL0     C96301   6.044   3.371   4.503  0.0111  0.3319  0.6509
  714MOL0     C96302   6.087   3.236   4.502  0.4081  0.2193 -0.9977
  714MOL0     O96303   6.019   2.976   4.674  0.2473  0.8357  0.2651
  714MOL0     C96304   6.075   2.717   4.656 -1.1762 -0.1328 -0.4338
  714MOL0     C96305   6.080   2.586   4.629  1.2492 -0.6532  0.1386
  714MOL0     N96306   5.666   2.170   4.404 -1.4381 -0.4224 -0.1718
  714MOL0     N96307   5.588   2.117   4.498 -0.5076  0.5619  0.0926
  714MOL0     C96308   5.256   0.851   4.378 -0.0799 -0.1313  0.8493
  714MOL0     C96309   5.243   0.714   4.403 -0.4295  0.6056 -0.2303
  714MOL0     C96310   5.337   0.317   4.656 -0.4809  0.4523 -1.0824
  714MOL0     C96311   5.435   0.221   4.666 -0.3701  0.3484 -0.1157
  714MOL0     C96312   5.421   0.085   4.694  0.7421 -0.4020  0.4840
  714MOL0     C96313   5.294   0.029   4.702 -0.4030 -0.2802 -0.4415
  714MOL0     O96314   5.262  -0.099   4.710 -0.2437 -0.3009  0.1477
  714MOL0     C96315   5.361  -0.195   4.748 -1.0636  0.2898  0.8913
  714MOL0     C96316   5.304  -0.327   4.788 -0.4829  0.1210  1.1877
  714MOL0     C96317   5.422  -0.422   4.815 -0.5753  0.1821 -0.3342
  714MOL0     C96318   5.375  -0.557   4.875 -0.3195 -0.2331 -0.1578
  714MOL0     C96319   5.328  -0.645   4.765 -1.2672 -0.1692 -0.2812
  714MOL0     C96320   5.283  -0.707   4.671 -0.0385 -0.7926  0.1656
  714MOL0     C96321   5.191   0.116   4.685 -0.2845 -0.4337 -0.2037
  714MOL0     C96322   5.207   0.261   4.669 -0.0917  0.3292 -0.6746
  714MOL0     H96323   5.369   0.715   4.710 -0.5984  0.2124  0.5917
  714MOL0     H96324   5.392   0.950   4.671  4.4691 -1.3583 -1.2192
  714MOL0     H96325   5.301   1.164   4.627 -3.1712  0.3255 -1.3037
  714MOL0     H96326   5.458   1.137   4.569 -0.1839 -0.2639 -0.4820
  714MOL0     H96327   5.392   1.324   4.386 -1.2309 -0.6324 -0.5536
  714MOL0     H96328   5.247   1.346   4.481  0.1444  0.7030  1.5997
  714MOL0     H96329   5.403   1.390   4.681 -1.1773 -0.3402  0.9195
  714MOL0     H96330   5.543   1.333   4.588 -0.6888 -2.1872 -0.1961
  714MOL0     H96331   5.494   1.550   4.444 -0.0043 -2.1470  0.7249
  714MOL0     H96332   5.344   1.565   4.547 -0.1136  0.5464  1.1141
  714MOL0     H96333   5.470   1.615   4.739 -0.7088 -1.5127 -0.0535
  714MOL0     H96334   5.623   1.561   4.664 -1.1086 -1.2277 -0.8362
  714MOL0     H96335   5.594   1.761   4.506 -0.3640 -0.7933 -0.7420
  714MOL0     H96336   5.464   1.825   4.594  0.6348 -0.5501  4.5874
  714MOL0     H96337   5.643   1.793   4.810 -0.1397 -1.4165 -0.6177
  714MOL0     H96338   5.750   1.801   4.694  1.2703  0.3585  3.9359
  714MOL0     H96339   5.657   2.035   4.801 -1.7250 -0.1475  1.0197
  714MOL0     H96340   5.507   2.006   4.730 -0.1830 -0.5217  1.5069
  714MOL0     H96341   5.886   2.026   4.604  0.7927 -0.7217 -0.1777
  714MOL0     H96342   5.914   2.125   4.265  0.7798 -1.2694  1.8941
  714MOL0     H96343   5.911   2.282   4.339 -0.5397 -0.1740  0.4274
  714MOL0     H96344   6.077   2.068   4.456 -0.8074 -0.4715  0.0404
  714MOL0     H96345   6.034   2.229   4.524 -1.3456 -1.5333  0.5226
  714MOL0     H96346   6.145   2.205   4.252  2.3219  1.1149 -0.6944
  714MOL0     H96347   6.257   2.163   4.383 -1.0845 -0.8880  1.9478
  714MOL0     H96348   6.120   2.423   4.311  0.9101 -0.9443 -1.5570
  714MOL0     H96349   6.291   2.405   4.327 -0.2413  2.5667 -0.1635
  714MOL0     H96350   6.335   2.602   4.412  0.2350 -2.7932  1.0675
  714MOL0     H96351   6.380   2.792   4.339 -0.6793 -2.7244  0.4097
  714MOL0     H96352   6.269   2.932   4.362  0.0030 -1.2225 -2.0757
  714MOL0     H96353   6.408   2.911   4.475 -0.5893  0.7947 -1.5738
  714MOL0     H96354   6.251   3.246   4.797 -0.7489  2.3804  0.6469
  714MOL0     H96355   6.166   3.457   4.805 -0.3448 -1.1297  0.3597
  714MOL0     H96356   6.090   3.668   4.767  0.1862 -1.5206  0.7829
  714MOL0     H96357   6.211   3.662   4.640 -1.0915 -4.1508  1.6927
  714MOL0     H96358   6.029   3.837   4.521 -0.0956  2.4750  0.4958
  714MOL0     H96359   5.980   3.861   4.674 -0.1689  2.3344 -3.5725
  714MOL0     H96360   6.265   3.916   4.622 -0.9518 -1.0225 -0.3216
  714MOL0     H96361   6.165   3.946   4.768  0.5402 -3.7892  0.4549
  714MOL0     H96362   6.123   4.066   4.490 -2.8415 -1.5741  0.0225
  714MOL0     H96363   6.032   4.098   4.635  1.1341  2.5691  0.6294
  714MOL0     H96364   6.341   4.133   4.616  0.1741 -1.5247  1.4232
  714MOL0     H96365   6.239   4.172   4.750  1.0179  2.3447 -0.9947
  714MOL0     H96366   6.308   4.360   4.600  0.2043  1.3330  1.1553
  714MOL0     H96367   6.179   4.303   4.492  3.0922  0.6517 -0.0445
  714MOL0     H96368   6.115   4.330   4.779 -0.8663 -0.6556 -0.4565
  714MOL0     H96369   6.013   4.331   4.643  1.6460 -2.8328 -0.6299
  714MOL0     H96370   6.074   4.568   4.761  1.9697 -2.1955  1.2996
  714MOL0     H96371   6.096   4.557   4.581  1.6068  0.5189 -0.2480
  714MOL0     H96372   5.985   3.408   4.420 -1.1944 -0.1538  1.2570
  714MOL0     H96373   6.066   3.166   4.422 -0.3319 -1.8251  0.8562
  714MOL0     H96374   5.999   2.742   4.729  1.1136  2.0542  1.4266
  714MOL0     H96375   6.017   2.512   4.678  0.2126  1.6150  2.5008
  714MOL0     H96376   5.227   0.902   4.286  2.8654  1.1198  0.5098
  714MOL0     H96377   5.202   0.649   4.326  1.9794 -2.0389  0.5276
  714MOL0     H96378   5.538   0.254   4.672 -0.3902  0.2019  1.2940
  714MOL0     H96379   5.510   0.022   4.692 -0.7052 -2.5218 -0.4963
  714MOL0     H96380   5.424  -0.227   4.665 -2.9596 -0.7038 -0.2599
  714MOL0     H96381   5.423  -0.162   4.831  0.6166 -2.1698  0.7214
  714MOL0     H96382   5.245  -0.384   4.716 -0.6185  1.2162  0.4073
  714MOL0     H96383   5.249  -0.321   4.883 -4.2165  0.3758 -0.7954
  714MOL0     H96384   5.477  -0.357   4.884  0.0506 -2.0627  1.4165
  714MOL0     H96385   5.476  -0.439   4.722 -1.1735 -1.7801 -0.3604
  714MOL0     H96386   5.298  -0.562   4.952 -1.1418 -1.8270 -1.0126
  714MOL0     H96387   5.462  -0.591   4.931 -0.0874 -1.0555 -0.9955
  714MOL0     H96388   5.257  -0.756   4.579  2.5224  1.7313 -2.1306
  714MOL0     H96389   5.091   0.076   4.674 -0.7885  0.7324  0.0458
  714MOL0     H96390   5.129   0.335   4.656  0.3931  1.5622  2.5973
  715MOL0     O96391   6.507   2.635   8.246  0.4426  0.8383  0.1104
  715MOL0     C96392   6.522   2.709   8.342 -0.6851  0.2271  0.6912
  715MOL0     O96393   6.437   2.816   8.383  0.1374 -0.4112 -0.5590
  715MOL0     C96394   6.310   2.837   8.331  0.1395 -0.6918 -0.3413
  715MOL0     C96395   6.211   2.880   8.415 -0.7320 -1.0983 -0.2730
  715MOL0     C96396   6.081   2.906   8.372 -0.1585 -0.7241  0.8041
  715MOL0     C96397   6.051   2.887   8.231  0.7687  0.1781  0.7199
  715MOL0     O96398   5.923   2.907   8.185  0.4333 -0.0055 -0.1391
  715MOL0     C96399   5.876   2.860   8.059 -0.7980  0.4816 -0.9359
  715MOL0     C96400   5.718   2.878   8.054 -0.7753 -0.0491 -0.1466
  715MOL0     C96401   5.627   2.779   8.131 -0.5964  0.5218 -0.2947
  715MOL0     C96402   5.480   2.770   8.083 -0.3731 -0.2876 -0.3585
  715MOL0     C96403   5.472   2.673   7.957  0.1555  0.0780 -0.6720
  715MOL0     C96404   5.332   2.653   7.906  0.1889  0.1706 -1.1262
  715MOL0     C96405   5.270   2.773   7.836 -1.3001  0.2708 -0.4476
  715MOL0     C96406   5.130   2.749   7.769 -0.1352 -0.1764  0.1735
  715MOL0     N96407   5.161   2.691   7.636 -0.5067 -0.2794  0.3205
  715MOL0     C96408   5.213   2.759   7.526  0.2201  0.1492  0.5022
  715MOL0     C96409   5.241   2.670   7.436  0.2851 -0.2467 -0.0343
  715MOL0     C96410   5.305   2.676   7.294  0.5382  0.2015 -0.5583
  715MOL0     C96411   5.460   2.669   7.305  0.0081  0.0774 -0.4202
  715MOL0     C96412   5.527   2.808   7.312 -0.0637 -1.0334  0.0249
  715MOL0     C96413   5.668   2.796   7.316 -0.4439  0.0797 -0.5083
  715MOL0     O96414   5.735   2.735   7.205  0.6204 -0.0211  0.5213
  715MOL0     C96415   5.872   2.734   7.200 -0.8933 -0.8701 -0.7321
  715MOL0     C96416   5.961   2.808   7.276 -0.0168 -0.4376 -0.8226
  715MOL0     C96417   6.095   2.820   7.255  0.0179  0.8813 -0.3597
  715MOL0     C96418   6.165   2.922   7.344 -0.0085  1.1132  0.1296
  715MOL0     C96419   6.151   2.740   7.156  1.8679 -1.1564  0.3352
  715MOL0     C96420   6.295   2.741   7.119 -0.2214  0.0915  0.0145
  715MOL0     O96421   6.341   2.637   7.047  0.3527  0.2953  0.0853
  715MOL0     C96422   6.455   2.626   6.966 -0.5161  0.0536 -0.1165
  715MOL0     C96423   6.472   2.496   6.922 -1.0660  0.1637 -0.8664
  715MOL0     C96424   6.579   2.465   6.837 -0.9215 -0.0319  1.0438
  715MOL0     C96425   6.666   2.563   6.794 -0.2791 -0.4587  1.2085
  715MOL0     O96426   6.761   2.526   6.707 -0.2858 -0.2134 -0.1355
  715MOL0     C96427   6.754   2.597   6.580 -0.4273 -0.1910 -0.6468
  715MOL0     C96428   6.795   2.503   6.466 -0.1828 -0.6372 -0.8996
  715MOL0     C96429   6.941   2.468   6.459  0.8106 -0.0300 -0.0721
  715MOL0     C96430   7.029   2.561   6.373  0.0375  0.0380  0.0490
  715MOL0     C96431   7.174   2.503   6.345  0.1163  1.3682  0.7049
  715MOL0     C96432   7.257   2.609   6.272  1.0386  0.2558  0.4137
  715MOL0     C96433   7.383   2.554   6.202  0.3391  0.3918 -0.2980
  715MOL0     C96434   7.425   2.665   6.113  0.4577 -1.2071  0.4534
  715MOL0    Cl96435   7.570   2.632   6.015  0.1058 -0.0497 -0.0569
  715MOL0     C96436   6.640   2.695   6.831 -0.1366  0.5107  0.3062
  715MOL0     C96437   6.540   2.725   6.927 -0.3684 -0.1211  0.2505
  715MOL0     O96438   6.357   2.841   7.147 -0.3011 -0.3251  0.1242
  715MOL0     C96439   6.066   2.654   7.085 -0.6357 -0.4503  1.0243
  715MOL0     C96440   5.928   2.661   7.096  0.6917  0.2575 -0.1034
  715MOL0     N96441   5.201   2.547   7.489  0.6609 -0.0771  0.1911
  715MOL0     N96442   5.157   2.561   7.612  0.0137  1.2646  0.1114
  715MOL0     C96443   6.153   2.843   8.140  0.1615 -0.8204 -0.4416
  715MOL0     C96444   6.279   2.822   8.192 -0.1286 -0.7127 -0.2133
  715MOL0     C96445   6.639   2.692   8.420  0.0700  0.3655 -0.2949
  715MOL0     C96446   6.759   2.659   8.360 -0.2021 -0.6585 -0.0372
  715MOL0     C96447   6.881   2.669   8.424 -0.5817 -0.2838 -0.4314
  715MOL0     C96448   6.888   2.721   8.551 -1.1936  0.1596  0.0265
  715MOL0     O96449   7.003   2.722   8.621 -0.4277  0.1765  0.2268
  715MOL0     C96450   7.135   2.699   8.563 -0.3805  0.1794  0.1847
  715MOL0     C96451   7.252   2.709   8.676  0.8157 -0.6332  0.6497
  715MOL0     C96452   7.241   2.593   8.759  0.0321 -0.0670 -0.1075
  715MOL0     C96453   7.371   2.572   8.837  0.1169 -0.3934  0.1740
  715MOL0     C96454   7.356   2.452   8.926 -0.0831 -0.7839 -0.0924
  715MOL0     C96455   7.349   2.352   8.995 -0.1407  0.3363 -0.4443
  715MOL0     C96456   6.775   2.756   8.616  0.2638  0.6444 -0.5172
  715MOL0     C96457   6.647   2.737   8.552  0.4897  0.4062  0.6749
  715MOL0     H96458   6.247   2.899   8.516  0.5154  3.2962 -1.3231
  715MOL0     H96459   6.012   2.942   8.448 -2.3374 -1.6042 -0.6425
  715MOL0     H96460   5.926   2.917   7.981  0.4238  2.3997  1.1230
  715MOL0     H96461   5.896   2.753   8.048  0.7341  0.8434 -1.9924
  715MOL0     H96462   5.688   2.979   8.084 -2.3361 -0.8644  1.1682
  715MOL0     H96463   5.697   2.870   7.947  2.1790  1.9372 -0.9914
  715MOL0     H96464   5.672   2.683   8.106 -0.1049  0.7860 -0.4425
  715MOL0     H96465   5.644   2.795   8.238 -1.5848  0.3719 -0.1074
  715MOL0     H96466   5.421   2.734   8.168  0.5865  0.9169  0.8441
  715MOL0     H96467   5.443   2.871   8.066 -2.8053 -1.1867 -0.8710
  715MOL0     H96468   5.548   2.705   7.885  1.2415 -1.4280 -0.2472
  715MOL0     H96469   5.511   2.572   7.968 -0.3872 -0.1688 -0.9544
  715MOL0     H96470   5.340   2.568   7.837 -0.0516 -0.2149 -0.6930
  715MOL0     H96471   5.276   2.614   7.992 -1.7581 -0.6577 -2.6665
  715MOL0     H96472   5.247   2.855   7.904 -1.1690  1.7178 -2.0769
  715MOL0     H96473   5.352   2.814   7.775 -0.1978  0.0980  0.8596
  715MOL0     H96474   5.078   2.845   7.758  1.5770  0.8592  0.6486
  715MOL0     H96475   5.064   2.687   7.830 -0.7239  1.1344  0.9243
  715MOL0     H96476   5.220   2.866   7.516 -3.2318  0.5282  0.7687
  715MOL0     H96477   5.271   2.586   7.244  0.5339 -0.6898  0.9731
  715MOL0     H96478   5.252   2.760   7.249 -3.6459  0.5525  4.1516
  715MOL0     H96479   5.499   2.606   7.225  0.2516  2.1632 -2.0588
  715MOL0     H96480   5.478   2.616   7.399 -0.4394  0.3878 -0.1544
  715MOL0     H96481   5.481   2.868   7.392  1.1951 -1.0205  0.7624
  715MOL0     H96482   5.507   2.876   7.229 -0.1058  0.9119  1.5435
  715MOL0     H96483   5.709   2.735   7.398  0.3158  1.5034  0.2081
  715MOL0     H96484   5.700   2.897   7.344 -1.0797  0.0023  0.5529
  715MOL0     H96485   5.909   2.862   7.355 -0.6338 -3.4882  1.0329
  715MOL0     H96486   6.254   2.971   7.304  0.4458 -0.9814 -1.6411
  715MOL0     H96487   6.088   2.996   7.368 -1.4309 -0.3283  0.2021
  715MOL0     H96488   6.188   2.876   7.440 -0.0553  2.8747  1.0218
  715MOL0     H96489   6.413   2.413   6.959 -1.7681  1.1936  0.3987
  715MOL0     H96490   6.606   2.364   6.808 -0.1145 -0.1315  2.0933
  715MOL0     H96491   6.652   2.636   6.579  0.2226  1.7018  0.7064
  715MOL0     H96492   6.822   2.683   6.583 -2.2963  1.3333  0.2788
  715MOL0     H96493   6.733   2.412   6.471  2.0074 -2.1507  1.3593
  715MOL0     H96494   6.774   2.559   6.375  1.6693  0.2703 -0.8131
  715MOL0     H96495   6.944   2.369   6.412  1.1172  0.5113 -1.2068
  715MOL0     H96496   6.980   2.466   6.562 -0.1116  0.9554  0.3127
  715MOL0     H96497   6.982   2.571   6.274 -1.9828  2.7715  1.1699
  715MOL0     H96498   7.042   2.665   6.404  0.5621 -0.0105 -0.0041
  715MOL0     H96499   7.160   2.414   6.283  1.9493  0.6457  1.2524
  715MOL0     H96500   7.218   2.473   6.440 -0.1349 -1.5444  0.0037
  715MOL0     H96501   7.197   2.652   6.191  0.0054 -1.9446 -0.0656
  715MOL0     H96502   7.289   2.683   6.345  0.4565  0.4004  0.5316
  715MOL0     H96503   7.365   2.462   6.146 -1.4314  1.3324 -1.3731
  715MOL0     H96504   7.457   2.519   6.275 -0.8574 -4.0928 -0.9461
  715MOL0     H96505   7.437   2.756   6.171  3.3564 -0.3280 -1.3230
  715MOL0     H96506   7.345   2.682   6.040  0.1167  1.5131  1.3611
  715MOL0     H96507   6.720   2.760   6.798  1.8069 -2.3633 -1.1005
  715MOL0     H96508   6.537   2.832   6.946  1.0596 -0.1644  0.8459
  715MOL0     H96509   6.117   2.600   7.006 -1.1010  0.0050  0.3927
  715MOL0     H96510   5.869   2.598   7.030  1.6166  0.8815 -1.5823
  715MOL0     H96511   6.118   2.840   8.038 -0.0682  0.3161 -0.4059
  715MOL0     H96512   6.367   2.784   8.140  1.1887 -0.2644  1.6113
  715MOL0     H96513   6.758   2.637   8.254  1.9888  3.8290 -1.2701
  715MOL0     H96514   6.959   2.628   8.361 -1.5949 -0.3063 -1.7261
  715MOL0     H96515   7.137   2.597   8.523 -1.8440 -0.9884  2.8523
  715MOL0     H96516   7.156   2.765   8.479  1.0768 -0.0143  0.3744
  715MOL0     H96517   7.239   2.805   8.726  0.4292  0.0340 -0.6832
  715MOL0     H96518   7.348   2.713   8.624  0.5829  1.9566  0.2842
  715MOL0     H96519   7.214   2.502   8.703 -1.8451  0.4358 -0.0860
  715MOL0     H96520   7.156   2.613   8.826  0.0385  3.7990 -1.0166
  715MOL0     H96521   7.408   2.660   8.890  1.4894  0.1838 -1.6359
  715MOL0     H96522   7.448   2.537   8.767 -0.0173  1.3979 -0.9143
  715MOL0     H96523   7.331   2.279   9.071 -3.4589  2.0716  0.6535
  715MOL0     H96524   6.776   2.786   8.720 -0.1608  1.4114 -0.7313
  715MOL0     H96525   6.555   2.770   8.599 -2.4230 -2.4075 -2.4381
  716MOL0     O96526   0.258   9.881   2.695  0.1296 -0.7763  0.5974
  716MOL0     C96527   0.358   9.894   2.629 -0.4743  0.5821  0.9600
  716MOL0     O96528   0.361   9.889   2.489 -0.4094  0.5084 -0.6545
  716MOL0     C96529   0.245   9.912   2.419  0.8234 -0.2517 -0.0536
  716MOL0     C96530   0.238  10.025   2.338  0.7295 -0.0579  0.0080
  716MOL0     C96531   0.117  10.061   2.266  0.1373 -0.3207  0.0272
  716MOL0     C96532   0.011   9.976   2.267  0.1206  0.2191  0.0488
  716MOL0     O96533  -0.081   9.995   2.170  0.2700  0.8686  0.6823
  716MOL0     C96534  -0.124   9.874   2.110 -0.3187 -0.0914  0.6056
  716MOL0     C96535  -0.259   9.822   2.167 -0.0784  1.3215  0.0779
  716MOL0     C96536  -0.259   9.667   2.181 -1.9094  0.2429  0.2393
  716MOL0     C96537  -0.384   9.631   2.254  0.5185 -0.8932 -0.1246
  716MOL0     C96538  -0.429   9.489   2.214 -0.1795  0.1785  0.2858
  716MOL0     C96539  -0.391   9.372   2.308 -0.1145  0.8596  0.2601
  716MOL0     C96540  -0.454   9.233   2.270  0.2344 -0.1739 -0.1002
  716MOL0     C96541  -0.380   9.176   2.152 -0.5565  0.6257  0.1865
  716MOL0     N96542  -0.248   9.118   2.197 -0.3213 -0.3625  0.8538
  716MOL0     C96543  -0.150   9.115   2.103  0.3147  0.0620 -0.1314
  716MOL0     C96544  -0.057   9.040   2.160 -1.2517  0.4112  0.4993
  716MOL0     C96545   0.061   8.984   2.097  0.3082  0.1743  0.0336
  716MOL0     C96546   0.191   9.062   2.128  0.1962 -0.2189  0.5422
  716MOL0     C96547   0.246   9.042   2.263  0.2449 -0.1299  0.8431
  716MOL0     C96548   0.389   9.107   2.271 -0.6637  0.0157  0.8304
  716MOL0     O96549   0.426   9.096   2.410  0.5264  0.6379 -0.0930
  716MOL0     C96550   0.558   9.116   2.423  0.2934  0.3944  0.3391
  716MOL0     C96551   0.665   9.148   2.330  0.2388 -0.4025  0.6319
  716MOL0     C96552   0.799   9.168   2.377  0.0134  0.6224  0.6636
  716MOL0     C96553   0.901   9.193   2.268 -0.8517  0.0550 -0.7430
  716MOL0     C96554   0.826   9.163   2.514  0.0540  0.4709 -0.0819
  716MOL0     C96555   0.955   9.205   2.568  0.4160  0.2390 -0.8415
  716MOL0     O96556   1.069   9.133   2.532 -0.4661  0.3212 -1.0365
  716MOL0     C96557   1.191   9.198   2.552  0.0895 -0.0366 -0.2463
  716MOL0     C96558   1.290   9.112   2.593  0.2290 -0.9372 -0.3480
  716MOL0     C96559   1.414   9.167   2.635  0.4314 -0.5732  0.6373
  716MOL0     C96560   1.438   9.304   2.627 -0.8327 -0.2021  0.7123
  716MOL0     O96561   1.565   9.345   2.672  0.1128 -0.1025 -0.5714
  716MOL0     C96562   1.577   9.486   2.706  0.2927 -0.3040  0.9080
  716MOL0     C96563   1.720   9.503   2.753  0.0821  0.2647 -0.5938
  716MOL0     C96564   1.741   9.631   2.831  0.4216 -0.6257 -0.1803
  716MOL0     C96565   1.884   9.661   2.834 -0.1822 -0.0162  1.0392
  716MOL0     C96566   1.956   9.596   2.960 -0.0909  0.9698 -0.3496
  716MOL0     C96567   1.911   9.663   3.101  0.9050 -0.4275  0.3266
  716MOL0     C96568   2.019   9.623   3.201 -0.4405 -0.8985 -0.0664
  716MOL0     C96569   2.019   9.474   3.240 -0.0413 -0.0818 -0.8139
  716MOL0    Cl96570   2.071   9.469   3.407  0.2589 -0.3339  0.0782
  716MOL0     C96571   1.330   9.383   2.580 -0.6115 -0.0585 -0.3111
  716MOL0     C96572   1.208   9.329   2.550  0.0093  0.0954 -0.7259
  716MOL0     O96573   0.949   9.287   2.665 -0.5247  0.2616 -0.3851
  716MOL0     C96574   0.725   9.128   2.608  0.0062 -0.4975 -0.0333
  716MOL0     C96575   0.592   9.114   2.558  0.3602 -0.2525 -0.8280
  716MOL0     N96576  -0.090   9.020   2.289 -0.4938 -0.0381 -0.5563
  716MOL0     N96577  -0.210   9.059   2.317  0.5313  0.3253  0.1903
  716MOL0     C96578   0.011   9.865   2.356  0.8097 -0.7283  0.4104
  716MOL0     C96579   0.129   9.828   2.422  1.1761 -0.6722 -0.2636
  716MOL0     C96580   0.489   9.906   2.693  0.4638  0.3565 -0.3861
  716MOL0     C96581   0.497   9.886   2.834  0.6500 -0.5832  0.0779
  716MOL0     C96582   0.624   9.878   2.889 -0.5728  0.8100 -0.4909
  716MOL0     C96583   0.740   9.890   2.814 -0.3491 -0.3994 -0.7792
  716MOL0     O96584   0.858   9.858   2.870  0.5017 -0.0836 -0.4615
  716MOL0     C96585   0.954   9.969   2.875 -0.2574 -0.4224  0.4400
  716MOL0     C96586   0.930  10.070   2.990  0.5556 -0.8797  0.2720
  716MOL0     C96587   1.001  10.200   2.959 -0.3570 -0.6377  0.2430
  716MOL0     C96588   1.152  10.180   3.005 -0.5709 -1.3823  0.5666
  716MOL0     C96589   1.233  10.245   2.920  0.9762 -0.5187  0.5123
  716MOL0     C96590   1.321  10.304   2.858  0.0381  0.8761  1.2104
  716MOL0     C96591   0.733   9.922   2.680 -0.4499  0.2024  0.0617
  716MOL0     C96592   0.605   9.939   2.621  0.1173 -1.1772 -0.3886
  716MOL0     H96593   0.317  10.096   2.362  1.0179 -0.0668 -0.8972
  716MOL0     H96594   0.108  10.136   2.188 -4.3271 -1.2845 -0.6429
  716MOL0     H96595  -0.148   9.912   2.010  0.0507  3.1540  1.6528
  716MOL0     H96596  -0.051   9.793   2.112  0.7333  0.7892  4.3454
  716MOL0     H96597  -0.274   9.865   2.267 -1.2602  1.0887  0.0123
  716MOL0     H96598  -0.338   9.863   2.104  1.8091  4.1349 -0.6801
  716MOL0     H96599  -0.242   9.631   2.080  0.3975  1.5422  0.0942
  716MOL0     H96600  -0.171   9.631   2.237 -0.8347  0.9776 -0.9210
  716MOL0     H96601  -0.368   9.630   2.362  1.4102  0.9355 -0.2023
  716MOL0     H96602  -0.465   9.699   2.227  1.0898 -0.5672 -1.0797
  716MOL0     H96603  -0.538   9.484   2.216 -0.3078 -2.9986 -3.3174
  716MOL0     H96604  -0.409   9.474   2.108 -1.2084 -1.7103  0.3053
  716MOL0     H96605  -0.283   9.360   2.322 -0.1331 -0.6151 -0.6370
  716MOL0     H96606  -0.413   9.395   2.412  0.2883 -0.2544  0.6058
  716MOL0     H96607  -0.446   9.172   2.360  3.9763  0.3752  0.0820
  716MOL0     H96608  -0.560   9.239   2.244  0.3509 -0.8506 -0.7872
  716MOL0     H96609  -0.361   9.256   2.081  3.1197  1.4800  1.9334
  716MOL0     H96610  -0.433   9.103   2.090  1.2225 -2.1789  1.7096
  716MOL0     H96611  -0.144   9.158   2.003 -0.5666  3.1701  1.0338
  716MOL0     H96612   0.053   8.880   2.131 -3.1408  0.8098  1.6218
  716MOL0     H96613   0.044   8.978   1.989  0.6816 -0.5770  0.0041
  716MOL0     H96614   0.185   9.167   2.097 -1.6080 -0.5101 -0.2086
  716MOL0     H96615   0.266   9.021   2.059  0.6614 -1.2922  1.6599
  716MOL0     H96616   0.246   8.939   2.299 -1.1012 -1.1539 -1.8003
  716MOL0     H96617   0.172   9.098   2.320 -0.7397  1.0462 -1.4626
  716MOL0     H96618   0.379   9.214   2.251 -2.6186  0.8722  5.1040
  716MOL0     H96619   0.464   9.057   2.209 -2.1219  1.8383 -2.7024
  716MOL0     H96620   0.650   9.166   2.224  1.7323  1.5678  0.6843
  716MOL0     H96621   0.911   9.110   2.198 -1.9777 -1.3634  0.7190
  716MOL0     H96622   0.892   9.289   2.216 -2.5407  0.5622  0.4079
  716MOL0     H96623   1.003   9.205   2.306 -0.6761 -0.8345 -0.9205
  716MOL0     H96624   1.259   9.008   2.601 -1.5392 -0.2955  2.1910
  716MOL0     H96625   1.487   9.098   2.676 -0.8401 -1.0566  2.1660
  716MOL0     H96626   1.548   9.551   2.623 -0.1646 -1.7139 -0.0687
  716MOL0     H96627   1.511   9.516   2.788 -1.3660  1.8348 -1.0820
  716MOL0     H96628   1.748   9.420   2.819 -0.1071 -0.0223 -0.8742
  716MOL0     H96629   1.782   9.493   2.664 -0.8124 -3.7066 -0.9528
  716MOL0     H96630   1.700   9.613   2.931  0.7975  2.1126  0.5501
  716MOL0     H96631   1.685   9.715   2.787  1.6919 -0.5728 -1.7625
  716MOL0     H96632   1.946   9.636   2.747 -0.0514  2.6390  0.2701
  716MOL0     H96633   1.892   9.769   2.844  0.4502  0.0948 -0.3850
  716MOL0     H96634   2.065   9.603   2.953  0.0554  1.1572  1.6239
  716MOL0     H96635   1.930   9.490   2.968 -2.2965  0.7788 -5.6996
  716MOL0     H96636   1.925   9.771   3.106  2.0358 -0.5553  0.1846
  716MOL0     H96637   1.810   9.637   3.134  0.1029  2.1565  0.1253
  716MOL0     H96638   1.993   9.678   3.291  4.9080  0.4825  0.9859
  716MOL0     H96639   2.124   9.650   3.181  0.6160 -2.6415  2.5658
  716MOL0     H96640   2.087   9.420   3.174  2.2634 -1.0584  2.1411
  716MOL0     H96641   1.916   9.438   3.237 -0.4018  0.7827  0.4412
  716MOL0     H96642   1.339   9.488   2.554  0.4253 -0.3517 -1.2197
  716MOL0     H96643   1.126   9.398   2.532 -0.2538  1.4396  4.1298
  716MOL0     H96644   0.728   9.116   2.715 -1.9777  0.5506  0.1915
  716MOL0     H96645   0.514   9.072   2.620  0.2987 -0.4758 -1.0575
  716MOL0     H96646  -0.081   9.807   2.362  1.1427 -1.4320 -0.8423
  716MOL0     H96647   0.115   9.743   2.487  0.3358 -0.5638 -0.2862
  716MOL0     H96648   0.407   9.866   2.891  0.3664  0.0588 -0.1362
  716MOL0     H96649   0.635   9.837   2.989  1.7341 -0.5982 -1.2474
  716MOL0     H96650   1.046   9.915   2.900 -0.1199 -0.9018 -1.0286
  716MOL0     H96651   0.965  10.004   2.772  0.1176 -2.2825 -0.1814
  716MOL0     H96652   0.966  10.028   3.085  1.5509  1.4860  1.0278
  716MOL0     H96653   0.823  10.079   3.008  0.6802  0.9076  0.3242
  716MOL0     H96654   0.954  10.286   3.008  1.5257  1.1259 -0.9209
  716MOL0     H96655   0.994  10.238   2.857  0.4186  0.3199  0.5378
  716MOL0     H96656   1.184  10.076   2.996  1.7279 -0.7827  1.3281
  716MOL0     H96657   1.170  10.223   3.104  5.7512  0.5021 -0.9902
  716MOL0     H96658   1.396  10.363   2.810  1.6218  1.7141  4.4023
  716MOL0     H96659   0.825   9.930   2.623 -0.5715 -0.2572 -0.2062
  716MOL0     H96660   0.607   9.964   2.516  0.2914  0.1944 -0.0792
  717MOL0     O96661   0.710   5.198   9.166 -0.2338  0.2923  1.0864
  717MOL0     C96662   0.797   5.118   9.197  0.1295 -0.2955 -0.2300
  717MOL0     O96663   0.816   5.067   9.326 -0.1201  0.0258 -0.8469
  717MOL0     C96664   0.758   5.105   9.442  0.3773  0.1257  0.4036
  717MOL0     C96665   0.773   5.014   9.544 -0.5634 -0.3071 -1.2049
  717MOL0     C96666   0.718   5.046   9.670  0.1257 -0.2378 -0.2448
  717MOL0     C96667   0.642   5.159   9.696  0.4340  0.0275  0.6525
  717MOL0     O96668   0.589   5.172   9.820 -0.2179 -0.5734 -0.5984
  717MOL0     C96669   0.479   5.258   9.850  0.5368 -0.2649 -0.2510
  717MOL0     C96670   0.410   5.208   9.976 -1.0411  0.1463 -0.0875
  717MOL0     C96671   0.500   5.225  10.105 -0.0069  0.0688  0.0296
  717MOL0     C96672   0.431   5.175  10.230  0.4883  0.1313 -0.0012
  717MOL0     C96673   0.497   5.202  10.360 -0.2950  0.2135  0.6960
  717MOL0     C96674   0.642   5.145  10.381 -0.0836 -0.2829  0.4185
  717MOL0     C96675   0.674   5.160  10.532 -0.0445 -0.7373 -0.3254
  717MOL0     C96676   0.824   5.174  10.552 -0.9559 -0.0421  0.4192
  717MOL0     N96677   0.887   5.038  10.537 -0.2525 -1.3440  0.6101
  717MOL0     C96678   1.010   5.032  10.591  0.4278 -0.1276  0.4976
  717MOL0     C96679   1.048   4.902  10.568  0.3291 -0.4176 -0.1119
  717MOL0     C96680   1.177   4.840  10.611 -1.2323  0.5942  0.2412
  717MOL0     C96681   1.249   4.755  10.503  0.2272  0.0450  0.5165
  717MOL0     C96682   1.285   4.818  10.374  0.8949  0.0864 -0.2161
  717MOL0     C96683   1.420   4.891  10.384  1.3583  0.4340 -0.3075
  717MOL0     O96684   1.436   4.965  10.505  0.5204  0.1925  0.7415
  717MOL0     C96685   1.369   5.089  10.523 -0.2755 -0.0072 -0.3141
  717MOL0     C96686   1.408   5.155  10.641  0.5890  1.1951 -0.7898
  717MOL0     C96687   1.352   5.282  10.673 -0.5738 -0.2024  0.4520
  717MOL0     C96688   1.399   5.371  10.788 -0.1236  1.1249  0.4762
  717MOL0     C96689   1.269   5.346  10.573  0.3776  0.6947  0.3906
  717MOL0     C96690   1.228   5.495  10.578 -0.3491 -0.4154 -0.2949
  717MOL0     O96691   1.230   5.561  10.462  1.0278  0.0289  0.8995
  717MOL0     C96692   1.208   5.700  10.459  0.0878 -0.0232  0.9242
  717MOL0     C96693   1.080   5.743  10.451  0.5493 -1.1443 -0.7506
  717MOL0     C96694   1.067   5.882  10.432  1.5389  0.4652 -0.0925
  717MOL0     C96695   1.178   5.969  10.429 -0.1150  0.2209  0.6267
  717MOL0     O96696   1.141   6.099  10.416 -0.1462  0.4253 -0.2301
  717MOL0     C96697   1.236   6.198  10.397  1.0311  0.0083  0.5077
  717MOL0     C96698   1.162   6.327  10.358 -0.1142  0.5678  0.0822
  717MOL0     C96699   1.033   6.347  10.427  1.0632  0.3549 -0.5423
  717MOL0     C96700   0.963   6.467  10.383  0.7843 -0.0754  0.3816
  717MOL0     C96701   0.815   6.469  10.425  0.9361  0.2854  0.3747
  717MOL0     C96702   0.726   6.581  10.365  0.2133 -0.1117 -0.4105
  717MOL0     C96703   0.759   6.714  10.429 -0.6789 -0.6676 -0.1944
  717MOL0     C96704   0.708   6.837  10.360 -0.4247 -1.0835  0.5065
  717MOL0    Cl96705   0.813   6.976  10.390  0.2737  0.3935 -0.3555
  717MOL0     C96706   1.304   5.919  10.435 -0.2538 -0.3249  0.3608
  717MOL0     C96707   1.322   5.780  10.450  0.7373 -0.6189  0.0366
  717MOL0     O96708   1.208   5.554  10.686 -0.0703 -0.5211 -0.7780
  717MOL0     C96709   1.248   5.278  10.449 -0.2724 -0.5242  0.4570
  717MOL0     C96710   1.293   5.153  10.430 -0.5814 -0.2039  0.0843
  717MOL0     N96711   0.943   4.834  10.505  0.1953 -1.1525 -0.3071
  717MOL0     N96712   0.843   4.920  10.497 -0.0448  0.9404  0.3423
  717MOL0     C96713   0.649   5.254   9.593  0.6607 -0.2528  0.9419
  717MOL0     C96714   0.700   5.233   9.469  0.7617  0.1564  1.1255
  717MOL0     C96715   0.892   5.068   9.098 -0.9557  0.5287  0.0533
  717MOL0     C96716   0.868   5.085   8.962 -0.2368  0.2885 -0.4729
  717MOL0     C96717   0.955   5.032   8.866  0.7198 -1.1102 -0.2381
  717MOL0     C96718   1.074   4.987   8.911 -0.7084  0.4069 -0.5573
  717MOL0     O96719   1.149   4.931   8.814 -0.8064 -0.4097  0.5501
  717MOL0     C96720   1.286   4.990   8.808  0.0040  0.1706  0.7206
  717MOL0     C96721   1.391   4.892   8.850 -0.6454  0.8168 -0.4464
  717MOL0     C96722   1.506   4.960   8.923 -0.7632 -0.0074 -0.5171
  717MOL0     C96723   1.636   4.875   8.919  1.0043  0.0569  0.6281
  717MOL0     C96724   1.760   4.945   8.949  0.5421  1.1259 -0.4902
  717MOL0     C96725   1.854   5.018   8.955  0.0965 -0.2776  0.2734
  717MOL0     C96726   1.120   4.992   9.045  0.0009 -1.0291  0.1846
  717MOL0     C96727   1.028   5.035   9.136 -1.0180  0.6024  0.5725
  717MOL0     H96728   0.833   4.926   9.525  0.9886  0.8213 -1.7066
  717MOL0     H96729   0.729   4.986   9.760 -0.4078 -0.3839 -0.2718
  717MOL0     H96730   0.505   5.363   9.867 -1.3598  0.3170 -0.7546
  717MOL0     H96731   0.404   5.271   9.772 -1.6218  1.3161  1.9363
  717MOL0     H96732   0.325   5.276   9.991  1.3692  3.0319  1.5349
  717MOL0     H96733   0.368   5.108   9.965 -0.7374  0.1389 -1.2908
  717MOL0     H96734   0.591   5.168  10.083 -2.3719 -3.6083 -1.2642
  717MOL0     H96735   0.518   5.330  10.126  1.1603  0.6992 -3.5289
  717MOL0     H96736   0.331   5.217  10.242  0.6391  0.3173  0.6257
  717MOL0     H96737   0.418   5.067  10.217 -0.9582  0.5361 -2.7695
  717MOL0     H96738   0.509   5.311  10.368  1.4729  0.5247 -3.6527
  717MOL0     H96739   0.435   5.168  10.444  1.5553  0.5064  2.2293
  717MOL0     H96740   0.647   5.037  10.361 -1.9441 -0.0821 -1.5060
  717MOL0     H96741   0.711   5.197  10.315 -2.1782  0.6852 -1.1330
  717MOL0     H96742   0.621   5.254  10.553 -3.5874 -2.7208  0.4271
  717MOL0     H96743   0.632   5.081  10.594 -0.4534 -0.7812 -0.6538
  717MOL0     H96744   0.838   5.206  10.656 -0.1798 -2.0609  0.9851
  717MOL0     H96745   0.875   5.242  10.484 -0.5772 -1.9263 -1.2608
  717MOL0     H96746   1.071   5.118  10.619 -0.5139  1.0773 -0.9816
  717MOL0     H96747   1.243   4.916  10.655  2.3091 -2.4306  0.6076
  717MOL0     H96748   1.158   4.773  10.695  0.1787 -0.1152  0.0382
  717MOL0     H96749   1.178   4.677  10.475  2.0870 -0.5147 -3.3407
  717MOL0     H96750   1.331   4.699  10.550  0.0224 -0.9327 -0.2513
  717MOL0     H96751   1.201   4.881  10.344 -0.4720 -0.7796  1.6030
  717MOL0     H96752   1.290   4.732  10.307 -0.5348 -1.1067  1.1276
  717MOL0     H96753   1.426   4.956  10.296 -4.5776 -2.3330 -3.3575
  717MOL0     H96754   1.500   4.817  10.380 -1.0498 -2.3360 -2.1260
  717MOL0     H96755   1.479   5.109  10.708 -0.1696 -1.2567 -1.5522
  717MOL0     H96756   1.317   5.412  10.848 -0.4126  2.6677 -0.8934
  717MOL0     H96757   1.458   5.308  10.855 -0.0683  1.8982  1.1694
  717MOL0     H96758   1.470   5.451  10.763 -0.4737  0.6370 -2.3603
  717MOL0     H96759   1.008   5.661  10.446 -0.7984 -0.1932  1.3460
  717MOL0     H96760   0.962   5.911  10.428  0.8800 -1.8644 -2.1321
  717MOL0     H96761   1.292   6.210  10.490 -0.1696  2.8806  0.9813
  717MOL0     H96762   1.314   6.181  10.322  1.8849 -0.6065  1.5167
  717MOL0     H96763   1.226   6.412  10.385  1.3885  0.2387 -2.1229
  717MOL0     H96764   1.146   6.337  10.250 -0.9761 -1.3730 -0.0071
  717MOL0     H96765   1.053   6.343  10.535  3.9924 -2.9566 -1.0158
  717MOL0     H96766   0.958   6.267  10.422 -0.3132  1.4177  1.5821
  717MOL0     H96767   1.009   6.560  10.417 -0.0767  0.2529  0.6677
  717MOL0     H96768   0.962   6.457  10.274  0.8941 -1.9743  0.5104
  717MOL0     H96769   0.813   6.472  10.534 -1.4330 -0.7208  0.4265
  717MOL0     H96770   0.760   6.380  10.394  1.5576  0.5663 -1.6463
  717MOL0     H96771   0.748   6.592  10.258  3.0623 -0.9259  0.0300
  717MOL0     H96772   0.621   6.551  10.373  0.2865 -0.3481 -0.3082
  717MOL0     H96773   0.868   6.727  10.428 -0.8650  1.9496  1.5018
  717MOL0     H96774   0.731   6.714  10.535 -0.3337  2.1709 -0.0251
  717MOL0     H96775   0.600   6.854  10.357 -0.2902 -0.2798 -1.0618
  717MOL0     H96776   0.726   6.818  10.254 -2.6393  1.5729 -0.4499
  717MOL0     H96777   1.392   5.982  10.426  0.6837 -1.2812  2.2194
  717MOL0     H96778   1.422   5.740  10.465  1.4682  0.6820 -1.1316
  717MOL0     H96779   1.185   5.331  10.379 -0.2197  0.6157  1.2566
  717MOL0     H96780   1.245   5.104  10.345  0.1617  1.3009 -1.2591
  717MOL0     H96781   0.596   5.349   9.591  0.8553 -0.1499 -0.8377
  717MOL0     H96782   0.696   5.320   9.403  4.6024  1.0455  1.7933
  717MOL0     H96783   0.778   5.136   8.928 -0.1103  2.1901  1.8020
  717MOL0     H96784   0.938   5.017   8.759  3.0446 -1.4684 -0.5981
  717MOL0     H96785   1.305   5.006   8.701 -0.2769 -0.1887  0.6156
  717MOL0     H96786   1.287   5.081   8.869 -0.9385  0.5435  0.1997
  717MOL0     H96787   1.423   4.839   8.760 -1.0547 -0.9396  0.4110
  717MOL0     H96788   1.347   4.822   8.921 -0.7172  3.0589  1.8820
  717MOL0     H96789   1.486   4.970   9.030 -1.3681  2.9719 -0.8288
  717MOL0     H96790   1.517   5.065   8.896 -3.3351  2.0614  5.0036
  717MOL0     H96791   1.649   4.843   8.815  0.0804 -0.3071  0.6191
  717MOL0     H96792   1.627   4.785   8.981  2.4676  0.3738  1.3588
  717MOL0     H96793   1.942   5.080   8.965 -0.7151  0.6180  2.6068
  717MOL0     H96794   1.221   4.968   9.076  0.6185  1.7966  0.6440
  717MOL0     H96795   1.051   5.046   9.241 -0.9526 -0.2931  0.6625
  718MOL0     O96796   6.821   1.825   9.590 -0.4063  0.2718 -0.5258
  718MOL0     C96797   6.937   1.799   9.613 -0.0953 -0.0334  0.3938
  718MOL0     O96798   7.046   1.812   9.520  0.0973  0.1697  0.0918
  718MOL0     C96799   7.021   1.857   9.397 -0.1972  0.8388  0.0824
  718MOL0     C96800   7.090   1.968   9.358  0.5863 -1.2007  0.5523
  718MOL0     C96801   7.075   2.030   9.232 -0.1469 -0.5844  0.0327
  718MOL0     C96802   6.979   1.972   9.145  0.1255 -0.5139 -0.4786
  718MOL0     O96803   6.941   2.020   9.020 -0.1099  0.3906 -0.0595
  718MOL0     C96804   6.923   2.163   9.009  0.1208  0.3941 -0.4951
  718MOL0     C96805   6.845   2.205   8.884  0.1308  0.3283  0.7124
  718MOL0     C96806   6.887   2.345   8.824 -0.5676 -0.7072 -0.1970
  718MOL0     C96807   6.863   2.462   8.921 -0.3276 -0.9183 -0.1949
  718MOL0     C96808   6.725   2.483   8.963 -0.0366 -1.1004 -0.3766
  718MOL0     C96809   6.611   2.496   8.864 -0.7105  0.2158 -0.8494
  718MOL0     C96810   6.476   2.540   8.930  0.3778  0.2286 -0.6644
  718MOL0     C96811   6.443   2.500   9.082 -0.3661  0.5078 -0.1779
  718MOL0     N96812   6.443   2.353   9.098 -0.0966  0.1339 -0.3762
  718MOL0     C96813   6.532   2.268   9.156  0.2188 -0.2883 -0.1147
  718MOL0     C96814   6.509   2.137   9.109  0.6689 -1.3703  0.5256
  718MOL0     C96815   6.598   2.026   9.130  0.0275  0.0430 -0.6474
  718MOL0     C96816   6.622   1.985   9.270  0.6208  0.4358 -0.3385
  718MOL0     C96817   6.494   1.987   9.352  1.0102 -0.0964  0.9272
  718MOL0     C96818   6.515   1.916   9.486 -0.2255  0.3411 -0.7212
  718MOL0     O96819   6.389   1.917   9.543  0.0165 -0.3093  1.3348
  718MOL0     C96820   6.396   1.900   9.675  0.2854 -0.3186 -0.2412
  718MOL0     C96821   6.437   2.016   9.746 -0.3511  0.2852 -0.4725
  718MOL0     C96822   6.459   2.004   9.884 -0.0676 -0.0094 -0.1898
  718MOL0     C96823   6.512   2.117   9.964 -0.1368 -0.0868  0.3046
  718MOL0     C96824   6.442   1.881   9.949 -1.0856  0.6353  0.6353
  718MOL0     C96825   6.464   1.871  10.092  0.9888 -0.3628  0.4406
  718MOL0     O96826   6.580   1.802  10.126 -0.1670  0.2846  0.3396
  718MOL0     C96827   6.593   1.781  10.257  0.0236 -0.7098 -0.7329
  718MOL0     C96828   6.596   1.877  10.355 -1.2361 -0.4347 -0.6456
  718MOL0     C96829   6.620   1.836  10.481  0.0659 -0.4019 -0.2972
  718MOL0     C96830   6.633   1.700  10.520  0.5800  0.2754 -0.5857
  718MOL0     O96831   6.634   1.665  10.656  0.3917  0.5705 -0.2010
  718MOL0     C96832   6.633   1.529  10.691  0.1004  0.1174 -0.6883
  718MOL0     C96833   6.652   1.512  10.841 -0.0354 -0.7305  0.1622
  718MOL0     C96834   6.526   1.535  10.929 -0.3626 -0.2571 -1.1116
  718MOL0     C96835   6.493   1.688  10.928  0.0807  0.1985 -0.4238
  718MOL0     C96836   6.425   1.733  11.066 -0.4131  0.1177 -0.0530
  718MOL0     C96837   6.339   1.855  11.052 -0.2465  0.0176  0.5083
  718MOL0     C96838   6.429   1.973  11.046  0.1429  0.5665  0.1232
  718MOL0     C96839   6.357   2.108  11.081 -0.0154 -1.1789  0.4224
  718MOL0    Cl96840   6.290   2.105  11.242  0.2281  0.2263  0.1531
  718MOL0     C96841   6.636   1.605  10.418 -0.6368  0.3023 -0.3467
  718MOL0     C96842   6.612   1.647  10.289  0.1361 -0.5570 -0.2866
  718MOL0     O96843   6.385   1.927  10.164  0.0584 -0.3592 -1.3353
  718MOL0     C96844   6.397   1.760   9.870 -1.2362  0.0463 -0.2572
  718MOL0     C96845   6.375   1.773   9.733 -0.6734 -0.3469 -0.0466
  718MOL0     N96846   6.409   2.159   9.016  0.0257 -0.5083 -0.7475
  718MOL0     N96847   6.372   2.275   9.010  0.4695 -0.1207 -0.7929
  718MOL0     C96848   6.911   1.854   9.178 -0.2348  0.4344 -0.3545
  718MOL0     C96849   6.938   1.797   9.301 -0.4895 -0.2553  0.1045
  718MOL0     C96850   6.987   1.764   9.747  0.2886  0.2218  0.1450
  718MOL0     C96851   6.916   1.802   9.860  0.1890  0.6457  1.1392
  718MOL0     C96852   6.956   1.775   9.995  0.2694  0.1085  0.0947
  718MOL0     C96853   7.077   1.699  10.012 -0.7391  0.7324 -1.3750
  718MOL0     O96854   7.120   1.702  10.141  0.6057  0.4328 -0.3189
  718MOL0     C96855   7.257   1.698  10.177  0.4505  0.4953 -0.8565
  718MOL0     C96856   7.329   1.825  10.144 -0.7808  0.3297  0.3058
  718MOL0     C96857   7.485   1.811  10.141 -0.2334  0.4617 -0.4345
  718MOL0     C96858   7.546   1.918  10.046 -0.4671  0.4842  0.5503
  718MOL0     C96859   7.697   1.899  10.049  0.3284 -0.6978 -0.0530
  718MOL0     C96860   7.818   1.917  10.057  0.1838  0.1547 -1.3534
  718MOL0     C96861   7.155   1.666   9.898  0.0758  0.2679  0.7329
  718MOL0     C96862   7.110   1.700   9.765  0.1737  0.2001  0.3753
  718MOL0     H96863   7.156   2.013   9.431 -1.2603  1.7368  0.5629
  718MOL0     H96864   7.133   2.120   9.215 -3.0709  1.7667  1.7695
  718MOL0     H96865   6.879   2.213   9.096  0.9688 -0.7718  0.6372
  718MOL0     H96866   7.019   2.214   8.997  1.1059 -0.9308  1.3386
  718MOL0     H96867   6.881   2.136   8.807  0.1598 -0.2771  1.2634
  718MOL0     H96868   6.739   2.193   8.908  0.2767 -1.7089  0.5345
  718MOL0     H96869   6.994   2.341   8.801 -0.2208 -0.6947  1.2665
  718MOL0     H96870   6.829   2.359   8.733  1.1630 -1.3352 -1.4472
  718MOL0     H96871   6.927   2.438   9.006 -0.5556 -1.5355 -0.1967
  718MOL0     H96872   6.908   2.549   8.872 -2.0060 -0.3423 -0.7697
  718MOL0     H96873   6.706   2.396   9.026 -0.9226 -0.0222  0.8854
  718MOL0     H96874   6.725   2.573   9.024 -2.2322 -1.4015  0.1631
  718MOL0     H96875   6.647   2.554   8.778  1.2169 -1.5502 -1.3059
  718MOL0     H96876   6.591   2.395   8.827  0.4351 -0.1349 -0.5358
  718MOL0     H96877   6.467   2.649   8.925  2.6876  0.4286 -1.7940
  718MOL0     H96878   6.393   2.503   8.869  1.3989 -4.4300  0.4133
  718MOL0     H96879   6.348   2.542   9.116 -1.4769 -2.7380  1.1304
  718MOL0     H96880   6.523   2.533   9.148  2.3275 -3.2637 -1.1925
  718MOL0     H96881   6.611   2.303   9.221 -0.6210  1.7885 -0.1460
  718MOL0     H96882   6.569   1.935   9.075 -0.0083 -1.9018  2.3386
  718MOL0     H96883   6.691   2.068   9.090 -0.3457  1.2664 -0.2623
  718MOL0     H96884   6.702   2.049   9.309  1.4718  1.0581 -2.9310
  718MOL0     H96885   6.659   1.883   9.280  3.3982  1.4326  0.3522
  718MOL0     H96886   6.414   1.931   9.303 -0.0461  0.5376  1.8634
  718MOL0     H96887   6.456   2.088   9.366  2.7322  0.8244 -0.6904
  718MOL0     H96888   6.592   1.978   9.532 -0.4897  0.6028 -0.6218
  718MOL0     H96889   6.562   1.818   9.481 -0.8155 -0.2290  2.5626
  718MOL0     H96890   6.439   2.105   9.683 -2.5798  0.9815  0.3560
  718MOL0     H96891   6.602   2.086  10.018  1.0191  3.8448  0.9484
  718MOL0     H96892   6.525   2.207   9.903 -0.9368  1.1180  1.8315
  718MOL0     H96893   6.433   2.143  10.036 -0.6539  1.3329 -0.7276
  718MOL0     H96894   6.572   1.983  10.357 -0.6718 -0.2455  2.8912
  718MOL0     H96895   6.611   1.916  10.553 -2.1834  1.2159 -2.2337
  718MOL0     H96896   6.538   1.483  10.662 -1.3575  1.8867  0.9873
  718MOL0     H96897   6.716   1.480  10.638  0.2084 -0.6428  0.1591
  718MOL0     H96898   6.685   1.411  10.868 -2.3761 -1.5380  0.2070
  718MOL0     H96899   6.733   1.582  10.862 -0.1312 -0.7316  0.5266
  718MOL0     H96900   6.549   1.498  11.029  1.0960 -1.5709 -1.8883
  718MOL0     H96901   6.432   1.484  10.909  0.0233 -1.9786  1.0661
  718MOL0     H96902   6.583   1.748  10.913 -0.8750  2.4711  2.1786
  718MOL0     H96903   6.434   1.707  10.837 -0.2533 -0.5407 -0.3748
  718MOL0     H96904   6.496   1.758  11.146 -3.6677  0.6800  2.9256
  718MOL0     H96905   6.362   1.652  11.104 -4.2569  1.9621 -1.9115
  718MOL0     H96906   6.278   1.849  10.961 -0.8038 -1.0548  0.9371
  718MOL0     H96907   6.258   1.856  11.125 -0.3267 -2.5833  0.5586
  718MOL0     H96908   6.473   1.992  10.948  2.0347 -1.4902  0.5082
  718MOL0     H96909   6.507   1.974  11.123 -1.5853  4.7060  2.1596
  718MOL0     H96910   6.279   2.129  11.007  0.8364 -1.8770 -0.7068
  718MOL0     H96911   6.439   2.181  11.078  0.3797 -1.5212  1.9593
  718MOL0     H96912   6.636   1.497  10.435 -0.8158  0.8688  4.6640
  718MOL0     H96913   6.618   1.565  10.218  3.8126 -1.7568  1.1749
  718MOL0     H96914   6.380   1.667   9.924 -3.0187  0.5626  0.1463
  718MOL0     H96915   6.341   1.698   9.663  2.1147  0.7385 -2.7740
  718MOL0     H96916   6.835   1.803   9.119  0.4554 -2.2429  0.9175
  718MOL0     H96917   6.878   1.710   9.325 -2.2648  0.3612 -1.8512
  718MOL0     H96918   6.823   1.854   9.839 -1.1198 -2.0582 -0.3053
  718MOL0     H96919   6.897   1.811  10.079 -0.5233 -3.7734  1.3885
  718MOL0     H96920   7.266   1.667  10.281 -0.2904  0.9171 -0.6613
  718MOL0     H96921   7.309   1.618  10.124  1.0044  0.8630 -0.8832
  718MOL0     H96922   7.305   1.905  10.214  4.0534  1.4460  1.0190
  718MOL0     H96923   7.305   1.851  10.040  0.7183 -2.4743 -0.8486
  718MOL0     H96924   7.504   1.713  10.098 -0.9812  0.0275  0.1929
  718MOL0     H96925   7.512   1.822  10.247  2.6634 -0.0743 -1.0395
  718MOL0     H96926   7.529   2.023  10.069 -0.0130  0.5925  0.3853
  718MOL0     H96927   7.507   1.900   9.945 -1.1015  0.0534  0.8576
  718MOL0     H96928   7.924   1.927  10.068  0.1842  1.6074 -2.4140
  718MOL0     H96929   7.256   1.628   9.909  0.4963  0.9247 -0.6262
  718MOL0     H96930   7.153   1.664   9.672  0.6948  2.2621 -0.2263
  719MOL0     O96931   3.624   4.401  10.580 -0.9575  0.1908 -0.4715
  719MOL0     C96932   3.677   4.323  10.503  0.7293 -0.6178  1.4918
  719MOL0     O96933   3.664   4.190  10.498 -0.1430 -0.0771  0.3296
  719MOL0     C96934   3.577   4.117  10.576 -0.1947  0.1277  0.2738
  719MOL0     C96935   3.464   4.167  10.652 -1.2072 -0.5623  0.6969
  719MOL0     C96936   3.372   4.075  10.695  0.5423  0.4836 -1.2048
  719MOL0     C96937   3.398   3.933  10.677  0.7821 -0.6418  0.0679
  719MOL0     O96938   3.298   3.848  10.732 -0.5729 -0.6576  1.3273
  719MOL0     C96939   3.348   3.726  10.779  0.0739  0.4150 -0.4829
  719MOL0     C96940   3.233   3.638  10.836  0.6605 -0.2738  0.2406
  719MOL0     C96941   3.183   3.668  10.976 -0.5932 -0.1578 -0.1759
  719MOL0     C96942   3.287   3.678  11.085 -0.5616  0.1223 -0.9361
  719MOL0     C96943   3.293   3.584  11.204  0.4426 -0.7485 -0.5711
  719MOL0     C96944   3.336   3.440  11.182  0.3230  0.2019 -1.0024
  719MOL0     C96945   3.242   3.327  11.239 -0.1427 -0.3425 -0.1806
  719MOL0     C96946   3.213   3.342  11.394  0.1377  1.0642  0.1724
  719MOL0     N96947   3.350   3.339  11.452 -0.4744 -0.0715 -0.7378
  719MOL0     C96948   3.429   3.448  11.479  0.3906  0.5039  0.6480
  719MOL0     C96949   3.552   3.396  11.504 -0.4458  0.3087 -0.1357
  719MOL0     C96950   3.676   3.467  11.556  0.0066  0.3597 -0.7589
  719MOL0     C96951   3.753   3.526  11.449 -0.3138  0.3676  0.0331
  719MOL0     C96952   3.877   3.606  11.489 -0.5172  0.2602  0.3591
  719MOL0     C96953   3.939   3.698  11.380 -0.6463  0.6060  0.0195
  719MOL0     O96954   3.941   3.658  11.244  0.2015 -0.2802 -0.2690
  719MOL0     C96955   4.062   3.608  11.191  0.3246 -0.5096  0.5657
  719MOL0     C96956   4.076   3.465  11.171 -0.1987  0.3952  0.1599
  719MOL0     C96957   4.179   3.406  11.098 -0.1646  0.4658  0.1829
  719MOL0     C96958   4.168   3.257  11.057 -0.5092  0.4687  0.4318
  719MOL0     C96959   4.286   3.483  11.052  0.1152  0.1894  0.4371
  719MOL0     C96960   4.420   3.439  10.994 -0.9341 -0.8799  0.3547
  719MOL0     O96961   4.502   3.534  10.953  0.2244 -0.3446 -0.0545
  719MOL0     C96962   4.632   3.497  10.927  0.7174  0.5318  0.3994
  719MOL0     C96963   4.717   3.530  11.028 -0.1452 -0.3314  0.2257
  719MOL0     C96964   4.854   3.519  11.016  0.8330  0.1755  0.0465
  719MOL0     C96965   4.908   3.451  10.906  0.1707  0.8005  0.1515
  719MOL0     O96966   5.043   3.447  10.899 -0.4267  0.6867 -0.2086
  719MOL0     C96967   5.116   3.435  10.774 -0.1969  0.2817  0.3691
  719MOL0     C96968   5.239   3.356  10.806 -0.3803  0.1965 -0.1350
  719MOL0     C96969   5.332   3.355  10.689  0.6402  0.6466 -0.9953
  719MOL0     C96970   5.452   3.272  10.729  0.3215 -0.2951 -0.1425
  719MOL0     C96971   5.561   3.266  10.620 -0.2528  0.2160  0.5431
  719MOL0     C96972   5.641   3.391  10.605  0.1245 -0.3584  0.2525
  719MOL0     C96973   5.717   3.408  10.473 -0.7077  0.2171  0.6230
  719MOL0     C96974   5.817   3.295  10.444  0.0892 -0.4514 -0.3275
  719MOL0    Cl96975   5.760   3.129  10.417 -0.7094 -0.1163  0.3871
  719MOL0     C96976   4.817   3.404  10.801 -0.3004 -0.6188 -0.0137
  719MOL0     C96977   4.678   3.431  10.815 -0.2417  0.9919 -0.2134
  719MOL0     O96978   4.441   3.320  10.989 -0.1801  0.3217  0.7341
  719MOL0     C96979   4.281   3.624  11.082 -0.6914 -0.2561  0.2205
  719MOL0     C96980   4.176   3.686  11.154  0.6643  0.4687 -0.1585
  719MOL0     N96981   3.552   3.265  11.495  0.3897  0.6901  0.7267
  719MOL0     N96982   3.429   3.226  11.474 -0.5931 -0.2524 -0.0679
  719MOL0     C96983   3.505   3.884  10.606 -0.7482 -0.5540  0.1846
  719MOL0     C96984   3.605   3.978  10.564  1.1715 -0.9760  0.5641
  719MOL0     C96985   3.771   4.388  10.413 -0.0532  0.3281 -0.2321
  719MOL0     C96986   3.868   4.317  10.338  0.2798 -0.3416 -0.3913
  719MOL0     C96987   3.957   4.379  10.251 -0.6174  0.4359  0.2871
  719MOL0     C96988   3.957   4.512  10.234 -1.1350  0.4000  0.4822
  719MOL0     O96989   4.058   4.576  10.164  0.1783  0.5811  0.0689
  719MOL0     C96990   4.123   4.503  10.055  1.5203  0.0669 -0.8989
  719MOL0     C96991   4.207   4.608   9.980 -0.0189 -0.5017  0.0682
  719MOL0     C96992   4.133   4.731   9.912  0.2253  0.4017  0.8818
  719MOL0     C96993   3.991   4.695   9.867 -0.5781  0.2930  0.1158
  719MOL0     C96994   3.922   4.814   9.830 -0.3015  1.1315 -1.0677
  719MOL0     C96995   3.882   4.915   9.785 -0.3477  0.0381  0.5266
  719MOL0     C96996   3.865   4.586  10.304  0.5217  0.1130  0.2721
  719MOL0     C96997   3.777   4.529  10.402  1.0453 -0.2247 -0.0365
  719MOL0     H96998   3.447   4.273  10.671 -0.7188 -0.9030  3.5709
  719MOL0     H96999   3.279   4.112  10.738  0.3600  1.1532 -2.1286
  719MOL0     H97000   3.386   3.657  10.703  2.5703  0.2594  0.7992
  719MOL0     H97001   3.422   3.748  10.856 -0.7140  0.5676  0.2392
  719MOL0     H97002   3.148   3.639  10.767 -0.4867 -1.5893  1.5666
  719MOL0     H97003   3.268   3.534  10.838 -0.8142 -0.7949  0.0978
  719MOL0     H97004   3.141   3.769  10.969  2.1562  1.0580 -0.2892
  719MOL0     H97005   3.112   3.592  11.011  1.5845 -2.6010 -0.7642
  719MOL0     H97006   3.388   3.688  11.045 -0.8029  0.4775 -1.4650
  719MOL0     H97007   3.263   3.776  11.127 -0.5096  0.1563 -0.9855
  719MOL0     H97008   3.362   3.630  11.275  0.7273  1.3816 -2.1381
  719MOL0     H97009   3.192   3.577  11.246  0.6603 -0.6147 -0.0149
  719MOL0     H97010   3.341   3.417  11.076  4.2455  0.4512 -1.0229
  719MOL0     H97011   3.436   3.418  11.222  1.0093  3.6840 -0.4773
  719MOL0     H97012   3.139   3.325  11.201 -2.1116 -1.4094  4.4073
  719MOL0     H97013   3.289   3.231  11.218  0.0042 -0.0876 -1.0313
  719MOL0     H97014   3.161   3.260  11.444  1.8899 -0.4912 -0.4184
  719MOL0     H97015   3.157   3.434  11.411  1.6521  2.4647 -1.8074
  719MOL0     H97016   3.385   3.548  11.481 -2.6043 -0.3311 -4.4661
  719MOL0     H97017   3.645   3.548  11.622  2.3292  0.9841 -0.3381
  719MOL0     H97018   3.737   3.402  11.619 -2.2689 -0.5576  0.6175
  719MOL0     H97019   3.688   3.588  11.387 -0.5426  0.4494  0.3590
  719MOL0     H97020   3.792   3.442  11.389  1.0137  0.7238  0.3538
  719MOL0     H97021   3.950   3.532  11.519 -0.6782  0.0693  0.2823
  719MOL0     H97022   3.848   3.665  11.576 -1.1342 -4.4596  3.6688
  719MOL0     H97023   4.029   3.754  11.409  0.9453 -1.4946 -0.6505
  719MOL0     H97024   3.864   3.779  11.381  0.8995  2.1926 -2.3924
  719MOL0     H97025   3.997   3.396  11.201  0.3073  0.2502  1.2210
  719MOL0     H97026   4.067   3.221  11.078 -0.5891  0.4772  0.0550
  719MOL0     H97027   4.186   3.264  10.950  1.5831  1.7901  0.8087
  719MOL0     H97028   4.243   3.188  11.096  1.4569 -1.1017 -5.2674
  719MOL0     H97029   4.684   3.593  11.111 -2.4316 -1.8512  0.5475
  719MOL0     H97030   4.927   3.567  11.079  1.9535 -0.9095 -0.3762
  719MOL0     H97031   5.059   3.369  10.707 -0.1235 -1.7277  2.1848
  719MOL0     H97032   5.127   3.535  10.732 -0.4436 -0.4152 -1.4881
  719MOL0     H97033   5.283   3.401  10.895 -1.4518  1.2109 -0.0862
  719MOL0     H97034   5.211   3.256  10.839 -1.1935 -0.9930 -3.9176
  719MOL0     H97035   5.367   3.455  10.661 -1.4384  1.0731 -2.3073
  719MOL0     H97036   5.274   3.303  10.612 -1.7245  0.3492  0.8576
  719MOL0     H97037   5.504   3.317  10.815  1.5916 -2.8052  0.4945
  719MOL0     H97038   5.421   3.168  10.744  3.3497 -1.2931  0.0345
  719MOL0     H97039   5.526   3.233  10.522  0.2075  3.6611 -0.9324
  719MOL0     H97040   5.628   3.188  10.658 -1.7251 -1.3812  0.0255
  719MOL0     H97041   5.571   3.474  10.595 -1.2963 -1.5254  0.1857
  719MOL0     H97042   5.712   3.397  10.688 -1.3386 -0.0490  1.5457
  719MOL0     H97043   5.783   3.495  10.476  0.1865 -0.3491 -1.3627
  719MOL0     H97044   5.651   3.429  10.389 -0.7984  2.3534  1.1673
  719MOL0     H97045   5.889   3.277  10.525  3.4318  0.1133 -2.9635
  719MOL0     H97046   5.869   3.325  10.353  1.4698 -3.2076 -0.5673
  719MOL0     H97047   4.851   3.352  10.712 -1.5924  1.8381 -2.0864
  719MOL0     H97048   4.612   3.397  10.736  0.4730  1.7338 -1.1710
  719MOL0     H97049   4.359   3.695  11.056 -2.0726  2.3240  2.5183
  719MOL0     H97050   4.176   3.791  11.180 -0.2185  1.2170 -2.8441
  719MOL0     H97051   3.530   3.782  10.579  3.9668  0.3837  0.1463
  719MOL0     H97052   3.686   3.952  10.497  0.9765  1.3628 -0.6732
  719MOL0     H97053   3.860   4.209  10.341 -1.0649 -0.4660 -3.8202
  719MOL0     H97054   4.040   4.321  10.211 -1.8791  1.5243 -4.5214
  719MOL0     H97055   4.179   4.416  10.092  1.2632  0.2238 -0.1346
  719MOL0     H97056   4.053   4.465   9.981 -0.7913  1.5813  0.4019
  719MOL0     H97057   4.267   4.554   9.906 -0.1328  0.7309 -0.9690
  719MOL0     H97058   4.274   4.661  10.048 -2.1611  0.3798  1.6076
  719MOL0     H97059   4.191   4.775   9.830 -1.5720 -2.1517 -1.9988
  719MOL0     H97060   4.123   4.814   9.982 -1.2242 -0.6606  1.9903
  719MOL0     H97061   3.926   4.665   9.950  0.8518  2.2593  2.0849
  719MOL0     H97062   4.002   4.626   9.783  3.2601  1.5532 -0.6612
  719MOL0     H97063   3.856   5.009   9.741 -1.0867  0.7249  2.3227
  719MOL0     H97064   3.863   4.695  10.305  0.1212  0.1083  0.0458
  719MOL0     H97065   3.715   4.600  10.455 -1.7870 -0.4528 -2.7222
  720MOL0     O97066  10.567   9.138   3.280 -0.6373 -0.1353  0.0819
  720MOL0     C97067  10.461   9.127   3.218  0.8837  0.2927 -0.6486
  720MOL0     O97068  10.426   9.210   3.123  0.6618  0.0353  0.4123
  720MOL0     C97069  10.498   9.323   3.091  0.5512  1.2709  0.7915
  720MOL0     C97070  10.521   9.423   3.181 -0.3191  0.1177 -0.4437
  720MOL0     C97071  10.579   9.533   3.125 -0.0371  0.0176 -0.4547
  720MOL0     C97072  10.612   9.549   2.990  0.9388  0.3959  0.2156
  720MOL0     O97073  10.657   9.669   2.942  0.6823 -0.0154  0.5431
  720MOL0     C97074  10.543   9.743   2.901  0.9342  0.0019  0.1908
  720MOL0     C97075  10.564   9.896   2.912 -0.7678 -0.6042  0.4615
  720MOL0     C97076  10.668   9.951   2.818  0.8221 -0.3577  0.9188
  720MOL0     C97077  10.715  10.090   2.871  0.6889  0.4350 -0.6473
  720MOL0     C97078  10.828  10.145   2.784 -0.5393  0.0542 -1.1844
  720MOL0     C97079  10.813  10.292   2.787  0.4895  0.2680 -0.5825
  720MOL0     C97080  10.897  10.359   2.674  0.4831  0.1508 -0.3840
  720MOL0     C97081  10.906  10.512   2.698  0.3070  0.7214  0.4850
  720MOL0     N97082  10.988  10.583   2.617 -0.3524 -0.7940  0.7267
  720MOL0     C97083  11.123  10.578   2.609 -0.5166 -0.2472  0.1220
  720MOL0     C97084  11.160  10.696   2.546 -0.1044  0.2524 -0.4505
  720MOL0     C97085  11.292  10.726   2.489 -0.5688  1.0131 -0.6639
  720MOL0     C97086  11.414  10.643   2.529 -0.0868 -0.4609 -0.6001
  720MOL0     C97087  11.442  10.643   2.679 -0.7883  0.2788 -0.2472
  720MOL0     C97088  11.508  10.773   2.720  0.2680 -0.7974 -0.5589
  720MOL0     O97089  11.649  10.758   2.733  0.3827 -0.6292  0.2016
  720MOL0     C97090  11.706  10.853   2.808  0.4837  0.0952 -0.0936
  720MOL0     C97091  11.841  10.836   2.823 -0.0087 -0.1204  0.2596
  720MOL0     C97092  11.929  10.930   2.896  0.6853  0.2746  0.4414
  720MOL0     C97093  12.074  10.906   2.915 -0.1362 -0.6749  0.6885
  720MOL0     C97094  11.861  11.047   2.950  0.8667 -0.2385 -0.0987
  720MOL0     C97095  11.933  11.138   3.048  0.4771 -0.4549 -0.3302
  720MOL0     O97096  12.030  11.082   3.125 -0.3209 -0.0980  0.7555
  720MOL0     C97097  12.077  11.158   3.225  0.7507 -0.5183  0.4212
  720MOL0     C97098  12.162  11.263   3.202 -0.6535 -0.4696 -1.0647
  720MOL0     C97099  12.192  11.342   3.313  0.4688 -0.0345 -0.0578
  720MOL0     C97100  12.157  11.314   3.440 -0.1858 -0.0712 -0.0536
  720MOL0     O97101  12.198  11.405   3.535 -0.5378  0.5065  0.0380
  720MOL0     C97102  12.095  11.485   3.589 -1.0388  0.8560 -0.6752
  720MOL0     C97103  12.137  11.633   3.592  0.2868  0.2446 -0.8731
  720MOL0     C97104  12.041  11.708   3.681  0.0853 -1.5534  0.0050
  720MOL0     C97105  12.101  11.840   3.708 -0.2429 -0.5310 -0.3287
  720MOL0     C97106  12.191  11.849   3.838  0.3328  0.6158  1.1314
  720MOL0     C97107  12.260  11.994   3.851 -0.1931  0.1818  0.0849
  720MOL0     C97108  12.351  11.999   3.969  0.1966 -0.6786 -0.4641
  720MOL0     C97109  12.494  12.033   3.934 -0.3683  0.7497  0.8634
  720MOL0    Cl97110  12.514  12.201   3.880  0.0648  0.3382  0.0471
  720MOL0     C97111  12.072  11.208   3.462 -0.5771 -0.5191  0.0889
  720MOL0     C97112  12.028  11.128   3.357  0.2738  0.0361  0.1003
  720MOL0     O97113  11.895  11.249   3.057 -0.3551 -0.6026 -0.2967
  720MOL0     C97114  11.721  11.060   2.923 -0.1714  0.2015  0.1558
  720MOL0     C97115  11.644  10.971   2.849  0.5174  0.3799  1.2064
  720MOL0     N97116  11.046  10.765   2.515  0.4061  1.1891  0.3169
  720MOL0     N97117  10.944  10.688   2.539  0.2289 -0.3110 -0.4188
  720MOL0     C97118  10.590   9.443   2.904 -0.1101 -0.8735 -0.7321
  720MOL0     C97119  10.538   9.327   2.957 -0.6397  0.6572 -0.3546
  720MOL0     C97120  10.354   9.028   3.259  0.4500  0.7404 -0.8472
  720MOL0     C97121  10.245   8.994   3.185  0.0357  0.1973  0.1527
  720MOL0     C97122  10.145   8.904   3.216 -0.4338 -0.3750 -0.4267
  720MOL0     C97123  10.147   8.843   3.335  0.6646 -0.2033 -0.9522
  720MOL0     O97124  10.036   8.765   3.362  0.5925 -0.2033 -0.2926
  720MOL0     C97125  10.039   8.643   3.441  0.6794  0.4162  0.0616
  720MOL0     C97126   9.948   8.541   3.370 -0.8383  0.1333  0.7924
  720MOL0     C97127   9.803   8.575   3.376  0.5826 -0.0751 -0.7799
  720MOL0     C97128   9.722   8.477   3.297  0.1495  0.3303 -0.4725
  720MOL0     C97129   9.586   8.518   3.290 -0.6457 -0.2176  0.7172
  720MOL0     C97130   9.485   8.575   3.264  1.2762 -0.9403  0.0279
  720MOL0     C97131  10.252   8.870   3.431 -0.2260 -0.2494  0.7600
  720MOL0     C97132  10.358   8.959   3.389 -0.0858 -0.8889  0.6791
  720MOL0     H97133  10.488   9.415   3.285  1.3503  2.0796  0.2956
  720MOL0     H97134  10.582   9.622   3.188 -0.1697 -0.7955  0.7480
  720MOL0     H97135  10.519   9.720   2.797  0.2192 -1.6608  0.6718
  720MOL0     H97136  10.450   9.720   2.953  0.0512  1.9580 -0.4559
  720MOL0     H97137  10.471   9.953   2.916 -0.8686 -0.8192  2.6350
  720MOL0     H97138  10.609   9.921   3.009 -1.5860  1.2638  0.4080
  720MOL0     H97139  10.755   9.886   2.813  2.2107  1.5092 -1.6515
  720MOL0     H97140  10.625   9.974   2.720  1.3800  2.1624  1.1956
  720MOL0     H97141  10.618  10.139   2.883 -0.6578 -1.8605 -1.3197
  720MOL0     H97142  10.740  10.077   2.976 -4.5457 -1.2577  0.7203
  720MOL0     H97143  10.920  10.117   2.835 -1.3232 -0.3835  0.0230
  720MOL0     H97144  10.813  10.106   2.683 -0.6984 -0.3229 -1.0178
  720MOL0     H97145  10.710  10.327   2.775 -0.1111  0.4434  3.5263
  720MOL0     H97146  10.856  10.329   2.881 -1.1480  1.6880 -0.3615
  720MOL0     H97147  10.992  10.305   2.680 -0.1408 -0.8658  0.5303
  720MOL0     H97148  10.854  10.335   2.576  0.5622  0.5075 -0.5096
  720MOL0     H97149  10.943  10.522   2.800  2.2121  1.8206 -0.2622
  720MOL0     H97150  10.806  10.554   2.682  0.2867  0.2808 -0.5983
  720MOL0     H97151  11.183  10.490   2.630 -0.3025  0.0898  0.9898
  720MOL0     H97152  11.288  10.718   2.380  2.0617 -0.4497 -0.7306
  720MOL0     H97153  11.306  10.832   2.511  2.0079  0.7286 -0.6274
  720MOL0     H97154  11.503  10.662   2.469 -0.4738  1.3262 -0.6701
  720MOL0     H97155  11.387  10.541   2.498 -1.8780 -1.3961  3.4047
  720MOL0     H97156  11.504  10.554   2.692 -1.0346  0.4163  2.4526
  720MOL0     H97157  11.355  10.624   2.742 -0.8202 -0.8465 -0.6238
  720MOL0     H97158  11.458  10.803   2.812 -1.9177  1.2807 -2.3227
  720MOL0     H97159  11.485  10.846   2.643  0.5514  0.8077  0.8312
  720MOL0     H97160  11.890  10.749   2.780  3.3977  0.6478  2.1694
  720MOL0     H97161  12.094  10.869   3.016  1.0937 -0.2623  0.6166
  720MOL0     H97162  12.114  10.830   2.848 -0.4692  0.4959 -0.9049
  720MOL0     H97163  12.133  10.996   2.892  2.5285 -2.4223  0.2787
  720MOL0     H97164  12.193  11.277   3.099  0.8382 -2.2229 -0.9160
  720MOL0     H97165  12.251  11.432   3.306  2.5808 -1.4454 -1.6583
  720MOL0     H97166  12.015  11.484   3.514 -0.9811  0.0939 -0.7320
  720MOL0     H97167  12.063  11.438   3.682 -1.4419  0.7466 -0.8712
  720MOL0     H97168  12.238  11.646   3.633 -0.4644  2.7899  0.3820
  720MOL0     H97169  12.144  11.669   3.489  2.1773 -2.7695 -1.9204
  720MOL0     H97170  12.022  11.659   3.776 -2.0364  1.1001  1.0684
  720MOL0     H97171  11.944  11.710   3.629 -0.9536  1.4185  1.8048
  720MOL0     H97172  12.151  11.875   3.617 -2.3548  3.0260 -0.3206
  720MOL0     H97173  12.029  11.921   3.723  0.8888  0.6703 -1.1860
  720MOL0     H97174  12.260  11.765   3.831 -1.2425 -1.0085  3.4816
  720MOL0     H97175  12.132  11.825   3.928 -0.2559 -1.2204  0.3139
  720MOL0     H97176  12.313  12.006   3.757 -0.7250  0.6562 -0.1581
  720MOL0     H97177  12.198  12.084   3.854  3.8815  3.2386  1.3714
  720MOL0     H97178  12.352  11.899   4.013 -0.9249 -1.0665 -1.2761
  720MOL0     H97179  12.325  12.069   4.049  2.8120  0.3146 -0.4051
  720MOL0     H97180  12.546  11.959   3.872 -0.5763  0.4499  1.0449
  720MOL0     H97181  12.553  12.024   4.025  0.8325 -0.0322  0.0217
  720MOL0     H97182  12.028  11.188   3.559 -2.4053  2.6769  0.0393
  720MOL0     H97183  11.971  11.038   3.377  2.0594 -0.7103  2.2007
  720MOL0     H97184  11.664  11.143   2.963 -1.1190 -0.6910  0.6867
  720MOL0     H97185  11.539  10.995   2.832  0.5078 -0.9151 -0.9450
  720MOL0     H97186  10.621   9.441   2.800  3.2756 -0.1951  0.1451
  720MOL0     H97187  10.526   9.241   2.892  0.7946 -0.3193  0.6167
  720MOL0     H97188  10.224   9.042   3.090 -0.2980 -1.7145 -0.7848
  720MOL0     H97189  10.068   8.877   3.144  0.3895 -1.5041 -0.9163
  720MOL0     H97190  10.140   8.603   3.438  0.4991 -0.0462  0.0260
  720MOL0     H97191  10.019   8.671   3.545 -0.7577 -0.8914  0.1751
  720MOL0     H97192   9.971   8.442   3.411 -1.0271  0.7914  2.5810
  720MOL0     H97193   9.976   8.525   3.266 -2.9493  1.8460 -0.1122
  720MOL0     H97194   9.787   8.678   3.341  2.7518 -0.1437 -2.1388
  720MOL0     H97195   9.781   8.556   3.482  1.0275 -1.3324 -0.8970
  720MOL0     H97196   9.720   8.380   3.347 -0.8463  0.5491 -0.0839
  720MOL0     H97197   9.770   8.463   3.199  1.4836 -1.7277  0.4052
  720MOL0     H97198   9.389   8.624   3.257  2.8551  3.1214  2.8997
  720MOL0     H97199  10.254   8.822   3.528  1.0561 -1.8833 -0.0426
  720MOL0     H97200  10.446   8.971   3.450 -1.6825  2.1642  2.6734
  721MOL0     O97201   7.954   6.578  10.046 -0.0684 -0.1725  0.3114
  721MOL0     C97202   8.030   6.611  10.138 -0.6877  0.1989 -0.6752
  721MOL0     O97203   8.144   6.533  10.170  0.1807  0.7426  0.8003
  721MOL0     C97204   8.191   6.432  10.077  1.2038  0.3511 -0.5072
  721MOL0     C97205   8.161   6.430   9.942  0.6619 -0.4618 -0.1929
  721MOL0     C97206   8.191   6.325   9.860  0.1022 -0.2262  0.0603
  721MOL0     C97207   8.245   6.214   9.917  0.2952 -1.0540 -1.0263
  721MOL0     O97208   8.289   6.106   9.847 -0.7972  0.4779 -1.1664
  721MOL0     C97209   8.207   6.071   9.737  0.2497 -0.2355  0.0858
  721MOL0     C97210   8.238   5.923   9.715  0.0466  0.1743  0.6667
  721MOL0     C97211   8.385   5.886   9.707 -0.8333  0.1222  0.0164
  721MOL0     C97212   8.412   5.781   9.593  0.2984 -0.5235  0.4146
  721MOL0     C97213   8.544   5.711   9.619 -0.9220  0.1272  0.2953
  721MOL0     C97214   8.535   5.609   9.737 -0.3032  0.2551  0.2552
  721MOL0     C97215   8.651   5.528   9.759 -0.2151 -0.2510  0.0345
  721MOL0     C97216   8.773   5.606   9.815  0.6037 -0.6582  0.1678
  721MOL0     N97217   8.891   5.528   9.805  0.1197  0.6923 -0.1911
  721MOL0     C97218   8.938   5.487   9.680 -1.0181  0.3473 -0.2244
  721MOL0     C97219   9.047   5.409   9.719  0.7910 -0.2095 -0.3996
  721MOL0     C97220   9.136   5.328   9.629 -0.1021  0.8086 -1.1745
  721MOL0     C97221   9.175   5.400   9.506  0.2420  0.6488 -0.4457
  721MOL0     C97222   9.262   5.306   9.414  0.1134  1.2539 -1.0279
  721MOL0     C97223   9.348   5.371   9.321 -0.2734  0.3779  1.3311
  721MOL0     O97224   9.290   5.469   9.232 -0.0208 -0.9165  0.4543
  721MOL0     C97225   9.384   5.564   9.197 -0.4766 -0.8900 -0.3352
  721MOL0     C97226   9.516   5.529   9.154  0.6053  0.1799 -0.6298
  721MOL0     C97227   9.612   5.629   9.140  0.1793  0.5147  0.1537
  721MOL0     C97228   9.757   5.586   9.127  0.1738  0.4353  0.0602
  721MOL0     C97229   9.587   5.768   9.145  0.1381 -1.1054  0.7971
  721MOL0     C97230   9.702   5.868   9.142  0.3899 -0.5622  0.1877
  721MOL0     O97231   9.816   5.836   9.075  0.0429 -0.1760  0.0416
  721MOL0     C97232   9.897   5.942   9.025 -0.7446  0.8570 -0.5759
  721MOL0     C97233   9.865   6.025   8.921  0.1585  0.4098  0.7698
  721MOL0     C97234   9.942   6.134   8.887 -0.3602 -0.3524  0.2440
  721MOL0     C97235  10.068   6.157   8.947 -0.1815  0.8311 -0.5682
  721MOL0     O97236  10.133   6.273   8.931  0.1060 -0.3088  0.0566
  721MOL0     C97237  10.079   6.391   8.985  0.2743  0.3295 -0.4862
  721MOL0     C97238  10.162   6.514   8.942  0.0088  0.2750 -0.7823
  721MOL0     C97239  10.106   6.642   9.007 -0.4346 -0.3007 -0.3725
  721MOL0     C97240  10.096   6.629   9.159  0.3597  0.0817 -0.0785
  721MOL0     C97241  10.081   6.771   9.205  0.0779 -0.0221 -0.6693
  721MOL0     C97242  10.063   6.786   9.359  0.1344 -1.0495  0.4873
  721MOL0     C97243  10.042   6.930   9.398 -0.0361  0.0119 -0.2110
  721MOL0     C97244   9.991   6.941   9.546 -0.0525  0.0244  0.0303
  721MOL0    Cl97245   9.920   7.107   9.563  0.2164 -0.2263  0.4187
  721MOL0     C97246  10.112   6.064   9.047  0.6646  0.3445 -0.8545
  721MOL0     C97247  10.019   5.962   9.087  0.5547 -0.7545  0.1042
  721MOL0     O97248   9.661   5.980   9.189 -0.6442 -0.3938 -0.0417
  721MOL0     C97249   9.457   5.805   9.193  0.1975  0.4714  0.5956
  721MOL0     C97250   9.356   5.703   9.212  0.1354 -0.0296 -0.1389
  721MOL0     N97251   9.058   5.407   9.856 -0.3961  0.1201 -0.8561
  721MOL0     N97252   8.964   5.479   9.914  0.4105 -0.0568 -0.0506
  721MOL0     C97253   8.264   6.200  10.055  0.6458  0.7822  0.4562
  721MOL0     C97254   8.244   6.317  10.140  0.0065  0.0161 -0.8977
  721MOL0     C97255   8.002   6.717  10.228 -0.0269 -0.5361 -0.9441
  721MOL0     C97256   8.094   6.755  10.333  0.0926 -0.6172  0.1974
  721MOL0     C97257   8.058   6.852  10.431 -0.7438  0.8554 -0.5749
  721MOL0     C97258   7.939   6.915  10.424  0.0098  0.3090 -0.1220
  721MOL0     O97259   7.895   6.991  10.526 -0.0215 -0.0334 -0.4947
  721MOL0     C97260   7.967   7.027  10.656  0.4872 -0.4333 -0.4889
  721MOL0     C97261   7.864   7.100  10.758 -0.3174  0.6259 -1.3775
  721MOL0     C97262   7.924   7.127  10.903  0.5569 -0.2465  0.0397
  721MOL0     C97263   7.830   7.211  11.000  0.7071 -0.8539 -0.4157
  721MOL0     C97264   7.688   7.182  10.968 -0.3248  0.0238  0.4538
  721MOL0     C97265   7.572   7.160  10.931  0.4196 -0.1020 -1.0447
  721MOL0     C97266   7.859   6.901  10.320  0.4784 -0.4432 -0.4558
  721MOL0     C97267   7.882   6.800  10.222 -1.3798  0.1264 -0.6826
  721MOL0     H97268   8.110   6.512   9.893 -0.7954 -1.6606 -0.7434
  721MOL0     H97269   8.182   6.322   9.752  0.6087  0.4559 -0.0042
  721MOL0     H97270   8.103   6.088   9.767  0.6028  3.0137 -0.1970
  721MOL0     H97271   8.232   6.113   9.639 -3.7639 -1.4608 -1.6826
  721MOL0     H97272   8.177   5.855   9.776  0.2035  1.0770  1.8724
  721MOL0     H97273   8.198   5.912   9.614  1.3453 -0.2265  0.1763
  721MOL0     H97274   8.449   5.969   9.676 -1.9622  1.6553  1.6171
  721MOL0     H97275   8.417   5.849   9.805 -0.0115  1.6243  0.3311
  721MOL0     H97276   8.324   5.719   9.574  0.1124 -0.3791  0.7965
  721MOL0     H97277   8.428   5.840   9.502 -0.8901 -1.8127 -0.6692
  721MOL0     H97278   8.570   5.659   9.526  2.8206 -0.4811  1.5167
  721MOL0     H97279   8.629   5.778   9.634 -0.4214  0.5932 -3.6302
  721MOL0     H97280   8.499   5.658   9.827 -0.3381  0.6545  0.0259
  721MOL0     H97281   8.451   5.544   9.709 -0.6612  1.2091 -0.9746
  721MOL0     H97282   8.633   5.445   9.828  0.1829  1.3535  2.2078
  721MOL0     H97283   8.670   5.479   9.663 -2.3254  0.5261 -0.8398
  721MOL0     H97284   8.749   5.638   9.917  0.1183 -1.8521  0.4534
  721MOL0     H97285   8.783   5.701   9.761  0.6622 -1.0164 -0.4628
  721MOL0     H97286   8.885   5.504   9.587 -2.0101 -2.7928 -0.3703
  721MOL0     H97287   9.227   5.306   9.685 -0.3205  0.2667 -1.0250
  721MOL0     H97288   9.073   5.241   9.607 -0.6338  1.1565 -1.0575
  721MOL0     H97289   9.239   5.485   9.529  3.1264 -1.7319  1.1602
  721MOL0     H97290   9.088   5.436   9.451 -1.5787  0.4498  2.1426
  721MOL0     H97291   9.191   5.250   9.351 -0.9272  2.4051 -0.9203
  721MOL0     H97292   9.318   5.232   9.472  1.1007  1.3623 -1.8158
  721MOL0     H97293   9.384   5.295   9.252 -0.9999 -0.2018  1.5702
  721MOL0     H97294   9.424   5.421   9.383  2.3609 -0.4851 -1.0150
  721MOL0     H97295   9.547   5.426   9.141  0.8415 -0.1082  1.7463
  721MOL0     H97296   9.763   5.483   9.164  2.7576  0.0664 -1.1496
  721MOL0     H97297   9.800   5.585   9.027  2.9925  2.0223  1.1366
  721MOL0     H97298   9.824   5.638   9.196  0.4892 -0.5975  0.5420
  721MOL0     H97299   9.777   5.995   8.864 -0.5122  0.6139  1.6671
  721MOL0     H97300   9.910   6.204   8.810 -2.9538 -1.8905 -0.1929
  721MOL0     H97301   9.973   6.400   8.959 -1.0017 -2.8566  2.6545
  721MOL0     H97302  10.083   6.383   9.094  0.2693  0.4892 -0.4750
  721MOL0     H97303  10.270   6.502   8.955 -0.3030  0.0275  2.0570
  721MOL0     H97304  10.162   6.531   8.834 -1.2089 -0.4452 -0.9100
  721MOL0     H97305  10.006   6.648   8.963 -0.0729  0.8014 -1.0799
  721MOL0     H97306  10.159   6.733   8.979  0.2888 -0.3302  0.8227
  721MOL0     H97307  10.008   6.574   9.195 -0.5614  1.7690  0.3551
  721MOL0     H97308  10.187   6.578   9.191 -0.3346 -2.0540 -1.3061
  721MOL0     H97309   9.992   6.815   9.158  0.8276 -2.4282 -4.8635
  721MOL0     H97310  10.170   6.831   9.183  1.7527 -0.7430  3.3499
  721MOL0     H97311   9.985   6.715   9.388 -3.2191  1.8086 -0.8005
  721MOL0     H97312  10.152   6.754   9.413 -0.5983 -0.6132  2.0165
  721MOL0     H97313   9.953   6.962   9.344 -0.4566 -4.0343 -2.2824
  721MOL0     H97314  10.129   6.995   9.387  0.2924 -0.0982  1.3886
  721MOL0     H97315  10.079   6.910   9.602 -0.3464 -3.7969 -1.2611
  721MOL0     H97316   9.923   6.856   9.558  2.1832 -2.0972 -1.3816
  721MOL0     H97317  10.202   6.087   9.103  0.2022 -2.1116  1.0801
  721MOL0     H97318  10.050   5.910   9.177  3.7283  2.4255  1.1164
  721MOL0     H97319   9.419   5.906   9.207 -4.0798 -0.4461 -2.1849
  721MOL0     H97320   9.255   5.718   9.246  0.1551 -2.6095  1.2487
  721MOL0     H97321   8.303   6.106  10.092 -2.6856 -0.4030  1.2750
  721MOL0     H97322   8.252   6.316  10.248  0.7562 -0.3532 -0.9516
  721MOL0     H97323   8.186   6.698  10.330  1.7027  1.8984 -1.1218
  721MOL0     H97324   8.120   6.865  10.519  1.1262  2.2869 -2.0389
  721MOL0     H97325   8.006   6.933  10.697  0.8442 -1.0021 -2.0320
  721MOL0     H97326   8.059   7.084  10.644  0.2753  0.3622  1.3334
  721MOL0     H97327   7.786   7.029  10.789 -0.3977  1.2793 -0.0065
  721MOL0     H97328   7.822   7.187  10.707  1.3671  1.9162 -0.6489
  721MOL0     H97329   8.019   7.179  10.887  0.2300  0.0910 -0.8770
  721MOL0     H97330   7.941   7.037  10.963 -1.6113  2.3621  5.2811
  721MOL0     H97331   7.853   7.313  10.970 -0.4808 -1.0785 -2.2882
  721MOL0     H97332   7.848   7.199  11.107  0.5451 -0.7776 -0.3788
  721MOL0     H97333   7.473   7.127  10.905  0.9064 -1.8165 -0.8296
  721MOL0     H97334   7.771   6.965  10.315  0.8580  0.0816 -0.4693
  721MOL0     H97335   7.810   6.793  10.141 -3.5432  0.0795  1.1300
  722MOL0     O97336   0.602   1.533  11.336 -0.5672 -0.5874 -0.3550
  722MOL0     C97337   0.585   1.658  11.319 -0.5932  1.0078  0.4826
  722MOL0     O97338   0.501   1.705  11.217  0.0458 -0.1279  0.0477
  722MOL0     C97339   0.453   1.634  11.113  0.3024 -0.5159 -0.2618
  722MOL0     C97340   0.322   1.660  11.068 -0.1450  0.4435 -0.4973
  722MOL0     C97341   0.272   1.589  10.957 -0.0250 -1.2034  0.4950
  722MOL0     C97342   0.351   1.503  10.880 -0.9639  0.2590 -0.3963
  722MOL0     O97343   0.294   1.451  10.762 -0.6915 -1.3941 -0.4560
  722MOL0     C97344   0.372   1.378  10.673 -0.8835 -0.7348 -0.3589
  722MOL0     C97345   0.302   1.337  10.544 -0.1354 -0.8827  0.5630
  722MOL0     C97346   0.181   1.234  10.566 -1.1313 -0.1175 -0.6551
  722MOL0     C97347   0.165   1.133  10.453  0.1488 -0.6117  1.0671
  722MOL0     C97348   0.069   1.017  10.488  0.4867  0.7771  0.3704
  722MOL0     C97349   0.063   0.912  10.383  0.3167  0.6069 -0.6764
  722MOL0     C97350  -0.023   0.786  10.401 -0.4129 -0.3427 -0.1153
  722MOL0     C97351  -0.021   0.706  10.273 -0.3427 -0.6066 -0.3220
  722MOL0     N97352  -0.077   0.575  10.290 -0.9396  0.0300 -0.5078
  722MOL0     C97353  -0.023   0.487  10.385  0.7883  0.8982  0.7752
  722MOL0     C97354  -0.127   0.401  10.397  0.1682  0.3397  0.5024
  722MOL0     C97355  -0.133   0.265  10.470 -1.4838 -0.4272 -0.1827
  722MOL0     C97356  -0.065   0.284  10.608 -0.6674  0.0787  0.3647
  722MOL0     C97357  -0.146   0.349  10.722 -0.3438  0.0749 -0.3247
  722MOL0     C97358  -0.212   0.231  10.800  0.0671 -0.9664 -0.3810
  722MOL0     O97359  -0.108   0.138  10.849  0.1721 -0.2521 -0.3770
  722MOL0     C97360  -0.152   0.021  10.892  0.3905  1.1989 -0.5603
  722MOL0     C97361  -0.272   0.008  10.965 -0.4825  0.3059  0.0550
  722MOL0     C97362  -0.308  -0.118  11.015  0.7484  0.2191 -0.2201
  722MOL0     C97363  -0.439  -0.128  11.086  0.4367  0.1134 -0.5221
  722MOL0     C97364  -0.219  -0.224  11.009  0.0147  0.0585 -0.4015
  722MOL0     C97365  -0.243  -0.359  11.072 -0.5356 -1.0680 -0.0145
  722MOL0     O97366  -0.231  -0.469  10.985  0.1306 -0.3017  0.3305
  722MOL0     C97367  -0.281  -0.582  11.017  0.8883  0.0830  0.1194
  722MOL0     C97368  -0.395  -0.598  11.102 -0.0284  0.4178  0.2881
  722MOL0     C97369  -0.439  -0.725  11.129 -0.1080 -0.6989  0.1178
  722MOL0     C97370  -0.379  -0.838  11.085  0.9689  0.6622 -1.1427
  722MOL0     O97371  -0.434  -0.964  11.110 -0.5215 -0.4958 -0.1531
  722MOL0     C97372  -0.510  -1.024  11.012 -1.2135 -0.1257 -0.2251
  722MOL0     C97373  -0.563  -1.153  11.043 -0.0508 -0.7279 -0.2677
  722MOL0     C97374  -0.597  -1.243  10.925 -0.3456 -0.4414 -0.3566
  722MOL0     C97375  -0.746  -1.243  10.901 -0.8320  0.1235  0.2775
  722MOL0     C97376  -0.786  -1.359  10.813  0.4498 -0.5882 -0.4988
  722MOL0     C97377  -0.928  -1.341  10.757  0.4656 -0.2445  0.3197
  722MOL0     C97378  -0.985  -1.461  10.675 -0.3768 -0.1094 -0.4325
  722MOL0     C97379  -1.124  -1.519  10.716 -0.1209 -0.0220  1.0441
  722MOL0    Cl97380  -1.254  -1.396  10.663  0.0573  0.0473  0.2438
  722MOL0     C97381  -0.274  -0.830  11.003 -0.5138 -0.5720  0.6489
  722MOL0     C97382  -0.230  -0.703  10.961  0.3181 -0.8165  1.0197
  722MOL0     O97383  -0.258  -0.366  11.194 -0.0652  0.6723 -0.2507
  722MOL0     C97384  -0.087  -0.208  10.952  0.5771 -0.7481  0.4122
  722MOL0     C97385  -0.056  -0.082  10.891 -0.5677  0.2010 -0.5909
  722MOL0     N97386  -0.233   0.437  10.318 -0.0706 -0.2166  0.0076
  722MOL0     N97387  -0.205   0.545  10.257 -0.0397 -0.4543  0.0742
  722MOL0     C97388   0.488   1.485  10.925 -0.1510  0.3332 -0.2403
  722MOL0     C97389   0.542   1.555  11.037  0.1122 -0.1063  0.9142
  722MOL0     C97390   0.667   1.754  11.413 -0.8058  0.4003  0.2286
  722MOL0     C97391   0.654   1.892  11.411 -0.0055 -0.4779  0.2402
  722MOL0     C97392   0.721   1.974  11.496  0.0618 -0.6602  0.1833
  722MOL0     C97393   0.801   1.914  11.597  0.8091 -0.1988  0.2657
  722MOL0     O97394   0.845   2.013  11.683  0.5790 -0.7770 -0.8726
  722MOL0     C97395   0.937   1.983  11.782  0.3355  0.7325 -0.4324
  722MOL0     C97396   1.033   2.106  11.808  0.1618 -0.0767 -0.4872
  722MOL0     C97397   1.121   2.085  11.931 -0.5388 -0.4838 -0.5254
  722MOL0     C97398   1.240   2.177  11.937 -0.5100 -0.2129  0.3393
  722MOL0     C97399   1.229   2.260  12.055  0.5448  1.4075 -1.3810
  722MOL0     C97400   1.223   2.337  12.148  0.7147 -0.3194 -0.3789
  722MOL0     C97401   0.814   1.781  11.617 -0.2072  0.3230 -0.4723
  722MOL0     C97402   0.746   1.703  11.522 -0.8053  0.7017 -0.0752
  722MOL0     H97403   0.258   1.739  11.107  0.5350  1.4031 -1.3094
  722MOL0     H97404   0.165   1.593  10.936 -0.0838  0.9330  1.0022
  722MOL0     H97405   0.467   1.428  10.651 -0.0703 -2.3067 -0.6067
  722MOL0     H97406   0.402   1.284  10.720  3.8912 -1.0114 -3.2957
  722MOL0     H97407   0.256   1.425  10.499  0.2132 -2.7641 -3.9600
  722MOL0     H97408   0.373   1.299  10.470 -0.2779 -1.4797  0.7263
  722MOL0     H97409   0.200   1.180  10.659 -0.9856  0.8784 -0.0876
  722MOL0     H97410   0.091   1.295  10.578  0.7371  2.8012 -0.5407
  722MOL0     H97411   0.131   1.185  10.363  1.9966 -0.9950  0.0902
  722MOL0     H97412   0.261   1.082  10.443  1.3990  2.1031 -2.2790
  722MOL0     H97413   0.092   0.980  10.588 -3.9311 -1.5660  0.7586
  722MOL0     H97414  -0.029   1.062  10.505  0.8596  1.6571  0.2913
  722MOL0     H97415   0.009   0.963  10.302  1.1233  1.7365 -0.5239
  722MOL0     H97416   0.165   0.890  10.351 -0.1247  1.5118 -2.9810
  722MOL0     H97417   0.013   0.725  10.484 -1.1313  2.6171  2.6104
  722MOL0     H97418  -0.127   0.819  10.410 -0.3017  0.0396 -0.2020
  722MOL0     H97419   0.083   0.719  10.239 -0.0117  1.5300  1.2349
  722MOL0     H97420  -0.069   0.760  10.191 -2.0726 -3.7947 -1.5454
  722MOL0     H97421   0.077   0.464  10.421  0.1527 -0.0971  2.0136
  722MOL0     H97422  -0.233   0.226  10.491 -1.6490  0.6416  1.1658
  722MOL0     H97423  -0.093   0.192  10.401 -2.0065 -0.9318  0.0395
  722MOL0     H97424   0.030   0.337  10.593 -1.6744  1.6121 -1.1171
  722MOL0     H97425  -0.036   0.182  10.633  1.2331  0.5652  0.2478
  722MOL0     H97426  -0.223   0.420  10.693 -1.6115 -0.9545  0.4084
  722MOL0     H97427  -0.083   0.397  10.798 -0.6100  0.2848 -0.2370
  722MOL0     H97428  -0.277   0.192  10.722 -1.5680  2.1515 -0.7455
  722MOL0     H97429  -0.286   0.264  10.873 -0.0370  1.1847 -1.3792
  722MOL0     H97430  -0.341   0.092  10.971  1.5121  1.9391  1.5983
  722MOL0     H97431  -0.508  -0.044  11.076 -2.7602 -2.1523  0.6899
  722MOL0     H97432  -0.492  -0.220  11.060  2.7518 -2.1266  1.9726
  722MOL0     H97433  -0.428  -0.134  11.195  1.4371  0.4979 -0.5945
  722MOL0     H97434  -0.457  -0.523  11.151 -1.6520 -0.1111 -0.8623
  722MOL0     H97435  -0.524  -0.739  11.195 -1.6704  4.2027 -0.4165
  722MOL0     H97436  -0.587  -0.961  10.967 -0.1860 -0.8242 -3.1875
  722MOL0     H97437  -0.439  -1.045  10.932  0.2087  0.9447  0.6974
  722MOL0     H97438  -0.498  -1.192  11.123  2.7889 -0.7265 -2.4055
  722MOL0     H97439  -0.651  -1.145  11.107  1.6297  1.4958  1.9385
  722MOL0     H97440  -0.572  -1.343  10.961  2.2149  0.8385  1.7470
  722MOL0     H97441  -0.548  -1.231  10.828 -1.5189  1.1781 -0.8131
  722MOL0     H97442  -0.803  -1.255  10.994 -1.6705 -2.0930 -0.4672
  722MOL0     H97443  -0.791  -1.157  10.850 -1.6762 -0.7931 -0.5810
  722MOL0     H97444  -0.789  -1.457  10.861 -0.6793 -1.5187 -2.3619
  722MOL0     H97445  -0.712  -1.359  10.732  0.5553 -1.8068 -0.4243
  722MOL0     H97446  -0.992  -1.323  10.843  0.5857  1.3631  0.1092
  722MOL0     H97447  -0.934  -1.262  10.682  0.6668 -3.6630 -3.7133
  722MOL0     H97448  -0.913  -1.543  10.682  0.0440  0.3353  0.6813
  722MOL0     H97449  -0.990  -1.423  10.573  1.7297  0.0849 -0.5080
  722MOL0     H97450  -1.124  -1.541  10.823  0.6444 -2.8195  0.5602
  722MOL0     H97451  -1.132  -1.619  10.672 -1.7308 -0.3350  1.9785
  722MOL0     H97452  -0.209  -0.914  10.980  1.7211  0.8270  1.4188
  722MOL0     H97453  -0.163  -0.692  10.876 -1.6286 -0.5977 -0.5597
  722MOL0     H97454  -0.015  -0.289  10.952  1.7325  0.2676  0.4088
  722MOL0     H97455   0.045  -0.046  10.873 -0.6984  1.0103  0.1837
  722MOL0     H97456   0.557   1.432  10.860 -0.0835 -3.0628  2.3862
  722MOL0     H97457   0.647   1.553  11.064  0.2877 -0.1258  0.2555
  722MOL0     H97458   0.600   1.949  11.336  3.9396  0.8018 -1.9656
  722MOL0     H97459   0.720   2.083  11.498 -0.3603 -0.6675  0.5071
  722MOL0     H97460   0.887   1.971  11.878  2.4725  1.7106  0.8726
  722MOL0     H97461   1.009   1.908  11.747  4.1415  4.7541 -2.1628
  722MOL0     H97462   0.974   2.199  11.802 -1.4875 -1.1081 -0.9497
  722MOL0     H97463   1.099   2.119  11.722 -1.7584  0.5607 -1.9485
  722MOL0     H97464   1.160   1.983  11.931  2.5890  0.5096 -3.4231
  722MOL0     H97465   1.063   2.083  12.024  1.7106  0.7511  1.0004
  722MOL0     H97466   1.248   2.236  11.846  1.4119 -0.8946  0.0172
  722MOL0     H97467   1.337   2.126  11.938 -0.1290  0.4683 -0.5123
  722MOL0     H97468   1.206   2.399  12.234 -2.3873 -2.1693  0.5476
  722MOL0     H97469   0.876   1.737  11.695 -2.9556  0.5478  2.0515
  722MOL0     H97470   0.766   1.596  11.511  2.1133  1.4096 -6.4247
  723MOL0     O97471   3.278   1.368   7.266  0.7311  0.5725 -0.1377
  723MOL0     C97472   3.231   1.251   7.269 -0.2986  0.2370 -0.7683
  723MOL0     O97473   3.103   1.218   7.285  0.6404  0.0942 -0.0375
  723MOL0     C97474   3.007   1.310   7.273  0.2648 -0.8194 -0.2759
  723MOL0     C97475   2.902   1.299   7.364 -0.1305  0.1192 -0.3562
  723MOL0     C97476   2.792   1.386   7.352  1.6567  0.1727  0.5024
  723MOL0     C97477   2.787   1.484   7.252 -0.3777  0.8375  0.6140
  723MOL0     O97478   2.689   1.580   7.235 -0.0356  0.4183 -0.4779
  723MOL0     C97479   2.560   1.586   7.293  0.5619 -0.1385 -0.2877
  723MOL0     C97480   2.514   1.732   7.311  0.2426 -0.4561 -0.4510
  723MOL0     C97481   2.372   1.750   7.362  0.0413  0.0256 -0.4050
  723MOL0     C97482   2.366   1.714   7.518 -0.5502  0.6031  0.2727
  723MOL0     C97483   2.233   1.748   7.578 -0.1750 -0.7013 -0.1532
  723MOL0     C97484   2.232   1.697   7.722  0.5131 -0.3491  0.3099
  723MOL0     C97485   2.100   1.746   7.791  0.0234  0.5010 -0.4928
  723MOL0     C97486   2.088   1.673   7.922  0.3418 -0.6957  0.3388
  723MOL0     N97487   2.215   1.679   7.996  0.5776  0.2673 -0.3924
  723MOL0     C97488   2.254   1.778   8.085  1.4437  0.3906  0.4426
  723MOL0     C97489   2.373   1.749   8.133  0.4760 -0.1836  0.0080
  723MOL0     C97490   2.453   1.828   8.227  0.7848  0.6099 -0.5179
  723MOL0     C97491   2.451   1.748   8.343 -0.1088  0.8970 -0.4626
  723MOL0     C97492   2.534   1.810   8.458  0.1273  0.5200 -0.2661
  723MOL0     C97493   2.654   1.900   8.423 -0.5167 -0.2160 -0.2433
  723MOL0     O97494   2.699   1.943   8.558 -0.2511 -0.4587  0.9563
  723MOL0     C97495   2.813   2.014   8.571  0.9545  0.2573 -0.6269
  723MOL0     C97496   2.889   2.058   8.467  0.4110  0.9093  0.4614
  723MOL0     C97497   3.018   2.112   8.492  0.3740  1.6418 -0.2677
  723MOL0     C97498   3.097   2.138   8.364 -0.8567 -0.5434  0.1061
  723MOL0     C97499   3.068   2.116   8.626 -0.5876 -0.2309  0.3629
  723MOL0     C97500   3.204   2.152   8.661 -0.7493 -0.0436 -0.0970
  723MOL0     O97501   3.266   2.243   8.581 -0.6798  0.1898  0.3145
  723MOL0     C97502   3.400   2.235   8.578 -0.8794 -0.7678  0.5597
  723MOL0     C97503   3.475   2.140   8.510 -0.0078  0.0070 -0.1914
  723MOL0     C97504   3.619   2.148   8.508  0.5788  0.3780  0.8589
  723MOL0     C97505   3.686   2.249   8.574 -1.5480  1.1208  0.3458
  723MOL0     O97506   3.826   2.237   8.584 -0.0094  0.4880  0.1285
  723MOL0     C97507   3.905   2.342   8.633  0.2741  0.2991  0.6674
  723MOL0     C97508   4.050   2.310   8.577  0.2166  0.2419 -0.5885
  723MOL0     C97509   4.156   2.417   8.611 -0.2647  0.3590 -0.1949
  723MOL0     C97510   4.210   2.413   8.749 -1.6148  0.1696  0.3254
  723MOL0     C97511   4.289   2.534   8.782 -0.7860  0.5994  0.0797
  723MOL0     C97512   4.331   2.530   8.929 -0.3106 -0.1403 -0.4604
  723MOL0     C97513   4.447   2.629   8.942 -0.0743  0.2354  0.2431
  723MOL0     C97514   4.498   2.649   9.085  0.2729 -0.0215  0.8088
  723MOL0    Cl97515   4.469   2.505   9.198  0.3360 -0.0957 -0.1502
  723MOL0     C97516   3.613   2.347   8.634  1.5906 -0.3011 -0.4819
  723MOL0     C97517   3.470   2.338   8.635  0.2939  0.0137 -0.0764
  723MOL0     O97518   3.253   2.097   8.756 -0.6723  0.7742 -0.0170
  723MOL0     C97519   2.986   2.075   8.729  0.8615  0.1199 -0.8959
  723MOL0     C97520   2.864   2.026   8.706  0.4915  1.5054  0.1602
  723MOL0     N97521   2.406   1.626   8.074 -0.0688 -0.2392  0.0867
  723MOL0     N97522   2.316   1.597   7.982 -0.2467  0.0404 -0.1875
  723MOL0     C97523   2.890   1.484   7.153 -0.6632  0.7519 -0.4490
  723MOL0     C97524   2.994   1.400   7.169  0.1222 -0.2175 -0.4712
  723MOL0     C97525   3.322   1.135   7.279  0.5340  0.7401  0.1820
  723MOL0     C97526   3.453   1.151   7.295 -0.5682 -0.5098  0.4749
  723MOL0     C97527   3.539   1.047   7.332  0.2286  0.2387 -0.1017
  723MOL0     C97528   3.495   0.921   7.347 -0.1588  0.3237 -0.0732
  723MOL0     O97529   3.578   0.819   7.372  0.1538  0.2438  0.0483
  723MOL0     C97530   3.668   0.836   7.473  0.6645 -0.9002  0.7362
  723MOL0     C97531   3.696   0.718   7.556 -0.8543  0.5261 -0.7714
  723MOL0     C97532   3.778   0.616   7.473 -0.0747 -0.2086 -0.0749
  723MOL0     C97533   3.782   0.478   7.554  0.5807 -0.2063  0.4681
  723MOL0     C97534   3.820   0.368   7.457 -0.0695 -0.4087  0.7925
  723MOL0     C97535   3.851   0.266   7.408  0.5062 -0.3486 -0.2774
  723MOL0     C97536   3.369   0.894   7.299  0.3596  0.5605  0.3212
  723MOL0     C97537   3.278   0.999   7.277 -0.5732  0.5718  0.2167
  723MOL0     H97538   2.908   1.222   7.440  1.5361 -1.8870 -2.3884
  723MOL0     H97539   2.706   1.376   7.418  0.8837 -2.6830 -0.7915
  723MOL0     H97540   2.493   1.538   7.221 -0.2497 -0.2052  0.5026
  723MOL0     H97541   2.555   1.531   7.388 -3.6929 -0.3194 -0.4231
  723MOL0     H97542   2.580   1.789   7.377  0.5322  1.6380 -2.4003
  723MOL0     H97543   2.524   1.791   7.219  1.2248 -3.5528 -2.5096
  723MOL0     H97544   2.353   1.857   7.354  3.5575  0.7854 -0.5301
  723MOL0     H97545   2.305   1.703   7.290  1.1951  1.3529 -2.4292
  723MOL0     H97546   2.397   1.609   7.530 -2.0028  0.2316  0.9981
  723MOL0     H97547   2.444   1.778   7.561  0.9931  0.3592 -2.0093
  723MOL0     H97548   2.226   1.857   7.571  4.2114 -0.3414 -3.8531
  723MOL0     H97549   2.155   1.712   7.510 -1.8570 -0.9137  1.7807
  723MOL0     H97550   2.231   1.588   7.716  1.8060 -0.4865  2.0630
  723MOL0     H97551   2.318   1.730   7.780 -1.1119  0.8564  2.1628
  723MOL0     H97552   2.088   1.854   7.804 -0.6590  0.3785 -0.0768
  723MOL0     H97553   2.026   1.714   7.718  2.4269  1.6491 -3.6649
  723MOL0     H97554   2.082   1.567   7.897 -2.1955 -0.5774  0.2123
  723MOL0     H97555   2.004   1.710   7.981 -1.2815 -2.0061 -1.0648
  723MOL0     H97556   2.189   1.862   8.106 -2.0821 -1.7671 -0.8717
  723MOL0     H97557   2.559   1.824   8.201  1.1044 -0.5828  0.7804
  723MOL0     H97558   2.419   1.930   8.247  2.6070  0.8522  1.9148
  723MOL0     H97559   2.504   1.655   8.318 -2.3033 -0.0447 -1.9195
  723MOL0     H97560   2.346   1.722   8.363  0.2719  0.5765  1.3418
  723MOL0     H97561   2.563   1.732   8.529  0.4402  0.7584 -0.1254
  723MOL0     H97562   2.465   1.871   8.517  0.5857  0.1747  0.6557
  723MOL0     H97563   2.630   1.989   8.363  0.1407  1.5639  1.9612
  723MOL0     H97564   2.736   1.851   8.369  0.3337  0.4545  0.4032
  723MOL0     H97565   2.860   2.064   8.363  1.6977  0.3723  0.0500
  723MOL0     H97566   3.133   2.241   8.362  2.0931 -1.5059 -0.7737
  723MOL0     H97567   3.172   2.062   8.340  1.1587  0.9947  1.2687
  723MOL0     H97568   3.033   2.140   8.275 -0.8183  0.1471  0.0871
  723MOL0     H97569   3.403   2.074   8.463 -0.1731 -1.1222  1.5496
  723MOL0     H97570   3.672   2.068   8.458  2.4110  2.2355 -0.3139
  723MOL0     H97571   3.887   2.436   8.580 -0.2706 -0.9047 -1.3978
  723MOL0     H97572   3.900   2.360   8.740 -1.3394  0.0924  0.6378
  723MOL0     H97573   4.069   2.212   8.621 -1.0060 -0.5695 -1.7565
  723MOL0     H97574   4.036   2.285   8.471 -0.6570 -1.8422 -0.0329
  723MOL0     H97575   4.122   2.517   8.582 -5.8808 -1.2579 -0.4709
  723MOL0     H97576   4.241   2.410   8.542 -0.6039  2.1293 -0.8651
  723MOL0     H97577   4.142   2.392   8.832  0.9751 -0.4961  2.4445
  723MOL0     H97578   4.286   2.335   8.745  0.6967  2.3267 -3.3383
  723MOL0     H97579   4.236   2.626   8.755 -0.0588  0.9092 -0.3046
  723MOL0     H97580   4.373   2.543   8.713 -3.2106 -1.4745 -3.4957
  723MOL0     H97581   4.246   2.558   8.992  0.2803 -1.5950  1.0424
  723MOL0     H97582   4.357   2.429   8.960  0.1917  0.1842  0.1985
  723MOL0     H97583   4.421   2.726   8.897 -1.1533 -0.7840 -1.4289
  723MOL0     H97584   4.526   2.598   8.873 -0.9091  2.7214 -2.0220
  723MOL0     H97585   4.440   2.725   9.138  0.7793  0.6945  0.3492
  723MOL0     H97586   4.602   2.684   9.091  0.6478 -1.1537  1.2485
  723MOL0     H97587   3.668   2.417   8.697  0.6604 -3.3999  4.3245
  723MOL0     H97588   3.412   2.403   8.699 -1.2630 -0.5683 -0.8581
  723MOL0     H97589   3.021   2.072   8.831  0.6764 -2.5869 -0.8527
  723MOL0     H97590   2.803   1.974   8.779 -2.1587  5.4304  1.0402
  723MOL0     H97591   2.901   1.558   7.075  3.9704  2.0811  1.1427
  723MOL0     H97592   3.079   1.417   7.103  0.0204 -1.5732 -0.9786
  723MOL0     H97593   3.499   1.249   7.285  1.6522 -1.6741 -1.9332
  723MOL0     H97594   3.644   1.064   7.355 -0.3375  6.3689 -0.3384
  723MOL0     H97595   3.765   0.876   7.441  1.2999 -0.9102  2.5349
  723MOL0     H97596   3.624   0.913   7.539  0.8708 -1.0982  1.1055
  723MOL0     H97597   3.610   0.670   7.604  0.7895 -1.6686  0.0807
  723MOL0     H97598   3.757   0.763   7.635  0.9951  2.2604 -3.0547
  723MOL0     H97599   3.877   0.652   7.441  0.9557 -1.3279  1.6820
  723MOL0     H97600   3.715   0.595   7.386  0.3677 -1.0353 -0.2024
  723MOL0     H97601   3.685   0.456   7.600 -0.1554  1.0008 -0.4137
  723MOL0     H97602   3.855   0.494   7.634  0.2059  3.1017  0.3045
  723MOL0     H97603   3.901   0.183   7.362 -0.9790 -1.4748  0.0657
  723MOL0     H97604   3.343   0.789   7.296 -3.2631  1.3540 -0.3992
  723MOL0     H97605   3.171   0.987   7.261 -1.1966  2.6981  2.1575
  724MOL0     O97606   2.274   2.136   1.545  0.4849  0.7035  1.4188
  724MOL0     C97607   2.216   2.231   1.601  0.6892 -0.4278  0.1054
  724MOL0     O97608   2.247   2.364   1.574 -0.3494 -1.4273  0.8018
  724MOL0     C97609   2.332   2.397   1.471 -0.7620 -0.4969 -0.3862
  724MOL0     C97610   2.473   2.407   1.489  0.2625 -0.1694  1.0176
  724MOL0     C97611   2.551   2.474   1.389  0.1838 -0.3461  0.8103
  724MOL0     C97612   2.489   2.512   1.269  0.3892  0.1037  0.1852
  724MOL0     O97613   2.562   2.567   1.164  0.1721  0.0941  0.1372
  724MOL0     C97614   2.572   2.473   1.054  0.6909 -0.5199  0.4941
  724MOL0     C97615   2.713   2.487   0.998 -0.2700  0.2279 -0.3407
  724MOL0     C97616   2.732   2.390   0.879  0.3800 -0.9252  0.0391
  724MOL0     C97617   2.843   2.420   0.782  0.2396 -0.5897 -0.1725
  724MOL0     C97618   2.976   2.361   0.828 -0.3699  0.4297 -0.4912
  724MOL0     C97619   3.030   2.442   0.951  0.3927  0.4238  0.0441
  724MOL0     C97620   3.180   2.421   0.957 -0.1311 -0.3911 -0.2575
  724MOL0     C97621   3.228   2.307   1.050  0.3031 -0.2296  0.9049
  724MOL0     N97622   3.247   2.181   0.977 -0.1565  0.6539 -0.2761
  724MOL0     C97623   3.173   2.068   0.993  0.5507  0.7716 -0.4005
  724MOL0     C97624   3.234   1.974   0.917 -0.5361 -0.7760 -0.5165
  724MOL0     C97625   3.192   1.838   0.897 -0.5587  0.7200  0.9435
  724MOL0     C97626   3.252   1.740   0.997 -0.0764 -0.1383 -0.2268
  724MOL0     C97627   3.404   1.703   0.954 -0.5497 -0.8365  0.6303
  724MOL0     C97628   3.439   1.570   1.005  0.0596  0.4058  0.1446
  724MOL0     O97629   3.426   1.573   1.142 -0.7649  0.8464  0.0965
  724MOL0     C97630   3.429   1.451   1.203 -0.5541  0.0095  0.4267
  724MOL0     C97631   3.406   1.459   1.341  0.0604 -0.3651 -1.0168
  724MOL0     C97632   3.414   1.344   1.421  0.2033 -0.5061  0.1644
  724MOL0     C97633   3.418   1.372   1.567  0.0105 -0.3820 -0.0546
  724MOL0     C97634   3.445   1.225   1.365 -0.2959 -0.0034 -0.0969
  724MOL0     C97635   3.447   1.098   1.439 -0.5214 -0.1030  0.4692
  724MOL0     O97636   3.512   0.998   1.375 -0.4978  0.0435  0.6562
  724MOL0     C97637   3.571   0.893   1.443 -0.2421  1.2182 -0.1818
  724MOL0     C97638   3.626   0.901   1.574  1.3287 -0.8194  0.5797
  724MOL0     C97639   3.678   0.782   1.626 -0.9660 -0.2084 -0.5778
  724MOL0     C97640   3.666   0.656   1.563 -0.0518 -0.0917  0.1779
  724MOL0     O97641   3.703   0.535   1.621 -0.8854  0.1845  0.2378
  724MOL0     C97642   3.843   0.538   1.669 -0.3001  1.0840  0.2014
  724MOL0     C97643   3.882   0.418   1.753  0.4996  0.7355 -0.0093
  724MOL0     C97644   3.833   0.443   1.893  0.4899 -0.7383 -0.7420
  724MOL0     C97645   3.854   0.327   1.971  0.4100 -1.2113  0.0666
  724MOL0     C97646   3.833   0.353   2.122  0.1894  0.1123  0.8906
  724MOL0     C97647   3.871   0.228   2.193 -0.6500  0.5967  0.3529
  724MOL0     C97648   3.914   0.253   2.346 -0.3886 -0.3321  0.5122
  724MOL0     C97649   3.992   0.131   2.383  0.1343 -0.5389 -0.0770
  724MOL0    Cl97650   3.899  -0.029   2.349 -0.0083 -0.3877 -0.1461
  724MOL0     C97651   3.608   0.646   1.438  0.5743 -0.4558 -0.4225
  724MOL0     C97652   3.569   0.769   1.377 -1.5834  0.2948 -1.1272
  724MOL0     O97653   3.402   1.097   1.552  0.1516 -0.4361 -0.5137
  724MOL0     C97654   3.471   1.224   1.227 -0.1051  0.4124  0.9594
  724MOL0     C97655   3.461   1.329   1.143 -1.2497 -0.3545 -0.0683
  724MOL0     N97656   3.345   2.026   0.865 -0.5763  0.0563 -0.3279
  724MOL0     N97657   3.356   2.151   0.905 -0.1230  0.3242  0.1252
  724MOL0     C97658   2.350   2.498   1.255  0.1029 -0.6083 -0.5914
  724MOL0     C97659   2.273   2.442   1.352 -0.7801  0.7169  0.0048
  724MOL0     C97660   2.130   2.200   1.715  0.6718  0.8121  0.1033
  724MOL0     C97661   2.107   2.071   1.760  0.8497  0.2238 -0.0470
  724MOL0     C97662   2.028   2.042   1.871  0.4790  0.0527  0.8450
  724MOL0     C97663   1.979   2.147   1.954  0.9188 -0.2515  0.3763
  724MOL0     O97664   1.919   2.134   2.075 -0.0374 -0.5487  0.0668
  724MOL0     C97665   1.990   2.056   2.171 -0.1170 -0.2137 -0.4959
  724MOL0     C97666   2.143   2.090   2.203 -0.4175  0.4056  0.1586
  724MOL0     C97667   2.176   2.240   2.217 -0.3920  0.3892  0.4813
  724MOL0     C97668   2.306   2.244   2.295 -0.9482  0.1093 -0.6435
  724MOL0     C97669   2.355   2.378   2.339 -0.7981 -0.0828 -0.5603
  724MOL0     C97670   2.433   2.461   2.363 -0.6212  0.0935 -0.3869
  724MOL0     C97671   1.996   2.282   1.912  0.7213  0.1543 -0.0659
  724MOL0     C97672   2.070   2.299   1.794 -0.8680  0.0053 -0.9629
  724MOL0     H97673   2.522   2.364   1.576  4.6923 -1.0657 -1.5862
  724MOL0     H97674   2.659   2.486   1.399  0.3123 -1.8958  1.5692
  724MOL0     H97675   2.550   2.374   1.095 -0.2961 -0.7816 -0.6172
  724MOL0     H97676   2.488   2.505   0.992  2.0699  0.3481 -0.9883
  724MOL0     H97677   2.748   2.587   0.970 -0.0742  1.6230  4.1088
  724MOL0     H97678   2.778   2.446   1.075 -1.1007 -0.9323 -0.2432
  724MOL0     H97679   2.756   2.289   0.911  0.3345 -1.1709 -0.6878
  724MOL0     H97680   2.635   2.381   0.829 -0.0659  0.7766  0.5168
  724MOL0     H97681   2.810   2.377   0.687 -0.2463 -0.6892  0.0412
  724MOL0     H97682   2.843   2.530   0.774 -2.6108 -0.5496 -0.6107
  724MOL0     H97683   2.977   2.257   0.861  0.7831  0.8134  0.7740
  724MOL0     H97684   3.056   2.367   0.754 -0.6978 -3.2812 -1.3510
  724MOL0     H97685   3.009   2.548   0.930  1.6349  0.7201  0.2260
  724MOL0     H97686   2.977   2.395   1.035  0.6066 -1.1523 -0.6685
  724MOL0     H97687   3.228   2.430   0.859  0.4766  4.1585  0.2152
  724MOL0     H97688   3.217   2.514   1.002 -1.3245  0.6507 -1.3759
  724MOL0     H97689   3.159   2.295   1.134  1.6946 -0.2346  2.0763
  724MOL0     H97690   3.328   2.324   1.090  1.6451 -1.5023 -1.6210
  724MOL0     H97691   3.075   2.060   1.041 -0.8104 -0.2742 -3.1140
  724MOL0     H97692   3.084   1.830   0.911 -0.5868  0.9443  0.8590
  724MOL0     H97693   3.202   1.813   0.791 -0.2862  0.0711  1.1154
  724MOL0     H97694   3.195   1.647   0.989 -0.8503  0.2481  0.5814
  724MOL0     H97695   3.243   1.783   1.097 -1.5761  1.3248 -0.9436
  724MOL0     H97696   3.457   1.787   1.001 -1.3684 -1.3750  2.6181
  724MOL0     H97697   3.425   1.714   0.847 -2.5935  1.3721  0.3631
  724MOL0     H97698   3.541   1.541   0.978 -0.4298 -4.3639  2.4658
  724MOL0     H97699   3.370   1.493   0.971  1.9973 -1.7471  0.8577
  724MOL0     H97700   3.402   1.550   1.400  2.5064 -2.4227  2.7342
  724MOL0     H97701   3.513   1.346   1.615 -0.3964 -1.0086  0.4343
  724MOL0     H97702   3.399   1.475   1.601 -1.0855  0.6351 -3.3377
  724MOL0     H97703   3.341   1.308   1.610 -1.3242  1.9879  1.3415
  724MOL0     H97704   3.637   0.991   1.634 -0.0965 -1.1392  1.3593
  724MOL0     H97705   3.733   0.770   1.719  3.2564 -1.2384 -2.9284
  724MOL0     H97706   3.909   0.538   1.582 -0.5490 -2.1504 -0.1255
  724MOL0     H97707   3.867   0.630   1.723 -0.0014  1.7602 -1.0413
  724MOL0     H97708   3.832   0.324   1.728  0.6139  0.5881  0.3136
  724MOL0     H97709   3.989   0.398   1.757  0.4164  0.4521  1.4062
  724MOL0     H97710   3.726   0.467   1.900 -0.1828 -3.6349  0.3018
  724MOL0     H97711   3.887   0.528   1.937 -0.1699 -1.4266  1.5472
  724MOL0     H97712   3.800   0.243   1.926 -0.9347  0.9102 -2.6195
  724MOL0     H97713   3.960   0.300   1.971 -0.0732 -3.3292  0.8637
  724MOL0     H97714   3.729   0.380   2.144 -0.6996  0.2302 -2.8849
  724MOL0     H97715   3.891   0.433   2.169  2.3222 -1.1732  0.5437
  724MOL0     H97716   3.784   0.162   2.197 -1.0061  0.8466 -2.1020
  724MOL0     H97717   3.954   0.183   2.138 -2.1973 -1.0908 -0.7222
  724MOL0     H97718   3.825   0.262   2.410 -1.8512  2.3661 -1.6952
  724MOL0     H97719   3.976   0.342   2.347 -3.3935  2.0750 -2.8963
  724MOL0     H97720   4.015   0.136   2.490  0.6354  2.6757 -0.2276
  724MOL0     H97721   4.085   0.122   2.325 -1.0261  2.7188 -2.7744
  724MOL0     H97722   3.589   0.543   1.409 -2.2118 -0.3337  0.7320
  724MOL0     H97723   3.538   0.773   1.272  1.2737  0.2315 -2.0408
  724MOL0     H97724   3.493   1.130   1.177 -1.1537 -0.0169  1.2862
  724MOL0     H97725   3.475   1.317   1.036 -0.7481 -0.5427  0.0184
  724MOL0     H97726   2.316   2.545   1.164 -3.2945  0.7071  1.1636
  724MOL0     H97727   2.166   2.443   1.334 -0.6950  1.2173 -0.4807
  724MOL0     H97728   2.151   1.986   1.709 -2.4852 -1.1172 -1.0338
  724MOL0     H97729   2.002   1.941   1.900  0.9390 -0.7259 -1.2474
  724MOL0     H97730   1.934   2.073   2.263  0.9134  0.2092  0.0663
  724MOL0     H97731   1.981   1.950   2.145  0.9113  0.2369 -2.9305
  724MOL0     H97732   2.204   2.063   2.116 -1.3520  0.4732 -0.5227
  724MOL0     H97733   2.167   2.025   2.288  3.8913  0.2727 -0.8958
  724MOL0     H97734   2.098   2.284   2.280  0.8001  0.5184  1.9188
  724MOL0     H97735   2.180   2.287   2.118 -1.3710 -0.9701 -0.2465
  724MOL0     H97736   2.381   2.194   2.232 -1.9340 -1.1190 -0.9029
  724MOL0     H97737   2.298   2.192   2.390 -2.7401  1.4856  0.0251
  724MOL0     H97738   2.508   2.536   2.377 -2.1417  1.4559  0.8079
  724MOL0     H97739   1.947   2.359   1.970 -0.1830 -2.3265  2.6929
  724MOL0     H97740   2.093   2.401   1.766 -1.2419 -0.1820 -1.9960
  725MOL0     O97741   8.059  10.987   5.777 -0.0101 -0.0329  0.4965
  725MOL0     C97742   8.176  11.022   5.782 -0.6506 -0.6089 -0.2628
  725MOL0     O97743   8.285  10.982   5.707 -0.1721  0.5166 -0.2686
  725MOL0     C97744   8.266  10.898   5.607 -0.1133  0.3379  0.3441
  725MOL0     C97745   8.308  10.760   5.608  0.4236  0.9810  0.1353
  725MOL0     C97746   8.267  10.669   5.509  0.0012 -0.4878 -1.1873
  725MOL0     C97747   8.197  10.726   5.399 -0.1980  0.0423 -0.4598
  725MOL0     O97748   8.157  10.641   5.299  0.4274  0.2082 -0.3310
  725MOL0     C97749   8.101  10.664   5.175  0.2413  0.6053  0.4508
  725MOL0     C97750   8.153  10.557   5.073  0.1924  0.1714 -0.1317
  725MOL0     C97751   8.305  10.584   5.025  1.0666 -0.6149  0.5611
  725MOL0     C97752   8.317  10.702   4.923  0.8341 -0.4427 -0.4678
  725MOL0     C97753   8.461  10.767   4.919  0.2725  0.6036 -1.2224
  725MOL0     C97754   8.557  10.669   4.855  0.7582  0.1007  0.1612
  725MOL0     C97755   8.695  10.744   4.840  0.6886 -0.0526 -0.4600
  725MOL0     C97756   8.680  10.831   4.716  0.0262 -0.4710  0.9576
  725MOL0     N97757   8.645  10.751   4.594  0.7221  0.2900 -0.6387
  725MOL0     C97758   8.522  10.747   4.531 -0.6844  0.2647  0.2912
  725MOL0     C97759   8.540  10.647   4.446 -0.6128 -0.2429  0.1938
  725MOL0     C97760   8.434  10.599   4.352  1.1620 -0.2277  1.2359
  725MOL0     C97761   8.372  10.464   4.393 -0.7924  1.1163  0.1354
  725MOL0     C97762   8.472  10.363   4.461 -0.0519 -0.0450  0.2034
  725MOL0     C97763   8.586  10.307   4.369  0.1869  0.7650  0.3340
  725MOL0     O97764   8.512  10.250   4.262  0.0980 -0.2659  0.8389
  725MOL0     C97765   8.582  10.219   4.148 -0.9195 -0.5964 -0.7645
  725MOL0     C97766   8.536  10.273   4.033 -0.2544  0.2132 -0.1320
  725MOL0     C97767   8.602  10.268   3.911  0.0980 -0.5677  0.3469
  725MOL0     C97768   8.532  10.343   3.789  0.2972  0.3145  0.5170
  725MOL0     C97769   8.732  10.206   3.906  0.2746 -0.2747 -0.0103
  725MOL0     C97770   8.818  10.193   3.784  0.7863 -0.1158  0.2177
  725MOL0     O97771   8.956  10.202   3.790  0.5840  0.2484 -0.6816
  725MOL0     C97772   9.027  10.204   3.677  0.6368  0.0768 -0.0933
  725MOL0     C97773   9.126  10.293   3.668  0.8110  0.3333 -0.5599
  725MOL0     C97774   9.217  10.304   3.566 -0.0015 -1.0515  0.4268
  725MOL0     C97775   9.235  10.200   3.474  0.4802 -0.2291 -0.5919
  725MOL0     O97776   9.333  10.216   3.383 -0.2708 -0.0622  0.0436
  725MOL0     C97777   9.364  10.107   3.299  0.1479  0.1970  0.2756
  725MOL0     C97778   9.484  10.026   3.349  0.1279 -0.9358 -0.4932
  725MOL0     C97779   9.512   9.904   3.252 -0.9314 -1.1476 -0.7324
  725MOL0     C97780   9.436   9.789   3.319 -0.1713  0.2581 -0.2023
  725MOL0     C97781   9.500   9.725   3.449 -0.0208 -0.9657  0.0924
  725MOL0     C97782   9.404   9.614   3.504  0.1734 -0.3019  0.0275
  725MOL0     C97783   9.296   9.666   3.598  1.1091 -0.1432  0.2473
  725MOL0     C97784   9.204   9.563   3.668  0.2739 -0.1082  0.3161
  725MOL0    Cl97785   9.108   9.495   3.526  0.4710  0.4555 -0.1632
  725MOL0     C97786   9.150  10.087   3.489  0.4037  0.3510  0.4881
  725MOL0     C97787   9.045  10.093   3.584  0.7810  0.0818 -0.5901
  725MOL0     O97788   8.765  10.179   3.677  0.1757  0.1675  0.0666
  725MOL0     C97789   8.781  10.153   4.034  0.4676  0.2953  0.6495
  725MOL0     C97790   8.696  10.153   4.139 -0.8568 -0.6354  0.5232
  725MOL0     N97791   8.676  10.601   4.450  0.2694  0.3988  0.1910
  725MOL0     N97792   8.740  10.671   4.536  0.5409 -0.4745  0.3572
  725MOL0     C97793   8.157  10.862   5.398 -0.7867 -0.7076  0.6588
  725MOL0     C97794   8.202  10.945   5.500 -0.7168  0.3616  0.1398
  725MOL0     C97795   8.212  11.125   5.884  0.9402  0.2675  0.0385
  725MOL0     C97796   8.142  11.238   5.912 -0.6218 -0.5038 -0.9250
  725MOL0     C97797   8.204  11.338   6.000  0.9789 -0.5399 -0.1247
  725MOL0     C97798   8.305  11.302   6.081 -1.2439  0.2763 -0.4742
  725MOL0     O97799   8.345  11.403   6.172 -0.0347 -0.1429 -0.2871
  725MOL0     C97800   8.468  11.385   6.240 -0.8225 -0.0355 -0.5628
  725MOL0     C97801   8.533  11.519   6.295 -0.2924  0.1223  0.3040
  725MOL0     C97802   8.456  11.579   6.419 -1.3550  0.0354 -0.7833
  725MOL0     C97803   8.420  11.726   6.412  0.2417 -0.4896  0.3624
  725MOL0     C97804   8.345  11.752   6.294 -0.2838 -0.4739 -0.3540
  725MOL0     C97805   8.294  11.786   6.188  0.3434 -0.6699 -0.7225
  725MOL0     C97806   8.365  11.176   6.063 -0.3134  0.6018 -0.2765
  725MOL0     C97807   8.322  11.085   5.965  0.7428 -0.3750  0.6207
  725MOL0     H97808   8.376  10.725   5.685 -0.8835  0.2423  0.9948
  725MOL0     H97809   8.305  10.567   5.501  0.6208 -0.4877  1.0494
  725MOL0     H97810   7.994  10.643   5.184  0.9381 -2.7556  2.7137
  725MOL0     H97811   8.114  10.765   5.135 -1.3984  1.2373  1.4258
  725MOL0     H97812   8.161  10.457   5.117  2.1023  0.1234 -0.5283
  725MOL0     H97813   8.079  10.551   4.993  1.2844  0.1195 -1.1514
  725MOL0     H97814   8.377  10.612   5.102  0.6222  0.6980  0.5368
  725MOL0     H97815   8.343  10.495   4.975  1.4441  0.5067 -1.2563
  725MOL0     H97816   8.283  10.669   4.824 -2.9007  0.1543  0.4489
  725MOL0     H97817   8.263  10.790   4.961  0.2878 -0.9978  0.0757
  725MOL0     H97818   8.452  10.862   4.866  3.3906  2.9272  1.9049
  725MOL0     H97819   8.502  10.802   5.015 -1.1633 -3.0885  0.9701
  725MOL0     H97820   8.572  10.582   4.920  2.3555  1.4511  1.7255
  725MOL0     H97821   8.523  10.631   4.758 -0.0530 -1.1988  0.9218
  725MOL0     H97822   8.722  10.795   4.933 -0.3433 -1.2424  0.5209
  725MOL0     H97823   8.783  10.680   4.830  0.3646 -1.3653  3.4083
  725MOL0     H97824   8.776  10.882   4.706  0.0492 -0.7289 -0.3944
  725MOL0     H97825   8.604  10.907   4.736  1.1257  0.5524  1.3305
  725MOL0     H97826   8.437  10.813   4.547 -0.7462  0.6435 -1.4188
  725MOL0     H97827   8.364  10.679   4.325  3.3989  1.8285  1.2363
  725MOL0     H97828   8.487  10.586   4.257  1.6390  1.3114  1.2662
  725MOL0     H97829   8.339  10.411   4.303  2.3035 -0.0467 -0.4416
  725MOL0     H97830   8.290  10.479   4.463  1.0407  0.4174  2.5581
  725MOL0     H97831   8.415  10.286   4.514  0.9127  0.7800  2.5642
  725MOL0     H97832   8.527  10.411   4.542  1.2997  0.6762 -1.1022
  725MOL0     H97833   8.646  10.230   4.418  1.4031  2.5655  1.8094
  725MOL0     H97834   8.655  10.383   4.330  0.6063  0.0857 -0.2642
  725MOL0     H97835   8.442  10.328   4.030  1.1534  2.6989 -2.7448
  725MOL0     H97836   8.488  10.435   3.826 -2.5276  0.0875 -1.8601
  725MOL0     H97837   8.596  10.373   3.705 -0.4115 -2.4885 -1.1801
  725MOL0     H97838   8.452  10.283   3.744  2.4334 -1.9409 -0.5678
  725MOL0     H97839   9.128  10.379   3.734  0.0564 -1.1066  1.4328
  725MOL0     H97840   9.275  10.395   3.563 -1.2673 -0.1632  1.5859
  725MOL0     H97841   9.286  10.033   3.277  0.6163 -0.1970 -0.0960
  725MOL0     H97842   9.387  10.147   3.200  3.0870 -1.0590  0.3729
  725MOL0     H97843   9.567  10.096   3.338  1.7464 -1.8334  3.9229
  725MOL0     H97844   9.478   9.995   3.454  0.2303 -2.6523 -0.9529
  725MOL0     H97845   9.619   9.887   3.237 -0.2018  1.6807  0.5162
  725MOL0     H97846   9.476   9.922   3.151  0.4305 -3.2161 -1.6629
  725MOL0     H97847   9.337   9.829   3.346  0.6432  3.3707 -1.3621
  725MOL0     H97848   9.424   9.715   3.239 -1.9415 -3.0053  2.8045
  725MOL0     H97849   9.514   9.800   3.528 -2.7055 -0.1497 -0.1135
  725MOL0     H97850   9.601   9.693   3.421 -0.2331  0.5881 -2.8956
  725MOL0     H97851   9.363   9.575   3.410  2.1258  1.5385 -1.6871
  725MOL0     H97852   9.456   9.538   3.562  3.2004  2.3861  1.1413
  725MOL0     H97853   9.222   9.716   3.534  0.5580 -2.1096 -0.7170
  725MOL0     H97854   9.339   9.743   3.664 -0.1843  0.8111  0.0291
  725MOL0     H97855   9.129   9.606   3.735  1.5167 -0.9030  2.3055
  725MOL0     H97856   9.251   9.477   3.717 -0.4773 -0.7185 -0.0015
  725MOL0     H97857   9.183   9.991   3.450 -0.6171 -0.4310  1.5000
  725MOL0     H97858   8.984  10.007   3.608 -0.1140  0.9501  0.3069
  725MOL0     H97859   8.879  10.107   4.037 -0.2500 -1.5190 -1.3027
  725MOL0     H97860   8.738  10.119   4.234 -4.9171 -1.3688  2.2551
  725MOL0     H97861   8.106  10.903   5.311  2.0062  2.3543  0.2865
  725MOL0     H97862   8.169  11.048   5.500 -1.0484  0.2735 -1.2097
  725MOL0     H97863   8.051  11.270   5.862  0.6078  2.2577 -1.6187
  725MOL0     H97864   8.149  11.431   6.000 -0.1510 -1.0536  3.7545
  725MOL0     H97865   8.455  11.318   6.326 -0.8126  1.2938  0.5085
  725MOL0     H97866   8.540  11.348   6.167 -0.6587  2.6646 -1.8884
  725MOL0     H97867   8.536  11.589   6.210 -1.5832 -1.0444 -0.7578
  725MOL0     H97868   8.639  11.501   6.316  0.0337  0.4631 -0.9514
  725MOL0     H97869   8.518  11.570   6.509 -3.6988  2.1602  1.1896
  725MOL0     H97870   8.360  11.529   6.431 -2.3361  1.9044 -0.3979
  725MOL0     H97871   8.509  11.790   6.408 -0.8176  1.0428  0.2739
  725MOL0     H97872   8.378  11.773   6.502  0.5453 -0.3961  0.4608
  725MOL0     H97873   8.270  11.831   6.094 -0.3873  0.7699  0.1252
  725MOL0     H97874   8.458  11.147   6.112 -1.0954 -3.2227 -0.8006
  725MOL0     H97875   8.385  10.997   5.961  0.8320 -0.2830 -0.3185
  726MOL0     O97876   9.052   7.168   2.443  0.9167  0.9670  0.2769
  726MOL0     C97877   9.005   7.217   2.543  0.8888 -0.6053  0.1531
  726MOL0     O97878   9.016   7.164   2.671 -0.5254 -0.1870  0.0407
  726MOL0     C97879   9.077   7.044   2.694 -0.1724 -0.1857  0.7942
  726MOL0     C97880   9.085   7.013   2.825 -0.3069 -0.0144  0.6786
  726MOL0     C97881   9.138   6.894   2.878  0.2229 -0.1607  0.0540
  726MOL0     C97882   9.211   6.802   2.796  0.2648  0.0443  0.6133
  726MOL0     O97883   9.278   6.693   2.848  0.3724  0.0719  0.7308
  726MOL0     C97884   9.218   6.632   2.961  0.0289  0.2673  0.2339
  726MOL0     C97885   9.293   6.501   2.986  0.0360  0.0834  0.2577
  726MOL0     C97886   9.289   6.395   2.874 -0.2252  0.7400  0.8560
  726MOL0     C97887   9.359   6.274   2.918 -0.1784  0.0480 -0.5208
  726MOL0     C97888   9.370   6.178   2.803  0.5787 -0.3444  0.6753
  726MOL0     C97889   9.423   6.045   2.848  0.0366 -0.5254 -0.0975
  726MOL0     C97890   9.397   5.942   2.746  0.0354  0.2417  0.7421
  726MOL0     C97891   9.399   5.796   2.794 -0.0529 -0.1263  0.3331
  726MOL0     N97892   9.541   5.754   2.794  0.6120 -0.1456 -0.4661
  726MOL0     C97893   9.610   5.696   2.692 -0.0127  0.8159 -0.2951
  726MOL0     C97894   9.733   5.660   2.734  0.8842 -0.1021  0.8380
  726MOL0     C97895   9.841   5.583   2.656 -0.3575  1.0967 -0.2024
  726MOL0     C97896   9.829   5.428   2.659 -0.9520  0.1923 -0.4344
  726MOL0     C97897   9.967   5.386   2.616  0.1063  0.0678 -0.3463
  726MOL0     C97898  10.023   5.440   2.489  0.3475 -0.0828  0.5885
  726MOL0     O97899   9.952   5.395   2.373  0.1435  0.0763  0.3042
  726MOL0     C97900   9.851   5.478   2.329  0.6790 -0.1394  0.7857
  726MOL0     C97901   9.868   5.615   2.288  0.0098 -0.0207 -0.1775
  726MOL0     C97902   9.765   5.705   2.264 -0.0772 -0.2793  0.2854
  726MOL0     C97903   9.809   5.848   2.240 -0.0157 -0.2919  0.2240
  726MOL0     C97904   9.633   5.662   2.268  0.5044  0.7904  0.6187
  726MOL0     C97905   9.519   5.752   2.259  1.6569 -0.1582 -0.7903
  726MOL0     O97906   9.530   5.870   2.325 -0.6184  0.2191  0.1888
  726MOL0     C97907   9.421   5.941   2.359  0.0501  0.0520 -0.1960
  726MOL0     C97908   9.303   5.877   2.401 -0.0096 -0.0989 -0.2134
  726MOL0     C97909   9.192   5.955   2.437 -0.5392  0.1795  0.2444
  726MOL0     C97910   9.205   6.100   2.434 -0.0440  0.8886 -0.0055
  726MOL0     O97911   9.085   6.164   2.459 -0.3911 -0.4313 -0.3388
  726MOL0     C97912   9.092   6.301   2.481  0.6819 -1.9132  0.9451
  726MOL0     C97913   8.993   6.334   2.590  0.5353 -1.2066 -0.1524
  726MOL0     C97914   8.851   6.284   2.552 -0.7807 -0.1114  0.3656
  726MOL0     C97915   8.766   6.301   2.675 -0.3867 -0.4115  0.6303
  726MOL0     C97916   8.615   6.295   2.662 -0.2473 -0.4612 -0.3575
  726MOL0     C97917   8.568   6.152   2.655 -0.1159 -0.4222 -0.2950
  726MOL0     C97918   8.423   6.123   2.688 -0.2021 -0.2320 -0.7516
  726MOL0     C97919   8.322   6.144   2.570  1.4666  0.6637  0.8306
  726MOL0    Cl97920   8.368   6.073   2.425 -0.1765 -0.1781  0.2835
  726MOL0     C97921   9.333   6.160   2.410 -0.1492 -0.2443 -0.7173
  726MOL0     C97922   9.433   6.078   2.360 -0.6173 -0.2431 -1.0430
  726MOL0     O97923   9.418   5.718   2.191 -0.6961 -0.0722 -0.2617
  726MOL0     C97924   9.611   5.527   2.298  0.0515  0.1353 -0.2559
  726MOL0     C97925   9.716   5.433   2.328  0.5216  0.4262 -0.1131
  726MOL0     N97926   9.743   5.720   2.857 -1.0327  0.2092 -0.3742
  726MOL0     N97927   9.625   5.768   2.893  0.0118 -0.6865 -0.4159
  726MOL0     C97928   9.205   6.828   2.657  0.8603  0.2575  0.3392
  726MOL0     C97929   9.132   6.947   2.612  0.0287  0.9447  1.0320
  726MOL0     C97930   8.924   7.341   2.544  0.1779  0.4137  0.2395
  726MOL0     C97931   8.873   7.405   2.657  0.3582  0.4277 -1.1195
  726MOL0     C97932   8.791   7.525   2.646 -0.3650  0.0660  0.0801
  726MOL0     C97933   8.753   7.581   2.525 -0.0763  0.1865 -0.7521
  726MOL0     O97934   8.679   7.693   2.529  0.2788 -0.0259  0.1730
  726MOL0     C97935   8.548   7.639   2.549  0.3620  0.2621  0.2201
  726MOL0     C97936   8.445   7.753   2.571 -0.1237  0.5963 -0.8582
  726MOL0     C97937   8.299   7.691   2.544  0.7654  0.5346  0.4715
  726MOL0     C97938   8.254   7.563   2.635 -0.1393 -0.0221  0.5316
  726MOL0     C97939   8.228   7.615   2.772 -0.1427 -0.6679 -0.1088
  726MOL0     C97940   8.222   7.654   2.889  0.1416  0.5402  0.8059
  726MOL0     C97941   8.797   7.518   2.416 -0.4051  0.5006 -0.4555
  726MOL0     C97942   8.881   7.401   2.423  0.3939  0.1952 -0.2674
  726MOL0     H97943   9.037   7.075   2.900 -2.1966  0.6029 -0.9731
  726MOL0     H97944   9.130   6.878   2.985  3.3577  1.2905  0.6023
  726MOL0     H97945   9.218   6.684   3.058  0.5724 -0.5240  0.6721
  726MOL0     H97946   9.115   6.599   2.946 -0.5946  1.3044  1.8953
  726MOL0     H97947   9.394   6.529   3.017  0.6816 -0.6041 -1.1109
  726MOL0     H97948   9.240   6.459   3.072  2.6149 -2.2515  0.8380
  726MOL0     H97949   9.188   6.360   2.851  1.0960 -1.8922 -1.4748
  726MOL0     H97950   9.337   6.428   2.781  1.8331  2.0215  2.2675
  726MOL0     H97951   9.460   6.303   2.950  1.6913 -2.6595 -3.3862
  726MOL0     H97952   9.315   6.233   3.009 -0.9326  1.3187 -0.2850
  726MOL0     H97953   9.267   6.164   2.769  0.4575  2.1328 -0.2128
  726MOL0     H97954   9.427   6.221   2.720 -1.4604 -0.1990 -0.7233
  726MOL0     H97955   9.528   6.057   2.873  0.2459  4.4474 -2.1836
  726MOL0     H97956   9.363   6.008   2.932 -0.0424 -1.0584 -0.3826
  726MOL0     H97957   9.300   5.954   2.696  0.0969 -3.7882 -0.7244
  726MOL0     H97958   9.469   5.948   2.664  0.3882  0.1876  1.0473
  726MOL0     H97959   9.354   5.729   2.720  0.4928 -1.8082  1.4485
  726MOL0     H97960   9.357   5.790   2.895  0.3558 -1.3562  0.4492
  726MOL0     H97961   9.560   5.675   2.598 -2.6706 -0.5968  1.2879
  726MOL0     H97962   9.829   5.620   2.554  1.2388 -0.0162 -0.8206
  726MOL0     H97963   9.929   5.620   2.709 -1.0116  2.3853  0.0368
  726MOL0     H97964   9.740   5.392   2.606 -0.6065 -0.3347 -0.6677
  726MOL0     H97965   9.806   5.397   2.761  1.1287 -3.2433 -0.8502
  726MOL0     H97966   9.952   5.280   2.592 -5.2344  0.9411 -2.3874
  726MOL0     H97967  10.029   5.404   2.704 -0.0770  1.3480 -0.4674
  726MOL0     H97968  10.122   5.397   2.474  0.6329  1.6409 -3.9943
  726MOL0     H97969  10.024   5.549   2.482 -3.4570  0.0160 -1.6259
  726MOL0     H97970   9.971   5.646   2.270 -0.5531  1.6450 -0.7106
  726MOL0     H97971   9.816   5.898   2.337  2.7525  0.0041 -0.0709
  726MOL0     H97972   9.911   5.855   2.201  0.5550  3.5972  1.9393
  726MOL0     H97973   9.741   5.905   2.174  0.2120 -1.2238 -0.8475
  726MOL0     H97974   9.304   5.769   2.406  1.8913 -0.1391 -0.7923
  726MOL0     H97975   9.106   5.901   2.476 -0.9082 -0.3974 -1.3312
  726MOL0     H97976   9.186   6.348   2.513 -1.5599  0.8578  4.1044
  726MOL0     H97977   9.080   6.353   2.386 -3.5844 -2.9400  0.7384
  726MOL0     H97978   9.029   6.284   2.681  1.2081 -4.3293 -1.9649
  726MOL0     H97979   8.996   6.441   2.613 -1.3497 -1.3223  0.8112
  726MOL0     H97980   8.843   6.180   2.520 -1.8525  0.3353 -0.9132
  726MOL0     H97981   8.823   6.341   2.463  0.1890  4.6220  2.7905
  726MOL0     H97982   8.795   6.223   2.747  0.5712  0.9472  1.7864
  726MOL0     H97983   8.788   6.400   2.717 -0.9926  0.3026 -0.6750
  726MOL0     H97984   8.578   6.361   2.583 -3.1243 -2.1493 -0.5501
  726MOL0     H97985   8.562   6.340   2.746  0.3537 -0.8982  0.2719
  726MOL0     H97986   8.582   6.113   2.554  1.8906  0.4496 -0.3985
  726MOL0     H97987   8.629   6.096   2.726  0.9544  0.3511 -0.5895
  726MOL0     H97988   8.378   6.189   2.762 -0.6663 -0.4750 -0.8120
  726MOL0     H97989   8.422   6.023   2.730  4.0892 -0.0349  0.2475
  726MOL0     H97990   8.301   6.249   2.547 -0.9720 -0.1971 -1.2582
  726MOL0     H97991   8.233   6.092   2.606  2.0305  0.7319  2.4416
  726MOL0     H97992   9.356   6.264   2.428  0.7660 -0.6440  0.5278
  726MOL0     H97993   9.533   6.121   2.349  0.4758 -1.0595  3.5819
  726MOL0     H97994   9.510   5.495   2.323  0.4128 -3.1535 -2.3431
  726MOL0     H97995   9.686   5.334   2.361  4.7485 -0.5059  1.5228
  726MOL0     H97996   9.271   6.789   2.580  1.5473  0.2803  0.9068
  726MOL0     H97997   9.134   6.963   2.505 -2.0667  2.8367  1.2028
  726MOL0     H97998   8.890   7.363   2.756 -0.3018  0.0847 -1.1518
  726MOL0     H97999   8.770   7.574   2.740  4.2920 -2.1739  2.6509
  726MOL0     H98000   8.528   7.565   2.471  3.6064 -2.6372  1.8547
  726MOL0     H98001   8.542   7.585   2.644  0.7454  0.0335  0.1120
  726MOL0     H98002   8.488   7.832   2.509  2.2549  0.3843  0.4023
  726MOL0     H98003   8.439   7.785   2.675 -1.9249  1.1335 -1.0901
  726MOL0     H98004   8.288   7.666   2.437  0.0401  1.0407  0.4224
  726MOL0     H98005   8.224   7.769   2.558 -0.1814 -0.6054  2.2278
  726MOL0     H98006   8.330   7.487   2.620 -1.8744 -1.3808 -2.0585
  726MOL0     H98007   8.162   7.523   2.592  0.8547  0.0915 -1.8181
  726MOL0     H98008   8.218   7.685   2.992  0.6287  1.2618  0.6173
  726MOL0     H98009   8.757   7.561   2.325 -0.7845  0.7281 -0.1841
  726MOL0     H98010   8.908   7.372   2.322 -1.7445 -0.5232 -0.6814
  727MOL0     O98011  10.238   1.441   1.477 -0.6028  0.5472 -0.2493
  727MOL0     C98012  10.234   1.450   1.599 -0.2793  0.4353 -1.7407
  727MOL0     O98013  10.338   1.483   1.683  0.1935 -0.1729  0.1536
  727MOL0     C98014  10.457   1.525   1.636  0.5565 -0.2702 -0.5428
  727MOL0     C98015  10.503   1.651   1.679  0.5325  0.8600 -0.3119
  727MOL0     C98016  10.628   1.693   1.631 -0.2890 -0.1192  0.6663
  727MOL0     C98017  10.707   1.613   1.552 -0.1302  0.4401  1.0178
  727MOL0     O98018  10.828   1.644   1.499  0.3059  0.5065 -0.7025
  727MOL0     C98019  10.900   1.758   1.543  0.0257  0.4810  0.8125
  727MOL0     C98020  11.035   1.765   1.467  0.5895  0.1663  0.6233
  727MOL0     C98021  11.022   1.748   1.316  0.6245  0.5261 -0.7051
  727MOL0     C98022  11.167   1.731   1.250 -1.1963  0.1928  0.6329
  727MOL0     C98023  11.156   1.747   1.094 -0.2240  0.0575 -0.0535
  727MOL0     C98024  11.291   1.706   1.021  0.1048  0.7799  0.0692
  727MOL0     C98025  11.411   1.790   1.056  0.3385 -0.1157 -0.6150
  727MOL0     C98026  11.379   1.927   1.006 -0.0911 -0.9963  0.9164
  727MOL0     N98027  11.503   2.002   0.986  0.4025 -0.7098 -0.2708
  727MOL0     C98028  11.587   2.049   1.090 -0.5444 -0.0945  0.6911
  727MOL0     C98029  11.664   2.138   1.035 -0.5449 -0.4777  0.5945
  727MOL0     C98030  11.764   2.233   1.092 -0.1502 -0.2523  0.7038
  727MOL0     C98031  11.911   2.197   1.071  0.4169 -0.5037  0.4577
  727MOL0     C98032  12.001   2.316   1.094  0.3650  0.3366  0.2892
  727MOL0     C98033  12.147   2.278   1.063 -0.2823 -0.5080 -0.2010
  727MOL0     O98034  12.202   2.180   1.156  0.5653 -0.4383  0.6814
  727MOL0     C98035  12.340   2.153   1.179  0.0338  0.1045  0.3836
  727MOL0     C98036  12.433   2.198   1.085 -0.1896  0.2566  0.0173
  727MOL0     C98037  12.572   2.167   1.093 -0.4285 -0.3231 -0.4932
  727MOL0     C98038  12.663   2.196   0.977  0.6766  0.0254 -0.3501
  727MOL0     C98039  12.613   2.091   1.208  0.8406 -0.7363  0.0525
  727MOL0     C98040  12.749   2.035   1.224  0.1800  0.5924 -0.8743
  727MOL0     O98041  12.763   1.939   1.319  0.1888 -0.0722  0.1883
  727MOL0     C98042  12.880   1.859   1.314  0.9733 -1.1186 -0.0940
  727MOL0     C98043  12.871   1.719   1.323  0.4577 -0.1766  0.3751
  727MOL0     C98044  12.981   1.642   1.347 -0.6953  0.1012  0.0317
  727MOL0     C98045  13.104   1.703   1.355 -0.5161 -1.1419 -0.7128
  727MOL0     O98046  13.223   1.638   1.372 -0.0072  0.0238  0.3629
  727MOL0     C98047  13.251   1.516   1.301  0.4519  0.4652 -0.7605
  727MOL0     C98048  13.310   1.416   1.398 -0.1319  0.0674 -0.1437
  727MOL0     C98049  13.454   1.475   1.439  0.5768  0.6860  0.2598
  727MOL0     C98050  13.460   1.465   1.596 -0.6471 -0.0268 -0.3960
  727MOL0     C98051  13.538   1.582   1.653 -0.8910  0.0022  0.0836
  727MOL0     C98052  13.570   1.565   1.802 -0.8646  0.2057  0.6871
  727MOL0     C98053  13.652   1.683   1.858 -0.6998 -0.7995  0.4717
  727MOL0     C98054  13.718   1.641   1.987  0.3326  0.3322  0.3791
  727MOL0    Cl98055  13.607   1.539   2.090 -0.2423 -0.6786 -0.5651
  727MOL0     C98056  13.117   1.846   1.349  0.8449  0.2182 -0.1917
  727MOL0     C98057  13.005   1.922   1.322 -0.4148 -0.0875  0.4996
  727MOL0     O98058  12.839   2.067   1.144 -0.1152  0.2705  1.0547
  727MOL0     C98059  12.514   2.050   1.305 -0.0417  0.6197  0.6173
  727MOL0     C98060  12.373   2.072   1.281 -0.6207  0.3684  1.1618
  727MOL0     N98061  11.647   2.137   0.892  0.0804 -0.1514  0.1064
  727MOL0     N98062  11.550   2.060   0.866  0.0348 -0.5621 -0.9356
  727MOL0     C98063  10.657   1.492   1.503  0.0261  0.0960 -0.0660
  727MOL0     C98064  10.533   1.449   1.543  0.8099  0.6038 -1.1111
  727MOL0     C98065  10.100   1.431   1.665  0.2946 -0.3162 -0.8524
  727MOL0     C98066  10.084   1.413   1.800  0.4808 -0.2341  0.1612
  727MOL0     C98067   9.965   1.383   1.854 -0.1374 -0.7474  0.1260
  727MOL0     C98068   9.846   1.391   1.777 -0.2507 -0.3278  0.9308
  727MOL0     O98069   9.729   1.381   1.847  0.1434 -0.2820 -0.2944
  727MOL0     C98070   9.613   1.365   1.772 -0.5435  0.1641  0.0240
  727MOL0     C98071   9.513   1.299   1.852  0.1092 -0.3869  0.2672
  727MOL0     C98072   9.527   1.144   1.881 -0.1697  0.3530  0.3720
  727MOL0     C98073   9.421   1.088   1.979 -1.4299  0.2454  0.3826
  727MOL0     C98074   9.291   1.115   1.919  0.2338 -0.2998  1.1892
  727MOL0     C98075   9.182   1.154   1.877 -0.7980  0.3733  1.3373
  727MOL0     C98076   9.863   1.429   1.642 -0.2415 -0.1915 -0.4453
  727MOL0     C98077   9.987   1.452   1.590 -0.3150 -0.2725 -0.0040
  727MOL0     H98078  10.452   1.714   1.752 -0.1444  3.3391 -2.7756
  727MOL0     H98079  10.660   1.792   1.661 -3.2383  0.6492  1.6645
  727MOL0     H98080  10.831   1.842   1.529 -1.7294 -0.9372  0.4452
  727MOL0     H98081  10.924   1.752   1.649  0.5700  2.1584  0.7984
  727MOL0     H98082  11.079   1.859   1.500  0.9569 -0.0061  0.6325
  727MOL0     H98083  11.098   1.693   1.520 -0.0641 -0.0975  1.0624
  727MOL0     H98084  10.970   1.656   1.287 -0.1284  0.8815 -0.5160
  727MOL0     H98085  10.972   1.836   1.275  1.2770  2.2903  2.0234
  727MOL0     H98086  11.246   1.793   1.293  0.0973 -1.2293  0.4002
  727MOL0     H98087  11.196   1.628   1.270 -1.8063 -0.7719 -2.7245
  727MOL0     H98088  11.084   1.679   1.048  2.0802 -0.4711 -3.2118
  727MOL0     H98089  11.126   1.850   1.070  2.3639  0.7718 -0.5668
  727MOL0     H98090  11.313   1.601   1.045  2.5687  0.8286 -1.6258
  727MOL0     H98091  11.274   1.706   0.913  0.3097  0.9071  0.0381
  727MOL0     H98092  11.444   1.800   1.160  1.6904 -0.6591 -0.9590
  727MOL0     H98093  11.489   1.738   0.999 -4.7750 -5.5443 -3.8640
  727MOL0     H98094  11.320   1.992   1.072 -0.8205 -0.9016  0.1837
  727MOL0     H98095  11.317   1.907   0.918 -0.2469 -4.2665  1.6450
  727MOL0     H98096  11.585   2.013   1.192  1.1439 -0.3384  0.6791
  727MOL0     H98097  11.743   2.328   1.041  0.9618  0.9624  2.4142
  727MOL0     H98098  11.743   2.245   1.198  1.3044 -1.7043  1.2102
  727MOL0     H98099  11.939   2.157   0.973  3.1728  2.2087 -0.0279
  727MOL0     H98100  11.926   2.111   1.137 -0.6936  0.8255  2.5649
  727MOL0     H98101  12.004   2.339   1.200  0.8468 -0.4757  0.4553
  727MOL0     H98102  11.982   2.408   1.037  2.5417  3.5005  4.1845
  727MOL0     H98103  12.201   2.374   1.067  1.2053 -1.3579  2.1970
  727MOL0     H98104  12.151   2.244   0.959  1.2025 -2.0361  0.3052
  727MOL0     H98105  12.404   2.254   0.996 -0.1732 -0.9247 -0.7480
  727MOL0     H98106  12.752   2.252   1.006  2.3854 -1.2975 -2.6746
  727MOL0     H98107  12.700   2.106   0.927  0.9387  0.4204 -0.8716
  727MOL0     H98108  12.604   2.247   0.900  1.7984 -0.9855 -1.9346
  727MOL0     H98109  12.772   1.678   1.310  0.3556  0.3280 -0.4827
  727MOL0     H98110  12.976   1.534   1.349 -3.9969  0.1780  1.0147
  727MOL0     H98111  13.160   1.483   1.250  0.3427  1.0517 -0.9609
  727MOL0     H98112  13.322   1.548   1.223 -2.4278 -0.4323 -3.9813
  727MOL0     H98113  13.235   1.418   1.477 -0.3338  3.1504 -0.2860
  727MOL0     H98114  13.321   1.321   1.345 -2.7327 -0.3212 -0.1341
  727MOL0     H98115  13.457   1.582   1.415 -1.6509  0.6236 -0.5011
  727MOL0     H98116  13.533   1.411   1.398 -1.7503 -2.2189 -0.0077
  727MOL0     H98117  13.365   1.469   1.649  1.3676  0.4750  3.5311
  727MOL0     H98118  13.512   1.372   1.619 -0.8616 -0.2722 -0.8856
  727MOL0     H98119  13.477   1.671   1.638 -1.4353 -0.6066 -1.6115
  727MOL0     H98120  13.631   1.583   1.595  0.8740 -1.9395  2.6585
  727MOL0     H98121  13.477   1.558   1.860  0.0302  0.9611  2.2891
  727MOL0     H98122  13.619   1.469   1.817 -2.9614 -1.1472 -0.5723
  727MOL0     H98123  13.580   1.761   1.887 -1.7755 -3.1901  5.2439
  727MOL0     H98124  13.732   1.707   1.788  1.1714 -3.8015  1.4079
  727MOL0     H98125  13.754   1.728   2.043 -1.2645  1.1357  0.2355
  727MOL0     H98126  13.806   1.580   1.965  0.7240 -1.6086  5.7351
  727MOL0     H98127  13.211   1.880   1.390  0.9325 -1.4733  1.1510
  727MOL0     H98128  13.018   2.030   1.324 -0.8714  0.0159 -1.0649
  727MOL0     H98129  12.533   1.998   1.398 -3.0074  2.2786  2.3055
  727MOL0     H98130  12.299   2.034   1.351  0.2725  1.4886  2.8097
  727MOL0     H98131  10.726   1.435   1.440 -0.1174 -0.0766 -0.0689
  727MOL0     H98132  10.490   1.353   1.515 -1.3610  0.0972  3.1395
  727MOL0     H98133  10.169   1.415   1.867  1.3320 -1.1853 -0.8587
  727MOL0     H98134   9.946   1.354   1.956 -1.4993 -0.3689  0.0060
  727MOL0     H98135   9.572   1.464   1.748  1.8876  0.9015 -1.4140
  727MOL0     H98136   9.629   1.317   1.675  1.7255  2.8402 -1.0655
  727MOL0     H98137   9.423   1.323   1.795  1.4738  0.7420 -1.5016
  727MOL0     H98138   9.509   1.354   1.947  0.2401  1.0878 -0.5513
  727MOL0     H98139   9.629   1.131   1.918 -0.5984  2.1613  2.3679
  727MOL0     H98140   9.509   1.090   1.787  1.9039  1.6113 -0.8239
  727MOL0     H98141   9.417   1.144   2.072 -3.5191  0.3656  0.2724
  727MOL0     H98142   9.445   0.985   2.009  0.8987  0.6944  0.2407
  727MOL0     H98143   9.086   1.187   1.843  0.1883  2.0831  0.0843
  727MOL0     H98144   9.782   1.451   1.573  0.5646  3.2407 -0.4300
  727MOL0     H98145   9.984   1.482   1.485 -3.6599 -1.6752 -0.4361
  728MOL0     O98146   7.509   1.569   7.642  0.8171  0.8981 -0.3936
  728MOL0     C98147   7.555   1.458   7.623 -0.6858 -0.8507  0.5231
  728MOL0     O98148   7.688   1.422   7.642  0.4702 -0.3697 -0.9313
  728MOL0     C98149   7.759   1.504   7.724  0.6941 -0.0931 -0.0744
  728MOL0     C98150   7.795   1.632   7.689  0.1758 -0.0235  1.1568
  728MOL0     C98151   7.869   1.714   7.777  0.0168 -0.5854  0.5341
  728MOL0     C98152   7.882   1.672   7.909  0.2445  1.2680 -0.3931
  728MOL0     O98153   7.919   1.760   8.005  0.0010 -0.0593  0.3472
  728MOL0     C98154   8.047   1.812   7.979 -0.0498 -1.2557  0.1055
  728MOL0     C98155   8.154   1.704   7.990 -0.8639 -0.5949 -0.1685
  728MOL0     C98156   8.168   1.660   8.138 -0.3961 -0.0974  0.5013
  728MOL0     C98157   8.305   1.601   8.175  0.0310 -0.4264  0.4625
  728MOL0     C98158   8.298   1.521   8.304  0.0430  0.2401  0.6257
  728MOL0     C98159   8.443   1.463   8.321 -0.1264 -1.0509  0.0371
  728MOL0     C98160   8.444   1.346   8.412  0.9971  0.8722 -0.0189
  728MOL0     C98161   8.579   1.268   8.418  0.9268 -0.0711 -0.5417
  728MOL0     N98162   8.686   1.349   8.469 -0.7769 -0.1523  0.1594
  728MOL0     C98163   8.809   1.379   8.399 -0.5421 -0.3231 -0.7503
  728MOL0     C98164   8.876   1.453   8.489  0.1690  0.3141  0.5814
  728MOL0     C98165   9.015   1.507   8.482 -0.6202 -0.7665 -0.1489
  728MOL0     C98166   9.115   1.387   8.478 -0.2755 -0.3665  0.7296
  728MOL0     C98167   9.258   1.428   8.466  0.2197  0.4418 -0.0732
  728MOL0     C98168   9.301   1.534   8.573  0.4596 -0.3668 -0.3366
  728MOL0     O98169   9.261   1.495   8.703  0.8550  0.0149 -0.9059
  728MOL0     C98170   9.364   1.501   8.794 -0.2525  0.1981 -0.0779
  728MOL0     C98171   9.470   1.412   8.765  0.8379  0.2123 -0.3682
  728MOL0     C98172   9.585   1.429   8.834  0.7407 -0.1636  0.3834
  728MOL0     C98173   9.709   1.349   8.801 -0.2534  0.2882 -0.9015
  728MOL0     C98174   9.598   1.542   8.931 -0.0115 -0.6340 -0.2358
  728MOL0     C98175   9.718   1.591   8.985  0.3461  0.3740 -0.8154
  728MOL0     O98176   9.748   1.716   8.964 -0.7879 -0.5786  0.2481
  728MOL0     C98177   9.867   1.780   9.002  0.0537 -0.2206 -1.1555
  728MOL0     C98178   9.866   1.917   9.030 -0.3422  0.7770  0.3333
  728MOL0     C98179   9.983   1.985   9.054  0.2367 -0.4144  0.3018
  728MOL0     C98180  10.111   1.919   9.060 -0.1625 -0.1821  1.2675
  728MOL0     O98181  10.219   2.004   9.081  0.6505  0.0536  0.3417
  728MOL0     C98182  10.351   1.958   9.068 -0.6181 -0.1395 -0.3710
  728MOL0     C98183  10.454   2.066   9.082 -0.7719 -0.6723 -0.2126
  728MOL0     C98184  10.461   2.125   9.227  0.0147 -0.6880  0.1716
  728MOL0     C98185  10.587   2.219   9.245  0.0315  0.4457  0.7423
  728MOL0     C98186  10.540   2.332   9.335  0.7111 -0.1399 -0.6019
  728MOL0     C98187  10.666   2.414   9.364 -0.2034 -0.8093 -0.8236
  728MOL0     C98188  10.627   2.536   9.454 -0.5041 -0.9582 -0.4898
  728MOL0     C98189  10.584   2.668   9.379 -0.5704 -0.6209 -0.5707
  728MOL0    Cl98190  10.605   2.821   9.490  0.3654  0.4484 -0.0012
  728MOL0     C98191  10.108   1.778   9.049  0.0036  0.6385 -0.3218
  728MOL0     C98192   9.987   1.717   9.026 -1.1193 -0.2284  0.0744
  728MOL0     O98193   9.778   1.511   9.058 -0.3802 -0.3937  0.8657
  728MOL0     C98194   9.489   1.611   8.967  0.0370  0.9001 -0.1908
  728MOL0     C98195   9.377   1.596   8.897  0.4650 -0.3909  0.8364
  728MOL0     N98196   8.793   1.471   8.601 -0.0043  0.2260 -0.0518
  728MOL0     N98197   8.684   1.413   8.590 -0.0353 -0.5351 -0.0291
  728MOL0     C98198   7.823   1.547   7.954 -0.7305 -0.3476  0.3442
  728MOL0     C98199   7.770   1.460   7.858  0.8212  0.4030  0.3190
  728MOL0     C98200   7.480   1.366   7.537 -0.2908  0.1711 -0.2725
  728MOL0     C98201   7.339   1.364   7.540  0.3664  0.4842 -0.7350
  728MOL0     C98202   7.262   1.276   7.461  0.3586 -0.0152 -0.5099
  728MOL0     C98203   7.323   1.200   7.362  0.8423 -0.1675 -0.8228
  728MOL0     O98204   7.238   1.120   7.284 -0.2075 -0.1680 -0.0667
  728MOL0     C98205   7.296   1.036   7.182  0.3418  0.2002 -0.1644
  728MOL0     C98206   7.323   0.901   7.248 -0.1580 -0.3796  0.7669
  728MOL0     C98207   7.330   0.776   7.142  0.8974  0.4261  1.2324
  728MOL0     C98208   7.293   0.641   7.196  0.7936  0.1466 -0.7031
  728MOL0     C98209   7.367   0.632   7.317  0.0131 -0.4978 -0.8584
  728MOL0     C98210   7.435   0.628   7.419 -1.0581  0.3260  0.3393
  728MOL0     C98211   7.462   1.208   7.343  0.0611  0.2486 -0.0421
  728MOL0     C98212   7.537   1.278   7.441  0.6900  0.1387  0.6385
  728MOL0     H98213   7.773   1.660   7.586 -2.1194 -2.0611  1.0062
  728MOL0     H98214   7.904   1.804   7.727  1.4159 -1.9257 -1.0671
  728MOL0     H98215   8.052   1.865   7.884 -3.9619 -2.5041 -0.9971
  728MOL0     H98216   8.058   1.901   8.041 -1.7290 -1.5246  0.8551
  728MOL0     H98217   8.135   1.616   7.928  1.8429 -1.3757 -0.0100
  728MOL0     H98218   8.251   1.744   7.959  1.4122 -4.9450  0.6357
  728MOL0     H98219   8.152   1.745   8.205 -0.1561 -1.9008  3.0055
  728MOL0     H98220   8.088   1.586   8.154 -1.3963  1.0268  0.8604
  728MOL0     H98221   8.335   1.536   8.092  1.8175  0.9588 -0.0251
  728MOL0     H98222   8.385   1.674   8.183 -1.4816  1.1898  1.5054
  728MOL0     H98223   8.271   1.575   8.396  0.3854  0.5806  0.5266
  728MOL0     H98224   8.231   1.434   8.294  3.5644 -2.7003  0.4155
  728MOL0     H98225   8.473   1.417   8.226 -3.2746 -2.1841 -0.5203
  728MOL0     H98226   8.517   1.538   8.351 -1.9296  1.9507 -2.3581
  728MOL0     H98227   8.437   1.379   8.516  1.5846  0.8960  0.0168
  728MOL0     H98228   8.364   1.273   8.398  0.4861  0.3897  4.1189
  728MOL0     H98229   8.588   1.228   8.317  0.9798 -2.2280  0.2634
  728MOL0     H98230   8.573   1.182   8.485  0.7534 -2.7904 -3.7918
  728MOL0     H98231   8.835   1.344   8.299 -0.0067 -0.2325 -0.6429
  728MOL0     H98232   9.025   1.569   8.392 -0.2749  0.1936  0.5384
  728MOL0     H98233   9.030   1.571   8.569  2.0691 -0.8221 -0.4829
  728MOL0     H98234   9.091   1.314   8.400 -2.0846  0.4524  0.4702
  728MOL0     H98235   9.115   1.336   8.574 -0.3515 -0.6050  0.6029
  728MOL0     H98236   9.270   1.473   8.367  0.5600 -0.9292 -0.6776
  728MOL0     H98237   9.314   1.334   8.471  0.6096  0.7059  0.7609
  728MOL0     H98238   9.248   1.629   8.570  2.0764  0.6769  1.5959
  728MOL0     H98239   9.403   1.568   8.556 -0.2947  2.7291  0.6954
  728MOL0     H98240   9.448   1.344   8.683  1.8362  0.1899 -0.6297
  728MOL0     H98241   9.723   1.355   8.693 -1.2374 -2.9395 -1.3078
  728MOL0     H98242   9.793   1.375   8.866 -0.1219 -1.4289 -0.3288
  728MOL0     H98243   9.698   1.241   8.815 -1.9791  0.6939  1.5480
  728MOL0     H98244   9.772   1.970   9.020 -2.5624 -2.6548  1.5525
  728MOL0     H98245   9.984   2.093   9.055 -0.9470 -0.3821 -0.3640
  728MOL0     H98246  10.363   1.881   9.144  1.4134  0.1164 -0.3845
  728MOL0     H98247  10.368   1.901   8.976  0.5531  0.7212 -0.7163
  728MOL0     H98248  10.553   2.030   9.052 -0.5575 -1.3151  1.1494
  728MOL0     H98249  10.431   2.152   9.019  3.5081  0.5871 -0.4306
  728MOL0     H98250  10.453   2.055   9.310 -1.1840  1.4005  1.9141
  728MOL0     H98251  10.371   2.185   9.240 -1.1258 -2.2689 -0.1021
  728MOL0     H98252  10.667   2.161   9.292 -0.6182 -1.3589 -0.2777
  728MOL0     H98253  10.619   2.265   9.151 -0.6498 -0.9443 -0.2110
  728MOL0     H98254  10.499   2.292   9.429  0.4866  0.7227 -0.3291
  728MOL0     H98255  10.459   2.389   9.291  0.7310 -0.5834 -1.2184
  728MOL0     H98256  10.731   2.352   9.425  1.8727 -0.7646 -2.8614
  728MOL0     H98257  10.722   2.444   9.275 -2.1243  1.9294 -1.2255
  728MOL0     H98258  10.705   2.565   9.525 -1.7711  1.9798 -0.1412
  728MOL0     H98259  10.536   2.509   9.508  0.6294  1.8901  3.3002
  728MOL0     H98260  10.480   2.656   9.348 -0.7815  2.7014 -1.5513
  728MOL0     H98261  10.647   2.694   9.293  0.6352 -0.9240  0.2044
  728MOL0     H98262  10.196   1.723   9.079 -1.0740  0.0428  2.0208
  728MOL0     H98263   9.999   1.609   9.031  0.2581 -0.1512 -0.8932
  728MOL0     H98264   9.500   1.682   9.048  1.3326 -0.0527  0.4991
  728MOL0     H98265   9.292   1.662   8.909 -1.8158 -1.5873 -5.3954
  728MOL0     H98266   7.819   1.513   8.057  1.6414 -0.0363  0.5953
  728MOL0     H98267   7.719   1.368   7.883 -0.2975  1.1892  1.0050
  728MOL0     H98268   7.290   1.432   7.609 -0.7876  0.1293 -1.1734
  728MOL0     H98269   7.154   1.272   7.468  0.4100 -3.3592  0.3994
  728MOL0     H98270   7.217   1.016   7.110  1.4055 -2.1827 -0.7776
  728MOL0     H98271   7.385   1.077   7.134 -0.3111  0.2964 -1.3104
  728MOL0     H98272   7.237   0.885   7.313  0.0593  4.1739  2.5950
  728MOL0     H98273   7.415   0.908   7.306  1.1244  2.0902 -1.3055
  728MOL0     H98274   7.431   0.766   7.101  1.3401 -1.9097  2.6823
  728MOL0     H98275   7.261   0.801   7.060  4.1178 -1.6022 -2.4783
  728MOL0     H98276   7.328   0.565   7.126  2.2075  1.1278 -1.1177
  728MOL0     H98277   7.188   0.634   7.224  1.3059 -0.6550  1.1722
  728MOL0     H98278   7.496   0.619   7.506 -2.4300  0.7719  1.3945
  728MOL0     H98279   7.520   1.157   7.267 -0.6115 -2.5428  1.1864
  728MOL0     H98280   7.645   1.268   7.434  1.2803  4.9001 -1.1785
  729MOL0     O98281   5.469   6.350   3.617 -0.6269 -1.5292 -0.8916
  729MOL0     C98282   5.519   6.380   3.510 -0.0158 -0.2288  0.6741
  729MOL0     O98283   5.482   6.492   3.439 -0.7451 -0.4692  0.3564
  729MOL0     C98284   5.390   6.584   3.486 -0.8027 -0.7009 -0.0721
  729MOL0     C98285   5.423   6.720   3.505 -0.6491  0.1190 -0.5669
  729MOL0     C98286   5.342   6.813   3.557  0.0434  0.5010  0.1259
  729MOL0     C98287   5.214   6.770   3.593 -0.5448  0.5553 -0.6211
  729MOL0     O98288   5.140   6.871   3.661  0.3717 -0.2559 -0.0308
  729MOL0     C98289   5.000   6.843   3.691  0.1790  0.6534 -0.2919
  729MOL0     C98290   4.925   6.846   3.557 -0.1415 -0.5057  0.7942
  729MOL0     C98291   4.785   6.915   3.571  0.4876  0.0305 -0.0206
  729MOL0     C98292   4.718   6.936   3.431 -0.3044  0.6742 -0.0541
  729MOL0     C98293   4.773   7.051   3.351  0.0614 -0.6132 -0.5446
  729MOL0     C98294   4.737   7.052   3.202 -0.4300  0.5701 -0.2313
  729MOL0     C98295   4.820   7.162   3.129 -1.0649 -0.7248 -0.3343
  729MOL0     C98296   4.763   7.303   3.153 -0.3978  0.3242  0.2608
  729MOL0     N98297   4.637   7.321   3.086 -0.6004  1.3246 -0.5541
  729MOL0     C98298   4.524   7.365   3.136 -0.3260  0.2205 -0.7282
  729MOL0     C98299   4.443   7.368   3.032 -0.5578  0.2099  0.2609
  729MOL0     C98300   4.290   7.399   3.039  1.1791 -0.0494  0.3942
  729MOL0     C98301   4.243   7.533   2.978 -0.3454 -0.1191  0.9107
  729MOL0     C98302   4.284   7.552   2.828 -1.1836 -0.5148 -0.8767
  729MOL0     C98303   4.238   7.438   2.740 -0.2904 -0.1391  0.0067
  729MOL0     O98304   4.279   7.477   2.608 -0.2785 -0.8272  0.5021
  729MOL0     C98305   4.201   7.422   2.504  0.1892  0.3225  0.5230
  729MOL0     C98306   4.143   7.296   2.508 -0.1433 -1.0453  0.5346
  729MOL0     C98307   4.082   7.234   2.399  0.1744 -0.0418 -0.4160
  729MOL0     C98308   4.021   7.101   2.429  1.1757  0.1247  1.0656
  729MOL0     C98309   4.076   7.297   2.279 -0.5559 -0.2819  0.1657
  729MOL0     C98310   3.997   7.267   2.160 -0.7068  0.4364  0.3642
  729MOL0     O98311   3.900   7.173   2.170 -0.2500  0.0826 -0.5637
  729MOL0     C98312   3.859   7.103   2.061  0.4629  0.8820 -0.3268
  729MOL0     C98313   3.884   6.962   2.039  0.0198  0.4243  0.5418
  729MOL0     C98314   3.824   6.885   1.935 -0.4008  0.9491 -0.5170
  729MOL0     C98315   3.715   6.931   1.861  0.0056  0.0044 -0.2118
  729MOL0     O98316   3.643   6.841   1.781  0.4381  0.7286  0.2602
  729MOL0     C98317   3.521   6.866   1.710  0.6915  0.5308 -0.3205
  729MOL0     C98318   3.457   6.733   1.666 -0.2936 -0.4538 -0.3408
  729MOL0     C98319   3.314   6.762   1.625 -1.0246  0.1653  0.3044
  729MOL0     C98320   3.311   6.822   1.479  0.1595 -0.7098 -0.3560
  729MOL0     C98321   3.231   6.732   1.383  0.1385  1.0600  0.1586
  729MOL0     C98322   3.195   6.799   1.250 -0.1291 -0.2970 -0.4363
  729MOL0     C98323   3.095   6.711   1.176  0.4506 -0.5831  0.3759
  729MOL0     C98324   2.952   6.721   1.236 -0.9244 -0.2143  0.5685
  729MOL0    Cl98325   2.846   6.599   1.142  0.1868 -0.4383 -0.4202
  729MOL0     C98326   3.689   7.065   1.881  0.0499  0.3323  0.5826
  729MOL0     C98327   3.757   7.145   1.983  1.2696 -0.3430  0.8238
  729MOL0     O98328   4.037   7.308   2.049 -0.5501  0.7959 -0.3571
  729MOL0     C98329   4.148   7.424   2.260  0.2399  0.4000 -0.3863
  729MOL0     C98330   4.206   7.483   2.379 -0.4365  0.2772 -0.4179
  729MOL0     N98331   4.509   7.337   2.917  0.6436 -0.0373 -0.0974
  729MOL0     N98332   4.622   7.300   2.955 -0.6042 -0.4898  0.0705
  729MOL0     C98333   5.171   6.635   3.581 -0.2250  0.2487 -0.2332
  729MOL0     C98334   5.259   6.549   3.522  0.4392 -0.0287  0.8469
  729MOL0     C98335   5.612   6.295   3.449  0.0962  0.6356 -0.3346
  729MOL0     C98336   5.695   6.336   3.339 -0.2767 -0.0310 -0.1551
  729MOL0     C98337   5.782   6.238   3.275  0.7208 -0.0322  0.6958
  729MOL0     C98338   5.785   6.105   3.326  0.3588  0.4469 -0.8544
  729MOL0     O98339   5.852   6.006   3.263  0.6001 -0.3197 -0.0373
  729MOL0     C98340   5.952   6.046   3.166 -0.8463  0.5149  0.5622
  729MOL0     C98341   6.053   5.927   3.148 -0.0898 -0.6517  0.2810
  729MOL0     C98342   6.164   5.975   3.058 -0.2260  0.7785 -0.3016
  729MOL0     C98343   6.269   5.870   3.020 -0.5492 -0.9604  0.0578
  729MOL0     C98344   6.370   5.930   2.919  0.1247  0.1866  0.2038
  729MOL0     C98345   6.433   5.970   2.828 -0.1366  0.1173 -0.3283
  729MOL0     C98346   5.694   6.073   3.421  0.4662  0.2990 -0.1095
  729MOL0     C98347   5.605   6.161   3.477  0.5728 -0.2108 -0.5462
  729MOL0     H98348   5.517   6.757   3.465  0.7055 -0.5506  1.7951
  729MOL0     H98349   5.384   6.911   3.578 -0.2465  0.5630  0.4207
  729MOL0     H98350   4.981   6.754   3.751  0.0988  1.4282  0.8793
  729MOL0     H98351   4.958   6.926   3.749  1.0299  1.2016 -0.4577
  729MOL0     H98352   4.986   6.894   3.480  0.6399  1.2665  2.4139
  729MOL0     H98353   4.907   6.748   3.513 -0.2318 -0.0646 -0.1903
  729MOL0     H98354   4.731   6.836   3.623  0.4315 -1.1829 -1.8439
  729MOL0     H98355   4.782   7.005   3.634 -1.0349  1.1759 -1.6402
  729MOL0     H98356   4.722   6.845   3.370  2.2664  0.1381  0.7858
  729MOL0     H98357   4.612   6.954   3.448 -0.4759 -1.1527  1.0350
  729MOL0     H98358   4.735   7.135   3.410 -0.0248 -0.5973 -0.6226
  729MOL0     H98359   4.881   7.061   3.361  0.5464 -3.9654 -1.1565
  729MOL0     H98360   4.760   6.957   3.153 -2.2770 -0.2814  0.4638
  729MOL0     H98361   4.629   7.069   3.193 -0.5843  0.2132  0.7922
  729MOL0     H98362   4.925   7.147   3.156 -1.1159 -2.2169 -0.9069
  729MOL0     H98363   4.827   7.142   3.022  2.2233 -2.1346  0.0064
  729MOL0     H98364   4.834   7.366   3.099  0.6458 -0.2023  0.9839
  729MOL0     H98365   4.764   7.330   3.259  0.3359 -1.9383  0.8977
  729MOL0     H98366   4.504   7.391   3.239 -2.0520 -1.5306 -0.5674
  729MOL0     H98367   4.227   7.319   3.000 -1.8913  0.8089  3.1749
  729MOL0     H98368   4.269   7.398   3.146  1.8761 -3.3715  0.5888
  729MOL0     H98369   4.298   7.608   3.035  2.2091 -1.5607  0.5144
  729MOL0     H98370   4.136   7.554   2.987 -0.8897 -1.8768 -0.6797
  729MOL0     H98371   4.393   7.555   2.836 -1.2861 -1.9971  4.0128
  729MOL0     H98372   4.267   7.647   2.776  1.8693  0.1108 -0.9430
  729MOL0     H98373   4.129   7.429   2.736 -0.2337 -0.4059 -2.7541
  729MOL0     H98374   4.286   7.346   2.773 -1.6180 -0.4823  1.0960
  729MOL0     H98375   4.136   7.240   2.601 -2.4081 -0.7641  0.5856
  729MOL0     H98376   4.019   7.071   2.534 -0.8892 -4.4415 -0.0029
  729MOL0     H98377   3.915   7.098   2.400  1.2262 -2.5070  0.9327
  729MOL0     H98378   4.067   7.018   2.375  1.7515 -1.1600  3.3978
  729MOL0     H98379   3.953   6.910   2.106  0.7110 -0.1261 -0.5726
  729MOL0     H98380   3.845   6.781   1.915 -1.2111  0.5554  0.5762
  729MOL0     H98381   3.459   6.920   1.782  1.8229  1.2985  0.1132
  729MOL0     H98382   3.538   6.919   1.616 -0.3926 -2.8418 -2.6166
  729MOL0     H98383   3.511   6.680   1.588 -2.2975  0.3767 -2.4362
  729MOL0     H98384   3.460   6.673   1.757 -0.7151  0.1365  0.0721
  729MOL0     H98385   3.274   6.838   1.693 -0.7247  0.6239 -0.0298
  729MOL0     H98386   3.260   6.668   1.641 -1.1932  0.3648  0.9831
  729MOL0     H98387   3.268   6.923   1.487 -0.4134 -0.5962 -3.6185
  729MOL0     H98388   3.414   6.832   1.442  1.3060 -0.1554  2.6726
  729MOL0     H98389   3.146   6.701   1.445  1.0920 -0.0724  0.9607
  729MOL0     H98390   3.290   6.643   1.358 -1.0166  0.8105 -1.8585
  729MOL0     H98391   3.154   6.900   1.256 -0.9680 -0.7181  2.0233
  729MOL0     H98392   3.288   6.795   1.192 -0.0208 -1.1980 -0.2136
  729MOL0     H98393   3.120   6.605   1.175 -0.0931 -0.7144  0.3408
  729MOL0     H98394   3.083   6.747   1.074 -1.5544  0.5994  0.9622
  729MOL0     H98395   2.922   6.825   1.221 -1.2170 -0.4443 -0.5649
  729MOL0     H98396   2.951   6.706   1.344  0.2649  4.1106  1.4003
  729MOL0     H98397   3.610   7.118   1.828  0.7573 -0.1301 -0.9927
  729MOL0     H98398   3.733   7.250   1.994  2.6584  0.1798 -0.7528
  729MOL0     H98399   4.155   7.478   2.166 -1.9657  1.3428 -0.0574
  729MOL0     H98400   4.260   7.578   2.377 -1.1376  0.7337 -3.7351
  729MOL0     H98401   5.072   6.604   3.614 -0.7246  2.2899  0.2834
  729MOL0     H98402   5.230   6.446   3.505  0.1634  0.2021 -0.1088
  729MOL0     H98403   5.687   6.439   3.308 -2.4565  0.1127  0.7090
  729MOL0     H98404   5.844   6.266   3.191 -1.2052 -0.1511 -0.8371
  729MOL0     H98405   5.912   6.075   3.069 -1.4137 -1.5611  0.1408
  729MOL0     H98406   6.013   6.127   3.207  1.1078 -1.0238  0.8384
  729MOL0     H98407   6.002   5.837   3.111 -4.2711  1.3122  0.6471
  729MOL0     H98408   6.095   5.905   3.247  2.6352  0.7761 -0.4827
  729MOL0     H98409   6.215   6.056   3.111 -2.2375  1.6945  0.3215
  729MOL0     H98410   6.118   6.004   2.964  0.8980 -3.1745 -2.2702
  729MOL0     H98411   6.222   5.783   2.974  1.8199 -2.2914 -0.0006
  729MOL0     H98412   6.318   5.839   3.113 -1.3201  1.7412  1.4938
  729MOL0     H98413   6.514   5.995   2.763  3.0119 -1.1926  2.7525
  729MOL0     H98414   5.686   5.973   3.462  3.1149  1.6073  4.4470
  729MOL0     H98415   5.550   6.121   3.562  1.1788 -3.5268 -1.5937
  730MOL0     O98416   4.994   8.068  10.950  0.2008  0.2382 -0.0829
  730MOL0     C98417   5.011   7.962  10.886  0.2351 -0.2698  0.4518
  730MOL0     O98418   4.914   7.899  10.803 -0.2673  0.2769  0.3960
  730MOL0     C98419   4.793   7.962  10.770 -0.1926  0.7803 -0.1595
  730MOL0     C98420   4.761   8.099  10.759  0.6921 -0.4394 -1.0262
  730MOL0     C98421   4.629   8.137  10.715 -0.5690  0.3325  1.2323
  730MOL0     C98422   4.537   8.038  10.671  0.3135 -0.2884 -0.8262
  730MOL0     O98423   4.412   8.060  10.622  0.3731 -0.3912  0.5262
  730MOL0     C98424   4.334   8.155  10.686 -0.0660  0.1954 -0.6595
  730MOL0     C98425   4.205   8.194  10.607 -0.2924  0.0236  0.8593
  730MOL0     C98426   4.148   8.332  10.646  0.6602 -0.3983  0.9138
  730MOL0     C98427   4.009   8.347  10.592  0.5682  1.8104 -0.4605
  730MOL0     C98428   3.965   8.501  10.613  0.2073 -0.1437  1.0854
  730MOL0     C98429   3.815   8.534  10.603 -0.0382 -0.3553 -0.5740
  730MOL0     C98430   3.748   8.522  10.475 -0.8102  1.0468 -0.5720
  730MOL0     C98431   3.699   8.376  10.452 -0.3876 -0.2782  0.4717
  730MOL0     N98432   3.613   8.303  10.547  0.0659  0.8069 -0.6924
  730MOL0     C98433   3.496   8.339  10.613 -0.2454  0.1767 -0.6246
  730MOL0     C98434   3.451   8.223  10.672  0.3806 -0.0013 -0.0555
  730MOL0     C98435   3.339   8.202  10.778 -0.4218  0.9205  0.3919
  730MOL0     C98436   3.213   8.283  10.742  0.3138  1.1924  1.0090
  730MOL0     C98437   3.131   8.215  10.625  0.3521 -0.5042 -0.4515
  730MOL0     C98438   2.985   8.263  10.629 -0.6410  0.9866 -0.2445
  730MOL0     O98439   2.974   8.409  10.627 -0.2220  0.1056 -0.2766
  730MOL0     C98440   2.866   8.472  10.679 -0.6594 -0.1232 -0.2165
  730MOL0     C98441   2.759   8.406  10.744 -0.4167  0.6651 -0.0464
  730MOL0     C98442   2.646   8.471  10.772 -0.1752  0.0604 -0.8178
  730MOL0     C98443   2.532   8.391  10.810  1.0997 -0.3108 -0.5804
  730MOL0     C98444   2.639   8.612  10.763  0.7026  0.7303 -0.7417
  730MOL0     C98445   2.516   8.693  10.809  0.1302  0.7571  0.0531
  730MOL0     O98446   2.398   8.639  10.836  0.3662 -0.0640 -0.8311
  730MOL0     C98447   2.317   8.725  10.908 -0.0561  0.8419  0.6068
  730MOL0     C98448   2.326   8.746  11.046  0.6192 -0.0517 -0.6192
  730MOL0     C98449   2.244   8.846  11.101 -1.1018  0.4859  0.6087
  730MOL0     C98450   2.158   8.922  11.021  0.3129  0.7357  0.3352
  730MOL0     O98451   2.088   9.027  11.080 -1.1840  0.3876 -0.0091
  730MOL0     C98452   2.168   9.130  11.147 -0.3846 -0.2904  0.0062
  730MOL0     C98453   2.093   9.265  11.151  0.5067  0.0176 -0.4739
  730MOL0     C98454   1.971   9.268  11.236  0.0310 -0.2296  0.4501
  730MOL0     C98455   1.991   9.346  11.375 -0.3112  0.6120 -0.0443
  730MOL0     C98456   1.851   9.355  11.442  0.3358 -0.4201 -0.1745
  730MOL0     C98457   1.852   9.409  11.589  0.3580  1.0880  1.1468
  730MOL0     C98458   1.711   9.431  11.652 -0.3251  0.7338 -0.5417
  730MOL0     C98459   1.628   9.542  11.575  0.2525 -0.8273 -1.6834
  730MOL0    Cl98460   1.673   9.708  11.626  0.2808 -0.0581  0.2783
  730MOL0     C98461   2.144   8.897  10.888  0.9662 -0.1928 -0.2576
  730MOL0     C98462   2.224   8.794  10.823 -0.0666  0.2007 -0.5559
  730MOL0     O98463   2.546   8.810  10.820 -0.4439 -0.6693 -0.3951
  730MOL0     C98464   2.748   8.674  10.700 -0.1002 -0.2371 -0.4818
  730MOL0     C98465   2.856   8.608  10.652 -0.6803  0.6936  0.2329
  730MOL0     N98466   3.550   8.129  10.655  0.6680 -0.4111  0.4841
  730MOL0     N98467   3.637   8.175  10.577 -0.3591  0.9683 -0.0440
  730MOL0     C98468   4.572   7.906  10.682  0.1527  0.3114 -0.6337
  730MOL0     C98469   4.699   7.865  10.731 -1.1206  0.8306 -0.1500
  730MOL0     C98470   5.136   7.880  10.917  0.2703 -0.3160 -1.2224
  730MOL0     C98471   5.236   7.928  11.002 -0.3775  0.4070  0.8077
  730MOL0     C98472   5.353   7.852  11.030  0.2288  0.4629 -0.4485
  730MOL0     C98473   5.375   7.727  10.966  0.5370  0.2315 -0.3799
  730MOL0     O98474   5.480   7.648  10.988  0.4660 -0.2337 -0.0687
  730MOL0     C98475   5.609   7.707  10.985 -0.1194 -1.3336  0.1387
  730MOL0     C98476   5.667   7.701  10.840 -0.9278  0.9708  0.0856
  730MOL0     C98477   5.789   7.791  10.813  0.3137  0.4305 -0.3176
  730MOL0     C98478   5.863   7.733  10.691  0.0524  0.1043  1.1706
  730MOL0     C98479   5.776   7.759  10.577 -0.2787 -0.2252  0.8661
  730MOL0     C98480   5.704   7.800  10.486  0.2078  1.0213  0.1602
  730MOL0     C98481   5.276   7.678  10.878  0.7283 -0.4905  0.3401
  730MOL0     C98482   5.158   7.759  10.857 -0.9159 -0.0283  0.6750
  730MOL0     H98483   4.837   8.170  10.790  1.4582 -2.3118  1.7613
  730MOL0     H98484   4.600   8.242  10.720  0.0155  0.5915 -0.3366
  730MOL0     H98485   4.307   8.113  10.783 -2.5390 -0.2442 -1.4784
  730MOL0     H98486   4.392   8.243  10.717  0.7038 -0.3224 -0.6006
  730MOL0     H98487   4.222   8.190  10.499 -0.6961  3.0478  0.5971
  730MOL0     H98488   4.128   8.117  10.617 -0.2065 -0.3903 -1.3013
  730MOL0     H98489   4.144   8.326  10.756 -0.9593 -4.3442  0.8009
  730MOL0     H98490   4.212   8.408  10.602  0.7953 -1.5556 -0.9910
  730MOL0     H98491   4.013   8.314  10.488  0.9891 -1.6247  0.5085
  730MOL0     H98492   3.945   8.269  10.636  4.2141 -1.6452 -0.6011
  730MOL0     H98493   4.004   8.539  10.708 -3.1748  2.0468  1.7628
  730MOL0     H98494   4.009   8.564  10.535 -2.8924 -1.2011 -1.7703
  730MOL0     H98495   3.774   8.468  10.679  2.1468  2.4810  3.4589
  730MOL0     H98496   3.807   8.641  10.625  1.5716  0.8130 -4.7156
  730MOL0     H98497   3.665   8.593  10.480 -1.3406  0.3739  1.3387
  730MOL0     H98498   3.804   8.561  10.390 -1.0844  0.5155 -1.0037
  730MOL0     H98499   3.781   8.304  10.444 -1.9999 -2.3052  1.1314
  730MOL0     H98500   3.646   8.378  10.356 -1.2763 -1.7954  0.8925
  730MOL0     H98501   3.448   8.435  10.623 -0.9443 -0.2898  0.7130
  730MOL0     H98502   3.318   8.098  10.804  0.5732  1.3791  3.3912
  730MOL0     H98503   3.378   8.262  10.861  0.3985  3.4289 -1.6517
  730MOL0     H98504   3.251   8.380  10.710  2.5384 -0.6302 -2.5060
  730MOL0     H98505   3.158   8.297  10.836  1.3022 -2.9363  2.4496
  730MOL0     H98506   3.115   8.108  10.646  1.1714 -0.5197  0.1468
  730MOL0     H98507   3.181   8.237  10.530 -1.6760  2.0982 -0.9989
  730MOL0     H98508   2.938   8.225  10.720 -4.9479  3.7506 -1.0148
  730MOL0     H98509   2.920   8.211  10.559 -1.0432  0.8071  0.2578
  730MOL0     H98510   2.754   8.298  10.735  0.4912  0.6358 -0.3751
  730MOL0     H98511   2.443   8.408  10.749  1.7513  1.1096 -1.1814
  730MOL0     H98512   2.559   8.285  10.804  0.5408 -0.4012 -1.8888
  730MOL0     H98513   2.508   8.414  10.915 -2.6078  1.3993 -1.6046
  730MOL0     H98514   2.398   8.686  11.101  0.0492 -2.7779 -2.6536
  730MOL0     H98515   2.266   8.875  11.203  0.5069  0.9587  0.1556
  730MOL0     H98516   2.196   9.104  11.249  0.1304  0.9148  0.1920
  730MOL0     H98517   2.266   9.125  11.099 -0.7032 -0.4038 -0.6461
  730MOL0     H98518   2.175   9.330  11.182  1.0189 -1.0337  0.4455
  730MOL0     H98519   2.074   9.298  11.048 -1.0995 -3.5773 -1.4959
  730MOL0     H98520   1.937   9.165  11.255 -0.6904 -0.0973 -0.0625
  730MOL0     H98521   1.900   9.322  11.172  2.1181  1.1060 -0.8287
  730MOL0     H98522   2.056   9.275  11.427  0.7268 -0.6247 -2.8253
  730MOL0     H98523   2.042   9.443  11.363 -0.6194  0.6295 -1.3492
  730MOL0     H98524   1.799   9.260  11.458 -0.7842  0.2485  0.2632
  730MOL0     H98525   1.795   9.416  11.371 -0.3157 -0.5770  0.1988
  730MOL0     H98526   1.914   9.361  11.665 -0.0893 -1.4103  0.0333
  730MOL0     H98527   1.897   9.508  11.581  0.7448  0.9175  1.1754
  730MOL0     H98528   1.733   9.461  11.755  0.3424  0.7660 -0.6850
  730MOL0     H98529   1.656   9.337  11.647 -0.7074  0.9946 -1.6872
  730MOL0     H98530   1.521   9.531  11.593 -0.1146  1.8866 -1.8581
  730MOL0     H98531   1.636   9.535  11.466 -3.0476  2.2060 -2.3053
  730MOL0     H98532   2.084   8.965  10.828 -0.3881 -0.6460  0.5305
  730MOL0     H98533   2.218   8.803  10.715 -0.4135  1.8096 -0.4225
  730MOL0     H98534   2.740   8.782  10.693 -0.5865 -0.3357 -1.6653
  730MOL0     H98535   2.931   8.668  10.602  1.3841 -1.4308  0.6123
  730MOL0     H98536   4.493   7.841  10.645  2.0224 -1.2242 -2.2205
  730MOL0     H98537   4.709   7.757  10.736 -2.0531  0.6905 -1.0502
  730MOL0     H98538   5.230   8.032  11.033 -1.6147  1.0036 -1.2242
  730MOL0     H98539   5.427   7.894  11.097 -0.0245  0.5394 -0.2179
  730MOL0     H98540   5.611   7.804  11.036  2.3631 -1.5367  0.5293
  730MOL0     H98541   5.687   7.665  11.048  0.4607  1.3126  1.3169
  730MOL0     H98542   5.592   7.725  10.764 -0.2630  1.6236 -0.3734
  730MOL0     H98543   5.704   7.600  10.823 -0.1514  0.8165  2.3651
  730MOL0     H98544   5.862   7.793  10.894 -0.2668 -0.8733  0.2733
  730MOL0     H98545   5.752   7.893  10.806 -0.5287  0.2978  1.7500
  730MOL0     H98546   5.898   7.629  10.693  0.6853  0.2548 -0.7774
  730MOL0     H98547   5.954   7.791  10.674  0.6320 -1.3303 -0.9907
  730MOL0     H98548   5.649   7.835  10.401  3.5047  0.7009 -2.2978
  730MOL0     H98549   5.299   7.585  10.827 -0.0387 -0.9085  0.7408
  730MOL0     H98550   5.084   7.718  10.789 -1.3766 -1.4480  1.9485
  731MOL0     O98551   8.542   3.883   0.790  0.2456  0.9771 -0.7720
  731MOL0     C98552   8.512   3.993   0.842  0.9234  0.3804  0.5767
  731MOL0     O98553   8.498   4.025   0.970 -0.4104  0.2594  0.0068
  731MOL0     C98554   8.532   3.939   1.072  0.0491  0.0907  0.1471
  731MOL0     C98555   8.620   3.828   1.072 -0.4203 -0.9162 -0.5995
  731MOL0     C98556   8.656   3.756   1.193  0.0260  0.1908 -0.3226
  731MOL0     C98557   8.606   3.795   1.318  0.3516  0.2134  0.0168
  731MOL0     O98558   8.640   3.729   1.435  0.3483 -0.4584 -0.5404
  731MOL0     C98559   8.695   3.594   1.429  0.9539 -0.3503  0.0195
  731MOL0     C98560   8.708   3.521   1.561 -0.4218 -0.5082 -0.8699
  731MOL0     C98561   8.838   3.570   1.637  0.5934 -0.4029 -1.1531
  731MOL0     C98562   8.899   3.467   1.721  1.0893 -0.4194  0.1922
  731MOL0     C98563   8.812   3.433   1.848  0.5867  0.0875 -0.1581
  731MOL0     C98564   8.891   3.356   1.954 -0.1685  0.2204  0.7688
  731MOL0     C98565   8.789   3.317   2.069  0.5865 -0.5489  0.6391
  731MOL0     C98566   8.714   3.190   2.023 -0.0273 -0.0603  0.3998
  731MOL0     N98567   8.676   3.097   2.136 -0.1996 -0.2946  0.0915
  731MOL0     C98568   8.670   3.114   2.272  0.0683 -0.9549  0.2070
  731MOL0     C98569   8.618   2.992   2.317 -0.1532  0.0124  0.0483
  731MOL0     C98570   8.570   2.957   2.456  0.1110  0.1707  0.7447
  731MOL0     C98571   8.448   2.871   2.462  0.8077  1.4173 -0.5316
  731MOL0     C98572   8.398   2.847   2.598  0.1092  0.4686 -0.1201
  731MOL0     C98573   8.281   2.740   2.594 -0.4052  0.1151  0.3600
  731MOL0     O98574   8.304   2.640   2.693 -0.7022 -0.3996  0.5116
  731MOL0     C98575   8.209   2.546   2.721 -0.0626 -0.3804  0.6766
  731MOL0     C98576   8.241   2.453   2.813  0.4887  0.0873 -0.6636
  731MOL0     C98577   8.140   2.369   2.865 -0.4891 -0.7150  0.0892
  731MOL0     C98578   8.183   2.276   2.981  0.8512 -0.7682  0.3495
  731MOL0     C98579   8.018   2.367   2.805 -0.5398 -0.3186 -0.7897
  731MOL0     C98580   7.917   2.262   2.833 -1.0715  0.1368  0.2128
  731MOL0     O98581   7.797   2.269   2.776  0.7847 -0.1078  0.2227
  731MOL0     C98582   7.731   2.144   2.753  0.5901 -0.5840  0.2009
  731MOL0     C98583   7.719   2.107   2.612 -0.3075  0.7887  1.1997
  731MOL0     C98584   7.655   1.981   2.582 -0.3201 -0.7417  0.2656
  731MOL0     C98585   7.585   1.906   2.686 -0.4494  1.1789 -0.4139
  731MOL0     O98586   7.539   1.775   2.660 -0.2226 -0.3706  0.3507
  731MOL0     C98587   7.437   1.725   2.752  1.0377  1.4755  0.1311
  731MOL0     C98588   7.347   1.634   2.664 -0.0730  0.0960  0.2549
  731MOL0     C98589   7.201   1.643   2.691 -0.8284 -0.6470  0.2876
  731MOL0     C98590   7.121   1.560   2.591 -0.0659  0.1343  0.3962
  731MOL0     C98591   6.988   1.509   2.644 -0.9012  0.0250 -0.0456
  731MOL0     C98592   6.910   1.630   2.680  1.1004 -0.9044 -0.3638
  731MOL0     C98593   6.764   1.604   2.716 -0.4477 -0.7422 -0.7365
  731MOL0     C98594   6.738   1.497   2.824  0.7815  0.1212  0.5066
  731MOL0    Cl98595   6.831   1.501   2.977 -0.1138  0.4744 -0.4562
  731MOL0     C98596   7.592   1.955   2.817  0.6111  0.5125 -0.1396
  731MOL0     C98597   7.656   2.070   2.851 -0.0498  0.9734  1.1013
  731MOL0     O98598   7.961   2.160   2.883  1.0174  0.2648  0.8267
  731MOL0     C98599   7.990   2.469   2.710 -0.4076  0.1244 -0.2233
  731MOL0     C98600   8.084   2.553   2.661 -0.3131  0.1085  0.1726
  731MOL0     N98601   8.584   2.914   2.207 -0.3666 -0.1674 -0.1165
  731MOL0     N98602   8.624   2.975   2.098  0.1311  0.6972 -0.3152
  731MOL0     C98603   8.509   3.903   1.315  0.0287 -0.4426 -0.7603
  731MOL0     C98604   8.476   3.975   1.195  0.0650 -0.7891 -0.2333
  731MOL0     C98605   8.479   4.110   0.750 -0.9038  0.2367 -0.2212
  731MOL0     C98606   8.486   4.101   0.616  0.5770 -0.5742  0.3014
  731MOL0     C98607   8.455   4.207   0.531 -0.6050 -0.1872  0.8512
  731MOL0     C98608   8.415   4.333   0.577  0.1634  0.9922 -1.2908
  731MOL0     O98609   8.369   4.432   0.496  0.0241 -0.2556 -0.2725
  731MOL0     C98610   8.487   4.517   0.445 -0.2762  0.2455 -0.4354
  731MOL0     C98611   8.432   4.647   0.385 -0.4502 -0.1126 -0.0771
  731MOL0     C98612   8.353   4.731   0.485  0.8143 -0.0476 -0.2120
  731MOL0     C98613   8.395   4.881   0.486  0.2753 -0.4342 -0.0246
  731MOL0     C98614   8.352   4.951   0.360  0.0571 -0.7196 -0.6667
  731MOL0     C98615   8.343   5.006   0.248  0.1951  0.7693 -0.8132
  731MOL0     C98616   8.402   4.351   0.723  0.3679  1.1677  0.8275
  731MOL0     C98617   8.440   4.234   0.802 -0.6497 -0.3037  0.1718
  731MOL0     H98618   8.659   3.797   0.976  2.0167  0.7174 -0.2177
  731MOL0     H98619   8.722   3.670   1.190  0.2930  0.2471  1.8894
  731MOL0     H98620   8.625   3.530   1.374 -0.8511  1.7223 -0.2346
  731MOL0     H98621   8.789   3.608   1.375  1.4700  0.0020  0.9987
  731MOL0     H98622   8.623   3.546   1.625  1.1470 -3.9098  2.9231
  731MOL0     H98623   8.691   3.414   1.549 -2.0745 -0.3014 -0.6769
  731MOL0     H98624   8.912   3.603   1.563 -0.6179  1.4022 -1.6252
  731MOL0     H98625   8.812   3.660   1.693 -0.5270  0.7316 -3.3817
  731MOL0     H98626   8.898   3.371   1.668  2.0796 -1.2609  1.6096
  731MOL0     H98627   8.999   3.498   1.753  0.6186  1.1735  0.1801
  731MOL0     H98628   8.774   3.525   1.893  1.0699  1.4666 -2.4026
  731MOL0     H98629   8.722   3.376   1.824  0.3843  0.5711 -0.5795
  731MOL0     H98630   8.933   3.262   1.918 -2.4736 -1.2023  1.5143
  731MOL0     H98631   8.970   3.420   1.995  1.3317  0.9354 -2.8474
  731MOL0     H98632   8.846   3.306   2.162 -0.7058 -2.3877  1.2662
  731MOL0     H98633   8.721   3.398   2.097  0.5010 -0.7774  1.1024
  731MOL0     H98634   8.780   3.136   1.954  2.4723  1.6529  1.3388
  731MOL0     H98635   8.626   3.216   1.964  2.4642  1.0542 -3.1716
  731MOL0     H98636   8.681   3.201   2.336 -0.7811  1.3728 -2.6036
  731MOL0     H98637   8.644   2.916   2.525  0.2441 -1.7344 -0.4572
  731MOL0     H98638   8.538   3.053   2.499 -1.7930  1.2081 -2.6279
  731MOL0     H98639   8.478   2.780   2.410  0.0711  0.8955 -0.0712
  731MOL0     H98640   8.373   2.923   2.402  2.3269  2.7179 -1.3591
  731MOL0     H98641   8.366   2.940   2.647 -0.9905 -0.5538  1.2018
  731MOL0     H98642   8.479   2.821   2.667  0.0820  0.8637  0.0687
  731MOL0     H98643   8.262   2.707   2.491  0.7877  0.2847  0.0744
  731MOL0     H98644   8.183   2.781   2.621 -1.6598 -1.9134 -0.8913
  731MOL0     H98645   8.335   2.455   2.867 -0.8274 -4.1641  2.3316
  731MOL0     H98646   8.202   2.178   2.935  1.3287 -0.6348  0.2594
  731MOL0     H98647   8.263   2.329   3.034  0.2154  4.4526 -3.1267
  731MOL0     H98648   8.103   2.263   3.053 -0.0541  2.6986  0.1216
  731MOL0     H98649   7.773   2.158   2.533 -1.9191  2.5259  1.1502
  731MOL0     H98650   7.658   1.931   2.486  1.0802  3.9116 -2.3876
  731MOL0     H98651   7.477   1.677   2.842  0.8946 -1.9949 -1.4562
  731MOL0     H98652   7.362   1.795   2.790  0.0657  0.6547 -0.2139
  731MOL0     H98653   7.372   1.647   2.558  0.3008  1.0771  0.4570
  731MOL0     H98654   7.382   1.536   2.697  1.0019  0.7703  1.1723
  731MOL0     H98655   7.160   1.744   2.683 -1.0493 -0.8145 -0.8944
  731MOL0     H98656   7.185   1.611   2.794  2.4409  0.6000  1.3308
  731MOL0     H98657   7.107   1.608   2.494  0.3593 -0.4930  0.0133
  731MOL0     H98658   7.189   1.479   2.562  1.4967  2.1387 -1.8831
  731MOL0     H98659   7.006   1.444   2.730  3.2252  2.0558  0.8772
  731MOL0     H98660   6.936   1.448   2.570 -2.0325  0.3292  0.4782
  731MOL0     H98661   6.960   1.674   2.766  1.1102 -0.4003 -0.6266
  731MOL0     H98662   6.909   1.685   2.585  3.0135 -1.5995 -0.8328
  731MOL0     H98663   6.706   1.591   2.624 -2.3588  0.9093  0.1778
  731MOL0     H98664   6.728   1.698   2.758 -0.0835 -0.1492 -1.7160
  731MOL0     H98665   6.750   1.397   2.782 -3.2543 -2.0835  3.7788
  731MOL0     H98666   6.631   1.501   2.848  1.1756  2.0847  2.2102
  731MOL0     H98667   7.553   1.916   2.911  0.4100  0.5574 -0.2044
  731MOL0     H98668   7.657   2.116   2.949  0.9882 -0.8521  1.9870
  731MOL0     H98669   7.886   2.474   2.677 -0.8143 -0.4443  0.9189
  731MOL0     H98670   8.069   2.623   2.579  0.3609  1.6097  1.2722
  731MOL0     H98671   8.470   3.951   1.404  0.1452  0.7176 -1.3195
  731MOL0     H98672   8.396   4.049   1.193  0.1963 -0.4000  3.1903
  731MOL0     H98673   8.520   4.014   0.561  2.7414  1.1700 -1.3551
  731MOL0     H98674   8.439   4.185   0.426  0.5656  1.0258  0.3903
  731MOL0     H98675   8.545   4.545   0.534 -1.3056  2.6696 -0.4501
  731MOL0     H98676   8.546   4.453   0.379  0.5290 -0.9309  1.3378
  731MOL0     H98677   8.370   4.618   0.300 -0.0403 -0.0241 -0.4047
  731MOL0     H98678   8.502   4.716   0.339 -2.2867  0.6930 -1.7823
  731MOL0     H98679   8.342   4.684   0.583  2.6164 -0.5531 -0.2195
  731MOL0     H98680   8.250   4.738   0.450 -0.0328 -1.5624  1.7462
  731MOL0     H98681   8.499   4.896   0.519 -0.0945 -1.9485  1.9877
  731MOL0     H98682   8.335   4.927   0.565 -0.5686 -1.0525 -0.3039
  731MOL0     H98683   8.328   5.048   0.151 -0.3639  1.5296 -0.4123
  731MOL0     H98684   8.384   4.445   0.774  0.0677  0.9497  1.1345
  731MOL0     H98685   8.443   4.256   0.908  0.2959 -0.4336  0.1791
  732MOL0     O98686   7.665   3.351   0.841 -0.7778 -0.6281 -0.5487
  732MOL0     C98687   7.687   3.358   0.717  0.7241  0.3937 -0.1565
  732MOL0     O98688   7.655   3.468   0.644 -0.4010 -0.4045  1.2111
  732MOL0     C98689   7.571   3.563   0.698  0.2667  0.4008 -0.2586
  732MOL0     C98690   7.444   3.523   0.745 -0.9268  0.7980 -0.8837
  732MOL0     C98691   7.358   3.618   0.792  0.8325  1.1897  0.1657
  732MOL0     C98692   7.398   3.747   0.807 -0.9218  0.8637  0.0416
  732MOL0     O98693   7.317   3.830   0.872  0.5573  0.0025  0.0367
  732MOL0     C98694   7.330   3.839   1.009  0.2936 -1.2187 -1.1988
  732MOL0     C98695   7.355   3.981   1.047 -0.2186  0.2921 -1.2901
  732MOL0     C98696   7.391   3.999   1.197  0.5070  0.0345 -0.0254
  732MOL0     C98697   7.458   4.131   1.227  0.6466  0.5694 -0.2997
  732MOL0     C98698   7.500   4.148   1.366  0.0799  0.5778 -1.3953
  732MOL0     C98699   7.383   4.180   1.457 -0.4244 -0.8709  0.3486
  732MOL0     C98700   7.416   4.166   1.607 -0.3201 -0.3221  0.2805
  732MOL0     C98701   7.282   4.190   1.699 -0.3469 -0.4393 -0.2276
  732MOL0     N98702   7.264   4.337   1.728  0.9337 -0.5829  0.5830
  732MOL0     C98703   7.199   4.436   1.649 -0.3818 -0.3995  0.2843
  732MOL0     C98704   7.224   4.553   1.713 -0.0067 -0.3546 -0.0354
  732MOL0     C98705   7.188   4.690   1.659 -0.9442 -1.1478 -0.2724
  732MOL0     C98706   7.038   4.715   1.671  0.5209  0.2066 -0.1258
  732MOL0     C98707   6.987   4.813   1.788 -0.7955  0.6401 -0.2858
  732MOL0     C98708   7.022   4.970   1.767  0.7378 -0.9064  0.8905
  732MOL0     O98709   7.153   5.012   1.806  0.6714 -0.1428  0.5768
  732MOL0     C98710   7.201   5.146   1.790 -0.6710  1.1939  0.4339
  732MOL0     C98711   7.327   5.156   1.839  0.1728 -0.5357 -0.5581
  732MOL0     C98712   7.399   5.277   1.828  0.0781 -1.7155 -0.1167
  732MOL0     C98713   7.518   5.297   1.912  0.3306 -0.3867 -0.3319
  732MOL0     C98714   7.348   5.376   1.739  0.3061 -0.7220 -0.7215
  732MOL0     C98715   7.422   5.499   1.702  0.6198 -0.9070 -0.1251
  732MOL0     O98716   7.431   5.537   1.569  0.4430 -0.4799 -0.1434
  732MOL0     C98717   7.477   5.660   1.530  0.3924  0.8268 -0.3020
  732MOL0     C98718   7.460   5.781   1.607  0.1881 -0.7644 -0.0641
  732MOL0     C98719   7.518   5.893   1.570  0.7629 -1.1135 -0.0904
  732MOL0     C98720   7.587   5.901   1.451 -0.3450  0.1639 -1.0241
  732MOL0     O98721   7.647   6.012   1.400  0.0694 -0.2192  0.1871
  732MOL0     C98722   7.650   6.142   1.465  0.8369  0.7140 -0.4835
  732MOL0     C98723   7.642   6.248   1.362  0.2552 -0.3822  0.8828
  732MOL0     C98724   7.651   6.391   1.422  0.2282  0.1336 -0.0886
  732MOL0     C98725   7.720   6.497   1.336  0.3559  0.0903  0.1337
  732MOL0     C98726   7.868   6.476   1.318 -0.1801 -0.0913 -0.4217
  732MOL0     C98727   7.935   6.565   1.210  0.1697  0.2925 -0.0863
  732MOL0     C98728   8.089   6.549   1.234  0.3038  0.0450 -0.2448
  732MOL0     C98729   8.173   6.604   1.119 -0.5447 -0.4887  0.1214
  732MOL0    Cl98730   8.337   6.585   1.170  0.0026  0.0887 -0.3723
  732MOL0     C98731   7.593   5.786   1.366  0.7669  0.0252  0.6679
  732MOL0     C98732   7.553   5.662   1.411  0.3177  0.3240 -0.8229
  732MOL0     O98733   7.463   5.569   1.801  0.2054 -0.1566 -0.6444
  732MOL0     C98734   7.232   5.351   1.668  0.3933  0.2820 -1.1022
  732MOL0     C98735   7.144   5.241   1.704 -0.2223 -0.3884 -0.3850
  732MOL0     N98736   7.298   4.527   1.821  0.2888 -0.0215 -0.0794
  732MOL0     N98737   7.323   4.408   1.830  0.7713  0.6503  1.0161
  732MOL0     C98738   7.519   3.792   0.757  0.6160  0.0341  0.3434
  732MOL0     C98739   7.606   3.699   0.701 -0.0652 -0.4223 -1.3847
  732MOL0     C98740   7.742   3.247   0.636 -0.7686  0.1525  0.3172
  732MOL0     C98741   7.779   3.262   0.499 -0.2938 -0.0953 -0.7701
  732MOL0     C98742   7.828   3.157   0.415 -1.2856 -0.2117 -0.3260
  732MOL0     C98743   7.830   3.027   0.470  1.6896 -0.4636  0.4356
  732MOL0     O98744   7.844   2.914   0.401 -0.0045  0.3796  0.7894
  732MOL0     C98745   7.863   2.906   0.265 -0.4551 -0.3051  0.7963
  732MOL0     C98746   8.011   2.921   0.223 -0.0080  0.9768 -0.1086
  732MOL0     C98747   8.073   2.781   0.214 -0.7597 -0.3897  0.0305
  732MOL0     C98748   8.229   2.786   0.192  0.4607  0.2062  0.2898
  732MOL0     C98749   8.277   2.649   0.170  0.0932 -0.0999  0.5345
  732MOL0     C98750   8.299   2.532   0.152  0.2635 -0.4756  0.7168
  732MOL0     C98751   7.807   3.011   0.609 -0.3197  0.0767  0.8854
  732MOL0     C98752   7.772   3.122   0.692 -0.0781  1.0040  0.3290
  732MOL0     H98753   7.429   3.416   0.734  0.5297  0.6407 -1.4937
  732MOL0     H98754   7.258   3.593   0.826 -0.9489  1.5692 -4.1855
  732MOL0     H98755   7.231   3.805   1.040 -1.4477  2.2651 -2.4434
  732MOL0     H98756   7.414   3.775   1.041 -1.6290 -2.7839  1.0894
  732MOL0     H98757   7.440   4.018   0.990  0.9682 -0.8909 -0.3539
  732MOL0     H98758   7.262   4.036   1.029 -0.3725  1.7724  3.0093
  732MOL0     H98759   7.307   3.965   1.258  0.2333 -0.4182 -0.6437
  732MOL0     H98760   7.458   3.917   1.227 -2.2490 -2.4006 -0.0441
  732MOL0     H98761   7.550   4.150   1.171  1.1448 -0.3589  0.1762
  732MOL0     H98762   7.390   4.212   1.197 -0.2282  0.0978  0.3417
  732MOL0     H98763   7.551   4.058   1.403  1.7352  1.5273 -1.2428
  732MOL0     H98764   7.579   4.223   1.379  1.5643 -1.2306  1.1778
  732MOL0     H98765   7.361   4.286   1.437 -2.0297 -1.4192 -0.9852
  732MOL0     H98766   7.295   4.121   1.433 -0.9136  0.1825 -0.5588
  732MOL0     H98767   7.455   4.066   1.631 -1.1380 -0.2483  2.0737
  732MOL0     H98768   7.488   4.243   1.636 -0.9808  0.0439  0.9976
  732MOL0     H98769   7.293   4.143   1.797  2.2328  0.0705 -0.2053
  732MOL0     H98770   7.190   4.157   1.651  1.6344 -2.3006 -2.9727
  732MOL0     H98771   7.137   4.422   1.561  2.1124  0.5063 -1.7169
  732MOL0     H98772   7.229   4.766   1.727 -4.4504  1.1721 -0.4840
  732MOL0     H98773   7.235   4.709   1.562  1.1741 -3.1395  0.2825
  732MOL0     H98774   6.978   4.624   1.673  0.4640  0.2187 -0.8992
  732MOL0     H98775   7.004   4.758   1.576  1.1331  1.8184  0.3358
  732MOL0     H98776   7.013   4.778   1.889 -0.5514  0.2613 -0.4784
  732MOL0     H98777   6.880   4.797   1.777 -0.4332 -0.2006 -3.3696
  732MOL0     H98778   6.949   5.026   1.826  0.2002  1.2243 -1.6403
  732MOL0     H98779   7.009   4.990   1.660  3.1717  0.6408  0.7921
  732MOL0     H98780   7.363   5.082   1.909 -2.4951 -2.6693 -1.2573
  732MOL0     H98781   7.544   5.206   1.968  0.2295 -0.8023 -0.9562
  732MOL0     H98782   7.598   5.332   1.847  1.8246  0.4060  1.8061
  732MOL0     H98783   7.486   5.372   1.984  1.2489 -0.9609  0.7192
  732MOL0     H98784   7.408   5.765   1.702 -1.1266 -2.4300 -1.0037
  732MOL0     H98785   7.495   5.976   1.637 -0.9112 -1.1444 -0.5635
  732MOL0     H98786   7.555   6.142   1.519  0.3574 -0.9311 -1.2727
  732MOL0     H98787   7.742   6.132   1.523  1.4917  0.5767 -1.5207
  732MOL0     H98788   7.723   6.234   1.289 -1.6046 -1.2490 -1.1344
  732MOL0     H98789   7.552   6.232   1.302  2.2915 -1.0937 -2.2641
  732MOL0     H98790   7.713   6.388   1.512  1.7164  0.3904 -1.0782
  732MOL0     H98791   7.551   6.424   1.451  0.8536 -0.3890  3.0185
  732MOL0     H98792   7.679   6.487   1.235  1.8008 -1.5081 -0.3464
  732MOL0     H98793   7.688   6.589   1.385  2.0369  0.5350  0.4660
  732MOL0     H98794   7.874   6.372   1.285  2.0296  0.2540 -1.2331
  732MOL0     H98795   7.921   6.491   1.412 -1.9025  3.4311  0.1597
  732MOL0     H98796   7.906   6.532   1.110  0.4817  2.1344 -0.8257
  732MOL0     H98797   7.909   6.671   1.214 -0.4631  0.1715 -0.7553
  732MOL0     H98798   8.116   6.445   1.254 -0.8632 -0.6985 -2.2751
  732MOL0     H98799   8.112   6.595   1.331 -1.7114 -0.3709  0.4804
  732MOL0     H98800   8.159   6.711   1.098  2.4256 -0.0132  0.0418
  732MOL0     H98801   8.144   6.544   1.032 -0.4144 -0.3321 -0.0317
  732MOL0     H98802   7.643   5.794   1.271 -2.6393  0.3301 -1.2646
  732MOL0     H98803   7.578   5.567   1.367 -1.4108 -0.6456  0.1497
  732MOL0     H98804   7.203   5.421   1.589 -1.1808  2.8216  1.5217
  732MOL0     H98805   7.046   5.212   1.666 -0.3425 -3.7802  2.0805
  732MOL0     H98806   7.540   3.898   0.749  0.6551  0.0751  0.9109
  732MOL0     H98807   7.701   3.733   0.660 -0.2572  2.5944  0.4116
  732MOL0     H98808   7.780   3.361   0.454 -2.5479 -0.1191 -1.0022
  732MOL0     H98809   7.867   3.177   0.315 -2.7952 -0.5696 -1.0149
  732MOL0     H98810   7.820   2.813   0.226 -1.1635  1.5206 -3.3370
  732MOL0     H98811   7.810   2.986   0.212  1.4814 -0.9948 -2.4577
  732MOL0     H98812   8.060   2.988   0.295  0.5448  0.0589  0.3891
  732MOL0     H98813   8.008   2.959   0.120  3.6437 -2.5497 -1.7821
  732MOL0     H98814   8.045   2.723   0.125 -4.9404  0.2466  0.7211
  732MOL0     H98815   8.056   2.714   0.299 -0.6579  0.6857  0.9061
  732MOL0     H98816   8.286   2.846   0.263  4.0934 -1.2164 -1.1769
  732MOL0     H98817   8.244   2.839   0.097 -0.4540 -0.6435 -0.3515
  732MOL0     H98818   8.324   2.432   0.125  1.5365 -0.2409  0.9795
  732MOL0     H98819   7.809   2.912   0.653  1.7660  0.5274  1.9342
  732MOL0     H98820   7.769   3.104   0.799 -2.4354 -2.4520 -0.1554
  733MOL0     O98821   8.022   3.682   9.327 -0.1531  0.4152  0.3332
  733MOL0     C98822   7.938   3.728   9.407  0.7447  0.2051 -0.0637
  733MOL0     O98823   7.961   3.827   9.503 -0.0335 -0.2143  0.0150
  733MOL0     C98824   8.060   3.916   9.476  0.8311  0.6564  0.1494
  733MOL0     C98825   8.115   3.969   9.590 -0.0632  0.3546 -1.2459
  733MOL0     C98826   8.215   4.063   9.585  0.4163 -0.1966  0.6518
  733MOL0     C98827   8.273   4.105   9.459  0.1334 -0.9256 -0.7012
  733MOL0     O98828   8.373   4.188   9.466 -0.0086  0.3052  0.1148
  733MOL0     C98829   8.488   4.162   9.381 -1.1217 -0.4421 -0.6870
  733MOL0     C98830   8.555   4.030   9.416  0.6535 -0.3619  0.6967
  733MOL0     C98831   8.613   4.019   9.557  0.8601  0.5987 -0.8282
  733MOL0     C98832   8.579   3.878   9.627  0.7903 -0.2217 -0.6292
  733MOL0     C98833   8.632   3.867   9.771  0.5917  0.2131 -0.0358
  733MOL0     C98834   8.566   3.759   9.854 -0.0938 -0.5651 -0.0001
  733MOL0     C98835   8.665   3.737   9.979  0.8200 -0.3223 -0.0399
  733MOL0     C98836   8.627   3.607  10.039 -0.4573 -0.1841 -0.2143
  733MOL0     N98837   8.485   3.608  10.069  0.1105  0.4958  0.2097
  733MOL0     C98838   8.439   3.668  10.181  0.2937  0.3973  0.2809
  733MOL0     C98839   8.307   3.677  10.162  0.2459  0.4601  0.5311
  733MOL0     C98840   8.215   3.752  10.253 -0.0304 -0.9876  0.3760
  733MOL0     C98841   8.216   3.909  10.224 -0.4102  1.8943  0.3712
  733MOL0     C98842   8.163   3.946  10.083 -0.2751 -0.1536  0.2777
  733MOL0     C98843   8.011   3.949  10.084  0.1951  1.2666  0.4748
  733MOL0     O98844   7.963   4.068  10.149 -0.0467 -0.0865 -1.6486
  733MOL0     C98845   7.837   4.098  10.113 -0.3494  0.0717 -0.1014
  733MOL0     C98846   7.736   4.020  10.161  0.9070 -0.2182  0.0278
  733MOL0     C98847   7.594   4.043  10.130 -1.0046  0.9332  0.0774
  733MOL0     C98848   7.483   3.960  10.203  0.0967 -0.3081  0.3200
  733MOL0     C98849   7.564   4.152  10.046 -0.9640  1.0189 -0.8328
  733MOL0     C98850   7.428   4.188   9.995 -0.6192  1.9662 -1.2369
  733MOL0     O98851   7.414   4.311   9.935 -0.4426 -0.0530  0.2334
  733MOL0     C98852   7.304   4.329   9.856  0.4147 -0.3960 -0.8190
  733MOL0     C98853   7.183   4.345   9.915  0.2026  0.6621  0.4788
  733MOL0     C98854   7.062   4.361   9.832 -0.3220  0.3958 -0.7722
  733MOL0     C98855   7.083   4.392   9.693 -0.8992  0.4497  0.3945
  733MOL0     O98856   6.981   4.432   9.617  0.3638 -1.1105 -0.0915
  733MOL0     C98857   6.991   4.553   9.540  0.2105 -0.2097 -1.0505
  733MOL0     C98858   6.856   4.643   9.535 -0.2866  0.3675 -0.6331
  733MOL0     C98859   6.873   4.801   9.535 -0.0027 -0.3365 -0.6772
  733MOL0     C98860   6.736   4.883   9.529 -0.5534 -0.6242 -0.0130
  733MOL0     C98861   6.771   5.028   9.491 -0.3375 -0.2697 -0.3432
  733MOL0     C98862   6.662   5.087   9.413 -1.0029 -0.2605  0.3166
  733MOL0     C98863   6.532   5.093   9.507 -0.9181 -0.0254  0.0073
  733MOL0     C98864   6.426   5.206   9.473  0.3777 -0.6894 -0.6173
  733MOL0    Cl98865   6.382   5.231   9.309 -0.2153  0.0688 -0.1023
  733MOL0     C98866   7.211   4.385   9.646 -0.1047  0.3416  0.3474
  733MOL0     C98867   7.316   4.345   9.718 -0.8602 -0.3401  0.6713
  733MOL0     O98868   7.334   4.110  10.017  0.3340  0.7321 -0.4005
  733MOL0     C98869   7.674   4.231  10.006  0.2730 -1.2243 -1.0735
  733MOL0     C98870   7.808   4.212  10.044 -0.1824 -0.9582 -0.4033
  733MOL0     N98871   8.278   3.600  10.055 -0.2926  0.6310  0.0888
  733MOL0     N98872   8.385   3.540  10.007  0.8571  0.5945 -0.4767
  733MOL0     C98873   8.218   4.046   9.347 -0.1539  0.9300  0.4195
  733MOL0     C98874   8.104   3.955   9.354 -0.2116 -0.5330 -0.2401
  733MOL0     C98875   7.821   3.641   9.426  0.6458 -1.4224 -0.2707
  733MOL0     C98876   7.732   3.676   9.530 -0.6594  0.5409  0.3073
  733MOL0     C98877   7.607   3.616   9.537  0.3294 -0.4667 -0.3486
  733MOL0     C98878   7.567   3.516   9.447 -0.5047  0.0943 -0.0164
  733MOL0     O98879   7.442   3.467   9.471 -0.7556  1.4691 -0.1399
  733MOL0     C98880   7.387   3.370   9.380 -0.4361 -0.0817 -0.1698
  733MOL0     C98881   7.437   3.230   9.401  1.0194 -0.1970 -0.3410
  733MOL0     C98882   7.378   3.188   9.542  0.3277 -0.3818  0.6276
  733MOL0     C98883   7.410   3.039   9.566 -0.1452 -0.7285 -0.8386
  733MOL0     C98884   7.336   2.949   9.484 -0.2050  0.6602 -0.0838
  733MOL0     C98885   7.275   2.867   9.414  0.7420  0.6256  0.6235
  733MOL0     C98886   7.657   3.475   9.350  0.0636 -0.0998  0.9690
  733MOL0     C98887   7.785   3.546   9.329 -0.9453  0.5028 -0.4224
  733MOL0     H98888   8.075   3.936   9.684  0.0394  1.2710 -0.8633
  733MOL0     H98889   8.237   4.108   9.681 -1.5351  3.0823 -0.2585
  733MOL0     H98890   8.458   4.180   9.277  1.6319  2.3444 -1.1683
  733MOL0     H98891   8.558   4.244   9.402 -0.6336 -1.4380  1.9649
  733MOL0     H98892   8.481   3.950   9.403  0.3401  0.2537 -1.7891
  733MOL0     H98893   8.637   4.023   9.344  2.2610  1.0061  2.2882
  733MOL0     H98894   8.722   4.016   9.556  0.8503 -0.1767 -0.7223
  733MOL0     H98895   8.577   4.097   9.624 -0.1371 -0.4004 -0.1483
  733MOL0     H98896   8.471   3.867   9.625  0.5241  1.5996  0.9567
  733MOL0     H98897   8.616   3.795   9.566  2.9955  0.0849  0.1924
  733MOL0     H98898   8.740   3.849   9.774  0.3574 -1.1394  2.0166
  733MOL0     H98899   8.626   3.960   9.827  0.9897 -0.4632  1.1710
  733MOL0     H98900   8.472   3.796   9.896  1.4834  3.6675  0.1915
  733MOL0     H98901   8.554   3.669   9.793  0.5399 -0.1390 -0.7696
  733MOL0     H98902   8.768   3.718   9.949  0.3195 -2.3991 -0.6600
  733MOL0     H98903   8.644   3.819  10.048 -4.1530 -0.2272 -1.2859
  733MOL0     H98904   8.689   3.600  10.129 -2.5322  0.2171  1.3475
  733MOL0     H98905   8.648   3.514   9.985  0.9516  0.0071 -0.0296
  733MOL0     H98906   8.498   3.725  10.253  0.9770  0.8566 -0.6281
  733MOL0     H98907   8.113   3.714  10.237  1.2065 -4.3012 -0.5779
  733MOL0     H98908   8.240   3.737  10.358 -2.1597  1.5200  1.3373
  733MOL0     H98909   8.315   3.950  10.247  0.6661 -0.0764 -0.4796
  733MOL0     H98910   8.166   3.961  10.306  0.7754  0.4280  2.1107
  733MOL0     H98911   8.196   3.890   9.995  1.3928  1.1386  0.0188
  733MOL0     H98912   8.201   4.048  10.067  1.7259  0.3109  5.8227
  733MOL0     H98913   7.969   3.859  10.130  0.3320 -0.2725 -2.1668
  733MOL0     H98914   7.978   3.959   9.980  0.2965 -0.3183  0.2653
  733MOL0     H98915   7.771   3.950  10.235  2.4034 -0.4267 -0.8408
  733MOL0     H98916   7.427   3.901  10.129 -0.9995  0.0913  0.8061
  733MOL0     H98917   7.519   3.888  10.278  1.0922 -2.3244 -1.9378
  733MOL0     H98918   7.427   4.047  10.237 -1.0334  0.2815 -2.6886
  733MOL0     H98919   7.171   4.349  10.023 -1.4992  2.3183  0.2633
  733MOL0     H98920   6.957   4.365   9.858  0.1708  0.9551  1.3006
  733MOL0     H98921   7.074   4.613   9.580  1.7809 -3.9279  1.8885
  733MOL0     H98922   7.011   4.523   9.436 -0.8922 -2.1093 -0.7645
  733MOL0     H98923   6.807   4.624   9.439  0.0874 -1.9921 -0.4268
  733MOL0     H98924   6.801   4.601   9.620  1.3072 -0.8455 -0.1416
  733MOL0     H98925   6.922   4.831   9.442 -0.8886  2.7897 -0.2640
  733MOL0     H98926   6.942   4.822   9.617 -0.2154 -0.9817 -0.3222
  733MOL0     H98927   6.672   4.850   9.446  0.8931  1.5642 -2.1467
  733MOL0     H98928   6.696   4.877   9.631  2.2903  3.3643  1.6106
  733MOL0     H98929   6.873   5.023   9.451 -0.0009 -2.9764  0.6067
  733MOL0     H98930   6.771   5.086   9.584 -1.3110  1.4512 -1.3767
  733MOL0     H98931   6.674   5.188   9.372 -2.4404 -0.6544 -1.1790
  733MOL0     H98932   6.648   5.029   9.322  3.0226 -1.3992  0.2524
  733MOL0     H98933   6.562   5.098   9.612 -0.0475  0.6056 -0.2616
  733MOL0     H98934   6.480   4.998   9.495 -1.3363 -0.0664  1.8329
  733MOL0     H98935   6.462   5.307   9.496 -0.7881 -0.0036 -1.7279
  733MOL0     H98936   6.337   5.179   9.531  0.0162 -0.0244 -0.8460
  733MOL0     H98937   7.211   4.405   9.540 -1.7444 -0.6059  0.1244
  733MOL0     H98938   7.413   4.331   9.672 -1.9113  0.6094 -2.0258
  733MOL0     H98939   7.652   4.319   9.947 -1.8786 -0.3301  0.9350
  733MOL0     H98940   7.888   4.283  10.026 -2.5346  2.2063  0.6375
  733MOL0     H98941   8.261   4.067   9.250 -4.7642  1.3659 -1.8122
  733MOL0     H98942   8.076   3.907   9.260 -2.7930  1.0967 -0.3979
  733MOL0     H98943   7.751   3.750   9.607  0.9787 -0.7069  1.2093
  733MOL0     H98944   7.537   3.642   9.616  1.0476 -2.8397  1.1596
  733MOL0     H98945   7.278   3.379   9.388 -0.3705  1.8151 -0.9469
  733MOL0     H98946   7.399   3.409   9.279 -1.1923  3.9830  1.1096
  733MOL0     H98947   7.546   3.228   9.397  1.0878 -1.4889  1.5275
  733MOL0     H98948   7.390   3.168   9.323  1.0195  0.4193 -0.8411
  733MOL0     H98949   7.270   3.207   9.552 -0.0979 -2.0141 -0.5073
  733MOL0     H98950   7.426   3.248   9.620  0.1813  1.4016 -0.5716
  733MOL0     H98951   7.391   3.020   9.672 -1.0432  1.2466 -0.6012
  733MOL0     H98952   7.516   3.020   9.550  0.0643 -1.7975  1.3917
  733MOL0     H98953   7.205   2.806   9.360  1.2603  0.3586  0.2485
  733MOL0     H98954   7.635   3.392   9.285 -2.0836  1.1673 -0.0345
  733MOL0     H98955   7.853   3.512   9.252  0.0387 -0.2986  0.7589
  734MOL0     O98956   7.938   1.815   3.712 -0.3697 -0.6095  0.3279
  734MOL0     C98957   7.940   1.798   3.587 -0.8335 -0.4062 -0.5723
  734MOL0     O98958   8.052   1.774   3.509  0.5904 -0.4412 -0.9093
  734MOL0     C98959   8.176   1.783   3.543 -0.0288  0.5752  0.4428
  734MOL0     C98960   8.258   1.839   3.455 -1.2513 -1.2575  0.2102
  734MOL0     C98961   8.400   1.855   3.476 -0.0738  0.0482  0.1122
  734MOL0     C98962   8.443   1.803   3.597 -0.3709  0.1472 -0.2044
  734MOL0     O98963   8.573   1.807   3.634 -0.3281 -0.5415  0.2745
  734MOL0     C98964   8.651   1.717   3.549 -0.2126  0.5118 -0.2170
  734MOL0     C98965   8.774   1.796   3.488 -0.0611  0.6281 -0.7390
  734MOL0     C98966   8.866   1.716   3.397  0.3076 -0.1321 -0.3662
  734MOL0     C98967   8.795   1.670   3.267  0.1035 -0.9196 -0.0948
  734MOL0     C98968   8.911   1.621   3.177 -1.0311  0.2594  0.2875
  734MOL0     C98969   8.974   1.742   3.097 -0.9174 -0.5539  0.2390
  734MOL0     C98970   8.889   1.795   2.978 -0.0142  0.2938  0.4050
  734MOL0     C98971   8.975   1.829   2.859  0.2885  0.5190 -0.6485
  734MOL0     N98972   8.907   1.869   2.740  0.6031  0.9017  0.0884
  734MOL0     C98973   8.839   1.984   2.718  0.2315 -0.0798 -0.1192
  734MOL0     C98974   8.795   1.990   2.592  0.5432 -0.1898  0.1778
  734MOL0     C98975   8.727   2.100   2.512 -0.2300  1.5854 -0.2886
  734MOL0     C98976   8.641   2.191   2.596 -0.1573 -0.2872  0.1589
  734MOL0     C98977   8.608   2.324   2.520  0.7931 -0.2759 -1.0524
  734MOL0     C98978   8.539   2.310   2.390  0.1588 -0.0342  0.0471
  734MOL0     O98979   8.503   2.442   2.344  0.1122 -0.6250  0.0510
  734MOL0     C98980   8.451   2.455   2.219 -0.8659  0.2008  0.0520
  734MOL0     C98981   8.383   2.356   2.143 -0.3166 -0.5100 -0.1599
  734MOL0     C98982   8.317   2.396   2.026 -0.9438  0.0493 -0.3844
  734MOL0     C98983   8.252   2.289   1.949 -0.0789 -0.5638  0.6057
  734MOL0     C98984   8.319   2.539   1.985 -0.3562 -0.7272  0.1920
  734MOL0     C98985   8.257   2.594   1.865  0.7640  0.6820  0.2425
  734MOL0     O98986   8.284   2.728   1.846 -0.8109  0.1513  0.0748
  734MOL0     C98987   8.261   2.786   1.722  0.2233 -0.5418 -0.5938
  734MOL0     C98988   8.167   2.884   1.706 -0.6139  0.3633 -0.2907
  734MOL0     C98989   8.143   2.949   1.581 -0.3487 -0.8463 -0.3268
  734MOL0     C98990   8.226   2.909   1.474  0.3549  0.2555  1.1828
  734MOL0     O98991   8.203   2.983   1.364 -0.1139 -0.6083 -0.3019
  734MOL0     C98992   8.209   2.896   1.246 -0.6302  0.1172 -0.1607
  734MOL0     C98993   8.209   2.982   1.126 -0.4145  0.0108 -0.1324
  734MOL0     C98994   8.065   3.059   1.118  0.3486  0.9413  0.0494
  734MOL0     C98995   8.087   3.207   1.089 -0.8447  0.3311  0.6206
  734MOL0     C98996   8.159   3.235   0.951 -0.2473 -0.3104  0.1367
  734MOL0     C98997   8.121   3.146   0.830 -0.1268  0.0840  0.1598
  734MOL0     C98998   8.179   3.211   0.707  0.0567 -0.5970 -1.0181
  734MOL0     C98999   8.200   3.123   0.590 -0.2380  0.7533 -0.6510
  734MOL0    Cl99000   8.290   3.211   0.466 -0.1155 -0.4092 -0.1190
  734MOL0     C99001   8.320   2.806   1.490  1.4423 -0.4478 -0.5187
  734MOL0     C99002   8.334   2.739   1.611  0.3491 -0.5646  0.0524
  734MOL0     O99003   8.191   2.523   1.794 -0.2768  0.6692  0.5054
  734MOL0     C99004   8.401   2.621   2.062  0.0094 -0.4152  0.0794
  734MOL0     C99005   8.468   2.582   2.178 -0.1039 -0.3112  0.1677
  734MOL0     N99006   8.833   1.870   2.532 -0.3615 -0.1807 -0.2153
  734MOL0     N99007   8.898   1.800   2.619 -0.3687 -0.1590 -0.5702
  734MOL0     C99008   8.358   1.732   3.682 -0.3896  0.7229  0.2836
  734MOL0     C99009   8.224   1.726   3.661 -0.1013  0.4006 -1.1455
  734MOL0     C99010   7.803   1.804   3.510 -0.2621 -0.0599  0.2458
  734MOL0     C99011   7.793   1.762   3.375 -0.5974  0.1892 -0.0133
  734MOL0     C99012   7.684   1.796   3.297  0.6001 -0.2445  0.3354
  734MOL0     C99013   7.573   1.847   3.357 -0.1379  0.0922 -0.2846
  734MOL0     O99014   7.460   1.868   3.283  0.9561 -0.4720  0.0047
  734MOL0     C99015   7.333   1.900   3.348 -0.6492  0.0234 -0.8388
  734MOL0     C99016   7.214   1.865   3.250  1.0570 -0.3172 -0.0417
  734MOL0     C99017   7.236   1.724   3.192  0.2175  0.3063  0.4807
  734MOL0     C99018   7.117   1.678   3.098 -0.3513 -0.1395 -0.5222
  734MOL0     C99019   7.078   1.776   2.998 -0.0364 -0.4862  0.7753
  734MOL0     C99020   7.051   1.869   2.930 -0.0022 -0.7230 -0.3302
  734MOL0     C99021   7.577   1.875   3.492  0.2317 -0.1563 -0.4156
  734MOL0     C99022   7.688   1.858   3.570 -0.2496  0.3337 -0.0264
  734MOL0     H99023   8.207   1.890   3.375 -0.3730 -0.2374  0.2721
  734MOL0     H99024   8.464   1.893   3.398  1.8637 -1.3736  0.9399
  734MOL0     H99025   8.685   1.642   3.621  0.6910  0.3775 -0.7644
  734MOL0     H99026   8.585   1.678   3.471 -2.3090  2.1245  0.6372
  734MOL0     H99027   8.735   1.871   3.419 -0.5183 -0.5873 -1.8451
  734MOL0     H99028   8.840   1.832   3.567  0.4556  0.1218 -0.9297
  734MOL0     H99029   8.955   1.779   3.395  0.2600  0.1767  2.6608
  734MOL0     H99030   8.904   1.625   3.443  1.9476 -0.4751 -2.2438
  734MOL0     H99031   8.726   1.589   3.292  0.2171 -0.2810  2.5777
  734MOL0     H99032   8.739   1.750   3.216  0.7370 -0.4860 -0.1239
  734MOL0     H99033   8.988   1.562   3.228  0.8187 -0.2830 -2.8422
  734MOL0     H99034   8.871   1.561   3.095  1.2702 -1.4196  0.2933
  734MOL0     H99035   8.996   1.823   3.166  2.5719  0.3199 -1.6524
  734MOL0     H99036   9.071   1.706   3.061 -0.7373  1.5430 -1.5602
  734MOL0     H99037   8.813   1.722   2.947 -0.6513  1.3869 -0.7058
  734MOL0     H99038   8.834   1.883   3.014  0.1007 -0.3927  2.3573
  734MOL0     H99039   9.041   1.747   2.829  2.4997  0.8757  2.7136
  734MOL0     H99040   9.044   1.909   2.888 -3.1744  2.8963  1.7747
  734MOL0     H99041   8.835   2.060   2.796 -2.2426 -2.1732  1.9765
  734MOL0     H99042   8.809   2.154   2.464  1.0908  1.2214  1.4482
  734MOL0     H99043   8.663   2.047   2.441  1.1004  1.1064 -1.1619
  734MOL0     H99044   8.700   2.218   2.684 -0.0458 -0.5654  0.1722
  734MOL0     H99045   8.550   2.141   2.630  0.0732 -1.7641 -1.2738
  734MOL0     H99046   8.704   2.377   2.515  0.9740 -0.6204 -1.2894
  734MOL0     H99047   8.539   2.383   2.580 -1.3616 -2.5267 -1.1399
  734MOL0     H99048   8.453   2.245   2.408 -0.8667  1.2005 -0.2092
  734MOL0     H99049   8.603   2.281   2.307  0.6772  2.0507 -0.3488
  734MOL0     H99050   8.361   2.259   2.188 -0.0284 -1.4386 -1.9184
  734MOL0     H99051   8.274   2.295   1.842 -3.6396  1.6971 -0.1800
  734MOL0     H99052   8.285   2.190   1.981 -0.1979 -0.8450 -0.1060
  734MOL0     H99053   8.144   2.298   1.965  0.3921  1.1283  3.3424
  734MOL0     H99054   8.121   2.902   1.802 -0.3184 -0.4459  0.0107
  734MOL0     H99055   8.058   3.010   1.556 -1.6240 -2.7972 -0.9720
  734MOL0     H99056   8.299   2.835   1.234 -0.5462  0.3725 -0.9209
  734MOL0     H99057   8.122   2.830   1.238 -0.6834  0.2162 -0.4422
  734MOL0     H99058   8.293   3.051   1.131 -1.1876  1.5667 -4.2720
  734MOL0     H99059   8.213   2.919   1.036 -1.1436 -0.0929 -0.0962
  734MOL0     H99060   8.014   3.055   1.215  0.9619 -1.3912  0.3471
  734MOL0     H99061   7.992   3.010   1.053  0.9928 -1.1303  0.7959
  734MOL0     H99062   7.984   3.244   1.097 -1.4604 -1.3605  0.8292
  734MOL0     H99063   8.145   3.250   1.172  0.0759  1.2696 -0.4691
  734MOL0     H99064   8.267   3.249   0.964 -0.2840  0.6161 -0.4554
  734MOL0     H99065   8.112   3.330   0.925 -0.2454 -0.3942 -0.1734
  734MOL0     H99066   8.165   3.046   0.835  2.2577  1.0333 -0.5432
  734MOL0     H99067   8.013   3.140   0.819 -0.5913  3.4363  1.6045
  734MOL0     H99068   8.279   3.247   0.733 -0.4907  2.7318 -3.0410
  734MOL0     H99069   8.119   3.295   0.672 -0.5393  0.0900  1.4061
  734MOL0     H99070   8.107   3.073   0.564  0.7871 -0.5476 -1.9812
  734MOL0     H99071   8.269   3.040   0.608 -1.0170  0.2193 -0.0835
  734MOL0     H99072   8.376   2.777   1.401 -1.5944 -1.3298 -2.3359
  734MOL0     H99073   8.409   2.661   1.618 -1.5389 -2.4301  0.9037
  734MOL0     H99074   8.406   2.725   2.031  1.0197 -1.2233 -2.7258
  734MOL0     H99075   8.523   2.654   2.238 -0.3761 -2.3613  3.0874
  734MOL0     H99076   8.384   1.697   3.781  0.5940  2.1473  0.5696
  734MOL0     H99077   8.156   1.675   3.729 -0.4733  0.5073 -1.4317
  734MOL0     H99078   7.884   1.728   3.325 -2.3071 -3.1990 -1.1718
  734MOL0     H99079   7.670   1.781   3.190  0.6618 -0.1313  0.3110
  734MOL0     H99080   7.336   1.822   3.425  2.2250 -1.4181 -2.2555
  734MOL0     H99081   7.327   1.999   3.394 -0.7496 -1.2851  2.2554
  734MOL0     H99082   7.201   1.944   3.175  0.0577 -0.0647  0.3666
  734MOL0     H99083   7.124   1.863   3.313 -1.9143  0.3115 -3.8528
  734MOL0     H99084   7.246   1.646   3.268 -0.0480  0.0034  0.2113
  734MOL0     H99085   7.323   1.732   3.127 -0.3286  2.3831 -0.0547
  734MOL0     H99086   7.024   1.661   3.154  0.6215 -1.6366  0.7084
  734MOL0     H99087   7.143   1.579   3.059 -0.3171  0.2071 -1.4101
  734MOL0     H99088   7.045   1.961   2.874  2.0219 -0.6964 -0.5788
  734MOL0     H99089   7.491   1.912   3.548  1.0171 -2.1317  2.3441
  734MOL0     H99090   7.694   1.878   3.676 -0.5231  2.5875 -0.3770
  735MOL0     O99091   2.714   3.440   9.211 -0.0713 -0.3311  0.5220
  735MOL0     C99092   2.707   3.381   9.315  0.1812  0.5465  0.5493
  735MOL0     O99093   2.610   3.392   9.410  0.3838 -0.3116  0.6287
  735MOL0     C99094   2.522   3.497   9.405 -0.3844 -0.1264  0.3305
  735MOL0     C99095   2.570   3.633   9.412 -0.2110 -0.0875 -0.4189
  735MOL0     C99096   2.476   3.738   9.402  0.7385  0.0693  0.9376
  735MOL0     C99097   2.339   3.720   9.384 -0.8368  0.4570 -0.2852
  735MOL0     O99098   2.248   3.817   9.378  0.7801 -0.4487  0.4085
  735MOL0     C99099   2.281   3.948   9.413  0.5381 -0.4514  0.1932
  735MOL0     C99100   2.168   4.036   9.352  1.5922  0.3299 -0.8538
  735MOL0     C99101   2.158   4.055   9.196  0.1304 -0.3371 -1.1777
  735MOL0     C99102   2.270   4.167   9.155  0.9736  0.3965  0.8932
  735MOL0     C99103   2.264   4.193   8.998 -0.0503  0.4754 -0.6754
  735MOL0     C99104   2.397   4.266   8.959 -0.1647 -0.2441 -0.0809
  735MOL0     C99105   2.413   4.406   9.031  0.4201  0.2286  0.2192
  735MOL0     C99106   2.548   4.469   9.025  0.1249  0.8095  0.8099
  735MOL0     N99107   2.565   4.581   9.115  0.2848  0.1415 -0.5182
  735MOL0     C99108   2.565   4.571   9.249  0.2791 -0.4018  0.4241
  735MOL0     C99109   2.651   4.669   9.290 -0.2560  0.2316  0.2298
  735MOL0     C99110   2.671   4.678   9.434 -0.4590  0.1023  0.4937
  735MOL0     C99111   2.795   4.597   9.477  0.6306 -0.2538 -0.1295
  735MOL0     C99112   2.901   4.648   9.574  0.6754 -0.0812  0.2285
  735MOL0     C99113   2.867   4.684   9.717  0.2047  0.3154 -0.0113
  735MOL0     O99114   2.855   4.581   9.819 -0.3943 -0.5841 -0.3340
  735MOL0     C99115   2.837   4.644   9.945 -0.7735 -0.3135 -0.1116
  735MOL0     C99116   2.942   4.650  10.045  0.0847  0.6572 -0.0526
  735MOL0     C99117   2.936   4.734  10.158  0.4181  0.5654  0.0500
  735MOL0     C99118   3.069   4.743  10.239  0.2287 -0.4153 -0.2344
  735MOL0     C99119   2.809   4.802  10.174  0.4568  1.5205  0.3489
  735MOL0     C99120   2.785   4.892  10.302 -0.2205 -0.0551  0.0957
  735MOL0     O99121   2.652   4.933  10.322  0.7534  0.1244 -0.5457
  735MOL0     C99122   2.633   4.993  10.447 -0.3153  0.6995  0.0778
  735MOL0     C99123   2.681   5.120  10.462  0.1036  0.3191 -0.0599
  735MOL0     C99124   2.687   5.182  10.594  0.4820  0.9717  0.7781
  735MOL0     C99125   2.634   5.107  10.711  1.2602 -0.1172  1.6858
  735MOL0     O99126   2.615   5.160  10.835 -0.1005 -0.0652  0.6813
  735MOL0     C99127   2.734   5.228  10.879 -0.7046 -0.1137  0.3986
  735MOL0     C99128   2.857   5.137  10.913  0.2726  0.3781  1.0364
  735MOL0     C99129   2.997   5.198  10.923  0.1434 -1.0147 -1.4474
  735MOL0     C99130   3.066   5.225  10.787 -1.0665  0.0871  0.1146
  735MOL0     C99131   3.144   5.104  10.728  0.1914 -0.0210  0.2072
  735MOL0     C99132   3.241   5.144  10.617 -0.3145 -0.7193 -0.3191
  735MOL0     C99133   3.251   5.044  10.507 -0.4715  1.0691 -0.7596
  735MOL0     C99134   3.381   5.068  10.428 -0.9140  0.1764  0.9249
  735MOL0    Cl99135   3.392   4.957  10.284  0.0083 -0.3854  0.1144
  735MOL0     C99136   2.595   4.973  10.698 -1.5224  0.9542  0.5857
  735MOL0     C99137   2.594   4.918  10.563 -0.6510 -0.0271 -0.7081
  735MOL0     O99138   2.886   4.921  10.374 -0.0120 -0.0875 -0.8983
  735MOL0     C99139   2.703   4.784  10.082  0.0637 -0.3679 -0.0079
  735MOL0     C99140   2.725   4.720   9.962 -0.6743  0.0229  0.1888
  735MOL0     N99141   2.690   4.755   9.180  0.3483  0.1350 -0.8268
  735MOL0     N99142   2.637   4.691   9.084 -0.2825  0.4830 -0.7842
  735MOL0     C99143   2.293   3.589   9.392  0.1312  0.7708 -0.3185
  735MOL0     C99144   2.380   3.482   9.401 -0.4283  0.1604  0.3507
  735MOL0     C99145   2.812   3.274   9.346  0.6685 -0.9383 -0.3579
  735MOL0     C99146   2.925   3.259   9.270  0.2737 -0.1127 -0.2215
  735MOL0     C99147   3.030   3.169   9.298  0.0654 -0.1351  0.2287
  735MOL0     C99148   3.010   3.085   9.410 -0.6730 -0.9884  0.2613
  735MOL0     O99149   3.103   3.012   9.471  0.2705  0.1888  0.5998
  735MOL0     C99150   3.236   2.992   9.427 -0.4458  0.2676  0.0303
  735MOL0     C99151   3.347   3.092   9.473  2.0002 -0.0129 -0.8359
  735MOL0     C99152   3.480   3.026   9.495  0.4609 -0.7042  0.0612
  735MOL0     C99153   3.555   3.111   9.598 -0.6371  0.1373 -0.8798
  735MOL0     C99154   3.577   3.249   9.557 -0.1014  0.3879 -0.1693
  735MOL0     C99155   3.594   3.369   9.540  0.2062 -0.0425 -0.1997
  735MOL0     C99156   2.893   3.099   9.482  0.2277  0.8463 -0.4966
  735MOL0     C99157   2.795   3.190   9.453 -0.2409 -0.1473 -1.0655
  735MOL0     H99158   2.676   3.658   9.415 -0.2392 -0.0288  0.0645
  735MOL0     H99159   2.524   3.835   9.408 -0.6036  0.6924  2.4221
  735MOL0     H99160   2.285   3.946   9.522 -0.6643 -2.1950  0.2554
  735MOL0     H99161   2.375   3.987   9.375  0.0481  0.1408 -0.4474
  735MOL0     H99162   2.078   3.983   9.384  1.2293 -0.5700 -3.1999
  735MOL0     H99163   2.184   4.138   9.390 -0.3001  1.2581 -2.3741
  735MOL0     H99164   2.176   3.958   9.147  1.2839 -1.5612  1.4565
  735MOL0     H99165   2.057   4.091   9.175 -1.1461 -3.3117 -0.6526
  735MOL0     H99166   2.247   4.257   9.213  0.2854 -1.5967  3.9867
  735MOL0     H99167   2.369   4.129   9.181  1.7553  2.9425  1.9002
  735MOL0     H99168   2.255   4.099   8.943  1.3474 -0.1802  0.1662
  735MOL0     H99169   2.182   4.260   8.971  0.6151  0.6709 -2.2878
  735MOL0     H99170   2.482   4.205   8.991  0.7703  0.5572 -0.9533
  735MOL0     H99171   2.404   4.275   8.851 -2.3659  1.8615 -0.1228
  735MOL0     H99172   2.341   4.480   8.996  0.6574  0.3819  0.0587
  735MOL0     H99173   2.384   4.394   9.136 -0.4952  0.8115  0.0482
  735MOL0     H99174   2.559   4.507   8.923 -1.6515  1.9650  0.9999
  735MOL0     H99175   2.625   4.392   9.028  0.1701  0.7349 -0.8658
  735MOL0     H99176   2.518   4.487   9.299  2.1660 -2.2913 -0.8534
  735MOL0     H99177   2.674   4.786   9.453  0.0193  0.0390  0.8231
  735MOL0     H99178   2.580   4.637   9.478 -1.0803  0.2775 -0.5927
  735MOL0     H99179   2.841   4.584   9.379 -3.4708 -2.3623 -2.0384
  735MOL0     H99180   2.758   4.499   9.508  0.6531 -1.2988 -3.0914
  735MOL0     H99181   2.918   4.747   9.530 -2.2171  0.2209 -0.3618
  735MOL0     H99182   2.989   4.585   9.558  0.4320 -0.7453  1.4109
  735MOL0     H99183   2.769   4.732   9.707 -0.9214 -1.8875 -0.1808
  735MOL0     H99184   2.931   4.769   9.741  4.0211 -2.5808  0.8619
  735MOL0     H99185   3.034   4.594  10.028  0.7921  1.8390 -0.2292
  735MOL0     H99186   3.115   4.842  10.241  0.3339 -0.4606  1.7624
  735MOL0     H99187   3.052   4.714  10.343 -3.6567  0.2109 -0.5280
  735MOL0     H99188   3.131   4.666  10.193  0.1527 -1.1286  0.8243
  735MOL0     H99189   2.708   5.189  10.382 -0.9289  0.6018 -0.1829
  735MOL0     H99190   2.709   5.288  10.597 -3.1314  1.8414  1.7827
  735MOL0     H99191   2.768   5.306  10.810  0.1030 -0.4515  0.4054
  735MOL0     H99192   2.703   5.280  10.969 -2.6643  0.6048 -0.6312
  735MOL0     H99193   2.838   5.120  11.019  0.4522  0.2111  1.0429
  735MOL0     H99194   2.852   5.042  10.859  0.3674  1.1735 -0.4225
  735MOL0     H99195   3.059   5.131  10.984 -1.2643 -1.0339  0.0112
  735MOL0     H99196   3.001   5.295  10.974  2.6516 -1.4929 -0.5612
  735MOL0     H99197   2.987   5.264  10.722 -1.4183  0.3781  0.7118
  735MOL0     H99198   3.139   5.307  10.791 -0.0711 -0.7879  0.0702
  735MOL0     H99199   3.060   5.046  10.689 -0.1586 -1.8412  3.3727
  735MOL0     H99200   3.185   5.043  10.808 -2.1431 -0.5778  1.0635
  735MOL0     H99201   3.223   5.245  10.579 -0.8707 -0.3515  0.8800
  735MOL0     H99202   3.335   5.150  10.674 -0.9673 -3.4412  1.2447
  735MOL0     H99203   3.154   5.061  10.459 -3.1140  0.3290  3.7151
  735MOL0     H99204   3.247   4.945  10.554  0.2572  0.6433 -1.5582
  735MOL0     H99205   3.465   5.054  10.498 -0.8529  3.2274  1.6152
  735MOL0     H99206   3.381   5.169  10.387 -0.0824  0.3441  1.2993
  735MOL0     H99207   2.558   4.910  10.778 -2.8630  0.6242 -0.2583
  735MOL0     H99208   2.593   4.810  10.552 -2.4228 -0.0096 -0.9572
  735MOL0     H99209   2.605   4.829  10.098 -0.4401  0.6023 -4.5131
  735MOL0     H99210   2.647   4.706   9.889 -0.3955  0.1387 -0.1315
  735MOL0     H99211   2.189   3.558   9.391  0.2808  0.1726  1.0607
  735MOL0     H99212   2.339   3.382   9.393  0.3242 -0.1144 -0.1816
  735MOL0     H99213   2.929   3.326   9.185  1.1684  0.3460  0.1653
  735MOL0     H99214   3.121   3.179   9.239 -0.6619  0.3218 -0.8533
  735MOL0     H99215   3.265   2.890   9.453 -0.7386 -0.1054 -1.0565
  735MOL0     H99216   3.242   2.998   9.318 -1.3540  1.2429  0.0070
  735MOL0     H99217   3.314   3.124   9.572  1.3952 -2.0794 -0.3065
  735MOL0     H99218   3.361   3.174   9.403 -1.3883  0.0560 -1.6196
  735MOL0     H99219   3.548   3.032   9.409  1.7685 -0.6267  1.0596
  735MOL0     H99220   3.479   2.921   9.524 -2.7123 -0.9868 -0.7404
  735MOL0     H99221   3.652   3.062   9.609  1.2098  3.4720 -0.7893
  735MOL0     H99222   3.515   3.099   9.699  2.6195  3.1615  1.0099
  735MOL0     H99223   3.607   3.472   9.514 -1.5051 -0.5226 -3.5588
  735MOL0     H99224   2.873   3.047   9.575 -2.3894  0.7731 -1.0362
  735MOL0     H99225   2.712   3.192   9.523 -0.6555  1.5457 -1.5530
  736MOL0     O99226  11.128   8.495   7.898  0.0390 -0.1350  0.6301
  736MOL0     C99227  11.122   8.589   7.980  0.2491  0.0158 -1.1684
  736MOL0     O99228  11.223   8.661   8.036  0.3205  0.4010 -0.1991
  736MOL0     C99229  11.353   8.641   8.007  0.3134 -0.4482 -0.6034
  736MOL0     C99230  11.439   8.751   8.041 -0.5028  0.5066  0.1201
  736MOL0     C99231  11.575   8.743   8.017 -0.0278  0.5021  0.3789
  736MOL0     C99232  11.635   8.631   7.955 -0.4555  0.2469  0.0984
  736MOL0     O99233  11.770   8.617   7.927 -0.1873 -0.1590 -0.1102
  736MOL0     C99234  11.851   8.635   8.037 -0.2439  0.3055 -0.4775
  736MOL0     C99235  11.826   8.543   8.162 -0.3433 -0.2051 -0.1364
  736MOL0     C99236  11.941   8.530   8.260  0.4006  0.5073  0.2325
  736MOL0     C99237  12.003   8.669   8.317  0.6614 -0.3803 -0.5147
  736MOL0     C99238  12.124   8.630   8.410 -0.5442  0.4733  0.7863
  736MOL0     C99239  12.206   8.758   8.423  1.3101  0.1396 -0.1629
  736MOL0     C99240  12.302   8.743   8.547  0.0297 -0.3975 -0.2701
  736MOL0     C99241  12.349   8.882   8.589  0.9005 -0.0165  0.6801
  736MOL0     N99242  12.458   8.936   8.504  0.1368  0.4137 -0.1791
  736MOL0     C99243  12.440   8.985   8.374  0.7227 -0.8347 -0.9619
  736MOL0     C99244  12.561   9.031   8.337 -0.3354 -0.4479  0.3187
  736MOL0     C99245  12.602   9.090   8.206  0.2488 -0.5295 -0.4342
  736MOL0     C99246  12.571   9.237   8.187 -0.8690  0.0330  0.0430
  736MOL0     C99247  12.602   9.313   8.309  0.4920 -0.9465  0.0352
  736MOL0     C99248  12.568   9.464   8.282  0.6506  0.6739  0.2535
  736MOL0     O99249  12.579   9.537   8.400 -0.1938  0.1441 -0.2039
  736MOL0     C99250  12.588   9.673   8.407 -0.0153  0.5656  0.1010
  736MOL0     C99251  12.549   9.760   8.298 -0.4872  0.7422  0.3176
  736MOL0     C99252  12.566   9.898   8.312  0.2007  0.1490 -0.8063
  736MOL0     C99253  12.534   9.986   8.203 -0.1019  0.1204 -0.0776
  736MOL0     C99254  12.600   9.946   8.436 -0.7257  0.8103 -0.5763
  736MOL0     C99255  12.610  10.093   8.480 -0.8005  0.1059 -1.1558
  736MOL0     O99256  12.607  10.196   8.384 -0.1191 -0.2272  0.0316
  736MOL0     C99257  12.638  10.321   8.425  0.6917  0.4610 -0.6617
  736MOL0     C99258  12.773  10.363   8.448 -0.2368  0.3587 -0.2019
  736MOL0     C99259  12.801  10.484   8.492  0.6871 -1.1629  0.3065
  736MOL0     C99260  12.706  10.575   8.523  0.1638  0.6637 -1.1439
  736MOL0     O99261  12.722  10.696   8.583 -0.6898 -0.7067 -0.4907
  736MOL0     C99262  12.832  10.774   8.549 -0.5389  0.4079 -0.6138
  736MOL0     C99263  12.802  10.919   8.583  0.4903  0.1606 -0.6472
  736MOL0     C99264  12.881  11.016   8.490 -0.0929 -0.6716  0.2333
  736MOL0     C99265  12.900  11.154   8.550  0.6379 -0.0728  0.6484
  736MOL0     C99266  12.937  11.262   8.445 -0.6864  0.8370  0.5484
  736MOL0     C99267  13.085  11.241   8.410 -0.2440  0.6002 -0.4721
  736MOL0     C99268  13.137  11.371   8.320  0.2636  0.0536 -0.5319
  736MOL0     C99269  13.286  11.395   8.306 -0.1975 -0.1037 -0.3600
  736MOL0    Cl99270  13.317  11.570   8.301  0.2502 -0.6055  0.8687
  736MOL0     C99271  12.570  10.539   8.507 -0.6405 -0.2695 -0.0060
  736MOL0     C99272  12.538  10.409   8.457  0.8012 -0.3905 -0.5591
  736MOL0     O99273  12.612  10.110   8.601  0.2803 -0.0209  0.2924
  736MOL0     C99274  12.648   9.857   8.536 -0.8907  0.5512  0.4451
  736MOL0     C99275  12.642   9.727   8.518  0.4363 -0.8640 -0.1287
  736MOL0     N99276  12.646   9.018   8.446 -0.0469  0.0065 -0.2405
  736MOL0     N99277  12.586   8.959   8.541 -0.0393 -1.0257 -0.5384
  736MOL0     C99278  11.546   8.531   7.913  0.3157  0.3027 -0.0632
  736MOL0     C99279  11.413   8.528   7.944  0.7645  0.1535  0.8181
  736MOL0     C99280  10.991   8.633   8.035 -0.5710  0.1936  0.4175
  736MOL0     C99281  10.875   8.552   8.021  0.1741 -0.3357 -0.1258
  736MOL0     C99282  10.746   8.599   8.064  0.1312  0.5376  0.4384
  736MOL0     C99283  10.745   8.723   8.130  0.5577 -0.0767 -0.2595
  736MOL0     O99284  10.632   8.771   8.205 -0.3772  0.1348  0.2258
  736MOL0     C99285  10.569   8.670   8.285 -0.4704  0.2539 -1.0745
  736MOL0     C99286  10.665   8.603   8.391 -0.2521  0.1219 -0.6086
  736MOL0     C99287  10.682   8.693   8.518 -0.3374  0.6182 -0.3475
  736MOL0     C99288  10.744   8.618   8.644  0.6992 -1.6133 -0.2852
  736MOL0     C99289  10.641   8.562   8.735 -0.8994 -0.4275 -0.9414
  736MOL0     C99290  10.567   8.503   8.816 -0.4453 -0.3500  0.1571
  736MOL0     C99291  10.856   8.806   8.126  0.6296 -0.0103  0.1817
  736MOL0     C99292  10.974   8.760   8.086 -0.1798 -0.5465 -0.3673
  736MOL0     H99293  11.405   8.845   8.084  1.8019  3.4872 -3.9025
  736MOL0     H99294  11.644   8.817   8.055  0.3227  0.2345  0.2790
  736MOL0     H99295  11.958   8.629   8.013 -0.2413 -1.8983 -0.1060
  736MOL0     H99296  11.839   8.738   8.070 -3.0346 -0.2783  0.5957
  736MOL0     H99297  11.741   8.576   8.224  2.8438  2.1949  3.4767
  736MOL0     H99298  11.801   8.443   8.126 -3.0818 -0.2314  1.5432
  736MOL0     H99299  11.914   8.480   8.354  1.6553  2.0532  1.4641
  736MOL0     H99300  12.019   8.474   8.207  1.1281  2.7074 -1.1529
  736MOL0     H99301  12.027   8.727   8.228 -0.2168  2.6257  1.0596
  736MOL0     H99302  11.927   8.725   8.373  0.4871 -0.7984 -0.3285
  736MOL0     H99303  12.078   8.594   8.502 -2.4304  1.8198  0.4296
  736MOL0     H99304  12.190   8.562   8.356  0.2167  0.5030  1.6502
  736MOL0     H99305  12.268   8.776   8.335  1.3847 -2.8048 -0.8015
  736MOL0     H99306  12.148   8.849   8.438  1.8688  0.0442  3.5719
  736MOL0     H99307  12.231   8.707   8.621 -2.6636  1.3261 -1.8631
  736MOL0     H99308  12.383   8.670   8.539 -2.8282 -4.1608  1.8715
  736MOL0     H99309  12.390   8.890   8.690 -0.0451  0.3284  1.0509
  736MOL0     H99310  12.267   8.953   8.576  2.1527  1.4250  0.2939
  736MOL0     H99311  12.352   8.995   8.313 -0.2842  0.1936  0.5770
  736MOL0     H99312  12.711   9.080   8.202  0.0230 -4.0612 -1.2574
  736MOL0     H99313  12.568   9.033   8.119  0.4384  0.0483 -0.8966
  736MOL0     H99314  12.466   9.242   8.158 -0.0834 -0.4802 -3.4126
  736MOL0     H99315  12.618   9.286   8.101 -2.5046  1.7579  0.0585
  736MOL0     H99316  12.702   9.331   8.350 -0.0762  4.6256 -0.2470
  736MOL0     H99317  12.529   9.287   8.386  0.8820  1.9842  1.5393
  736MOL0     H99318  12.468   9.472   8.238  1.0920  3.3723 -0.4395
  736MOL0     H99319  12.640   9.502   8.208  0.0491 -0.6080 -1.0551
  736MOL0     H99320  12.513   9.715   8.206  0.8141  0.2492  0.0331
  736MOL0     H99321  12.478   9.934   8.125 -0.5929 -1.0784  1.0392
  736MOL0     H99322  12.465  10.061   8.241 -0.1643  0.3337 -0.5988
  736MOL0     H99323  12.632  10.024   8.171  0.9368  0.0609  2.7321
  736MOL0     H99324  12.863  10.304   8.432  1.6463  2.2570  2.5741
  736MOL0     H99325  12.902  10.523   8.496 -1.0785  4.1648  0.7169
  736MOL0     H99326  12.927  10.740   8.590 -1.9062  1.1855  3.7378
  736MOL0     H99327  12.841  10.770   8.440 -1.2377  0.9123 -0.7011
  736MOL0     H99328  12.696  10.946   8.581  0.4505  0.0420 -0.2793
  736MOL0     H99329  12.827  10.932   8.689  0.0772 -0.2267 -0.4986
  736MOL0     H99330  12.837  11.012   8.389 -0.1644  0.5846  0.1991
  736MOL0     H99331  12.979  10.970   8.474  0.0989  0.1413 -1.0917
  736MOL0     H99332  12.801  11.191   8.579  0.8465  1.5780 -0.6220
  736MOL0     H99333  12.981  11.151   8.624  0.8885 -0.7126  0.3614
  736MOL0     H99334  12.943  11.360   8.494  1.1644  1.7476 -1.2905
  736MOL0     H99335  12.883  11.257   8.350  2.7097 -1.9445 -1.4929
  736MOL0     H99336  13.149  11.236   8.499 -0.6107  2.7197 -0.0275
  736MOL0     H99337  13.109  11.150   8.355 -1.6121  0.2914 -0.5964
  736MOL0     H99338  13.099  11.466   8.358  0.2250  1.7830 -4.4730
  736MOL0     H99339  13.085  11.364   8.224 -3.5030  1.3442  1.1984
  736MOL0     H99340  13.325  11.340   8.221 -3.0275 -1.5483 -0.8392
  736MOL0     H99341  13.327  11.366   8.403 -0.5848  0.2244 -0.0900
  736MOL0     H99342  12.485  10.605   8.521 -0.0996  0.6770 -1.0396
  736MOL0     H99343  12.437  10.375   8.438  0.4372  0.2481  0.1912
  736MOL0     H99344  12.701   9.893   8.624  3.2479  0.0334 -1.5809
  736MOL0     H99345  12.682   9.663   8.597 -0.5838  0.2500  1.3385
  736MOL0     H99346  11.582   8.448   7.853  0.7438 -1.6311  2.6870
  736MOL0     H99347  11.352   8.445   7.909 -1.3307  1.5778  0.9248
  736MOL0     H99348  10.885   8.451   7.982 -0.7379  0.2732 -2.0561
  736MOL0     H99349  10.663   8.532   8.047  0.0502  0.5040  0.9364
  736MOL0     H99350  10.478   8.710   8.331 -1.1525 -0.6365 -1.6181
  736MOL0     H99351  10.539   8.584   8.224 -0.8870  1.5195 -2.7311
  736MOL0     H99352  10.767   8.586   8.353  0.4881  0.0981  1.2764
  736MOL0     H99353  10.635   8.504   8.426  2.8730 -0.4117  0.9692
  736MOL0     H99354  10.591   8.750   8.537  0.2849  1.4710  0.1568
  736MOL0     H99355  10.758   8.766   8.491 -0.3558  0.0630 -2.0311
  736MOL0     H99356  10.813   8.684   8.697 -2.4623  2.1481 -0.4034
  736MOL0     H99357  10.803   8.535   8.603 -0.2716 -2.2826 -0.3663
  736MOL0     H99358  10.509   8.441   8.883  1.4334 -1.9635  0.3626
  736MOL0     H99359  10.844   8.902   8.175 -1.4484 -1.5961  3.0668
  736MOL0     H99360  11.057   8.828   8.103 -0.9510 -0.0098  1.5141
  737MOL0     O99361   5.393  10.872  11.440 -0.0929  0.2787  1.1813
  737MOL0     C99362   5.408  10.913  11.547  0.1670  0.1777  1.2239
  737MOL0     O99363   5.312  10.913  11.645 -0.3319 -0.2481 -0.2674
  737MOL0     C99364   5.188  10.861  11.620 -0.1849 -0.4238  0.3913
  737MOL0     C99365   5.082  10.937  11.662  1.2324 -0.3694  0.2973
  737MOL0     C99366   4.952  10.900  11.646 -0.3378  1.0341  0.2784
  737MOL0     C99367   4.921  10.779  11.590  0.9219  0.3467 -0.0583
  737MOL0     O99368   4.789  10.767  11.614 -0.3549 -0.7460 -0.3855
  737MOL0     C99369   4.737  10.637  11.594 -0.8327  0.3095  0.1924
  737MOL0     C99370   4.599  10.629  11.669 -0.7291  0.4469 -0.0851
  737MOL0     C99371   4.508  10.714  11.574 -0.3277  0.1936  0.5106
  737MOL0     C99372   4.481  10.647  11.440  0.0944  0.6667  0.5137
  737MOL0     C99373   4.355  10.690  11.367 -0.0802  0.3566 -0.5284
  737MOL0     C99374   4.396  10.816  11.291  1.2459 -0.1914 -0.7659
  737MOL0     C99375   4.269  10.887  11.226 -0.1170  0.7102  0.5006
  737MOL0     C99376   4.298  11.036  11.202  0.5163  0.9443 -0.8378
  737MOL0     N99377   4.188  11.107  11.140 -0.9092 -0.2510  1.1230
  737MOL0     C99378   4.155  11.099  11.009  0.6752  1.2948  0.1567
  737MOL0     C99379   4.044  11.168  10.986  0.1187  0.2003 -0.4162
  737MOL0     C99380   3.972  11.184  10.856 -0.0221  0.3904  0.5207
  737MOL0     C99381   3.822  11.131  10.864 -0.4294 -0.0696 -0.4725
  737MOL0     C99382   3.740  11.145  10.737  0.1619  0.2673 -1.2302
  737MOL0     C99383   3.604  11.078  10.739 -0.2132 -0.4836  1.1059
  737MOL0     O99384   3.502  11.114  10.631 -0.2078  0.6431  1.0901
  737MOL0     C99385   3.439  11.230  10.661  0.1924 -0.8410  0.2143
  737MOL0     C99386   3.461  11.329  10.562 -0.4519 -0.2570  0.3192
  737MOL0     C99387   3.404  11.458  10.578 -0.6369  0.2723 -0.2376
  737MOL0     C99388   3.438  11.562  10.475 -0.1551 -0.2107  0.0262
  737MOL0     C99389   3.316  11.489  10.678 -0.0756  0.7899 -0.3980
  737MOL0     C99390   3.246  11.618  10.697  0.1150  0.2643  0.0699
  737MOL0     O99391   3.139  11.620  10.781  0.4653 -0.2860 -0.0058
  737MOL0     C99392   3.070  11.730  10.828 -0.2970  0.1726 -0.0134
  737MOL0     C99393   2.978  11.715  10.931  0.0742  0.9212 -0.3346
  737MOL0     C99394   2.895  11.816  10.981 -0.3528 -0.0334 -0.9663
  737MOL0     C99395   2.922  11.949  10.943 -0.1159 -0.1043 -0.0250
  737MOL0     O99396   2.856  12.058  10.989 -0.3410 -0.1459 -0.8609
  737MOL0     C99397   2.751  12.051  11.083 -0.2817 -0.1495  0.0824
  737MOL0     C99398   2.755  12.168  11.168  1.1359 -0.2983 -0.2256
  737MOL0     C99399   2.671  12.290  11.112 -0.6717  0.3023 -0.0172
  737MOL0     C99400   2.524  12.298  11.147  0.0890  0.1824  0.2891
  737MOL0     C99401   2.444  12.412  11.091 -0.1669  0.1275 -0.8381
  737MOL0     C99402   2.294  12.401  11.125 -0.5978 -0.8955 -0.3853
  737MOL0     C99403   2.265  12.431  11.278 -0.7537 -0.0945  1.0255
  737MOL0     C99404   2.121  12.415  11.320 -0.1646  0.2563  0.1664
  737MOL0    Cl99405   2.108  12.433  11.489  0.3012 -0.4717 -0.5263
  737MOL0     C99406   3.014  11.968  10.840 -0.4027  1.4069  0.4511
  737MOL0     C99407   3.087  11.864  10.783 -0.6472 -0.3086  0.6351
  737MOL0     O99408   3.311  11.718  10.666  0.6045 -0.3955 -0.1984
  737MOL0     C99409   3.285  11.390  10.779 -0.0394  0.4537  0.5272
  737MOL0     C99410   3.347  11.262  10.771 -0.5444  0.1674 -0.3259
  737MOL0     N99411   3.995  11.217  11.105  0.0540  0.3492 -0.2237
  737MOL0     N99412   4.085  11.184  11.195 -0.2107  0.3883 -0.2735
  737MOL0     C99413   5.022  10.701  11.539 -0.4006  0.5538 -0.3288
  737MOL0     C99414   5.154  10.739  11.566  0.2777  0.1651  1.1356
  737MOL0     C99415   5.543  10.957  11.569  0.0681  0.1349  0.2582
  737MOL0     C99416   5.577  11.025  11.687 -0.4127  0.1309 -0.1265
  737MOL0     C99417   5.713  11.061  11.722  0.0998  0.4818  0.6766
  737MOL0     C99418   5.812  11.031  11.633 -0.5650 -0.3716  0.2476
  737MOL0     O99419   5.936  11.059  11.675  0.5732  1.0158  0.0222
  737MOL0     C99420   6.049  11.062  11.589  0.1929  0.1193 -1.4190
  737MOL0     C99421   6.043  11.181  11.497  1.2965 -1.0452  0.0704
  737MOL0     C99422   6.076  11.316  11.556  0.2306 -0.9906  0.0716
  737MOL0     C99423   6.073  11.424  11.442  1.1214  0.1275  0.2504
  737MOL0     C99424   5.942  11.423  11.380 -0.7577  1.7447  1.2397
  737MOL0     C99425   5.830  11.419  11.328  0.6070 -0.4142 -0.6348
  737MOL0     C99426   5.781  10.969  11.513 -0.1365 -0.1966 -0.0354
  737MOL0     C99427   5.656  10.928  11.481  0.4921  0.9921 -0.4697
  737MOL0     H99428   5.116  11.033  11.700  2.6264 -0.5594 -0.3974
  737MOL0     H99429   4.875  10.957  11.698  0.5147  0.9473  1.6655
  737MOL0     H99430   4.731  10.602  11.490  1.9984  0.7614 -0.1893
  737MOL0     H99431   4.811  10.576  11.646  2.5590  0.5491 -3.8533
  737MOL0     H99432   4.556  10.530  11.682  3.9454 -1.4661  4.0494
  737MOL0     H99433   4.600  10.669  11.771  3.2287  1.5229 -0.3580
  737MOL0     H99434   4.413  10.721  11.628 -0.4378  2.5994  0.1105
  737MOL0     H99435   4.555  10.813  11.575  2.9744 -1.2302 -0.7352
  737MOL0     H99436   4.567  10.648  11.372  0.3954 -2.5155  0.7002
  737MOL0     H99437   4.475  10.543  11.471  2.4561  0.3637  0.1372
  737MOL0     H99438   4.320  10.615  11.296  4.0193 -0.7519 -1.6554
  737MOL0     H99439   4.276  10.705  11.441  0.2378  3.6496 -0.7191
  737MOL0     H99440   4.437  10.882  11.369 -1.0816  0.2946  0.1339
  737MOL0     H99441   4.474  10.818  11.214  3.1704  0.4191  1.0789
  737MOL0     H99442   4.257  10.843  11.127  0.3929 -0.8165  1.0851
  737MOL0     H99443   4.177  10.879  11.286 -1.0672 -0.3618 -1.0298
  737MOL0     H99444   4.389  11.036  11.141 -0.1379 -2.4639 -2.0026
  737MOL0     H99445   4.315  11.072  11.304 -0.9553 -0.9452  0.1316
  737MOL0     H99446   4.220  11.069  10.928 -1.1519 -0.8587 -0.5740
  737MOL0     H99447   3.979  11.289  10.825 -0.3828 -0.0190 -1.0759
  737MOL0     H99448   4.022  11.127  10.777 -2.6772 -2.4433  0.6726
  737MOL0     H99449   3.787  11.194  10.947  3.2710  1.4436  0.1480
  737MOL0     H99450   3.824  11.032  10.911  3.2536  0.5820  1.1157
  737MOL0     H99451   3.792  11.107  10.649  1.9609 -2.2155  0.7730
  737MOL0     H99452   3.727  11.250  10.708  1.8209 -0.4778 -5.4000
  737MOL0     H99453   3.567  11.083  10.843 -0.8237  2.4065  0.8563
  737MOL0     H99454   3.624  10.973  10.717 -2.3963 -0.2447 -2.8293
  737MOL0     H99455   3.531  11.295  10.487 -0.6871 -2.5294  1.0626
  737MOL0     H99456   3.509  11.623  10.532 -0.6607  0.0598  0.3794
  737MOL0     H99457   3.488  11.517  10.389  2.0506  1.2338  0.4635
  737MOL0     H99458   3.356  11.624  10.438  0.0810  1.4794  2.1023
  737MOL0     H99459   2.974  11.621  10.986 -0.6659  2.5198  2.5433
  737MOL0     H99460   2.818  11.797  11.055 -0.3175  2.1307 -0.3043
  737MOL0     H99461   2.655  12.048  11.030 -2.6489 -3.9312  3.9297
  737MOL0     H99462   2.753  11.967  11.152 -0.8387 -1.3038 -1.2715
  737MOL0     H99463   2.711  12.145  11.266  1.6079  0.5316  0.1980
  737MOL0     H99464   2.858  12.196  11.193  0.9571 -2.1436  3.1872
  737MOL0     H99465   2.691  12.283  11.004  1.3989 -1.1178  0.4106
  737MOL0     H99466   2.719  12.377  11.158  0.7437 -0.0140 -0.8492
  737MOL0     H99467   2.474  12.208  11.112 -0.2254  1.2081 -2.0741
  737MOL0     H99468   2.518  12.294  11.256 -0.9886  1.5492  0.3065
  737MOL0     H99469   2.443  12.419  10.982 -0.7644 -0.8776 -0.9109
  737MOL0     H99470   2.486  12.507  11.126 -1.1146  0.3537 -0.2990
  737MOL0     H99471   2.232  12.472  11.070 -1.6762 -0.4827  1.2919
  737MOL0     H99472   2.255  12.299  11.116  1.3997 -2.0658  2.6575
  737MOL0     H99473   2.300  12.531  11.301 -3.3386  0.5219  2.6333
  737MOL0     H99474   2.313  12.350  11.334 -0.3226 -1.5277 -1.2431
  737MOL0     H99475   2.077  12.322  11.284  2.5383 -1.3202  0.6792
  737MOL0     H99476   2.068  12.497  11.270 -1.5889 -0.7925 -0.0906
  737MOL0     H99477   3.034  12.068  10.805  4.2720  0.2460 -0.8986
  737MOL0     H99478   3.150  11.889  10.699 -0.5046  0.5526  0.9875
  737MOL0     H99479   3.216  11.422  10.857  0.6884 -0.9830  1.8291
  737MOL0     H99480   3.328  11.192  10.851 -0.6537  0.2857 -0.2484
  737MOL0     H99481   5.001  10.605  11.493 -1.6152 -0.1418  1.6030
  737MOL0     H99482   5.231  10.667  11.540 -1.6429 -1.1821 -1.1368
  737MOL0     H99483   5.499  11.054  11.757  2.1009  0.6187  2.6269
  737MOL0     H99484   5.722  11.109  11.819  2.3756 -2.2283  1.9412
  737MOL0     H99485   6.135  11.075  11.655 -1.3038  2.6231  0.1945
  737MOL0     H99486   6.068  10.970  11.533  1.1277 -1.5946  1.5039
  737MOL0     H99487   5.945  11.181  11.448  0.7152 -2.4415  1.1575
  737MOL0     H99488   6.118  11.170  11.418  2.6099  4.4712  0.1689
  737MOL0     H99489   6.175  11.312  11.605  0.4832 -0.4778 -0.3907
  737MOL0     H99490   6.009  11.343  11.639  1.2479  1.7771  0.1267
  737MOL0     H99491   6.144  11.391  11.366  0.5022 -2.5843  0.7196
  737MOL0     H99492   6.099  11.526  11.471 -0.5941  0.7918 -0.4374
  737MOL0     H99493   5.735  11.406  11.280  0.2240  1.7020 -0.5486
  737MOL0     H99494   5.858  10.937  11.444  0.6213  0.9099  0.2766
  737MOL0     H99495   5.655  10.870  11.390 -0.1996 -1.4764  1.0060
  738MOL0     O99496   2.179  10.659   0.417  0.5414 -0.9888 -0.5846
  738MOL0     C99497   2.149  10.708   0.526 -0.9413 -0.2221 -1.5876
  738MOL0     O99498   2.083  10.829   0.549 -0.1407  0.3872  0.0649
  738MOL0     C99499   2.038  10.900   0.439  0.5995  0.2108 -0.6700
  738MOL0     C99500   1.936  10.846   0.347 -0.9839 -0.2532 -0.1626
  738MOL0     C99501   1.903  10.935   0.234  0.2373  0.5014  0.3865
  738MOL0     C99502   1.942  11.071   0.238 -0.1609 -0.1972  0.2666
  738MOL0     O99503   1.891  11.152   0.141  0.1067  0.3783  0.8079
  738MOL0     C99504   1.977  11.155   0.030 -0.1226 -0.0616  0.3451
  738MOL0     C99505   1.890  11.180  -0.095  0.1533  0.5898 -0.4640
  738MOL0     C99506   1.824  11.322  -0.093 -0.4075  0.8606  0.0298
  738MOL0     C99507   1.795  11.362  -0.236 -0.4618  0.5229  0.4909
  738MOL0     C99508   1.748  11.506  -0.258 -0.0537  0.3097  0.8397
  738MOL0     C99509   1.850  11.614  -0.223  0.2611  0.2489 -0.8006
  738MOL0     C99510   1.772  11.755  -0.236 -0.5692 -0.3922  0.0862
  738MOL0     C99511   1.861  11.869  -0.166 -0.3763 -0.2949  0.0256
  738MOL0     N99512   1.987  11.892  -0.255  0.0371  0.3787 -0.2172
  738MOL0     C99513   1.995  11.899  -0.391  0.2620  0.8367 -0.0054
  738MOL0     C99514   2.125  11.919  -0.416  0.0158  0.9186  0.0096
  738MOL0     C99515   2.170  11.918  -0.564  0.9075  0.3608 -1.2493
  738MOL0     C99516   2.317  11.966  -0.595 -0.1065  0.1087  0.9974
  738MOL0     C99517   2.419  11.854  -0.554  0.0686 -0.3451 -0.0947
  738MOL0     C99518   2.424  11.737  -0.658 -0.2471 -0.2749  0.5350
  738MOL0     O99519   2.343  11.627  -0.613 -0.9154 -0.2304  0.1837
  738MOL0     C99520   2.349  11.506  -0.671  0.1888  0.8079 -0.3788
  738MOL0     C99521   2.296  11.397  -0.601 -0.5539  0.1466 -0.2433
  738MOL0     C99522   2.290  11.268  -0.657  0.4178 -0.5204  0.2541
  738MOL0     C99523   2.212  11.162  -0.579 -0.0669  0.3366  0.0115
  738MOL0     C99524   2.351  11.247  -0.788 -0.0285 -0.7165  0.3745
  738MOL0     C99525   2.379  11.115  -0.839 -0.7277  0.7965  0.3098
  738MOL0     O99526   2.407  11.108  -0.971  0.0775  0.5931  0.5590
  738MOL0     C99527   2.452  11.000  -1.037 -0.4670  0.1073 -0.0470
  738MOL0     C99528   2.373  10.883  -1.048 -0.4027 -0.5123  0.3238
  738MOL0     C99529   2.425  10.765  -1.115 -0.7760 -0.4032 -0.8260
  738MOL0     C99530   2.554  10.771  -1.160 -0.3349  0.1520 -0.4831
  738MOL0     O99531   2.610  10.670  -1.233 -0.8475 -0.2327  0.1352
  738MOL0     C99532   2.522  10.570  -1.280 -0.3174  0.7122 -0.6471
  738MOL0     C99533   2.598  10.467  -1.359 -0.5443  0.6285  0.0497
  738MOL0     C99534   2.688  10.368  -1.283 -0.2650  0.2524 -0.0832
  738MOL0     C99535   2.772  10.288  -1.375 -0.3228  0.8026 -0.0443
  738MOL0     C99536   2.854  10.189  -1.304 -0.0149  0.5646  0.0875
  738MOL0     C99537   2.925  10.108  -1.404  0.1646  0.3142 -0.5754
  738MOL0     C99538   3.025  10.015  -1.334  0.0700 -0.5070  0.2879
  738MOL0     C99539   3.149  10.081  -1.277  0.0829  0.6967 -0.9042
  738MOL0    Cl99540   3.241  10.172  -1.417 -0.3689  0.1574  0.1154
  738MOL0     C99541   2.622  10.891  -1.149 -0.4917 -0.7712  0.0016
  738MOL0     C99542   2.576  11.011  -1.093  0.6373 -0.8720 -0.5157
  738MOL0     O99543   2.377  11.013  -0.770 -0.3850  0.5466  0.1889
  738MOL0     C99544   2.400  11.361  -0.865  0.5642  1.0329  0.5848
  738MOL0     C99545   2.409  11.488  -0.801  0.2625  0.3363  0.2270
  738MOL0     N99546   2.189  11.937  -0.302 -0.9721  0.5028  0.6243
  738MOL0     N99547   2.107  11.928  -0.205 -0.9386 -0.6359  0.5456
  738MOL0     C99548   2.028  11.123   0.337 -0.3023  0.3768  0.0311
  738MOL0     C99549   2.065  11.035   0.441  0.7882 -0.7907  0.5382
  738MOL0     C99550   2.179  10.626   0.646 -1.1896 -0.1241 -0.7659
  738MOL0     C99551   2.147  10.669   0.782  0.0016 -0.1830  1.0634
  738MOL0     C99552   2.177  10.594   0.892  0.1054 -0.5867  0.0595
  738MOL0     C99553   2.239  10.473   0.874  0.2907  0.4102 -0.7838
  738MOL0     O99554   2.267  10.384   0.980  0.0978 -0.0163  0.3990
  738MOL0     C99555   2.286  10.427   1.114  0.3580 -0.5856  0.6520
  738MOL0     C99556   2.403  10.356   1.193 -0.6345  0.0755  0.2595
  738MOL0     C99557   2.381  10.211   1.205  0.0170  0.3610  0.1737
  738MOL0     C99558   2.467  10.127   1.313  0.5814 -0.5270  0.1863
  738MOL0     C99559   2.424   9.991   1.322 -0.1247  0.2924  1.0010
  738MOL0     C99560   2.406   9.871   1.359 -0.8493 -0.2410  0.6031
  738MOL0     C99561   2.240  10.414   0.746  0.3380 -0.0472 -0.2414
  738MOL0     C99562   2.239  10.501   0.633  0.1938  0.0914 -0.1804
  738MOL0     H99563   1.908  10.741   0.356  3.1403 -1.3964  1.9132
  738MOL0     H99564   1.843  10.889   0.156 -0.0710 -2.1190  2.0377
  738MOL0     H99565   2.048  11.237   0.047  1.5694 -1.5006  0.6007
  738MOL0     H99566   2.040  11.066   0.016  1.6620  1.2632 -0.4996
  738MOL0     H99567   1.954  11.172  -0.183 -0.6916 -1.8642 -0.9415
  738MOL0     H99568   1.829  11.090  -0.083  1.0216  0.1967  1.3865
  738MOL0     H99569   1.739  11.310  -0.026 -3.2164  1.0060 -3.2028
  738MOL0     H99570   1.894  11.393  -0.048 -0.2604  1.6558 -1.3955
  738MOL0     H99571   1.877  11.344  -0.307 -1.0867 -0.2520 -0.0416
  738MOL0     H99572   1.714  11.299  -0.272 -0.8693  0.4935  1.4523
  738MOL0     H99573   1.755  11.503  -0.368  3.1279 -0.8234  0.9729
  738MOL0     H99574   1.648  11.534  -0.226 -0.6635  1.5629 -1.8613
  738MOL0     H99575   1.884  11.594  -0.120  1.1249 -0.7190 -1.2566
  738MOL0     H99576   1.934  11.606  -0.292  2.3703 -0.6013  1.6594
  738MOL0     H99577   1.773  11.781  -0.342  0.3155  0.2460  0.2406
  738MOL0     H99578   1.669  11.753  -0.200 -1.1222  1.5982 -1.1910
  738MOL0     H99579   1.883  11.827  -0.067 -0.5365 -1.7742 -0.5409
  738MOL0     H99580   1.804  11.962  -0.163 -1.5883 -0.9968  3.3841
  738MOL0     H99581   1.918  11.870  -0.461  2.6172 -1.9416 -1.6910
  738MOL0     H99582   2.141  11.822  -0.607 -1.1226 -1.8946  4.2030
  738MOL0     H99583   2.111  11.988  -0.624  2.1069  3.2384  0.6683
  738MOL0     H99584   2.357  12.059  -0.556  3.4895 -0.9453  0.1393
  738MOL0     H99585   2.324  11.972  -0.704 -2.2198  0.1921  0.8142
  738MOL0     H99586   2.398  11.822  -0.451  0.3121  0.6285  0.2727
  738MOL0     H99587   2.519  11.897  -0.545  0.1394 -0.8406  2.1558
  738MOL0     H99588   2.531  11.723  -0.672 -0.1554  1.2287 -0.5367
  738MOL0     H99589   2.382  11.767  -0.754  0.6234  0.5795  0.4098
  738MOL0     H99590   2.248  11.411  -0.504 -2.7355 -2.0612 -0.8975
  738MOL0     H99591   2.171  11.102  -0.660  0.9743  1.5814 -1.4976
  738MOL0     H99592   2.275  11.092  -0.524  0.0388 -1.0364 -1.7791
  738MOL0     H99593   2.131  11.206  -0.520 -2.2850  0.0181 -2.6068
  738MOL0     H99594   2.269  10.895  -1.020 -0.4473  0.0657 -0.0879
  738MOL0     H99595   2.355  10.682  -1.129 -1.0474 -0.8152  2.2074
  738MOL0     H99596   2.476  10.512  -1.199  0.3442  3.0248  1.4967
  738MOL0     H99597   2.438  10.619  -1.332  0.3946  1.0424 -1.5118
  738MOL0     H99598   2.532  10.410  -1.425 -0.3696  0.0452  0.3698
  738MOL0     H99599   2.668  10.514  -1.429  2.7869 -1.4534  1.6828
  738MOL0     H99600   2.620  10.318  -1.214 -1.0836  1.0314 -0.3070
  738MOL0     H99601   2.755  10.430  -1.222  2.2140  0.4651 -2.8235
  738MOL0     H99602   2.703  10.236  -1.442  0.7269  0.2684 -0.7486
  738MOL0     H99603   2.835  10.349  -1.441 -0.7397  1.8928  0.5405
  738MOL0     H99604   2.777  10.137  -1.245  3.1530 -1.9327  2.3981
  738MOL0     H99605   2.924  10.239  -1.236 -0.9064 -0.7611  2.0914
  738MOL0     H99606   2.864  10.036  -1.460 -0.5268  0.5258 -0.1115
  738MOL0     H99607   2.968  10.174  -1.480  0.0385  3.8694  2.2095
  738MOL0     H99608   3.067   9.936  -1.396 -1.9281 -0.9963 -0.4863
  738MOL0     H99609   2.975   9.965  -1.250 -1.6258  0.4973 -0.0965
  738MOL0     H99610   3.205   9.996  -1.237 -3.3146 -1.8346 -1.1285
  738MOL0     H99611   3.129  10.142  -1.189  0.4126  0.4300 -0.6379
  738MOL0     H99612   2.715  10.888  -1.205 -0.1545 -0.7568  0.5542
  738MOL0     H99613   2.626  11.108  -1.091 -1.3588  0.2682 -1.8934
  738MOL0     H99614   2.443  11.357  -0.965  0.3570 -2.6149  0.5123
  738MOL0     H99615   2.463  11.565  -0.855 -0.1542  0.0204 -0.6534
  738MOL0     H99616   2.032  11.231   0.349 -1.2946  0.4178  0.1100
  738MOL0     H99617   2.110  11.066   0.535  0.8000  0.0337  0.2631
  738MOL0     H99618   2.110  10.769   0.803  0.7528 -0.1368  2.2379
  738MOL0     H99619   2.171  10.645   0.988  0.7104 -1.7156  0.7151
  738MOL0     H99620   2.310  10.534   1.119  0.2628 -0.5980  1.9455
  738MOL0     H99621   2.194  10.425   1.173 -0.0423 -0.6344  0.0347
  738MOL0     H99622   2.424  10.392   1.294  1.9186  1.6251 -0.7286
  738MOL0     H99623   2.492  10.371   1.132 -1.3566  0.8304 -0.6487
  738MOL0     H99624   2.416  10.169   1.110 -1.9034  0.4602 -0.6165
  738MOL0     H99625   2.272  10.201   1.214 -0.1215 -0.8844 -2.1932
  738MOL0     H99626   2.449  10.190   1.401 -0.5254  2.2417 -1.8604
  738MOL0     H99627   2.572  10.134   1.285  0.5525  2.5176  0.5325
  738MOL0     H99628   2.400   9.767   1.385  2.5055 -0.6868  0.0918
  738MOL0     H99629   2.277  10.312   0.737  3.8240  1.0308  0.3233
  738MOL0     H99630   2.262  10.457   0.536  0.0261 -0.5325  0.0587
  739MOL0     O99631  10.898   9.658   7.610  0.0722 -0.3432  0.0348
  739MOL0     C99632  10.800   9.655   7.678 -0.4844 -0.0089  0.1151
  739MOL0     O99633  10.793   9.633   7.813 -0.9494 -0.8062  0.1784
  739MOL0     C99634  10.888   9.623   7.912 -1.1144 -0.4283  1.0839
  739MOL0     C99635  11.026   9.638   7.909  0.5278 -0.5031 -0.1343
  739MOL0     C99636  11.105   9.630   8.017  0.0929  0.3038 -0.0184
  739MOL0     C99637  11.041   9.590   8.137 -0.3475 -0.2026  0.2470
  739MOL0     O99638  11.114   9.581   8.249  0.0836  0.0051 -0.1019
  739MOL0     C99639  11.253   9.549   8.254  0.1045 -0.5471 -0.9472
  739MOL0     C99640  11.284   9.482   8.389 -0.1733  0.1090  0.0508
  739MOL0     C99641  11.290   9.581   8.505 -0.4345  0.3725  0.7903
  739MOL0     C99642  11.436   9.595   8.555 -0.1768 -0.0445 -0.2584
  739MOL0     C99643  11.457   9.651   8.697 -0.4077  0.0314 -0.8029
  739MOL0     C99644  11.606   9.686   8.713 -0.2047  0.1560 -0.1730
  739MOL0     C99645  11.634   9.731   8.865  0.6586 -0.4129  0.7019
  739MOL0     C99646  11.640   9.615   8.957 -0.0751  0.8178  0.5076
  739MOL0     N99647  11.593   9.676   9.080 -0.1467 -0.5343 -0.2988
  739MOL0     C99648  11.460   9.677   9.128 -0.5761 -0.8615  0.9898
  739MOL0     C99649  11.467   9.685   9.264  0.1004  0.3728 -0.1035
  739MOL0     C99650  11.356   9.693   9.365 -1.0529 -0.6167 -1.3990
  739MOL0     C99651  11.389   9.802   9.464  1.0656  0.5836 -0.6973
  739MOL0     C99652  11.259   9.842   9.546 -0.3950  0.5252  0.4457
  739MOL0     C99653  11.214   9.735   9.647 -1.1500  0.2987 -0.2471
  739MOL0     O99654  11.138   9.800   9.742  0.2286 -0.7210 -0.5775
  739MOL0     C99655  11.198   9.842   9.850  0.4918 -0.2189 -1.3274
  739MOL0     C99656  11.328   9.880   9.871  0.3257 -0.8010  0.0123
  739MOL0     C99657  11.379   9.908   9.999 -0.3502  0.5474 -0.4443
  739MOL0     C99658  11.525   9.931  10.009  0.2680 -0.8199  0.6560
  739MOL0     C99659  11.285   9.905  10.104 -0.7768  0.1177 -0.8246
  739MOL0     C99660  11.327   9.925  10.250 -0.1911 -0.0772 -0.4195
  739MOL0     O99661  11.235   9.975  10.330  0.0494 -0.6572  0.4777
  739MOL0     C99662  11.255   9.982  10.466  0.2535 -0.0603 -0.0630
  739MOL0     C99663  11.370  10.042  10.517 -0.1417 -0.2544  0.0497
  739MOL0     C99664  11.390  10.056  10.655  0.7290 -0.4556 -0.2295
  739MOL0     C99665  11.288  10.013  10.741 -0.4907  0.0068  0.2585
  739MOL0     O99666  11.325  10.022  10.876  0.3063  0.5970  0.4211
  739MOL0     C99667  11.243  10.096  10.962  0.1178  0.2391 -0.2258
  739MOL0     C99668  11.242  10.004  11.090  0.8000  0.3370 -0.4824
  739MOL0     C99669  11.177  10.064  11.212  0.4985 -0.0763 -0.7914
  739MOL0     C99670  11.093   9.960  11.301  0.0579  0.3420 -0.5444
  739MOL0     C99671  11.016  10.026  11.414 -0.0764  0.2917 -0.1867
  739MOL0     C99672  11.002   9.941  11.542  0.1029  0.2769 -0.2966
  739MOL0     C99673  10.948  10.026  11.660  0.1241 -0.1958  0.4668
  739MOL0     C99674  11.060  10.103  11.730 -0.0453  0.1335 -1.0340
  739MOL0    Cl99675  11.165   9.999  11.846  0.0001  0.6201  0.2758
  739MOL0     C99676  11.163   9.966  10.692  0.1219 -0.5565 -0.0436
  739MOL0     C99677  11.147   9.943  10.552 -0.1820 -0.1572 -0.6308
  739MOL0     O99678  11.431   9.877  10.290  0.0982 -0.7708 -0.6968
  739MOL0     C99679  11.154   9.857  10.086 -0.2951 -0.8759  0.4195
  739MOL0     C99680  11.113   9.831   9.959  0.4774  0.1531 -0.4341
  739MOL0     N99681  11.599   9.691   9.302  0.4850  0.6158  0.7456
  739MOL0     N99682  11.676   9.679   9.193 -0.4021  0.2691 -0.6695
  739MOL0     C99683  10.907   9.580   8.154  0.1806  0.9052  0.2461
  739MOL0     C99684  10.826   9.604   8.035 -0.0540  0.5546 -0.1605
  739MOL0     C99685  10.665   9.665   7.610  0.2568  0.0951  1.2661
  739MOL0     C99686  10.633   9.610   7.489  0.0676 -0.1286  0.9196
  739MOL0     C99687  10.501   9.621   7.443  0.7081  0.1830  0.6720
  739MOL0     C99688  10.398   9.674   7.524  0.0004 -0.3812  0.6520
  739MOL0     O99689  10.262   9.675   7.482 -0.7786  0.0159 -0.3155
  739MOL0     C99690  10.216   9.599   7.376 -0.3622  0.4272  0.2796
  739MOL0     C99691  10.222   9.664   7.232 -0.1927 -1.0100  0.7235
  739MOL0     C99692  10.129   9.799   7.221 -0.2727  0.2720 -0.1818
  739MOL0     C99693  10.134   9.851   7.074 -0.2635 -0.1204 -0.6267
  739MOL0     C99694  10.263   9.905   7.042  0.7520  0.5998 -0.1210
  739MOL0     C99695  10.371   9.938   7.003  0.2192 -0.6499  0.5950
  739MOL0     C99696  10.427   9.730   7.647  0.2755 -0.1657 -0.3301
  739MOL0     C99697  10.557   9.719   7.690 -0.6957 -0.8938 -0.5551
  739MOL0     H99698  11.069   9.666   7.813 -0.8396  0.8812 -0.3825
  739MOL0     H99699  11.213   9.640   8.015  0.0077  1.4441  0.3987
  739MOL0     H99700  11.272   9.474   8.176  0.3638 -2.4533  0.8418
  739MOL0     H99701  11.317   9.635   8.236  2.1845 -2.3311 -2.7055
  739MOL0     H99702  11.204   9.409   8.398  0.9062 -1.4796 -2.2520
  739MOL0     H99703  11.376   9.425   8.373  0.3010  1.0900 -0.8641
  739MOL0     H99704  11.253   9.676   8.466 -0.8976  0.2732  0.9774
  739MOL0     H99705  11.218   9.551   8.582 -1.4458 -2.5413 -1.0953
  739MOL0     H99706  11.480   9.496   8.548 -0.2670 -0.0369 -1.0452
  739MOL0     H99707  11.498   9.642   8.478 -0.3943  0.3235 -0.2136
  739MOL0     H99708  11.392   9.738   8.708 -0.7656 -0.0735 -1.9437
  739MOL0     H99709  11.430   9.574   8.769 -4.2478  2.3357  0.4802
  739MOL0     H99710  11.669   9.599   8.691  0.4917 -0.0531  2.3144
  739MOL0     H99711  11.633   9.775   8.655 -1.5256  0.5542 -0.2113
  739MOL0     H99712  11.732   9.778   8.878 -0.3596  3.3392 -2.8485
  739MOL0     H99713  11.557   9.804   8.892  1.0871  0.6832 -0.8827
  739MOL0     H99714  11.739   9.568   8.954 -0.9276 -1.0234 -0.7897
  739MOL0     H99715  11.567   9.536   8.937  0.7573 -1.1432  4.2514
  739MOL0     H99716  11.374   9.664   9.062  0.5337  0.8392 -0.9206
  739MOL0     H99717  11.260   9.710   9.315 -2.2605 -3.0556 -0.0906
  739MOL0     H99718  11.337   9.604   9.425 -3.2524  0.0039 -1.0628
  739MOL0     H99719  11.423   9.889   9.406 -3.3154  3.7507  0.9845
  739MOL0     H99720  11.471   9.766   9.527  0.6296  0.0729 -0.4219
  739MOL0     H99721  11.174   9.854   9.478 -0.0390  0.1376 -0.0650
  739MOL0     H99722  11.281   9.937   9.597  0.5419 -0.6344  2.3021
  739MOL0     H99723  11.296   9.679   9.693 -0.5201  0.1391 -1.5162
  739MOL0     H99724  11.154   9.659   9.596 -0.1619 -0.4168 -0.3830
  739MOL0     H99725  11.395   9.884   9.785  2.1209 -0.3505  1.3698
  739MOL0     H99726  11.573   9.849  10.064  0.1259 -2.1037 -1.0499
  739MOL0     H99727  11.577   9.932   9.913 -1.6715  2.0606 -0.5197
  739MOL0     H99728  11.538  10.024  10.064 -0.4099 -0.7648  0.7390
  739MOL0     H99729  11.450  10.065  10.447 -0.3275  2.1278  0.5424
  739MOL0     H99730  11.477  10.105  10.698  1.0230 -1.9634  0.9870
  739MOL0     H99731  11.284  10.192  10.994 -0.8258  0.0154  1.7918
  739MOL0     H99732  11.144  10.106  10.915  1.2624  1.0612 -2.6156
  739MOL0     H99733  11.193   9.909  11.064 -2.3710  1.3576  1.2375
  739MOL0     H99734  11.342   9.975  11.123  1.1716  4.1765  2.4191
  739MOL0     H99735  11.093  10.127  11.183  0.3120  0.6500  1.1857
  739MOL0     H99736  11.247  10.116  11.278 -0.5321 -0.2979  0.5166
  739MOL0     H99737  11.016   9.918  11.236 -1.8636  1.5629  0.8325
  739MOL0     H99738  11.170   9.887  11.329 -1.9135 -1.6570 -0.0642
  739MOL0     H99739  10.911  10.043  11.391 -0.0215  1.1399  0.1637
  739MOL0     H99740  11.062  10.120  11.445  1.8805 -0.5123 -0.4662
  739MOL0     H99741  10.939   9.852  11.530 -1.1634  1.1732 -0.5365
  739MOL0     H99742  11.099   9.896  11.563  0.5251  0.6774 -1.3074
  739MOL0     H99743  10.905   9.971  11.743 -2.1766  0.7649 -0.0093
  739MOL0     H99744  10.873  10.093  11.616 -0.1783 -1.1686 -0.5568
  739MOL0     H99745  11.016  10.176  11.798  2.4450  0.1415  0.7233
  739MOL0     H99746  11.118  10.169  11.666  0.1073  1.5981  0.5471
  739MOL0     H99747  11.077   9.956  10.757 -1.1114  3.0332 -0.8760
  739MOL0     H99748  11.054   9.912  10.506  2.7710 -4.2539 -4.6937
  739MOL0     H99749  11.087   9.832  10.168 -1.3325 -0.4210 -0.2662
  739MOL0     H99750  11.010   9.799   9.946 -1.0605  3.8528  1.0064
  739MOL0     H99751  10.858   9.564   8.249 -4.1318 -2.1810 -2.1408
  739MOL0     H99752  10.718   9.594   8.041 -0.4269  3.9632  0.8963
  739MOL0     H99753  10.714   9.572   7.428 -0.9560  0.3634 -0.7920
  739MOL0     H99754  10.489   9.583   7.343  1.8127  0.2986  0.4854
  739MOL0     H99755  10.270   9.503   7.379  0.1149  0.6886  0.0967
  739MOL0     H99756  10.114   9.577   7.408  0.0235  0.3706  1.5434
  739MOL0     H99757  10.185   9.595   7.156  1.3641 -2.2558  1.0486
  739MOL0     H99758  10.324   9.698   7.210 -1.2320  1.7291 -0.3660
  739MOL0     H99759  10.183   9.869   7.286  0.1927 -1.3397  1.2239
  739MOL0     H99760  10.023   9.784   7.241 -1.6574  5.1044 -2.2296
  739MOL0     H99761  10.072   9.939   7.055  0.1419  0.9792  2.4473
  739MOL0     H99762  10.093   9.781   7.000 -0.8088  1.9515 -2.3541
  739MOL0     H99763  10.455   9.975   6.949 -1.2112  4.9823  1.5742
  739MOL0     H99764  10.346   9.759   7.714  2.4051 -2.5345  3.7063
  739MOL0     H99765  10.585   9.759   7.787 -3.6668  1.6984 -0.6004
  740MOL0     O99766   7.134   3.076  10.390 -0.2057  0.2007  0.2936
  740MOL0     C99767   7.082   3.185  10.374  0.4596  0.5395  0.1036
  740MOL0     O99768   7.137   3.303  10.379 -0.8266 -0.4162 -0.2803
  740MOL0     C99769   7.261   3.326  10.433 -0.3232 -0.0800 -1.3044
  740MOL0     C99770   7.310   3.457  10.411  0.1528  0.4966  0.5568
  740MOL0     C99771   7.432   3.499  10.458  0.2568 -0.6588  1.1127
  740MOL0     C99772   7.520   3.413  10.514 -0.6628 -0.6524  0.2736
  740MOL0     O99773   7.647   3.465  10.545  0.3880 -0.3858 -0.4009
  740MOL0     C99774   7.758   3.379  10.591 -0.2878 -0.0023 -0.9419
  740MOL0     C99775   7.887   3.456  10.630  0.6909 -0.5318 -0.1084
  740MOL0     C99776   7.908   3.582  10.544 -0.5384 -0.1789  0.5263
  740MOL0     C99777   7.858   3.708  10.602  0.1534 -0.1719  0.2760
  740MOL0     C99778   7.903   3.823  10.515 -0.2917 -1.6374  0.0111
  740MOL0     C99779   7.848   3.955  10.582  0.1604  0.6510  0.0062
  740MOL0     C99780   7.912   4.079  10.507  0.0859  0.1036 -0.0021
  740MOL0     C99781   7.928   4.204  10.599  0.2484 -0.0705  1.1351
  740MOL0     N99782   7.910   4.326  10.518  0.8789 -0.2816 -0.3822
  740MOL0     C99783   7.788   4.378  10.471 -0.3404  1.1600 -0.2468
  740MOL0     C99784   7.819   4.506  10.428 -0.4139  0.1230 -0.0746
  740MOL0     C99785   7.724   4.600  10.368  0.3864 -0.4113  0.4943
  740MOL0     C99786   7.610   4.531  10.287 -0.6010  0.3740  0.0720
  740MOL0     C99787   7.506   4.640  10.242 -0.7686 -0.6198  0.1124
  740MOL0     C99788   7.387   4.582  10.157 -0.0381  0.5555 -0.4430
  740MOL0     O99789   7.301   4.690  10.126  0.4455 -0.1436 -0.5584
  740MOL0     C99790   7.171   4.662  10.091 -0.4123  0.4620 -0.0244
  740MOL0     C99791   7.094   4.575  10.168  0.5062 -0.9340 -0.5380
  740MOL0     C99792   6.967   4.549  10.125  0.1270 -0.1877 -0.2939
  740MOL0     C99793   6.894   4.429  10.189  0.5520  0.0860  0.6872
  740MOL0     C99794   6.923   4.602  10.000  0.4576  0.7400 -1.0265
  740MOL0     C99795   6.779   4.584   9.952  0.8325 -0.6182 -0.0732
  740MOL0     O99796   6.718   4.695   9.889  0.1848  0.6000  0.5793
  740MOL0     C99797   6.641   4.761   9.977  0.2816  0.1263  0.2685
  740MOL0     C99798   6.512   4.735   9.994 -0.1672  0.0814 -0.4864
  740MOL0     C99799   6.433   4.810  10.081  0.4053 -0.0861 -1.3213
  740MOL0     C99800   6.490   4.919  10.152 -0.0313  1.2729  0.1413
  740MOL0     O99801   6.428   5.019  10.221  0.4404  0.1473  0.0343
  740MOL0     C99802   6.307   4.985  10.294  0.0887 -0.7215 -0.4945
  740MOL0     C99803   6.177   5.048  10.248 -0.4428 -0.2868 -0.1342
  740MOL0     C99804   6.066   5.007  10.342 -0.2005  0.3364 -0.1541
  740MOL0     C99805   5.937   5.072  10.300  0.9981  0.3971  0.2194
  740MOL0     C99806   5.847   5.050  10.427  0.3804 -0.8961 -0.1326
  740MOL0     C99807   5.691   5.075  10.404  0.7161 -0.9239 -0.6656
  740MOL0     C99808   5.607   5.018  10.520  0.8621 -0.0066  0.9331
  740MOL0     C99809   5.555   4.876  10.492 -0.1577 -0.9896 -1.0352
  740MOL0    Cl99810   5.425   4.862  10.376  0.0896  0.0537  0.2944
  740MOL0     C99811   6.623   4.942  10.136  0.3560  0.7474 -1.8663
  740MOL0     C99812   6.701   4.862  10.052 -0.1630  0.2044 -0.6658
  740MOL0     O99813   6.719   4.475   9.970 -0.3781 -0.1884 -0.8634
  740MOL0     C99814   7.003   4.687   9.920 -0.7309  0.6235 -0.1589
  740MOL0     C99815   7.126   4.710   9.969  0.6649 -0.6859 -0.2137
  740MOL0     N99816   7.955   4.525  10.442 -0.6006  0.5216 -0.0728
  740MOL0     N99817   8.002   4.426  10.506 -0.2495  0.1720 -1.0819
  740MOL0     C99818   7.477   3.285  10.537  0.2531 -0.8369 -0.5528
  740MOL0     C99819   7.347   3.239  10.504  0.6735  0.4218  0.4967
  740MOL0     C99820   6.943   3.177  10.327  0.7113  0.2415 -0.4824
  740MOL0     C99821   6.867   3.056  10.303 -0.1702  0.1770 -0.4963
  740MOL0     C99822   6.732   3.064  10.284 -0.2258  0.9202  0.8251
  740MOL0     C99823   6.666   3.189  10.266 -1.1754 -0.3764  0.1234
  740MOL0     O99824   6.540   3.173  10.219  0.3805  0.3574  0.3479
  740MOL0     C99825   6.478   3.283  10.151 -0.1966  1.1417 -0.5255
  740MOL0     C99826   6.328   3.234  10.142 -0.5089 -0.0654 -0.0908
  740MOL0     C99827   6.249   3.237  10.275  0.0862  0.2524 -0.8989
  740MOL0     C99828   6.220   3.375  10.329  0.1085 -0.3581  0.1384
  740MOL0     C99829   6.199   3.381  10.472  0.3285 -0.1439 -0.2156
  740MOL0     C99830   6.193   3.365  10.593  0.1312  0.5442 -0.3841
  740MOL0     C99831   6.738   3.305  10.283  0.2304  1.1781 -0.2522
  740MOL0     C99832   6.878   3.301  10.306  0.0295  0.1983  0.7478
  740MOL0     H99833   7.245   3.524  10.356 -0.8851 -0.7067  0.2819
  740MOL0     H99834   7.442   3.607  10.446  0.2969 -0.8100 -0.3352
  740MOL0     H99835   7.732   3.316  10.677  4.5473 -2.3142 -0.8503
  740MOL0     H99836   7.782   3.295  10.525  0.7045 -1.8429  1.6026
  740MOL0     H99837   7.870   3.471  10.737 -0.4818 -2.4800  0.0396
  740MOL0     H99838   7.971   3.389  10.610  1.1374 -0.0674  0.1985
  740MOL0     H99839   8.015   3.603  10.537 -0.4615 -1.1995 -3.1050
  740MOL0     H99840   7.876   3.564  10.442  2.8538 -0.7389 -0.5660
  740MOL0     H99841   7.749   3.712  10.607  0.1045 -1.2701  0.4657
  740MOL0     H99842   7.884   3.726  10.706 -0.4247 -4.0612  1.2529
  740MOL0     H99843   8.012   3.826  10.518 -0.3219  0.1132  1.2919
  740MOL0     H99844   7.869   3.814  10.411  1.0685 -0.5646 -0.5555
  740MOL0     H99845   7.739   3.960  10.579  0.0115 -1.7801 -1.4005
  740MOL0     H99846   7.877   3.960  10.688  1.6542 -2.3837 -0.1450
  740MOL0     H99847   8.017   4.073  10.478  1.8712  4.2279  4.3117
  740MOL0     H99848   7.853   4.101  10.417 -2.2423 -2.0322  0.9060
  740MOL0     H99849   8.022   4.207  10.655  0.9968  1.8614 -0.0954
  740MOL0     H99850   7.859   4.198  10.683  0.0346 -3.4767  0.8581
  740MOL0     H99851   7.698   4.318  10.465  3.0762 -4.4974 -2.0238
  740MOL0     H99852   7.679   4.670  10.439 -1.1279 -0.4026 -0.4206
  740MOL0     H99853   7.780   4.672  10.308  0.1102  0.2035  0.9591
  740MOL0     H99854   7.559   4.466  10.359 -0.6908 -0.7023 -0.9529
  740MOL0     H99855   7.650   4.476  10.202 -4.7343 -1.8837 -0.6566
  740MOL0     H99856   7.559   4.710  10.176 -4.5351  2.0132 -0.4260
  740MOL0     H99857   7.464   4.696  10.326  1.2118 -2.2484  2.3138
  740MOL0     H99858   7.346   4.504  10.221  2.0052 -0.5309 -0.3548
  740MOL0     H99859   7.423   4.527  10.069 -1.3105 -1.3768  0.1698
  740MOL0     H99860   7.137   4.543  10.262 -1.3100  0.7346  0.9599
  740MOL0     H99861   6.944   4.393  10.279 -1.1932 -1.0381  1.2584
  740MOL0     H99862   6.794   4.462  10.218 -0.8855 -0.5005 -3.0136
  740MOL0     H99863   6.881   4.340  10.126  4.2860 -1.6323  2.0484
  740MOL0     H99864   6.450   4.683   9.921  0.2120 -1.2254  0.0814
  740MOL0     H99865   6.326   4.793  10.077  0.5420 -1.4004 -0.0118
  740MOL0     H99866   6.279   4.879  10.297 -0.4940 -0.5640 -0.0911
  740MOL0     H99867   6.330   5.025  10.394  2.2626  2.9841 -2.2717
  740MOL0     H99868   6.195   5.156  10.248  1.6275 -0.5744  0.3954
  740MOL0     H99869   6.155   5.013  10.147 -1.0403 -1.1225  0.2745
  740MOL0     H99870   6.101   5.033  10.442  4.5148 -1.8323 -0.9523
  740MOL0     H99871   6.045   4.899  10.345  0.8529  0.1479  1.3521
  740MOL0     H99872   5.945   5.180  10.281  1.0276  0.0943 -1.6965
  740MOL0     H99873   5.894   5.020  10.214 -1.0402 -1.0174  1.9855
  740MOL0     H99874   5.883   5.115  10.508  2.9526 -0.5317 -1.4576
  740MOL0     H99875   5.858   4.949  10.468 -0.5368 -3.0695 -4.6162
  740MOL0     H99876   5.681   5.183  10.390  3.1162 -1.0456 -5.4071
  740MOL0     H99877   5.659   5.037  10.306 -1.8327  0.4797 -0.4667
  740MOL0     H99878   5.521   5.082  10.541  0.3363 -0.6911  0.9312
  740MOL0     H99879   5.680   5.019  10.601 -0.1403 -1.1840  1.9017
  740MOL0     H99880   5.518   4.822  10.579  0.6962 -0.4521 -0.3228
  740MOL0     H99881   5.644   4.828  10.451  0.8409  0.6754 -0.9422
  740MOL0     H99882   6.672   5.021  10.192  2.7012 -1.4893 -0.5810
  740MOL0     H99883   6.801   4.903  10.041 -0.3632  0.2983 -2.4334
  740MOL0     H99884   6.979   4.734   9.825  0.9414  3.0091  0.4927
  740MOL0     H99885   7.191   4.772   9.909 -0.5510  1.3210  0.4598
  740MOL0     H99886   7.534   3.215  10.596 -1.6819 -1.9979  0.0397
  740MOL0     H99887   7.309   3.147  10.546 -1.9585  0.5292 -1.4278
  740MOL0     H99888   6.914   2.958  10.306  1.6561  0.9544  3.2003
  740MOL0     H99889   6.676   2.974  10.265 -0.9620  1.5890 -0.2618
  740MOL0     H99890   6.492   3.374  10.209  1.9853  1.3311 -1.2692
  740MOL0     H99891   6.530   3.291  10.055  1.0087  2.9738  0.2388
  740MOL0     H99892   6.318   3.128  10.115  2.3294 -1.1072  2.3882
  740MOL0     H99893   6.263   3.296  10.079 -1.8280  1.6697  2.7692
  740MOL0     H99894   6.317   3.186  10.344  2.5561 -0.0648 -3.3882
  740MOL0     H99895   6.154   3.185  10.258 -1.1767  2.8176 -2.2083
  740MOL0     H99896   6.135   3.415  10.272  1.5133  1.2949 -0.8871
  740MOL0     H99897   6.317   3.421  10.307  0.2092 -2.0027 -3.5700
  740MOL0     H99898   6.196   3.365  10.700  0.4447  2.9321 -0.3240
  740MOL0     H99899   6.697   3.402  10.258 -1.2888 -0.0114 -2.7092
  740MOL0     H99900   6.929   3.396  10.316 -0.1083  0.2413  1.0314
  741MOL0     O99901   8.491   1.316   3.882  0.2178 -0.2689 -0.5194
  741MOL0     C99902   8.579   1.399   3.915  0.5845 -0.0467  0.8006
  741MOL0     O99903   8.566   1.506   3.993 -0.0567  0.1052 -0.8165
  741MOL0     C99904   8.462   1.519   4.080  1.1572  0.7148  0.1800
  741MOL0     C99905   8.487   1.543   4.212 -0.3739 -0.5981 -0.2608
  741MOL0     C99906   8.383   1.563   4.307 -0.0332 -1.0886  0.2938
  741MOL0     C99907   8.255   1.573   4.263  0.5251 -0.0302 -0.9183
  741MOL0     O99908   8.140   1.584   4.334  0.3455  0.0261  0.0793
  741MOL0     C99909   8.146   1.565   4.479 -0.7767  0.6244  0.1801
  741MOL0     C99910   8.019   1.592   4.546  0.7543  0.1561  0.8493
  741MOL0     C99911   7.897   1.502   4.505  0.2799  0.3972 -0.5332
  741MOL0     C99912   7.920   1.351   4.509  0.0627  0.3580  0.1973
  741MOL0     C99913   7.803   1.270   4.438 -0.2732 -0.3097  0.1189
  741MOL0     C99914   7.660   1.307   4.483 -0.1735 -0.5616 -0.9135
  741MOL0     C99915   7.546   1.209   4.454 -1.1720 -0.1333 -0.6793
  741MOL0     C99916   7.454   1.251   4.349  0.2862  1.0909 -0.5817
  741MOL0     N99917   7.348   1.150   4.331 -0.1977  0.8385 -0.4743
  741MOL0     C99918   7.222   1.138   4.383  0.3687  0.1177 -0.8321
  741MOL0     C99919   7.170   1.022   4.325  0.4729 -0.3926 -0.2778
  741MOL0     C99920   7.029   0.974   4.353 -0.0453 -0.5694 -0.1523
  741MOL0     C99921   6.921   1.023   4.261 -0.3748 -0.2859 -0.4107
  741MOL0     C99922   6.782   0.965   4.303  0.9651  0.3732  0.1798
  741MOL0     C99923   6.733   0.984   4.447  0.0848 -0.0179 -0.1397
  741MOL0     O99924   6.735   1.124   4.465 -0.5292  0.4283  0.1312
  741MOL0     C99925   6.734   1.157   4.595 -0.8824  0.7935 -0.1224
  741MOL0     C99926   6.618   1.212   4.648 -0.5212  0.8461  0.0489
  741MOL0     C99927   6.609   1.265   4.780  0.5679 -0.0236 -0.0226
  741MOL0     C99928   6.472   1.296   4.831  1.0974  0.2327  0.2545
  741MOL0     C99929   6.719   1.271   4.864  0.0570 -0.0321 -0.5194
  741MOL0     C99930   6.710   1.330   4.999 -0.0826  0.2582 -0.2322
  741MOL0     O99931   6.808   1.407   5.044 -0.3344  0.1452  0.0538
  741MOL0     C99932   6.791   1.475   5.165 -0.5265  0.7408  1.0574
  741MOL0     C99933   6.671   1.532   5.197  0.0572  0.0558  0.5180
  741MOL0     C99934   6.662   1.602   5.323  0.1164 -0.1533  0.7617
  741MOL0     C99935   6.773   1.622   5.402 -0.3926  0.2810 -0.7567
  741MOL0     O99936   6.759   1.703   5.511  0.6889  0.3289  0.1922
  741MOL0     C99937   6.880   1.773   5.557  0.1609  0.7059  0.6891
  741MOL0     C99938   6.834   1.887   5.650 -0.7142 -1.3330 -0.8143
  741MOL0     C99939   6.702   1.867   5.718 -0.1020 -0.2145  0.0099
  741MOL0     C99940   6.671   1.989   5.815 -1.0237 -0.8585  0.1895
  741MOL0     C99941   6.514   2.017   5.843 -0.5718  0.4065 -0.5807
  741MOL0     C99942   6.409   2.018   5.728 -0.0922  0.0662 -0.2272
  741MOL0     C99943   6.259   2.070   5.754  0.6765  0.9035 -0.3954
  741MOL0     C99944   6.167   2.042   5.636  0.8793 -0.3468  0.7887
  741MOL0    Cl99945   6.127   1.871   5.618 -0.1680  0.2239  0.2317
  741MOL0     C99946   6.895   1.549   5.372  0.8740 -0.7474  0.3590
  741MOL0     C99947   6.898   1.477   5.253 -0.4521 -0.8582 -0.0177
  741MOL0     O99948   6.613   1.300   5.065  0.1535 -0.7503 -0.2278
  741MOL0     C99949   6.842   1.216   4.813 -1.0416  0.1177 -0.2898
  741MOL0     C99950   6.847   1.156   4.682 -0.3736 -0.4936 -0.7652
  741MOL0     N99951   7.274   0.965   4.238  0.2821 -0.2144 -0.5572
  741MOL0     N99952   7.384   1.036   4.263  0.3153 -0.0784  0.5662
  741MOL0     C99953   8.226   1.553   4.128 -0.1400  0.0461  0.7669
  741MOL0     C99954   8.329   1.519   4.039  0.3767 -0.4265 -0.4813
  741MOL0     C99955   8.700   1.390   3.832  0.0757  0.9252  0.6504
  741MOL0     C99956   8.698   1.327   3.702 -0.1908  0.6000  0.8162
  741MOL0     C99957   8.809   1.322   3.625  0.7272  0.2377 -0.5066
  741MOL0     C99958   8.923   1.399   3.665  0.6136 -1.1516  0.3656
  741MOL0     O99959   9.024   1.430   3.581  0.0408 -0.7077 -0.3257
  741MOL0     C99960   9.059   1.342   3.480 -0.4086  0.3570  0.1837
  741MOL0     C99961   9.215   1.329   3.483  0.3957 -0.7791  0.0287
  741MOL0     C99962   9.257   1.222   3.380  0.4026 -0.5741 -0.0803
  741MOL0     C99963   9.365   1.279   3.277  0.1038 -0.3579 -0.0040
  741MOL0     C99964   9.299   1.366   3.177 -0.0808 -0.6656  0.3045
  741MOL0     C99965   9.238   1.441   3.099  0.2504 -0.1730  0.3196
  741MOL0     C99966   8.934   1.458   3.789 -0.7904 -0.4177  0.6657
  741MOL0     C99967   8.826   1.441   3.876 -0.8739 -0.5529  1.1675
  741MOL0     H99968   8.591   1.533   4.244  0.4168  0.4627 -2.3100
  741MOL0     H99969   8.413   1.584   4.409  2.8649  2.4629 -1.0447
  741MOL0     H99970   8.185   1.467   4.508 -4.2147 -0.8982  0.0522
  741MOL0     H99971   8.210   1.640   4.526 -0.5504  1.2241 -1.0220
  741MOL0     H99972   8.037   1.559   4.649  0.6276 -2.8106  0.0149
  741MOL0     H99973   7.995   1.699   4.544 -0.2300  0.0763  3.7341
  741MOL0     H99974   7.822   1.530   4.579  2.5699  0.2201  2.0001
  741MOL0     H99975   7.861   1.529   4.405  0.7004 -1.0225 -1.1058
  741MOL0     H99976   8.016   1.320   4.468  0.1360 -0.2114  0.7896
  741MOL0     H99977   7.933   1.328   4.615  4.6625  0.3308 -0.1750
  741MOL0     H99978   7.815   1.273   4.330 -1.9661 -0.7801 -0.1159
  741MOL0     H99979   7.811   1.166   4.471 -0.8938 -1.1434 -2.1768
  741MOL0     H99980   7.651   1.328   4.590 -2.0090 -1.3709 -0.8651
  741MOL0     H99981   7.637   1.399   4.429  1.6674  0.5702  0.1264
  741MOL0     H99982   7.600   1.123   4.413  2.7841  2.1993 -0.8134
  741MOL0     H99983   7.497   1.198   4.551  0.9621  1.9530  0.7196
  741MOL0     H99984   7.498   1.262   4.250 -2.1989 -0.4398 -1.9271
  741MOL0     H99985   7.414   1.347   4.384  0.0648  0.4610  0.9819
  741MOL0     H99986   7.184   1.210   4.455  0.5417  0.8877 -1.4937
  741MOL0     H99987   7.037   0.865   4.346 -2.4712 -0.7157 -2.0027
  741MOL0     H99988   6.997   1.018   4.449 -2.5944 -0.6105 -0.9041
  741MOL0     H99989   6.932   1.004   4.153 -1.2619  1.2367 -0.7996
  741MOL0     H99990   6.901   1.130   4.253 -3.2081 -0.6099  0.9175
  741MOL0     H99991   6.778   0.856   4.292  2.7125  0.3077 -0.1364
  741MOL0     H99992   6.708   1.013   4.238  1.8861  0.6024 -0.7336
  741MOL0     H99993   6.791   0.936   4.525 -1.5384 -2.2255 -0.1751
  741MOL0     H99994   6.631   0.955   4.475  0.5519 -0.2146  1.4451
  741MOL0     H99995   6.531   1.206   4.585  0.7889  0.4073 -1.8034
  741MOL0     H99996   6.430   1.236   4.912 -1.3981  0.6781 -0.6002
  741MOL0     H99997   6.472   1.401   4.862  2.8887  0.7054 -1.1882
  741MOL0     H99998   6.405   1.288   4.745  1.5111 -1.0691  0.0411
  741MOL0     H99999   6.585   1.547   5.132 -0.5581  5.2634  2.1049
  741MOL0     H    0   6.567   1.649   5.349  0.5377  0.0207  2.0505
  741MOL0     H    1   6.932   1.694   5.612 -1.7890 -0.7292  0.6049
  741MOL0     H    2   6.939   1.805   5.471  1.0842 -3.0263 -0.2389
  741MOL0     H    3   6.914   1.906   5.723 -2.4006  0.5805  0.6467
  741MOL0     H    4   6.836   1.966   5.574  2.9255  0.1595  0.5828
  741MOL0     H    5   6.703   1.778   5.782  0.8097 -0.2036  0.0283
  741MOL0     H    6   6.619   1.847   5.649  0.7113  0.4842 -1.1986
  741MOL0     H    7   6.727   1.980   5.908  0.2057 -1.5035 -0.5953
  741MOL0     H    8   6.702   2.076   5.756 -2.4735 -2.5022 -3.2343
  741MOL0     H    9   6.485   2.103   5.904 -3.3633  0.9821 -2.5575
  741MOL0     H   10   6.473   1.935   5.903 -0.1057 -0.1770 -1.0394
  741MOL0     H   11   6.452   2.083   5.651  1.2625  0.8005  1.1109
  741MOL0     H   12   6.400   1.912   5.703 -0.0628  0.2774 -1.2062
  741MOL0     H   13   6.256   2.179   5.769 -1.1240  0.7575  0.6136
  741MOL0     H   14   6.236   2.021   5.849 -1.4966 -0.1845 -1.4219
  741MOL0     H   15   6.213   2.083   5.546  1.2446 -1.2167  0.5608
  741MOL0     H   16   6.072   2.094   5.652  1.5564  1.2628 -0.2225
  741MOL0     H   17   6.971   1.552   5.450  2.9291  4.0371 -1.4669
  741MOL0     H   18   6.980   1.409   5.234  0.5967  0.0772  1.0147
  741MOL0     H   19   6.926   1.204   4.882  0.0744 -3.8624 -2.0485
  741MOL0     H   20   6.932   1.100   4.642 -0.2727 -3.8711  3.4391
  741MOL0     H   21   8.130   1.557   4.078  0.6582  1.7941 -0.7363
  741MOL0     H   22   8.309   1.521   3.932  2.1635  3.0357 -0.8536
  741MOL0     H   23   8.602   1.290   3.669  0.9786 -0.7488 -1.2787
  741MOL0     H   24   8.811   1.255   3.540  2.4483 -0.6566  0.1762
  741MOL0     H   25   9.004   1.248   3.491 -3.6074  2.0228 -0.3944
  741MOL0     H   26   9.036   1.389   3.384 -2.6490 -1.6569 -0.3829
  741MOL0     H   27   9.243   1.285   3.580  1.5900 -1.0277 -0.4091
  741MOL0     H   28   9.250   1.432   3.473  0.6877 -0.8137  0.6481
  741MOL0     H   29   9.161   1.195   3.335 -0.6936  1.1931  1.0688
  741MOL0     H   30   9.294   1.139   3.441  3.3927  1.2248  0.7789
  741MOL0     H   31   9.430   1.201   3.235 -1.6866 -2.6657  1.2748
  741MOL0     H   32   9.429   1.338   3.343 -0.5438  1.1184 -0.6506
  741MOL0     H   33   9.187   1.505   3.030  0.5114 -0.0193  0.2678
  741MOL0     H   34   9.005   1.537   3.814 -1.0032  0.0817 -0.2699
  741MOL0     H   35   8.837   1.499   3.968 -1.3851  0.8829  0.3559
  742MOL0     O   36  11.229   0.392   2.910  0.3260  0.0001  0.4328
  742MOL0     C   37  11.162   0.325   2.836  0.4223 -0.1957 -0.7909
  742MOL0     O   38  11.030   0.288   2.864  0.2437  0.2728 -0.6356
  742MOL0     C   39  10.967   0.335   2.971  0.0221 -0.8433 -0.5128
  742MOL0     C   40  10.993   0.276   3.087 -0.6225 -0.2048  0.3458
  742MOL0     C   41  10.930   0.326   3.204  0.3416 -0.2664  0.3242
  742MOL0     C   42  10.833   0.424   3.207  0.7921 -0.4580 -0.5303
  742MOL0     O   43  10.761   0.456   3.324 -0.5076  1.1350 -0.4379
  742MOL0     C   44  10.838   0.531   3.418  0.6513 -0.5320 -0.7353
  742MOL0     C   45  10.907   0.657   3.356  0.8524 -0.5757  0.1855
  742MOL0     C   46  10.810   0.770   3.321  0.3698 -0.6823  0.2665
  742MOL0     C   47  10.892   0.905   3.294 -0.4400  0.6091  0.7129
  742MOL0     C   48  11.006   0.903   3.187  0.3806 -0.4781 -0.7895
  742MOL0     C   49  10.948   0.878   3.045 -0.4819  0.1970 -0.3357
  742MOL0     C   50  11.064   0.868   2.954  0.4132  0.2652 -0.8492
  742MOL0     C   51  11.117   0.718   2.948 -0.0890 -0.2961 -0.3242
  742MOL0     N   52  11.197   0.693   2.827 -1.2820  1.0165  0.3867
  742MOL0     C   53  11.340   0.690   2.822  0.3066 -0.1400 -0.4749
  742MOL0     C   54  11.358   0.680   2.691  1.1208  0.4246 -0.5409
  742MOL0     C   55  11.484   0.704   2.621  0.7933 -0.0977 -0.9761
  742MOL0     C   56  11.562   0.580   2.573  1.2332  0.8121 -1.2298
  742MOL0     C   57  11.524   0.542   2.429 -0.4691 -0.1989  0.1291
  742MOL0     C   58  11.637   0.449   2.385 -0.5655 -0.2461 -0.5703
  742MOL0     O   59  11.757   0.511   2.339 -0.0321  0.4849  0.2934
  742MOL0     C   60  11.837   0.442   2.245 -0.2921 -0.3195  0.0779
  742MOL0     C   61  11.973   0.459   2.255  0.7310  0.7569 -0.0335
  742MOL0     C   62  12.063   0.405   2.165 -0.2579 -1.0380  0.6796
  742MOL0     C   63  12.207   0.447   2.182  0.9522 -0.0927  0.2592
  742MOL0     C   64  12.014   0.322   2.064 -0.8910  0.8446 -0.2404
  742MOL0     C   65  12.101   0.274   1.965  0.0691  0.2228 -0.6182
  742MOL0     O   66  12.128   0.142   1.978 -0.4662  0.4642 -0.2829
  742MOL0     C   67  12.179   0.049   1.884  1.2067  0.3596 -0.8812
  742MOL0     C   68  12.213  -0.069   1.948  1.2412 -0.3160 -0.1965
  742MOL0     C   69  12.269  -0.174   1.871 -0.5776 -0.2401 -1.6721
  742MOL0     C   70  12.281  -0.162   1.733  0.4124 -0.4747  0.6700
  742MOL0     O   71  12.336  -0.255   1.657  0.5035  0.3241 -0.4356
  742MOL0     C   72  12.286  -0.391   1.673 -0.3328 -0.1552 -0.4499
  742MOL0     C   73  12.134  -0.395   1.642  0.5284 -0.2905 -0.5248
  742MOL0     C   74  12.086  -0.542   1.633 -0.2407 -1.1540 -0.4467
  742MOL0     C   75  12.094  -0.595   1.490 -0.1594  0.3046  0.1200
  742MOL0     C   76  12.028  -0.741   1.489  0.3522  0.3353  0.1779
  742MOL0     C   77  12.118  -0.854   1.528 -0.0101 -0.3485 -0.7732
  742MOL0     C   78  12.055  -0.994   1.496 -0.5235 -0.2131  0.1804
  742MOL0     C   79  12.151  -1.095   1.544 -0.3856 -0.5787 -0.7032
  742MOL0    Cl   80  12.164  -1.096   1.712 -0.0557 -0.2191  0.0590
  742MOL0     C   81  12.230  -0.045   1.668 -0.0040 -0.0400  0.1178
  742MOL0     C   82  12.180   0.065   1.743  0.8968 -0.3123 -0.0508
  742MOL0     O   83  12.137   0.345   1.873 -0.6080  0.5819  0.4558
  742MOL0     C   84  11.879   0.292   2.060  0.9697  0.5413  0.1905
  742MOL0     C   85  11.795   0.354   2.148  0.8062 -0.5494 -0.8899
  742MOL0     N   86  11.231   0.653   2.627 -0.4366 -0.2053  0.2665
  742MOL0     N   87  11.140   0.663   2.708  0.2159  0.5670 -0.1100
  742MOL0     C   88  10.791   0.471   3.080 -0.0690  0.2519 -0.3592
  742MOL0     C   89  10.865   0.436   2.961  0.5089  0.6368 -0.5545
  742MOL0     C   90  11.231   0.273   2.711 -0.3154 -0.1935  0.2047
  742MOL0     C   91  11.369   0.239   2.721  1.0196 -0.1216 -0.2412
  742MOL0     C   92  11.431   0.196   2.602 -1.4592 -0.0581  1.2050
  742MOL0     C   93  11.370   0.188   2.472 -0.3649 -0.1982 -0.8785
  742MOL0     O   94  11.442   0.160   2.359  0.3311 -0.0397 -0.0980
  742MOL0     C   95  11.417   0.039   2.281 -0.1314 -0.2091  0.4945
  742MOL0     C   96  11.532  -0.059   2.286  0.7882  0.1455  0.5251
  742MOL0     C   97  11.672  -0.006   2.299  0.4890 -0.0241 -0.3958
  742MOL0     C   98  11.768  -0.106   2.224  0.1445 -0.0107 -0.6733
  742MOL0     C   99  11.896  -0.040   2.228  0.6656  0.5906 -0.9924
  742MOL0     C  100  12.003   0.015   2.258  0.0083 -0.7335  0.4445
  742MOL0     C  101  11.231   0.205   2.473 -0.2440  0.6252 -0.2272
  742MOL0     C  102  11.173   0.251   2.591  0.3652  0.6138 -0.9578
  742MOL0     H  103  11.070   0.200   3.099  0.5976  0.6926 -1.4001
  742MOL0     H  104  10.965   0.295   3.302 -0.3955 -0.4146  0.5502
  742MOL0     H  105  10.772   0.558   3.501  1.2944  1.8284 -0.9204
  742MOL0     H  106  10.916   0.469   3.462  1.0471 -0.3790 -1.2008
  742MOL0     H  107  10.985   0.692   3.424 -2.2048 -0.5669  4.0592
  742MOL0     H  108  10.958   0.620   3.267 -0.9600 -3.2942  0.1412
  742MOL0     H  109  10.756   0.749   3.229 -3.6159 -3.6897  2.9562
  742MOL0     H  110  10.732   0.783   3.397  2.0788 -0.4832  2.0987
  742MOL0     H  111  10.821   0.987   3.276 -0.7582 -0.3766 -3.6516
  742MOL0     H  112  10.940   0.928   3.389 -1.5376  0.1747  1.3924
  742MOL0     H  113  11.045   1.005   3.190  1.2628 -0.8116  2.1494
  742MOL0     H  114  11.081   0.826   3.209 -0.3047 -1.9194 -3.0897
  742MOL0     H  115  10.896   0.782   3.055 -2.7751  1.4507  0.6781
  742MOL0     H  116  10.892   0.971   3.029 -3.4142 -1.5574 -1.0594
  742MOL0     H  117  11.022   0.892   2.856 -0.1537 -1.9911 -1.2270
  742MOL0     H  118  11.148   0.930   2.985 -0.5888  0.3088  2.1119
  742MOL0     H  119  11.040   0.643   2.933  2.2848 -3.0511  0.4074
  742MOL0     H  120  11.169   0.688   3.039 -0.3747 -2.0496 -0.7134
  742MOL0     H  121  11.401   0.721   2.906  2.4603  0.2292 -2.0857
  742MOL0     H  122  11.457   0.764   2.534  3.0658  1.8584 -0.4479
  742MOL0     H  123  11.553   0.771   2.674  0.8500  0.2073 -1.4317
  742MOL0     H  124  11.535   0.494   2.635 -3.7105  0.5045 -3.4015
  742MOL0     H  125  11.671   0.588   2.583  0.9700  1.6932  2.3487
  742MOL0     H  126  11.503   0.624   2.360 -0.7995  0.4716  0.9990
  742MOL0     H  127  11.432   0.484   2.437 -0.1471 -0.4475  3.1669
  742MOL0     H  128  11.588   0.398   2.302 -1.5457 -1.2017  0.5445
  742MOL0     H  129  11.664   0.373   2.460  0.1190  0.1188 -0.4355
  742MOL0     H  130  11.999   0.543   2.319 -2.7642  1.3298  0.8785
  742MOL0     H  131  12.269   0.358   2.172  2.5647  0.9039  0.9591
  742MOL0     H  132  12.210   0.525   2.106 -2.7591  1.0207  1.0277
  742MOL0     H  133  12.228   0.485   2.283  0.6460 -1.1909  0.7569
  742MOL0     H  134  12.193  -0.079   2.055 -2.5066 -2.2063 -0.9066
  742MOL0     H  135  12.308  -0.261   1.924  1.9245  0.5228 -2.1208
  742MOL0     H  136  12.342  -0.456   1.605  1.1490 -1.3486  1.8024
  742MOL0     H  137  12.305  -0.423   1.776 -1.1788  0.7480  0.0063
  742MOL0     H  138  12.081  -0.345   1.723  0.4620  1.4970 -1.6138
  742MOL0     H  139  12.122  -0.361   1.538  0.0511  0.5684 -0.1987
  742MOL0     H  140  11.982  -0.540   1.667  0.5080  3.5887  2.5211
  742MOL0     H  141  12.151  -0.611   1.689 -0.5054 -0.5663  0.6139
  742MOL0     H  142  12.046  -0.529   1.417 -0.3340  0.1263  0.0698
  742MOL0     H  143  12.198  -0.614   1.462 -0.6273  2.1079 -3.3939
  742MOL0     H  144  12.002  -0.747   1.383 -0.7937 -0.9245  0.5060
  742MOL0     H  145  11.935  -0.747   1.546  1.4962  0.9343  2.2270
  742MOL0     H  146  12.211  -0.830   1.475  0.0868  1.1738  0.0297
  742MOL0     H  147  12.133  -0.851   1.637  1.0068 -3.1088 -0.7490
  742MOL0     H  148  12.028  -1.013   1.392  0.2456 -0.6033  0.0457
  742MOL0     H  149  11.958  -1.002   1.545 -1.2706 -0.4939 -1.2824
  742MOL0     H  150  12.246  -1.066   1.498 -0.8082 -2.0133 -2.5843
  742MOL0     H  151  12.110  -1.194   1.521 -1.6219 -0.5463  1.0895
  742MOL0     H  152  12.238  -0.023   1.562 -0.6195 -1.2781 -0.2046
  742MOL0     H  153  12.145   0.150   1.685 -0.0580 -0.2862  0.5406
  742MOL0     H  154  11.839   0.225   1.984  0.4430 -0.2222  1.1150
  742MOL0     H  155  11.688   0.342   2.133  0.9075 -1.5798 -0.8951
  742MOL0     H  156  10.716   0.549   3.075 -0.4994 -0.2062 -1.1160
  742MOL0     H  157  10.835   0.457   2.859 -0.9505  0.6872 -0.1457
  742MOL0     H  158  11.417   0.242   2.818 -3.5726 -2.9257  2.4844
  742MOL0     H  159  11.539   0.185   2.598 -1.3443  0.1039 -4.8816
  742MOL0     H  160  11.321  -0.005   2.310 -1.1444  0.3930 -1.7205
  742MOL0     H  161  11.405   0.064   2.175  2.8796 -1.5649 -0.2911
  742MOL0     H  162  11.522  -0.120   2.196  2.4418 -1.0366  1.0730
  742MOL0     H  163  11.515  -0.129   2.369 -1.2108  1.0591  0.9273
  742MOL0     H  164  11.713   0.001   2.400 -0.0144 -0.0523 -0.1847
  742MOL0     H  165  11.667   0.095   2.257 -2.8304  0.7168  1.4525
  742MOL0     H  166  11.743  -0.129   2.120 -1.0606  1.8538 -0.8481
  742MOL0     H  167  11.780  -0.197   2.284  2.0342  1.4037  1.2691
  742MOL0     H  168  12.102   0.054   2.264  0.7798 -2.1214 -2.0101
  742MOL0     H  169  11.173   0.193   2.382 -2.7364  3.2182  0.8950
  742MOL0     H  170  11.068   0.280   2.586 -1.4138 -4.9154 -4.6823
  743MOL0     O  171   4.584  10.040   4.263 -0.2855  0.4623 -0.4001
  743MOL0     C  172   4.548   9.926   4.301 -0.7350 -0.4677 -0.5049
  743MOL0     O  173   4.470   9.837   4.230 -0.3305  0.3223  0.4909
  743MOL0     C  174   4.404   9.883   4.117 -0.5294 -0.1606  0.7721
  743MOL0     C  175   4.466   9.847   3.995  1.0594 -0.0644 -1.1885
  743MOL0     C  176   4.412   9.898   3.875  1.0585  0.4396 -0.2816
  743MOL0     C  177   4.303   9.984   3.886 -0.5592  0.2151  0.6012
  743MOL0     O  178   4.270  10.029   3.760 -0.1471 -0.0185 -1.1833
  743MOL0     C  179   4.250  10.164   3.738 -0.0137 -0.0306  0.2510
  743MOL0     C  180   4.164  10.194   3.609 -0.2155  0.1701 -0.8514
  743MOL0     C  181   4.190  10.341   3.544  0.7560 -0.2824  0.0406
  743MOL0     C  182   4.120  10.351   3.412 -0.5095  0.5553 -0.2900
  743MOL0     C  183   4.137  10.481   3.353  0.4896  0.2323 -0.0139
  743MOL0     C  184   4.059  10.484   3.223  0.9007  0.0084 -0.3343
  743MOL0     C  185   4.074  10.602   3.128  0.1919  0.9471 -0.4827
  743MOL0     C  186   3.951  10.615   3.039 -0.9929 -1.3972 -0.3654
  743MOL0     N  187   3.845  10.705   3.088 -0.0421  0.1284 -0.4644
  743MOL0     C  188   3.820  10.839   3.057 -0.4321  0.1451  0.5543
  743MOL0     C  189   3.695  10.860   3.117  0.2293 -0.0791  0.6952
  743MOL0     C  190   3.618  10.986   3.111 -0.5612  0.5026  0.0033
  743MOL0     C  191   3.637  11.057   3.244  0.2640 -0.5248 -0.2256
  743MOL0     C  192   3.560  11.185   3.262 -0.2406 -0.6636  0.3293
  743MOL0     C  193   3.418  11.210   3.187 -0.4173 -0.4152  0.2428
  743MOL0     O  194   3.324  11.110   3.224 -1.0645  0.0996 -0.3512
  743MOL0     C  195   3.201  11.107   3.154 -0.8646 -0.0386  0.7023
  743MOL0     C  196   3.156  11.217   3.070 -0.5363  0.0228 -0.4876
  743MOL0     C  197   3.053  11.203   2.981  0.5580 -0.6259 -0.1900
  743MOL0     C  198   3.013  11.332   2.921  0.6224 -0.0750 -0.2251
  743MOL0     C  199   2.977  11.082   2.982 -0.7429  0.1659  1.3085
  743MOL0     C  200   2.853  11.060   2.911 -0.3917  0.1523  0.2716
  743MOL0     O  201   2.772  10.959   2.954 -1.2986  0.0396  0.2603
  743MOL0     C  202   2.665  10.939   2.872 -0.3105 -1.2148 -0.2034
  743MOL0     C  203   2.546  10.921   2.943 -0.6523  0.2988 -0.9673
  743MOL0     C  204   2.425  10.884   2.889  0.3882  0.3125 -0.7082
  743MOL0     C  205   2.418  10.853   2.751 -1.2431 -0.4598 -0.0666
  743MOL0     O  206   2.306  10.814   2.690  0.1209 -0.1620  0.9341
  743MOL0     C  207   2.210  10.919   2.656 -0.2727 -0.0779 -0.2254
  743MOL0     C  208   2.129  10.879   2.537  0.0427 -0.3401 -0.3552
  743MOL0     C  209   2.034  10.765   2.556  0.2980  0.0066  0.6231
  743MOL0     C  210   2.096  10.629   2.530  0.0159 -0.4032  0.2351
  743MOL0     C  211   1.993  10.525   2.537 -0.1733 -0.0595  0.0541
  743MOL0     C  212   2.040  10.381   2.521 -0.3718  0.3245 -0.0169
  743MOL0     C  213   2.116  10.316   2.641 -0.7097  0.0704  0.0524
  743MOL0     C  214   2.033  10.319   2.772 -0.8381  0.3485  1.0389
  743MOL0    Cl  215   1.897  10.214   2.751  0.5454 -0.0706 -0.3444
  743MOL0     C  216   2.540  10.859   2.673 -0.1617 -0.7374 -0.3680
  743MOL0     C  217   2.665  10.910   2.733  0.0356 -1.2171  0.2267
  743MOL0     O  218   2.834  11.132   2.816 -0.0483  0.2225 -0.4678
  743MOL0     C  219   3.015  10.978   3.065 -0.0284  0.8283  0.2256
  743MOL0     C  220   3.143  10.978   3.130  0.6490 -0.1148 -1.2034
  743MOL0     N  221   3.654  10.750   3.189  0.4124  0.5964 -0.6715
  743MOL0     N  222   3.744  10.666   3.180 -0.3011  0.3136  0.7825
  743MOL0     C  223   4.230  10.007   4.009 -0.1054 -0.7605  1.3422
  743MOL0     C  224   4.283   9.956   4.130 -0.1080  0.1009  0.0470
  743MOL0     C  225   4.591   9.890   4.441 -0.0283  0.2089 -0.4637
  743MOL0     C  226   4.638  10.001   4.520 -0.2578  0.9384 -0.4054
  743MOL0     C  227   4.697   9.969   4.645 -0.8315 -0.3876 -0.4754
  743MOL0     C  228   4.727   9.836   4.689 -0.2926  0.2016  0.5321
  743MOL0     O  229   4.794   9.800   4.806 -0.3097  0.2750 -0.4151
  743MOL0     C  230   4.887   9.895   4.864  0.7102 -0.3043  1.3059
  743MOL0     C  231   4.965   9.814   4.965 -0.2803  0.0653  0.2247
  743MOL0     C  232   5.020   9.685   4.898  0.4323  0.7941  0.0699
  743MOL0     C  233   5.139   9.633   4.988 -0.5094  0.0739 -0.0708
  743MOL0     C  234   5.199   9.515   4.924 -0.8422 -0.3255  0.0490
  743MOL0     C  235   5.251   9.413   4.878  0.3870  0.0986  0.0815
  743MOL0     C  236   4.664   9.735   4.607  0.0834 -0.4360  0.1687
  743MOL0     C  237   4.599   9.759   4.486  0.2762  0.5003 -0.7617
  743MOL0     H  238   4.553   9.781   3.997  1.3505  0.2794  1.8521
  743MOL0     H  239   4.466   9.871   3.785  4.4364 -1.2960  2.0272
  743MOL0     H  240   4.209  10.216   3.825  1.9834  0.5156  0.9208
  743MOL0     H  241   4.347  10.211   3.720  0.0020 -0.0059  0.4017
  743MOL0     H  242   4.183  10.119   3.532  4.2549  1.2186 -1.0493
  743MOL0     H  243   4.061  10.173   3.640  1.1045 -1.8983  2.7213
  743MOL0     H  244   4.161  10.420   3.614  0.8582  0.6927 -0.9906
  743MOL0     H  245   4.299  10.348   3.539  0.8875 -1.8643 -0.0217
  743MOL0     H  246   4.163  10.276   3.344  0.7258  0.2115  0.8438
  743MOL0     H  247   4.012  10.330   3.420 -0.1626 -1.7571 -0.7564
  743MOL0     H  248   4.094  10.558   3.417 -0.8115 -1.7233  1.5988
  743MOL0     H  249   4.239  10.511   3.326 -0.1850  1.9440 -0.7561
  743MOL0     H  250   4.093  10.394   3.172  2.5112  1.1283 -1.3301
  743MOL0     H  251   3.955  10.456   3.243  1.0727 -0.0464  0.5450
  743MOL0     H  252   4.077  10.695   3.185 -2.1304  0.5574  0.3957
  743MOL0     H  253   4.158  10.584   3.061 -1.7159 -1.4950 -2.4423
  743MOL0     H  254   3.904  10.516   3.035  1.0882 -2.6141  2.0846
  743MOL0     H  255   3.995  10.640   2.942 -0.9956  0.3426  0.0604
  743MOL0     H  256   3.882  10.904   2.995 -0.4829  1.4389  1.8019
  743MOL0     H  257   3.642  11.048   3.024  1.0820  1.3012  0.9686
  743MOL0     H  258   3.512  10.963   3.102 -0.5929  0.6153  0.0856
  743MOL0     H  259   3.737  11.076   3.281 -0.9379  2.2554  1.9584
  743MOL0     H  260   3.591  10.993   3.319  1.3054  2.8332  3.6150
  743MOL0     H  261   3.627  11.263   3.224  1.9207 -2.8536 -0.6601
  743MOL0     H  262   3.536  11.209   3.366 -2.5528 -0.5394 -0.1845
  743MOL0     H  263   3.432  11.195   3.079  1.8580 -0.0298  0.4375
  743MOL0     H  264   3.381  11.307   3.220  1.0344 -0.3437  1.7539
  743MOL0     H  265   3.207  11.312   3.083  2.7398 -1.5311 -0.9409
  743MOL0     H  266   3.092  11.407   2.920 -0.0476  0.6441 -0.9915
  743MOL0     H  267   2.969  11.321   2.822  0.3468 -2.1626  0.0850
  743MOL0     H  268   2.928  11.368   2.981 -1.6594 -1.1182 -2.6244
  743MOL0     H  269   2.556  10.950   3.047  0.2745  0.6159 -1.1358
  743MOL0     H  270   2.327  10.877   2.935  1.6446 -0.7825  2.1146
  743MOL0     H  271   2.146  10.942   2.741  0.2513  1.3052 -0.1817
  743MOL0     H  272   2.262  11.011   2.628  1.1988 -0.2223  1.7235
  743MOL0     H  273   2.071  10.965   2.504 -1.3618 -0.3127  1.9491
  743MOL0     H  274   2.203  10.849   2.463  0.1231 -1.6616  0.2318
  743MOL0     H  275   1.954  10.754   2.482  0.9160 -4.1632  0.3165
  743MOL0     H  276   1.997  10.752   2.658  0.7690 -2.8444  0.5210
  743MOL0     H  277   2.144  10.631   2.431  0.0447  3.0782  0.1826
  743MOL0     H  278   2.171  10.609   2.607 -1.4572 -1.3190  1.4887
  743MOL0     H  279   1.929  10.550   2.452  2.3845  1.7622 -1.4597
  743MOL0     H  280   1.923  10.543   2.619 -1.7796 -0.7537 -1.1103
  743MOL0     H  281   1.955  10.316   2.497 -2.4350  1.5193  3.3959
  743MOL0     H  282   2.115  10.378   2.440 -0.1604 -0.6795  0.1990
  743MOL0     H  283   2.216  10.358   2.659 -0.4151 -0.5139 -0.2104
  743MOL0     H  284   2.141  10.212   2.622  1.8111  0.1421  2.2998
  743MOL0     H  285   1.999  10.416   2.809  0.2572  0.9613  0.4976
  743MOL0     H  286   2.099  10.279   2.849 -1.4042  1.3625  2.0667
  743MOL0     H  287   2.520  10.836   2.569 -1.6757  0.6614 -0.4333
  743MOL0     H  288   2.752  10.935   2.673 -2.5392  2.8226 -2.2824
  743MOL0     H  289   2.964  10.882   3.067  0.7603  0.2112 -2.8954
  743MOL0     H  290   3.176  10.886   3.177  1.5067  1.1826  0.8127
  743MOL0     H  291   4.156  10.086   4.003  1.7639  0.9505 -1.2970
  743MOL0     H  292   4.238   9.972   4.227  1.5234 -1.1803  1.0713
  743MOL0     H  293   4.621  10.107   4.501  2.2658  1.3155 -0.8841
  743MOL0     H  294   4.728  10.039   4.722  0.0011  1.5772 -2.4892
  743MOL0     H  295   4.958   9.939   4.793 -2.0781  1.3501 -0.6828
  743MOL0     H  296   4.832   9.974   4.915 -0.3331 -1.0970  1.4446
  743MOL0     H  297   4.908   9.786   5.054 -1.7152  1.1258 -0.3310
  743MOL0     H  298   5.052   9.874   4.992  1.9161 -1.6918 -2.3422
  743MOL0     H  299   5.046   9.703   4.793  2.7331  0.8847  0.6116
  743MOL0     H  300   4.947   9.604   4.905  0.5195  0.6268 -0.8273
  743MOL0     H  301   5.107   9.605   5.089  1.1021 -2.8013 -0.2268
  743MOL0     H  302   5.217   9.710   4.990  0.2249 -0.2763 -4.2218
  743MOL0     H  303   5.294   9.324   4.836  0.4084 -1.0338  2.3672
  743MOL0     H  304   4.672   9.638   4.656 -0.6058 -0.2427  0.6867
  743MOL0     H  305   4.587   9.678   4.414  1.5599  1.3771 -2.0188
  744MOL0     O  306   3.564  10.204   7.239  0.4217  0.4303 -0.4473
  744MOL0     C  307   3.615  10.155   7.336 -0.4378 -0.4886  0.6652
  744MOL0     O  308   3.566  10.151   7.461  0.4182 -0.0868  0.6543
  744MOL0     C  309   3.443  10.196   7.498  0.8348 -1.1554 -0.4726
  744MOL0     C  310   3.382  10.122   7.596 -0.2762  0.5600 -0.6384
  744MOL0     C  311   3.255  10.158   7.645 -0.5473  1.6958  0.3618
  744MOL0     C  312   3.196  10.276   7.596  0.5074  0.8524 -0.0603
  744MOL0     O  313   3.073  10.314   7.644 -0.1334  0.3770 -0.2120
  744MOL0     C  314   3.066  10.375   7.771 -0.7669  0.0993 -0.5473
  744MOL0     C  315   2.950  10.314   7.854  0.0441 -1.0005 -0.5577
  744MOL0     C  316   2.825  10.284   7.761 -0.6728  0.2875  0.0667
  744MOL0     C  317   2.718  10.223   7.844  0.9046 -0.2586 -0.1779
  744MOL0     C  318   2.581  10.191   7.769 -0.6576  0.0231  0.3862
  744MOL0     C  319   2.610  10.092   7.650 -0.0706 -0.6760  0.8376
  744MOL0     C  320   2.645   9.946   7.699 -0.4870 -0.1522 -0.4748
  744MOL0     C  321   2.573   9.848   7.606 -0.3498 -0.4243 -0.0377
  744MOL0     N  322   2.635   9.714   7.591 -0.1030 -0.3445 -0.5756
  744MOL0     C  323   2.619   9.606   7.658 -0.6469 -0.8210 -0.5905
  744MOL0     C  324   2.699   9.516   7.591  0.4291 -0.1135  0.0870
  744MOL0     C  325   2.694   9.377   7.635  0.1496 -0.6914 -0.3935
  744MOL0     C  326   2.615   9.285   7.546  0.0987  0.7437 -0.5077
  744MOL0     C  327   2.487   9.330   7.486  0.2257 -0.9363  0.2637
  744MOL0     C  328   2.413   9.235   7.392  0.3734  0.7576 -0.2779
  744MOL0     O  329   2.432   9.101   7.446 -0.3820  0.2622 -1.3181
  744MOL0     C  330   2.337   9.048   7.525 -0.4428 -0.6763  0.1601
  744MOL0     C  331   2.357   8.927   7.586  0.3468  0.6114  0.0199
  744MOL0     C  332   2.265   8.865   7.672  0.2053  0.3731 -0.2961
  744MOL0     C  333   2.298   8.725   7.738 -0.0351  0.1647  0.3652
  744MOL0     C  334   2.149   8.935   7.699 -0.2018 -0.1333 -0.4315
  744MOL0     C  335   2.034   8.882   7.783  0.6791  0.5953  0.2474
  744MOL0     O  336   2.021   8.749   7.807  0.1811  0.7719 -0.7160
  744MOL0     C  337   1.947   8.712   7.916  0.2296  0.4226  0.0405
  744MOL0     C  338   2.005   8.727   8.042  0.3236  0.0028 -1.7585
  744MOL0     C  339   1.942   8.676   8.152  0.4284 -0.0771 -0.2565
  744MOL0     C  340   1.819   8.617   8.152 -0.3691  0.3698 -0.0381
  744MOL0     O  341   1.755   8.554   8.258  0.1055 -0.1314 -0.7057
  744MOL0     C  342   1.821   8.461   8.347 -0.2961 -0.3915  0.3188
  744MOL0     C  343   1.919   8.367   8.276  0.3629 -0.6697  0.6892
  744MOL0     C  344   1.959   8.249   8.367  0.3598  0.1448 -0.4977
  744MOL0     C  345   1.834   8.175   8.418  0.5432 -0.6678 -0.7045
  744MOL0     C  346   1.869   8.045   8.494 -0.1600 -0.2564 -0.2119
  744MOL0     C  347   1.918   7.942   8.394 -0.2418 -0.2444 -0.2258
  744MOL0     C  348   1.956   7.809   8.458 -0.9804  0.9143 -0.5619
  744MOL0     C  349   2.021   7.714   8.365 -0.2181  0.4390  0.5279
  744MOL0    Cl  350   2.111   7.581   8.459  0.1061  0.0557 -0.2006
  744MOL0     C  351   1.758   8.611   8.030  0.8561 -0.1279  0.5452
  744MOL0     C  352   1.820   8.642   7.910  0.0943  0.8455 -0.0893
  744MOL0     O  353   1.948   8.968   7.806 -0.0361  0.0895 -0.4321
  744MOL0     C  354   2.124   9.060   7.642 -0.4217  0.7970 -0.4296
  744MOL0     C  355   2.221   9.118   7.564  0.0769  0.4995 -1.1698
  744MOL0     N  356   2.764   9.585   7.483  0.3618  0.6136 -0.0023
  744MOL0     N  357   2.726   9.711   7.490  0.0518  0.9083 -0.5110
  744MOL0     C  358   3.258  10.347   7.496  0.0158 -0.3631  0.1994
  744MOL0     C  359   3.383  10.310   7.451  0.9513  0.3729 -0.0310
  744MOL0     C  360   3.745  10.095   7.336  0.3322  0.3793  0.3833
  744MOL0     C  361   3.773  10.005   7.235 -0.2849 -0.1282  0.2087
  744MOL0     C  362   3.894   9.933   7.224 -1.1203  0.3176 -0.1558
  744MOL0     C  363   3.997   9.951   7.316  0.0058 -0.8462 -1.4171
  744MOL0     O  364   4.123   9.898   7.319  0.3748 -0.9334 -0.4346
  744MOL0     C  365   4.148   9.772   7.251  0.3609  0.1976 -0.7101
  744MOL0     C  366   4.063   9.659   7.310 -0.3798 -0.7518  0.7675
  744MOL0     C  367   4.141   9.528   7.302  0.7461  0.8418  0.3393
  744MOL0     C  368   4.271   9.508   7.377  0.7889 -0.5516 -1.1676
  744MOL0     C  369   4.276   9.588   7.500 -0.3259 -0.5281 -0.5500
  744MOL0     C  370   4.301   9.657   7.593  0.3195  1.2346  0.2096
  744MOL0     C  371   3.968  10.033   7.427 -0.0428  0.3318 -0.0791
  744MOL0     C  372   3.847  10.106   7.436  0.0244 -0.0873  0.5540
  744MOL0     H  373   3.431  10.028   7.618 -0.9955 -0.6881 -3.8870
  744MOL0     H  374   3.208  10.088   7.714 -0.6479 -1.0572 -2.2808
  744MOL0     H  375   3.163  10.373   7.821 -1.3177  2.5651  0.8084
  744MOL0     H  376   3.053  10.483   7.758 -0.6793  0.2078  0.2451
  744MOL0     H  377   2.984  10.235   7.921 -0.6439  1.2180  2.6373
  744MOL0     H  378   2.902  10.392   7.914  0.5717  1.7159 -3.3560
  744MOL0     H  379   2.793  10.376   7.710 -0.4788  1.9718  2.7922
  744MOL0     H  380   2.858  10.212   7.685  0.9186 -0.4180  1.3733
  744MOL0     H  381   2.752  10.140   7.907 -1.5112 -2.3613 -1.4404
  744MOL0     H  382   2.696  10.306   7.911 -0.7828  0.7400 -1.8703
  744MOL0     H  383   2.507  10.143   7.834 -1.2119  0.4061  0.0379
  744MOL0     H  384   2.536  10.281   7.726  1.3647  0.5166 -0.8077
  744MOL0     H  385   2.521  10.091   7.587  0.5637  1.1680 -0.1716
  744MOL0     H  386   2.693  10.128   7.587  0.1098 -1.4100  0.6419
  744MOL0     H  387   2.753   9.930   7.688  0.3000  0.9178  3.6258
  744MOL0     H  388   2.622   9.931   7.805 -2.7761 -0.7035 -1.0138
  744MOL0     H  389   2.556   9.895   7.509  2.3961  0.3938 -0.2189
  744MOL0     H  390   2.471   9.835   7.644 -0.8475  2.7876 -0.0398
  744MOL0     H  391   2.550   9.586   7.740  0.6050  2.3950  1.4325
  744MOL0     H  392   2.791   9.331   7.658 -0.7351 -1.2842  2.7174
  744MOL0     H  393   2.654   9.381   7.737  1.7522  4.8950  0.3280
  744MOL0     H  394   2.599   9.199   7.612  1.1415 -1.6133 -3.1069
  744MOL0     H  395   2.669   9.247   7.459 -0.9503  1.6677 -1.5918
  744MOL0     H  396   2.497   9.430   7.442  4.4785 -1.5682 -0.6105
  744MOL0     H  397   2.419   9.346   7.570 -1.3304 -1.0541 -0.9245
  744MOL0     H  398   2.474   9.228   7.302  0.7466 -0.5203  0.0547
  744MOL0     H  399   2.310   9.257   7.361 -0.0106  0.7433  0.9249
  744MOL0     H  400   2.446   8.869   7.567  0.9782  1.1353  1.2745
  744MOL0     H  401   2.389   8.685   7.693  0.1059  1.6448 -0.7676
  744MOL0     H  402   2.300   8.732   7.847 -2.9818  0.9340  0.4727
  744MOL0     H  403   2.219   8.659   7.700 -2.0023  1.9591  1.1001
  744MOL0     H  404   2.103   8.773   8.050  0.0369  0.6067 -1.6545
  744MOL0     H  405   1.986   8.689   8.250 -1.0087 -0.9223  0.5451
  744MOL0     H  406   1.873   8.516   8.427 -1.8681  1.0752  0.3765
  744MOL0     H  407   1.739   8.418   8.405  0.5400  1.5707  3.2030
  744MOL0     H  408   1.862   8.322   8.195  0.7358 -2.3021  1.3091
  744MOL0     H  409   2.010   8.426   8.260  0.3155 -0.4635  1.1709
  744MOL0     H  410   2.007   8.283   8.459  0.0434  0.0328 -0.2879
  744MOL0     H  411   2.033   8.187   8.315 -0.8504  0.2464 -2.4249
  744MOL0     H  412   1.789   8.235   8.498 -0.2876 -0.5860 -1.2183
  744MOL0     H  413   1.760   8.169   8.338 -0.1975 -1.8371  0.0269
  744MOL0     H  414   1.795   7.996   8.558  2.7326 -3.6989  0.8667
  744MOL0     H  415   1.950   8.080   8.559 -0.4889  1.9137 -0.8988
  744MOL0     H  416   1.853   7.937   8.306 -0.6849 -2.1599  0.1631
  744MOL0     H  417   2.022   7.961   8.364 -0.2498  0.1683 -0.0073
  744MOL0     H  418   1.871   7.763   8.509 -0.5676  1.4875  0.6969
  744MOL0     H  419   2.033   7.833   8.532  0.7822  1.1125 -2.3764
  744MOL0     H  420   2.092   7.760   8.296  0.5497  0.6454  1.4373
  744MOL0     H  421   1.945   7.671   8.299 -0.0459 -0.6971  1.0596
  744MOL0     H  422   1.662   8.561   8.029  0.6073  0.3266 -0.9795
  744MOL0     H  423   1.759   8.626   7.822 -0.0714  0.9598  0.0045
  744MOL0     H  424   2.051   9.138   7.661  2.4930  4.0589 -1.5346
  744MOL0     H  425   2.214   9.225   7.554 -1.0106  0.3253 -2.6131
  744MOL0     H  426   3.201  10.431   7.459 -0.8437 -0.8022  0.5071
  744MOL0     H  427   3.453  10.365   7.388  0.7180  1.5992  0.7414
  744MOL0     H  428   3.695   9.987   7.161 -1.3364  2.5093  0.5519
  744MOL0     H  429   3.913   9.860   7.145  1.9434  0.5599  0.2302
  744MOL0     H  430   4.123   9.774   7.145 -1.1690 -1.8693 -0.4441
  744MOL0     H  431   4.255   9.757   7.268  0.8775  3.0400 -0.8895
  744MOL0     H  432   3.977   9.654   7.242 -0.2131  0.3719  0.4609
  744MOL0     H  433   4.015   9.670   7.408 -1.8223 -1.8976  0.2465
  744MOL0     H  434   4.180   9.529   7.200  2.5639 -0.1620  0.9775
  744MOL0     H  435   4.082   9.439   7.328  1.6466  1.1666  4.1961
  744MOL0     H  436   4.362   9.527   7.319 -0.0853  0.5071 -2.2665
  744MOL0     H  437   4.279   9.406   7.415  3.7540  1.1926  3.9723
  744MOL0     H  438   4.309   9.717   7.682  1.6541 -1.2444  1.8926
  744MOL0     H  439   4.043  10.050   7.504 -0.8383  1.9349  0.3932
  744MOL0     H  440   3.819  10.179   7.511  0.7492  1.6120 -0.7824
  745MOL0     O  441   6.229   7.511   8.752  0.2730  0.5017  0.6930
  745MOL0     C  442   6.286   7.617   8.719 -0.5311  0.7512  0.4220
  745MOL0     O  443   6.224   7.738   8.692 -0.1202  0.1368  0.2080
  745MOL0     C  444   6.087   7.742   8.685  0.1412 -0.0123  0.6283
  745MOL0     C  445   6.014   7.806   8.783  0.3189 -0.8218 -0.9379
  745MOL0     C  446   5.870   7.788   8.776 -0.4927  0.3669 -0.0417
  745MOL0     C  447   5.806   7.718   8.672 -0.2524  0.6039  0.1563
  745MOL0     O  448   5.672   7.691   8.650  0.5214  0.4823 -0.6087
  745MOL0     C  449   5.590   7.677   8.767  0.0300  1.4322 -0.0740
  745MOL0     C  450   5.464   7.757   8.738  0.8182  0.3277 -0.2241
  745MOL0     C  451   5.486   7.912   8.769 -0.8089  0.4800 -0.1367
  745MOL0     C  452   5.349   7.965   8.777  0.2674 -0.3173 -0.2039
  745MOL0     C  453   5.367   8.112   8.808 -0.1863  0.4885  1.1513
  745MOL0     C  454   5.230   8.171   8.821 -0.3690 -0.1178 -0.7617
  745MOL0     C  455   5.234   8.309   8.889  0.0576 -0.4623 -0.2528
  745MOL0     C  456   5.243   8.439   8.808 -0.2644 -0.1107  0.8362
  745MOL0     N  457   5.281   8.557   8.893 -0.3168 -0.9412 -0.6810
  745MOL0     C  458   5.196   8.643   8.967  0.2615  0.3414  0.0671
  745MOL0     C  459   5.274   8.722   9.048  0.1008 -1.1156  0.1013
  745MOL0     C  460   5.237   8.822   9.161  0.4356  0.4858  0.1857
  745MOL0     C  461   5.209   8.743   9.297 -0.3603 -0.3252  0.4813
  745MOL0     C  462   5.155   8.853   9.397 -0.0603  0.2996 -0.5493
  745MOL0     C  463   5.156   8.798   9.535  0.3475  0.2880 -0.2220
  745MOL0     O  464   5.183   8.907   9.623 -0.4945 -0.3985  0.1086
  745MOL0     C  465   5.173   8.886   9.757 -0.6622 -0.8009 -0.1082
  745MOL0     C  466   5.264   8.944   9.840 -0.0751  0.9588  0.6057
  745MOL0     C  467   5.266   8.924   9.976 -0.4166  0.7800  0.1874
  745MOL0     C  468   5.386   8.982  10.058 -0.1174  0.6556  0.4622
  745MOL0     C  469   5.168   8.841  10.028 -0.5023 -0.4350  0.7535
  745MOL0     C  470   5.168   8.793  10.166  0.4231 -0.2060  0.7963
  745MOL0     O  471   5.082   8.855  10.247  0.2591  0.0919  0.1102
  745MOL0     C  472   5.059   8.811  10.373  0.9889 -0.0454  0.7285
  745MOL0     C  473   4.921   8.828  10.423 -0.3519 -0.9320 -0.0843
  745MOL0     C  474   4.895   8.800  10.560 -0.4953  0.3386 -0.0999
  745MOL0     C  475   4.992   8.751  10.643  0.1375  0.6388  0.0303
  745MOL0     O  476   4.956   8.728  10.776 -0.2681  0.1715 -0.0628
  745MOL0     C  477   5.018   8.817  10.874 -0.8292 -0.4133  0.4760
  745MOL0     C  478   4.944   8.944  10.868  0.0645 -0.3601  0.0145
  745MOL0     C  479   4.916   8.985  11.012  0.4522 -0.4040  0.5340
  745MOL0     C  480   4.885   9.133  11.025 -0.4961  0.4977  0.4129
  745MOL0     C  481   4.908   9.193  11.162 -0.3361  0.4348 -1.2504
  745MOL0     C  482   4.839   9.329  11.165 -0.6559 -0.0104  0.8446
  745MOL0     C  483   4.861   9.408  11.288  0.0969  0.8090  0.0932
  745MOL0     C  484   4.834   9.560  11.277 -0.4495 -0.2669 -1.0178
  745MOL0    Cl  485   4.830   9.635  11.441  0.2340 -0.2118  0.3418
  745MOL0     C  486   5.124   8.732  10.597 -0.2249  1.0443  0.1121
  745MOL0     C  487   5.162   8.760  10.463  0.1040  0.3444 -0.2414
  745MOL0     O  488   5.234   8.697  10.193 -0.3266  0.0689 -0.2152
  745MOL0     C  489   5.059   8.792   9.943 -0.2609 -0.8586  0.0062
  745MOL0     C  490   5.065   8.816   9.803  0.6937  0.5000 -0.0067
  745MOL0     N  491   5.403   8.688   9.015  0.0432 -0.1900  0.4856
  745MOL0     N  492   5.410   8.588   8.931 -1.0833  0.1329 -0.4199
  745MOL0     C  493   5.885   7.678   8.561  0.1601  0.5609  0.0787
  745MOL0     C  494   6.019   7.684   8.566 -0.0586 -0.3203  0.3481
  745MOL0     C  495   6.437   7.620   8.713 -0.1653  0.1087 -0.2398
  745MOL0     C  496   6.514   7.743   8.700  0.2203  0.9447 -0.5675
  745MOL0     C  497   6.649   7.734   8.704  0.0983  0.1484 -0.5121
  745MOL0     C  498   6.725   7.615   8.708 -1.2502  0.0321 -0.1510
  745MOL0     O  499   6.856   7.609   8.724  0.2100 -0.2069 -0.3152
  745MOL0     C  500   6.926   7.729   8.709 -0.3854  0.2633 -1.4507
  745MOL0     C  501   6.942   7.815   8.836  0.2517  0.7481 -0.4290
  745MOL0     C  502   7.014   7.742   8.951  0.2804  0.2077  0.4070
  745MOL0     C  503   7.060   7.836   9.071 -0.2403  0.2497 -0.5262
  745MOL0     C  504   7.106   7.759   9.192 -0.3762 -0.5275  0.3965
  745MOL0     C  505   7.157   7.697   9.286  0.7139  0.1173  0.5539
  745MOL0     C  506   6.651   7.501   8.727 -0.0926  0.8354 -0.7189
  745MOL0     C  507   6.509   7.496   8.727  1.6304 -0.5409 -0.4386
  745MOL0     H  508   6.068   7.831   8.874  0.7013 -1.6660 -0.9193
  745MOL0     H  509   5.811   7.830   8.857 -0.5528 -2.9704  1.8014
  745MOL0     H  510   5.579   7.569   8.777 -0.3413  1.3498 -1.2227
  745MOL0     H  511   5.638   7.704   8.862  0.3522 -0.3532  0.3160
  745MOL0     H  512   5.442   7.741   8.632  4.3508  3.3749 -1.6269
  745MOL0     H  513   5.382   7.716   8.799  1.1947 -2.5742 -1.4981
  745MOL0     H  514   5.545   7.935   8.858  0.4781 -2.3826 -0.1309
  745MOL0     H  515   5.526   7.965   8.683 -0.1495 -0.3632 -0.3572
  745MOL0     H  516   5.290   7.949   8.686 -1.6502 -1.1206  1.1224
  745MOL0     H  517   5.283   7.919   8.851  1.4503  0.5414  1.4581
  745MOL0     H  518   5.417   8.115   8.905  0.8812 -2.7664  0.8456
  745MOL0     H  519   5.415   8.162   8.723 -1.4263 -1.0144 -0.5079
  745MOL0     H  520   5.180   8.168   8.724 -1.3885 -0.7142 -0.2280
  745MOL0     H  521   5.173   8.111   8.892 -0.2316 -0.4736 -0.9496
  745MOL0     H  522   5.147   8.323   8.953  0.5449  0.2863  0.2558
  745MOL0     H  523   5.319   8.311   8.958 -1.0507  0.9922  1.1303
  745MOL0     H  524   5.145   8.452   8.761 -1.1850 -1.3498  2.3055
  745MOL0     H  525   5.309   8.427   8.722 -1.9203  2.3718 -0.9393
  745MOL0     H  526   5.087   8.641   8.963  0.2494 -0.5642  0.6684
  745MOL0     H  527   5.326   8.886   9.166  0.5627  0.3002  0.3085
  745MOL0     H  528   5.151   8.881   9.126 -1.0278 -2.5988 -1.8265
  745MOL0     H  529   5.309   8.713   9.329  0.7457  0.7118 -1.7741
  745MOL0     H  530   5.137   8.663   9.274  0.1573 -1.1068  1.5385
  745MOL0     H  531   5.050   8.874   9.374 -0.3337 -0.9831 -0.5457
  745MOL0     H  532   5.210   8.948   9.389  0.6109 -0.0424 -0.0843
  745MOL0     H  533   5.231   8.721   9.557 -1.0163 -0.6783  1.3130
  745MOL0     H  534   5.067   8.736   9.551 -0.7695  0.3285 -4.8563
  745MOL0     H  535   5.347   8.995   9.793 -0.7338  0.2560 -1.3965
  745MOL0     H  536   5.380   9.091  10.054  0.3179  0.6338 -1.3031
  745MOL0     H  537   5.395   8.960  10.165  3.2203 -0.4305  0.0672
  745MOL0     H  538   5.474   8.946  10.005  0.3610  1.2211  0.8576
  745MOL0     H  539   4.838   8.871  10.368 -0.4439  0.2854  0.9581
  745MOL0     H  540   4.791   8.796  10.591  0.5334  0.1940  3.8216
  745MOL0     H  541   5.020   8.781  10.978 -0.9334  1.8702  1.3234
  745MOL0     H  542   5.122   8.844  10.857 -0.8315 -0.5279  0.2833
  745MOL0     H  543   5.013   9.022  10.834  1.6295 -0.6414  2.3086
  745MOL0     H  544   4.850   8.948  10.812 -1.3599 -1.5793  2.1695
  745MOL0     H  545   5.007   8.979  11.073 -0.2663  0.7330  1.7610
  745MOL0     H  546   4.833   8.931  11.059 -1.5338  2.0645  0.0889
  745MOL0     H  547   4.952   9.173  10.948  2.0059 -2.0564  1.1014
  745MOL0     H  548   4.788   9.148  10.978  0.3392 -0.5442 -1.7725
  745MOL0     H  549   5.013   9.196  11.192 -0.8355 -2.5840  1.2699
  745MOL0     H  550   4.856   9.125  11.229  0.8964  2.0882  1.5548
  745MOL0     H  551   4.889   9.385  11.085  1.3964 -0.9812  1.3624
  745MOL0     H  552   4.731   9.320  11.150 -0.4435  0.7802 -1.5872
  745MOL0     H  553   4.964   9.392  11.320  0.8896 -0.1002 -2.6843
  745MOL0     H  554   4.792   9.368  11.363 -0.4671  0.5059 -0.5739
  745MOL0     H  555   4.738   9.583  11.230 -1.2046 -0.3589  0.4232
  745MOL0     H  556   4.920   9.600  11.223 -0.6444  0.6879 -0.6463
  745MOL0     H  557   5.206   8.691  10.655  1.2010 -0.0902 -2.5466
  745MOL0     H  558   5.262   8.733  10.430 -0.6034 -0.9592 -1.4230
  745MOL0     H  559   4.972   8.740   9.981 -1.6985  1.8405  0.6754
  745MOL0     H  560   4.984   8.781   9.740  0.2386  2.0090 -0.3099
  745MOL0     H  561   5.825   7.641   8.479  0.4885 -1.2566  0.6086
  745MOL0     H  562   6.085   7.643   8.490  0.3484  0.3143  0.3505
  745MOL0     H  563   6.456   7.833   8.679 -1.4000 -0.1355 -0.9837
  745MOL0     H  564   6.707   7.826   8.709  1.0048 -0.4700  1.3589
  745MOL0     H  565   7.020   7.674   8.699  0.4208  0.8827  1.6324
  745MOL0     H  566   6.891   7.789   8.624 -5.0547  1.8451  1.2325
  745MOL0     H  567   6.853   7.868   8.872 -0.4059 -0.6324  0.0441
  745MOL0     H  568   7.015   7.894   8.819  1.2761 -0.6928 -3.4901
  745MOL0     H  569   7.101   7.698   8.902  0.2010  1.9135 -1.3845
  745MOL0     H  570   6.942   7.672   8.997  0.6732 -0.6239 -0.2170
  745MOL0     H  571   6.966   7.885   9.096 -1.1713 -0.1104 -2.9914
  745MOL0     H  572   7.137   7.908   9.042 -0.5562  0.0149 -2.0659
  745MOL0     H  573   7.188   7.642   9.372 -1.0868  2.2027  2.6938
  745MOL0     H  574   6.711   7.411   8.736 -2.1994 -0.5838 -0.2108
  745MOL0     H  575   6.469   7.403   8.767  4.1546 -0.9472  1.4164
  746MOL0     O  576   2.334   1.375  10.289  0.5607 -0.2936 -0.5913
  746MOL0     C  577   2.336   1.280  10.215 -0.0754  0.1759 -0.9373
  746MOL0     O  578   2.390   1.268  10.092  1.2323  0.3196  0.4499
  746MOL0     C  579   2.461   1.379  10.048 -0.7981 -1.2859 -0.3209
  746MOL0     C  580   2.594   1.391  10.082 -0.4623  0.5449 -0.0755
  746MOL0     C  581   2.670   1.497  10.029 -1.0160 -0.8888  0.2657
  746MOL0     C  582   2.618   1.602   9.948 -0.0633 -1.2071  1.0574
  746MOL0     O  583   2.692   1.705   9.893 -0.0972  0.5426  0.4495
  746MOL0     C  584   2.806   1.735   9.970 -1.0836 -0.3072  0.5710
  746MOL0     C  585   2.837   1.883   9.938  0.9436 -0.1836 -0.2677
  746MOL0     C  586   2.908   1.956  10.053  0.4438  0.1755  0.6322
  746MOL0     C  587   2.917   2.106  10.044  0.3181 -0.3816 -0.1804
  746MOL0     C  588   3.022   2.161   9.944 -0.1021  0.8796 -0.4197
  746MOL0     C  589   3.156   2.119  10.012  0.0161  0.2706  0.0737
  746MOL0     C  590   3.263   2.225   9.998  0.8411 -0.5471 -0.2552
  746MOL0     C  591   3.231   2.347  10.089 -0.0508 -0.2199 -0.8057
  746MOL0     N  592   3.325   2.449  10.062  0.6274 -0.4825 -0.6829
  746MOL0     C  593   3.289   2.576  10.019 -0.7569 -0.5127 -0.1887
  746MOL0     C  594   3.409   2.631   9.990 -0.1187  0.3096 -0.8050
  746MOL0     C  595   3.411   2.752   9.899  0.6836 -0.5906  0.8857
  746MOL0     C  596   3.427   2.890   9.974 -0.3393  0.4432  0.0819
  746MOL0     C  597   3.551   2.876  10.059 -0.1996 -0.2440 -0.2638
  746MOL0     C  598   3.682   2.826   9.988  0.2472 -1.5337  1.0893
  746MOL0     O  599   3.721   2.872   9.846 -0.2929  0.2316  0.7376
  746MOL0     C  600   3.858   2.898   9.833  0.0242 -1.1613  0.3770
  746MOL0     C  601   3.910   3.000   9.750 -0.0910 -0.4009  0.4620
  746MOL0     C  602   4.045   3.021   9.725  0.3199 -0.1856 -0.4298
  746MOL0     C  603   4.078   3.145   9.646 -0.2355 -0.2273  0.0683
  746MOL0     C  604   4.138   2.936   9.779 -0.4087  0.8658 -0.7044
  746MOL0     C  605   4.291   2.959   9.746  0.2220  0.8779  0.4856
  746MOL0     O  606   4.379   2.916   9.842  0.5562  0.3352 -0.6137
  746MOL0     C  607   4.503   2.961   9.842 -0.7997  0.1551  0.3502
  746MOL0     C  608   4.561   3.073   9.905  0.9415 -0.1258 -0.1212
  746MOL0     C  609   4.696   3.088   9.912 -0.4572  0.1222 -0.0390
  746MOL0     C  610   4.782   2.996   9.854  1.1674  0.7101 -0.5573
  746MOL0     O  611   4.920   3.002   9.855 -0.1212 -0.3499 -0.5863
  746MOL0     C  612   4.978   3.130   9.863  0.3064 -0.5510  0.7936
  746MOL0     C  613   5.123   3.120   9.885  0.2834  0.2388  0.1038
  746MOL0     C  614   5.193   3.121   9.753 -0.1386  0.0791  0.2340
  746MOL0     C  615   5.343   3.107   9.754  0.2610 -0.8452 -0.4965
  746MOL0     C  616   5.401   3.108   9.606  0.4198 -0.6503 -0.4741
  746MOL0     C  617   5.551   3.086   9.606  0.5272 -0.0270  0.4866
  746MOL0     C  618   5.607   3.072   9.463 -0.6085 -0.2657  0.3969
  746MOL0     C  619   5.658   2.933   9.416 -1.1814  1.1444  0.1031
  746MOL0    Cl  620   5.808   2.885   9.487  0.7648 -0.4343  0.3609
  746MOL0     C  621   4.720   2.899   9.767 -0.3258 -0.2149  0.3110
  746MOL0     C  622   4.592   2.879   9.770  0.5762  0.3621  0.1700
  746MOL0     O  623   4.323   3.001   9.636 -1.3749  0.5730 -0.3033
  746MOL0     C  624   4.091   2.833   9.868  0.1538  0.8928  0.6809
  746MOL0     C  625   3.953   2.819   9.900  0.0832  0.6986  0.7510
  746MOL0     N  626   3.505   2.543   9.999  0.1327  0.1028  0.4738
  746MOL0     N  627   3.458   2.436  10.052  0.0243 -0.6083  0.6403
  746MOL0     C  628   2.480   1.591   9.921  0.5723  0.8662  0.0053
  746MOL0     C  629   2.403   1.485   9.967 -0.1637  0.1816  0.1404
  746MOL0     C  630   2.239   1.167  10.252  0.3910  0.4500 -0.3140
  746MOL0     C  631   2.204   1.063  10.166  0.8159 -0.9617  0.3908
  746MOL0     C  632   2.123   0.956  10.212  0.1603 -0.2468  0.7099
  746MOL0     C  633   2.073   0.954  10.344  0.4327  0.2892  0.9816
  746MOL0     O  634   2.000   0.844  10.382  0.4983 -0.1775  0.4138
  746MOL0     C  635   1.944   0.838  10.511  1.2344 -0.7430  0.5534
  746MOL0     C  636   2.031   0.811  10.621  0.3478  0.2141 -0.2896
  746MOL0     C  637   1.977   0.826  10.758 -0.5381 -0.0847  0.2786
  746MOL0     C  638   1.886   0.705  10.791  0.4737 -0.1824  0.1799
  746MOL0     C  639   1.747   0.733  10.748  0.7782  0.1346  0.0990
  746MOL0     C  640   1.631   0.762  10.708 -0.6432  0.7260 -0.1607
  746MOL0     C  641   2.101   1.061  10.423  0.1824  0.4797  0.1821
  746MOL0     C  642   2.185   1.158  10.385  0.4471 -0.5611 -0.1776
  746MOL0     H  643   2.644   1.316  10.143  0.3116  1.2331  0.1586
  746MOL0     H  644   2.777   1.495  10.049 -0.5728 -0.5117 -1.7834
  746MOL0     H  645   2.800   1.733  10.079  2.7558 -0.5984  0.9178
  746MOL0     H  646   2.893   1.676   9.937 -2.5473 -1.2152 -1.9475
  746MOL0     H  647   2.908   1.888   9.855 -0.8234  1.0500 -1.7805
  746MOL0     H  648   2.746   1.936   9.907 -0.3815 -0.8250  2.2603
  746MOL0     H  649   2.840   1.940  10.137 -0.6897  0.3004 -0.2364
  746MOL0     H  650   3.001   1.900  10.058 -0.4045 -1.3498  0.0444
  746MOL0     H  651   2.822   2.130   9.995 -1.0042 -0.4663  2.2202
  746MOL0     H  652   2.923   2.147  10.145  0.8376  0.0897 -0.3977
  746MOL0     H  653   3.013   2.115   9.846  3.2506  0.7624 -0.7998
  746MOL0     H  654   3.008   2.269   9.936  0.2407  0.8571 -1.4186
  746MOL0     H  655   3.152   2.089  10.117  0.5428  1.5092  0.4636
  746MOL0     H  656   3.192   2.031   9.957 -1.1357  1.6181 -3.1031
  746MOL0     H  657   3.366   2.190  10.010  2.9899  4.1913 -2.5220
  746MOL0     H  658   3.265   2.250   9.892 -0.6773 -1.1497 -0.4501
  746MOL0     H  659   3.253   2.315  10.191  2.4053 -1.8774 -1.7712
  746MOL0     H  660   3.129   2.385  10.074 -0.3584 -0.4236  0.6348
  746MOL0     H  661   3.197   2.625   9.986  0.5855  3.0246  0.8719
  746MOL0     H  662   3.480   2.751   9.814 -0.4823  0.8212 -0.1340
  746MOL0     H  663   3.317   2.744   9.843  0.8762  1.7385  0.0882
  746MOL0     H  664   3.338   2.913  10.034 -0.2666 -1.8303  1.1899
  746MOL0     H  665   3.439   2.970   9.900  2.7123 -1.4995 -1.7651
  746MOL0     H  666   3.540   2.812  10.147  1.3840  0.9235  0.8470
  746MOL0     H  667   3.559   2.973  10.110 -3.6066 -0.1311  0.2887
  746MOL0     H  668   3.688   2.718   9.968  1.8870 -1.0535 -1.5772
  746MOL0     H  669   3.758   2.841  10.065 -0.3823  1.3915  1.2361
  746MOL0     H  670   3.830   3.064   9.715 -1.6845 -2.7381 -0.4397
  746MOL0     H  671   4.084   3.139   9.537  0.5662  2.1785 -0.0887
  746MOL0     H  672   4.013   3.227   9.680  1.3616  0.8644  0.6354
  746MOL0     H  673   4.177   3.173   9.684  0.1965 -0.2920 -0.9898
  746MOL0     H  674   4.482   3.125   9.957  1.4701 -0.4857  1.0713
  746MOL0     H  675   4.742   3.161   9.979  1.4081 -1.1666  0.1743
  746MOL0     H  676   4.948   3.182   9.772 -1.5622  0.2440  1.8074
  746MOL0     H  677   4.934   3.183   9.948 -0.7358  0.4044 -0.3007
  746MOL0     H  678   5.158   3.208   9.939 -0.0787  1.0968 -1.0443
  746MOL0     H  679   5.165   3.029   9.930  3.7160  1.3364 -0.5851
  746MOL0     H  680   5.175   3.218   9.706 -1.4586 -0.7828 -1.1083
  746MOL0     H  681   5.155   3.047   9.682 -1.3359  1.5563 -0.7269
  746MOL0     H  682   5.374   3.186   9.823 -3.8158  2.2016 -1.7032
  746MOL0     H  683   5.362   3.012   9.804  2.9226 -0.3874 -0.5110
  746MOL0     H  684   5.377   3.205   9.562  3.7095  0.8584  0.6996
  746MOL0     H  685   5.349   3.024   9.559 -0.4152 -3.7832  5.0610
  746MOL0     H  686   5.605   3.167   9.655  3.6692 -1.1586 -0.8756
  746MOL0     H  687   5.581   2.996   9.661 -0.2398  0.0684  1.0830
  746MOL0     H  688   5.687   3.146   9.458 -0.3722 -0.6004 -2.5490
  746MOL0     H  689   5.543   3.098   9.379  0.0321  1.1644  0.3139
  746MOL0     H  690   5.673   2.937   9.307  0.8055 -1.4181  0.1674
  746MOL0     H  691   5.585   2.856   9.442 -2.6004  3.5689  4.1942
  746MOL0     H  692   4.787   2.845   9.702  0.2909  2.3554 -1.3261
  746MOL0     H  693   4.544   2.792   9.727 -2.8334  2.7270 -1.3253
  746MOL0     H  694   4.160   2.755   9.899 -1.3776  0.1530  2.3564
  746MOL0     H  695   3.917   2.739   9.964  0.6232  1.8952  2.6121
  746MOL0     H  696   2.443   1.673   9.860 -0.1091 -1.6974 -3.3148
  746MOL0     H  697   2.298   1.476   9.938 -0.6021 -0.3063  1.7505
  746MOL0     H  698   2.248   1.070  10.066  0.0313  0.5382  0.1172
  746MOL0     H  699   2.105   0.872  10.146 -0.9093  0.8310 -0.4241
  746MOL0     H  700   1.874   0.921  10.522 -0.6493 -1.7545 -2.4387
  746MOL0     H  701   1.869   0.758  10.508 -1.2922  1.4828  0.7570
  746MOL0     H  702   2.114   0.882  10.619  1.5616 -1.1633 -0.0340
  746MOL0     H  703   2.061   0.706  10.612 -1.4465 -0.2152 -1.9078
  746MOL0     H  704   1.920   0.917  10.780 -0.2552 -0.0162  0.7563
  746MOL0     H  705   2.062   0.830  10.826  0.6546  0.9949 -1.1992
  746MOL0     H  706   1.887   0.697  10.900 -0.7905 -0.5279  0.1730
  746MOL0     H  707   1.923   0.613  10.744 -0.3147 -0.1321 -0.5662
  746MOL0     H  708   1.542   0.798  10.661 -0.3138 -0.0609 -1.4267
  746MOL0     H  709   2.073   1.071  10.527 -1.1518 -2.7583  0.2545
  746MOL0     H  710   2.213   1.237  10.454 -2.7864 -1.3841  2.3045
  747MOL0     O  711   7.558   8.825   1.250  0.9233 -0.4004 -0.4021
  747MOL0     C  712   7.475   8.856   1.163  0.2871 -0.1683 -0.5392
  747MOL0     O  713   7.477   8.822   1.027  0.3915  0.7508  0.2497
  747MOL0     C  714   7.568   8.733   0.979 -0.5139  0.5229 -1.0982
  747MOL0     C  715   7.586   8.754   0.844 -0.6296  0.2321 -0.2430
  747MOL0     C  716   7.691   8.675   0.782 -0.0350  0.0374 -0.6513
  747MOL0     C  717   7.762   8.573   0.858  0.3578 -0.5462 -0.6839
  747MOL0     O  718   7.864   8.496   0.812  0.6888  0.2815  0.2147
  747MOL0     C  719   7.907   8.501   0.673  0.9755  0.4116  0.0122
  747MOL0     C  720   8.051   8.459   0.656 -0.4716  0.7464 -0.8432
  747MOL0     C  721   8.068   8.314   0.623  0.1391  0.0311  0.0911
  747MOL0     C  722   8.161   8.300   0.494 -0.2272 -0.8690 -0.7155
  747MOL0     C  723   8.212   8.172   0.450 -1.2175 -0.3001 -0.3897
  747MOL0     C  724   8.336   8.180   0.353  0.1062  0.5278  0.5027
  747MOL0     C  725   8.394   8.045   0.316  0.1230 -0.5688 -1.0179
  747MOL0     C  726   8.515   8.058   0.218  0.5968  0.0590 -0.0921
  747MOL0     N  727   8.612   8.150   0.275 -1.1857  1.2025 -0.3032
  747MOL0     C  728   8.706   8.126   0.369  0.4628 -0.0251 -0.4869
  747MOL0     C  729   8.785   8.238   0.386  0.4390  0.9400 -0.0383
  747MOL0     C  730   8.909   8.265   0.477 -0.0555 -0.7583 -0.3500
  747MOL0     C  731   8.891   8.287   0.626 -0.2281  0.1885 -1.4448
  747MOL0     C  732   9.017   8.278   0.707 -1.2301 -0.1038  0.1022
  747MOL0     C  733   9.135   8.371   0.686  0.3216 -0.5672  0.3559
  747MOL0     O  734   9.235   8.319   0.775  0.4178 -0.2481  0.4823
  747MOL0     C  735   9.235   8.338   0.911  0.6014  0.2764 -0.1783
  747MOL0     C  736   9.345   8.289   0.979 -1.2432 -0.3305 -0.0061
  747MOL0     C  737   9.361   8.285   1.122  0.5028 -0.4370 -0.0072
  747MOL0     C  738   9.490   8.232   1.165  0.6491 -0.1723 -0.5398
  747MOL0     C  739   9.253   8.347   1.203 -0.8105 -0.5650  0.5550
  747MOL0     C  740   9.265   8.364   1.350  1.1001 -0.3390 -0.1971
  747MOL0     O  741   9.358   8.300   1.424 -0.5735 -0.4228  0.1482
  747MOL0     C  742   9.367   8.325   1.563 -0.4574 -1.0810 -0.0526
  747MOL0     C  743   9.493   8.292   1.614  0.3272 -0.1730 -0.0985
  747MOL0     C  744   9.541   8.329   1.739  0.4216  1.0561  0.6726
  747MOL0     C  745   9.457   8.389   1.830  0.1194  0.9542 -0.2489
  747MOL0     O  746   9.507   8.419   1.958  0.1309 -0.1056  0.0107
  747MOL0     C  747   9.422   8.518   2.034  0.1636  0.6563 -0.8461
  747MOL0     C  748   9.498   8.574   2.155  0.0635 -0.0160 -0.4381
  747MOL0     C  749   9.399   8.636   2.254  0.0810 -0.1084 -0.6091
  747MOL0     C  750   9.461   8.730   2.369  0.4659  0.3585 -0.6632
  747MOL0     C  751   9.351   8.795   2.451 -0.6707  0.3137 -1.3717
  747MOL0     C  752   9.275   8.902   2.377 -0.4505 -0.5010  0.6029
  747MOL0     C  753   9.174   8.973   2.477 -0.4340  0.0573 -0.1086
  747MOL0     C  754   9.068   9.061   2.400 -0.0953 -0.2882 -0.0316
  747MOL0    Cl  755   8.918   8.973   2.373 -0.0022 -0.4112  0.5182
  747MOL0     C  756   9.327   8.414   1.786 -0.2087 -1.5081  0.9768
  747MOL0     C  757   9.284   8.382   1.654  0.8729 -0.8764  1.0139
  747MOL0     O  758   9.180   8.440   1.397  0.0849 -0.0685  0.0355
  747MOL0     C  759   9.142   8.407   1.130 -1.5969  0.8844  0.6358
  747MOL0     C  760   9.134   8.394   0.996  0.0362 -0.4254 -0.3776
  747MOL0     N  761   8.737   8.333   0.300  0.0720  0.1013  0.4900
  747MOL0     N  762   8.642   8.278   0.224  0.1983  0.4927  0.4546
  747MOL0     C  763   7.720   8.543   0.992  0.0531  0.3784 -0.0794
  747MOL0     C  764   7.627   8.628   1.047 -0.3741  0.2683  0.0481
  747MOL0     C  765   7.362   8.940   1.208 -1.4162 -0.1345  0.3574
  747MOL0     C  766   7.298   9.028   1.122  0.1890 -0.7037  0.0197
  747MOL0     C  767   7.188   9.098   1.160  0.2847  0.3588 -1.1180
  747MOL0     C  768   7.130   9.075   1.287 -0.6674  0.6471 -0.1277
  747MOL0     O  769   7.005   9.124   1.312  0.0289  0.4091 -0.4432
  747MOL0     C  770   6.946   9.090   1.447  0.8334  0.1488  0.2437
  747MOL0     C  771   6.808   9.142   1.425  1.2823  0.8933  0.1114
  747MOL0     C  772   6.727   9.067   1.312 -0.2952  0.4004 -0.6312
  747MOL0     C  773   6.579   9.103   1.309  0.3426  0.2458  0.6505
  747MOL0     C  774   6.560   9.241   1.245  0.3508  0.3984 -1.0427
  747MOL0     C  775   6.530   9.346   1.192  0.4761  0.0750  0.5219
  747MOL0     C  776   7.200   8.997   1.380  0.1020 -0.6177 -0.0670
  747MOL0     C  777   7.315   8.930   1.337 -0.1013 -0.1123 -0.0396
  747MOL0     H  778   7.526   8.820   0.782 -1.1996  0.0493  0.1075
  747MOL0     H  779   7.705   8.692   0.676  0.2128 -1.8948 -0.9603
  747MOL0     H  780   7.850   8.432   0.610  2.5209 -1.6118  0.7268
  747MOL0     H  781   7.884   8.603   0.641 -2.8926  0.4255  2.1733
  747MOL0     H  782   8.086   8.517   0.569  4.0769 -3.0446 -1.9818
  747MOL0     H  783   8.110   8.481   0.746  0.5704 -1.6143 -0.8713
  747MOL0     H  784   8.134   8.273   0.700 -1.0813 -0.9845  0.6424
  747MOL0     H  785   7.972   8.260   0.615 -0.4768  1.1108  0.0302
  747MOL0     H  786   8.100   8.344   0.415  0.9562  0.3427 -0.9900
  747MOL0     H  787   8.247   8.364   0.516 -2.2838  2.2149 -0.9829
  747MOL0     H  788   8.253   8.135   0.544  1.0882  1.2631 -0.7109
  747MOL0     H  789   8.126   8.111   0.420 -0.8833 -0.9622 -0.0194
  747MOL0     H  790   8.316   8.239   0.263  2.0354  1.1996  0.4856
  747MOL0     H  791   8.407   8.235   0.416 -1.1664  0.7002  1.8531
  747MOL0     H  792   8.434   8.001   0.408 -1.6570  0.6607  0.4168
  747MOL0     H  793   8.320   7.977   0.273 -2.0285  0.1814  1.1970
  747MOL0     H  794   8.481   8.096   0.121  0.4223 -2.2570 -0.9891
  747MOL0     H  795   8.567   7.963   0.203  2.2356  1.1608 -1.8877
  747MOL0     H  796   8.720   8.040   0.433 -3.1735  0.5417  1.3269
  747MOL0     H  797   8.981   8.182   0.474  0.6119 -0.1538 -1.5803
  747MOL0     H  798   8.969   8.350   0.443  1.3757 -0.8530  1.7450
  747MOL0     H  799   8.831   8.207   0.670  0.3021  0.4165 -0.2655
  747MOL0     H  800   8.834   8.378   0.646 -0.9179 -0.9163  2.3843
  747MOL0     H  801   9.050   8.174   0.707  1.0100  0.5060 -2.0759
  747MOL0     H  802   8.975   8.281   0.808 -1.7076 -1.0745 -0.0467
  747MOL0     H  803   9.103   8.473   0.707  1.8982  0.1518 -0.5910
  747MOL0     H  804   9.172   8.363   0.583  2.4119 -0.7223  1.0797
  747MOL0     H  805   9.432   8.253   0.925  1.2756  2.4328  1.8892
  747MOL0     H  806   9.474   8.143   1.227  1.0885  1.6861  2.4362
  747MOL0     H  807   9.550   8.199   1.080  1.0201  0.5964 -0.5791
  747MOL0     H  808   9.550   8.306   1.219  1.4647 -0.5340 -0.9424
  747MOL0     H  809   9.564   8.248   1.546 -0.3228 -2.0125  0.3586
  747MOL0     H  810   9.646   8.318   1.765  0.5438  2.5609  0.9458
  747MOL0     H  811   9.384   8.596   1.968  1.9654  1.8558 -0.5409
  747MOL0     H  812   9.333   8.461   2.063  1.6540 -1.9004 -0.9168
  747MOL0     H  813   9.551   8.497   2.211  1.5881  1.1302 -0.2201
  747MOL0     H  814   9.566   8.654   2.124  0.9727  0.1131  1.7229
  747MOL0     H  815   9.357   8.556   2.315  1.0738  0.2404  0.5660
  747MOL0     H  816   9.318   8.692   2.206 -2.0882 -2.7343 -0.2164
  747MOL0     H  817   9.528   8.672   2.433 -1.2255 -0.2255  0.6760
  747MOL0     H  818   9.530   8.804   2.328  2.2795 -0.7568  0.2473
  747MOL0     H  819   9.388   8.844   2.542  0.8295  0.9588 -2.2948
  747MOL0     H  820   9.285   8.718   2.492  1.6386 -0.1328  1.9423
  747MOL0     H  821   9.353   8.965   2.332 -1.2848 -1.1999 -2.0266
  747MOL0     H  822   9.218   8.853   2.297  0.2056 -2.3348  1.2058
  747MOL0     H  823   9.225   9.032   2.553  1.0342 -2.3476  0.8804
  747MOL0     H  824   9.119   8.896   2.531 -0.2396  0.7465  1.1148
  747MOL0     H  825   9.112   9.083   2.302 -0.5008 -0.8372 -0.3441
  747MOL0     H  826   9.052   9.160   2.443  0.3444  0.0353 -0.5953
  747MOL0     H  827   9.248   8.449   1.850 -1.4023 -2.1596 -0.0880
  747MOL0     H  828   9.188   8.419   1.621  0.1373 -2.5683  1.1207
  747MOL0     H  829   9.060   8.453   1.185 -1.3757 -1.6686  3.3489
  747MOL0     H  830   9.050   8.445   0.949  1.3603  4.0009  1.5113
  747MOL0     H  831   7.775   8.465   1.044  2.5240  1.3923 -1.0481
  747MOL0     H  832   7.597   8.609   1.149 -0.7533 -1.0131 -0.2890
  747MOL0     H  833   7.346   9.050   1.028  2.0798  0.2949  1.1472
  747MOL0     H  834   7.150   9.174   1.092 -0.8599  0.3827 -0.4814
  747MOL0     H  835   6.947   8.983   1.468  0.9724 -0.3720 -2.0985
  747MOL0     H  836   6.984   9.147   1.532 -0.1590  1.7679 -0.3571
  747MOL0     H  837   6.812   9.250   1.408  2.2746  0.6661 -1.2429
  747MOL0     H  838   6.757   9.109   1.516  1.2255 -0.3989 -0.3706
  747MOL0     H  839   6.732   8.958   1.324 -0.9295  0.3107 -1.1132
  747MOL0     H  840   6.779   9.090   1.218  3.4990 -0.8685  0.9510
  747MOL0     H  841   6.544   9.089   1.411  0.6241  4.3469  1.4767
  747MOL0     H  842   6.521   9.033   1.248  2.4963 -2.3953  1.4233
  747MOL0     H  843   6.504   9.440   1.148  4.2764  0.7168 -0.7831
  747MOL0     H  844   7.172   9.003   1.485  2.5552  2.1477  0.5690
  747MOL0     H  845   7.358   8.863   1.410  1.3793  2.4475  1.6325
  748MOL0     O  846  10.410  11.485   0.772 -0.0890  0.1848  0.6777
  748MOL0     C  847  10.375  11.381   0.707  0.7704 -0.3249 -0.4000
  748MOL0     O  848  10.389  11.364   0.579 -0.3069  0.3524  0.2184
  748MOL0     C  849  10.468  11.461   0.517  0.0103  0.1423 -0.9861
  748MOL0     C  850  10.604  11.466   0.534 -0.0296 -1.4218  0.1002
  748MOL0     C  851  10.686  11.550   0.452  0.9093 -0.2532  0.5431
  748MOL0     C  852  10.624  11.642   0.363  0.9157 -0.3388 -0.4042
  748MOL0     O  853  10.702  11.723   0.285  0.3397 -0.2446 -0.3309
  748MOL0     C  854  10.643  11.778   0.169 -0.5863 -0.4845  0.9044
  748MOL0     C  855  10.742  11.874   0.105 -0.6371 -0.1646 -0.4889
  748MOL0     C  856  10.678  11.934  -0.016  0.3586  0.0701 -0.0671
  748MOL0     C  857  10.787  12.016  -0.082 -0.1685 -0.1192  0.3082
  748MOL0     C  858  10.722  12.090  -0.201  0.8606 -0.0794  0.2384
  748MOL0     C  859  10.810  12.200  -0.252 -0.5342 -0.5760 -0.1165
  748MOL0     C  860  10.743  12.275  -0.367  0.2936  0.3825  0.7031
  748MOL0     C  861  10.760  12.429  -0.347 -0.9968 -0.2191 -0.2596
  748MOL0     N  862  10.730  12.512  -0.465 -0.3427  0.2719  0.0042
  748MOL0     C  863  10.678  12.642  -0.474  0.4980 -0.4120  0.0116
  748MOL0     C  864  10.678  12.671  -0.607  0.8609 -0.6026  0.8809
  748MOL0     C  865  10.618  12.795  -0.679  0.1841  0.2945 -0.2331
  748MOL0     C  866  10.693  12.820  -0.809  0.4352 -0.0489  0.5114
  748MOL0     C  867  10.627  12.946  -0.866 -1.0026 -1.0058 -0.2311
  748MOL0     C  868  10.706  13.019  -0.975  0.7171 -0.3375  0.4223
  748MOL0     O  869  10.843  13.038  -0.924  0.5176  0.6891  1.1424
  748MOL0     C  870  10.948  13.035  -1.012 -0.1897  0.6057  0.3815
  748MOL0     C  871  10.934  13.067  -1.148 -0.0235 -0.2052  0.2209
  748MOL0     C  872  11.045  13.066  -1.231 -0.4480  0.2132  0.5304
  748MOL0     C  873  11.025  13.124  -1.372 -0.1863  0.5397  0.2221
  748MOL0     C  874  11.182  13.032  -1.182  0.8708 -1.0966  0.1632
  748MOL0     C  875  11.300  13.050  -1.258 -0.0262  0.4377 -0.1034
  748MOL0     O  876  11.383  12.956  -1.243  0.1884 -0.3391  0.2071
  748MOL0     C  877  11.508  12.981  -1.288  0.3639  1.2776 -0.4810
  748MOL0     C  878  11.557  12.934  -1.411 -0.0984 -0.9579  0.4064
  748MOL0     C  879  11.693  12.954  -1.457  0.4064 -0.0365  0.4617
  748MOL0     C  880  11.785  13.011  -1.365 -0.2150  0.6100  0.1967
  748MOL0     O  881  11.914  13.012  -1.392 -0.1762 -0.1850  0.1959
  748MOL0     C  882  11.953  13.146  -1.427  0.5244 -0.5082 -0.0680
  748MOL0     C  883  12.090  13.144  -1.478 -0.3207  0.2882  0.4355
  748MOL0     C  884  12.164  13.280  -1.477  0.3271  0.6112 -0.5355
  748MOL0     C  885  12.081  13.383  -1.556 -1.1896 -0.1377  0.8726
  748MOL0     C  886  12.030  13.342  -1.700  0.1284 -0.4873  0.0276
  748MOL0     C  887  11.946  13.449  -1.757  0.8771  0.1054  0.4401
  748MOL0     C  888  11.969  13.463  -1.906  0.1356 -0.3759 -0.4029
  748MOL0     C  889  11.897  13.590  -1.959 -0.2577  0.6108 -0.1014
  748MOL0    Cl  890  11.969  13.752  -1.935 -0.3859 -0.2414  0.3446
  748MOL0     C  891  11.729  13.062  -1.249 -0.1409 -1.3338  0.6279
  748MOL0     C  892  11.593  13.048  -1.209  0.4588  0.4868  0.1202
  748MOL0     O  893  11.314  13.153  -1.321  0.2809 -0.1057  0.4056
  748MOL0     C  894  11.189  12.993  -1.044 -0.2346 -0.6260  1.1259
  748MOL0     C  895  11.072  12.994  -0.966 -0.8459  0.2790 -0.3971
  748MOL0     N  896  10.745  12.570  -0.671  0.2531 -0.0958 -0.3670
  748MOL0     N  897  10.773  12.472  -0.588  0.7266 -0.4844  0.0482
  748MOL0     C  898  10.482  11.644   0.365 -0.0105  0.1964  0.2350
  748MOL0     C  899  10.405  11.551   0.435 -0.7583  0.6461 -0.5789
  748MOL0     C  900  10.302  11.269   0.766  1.2114  0.9096  0.2070
  748MOL0     C  901  10.206  11.286   0.871 -0.1958 -0.0383 -0.1952
  748MOL0     C  902  10.113  11.192   0.901  0.0148  0.0538 -0.1573
  748MOL0     C  903  10.134  11.061   0.866  0.0864  0.3193  0.9753
  748MOL0     O  904  10.051  10.972   0.924 -0.6993 -0.0806  0.5843
  748MOL0     C  905  10.038  10.846   0.864 -0.0160 -0.6046  0.8906
  748MOL0     C  906   9.909  10.780   0.911 -0.3408  0.0659  0.1716
  748MOL0     C  907   9.927  10.624   0.893 -0.4693 -0.3472 -0.6225
  748MOL0     C  908   9.919  10.575   0.737 -1.2105 -0.4266  1.2706
  748MOL0     C  909  10.014  10.463   0.703 -0.6951 -0.1717  0.4468
  748MOL0     C  910  10.114  10.403   0.649  0.2670 -0.3090 -0.5354
  748MOL0     C  911  10.233  11.035   0.766  0.0216 -0.1603 -0.2159
  748MOL0     C  912  10.310  11.136   0.713  0.0777  0.0496 -0.8262
  748MOL0     H  913  10.647  11.396   0.605  4.0525  0.9333  0.2552
  748MOL0     H  914  10.791  11.553   0.479  0.3399 -4.1306  4.2956
  748MOL0     H  915  10.617  11.703   0.093 -0.6863  1.8761 -1.5790
  748MOL0     H  916  10.556  11.841   0.191 -0.3850  0.2521 -0.2877
  748MOL0     H  917  10.764  11.954   0.177  1.1224 -0.2291 -0.8977
  748MOL0     H  918  10.844  11.837   0.086 -0.0412  1.2655 -0.2432
  748MOL0     H  919  10.657  11.851  -0.084  1.3316 -2.4265  2.4750
  748MOL0     H  920  10.588  11.993   0.001  1.7749  2.0758  0.8661
  748MOL0     H  921  10.842  12.076  -0.009 -0.1545  3.2519 -2.2738
  748MOL0     H  922  10.868  11.953  -0.121  0.7094 -0.4848  2.5697
  748MOL0     H  923  10.713  12.021  -0.285  0.3014 -0.7429  0.8236
  748MOL0     H  924  10.625  12.136  -0.178 -0.6885 -1.7657 -2.3505
  748MOL0     H  925  10.815  12.272  -0.170  2.0525  0.7280 -1.3129
  748MOL0     H  926  10.917  12.187  -0.267 -0.7991 -1.1484 -1.6489
  748MOL0     H  927  10.792  12.245  -0.460 -0.4667  1.7989 -0.1910
  748MOL0     H  928  10.636  12.255  -0.375  0.1959 -0.1030  2.7094
  748MOL0     H  929  10.866  12.446  -0.329 -0.2158 -0.9643 -3.5019
  748MOL0     H  930  10.696  12.467  -0.267  0.3307  2.7565 -0.4629
  748MOL0     H  931  10.653  12.721  -0.404  2.4230 -0.7528  1.1688
  748MOL0     H  932  10.512  12.773  -0.696  0.2430  0.9739 -1.6055
  748MOL0     H  933  10.623  12.884  -0.616 -1.5504  1.3270 -1.4517
  748MOL0     H  934  10.689  12.742  -0.886 -2.4053  1.7816 -1.3775
  748MOL0     H  935  10.800  12.824  -0.790  0.5083  0.8013 -0.0141
  748MOL0     H  936  10.602  13.021  -0.790 -2.1243 -2.1133  0.5500
  748MOL0     H  937  10.524  12.928  -0.898 -1.0720  0.7425 -1.1069
  748MOL0     H  938  10.651  13.112  -0.990 -1.1546 -0.9738  2.7099
  748MOL0     H  939  10.703  12.965  -1.070  2.5928 -0.5766  0.4480
  748MOL0     H  940  10.832  13.086  -1.179  0.0870  1.5023  0.7873
  748MOL0     H  941  11.062  13.047  -1.440  4.2865  2.1601  0.4819
  748MOL0     H  942  10.918  13.139  -1.393 -0.4685 -0.1378  1.1401
  748MOL0     H  943  11.079  13.219  -1.385 -1.8123  1.4627 -0.1240
  748MOL0     H  944  11.485  12.887  -1.478  0.6002 -1.9252  0.3104
  748MOL0     H  945  11.729  12.940  -1.558  0.0224  1.2963  0.1145
  748MOL0     H  946  11.880  13.186  -1.498 -1.4596  1.2853  2.7616
  748MOL0     H  947  11.953  13.202  -1.333  0.5603 -0.4782 -0.0860
  748MOL0     H  948  12.151  13.079  -1.415  2.0929  0.9793 -1.0872
  748MOL0     H  949  12.106  13.109  -1.580  0.8281  4.5141 -1.0289
  748MOL0     H  950  12.269  13.273  -1.506 -0.2101 -0.3186 -2.4706
  748MOL0     H  951  12.176  13.319  -1.375  3.3829  2.2949 -1.4270
  748MOL0     H  952  11.999  13.409  -1.489  1.1874 -1.0521  4.3711
  748MOL0     H  953  12.139  13.475  -1.571 -1.9668  0.5177  1.8230
  748MOL0     H  954  11.989  13.241  -1.713  0.9814 -0.5377 -2.8559
  748MOL0     H  955  12.120  13.327  -1.761  0.0502 -2.3069  0.2868
  748MOL0     H  956  11.844  13.438  -1.721  0.4224 -0.3152 -0.9328
  748MOL0     H  957  11.988  13.540  -1.713  4.2990  0.8841 -3.6731
  748MOL0     H  958  11.927  13.372  -1.949 -2.5550 -0.4635  2.0787
  748MOL0     H  959  12.075  13.465  -1.933 -0.1384  0.3844 -1.5150
  748MOL0     H  960  11.790  13.585  -1.936 -0.6315  0.4776 -1.7446
  748MOL0     H  961  11.891  13.585  -2.068  4.1409 -2.4189 -0.4403
  748MOL0     H  962  11.798  13.098  -1.173 -0.6141  3.4958 -0.8781
  748MOL0     H  963  11.551  13.098  -1.122 -0.7162  0.9690 -0.7030
  748MOL0     H  964  11.284  12.987  -0.991 -0.1997  1.5742  1.4175
  748MOL0     H  965  11.073  12.977  -0.859  2.5898  2.4401  0.0811
  748MOL0     H  966  10.419  11.718   0.316 -3.6046 -3.1860 -0.8147
  748MOL0     H  967  10.297  11.555   0.430 -0.7305  0.2683 -1.6615
  748MOL0     H  968  10.201  11.383   0.920 -0.5484 -1.3665  2.6381
  748MOL0     H  969  10.033  11.223   0.968 -2.1095 -2.6679 -1.2085
  748MOL0     H  970  10.029  10.859   0.756 -0.1003 -1.7645  0.7426
  748MOL0     H  971  10.127  10.786   0.888  0.6736 -0.6774 -1.5667
  748MOL0     H  972   9.817  10.809   0.859 -0.3146  1.4684  0.8534
  748MOL0     H  973   9.878  10.803   1.013 -0.0130  0.2042  0.2411
  748MOL0     H  974   9.846  10.574   0.946 -0.1544  2.6015  3.0395
  748MOL0     H  975  10.021  10.590   0.938 -1.5204 -1.1316  1.0572
  748MOL0     H  976   9.948  10.656   0.669  0.5551 -2.7973 -1.0095
  748MOL0     H  977   9.814  10.553   0.714 -0.3006 -0.1759 -4.6192
  748MOL0     H  978  10.204  10.356   0.615  1.0036  1.8142 -1.7122
  748MOL0     H  979  10.243  10.931   0.739 -1.0705  0.0861 -1.6761
  748MOL0     H  980  10.383  11.100   0.640 -0.7536 -1.6831 -0.8463
  749MOL0     O  981   4.927   7.482   6.315 -0.5550  0.4646  0.4539
  749MOL0     C  982   4.917   7.360   6.347  0.2727 -0.3675 -0.4903
  749MOL0     O  983   4.861   7.318   6.469 -0.3988 -0.3483  0.2130
  749MOL0     C  984   4.867   7.401   6.578  0.6407  0.2393  0.7428
  749MOL0     C  985   4.762   7.370   6.670 -0.3160  0.2746  0.6777
  749MOL0     C  986   4.738   7.430   6.796  0.1189 -1.5020  0.1330
  749MOL0     C  987   4.833   7.529   6.836  0.2641  0.5232 -1.0991
  749MOL0     O  988   4.833   7.609   6.953  0.4493  0.1697  0.2873
  749MOL0     C  989   4.737   7.587   7.058 -0.0528  0.3191  1.0580
  749MOL0     C  990   4.766   7.688   7.165 -0.0213 -0.4863 -0.6659
  749MOL0     C  991   4.676   7.674   7.293 -0.6732  0.5630 -0.3436
  749MOL0     C  992   4.713   7.775   7.406  0.2015  0.0842 -0.6980
  749MOL0     C  993   4.610   7.779   7.514  1.1344  0.3723 -1.0161
  749MOL0     C  994   4.675   7.847   7.632  0.0447 -0.2092  0.3518
  749MOL0     C  995   4.584   7.826   7.755 -0.9267 -0.3821 -0.2872
  749MOL0     C  996   4.621   7.937   7.862 -0.5040  0.8869 -0.1924
  749MOL0     N  997   4.552   8.055   7.844 -0.2734 -0.0441  0.2667
  749MOL0     C  998   4.514   8.144   7.935  0.7028  0.2481 -0.0135
  749MOL0     C  999   4.453   8.238   7.867 -0.9571 -0.0144  0.7451
  749MOL0     C 1000   4.401   8.376   7.926 -0.0474  0.1292 -0.0097
  749MOL0     C 1001   4.411   8.482   7.818  0.0713 -0.1604 -0.2271
  749MOL0     C 1002   4.331   8.608   7.871  0.4499 -0.0269  0.3524
  749MOL0     C 1003   4.341   8.719   7.763  0.3688 -0.6905 -0.0281
  749MOL0     O 1004   4.265   8.681   7.645 -0.3915 -0.1457  0.1683
  749MOL0     C 1005   4.317   8.633   7.524 -0.0618  0.6177  0.5370
  749MOL0     C 1006   4.459   8.602   7.495 -0.0051  0.4410  0.0151
  749MOL0     C 1007   4.502   8.560   7.368  0.4252  0.1110  0.6977
  749MOL0     C 1008   4.653   8.543   7.343 -0.2344  0.2706 -0.1202
  749MOL0     C 1009   4.407   8.545   7.266 -0.0249 -0.0261  0.5899
  749MOL0     C 1010   4.434   8.512   7.119 -0.7076 -0.0647 -0.1477
  749MOL0     O 1011   4.550   8.566   7.066 -0.5478 -0.2668 -0.1151
  749MOL0     C 1012   4.608   8.523   6.949 -0.6819 -0.2463  0.1909
  749MOL0     C 1013   4.699   8.616   6.898 -1.2451  0.6088 -0.2413
  749MOL0     C 1014   4.751   8.592   6.773  1.4948 -0.0534 -0.1425
  749MOL0     C 1015   4.717   8.483   6.694 -0.3771  0.5300 -0.1369
  749MOL0     O 1016   4.769   8.467   6.569 -0.1174 -0.8792 -0.0440
  749MOL0     C 1017   4.696   8.384   6.476  0.1087 -0.7748 -0.3066
  749MOL0     C 1018   4.735   8.402   6.329 -0.7254 -0.1499 -0.2235
  749MOL0     C 1019   4.650   8.316   6.237  0.7681 -0.0214  0.6909
  749MOL0     C 1020   4.706   8.292   6.103 -0.3666 -0.4878 -0.6509
  749MOL0     C 1021   4.586   8.280   6.002 -0.9211 -0.0390  0.2136
  749MOL0     C 1022   4.622   8.214   5.867 -0.9364  0.3460 -0.0115
  749MOL0     C 1023   4.519   8.247   5.759 -0.1046  0.2795 -0.2535
  749MOL0     C 1024   4.548   8.177   5.634  0.1540 -0.1434  0.2979
  749MOL0    Cl 1025   4.457   8.253   5.493  0.2225  0.4780  0.3652
  749MOL0     C 1026   4.625   8.388   6.751 -0.3787 -0.1313  0.0295
  749MOL0     C 1027   4.563   8.415   6.873 -0.4110  0.3285 -0.1814
  749MOL0     O 1028   4.346   8.451   7.060  0.0083  0.0966 -0.5273
  749MOL0     C 1029   4.271   8.571   7.297 -0.1699 -0.3587  0.8213
  749MOL0     C 1030   4.220   8.612   7.424 -0.8138 -0.0498  0.3360
  749MOL0     N 1031   4.450   8.210   7.731  0.4145 -0.2707  0.7805
  749MOL0     N 1032   4.504   8.093   7.722 -0.3796 -0.1656  0.7185
  749MOL0     C 1033   4.934   7.560   6.749  0.4695 -0.1345  0.4323
  749MOL0     C 1034   4.958   7.500   6.620  0.1773  0.9378 -0.2126
  749MOL0     C 1035   4.930   7.266   6.231  0.0436 -0.6189 -0.3251
  749MOL0     C 1036   4.952   7.313   6.102 -0.4902 -0.2776  0.7745
  749MOL0     C 1037   4.958   7.223   5.990 -0.0475 -0.9446  0.2643
  749MOL0     C 1038   4.965   7.080   6.017 -0.1881  0.2123 -0.6937
  749MOL0     O 1039   4.956   6.997   5.905 -0.4348 -0.2661 -0.2386
  749MOL0     C 1040   4.945   6.862   5.926  0.1568  0.8214 -0.0232
  749MOL0     C 1041   4.890   6.792   5.795 -0.2305  0.3633  0.0110
  749MOL0     C 1042   4.974   6.814   5.669 -1.0750  0.5206  0.2353
  749MOL0     C 1043   4.914   6.784   5.532  0.6606  0.4224 -0.0597
  749MOL0     C 1044   4.846   6.659   5.516  0.2493 -0.3473  1.4236
  749MOL0     C 1045   4.799   6.555   5.478  1.1279 -0.3712  0.0899
  749MOL0     C 1046   4.957   7.029   6.143  0.0804 -0.1651 -0.2072
  749MOL0     C 1047   4.939   7.123   6.256 -0.5615 -0.1686 -0.2762
  749MOL0     H 1048   4.692   7.299   6.626 -0.3175  0.7072 -0.0272
  749MOL0     H 1049   4.657   7.394   6.858  1.4651 -3.1495  1.0263
  749MOL0     H 1050   4.636   7.573   7.021  0.4807 -0.9255 -0.0089
  749MOL0     H 1051   4.754   7.485   7.095 -2.5127 -1.2663 -1.7335
  749MOL0     H 1052   4.871   7.680   7.195 -0.0645  0.1114 -0.3356
  749MOL0     H 1053   4.757   7.790   7.126  0.9574  0.0519  0.4390
  749MOL0     H 1054   4.570   7.690   7.271 -0.8793  0.6615  0.6640
  749MOL0     H 1055   4.680   7.569   7.322 -6.0855 -2.2817 -7.1830
  749MOL0     H 1056   4.807   7.752   7.458 -0.4734 -2.8062 -0.6019
  749MOL0     H 1057   4.714   7.878   7.369  1.2572 -0.3131 -1.8712
  749MOL0     H 1058   4.521   7.835   7.484 -0.6406 -2.7593 -2.1061
  749MOL0     H 1059   4.573   7.680   7.543  1.9153  0.3021 -0.2490
  749MOL0     H 1060   4.769   7.799   7.661 -0.2221  0.5816  2.7700
  749MOL0     H 1061   4.697   7.952   7.614 -1.0173 -0.3255 -1.9125
  749MOL0     H 1062   4.476   7.822   7.744 -1.1514  2.7039  0.0229
  749MOL0     H 1063   4.609   7.724   7.786  1.3929  0.8348  2.2987
  749MOL0     H 1064   4.728   7.955   7.852 -0.3859  0.7156  0.6451
  749MOL0     H 1065   4.599   7.889   7.958 -0.0316 -0.0365 -0.5359
  749MOL0     H 1066   4.526   8.140   8.043 -2.0976  0.7230  0.3790
  749MOL0     H 1067   4.300   8.352   7.960  1.5627 -1.7112  4.0626
  749MOL0     H 1068   4.449   8.407   8.019  1.5086 -2.6150  0.1848
  749MOL0     H 1069   4.357   8.457   7.726  2.3007 -0.0845 -1.6131
  749MOL0     H 1070   4.513   8.507   7.789 -0.8514  2.2807 -1.6155
  749MOL0     H 1071   4.379   8.648   7.961 -0.5778 -0.5564  1.1548
  749MOL0     H 1072   4.224   8.592   7.889  0.1929  0.6095 -0.4977
  749MOL0     H 1073   4.449   8.727   7.747 -0.2038  1.7601 -3.9403
  749MOL0     H 1074   4.296   8.811   7.801  0.0608 -1.1108  0.6577
  749MOL0     H 1075   4.541   8.617   7.564  0.3289  0.5733 -0.4082
  749MOL0     H 1076   4.671   8.443   7.302  1.7428  0.6902 -0.4181
  749MOL0     H 1077   4.692   8.628   7.286 -0.4010 -0.1470 -0.8639
  749MOL0     H 1078   4.714   8.541   7.434  4.1074  0.6393 -2.7442
  749MOL0     H 1079   4.732   8.707   6.947 -1.9771  2.3195 -2.7440
  749MOL0     H 1080   4.816   8.666   6.726 -1.5078  0.4893 -3.9586
  749MOL0     H 1081   4.711   8.280   6.505  1.8858 -0.3193  0.5411
  749MOL0     H 1082   4.592   8.417   6.475  0.3448  0.2597 -3.3980
  749MOL0     H 1083   4.742   8.510   6.311  2.2590 -0.0357  1.1565
  749MOL0     H 1084   4.837   8.363   6.325 -1.2889 -1.7065 -0.1274
  749MOL0     H 1085   4.554   8.366   6.220  0.7514 -0.0549  0.6858
  749MOL0     H 1086   4.621   8.223   6.288  0.9650 -0.2037  0.4761
  749MOL0     H 1087   4.775   8.368   6.065  1.2203 -1.6208 -0.1474
  749MOL0     H 1088   4.765   8.200   6.095  1.6804  0.7474 -0.4773
  749MOL0     H 1089   4.544   8.380   5.990 -2.6689 -0.7923 -0.2960
  749MOL0     H 1090   4.514   8.225   6.062 -1.3940  2.1505  1.7714
  749MOL0     H 1091   4.717   8.251   5.829  0.1055 -3.0536 -1.0616
  749MOL0     H 1092   4.630   8.105   5.879 -0.3199  0.6203  2.5718
  749MOL0     H 1093   4.514   8.354   5.737  0.8547  0.5324  0.6273
  749MOL0     H 1094   4.418   8.218   5.787  0.4557 -1.1450  0.3901
  749MOL0     H 1095   4.531   8.069   5.643  0.2655 -0.0528  1.7572
  749MOL0     H 1096   4.656   8.182   5.617 -0.0986  0.2805 -1.3932
  749MOL0     H 1097   4.598   8.301   6.691 -0.8373  0.5805 -0.8184
  749MOL0     H 1098   4.492   8.337   6.900  1.3173 -0.8837  1.0630
  749MOL0     H 1099   4.190   8.555   7.226  0.9115  1.5190 -0.9453
  749MOL0     H 1100   4.119   8.628   7.462 -0.2778  2.1502  0.9873
  749MOL0     H 1101   5.007   7.632   6.785 -0.5848  0.3865  1.6232
  749MOL0     H 1102   5.050   7.508   6.564  0.0384 -1.7356 -0.9825
  749MOL0     H 1103   4.959   7.419   6.083 -1.5057 -0.5718 -1.5664
  749MOL0     H 1104   4.949   7.253   5.886 -0.2168  1.1652  0.8331
  749MOL0     H 1105   5.049   6.827   5.936 -0.1977 -1.1717 -2.3969
  749MOL0     H 1106   4.885   6.834   6.013 -1.6119 -0.9517 -1.7178
  749MOL0     H 1107   4.789   6.831   5.777 -0.3786 -0.9198 -2.3897
  749MOL0     H 1108   4.894   6.683   5.806  2.1955  0.5003  1.0297
  749MOL0     H 1109   5.071   6.767   5.686 -1.6890 -0.1689  2.1454
  749MOL0     H 1110   5.006   6.919   5.668 -0.6267  0.4350  1.9780
  749MOL0     H 1111   4.990   6.800   5.455  0.2476  1.2606 -0.3066
  749MOL0     H 1112   4.838   6.860   5.516  0.6341  0.4553  0.2184
  749MOL0     H 1113   4.750   6.466   5.443  1.0790 -0.9089  1.4619
  749MOL0     H 1114   4.968   6.924   6.167  3.6325  0.0419 -0.4579
  749MOL0     H 1115   4.933   7.088   6.358 -1.0442  1.2397  0.2035
  750MOL0     O 1116   6.441   4.378   5.573  0.0618  0.0536  0.1300
  750MOL0     C 1117   6.376   4.484   5.596 -0.3899  0.5091  0.6812
  750MOL0     O 1118   6.386   4.557   5.708  0.3175  0.4805  0.1036
  750MOL0     C 1119   6.423   4.494   5.821 -0.1602 -0.7283  0.5369
  750MOL0     C 1120   6.489   4.585   5.911 -0.6156  0.8057 -1.1685
  750MOL0     C 1121   6.546   4.539   6.032 -0.6824 -0.1816  0.0098
  750MOL0     C 1122   6.547   4.402   6.061 -0.2704 -0.4228  0.0728
  750MOL0     O 1123   6.600   4.342   6.166 -0.3148 -0.0446 -0.9935
  750MOL0     C 1124   6.680   4.423   6.252 -0.4852 -0.2285  0.0058
  750MOL0     C 1125   6.722   4.330   6.374  0.1740 -0.2997 -0.2909
  750MOL0     C 1126   6.777   4.193   6.334 -0.0167  0.1097 -0.0462
  750MOL0     C 1127   6.890   4.156   6.426  1.1864 -0.0195 -0.0604
  750MOL0     C 1128   6.915   4.009   6.431  0.1377  0.4183  0.0156
  750MOL0     C 1129   6.989   3.976   6.569 -0.0358  0.2425 -0.3741
  750MOL0     C 1130   7.044   3.828   6.576  0.8128  0.1844 -0.8799
  750MOL0     C 1131   6.927   3.722   6.594 -0.0516 -0.1748  0.6266
  750MOL0     N 1132   6.959   3.593   6.530 -0.0706 -0.9411 -0.4020
  750MOL0     C 1133   6.989   3.574   6.402  0.3432 -0.2584  0.5288
  750MOL0     C 1134   7.006   3.443   6.397  0.9054 -0.2776  0.0492
  750MOL0     C 1135   7.029   3.379   6.274 -0.5821  0.0043  0.4456
  750MOL0     C 1136   7.179   3.349   6.247  0.0990  0.3647 -0.1332
  750MOL0     C 1137   7.209   3.354   6.086  0.6949  0.6439  0.1788
  750MOL0     C 1138   7.330   3.445   6.056 -0.8078  0.2488 -0.3310
  750MOL0     O 1139   7.299   3.583   6.056  0.0152 -0.8018  0.3998
  750MOL0     C 1140   7.401   3.676   6.063  0.6501 -0.4443 -0.3507
  750MOL0     C 1141   7.376   3.808   6.028 -1.0576 -0.7931  0.9955
  750MOL0     C 1142   7.465   3.910   6.037 -0.2548 -0.6332  1.0906
  750MOL0     C 1143   7.403   4.048   6.030 -0.3022 -0.2570  0.0472
  750MOL0     C 1144   7.607   3.877   6.043  0.3012  0.1064 -0.5815
  750MOL0     C 1145   7.723   3.967   6.038 -0.8085 -1.3598 -0.3895
  750MOL0     O 1146   7.844   3.912   6.013 -0.3525 -0.9200 -0.5384
  750MOL0     C 1147   7.958   3.981   5.993  0.5603  0.3094  0.3622
  750MOL0     C 1148   8.072   3.913   5.943 -0.0396 -0.4827 -0.1037
  750MOL0     C 1149   8.197   3.964   5.929 -0.8213 -0.3967  1.0807
  750MOL0     C 1150   8.225   4.092   5.977 -0.0956  0.1081 -0.5255
  750MOL0     O 1151   8.350   4.116   5.998 -0.4016 -0.0606 -0.5883
  750MOL0     C 1152   8.381   4.214   6.092 -0.0759 -0.3445 -1.4061
  750MOL0     C 1153   8.520   4.214   6.124 -0.0716  1.2336 -0.0941
  750MOL0     C 1154   8.547   4.336   6.216 -0.7664  0.7974  0.7636
  750MOL0     C 1155   8.692   4.355   6.242 -0.7047 -0.1054  0.4507
  750MOL0     C 1156   8.730   4.487   6.299  0.3311 -0.4774 -0.9214
  750MOL0     C 1157   8.877   4.488   6.348  0.0278  0.1514  0.5422
  750MOL0     C 1158   8.934   4.633   6.366  0.9376  0.4883  1.0529
  750MOL0     C 1159   9.067   4.632   6.424  0.3871 -0.1207 -0.3105
  750MOL0    Cl 1160   9.068   4.654   6.601  0.1729  0.6252  0.4907
  750MOL0     C 1161   8.111   4.171   6.010 -0.0790  0.3939  0.0437
  750MOL0     C 1162   7.979   4.114   6.018  0.3384  0.2776  0.0957
  750MOL0     O 1163   7.697   4.084   6.070 -0.7775 -0.1129  0.0421
  750MOL0     C 1164   7.642   3.739   6.060 -0.7754  1.2603 -0.5355
  750MOL0     C 1165   7.537   3.644   6.077  0.1113  0.0231  0.3948
  750MOL0     N 1166   7.018   3.389   6.519 -0.1619  0.1682  0.0063
  750MOL0     N 1167   6.975   3.477   6.601 -0.4490  0.0438  0.2444
  750MOL0     C 1168   6.475   4.316   5.977 -0.2298  0.1812  0.4325
  750MOL0     C 1169   6.408   4.358   5.858  0.1145 -0.1816 -1.3171
  750MOL0     C 1170   6.306   4.537   5.482  1.0040 -0.5647 -1.1762
  750MOL0     C 1171   6.196   4.609   5.517  0.6024 -0.3429 -0.2461
  750MOL0     C 1172   6.110   4.665   5.420  0.1349  0.4010 -0.5741
  750MOL0     C 1173   6.142   4.656   5.281  1.0683  0.1804 -0.4182
  750MOL0     O 1174   6.062   4.700   5.183 -0.5223  0.0724  1.1091
  750MOL0     C 1175   5.990   4.825   5.202  0.4294 -0.1861  0.3004
  750MOL0     C 1176   5.929   4.848   5.063  0.1475 -0.3496  0.1330
  750MOL0     C 1177   6.033   4.810   4.938 -0.6492 -0.1373 -0.5117
  750MOL0     C 1178   5.991   4.847   4.800  0.5531 -0.0738  1.3106
  750MOL0     C 1179   5.969   4.999   4.801 -0.7924 -0.1082  1.4200
  750MOL0     C 1180   5.964   5.120   4.796 -0.2188  0.1484 -0.5309
  750MOL0     C 1181   6.260   4.578   5.243  0.0698 -0.2323 -1.1479
  750MOL0     C 1182   6.329   4.528   5.342 -0.4312  0.6700 -0.0264
  750MOL0     H 1183   6.508   4.690   5.890  0.9231  0.6095 -0.8333
  750MOL0     H 1184   6.608   4.610   6.085  1.7391 -0.8044 -1.7985
  750MOL0     H 1185   6.770   4.457   6.200  0.7647 -1.0070  1.5459
  750MOL0     H 1186   6.617   4.502   6.293 -0.4429 -0.2394  0.0933
  750MOL0     H 1187   6.787   4.388   6.439  0.9876  0.0502 -1.3862
  750MOL0     H 1188   6.632   4.317   6.436  1.0668  4.4125  2.5034
  750MOL0     H 1189   6.701   4.114   6.333  1.1973 -1.2230  2.7158
  750MOL0     H 1190   6.820   4.205   6.234  0.7609  0.4195  0.3207
  750MOL0     H 1191   6.976   4.211   6.386  1.3189  1.5041  2.1690
  750MOL0     H 1192   6.862   4.187   6.527 -0.9896 -1.5815 -0.1247
  750MOL0     H 1193   6.816   3.962   6.426 -1.5690  3.7830 -0.7991
  750MOL0     H 1194   6.969   3.980   6.340 -1.6494 -1.9201 -0.4021
  750MOL0     H 1195   7.064   4.050   6.597  0.4039 -0.6131  0.8040
  750MOL0     H 1196   6.912   3.993   6.645  0.6378  0.4728  0.2700
  750MOL0     H 1197   7.107   3.807   6.489  2.6431  0.0574  0.4231
  750MOL0     H 1198   7.108   3.808   6.662 -1.0589 -0.4115  0.4421
  750MOL0     H 1199   6.832   3.758   6.554 -2.3372 -2.6342  3.3238
  750MOL0     H 1200   6.912   3.729   6.703 -2.1636  1.4107  0.3049
  750MOL0     H 1201   6.994   3.641   6.316  2.4631 -2.5944 -1.3309
  750MOL0     H 1202   6.971   3.286   6.267 -3.9165  1.7998  2.0709
  750MOL0     H 1203   6.992   3.447   6.197 -1.0809 -0.2155  0.4916
  750MOL0     H 1204   7.203   3.251   6.289 -0.1390 -0.2369 -1.3511
  750MOL0     H 1205   7.247   3.416   6.302  0.3227  0.5189 -0.5901
  750MOL0     H 1206   7.121   3.406   6.048  0.6402  1.4404  1.3436
  750MOL0     H 1207   7.215   3.250   6.052 -2.4209  1.1094 -2.2387
  750MOL0     H 1208   7.357   3.417   5.954  2.3003 -1.0189  0.7218
  750MOL0     H 1209   7.407   3.419   6.129 -1.3054 -1.6356 -0.4372
  750MOL0     H 1210   7.270   3.823   6.011 -0.1557  4.4335 -2.1279
  750MOL0     H 1211   7.447   4.112   5.953  1.8487  0.5587  1.8359
  750MOL0     H 1212   7.296   4.044   6.008  0.3318  2.6897 -5.0404
  750MOL0     H 1213   7.425   4.102   6.123  0.6910 -1.7285  0.7205
  750MOL0     H 1214   8.055   3.813   5.905  0.4663  0.1099 -2.0039
  750MOL0     H 1215   8.270   3.910   5.871 -0.3396  0.0548  1.2601
  750MOL0     H 1216   8.347   4.312   6.056  0.8947 -0.0394 -1.5136
  750MOL0     H 1217   8.308   4.203   6.173 -1.1540  1.1670 -2.1070
  750MOL0     H 1218   8.545   4.120   6.175 -2.7604  1.5098  1.9604
  750MOL0     H 1219   8.568   4.237   6.029 -1.3678  3.3587 -0.2930
  750MOL0     H 1220   8.498   4.309   6.311 -3.1357 -0.2234 -0.6494
  750MOL0     H 1221   8.499   4.425   6.175 -0.6160  1.0342  1.0962
  750MOL0     H 1222   8.746   4.275   6.294  0.2209 -0.0177 -0.3642
  750MOL0     H 1223   8.741   4.368   6.145  0.0822  0.5285  0.9328
  750MOL0     H 1224   8.670   4.495   6.390 -0.2329 -0.2962 -1.3047
  750MOL0     H 1225   8.703   4.573   6.236 -1.4144  1.9751  2.7768
  750MOL0     H 1226   8.873   4.437   6.445 -2.6600  0.0896  0.4562
  750MOL0     H 1227   8.939   4.433   6.277 -1.8117  0.2176 -1.1935
  750MOL0     H 1228   8.870   4.691   6.433 -0.0899 -0.3223  0.7997
  750MOL0     H 1229   8.933   4.703   6.282  1.0708  2.0733  2.3200
  750MOL0     H 1230   9.127   4.717   6.388  0.7200  0.3115  1.1827
  750MOL0     H 1231   9.129   4.547   6.393  3.6505  2.7195 -2.3449
  750MOL0     H 1232   8.127   4.273   6.042  4.0720  1.0658 -3.2676
  750MOL0     H 1233   7.904   4.180   6.062 -0.2168 -0.8547  0.8822
  750MOL0     H 1234   7.748   3.716   6.073 -0.5771  2.3861  0.0006
  750MOL0     H 1235   7.576   3.547   6.104  0.6052  0.7631  2.5646
  750MOL0     H 1236   6.476   4.211   6.005 -1.4633  0.1571  0.4095
  750MOL0     H 1237   6.345   4.281   5.815  1.4879 -3.9369  2.5617
  750MOL0     H 1238   6.166   4.614   5.621  0.5426 -1.1513 -0.2127
  750MOL0     H 1239   6.028   4.718   5.468  0.2404 -2.2856  2.9697
  750MOL0     H 1240   5.917   4.818   5.282 -1.1421 -0.1867 -1.0886
  750MOL0     H 1241   6.054   4.907   5.237  1.2173 -1.0755  0.9967
  750MOL0     H 1242   5.890   4.949   5.055  1.7965  0.5976  2.8925
  750MOL0     H 1243   5.842   4.782   5.052 -1.2190  1.4679 -0.3795
  750MOL0     H 1244   6.048   4.702   4.934  0.1262 -0.0069 -1.3431
  750MOL0     H 1245   6.129   4.861   4.953 -1.1353  0.9301 -0.8703
  750MOL0     H 1246   5.895   4.803   4.775 -0.2474  0.2592  3.5286
  750MOL0     H 1247   6.068   4.823   4.726 -1.2543  2.1582 -1.4668
  750MOL0     H 1248   5.977   5.226   4.787  0.3115  0.1383  0.0792
  750MOL0     H 1249   6.296   4.578   5.140  2.7053 -4.3571 -0.4600
  750MOL0     H 1250   6.423   4.479   5.319  0.8015  1.3922  3.0168
  751MOL0     O 1251   4.297   1.589   9.258  0.1433 -0.5011  0.0990
  751MOL0     C 1252   4.228   1.525   9.174 -0.5896 -0.6486 -0.0705
  751MOL0     O 1253   4.281   1.445   9.081  0.1155 -0.6689 -0.3982
  751MOL0     C 1254   4.412   1.412   9.095 -0.0110 -0.5785  0.4664
  751MOL0     C 1255   4.441   1.277   9.120  1.0988 -0.1221  0.7015
  751MOL0     C 1256   4.576   1.234   9.116 -0.9133 -0.0206 -0.5436
  751MOL0     C 1257   4.684   1.326   9.109 -0.0447  0.0587 -0.4000
  751MOL0     O 1258   4.820   1.292   9.107 -0.3471  0.0953  0.1150
  751MOL0     C 1259   4.872   1.161   9.124 -0.0326  0.5545 -0.1932
  751MOL0     C 1260   5.013   1.173   9.168  0.2320  0.4378 -0.2056
  751MOL0     C 1261   5.099   1.050   9.140 -0.5166  1.1017  0.1184
  751MOL0     C 1262   5.218   1.066   9.237 -0.8813  0.2730  0.5922
  751MOL0     C 1263   5.322   0.953   9.217 -0.6608 -0.5265  0.8347
  751MOL0     C 1264   5.401   0.979   9.087  0.1591 -0.2014  0.3541
  751MOL0     C 1265   5.467   0.849   9.044 -0.1972 -1.0493  0.1445
  751MOL0     C 1266   5.544   0.871   8.914  0.7451  0.2883  0.5242
  751MOL0     N 1267   5.681   0.900   8.936 -0.0333 -0.0991  0.0414
  751MOL0     C 1268   5.728   1.022   8.974 -0.3400  0.0883  0.4651
  751MOL0     C 1269   5.848   1.036   8.918 -0.5244 -0.3954  0.3725
  751MOL0     C 1270   5.950   1.147   8.953  0.0445 -0.2262 -0.6767
  751MOL0     C 1271   6.011   1.120   9.096 -0.1653 -0.2939  0.4554
  751MOL0     C 1272   6.126   1.027   9.102  0.4587 -0.0526  0.0855
  751MOL0     C 1273   6.255   1.074   9.020  0.9100  0.8260  0.3264
  751MOL0     O 1274   6.295   1.206   9.051  0.3986 -0.2811  0.0716
  751MOL0     C 1275   6.422   1.249   9.010 -0.0702  0.0644 -0.1034
  751MOL0     C 1276   6.482   1.353   9.067 -0.2356 -0.4332 -0.4907
  751MOL0     C 1277   6.606   1.407   9.028  0.2928 -0.0394  0.3734
  751MOL0     C 1278   6.648   1.536   9.112 -0.4154 -0.1914  0.3822
  751MOL0     C 1279   6.690   1.335   8.936 -0.1172  1.4235 -0.3781
  751MOL0     C 1280   6.831   1.362   8.900 -0.0269  0.0074 -0.4196
  751MOL0     O 1281   6.900   1.262   8.845 -0.1455 -0.2247  0.7692
  751MOL0     C 1282   7.026   1.279   8.806 -0.1230  0.7636 -0.0886
  751MOL0     C 1283   7.073   1.391   8.737  0.6196  0.8974 -0.4514
  751MOL0     C 1284   7.204   1.396   8.686  0.0415  0.3342  0.2934
  751MOL0     C 1285   7.296   1.291   8.716  0.3467 -0.9853 -0.3398
  751MOL0     O 1286   7.427   1.310   8.670 -0.2948  0.4085  0.2769
  751MOL0     C 1287   7.526   1.310   8.776  0.9281  0.6754 -0.1836
  751MOL0     C 1288   7.591   1.179   8.813 -0.9075  0.2132  0.5485
  751MOL0     C 1289   7.722   1.142   8.743  0.1936  0.6481 -0.5127
  751MOL0     C 1290   7.784   1.039   8.832  0.8887 -0.2714  0.2057
  751MOL0     C 1291   7.907   0.980   8.763 -0.0562 -0.0450  0.3429
  751MOL0     C 1292   7.870   0.846   8.685  0.7994 -0.8418  0.1208
  751MOL0     C 1293   7.971   0.820   8.569 -0.2980 -0.5570 -0.5365
  751MOL0     C 1294   7.956   0.692   8.490 -0.0181 -0.4996  0.5772
  751MOL0    Cl 1295   8.002   0.561   8.608 -0.1301 -0.2544  0.2881
  751MOL0     C 1296   7.245   1.182   8.787 -0.4059 -0.1918 -0.4264
  751MOL0     C 1297   7.112   1.164   8.823 -0.0850 -0.4626 -0.3269
  751MOL0     O 1298   6.886   1.465   8.941  0.1979 -0.2687  0.0035
  751MOL0     C 1299   6.637   1.215   8.892  0.6937  0.4459  1.3013
  751MOL0     C 1300   6.506   1.173   8.924  0.7181  0.1304 -0.2024
  751MOL0     N 1301   5.887   0.917   8.861 -0.7918 -0.2305 -0.2021
  751MOL0     N 1302   5.785   0.833   8.872 -0.0085  0.1346 -0.0342
  751MOL0     C 1303   4.652   1.466   9.096 -0.6929 -0.3927 -0.4072
  751MOL0     C 1304   4.518   1.509   9.096 -0.0046  0.6090  0.2877
  751MOL0     C 1305   4.083   1.547   9.163  0.2618 -0.0721  0.7353
  751MOL0     C 1306   3.994   1.466   9.074 -0.3639 -0.0191  0.5729
  751MOL0     C 1307   3.855   1.474   9.072 -0.0398  0.4005  0.0554
  751MOL0     C 1308   3.791   1.561   9.166  0.4588  0.4717 -0.7955
  751MOL0     O 1309   3.654   1.574   9.153  0.1660 -0.3172 -1.0516
  751MOL0     C 1310   3.588   1.476   9.239 -0.9685 -0.3380  1.3151
  751MOL0     C 1311   3.463   1.421   9.176 -0.6334 -0.5595 -0.2633
  751MOL0     C 1312   3.391   1.345   9.299 -1.1910  0.4072 -0.5314
  751MOL0     C 1313   3.278   1.261   9.258  0.2577 -1.4251  0.7181
  751MOL0     C 1314   3.311   1.151   9.169 -0.0217 -0.3050 -0.1728
  751MOL0     C 1315   3.335   1.060   9.083 -0.8349 -0.8221 -0.7812
  751MOL0     C 1316   3.866   1.632   9.257 -0.7690 -0.4551  0.5813
  751MOL0     C 1317   4.010   1.634   9.253  0.3105 -0.5491 -0.4872
  751MOL0     H 1318   4.357   1.208   9.124 -0.2077  1.1743 -1.6547
  751MOL0     H 1319   4.600   1.128   9.119  1.4369  0.4567  2.3935
  751MOL0     H 1320   4.817   1.089   9.186  1.1797 -1.5111 -1.3941
  751MOL0     H 1321   4.870   1.108   9.028 -2.9669 -0.9065  0.5613
  751MOL0     H 1322   5.059   1.258   9.117 -1.6354 -0.2990 -3.4665
  751MOL0     H 1323   5.004   1.197   9.274  0.6430  0.4864 -0.1824
  751MOL0     H 1324   5.043   0.957   9.153  1.6458 -0.3150 -0.2380
  751MOL0     H 1325   5.129   1.046   9.035 -0.6276 -1.7791  0.1347
  751MOL0     H 1326   5.273   1.159   9.218 -2.1524  1.1179  0.9309
  751MOL0     H 1327   5.184   1.071   9.341 -0.4044  0.2000  0.7542
  751MOL0     H 1328   5.393   0.931   9.297  0.8547 -1.8105 -0.7844
  751MOL0     H 1329   5.265   0.860   9.205  0.8395 -1.6277  1.8433
  751MOL0     H 1330   5.343   1.024   9.006 -1.0961 -0.2483  1.1986
  751MOL0     H 1331   5.480   1.052   9.109 -1.2383  1.8304 -0.9793
  751MOL0     H 1332   5.530   0.812   9.125 -0.2849 -0.4694  0.4808
  751MOL0     H 1333   5.396   0.766   9.038 -2.2584  0.6558 -0.3752
  751MOL0     H 1334   5.487   0.948   8.861 -0.6411 -0.6365  0.6072
  751MOL0     H 1335   5.533   0.787   8.844 -2.7316  1.3646 -0.4377
  751MOL0     H 1336   5.672   1.093   9.034 -2.4924  0.1491 -1.4894
  751MOL0     H 1337   6.021   1.142   8.869  0.7552 -0.4916 -0.0758
  751MOL0     H 1338   5.902   1.245   8.952  2.5768  1.1300 -0.0967
  751MOL0     H 1339   5.928   1.084   9.157 -3.6540 -1.2242 -4.2846
  751MOL0     H 1340   6.042   1.216   9.137  0.6144 -1.1720  2.0409
  751MOL0     H 1341   6.101   0.929   9.061  0.0690  1.4292 -3.5698
  751MOL0     H 1342   6.150   1.023   9.209 -1.4176 -2.3507  0.5113
  751MOL0     H 1343   6.238   1.061   8.913 -1.5459 -0.0801  0.7617
  751MOL0     H 1344   6.336   1.006   9.049  1.5689  0.7010 -1.6603
  751MOL0     H 1345   6.427   1.393   9.151  1.4965 -0.3841  0.6706
  751MOL0     H 1346   6.748   1.527   9.157  0.8390  1.3667 -1.8936
  751MOL0     H 1347   6.650   1.623   9.046  4.2429 -1.3796 -1.4562
  751MOL0     H 1348   6.584   1.559   9.197  2.5228 -1.1107  3.0397
  751MOL0     H 1349   7.016   1.478   8.706 -0.3959  0.2734 -0.3755
  751MOL0     H 1350   7.225   1.469   8.608 -1.6123 -0.1713 -0.6825
  751MOL0     H 1351   7.602   1.380   8.739  3.1350 -1.7151 -0.4919
  751MOL0     H 1352   7.487   1.351   8.869  1.2563  1.0337 -0.1999
  751MOL0     H 1353   7.616   1.188   8.919 -1.8600 -0.8078  0.8708
  751MOL0     H 1354   7.522   1.095   8.800 -1.8447  1.1166 -0.5883
  751MOL0     H 1355   7.775   1.237   8.727 -1.6100  2.1451  1.7770
  751MOL0     H 1356   7.698   1.097   8.646  1.4138  1.4083 -1.2003
  751MOL0     H 1357   7.823   1.087   8.922  2.4922 -0.8591 -0.1560
  751MOL0     H 1358   7.710   0.963   8.859 -0.8596 -0.1422 -3.5552
  751MOL0     H 1359   7.998   0.956   8.819 -0.7466  2.4599  2.7696
  751MOL0     H 1360   7.947   1.061   8.701  0.0981 -1.1146 -1.0166
  751MOL0     H 1361   7.872   0.760   8.753  0.0395 -0.7442  0.2848
  751MOL0     H 1362   7.773   0.856   8.635 -0.3296 -0.9440  2.1774
  751MOL0     H 1363   8.071   0.834   8.612  0.2993 -1.3364 -1.6197
  751MOL0     H 1364   7.960   0.896   8.491 -0.2531 -1.7295 -1.7276
  751MOL0     H 1365   8.025   0.698   8.405  1.3450  1.6009  1.7366
  751MOL0     H 1366   7.856   0.682   8.446  0.6145  2.6703 -1.9960
  751MOL0     H 1367   7.317   1.104   8.814  3.2774  2.8339 -0.6198
  751MOL0     H 1368   7.066   1.075   8.865 -2.4969 -0.3331 -2.4288
  751MOL0     H 1369   6.690   1.157   8.817 -0.3198  2.2931 -0.9880
  751MOL0     H 1370   6.478   1.076   8.885 -1.3389  1.7062 -3.0043
  751MOL0     H 1371   4.725   1.545   9.085  0.4573 -1.6208 -2.0013
  751MOL0     H 1372   4.498   1.615   9.090  0.3974  0.7233  0.8990
  751MOL0     H 1373   4.030   1.404   8.992  0.3784  2.3480 -0.9660
  751MOL0     H 1374   3.801   1.432   8.987  0.7504 -0.4392 -0.0424
  751MOL0     H 1375   3.656   1.392   9.257  1.9884  1.3713 -0.8730
  751MOL0     H 1376   3.565   1.533   9.329  3.1933  2.1272  1.1067
  751MOL0     H 1377   3.499   1.344   9.107 -0.2115 -1.0156  0.4461
  751MOL0     H 1378   3.410   1.503   9.128  0.2979  1.4172  1.8610
  751MOL0     H 1379   3.357   1.422   9.370  2.5436  1.8806 -0.0827
  751MOL0     H 1380   3.472   1.294   9.352 -1.7122  2.2732  2.2859
  751MOL0     H 1381   3.196   1.319   9.215  1.3870 -0.6819 -0.5454
  751MOL0     H 1382   3.245   1.207   9.347 -0.2205  0.9618  2.0704
  751MOL0     H 1383   3.345   0.972   9.023 -2.4128 -0.7053 -1.2531
  751MOL0     H 1384   3.818   1.686   9.338  0.3142 -1.7471  2.1408
  751MOL0     H 1385   4.059   1.702   9.322 -0.4219  1.4303 -1.8293
  752MOL0     O 1386   9.775   9.980   5.939  0.4162 -0.4015 -0.6963
  752MOL0     C 1387   9.702   9.953   5.846 -0.2309 -0.8176  0.2650
  752MOL0     O 1388   9.616   9.856   5.836  0.5799  0.2746 -0.5850
  752MOL0     C 1389   9.594   9.774   5.948 -0.9117 -0.0871 -0.1952
  752MOL0     C 1390   9.593   9.828   6.076  0.5781  0.8753 -0.5204
  752MOL0     C 1391   9.569   9.741   6.189 -0.1863  0.8727  0.0298
  752MOL0     C 1392   9.545   9.603   6.164 -0.2638 -0.0144  0.7907
  752MOL0     O 1393   9.501   9.528   6.269 -0.3320  0.4942  0.4362
  752MOL0     C 1394   9.379   9.457   6.255 -0.3784  0.4697 -0.6441
  752MOL0     C 1395   9.264   9.552   6.250  0.8324  0.9111  0.1788
  752MOL0     C 1396   9.240   9.630   6.373  0.3691  0.2145  0.2796
  752MOL0     C 1397   9.117   9.720   6.377 -1.4371 -0.0739  0.5936
  752MOL0     C 1398   9.078   9.793   6.509 -0.5212  0.1658  0.4164
  752MOL0     C 1399   8.925   9.821   6.493  0.0637 -0.0065  0.1505
  752MOL0     C 1400   8.880   9.922   6.378 -0.1685  0.1826 -0.0014
  752MOL0     C 1401   8.743   9.987   6.431 -0.2092 -0.1864  0.5790
  752MOL0     N 1402   8.708  10.107   6.358 -0.0308  0.3193 -0.1600
  752MOL0     C 1403   8.711  10.238   6.405  0.2728 -1.6320  0.2362
  752MOL0     C 1404   8.656  10.314   6.304 -0.8915  0.4214  0.9134
  752MOL0     C 1405   8.610  10.454   6.303  0.0753  0.0310  0.3993
  752MOL0     C 1406   8.462  10.468   6.356  0.2824  0.3322 -0.9038
  752MOL0     C 1407   8.392  10.602   6.323  0.2997  0.1849  0.7029
  752MOL0     C 1408   8.251  10.636   6.380  0.3402  0.9180 -0.8151
  752MOL0     O 1409   8.203  10.739   6.300 -0.7593  0.1692  0.3733
  752MOL0     C 1410   8.113  10.826   6.366  0.0474  0.5135  0.0175
  752MOL0     C 1411   8.053  10.928   6.294 -0.0951  0.0335  0.5495
  752MOL0     C 1412   7.970  11.026   6.355 -0.1633 -0.2090  0.2326
  752MOL0     C 1413   7.942  11.149   6.269 -0.3288  0.7889 -0.1361
  752MOL0     C 1414   7.917  10.998   6.482 -0.7676 -1.0926 -0.2316
  752MOL0     C 1415   7.830  11.092   6.552  0.9193  0.2145 -0.0979
  752MOL0     O 1416   7.724  11.035   6.628  0.6982  0.5276 -0.2392
  752MOL0     C 1417   7.617  11.117   6.680 -0.3286 -0.0102  0.2098
  752MOL0     C 1418   7.542  11.199   6.593  0.0524  0.7344 -0.0250
  752MOL0     C 1419   7.445  11.288   6.654 -0.4033  0.9778  0.4149
  752MOL0     C 1420   7.419  11.280   6.793 -0.7421 -0.3342  0.1679
  752MOL0     O 1421   7.309  11.344   6.842  0.0531 -0.0155  0.4261
  752MOL0     C 1422   7.191  11.315   6.767  0.6018  0.6692  0.2119
  752MOL0     C 1423   7.075  11.334   6.871  0.1386 -0.2294  0.0758
  752MOL0     C 1424   6.931  11.346   6.810 -0.0676  1.5147 -0.2453
  752MOL0     C 1425   6.846  11.423   6.903 -0.2469  0.3159 -0.4059
  752MOL0     C 1426   6.707  11.434   6.841 -0.0541  0.2543 -0.7561
  752MOL0     C 1427   6.601  11.495   6.935  0.1626  0.9138  0.8288
  752MOL0     C 1428   6.602  11.429   7.073  0.5074  0.6308  0.3762
  752MOL0     C 1429   6.467  11.443   7.139 -0.7545  0.3030 -0.0327
  752MOL0    Cl 1430   6.471  11.360   7.293  0.1696 -0.3593 -0.1853
  752MOL0     C 1431   7.488  11.191   6.879  0.0294 -0.8319 -0.8039
  752MOL0     C 1432   7.594  11.110   6.820  0.3226  0.8901 -0.0505
  752MOL0     O 1433   7.859  11.217   6.547  0.5475  0.1836 -0.0074
  752MOL0     C 1434   7.977  10.901   6.559 -0.0207  0.3298 -0.9786
  752MOL0     C 1435   8.062  10.807   6.499 -0.3509  0.1572  0.2109
  752MOL0     N 1436   8.644  10.233   6.191  0.6078  0.6611 -0.2747
  752MOL0     N 1437   8.664  10.113   6.229  0.2818 -0.9680  0.3022
  752MOL0     C 1438   9.545   9.553   6.032 -0.7258  0.1191  0.6651
  752MOL0     C 1439   9.579   9.638   5.922 -0.0230  0.3833  0.1286
  752MOL0     C 1440   9.708  10.059   5.742  0.3402  0.6853  0.9993
  752MOL0     C 1441   9.802  10.155   5.744 -0.3825 -0.0771  0.7003
  752MOL0     C 1442   9.804  10.254   5.643  0.1212 -1.0573  0.2880
  752MOL0     C 1443   9.701  10.253   5.545 -0.5854 -0.0348 -0.9687
  752MOL0     O 1444   9.704  10.345   5.440 -0.6015 -0.2309 -0.3173
  752MOL0     C 1445   9.622  10.460   5.465 -1.2308 -0.9199  0.2325
  752MOL0     C 1446   9.638  10.561   5.350  0.4939  0.1490  0.2608
  752MOL0     C 1447   9.575  10.506   5.215  0.1559 -0.1686 -1.2617
  752MOL0     C 1448   9.660  10.385   5.171  0.6367 -0.9563 -0.3249
  752MOL0     C 1449   9.633  10.366   5.034  0.5334  1.1057  0.5705
  752MOL0     C 1450   9.618  10.350   4.908 -0.5877 -0.7640 -0.8053
  752MOL0     C 1451   9.606  10.154   5.543  0.9940  0.3415 -0.4152
  752MOL0     C 1452   9.600  10.060   5.647 -0.0569  0.0369 -0.1676
  752MOL0     H 1453   9.597   9.934   6.098  0.2225  0.3058  2.8686
  752MOL0     H 1454   9.557   9.780   6.289  0.0999 -0.3277  0.5484
  752MOL0     H 1455   9.381   9.394   6.165  1.1919  1.8380 -1.6373
  752MOL0     H 1456   9.376   9.399   6.347  1.3510 -0.0610 -0.8819
  752MOL0     H 1457   9.267   9.623   6.166  0.5880  0.7753  0.0520
  752MOL0     H 1458   9.182   9.481   6.233  1.1711  0.0881  1.8190
  752MOL0     H 1459   9.240   9.557   6.454 -4.5808 -1.4548 -0.8509
  752MOL0     H 1460   9.316   9.701   6.406  1.0825 -0.6914  0.6376
  752MOL0     H 1461   9.145   9.803   6.311 -2.3168  0.7244  1.1906
  752MOL0     H 1462   9.033   9.662   6.338  1.4559 -3.6770 -0.8895
  752MOL0     H 1463   9.096   9.716   6.584  3.7565  0.5655  0.0101
  752MOL0     H 1464   9.142   9.878   6.534  2.2532 -1.9550  0.9819
  752MOL0     H 1465   8.870   9.726   6.488  0.2285 -0.0642 -0.9514
  752MOL0     H 1466   8.893   9.862   6.589 -1.2778 -0.5452 -0.0421
  752MOL0     H 1467   8.951  10.004   6.367 -2.6024  2.5106  0.5065
  752MOL0     H 1468   8.853   9.870   6.286  0.5426 -3.1706  1.5304
  752MOL0     H 1469   8.753  10.014   6.537  1.2410  1.4361  0.0586
  752MOL0     H 1470   8.662   9.913   6.425 -2.0724  1.8167 -0.6018
  752MOL0     H 1471   8.725  10.275   6.506 -0.0708 -0.3467 -0.1660
  752MOL0     H 1472   8.679  10.519   6.357  0.8435 -2.1272  2.1862
  752MOL0     H 1473   8.630  10.485   6.200  3.2696 -0.7813  0.6563
  752MOL0     H 1474   8.466  10.475   6.465  2.5677  1.8047 -1.0162
  752MOL0     H 1475   8.395  10.388   6.322 -1.7962  1.1667  0.9341
  752MOL0     H 1476   8.393  10.612   6.214  1.3784  0.0314  0.6883
  752MOL0     H 1477   8.464  10.678   6.353  2.4258 -1.6005  0.4010
  752MOL0     H 1478   8.261  10.669   6.484  0.2764  1.1480 -0.8812
  752MOL0     H 1479   8.183  10.550   6.382  1.0722  0.3286  0.0911
  752MOL0     H 1480   8.091  10.922   6.192 -1.3901 -1.4755  0.1280
  752MOL0     H 1481   7.974  11.138   6.165 -1.8614 -1.5595 -0.4212
  752MOL0     H 1482   7.834  11.159   6.259 -0.0519  4.2217 -1.3056
  752MOL0     H 1483   7.990  11.237   6.312  0.3952 -0.3207  1.4069
  752MOL0     H 1484   7.555  11.197   6.485  0.5598 -0.3792  0.0462
  752MOL0     H 1485   7.388  11.348   6.583 -0.6268  0.3797  0.0815
  752MOL0     H 1486   7.188  11.381   6.680 -0.1371  1.2098  0.6296
  752MOL0     H 1487   7.174  11.210   6.744 -1.4627  0.7627  1.0412
  752MOL0     H 1488   7.058  11.254   6.943 -0.9662  1.0873  1.3619
  752MOL0     H 1489   7.101  11.424   6.928  1.1276 -1.2309  1.2796
  752MOL0     H 1490   6.881  11.250   6.795 -3.8033  1.7379  6.5683
  752MOL0     H 1491   6.931  11.402   6.717  0.6181 -1.0886 -1.9201
  752MOL0     H 1492   6.847  11.360   6.993  1.0779 -1.3718 -1.5558
  752MOL0     H 1493   6.886  11.520   6.936  0.3597 -0.3511  0.9149
  752MOL0     H 1494   6.679  11.331   6.817 -1.2495  0.0198  1.3771
  752MOL0     H 1495   6.716  11.489   6.747  0.8957 -0.3151 -1.0213
  752MOL0     H 1496   6.620  11.600   6.958  0.5500  1.3067 -1.0806
  752MOL0     H 1497   6.509  11.492   6.875  0.8006 -0.1536 -0.1374
  752MOL0     H 1498   6.679  11.464   7.142  0.0231  2.7343 -0.0862
  752MOL0     H 1499   6.628  11.324   7.054 -0.3116  1.0293 -3.9339
  752MOL0     H 1500   6.387  11.394   7.084 -0.5573  0.9901 -0.9479
  752MOL0     H 1501   6.449  11.548   7.162  1.8782  0.1457  3.6922
  752MOL0     H 1502   7.458  11.177   6.983 -1.8913  0.8911 -1.0572
  752MOL0     H 1503   7.651  11.045   6.886 -1.7356 -1.5471 -0.5105
  752MOL0     H 1504   7.947  10.880   6.661  1.7840 -0.0743 -0.4868
  752MOL0     H 1505   8.087  10.717   6.554 -1.5488 -1.0504 -1.1262
  752MOL0     H 1506   9.522   9.448   6.017 -0.8766  0.2155  0.1881
  752MOL0     H 1507   9.588   9.598   5.821  2.4383 -1.0907  0.8391
  752MOL0     H 1508   9.882  10.161   5.818  1.7926 -0.8961 -1.4427
  752MOL0     H 1509   9.886  10.326   5.643 -0.8095  0.0337  0.3640
  752MOL0     H 1510   9.517  10.434   5.486 -1.7158  0.6694 -0.1281
  752MOL0     H 1511   9.667  10.508   5.552 -2.8722  0.0054  0.6199
  752MOL0     H 1512   9.740  10.593   5.330  0.5924  0.3797  1.1094
  752MOL0     H 1513   9.588  10.657   5.367 -0.7231 -0.2781 -0.7421
  752MOL0     H 1514   9.579  10.577   5.132  1.6917  0.0554 -1.0078
  752MOL0     H 1515   9.469  10.487   5.234 -0.1555  0.0674 -2.6508
  752MOL0     H 1516   9.639  10.294   5.228 -0.4795 -1.0322 -0.8391
  752MOL0     H 1517   9.766  10.413   5.180  1.1876 -3.4240  2.8466
  752MOL0     H 1518   9.629  10.330   4.803  1.0288 -0.2221 -0.7640
  752MOL0     H 1519   9.522  10.159   5.475 -1.6675 -1.3378  2.4706
  752MOL0     H 1520   9.525   9.982   5.657 -0.2686  0.3029  0.3459
  753MOL0     O 1521   6.951   8.643   6.102  0.3139 -0.0008 -0.0392
  753MOL0     C 1522   6.896   8.739   6.050 -1.1672  0.6652  0.0860
  753MOL0     O 1523   6.836   8.839   6.117 -0.6551  0.0323  0.2512
  753MOL0     C 1524   6.832   8.850   6.255  0.7949  0.6621  1.0839
  753MOL0     C 1525   6.711   8.894   6.301 -0.4229 -0.1969  0.4799
  753MOL0     C 1526   6.698   8.902   6.447  0.4630 -0.3354  0.2436
  753MOL0     C 1527   6.813   8.861   6.532 -0.2677  0.5541  0.1176
  753MOL0     O 1528   6.833   8.862   6.668  0.0515  0.0676 -0.1004
  753MOL0     C 1529   6.741   8.941   6.746 -0.6161  0.1276  0.4557
  753MOL0     C 1530   6.762   9.095   6.757  0.7507  0.2565  0.7640
  753MOL0     C 1531   6.812   9.156   6.625 -0.0970 -0.2906  0.4642
  753MOL0     C 1532   6.840   9.304   6.627 -0.6032  0.1963 -1.0300
  753MOL0     C 1533   6.960   9.339   6.720 -0.6445  0.0356  0.2290
  753MOL0     C 1534   6.969   9.491   6.755  0.0452 -1.0266  0.7594
  753MOL0     C 1535   6.842   9.569   6.805 -0.1330  0.7258 -1.0572
  753MOL0     C 1536   6.780   9.513   6.932 -0.0202 -0.2726  0.1835
  753MOL0     N 1537   6.642   9.570   6.946  0.2643 -0.4562 -0.2673
  753MOL0     C 1538   6.633   9.658   7.047  0.4032 -0.2702  0.6431
  753MOL0     C 1539   6.504   9.647   7.094  0.6502 -0.8751  0.2598
  753MOL0     C 1540   6.443   9.739   7.197 -0.5206  0.7339  0.1788
  753MOL0     C 1541   6.291   9.747   7.186  1.5963 -0.1276  0.2119
  753MOL0     C 1542   6.264   9.862   7.287  0.0338 -0.9955  0.9246
  753MOL0     C 1543   6.256  10.009   7.227 -0.3971  0.3067  0.4544
  753MOL0     O 1544   6.251  10.111   7.329  0.0312 -0.6099 -0.5357
  753MOL0     C 1545   6.128  10.111   7.409 -0.2764 -0.7440  0.0561
  753MOL0     C 1546   6.146  10.184   7.522  0.4048 -0.0578  0.1575
  753MOL0     C 1547   6.051  10.214   7.618  0.8256  0.7906 -0.5598
  753MOL0     C 1548   6.091  10.308   7.732 -0.3919 -0.2084 -0.2081
  753MOL0     C 1549   5.919  10.157   7.584  0.5260 -0.5494  0.6596
  753MOL0     C 1550   5.797  10.155   7.673 -0.4685  0.5005  1.1771
  753MOL0     O 1551   5.679  10.142   7.612  0.4532 -0.3524 -0.3515
  753MOL0     C 1552   5.548  10.163   7.659 -0.4139 -0.3284 -0.0247
  753MOL0     C 1553   5.508  10.262   7.757 -0.5807 -0.4046  0.5076
  753MOL0     C 1554   5.385  10.256   7.811  0.2720 -0.2494  0.1856
  753MOL0     C 1555   5.283  10.172   7.756  0.5897  0.3396 -0.3410
  753MOL0     O 1556   5.151  10.167   7.801 -0.1528  0.0577 -0.2175
  753MOL0     C 1557   5.105  10.270   7.894  0.2419  0.8964  0.1215
  753MOL0     C 1558   4.960  10.242   7.925  0.0796  0.2068  0.5903
  753MOL0     C 1559   4.963  10.113   8.020  0.1202  0.0980  1.0641
  753MOL0     C 1560   4.823  10.077   8.093 -0.5738  0.5415  0.4424
  753MOL0     C 1561   4.723   9.986   8.020 -0.6036  0.4069  0.3426
  753MOL0     C 1562   4.652  10.059   7.905 -0.1503  0.4625 -0.1954
  753MOL0     C 1563   4.521   9.976   7.869 -0.5964 -0.1695  0.1023
  753MOL0     C 1564   4.556   9.853   7.786  0.9870 -1.1196 -0.2698
  753MOL0    Cl 1565   4.590   9.703   7.892  0.1860 -0.0153 -0.4347
  753MOL0     C 1566   5.321  10.080   7.660 -0.3171  0.3607 -0.3983
  753MOL0     C 1567   5.450  10.076   7.611 -0.1837 -0.4402 -1.0521
  753MOL0     O 1568   5.810  10.156   7.795  0.3847 -0.1173 -0.0525
  753MOL0     C 1569   5.897  10.109   7.453 -0.0468  0.5807 -1.3458
  753MOL0     C 1570   6.005  10.090   7.358  0.3887  0.3026  0.6715
  753MOL0     N 1571   6.446   9.547   7.022 -1.0996  0.3344 -0.1216
  753MOL0     N 1572   6.524   9.504   6.933 -0.1430 -1.0913  0.0275
  753MOL0     C 1573   6.934   8.821   6.467  0.0553  0.1542 -0.2807
  753MOL0     C 1574   6.938   8.809   6.330 -0.6615 -0.5346 -0.0989
  753MOL0     C 1575   6.891   8.748   5.906 -1.0763  0.6121  0.1866
  753MOL0     C 1576   6.951   8.648   5.825  0.5056  0.1804  0.1095
  753MOL0     C 1577   6.936   8.652   5.686  1.0101  0.5928  0.9933
  753MOL0     C 1578   6.862   8.752   5.626  0.1091  0.1616  0.5241
  753MOL0     O 1579   6.836   8.748   5.486  0.5133 -0.0382 -0.3805
  753MOL0     C 1580   6.745   8.636   5.446  0.3173  0.4604 -0.0658
  753MOL0     C 1581   6.643   8.679   5.340  0.1819 -0.6069 -0.1922
  753MOL0     C 1582   6.571   8.803   5.392 -0.5445  0.2150  0.3555
  753MOL0     C 1583   6.448   8.849   5.316 -0.2683  0.6466  0.3233
  753MOL0     C 1584   6.344   8.923   5.400  0.2742 -1.0299  0.0096
  753MOL0     C 1585   6.249   8.977   5.461  0.9197 -0.2888  0.3466
  753MOL0     C 1586   6.803   8.851   5.706 -0.1835  0.3565  0.7522
  753MOL0     C 1587   6.811   8.843   5.845  0.1754 -0.7905 -0.0241
  753MOL0     H 1588   6.634   8.908   6.225  0.3737  1.2364 -0.1072
  753MOL0     H 1589   6.602   8.940   6.482 -0.3977 -0.7303 -1.5556
  753MOL0     H 1590   6.634   8.941   6.724 -0.4948 -0.2129 -0.1737
  753MOL0     H 1591   6.751   8.891   6.843  1.7991  2.9970  1.8665
  753MOL0     H 1592   6.669   9.145   6.786  1.6092  1.3072  1.8183
  753MOL0     H 1593   6.839   9.116   6.833  1.9428  2.7733 -0.9803
  753MOL0     H 1594   6.901   9.108   6.584  0.5936  1.3105  0.0258
  753MOL0     H 1595   6.725   9.130   6.563  1.7941 -2.9035 -1.3581
  753MOL0     H 1596   6.864   9.333   6.524  2.2862  2.7165  0.1755
  753MOL0     H 1597   6.749   9.345   6.670  0.1001  0.0228  0.7072
  753MOL0     H 1598   6.945   9.287   6.815  2.6454  0.9682  1.3839
  753MOL0     H 1599   7.054   9.330   6.665  0.5541  3.2647  1.5124
  753MOL0     H 1600   7.048   9.490   6.831  1.1098 -1.3575 -0.3299
  753MOL0     H 1601   7.007   9.547   6.669  0.2688 -1.7098  0.4087
  753MOL0     H 1602   6.852   9.677   6.821  1.5500  0.4119  0.1543
  753MOL0     H 1603   6.755   9.567   6.738 -1.3455 -0.7890  0.4958
  753MOL0     H 1604   6.845   9.532   7.017  4.5052 -1.4175 -2.7049
  753MOL0     H 1605   6.778   9.404   6.927 -1.5278 -0.3563  1.7227
  753MOL0     H 1606   6.711   9.723   7.087 -1.0513  2.8582 -1.2193
  753MOL0     H 1607   6.479   9.713   7.297  0.4646 -2.0676 -0.8025
  753MOL0     H 1608   6.480   9.841   7.179 -2.7627  2.1985  3.1614
  753MOL0     H 1609   6.243   9.652   7.214 -0.5359  0.5529 -0.8714
  753MOL0     H 1610   6.254   9.782   7.090 -1.4965  2.1404  2.0590
  753MOL0     H 1611   6.340   9.873   7.365 -0.5945  0.7328  1.3369
  753MOL0     H 1612   6.164   9.853   7.332 -0.2052  1.1916  0.9567
  753MOL0     H 1613   6.169  10.021   7.162  1.3127 -2.1176 -2.5526
  753MOL0     H 1614   6.339  10.019   7.157  0.1671  0.4571  1.1335
  753MOL0     H 1615   6.250  10.203   7.549  0.2382  1.3510 -0.1077
  753MOL0     H 1616   6.176  10.262   7.782  0.7904 -0.2164 -2.1164
  753MOL0     H 1617   6.121  10.407   7.694 -0.4154  0.2225  0.8556
  753MOL0     H 1618   6.005  10.334   7.795  0.1865 -0.0523  0.5321
  753MOL0     H 1619   5.577  10.329   7.807  0.9540 -0.8690 -0.8972
  753MOL0     H 1620   5.361  10.326   7.890  0.2197 -0.9865  0.8404
  753MOL0     H 1621   5.166  10.257   7.984  0.2521  0.6448  0.0801
  753MOL0     H 1622   5.107  10.373   7.857  1.2011  1.1939  0.9431
  753MOL0     H 1623   4.909  10.327   7.973 -0.2691 -0.1519  0.8694
  753MOL0     H 1624   4.907  10.218   7.833  1.9871  1.0887 -0.8013
  753MOL0     H 1625   5.025  10.135   8.107 -1.0901 -0.5948  2.1200
  753MOL0     H 1626   5.010  10.027   7.972  1.7047  1.7648 -0.5606
  753MOL0     H 1627   4.862  10.032   8.185  1.1849  1.2207  0.0833
  753MOL0     H 1628   4.784  10.177   8.116 -0.4866  0.6062  0.3110
  753MOL0     H 1629   4.650   9.955   8.095  2.2495 -0.5727  2.9175
  753MOL0     H 1630   4.782   9.900   7.989  2.9981  2.8489 -0.1088
  753MOL0     H 1631   4.632  10.163   7.934  0.6103  0.1331  1.7157
  753MOL0     H 1632   4.719  10.060   7.818 -1.1294  0.3112 -0.9637
  753MOL0     H 1633   4.446  10.036   7.817  0.1942  2.0952  1.4554
  753MOL0     H 1634   4.481   9.935   7.963 -2.2940 -2.4118 -1.4724
  753MOL0     H 1635   4.639   9.888   7.723 -0.5251  1.0327 -1.1833
  753MOL0     H 1636   4.472   9.832   7.719  1.4932  0.5609 -1.5170
  753MOL0     H 1637   5.244  10.010   7.630  2.2117 -1.7283 -2.5732
  753MOL0     H 1638   5.496  10.011   7.538  3.3299 -0.1231  0.6601
  753MOL0     H 1639   5.794  10.087   7.427 -0.6302  1.1010  0.4154
  753MOL0     H 1640   5.987  10.066   7.254  2.0616  2.1535 -0.1003
  753MOL0     H 1641   7.023   8.799   6.526 -1.7032 -0.1064  2.4888
  753MOL0     H 1642   7.034   8.788   6.282  0.1642  1.4092  0.6070
  753MOL0     H 1643   6.998   8.563   5.875 -0.8015  0.7647  2.4935
  753MOL0     H 1644   6.985   8.580   5.621 -3.8233 -2.5815  0.3205
  753MOL0     H 1645   6.798   8.550   5.405 -2.6419 -0.4311 -2.3170
  753MOL0     H 1646   6.690   8.605   5.535  0.8719 -1.6086 -0.3929
  753MOL0     H 1647   6.573   8.598   5.321 -1.7299  0.0648  3.1963
  753MOL0     H 1648   6.693   8.700   5.245  1.6375  0.5995  0.7941
  753MOL0     H 1649   6.640   8.887   5.399  1.0793 -1.0559  0.2627
  753MOL0     H 1650   6.553   8.785   5.498  2.6236 -0.1990  0.9346
  753MOL0     H 1651   6.398   8.767   5.262  1.4016  1.7330 -3.1434
  753MOL0     H 1652   6.483   8.919   5.240 -0.4382  0.5604  0.1635
  753MOL0     H 1653   6.158   9.022   5.495  1.4660  1.5417 -0.4963
  753MOL0     H 1654   6.734   8.917   5.654 -0.0639 -1.1091 -1.3912
  753MOL0     H 1655   6.751   8.915   5.899 -0.1557 -0.1722 -1.1873
  754MOL0     O 1656   3.039   7.302   7.904 -0.1382  0.3117 -0.0404
  754MOL0     C 1657   3.078   7.220   7.986 -0.7435  0.4506  1.0217
  754MOL0     O 1658   3.023   7.098   8.010 -0.1725  0.0689 -0.2337
  754MOL0     C 1659   2.899   7.069   7.957 -0.0931  0.0064 -1.1140
  754MOL0     C 1660   2.897   7.006   7.833  1.3134 -1.0305  0.0452
  754MOL0     C 1661   2.774   6.992   7.769 -0.7978 -0.4909  0.2160
  754MOL0     C 1662   2.655   7.015   7.837  0.7220 -0.3103 -0.5255
  754MOL0     O 1663   2.542   6.988   7.770 -0.3214 -0.4309  0.9617
  754MOL0     C 1664   2.458   6.904   7.845 -0.5947  0.2529  0.3924
  754MOL0     C 1665   2.328   6.980   7.871  0.6040  0.3288  0.3498
  754MOL0     C 1666   2.205   6.888   7.889  0.3537  0.0930 -0.1426
  754MOL0     C 1667   2.141   6.841   7.754 -0.1107  0.5190  0.8882
  754MOL0     C 1668   2.009   6.766   7.796  0.2929 -0.3853 -0.3772
  754MOL0     C 1669   1.924   6.741   7.668 -0.4787  0.2091  0.1148
  754MOL0     C 1670   1.773   6.724   7.694 -0.5655  0.3341  0.1879
  754MOL0     C 1671   1.737   6.583   7.750 -0.2308  0.7357  0.0648
  754MOL0     N 1672   1.722   6.486   7.639 -0.0486  0.0576  0.6923
  754MOL0     C 1673   1.620   6.480   7.548 -0.2356  0.4880 -0.4409
  754MOL0     C 1674   1.639   6.360   7.483 -0.1919 -1.0436 -0.3803
  754MOL0     C 1675   1.544   6.288   7.397  0.0279  0.1900 -0.6343
  754MOL0     C 1676   1.559   6.134   7.406  1.0842 -0.4014 -0.1683
  754MOL0     C 1677   1.482   6.060   7.292  0.5333 -0.2402  0.3150
  754MOL0     C 1678   1.337   6.105   7.271 -1.0485 -0.6323  0.4045
  754MOL0     O 1679   1.246   6.079   7.384 -0.0118 -0.5228  0.4814
  754MOL0     C 1680   1.109   6.037   7.361  0.4826  0.1791  0.0213
  754MOL0     C 1681   1.051   6.004   7.486  0.1333  1.0497  0.4012
  754MOL0     C 1682   0.917   5.944   7.501 -0.0584 -0.3757  1.0213
  754MOL0     C 1683   0.874   5.898   7.636  0.2073  0.3494  0.6401
  754MOL0     C 1684   0.839   5.952   7.391  0.2132  0.3329  0.6500
  754MOL0     C 1685   0.694   5.904   7.393 -0.3090 -0.7530  0.2938
  754MOL0     O 1686   0.603   5.975   7.466  0.0616 -0.0136 -0.1290
  754MOL0     C 1687   0.468   5.953   7.443 -0.5779  0.1724 -0.0474
  754MOL0     C 1688   0.402   5.967   7.325  0.0555  0.2124 -0.4455
  754MOL0     C 1689   0.269   5.946   7.312 -0.4917  0.6370 -0.0570
  754MOL0     C 1690   0.203   5.894   7.432 -0.1134 -1.0590  0.1339
  754MOL0     O 1691   0.069   5.875   7.410 -0.5426  0.7265  0.0899
  754MOL0     C 1692   0.005   5.779   7.496 -0.3520  0.9952 -0.0247
  754MOL0     C 1693  -0.059   5.825   7.624 -0.0385  0.9682  1.0814
  754MOL0     C 1694  -0.141   5.714   7.690 -0.0132  0.5022 -0.3124
  754MOL0     C 1695  -0.291   5.721   7.676  0.8220  0.3532  0.3207
  754MOL0     C 1696  -0.375   5.596   7.711  0.0239  0.0939 -0.7865
  754MOL0     C 1697  -0.323   5.544   7.845  0.6191 -0.0596  0.4972
  754MOL0     C 1698  -0.409   5.439   7.923 -0.7787 -0.1257 -0.6755
  754MOL0     C 1699  -0.376   5.296   7.874  0.5132 -0.5959 -0.3016
  754MOL0    Cl 1700  -0.480   5.171   7.962 -0.1326  0.3692 -0.1734
  754MOL0     C 1701   0.273   5.878   7.556 -0.3076 -0.3664  0.0349
  754MOL0     C 1702   0.405   5.906   7.559  0.4116 -0.4399  0.9200
  754MOL0     O 1703   0.665   5.808   7.322  0.6665 -0.2789  0.6102
  754MOL0     C 1704   0.895   6.004   7.266  0.3557  0.8996 -0.9193
  754MOL0     C 1705   1.032   6.032   7.245  0.0640  0.4566  0.5136
  754MOL0     N 1706   1.761   6.306   7.535 -0.3476 -0.2370  0.7609
  754MOL0     N 1707   1.809   6.378   7.631  0.0724  0.2151 -0.3068
  754MOL0     C 1708   2.660   7.063   7.973 -0.1670 -0.7994 -0.2442
  754MOL0     C 1709   2.788   7.083   8.036  1.1381 -1.4279 -0.1994
  754MOL0     C 1710   3.214   7.241   8.036 -1.5337  0.0986 -0.1789
  754MOL0     C 1711   3.257   7.148   8.131 -0.2494  0.4459 -0.7414
  754MOL0     C 1712   3.390   7.174   8.177  0.2042  0.0601 -0.5824
  754MOL0     C 1713   3.472   7.283   8.137  0.3015 -0.0925  0.7154
  754MOL0     O 1714   3.599   7.280   8.163 -0.7915  0.5690  0.2605
  754MOL0     C 1715   3.652   7.206   8.266  0.7144  0.4964 -0.4351
  754MOL0     C 1716   3.788   7.233   8.313 -0.0020 -0.2502 -0.6546
  754MOL0     C 1717   3.825   7.156   8.444  0.2473  0.0164 -1.2201
  754MOL0     C 1718   3.894   7.025   8.425 -0.6010 -0.2955 -0.8989
  754MOL0     C 1719   3.956   6.995   8.560  0.1268  0.4212  0.1224
  754MOL0     C 1720   3.999   6.972   8.675  0.1631  0.9747  0.0004
  754MOL0     C 1721   3.420   7.371   8.039  1.2191 -0.3228 -1.9816
  754MOL0     C 1722   3.295   7.347   7.994  0.6320 -0.4999 -0.9846
  754MOL0     H 1723   2.989   6.996   7.776  0.3541 -0.1938 -1.7468
  754MOL0     H 1724   2.789   6.956   7.668 -0.2148  1.6319 -0.5002
  754MOL0     H 1725   2.441   6.816   7.782 -0.2362  0.2742  0.2614
  754MOL0     H 1726   2.492   6.882   7.947 -1.6533  1.5302  1.0586
  754MOL0     H 1727   2.339   7.032   7.967 -1.0345 -0.9574  1.2834
  754MOL0     H 1728   2.314   7.050   7.788  2.4886 -2.0341 -2.1420
  754MOL0     H 1729   2.228   6.809   7.961  2.0370 -1.1288 -1.9350
  754MOL0     H 1730   2.126   6.948   7.935 -0.7497 -0.4804 -1.2425
  754MOL0     H 1731   2.107   6.916   7.682 -1.8552 -0.0727  1.0263
  754MOL0     H 1732   2.216   6.783   7.701 -2.5103  0.4588 -2.7871
  754MOL0     H 1733   2.038   6.670   7.838  0.3504  0.5112  1.7104
  754MOL0     H 1734   1.952   6.819   7.872 -2.2047 -1.5287 -1.3462
  754MOL0     H 1735   1.931   6.817   7.589  2.0393  0.4692  0.5023
  754MOL0     H 1736   1.950   6.651   7.613 -0.0696 -2.1015  3.7622
  754MOL0     H 1737   1.745   6.805   7.762  2.6651 -0.5255  2.7846
  754MOL0     H 1738   1.730   6.735   7.594 -0.8141 -0.9004  0.1481
  754MOL0     H 1739   1.643   6.587   7.806 -1.2745 -1.4703 -1.3954
  754MOL0     H 1740   1.824   6.558   7.812 -0.0938  2.0915  0.4498
  754MOL0     H 1741   1.533   6.544   7.539 -0.8802  0.0339  1.9319
  754MOL0     H 1742   1.438   6.299   7.422 -0.7208 -0.1714 -3.3410
  754MOL0     H 1743   1.565   6.321   7.295 -2.0333  1.8891 -0.5936
  754MOL0     H 1744   1.519   6.096   7.501 -1.5683  0.7186 -0.7279
  754MOL0     H 1745   1.665   6.117   7.390  1.8410  2.4429  1.1379
  754MOL0     H 1746   1.487   5.951   7.290 -1.9457 -0.4049 -0.9904
  754MOL0     H 1747   1.541   6.088   7.204  2.4313 -0.5609  1.4184
  754MOL0     H 1748   1.297   6.051   7.184 -1.3845 -1.5525  1.1197
  754MOL0     H 1749   1.332   6.210   7.240  4.1505  0.3576  2.0367
  754MOL0     H 1750   1.117   6.013   7.572 -0.3298  0.4024  0.8388
  754MOL0     H 1751   0.955   5.884   7.708  2.2002  2.2200 -1.0638
  754MOL0     H 1752   0.809   5.978   7.672  1.2388  0.9486  1.2210
  754MOL0     H 1753   0.814   5.808   7.628 -0.7186  0.6341  3.3244
  754MOL0     H 1754   0.453   5.998   7.234  1.0598 -1.4072 -0.4666
  754MOL0     H 1755   0.218   5.958   7.217  3.8070  1.2722 -2.5510
  754MOL0     H 1756  -0.073   5.740   7.430 -0.0281  1.1226 -0.4904
  754MOL0     H 1757   0.070   5.696   7.525  0.3262  1.2551 -0.7572
  754MOL0     H 1758   0.017   5.854   7.697  2.5237 -2.3956 -0.0085
  754MOL0     H 1759  -0.121   5.914   7.610 -0.5878  0.4391  0.0419
  754MOL0     H 1760  -0.115   5.707   7.796  2.7046 -3.6923 -1.0039
  754MOL0     H 1761  -0.107   5.616   7.655 -0.8257  0.0503  0.1351
  754MOL0     H 1762  -0.323   5.819   7.712 -1.3311  0.2608 -1.1156
  754MOL0     H 1763  -0.325   5.727   7.572  1.3866 -0.0753  0.1074
  754MOL0     H 1764  -0.388   5.511   7.644 -0.2977  0.5152 -1.2664
  754MOL0     H 1765  -0.477   5.630   7.733 -0.4063 -0.8984 -1.1635
  754MOL0     H 1766  -0.235   5.482   7.823 -0.0617 -0.6765 -0.5803
  754MOL0     H 1767  -0.299   5.627   7.911  2.1855 -0.2026  0.1467
  754MOL0     H 1768  -0.511   5.477   7.908 -0.0499  2.5065  0.4328
  754MOL0     H 1769  -0.399   5.447   8.032  2.1826 -0.7694 -0.8316
  754MOL0     H 1770  -0.272   5.274   7.900  0.1259 -0.4682  1.5011
  754MOL0     H 1771  -0.395   5.279   7.768  1.3767 -2.7297 -0.1639
  754MOL0     H 1772   0.229   5.850   7.651 -4.1224 -0.2763 -1.5197
  754MOL0     H 1773   0.466   5.865   7.639  2.5587  0.9791  0.0891
  754MOL0     H 1774   0.827   5.986   7.183  1.4660 -0.9076 -1.5004
  754MOL0     H 1775   1.083   6.058   7.152  0.4936 -1.3056  0.2276
  754MOL0     H 1776   2.568   7.080   8.027  0.6014 -3.5628  2.1680
  754MOL0     H 1777   2.810   7.121   8.135 -0.7729 -2.0693  0.4998
  754MOL0     H 1778   3.194   7.071   8.175 -0.6075  0.6124 -0.9540
  754MOL0     H 1779   3.432   7.097   8.241 -1.4259 -0.1009  0.3453
  754MOL0     H 1780   3.586   7.223   8.351 -0.3592 -0.4965 -1.0279
  754MOL0     H 1781   3.654   7.101   8.235 -1.6605  0.9591 -2.4648
  754MOL0     H 1782   3.795   7.339   8.336  1.2252 -0.6570  1.0907
  754MOL0     H 1783   3.862   7.220   8.233 -1.8050  2.3154 -2.8904
  754MOL0     H 1784   3.727   7.148   8.493  1.0909  2.1033  1.0298
  754MOL0     H 1785   3.892   7.212   8.510  1.3437 -1.1215 -1.3207
  754MOL0     H 1786   3.983   7.037   8.362 -0.2485  1.0753 -0.1927
  754MOL0     H 1787   3.825   6.955   8.378 -0.6332 -0.0454 -1.2303
  754MOL0     H 1788   4.018   6.959   8.780 -1.7149  0.9647  0.3730
  754MOL0     H 1789   3.488   7.449   8.005  0.4774  0.1661 -2.3854
  754MOL0     H 1790   3.263   7.434   7.937  0.8572  0.3454  0.1416
  755MOL0     O 1791   9.540   4.711   3.279  0.4928  0.4199  0.2939
  755MOL0     C 1792   9.575   4.593   3.293  0.0811 -0.3944  0.1846
  755MOL0     O 1793   9.650   4.542   3.402 -0.3244  0.1367  0.3416
  755MOL0     C 1794   9.704   4.624   3.497 -0.3571  0.8249  0.0688
  755MOL0     C 1795   9.752   4.761   3.488  0.2899  0.0661 -0.1054
  755MOL0     C 1796   9.812   4.826   3.594 -0.7965  0.6373 -1.0558
  755MOL0     C 1797   9.802   4.765   3.724 -0.3988  1.2415  0.1560
  755MOL0     O 1798   9.852   4.826   3.836  0.2808  0.3872 -0.3810
  755MOL0     C 1799   9.792   4.813   3.966 -0.3826  0.0572 -0.5755
  755MOL0     C 1800   9.832   4.932   4.057 -0.1420 -0.4568 -0.4973
  755MOL0     C 1801   9.813   4.916   4.209  0.2992 -0.0859  0.5711
  755MOL0     C 1802   9.901   5.028   4.276 -0.1311  0.4979 -0.0311
  755MOL0     C 1803   9.843   5.070   4.407  0.0048 -0.4238 -0.8257
  755MOL0     C 1804   9.916   5.199   4.444 -0.4976 -0.4737 -0.2378
  755MOL0     C 1805   9.918   5.328   4.355 -0.7009 -0.1189 -0.7525
  755MOL0     C 1806   9.783   5.369   4.293 -1.1026  0.7565 -0.1870
  755MOL0     N 1807   9.689   5.439   4.390  0.4179 -0.2763  0.7557
  755MOL0     C 1808   9.634   5.380   4.500  0.6691 -0.1847  0.2528
  755MOL0     C 1809   9.583   5.477   4.578  0.2829 -0.0904  0.6462
  755MOL0     C 1810   9.511   5.459   4.702  0.3741 -0.3431  0.3771
  755MOL0     C 1811   9.519   5.587   4.788  0.0911  0.2185  0.1467
  755MOL0     C 1812   9.492   5.556   4.938  0.5277  0.1823 -0.0534
  755MOL0     C 1813   9.386   5.445   4.963 -0.0190 -0.2331 -0.0400
  755MOL0     O 1814   9.335   5.455   5.096 -0.4227  0.4996  0.3102
  755MOL0     C 1815   9.267   5.562   5.148  1.0649 -0.1083 -0.6535
  755MOL0     C 1816   9.242   5.548   5.284  0.0534 -0.1921 -0.4099
  755MOL0     C 1817   9.157   5.639   5.358  0.1257  1.0204  0.2605
  755MOL0     C 1818   9.129   5.608   5.505  0.2137  0.6556  1.0783
  755MOL0     C 1819   9.109   5.751   5.295 -0.6964 -0.7014 -0.2438
  755MOL0     C 1820   9.009   5.844   5.357  0.3493 -0.0033 -0.0664
  755MOL0     O 1821   8.921   5.902   5.262 -1.1833 -0.3641 -0.0409
  755MOL0     C 1822   8.820   5.977   5.324 -0.6965  0.9785 -0.4945
  755MOL0     C 1823   8.841   6.117   5.343  0.8496  0.6556  0.0283
  755MOL0     C 1824   8.757   6.199   5.422  1.1611 -0.2337  0.1329
  755MOL0     C 1825   8.639   6.136   5.466 -1.1035  0.1890 -0.3367
  755MOL0     O 1826   8.551   6.196   5.550 -0.4812 -0.2354 -0.0706
  755MOL0     C 1827   8.559   6.337   5.572 -0.9131  1.0037 -0.7424
  755MOL0     C 1828   8.452   6.378   5.674 -0.0454  0.6346  0.0685
  755MOL0     C 1829   8.311   6.320   5.636 -0.4332 -0.1180  0.3479
  755MOL0     C 1830   8.223   6.325   5.759 -0.7055  0.3136  0.2756
  755MOL0     C 1831   8.071   6.334   5.718 -0.6933  0.8661 -0.1659
  755MOL0     C 1832   7.985   6.285   5.839 -0.7596 -0.1611 -0.0109
  755MOL0     C 1833   7.826   6.286   5.806 -0.0665 -0.1066  1.6244
  755MOL0     C 1834   7.733   6.241   5.912 -0.0948  0.0494 -0.3392
  755MOL0    Cl 1835   7.741   6.336   6.068  0.1551  0.1275  0.5108
  755MOL0     C 1836   8.616   5.997   5.448  1.2235 -0.4159  0.4212
  755MOL0     C 1837   8.712   5.918   5.382 -0.3301  0.9619 -0.2414
  755MOL0     O 1838   9.004   5.870   5.477  0.2759  0.0761  0.3400
  755MOL0     C 1839   9.131   5.765   5.155  0.5472  0.3409 -0.1600
  755MOL0     C 1840   9.213   5.668   5.087  0.0861 -0.6500  0.0714
  755MOL0     N 1841   9.602   5.600   4.508  0.0708  0.6179 -0.2766
  755MOL0     N 1842   9.661   5.575   4.391  0.4290  0.1295  0.7664
  755MOL0     C 1843   9.741   4.640   3.731  0.4548  0.6550  0.3052
  755MOL0     C 1844   9.705   4.571   3.625 -0.6495  0.1574 -0.1505
  755MOL0     C 1845   9.551   4.502   3.171 -0.2014 -0.7545  1.2868
  755MOL0     C 1846   9.532   4.569   3.046 -0.6684  1.2064  0.5854
  755MOL0     C 1847   9.514   4.489   2.935  1.5848 -0.0041  0.4723
  755MOL0     C 1848   9.499   4.348   2.949  0.0977  0.0201  0.0910
  755MOL0     O 1849   9.458   4.285   2.833 -0.3791  0.2637 -0.3289
  755MOL0     C 1850   9.386   4.155   2.841 -0.2983 -0.1092 -0.2572
  755MOL0     C 1851   9.257   4.159   2.924 -0.3027 -0.2928  0.0765
  755MOL0     C 1852   9.155   4.271   2.875  0.1334  0.6921 -0.6285
  755MOL0     C 1853   9.013   4.270   2.949 -0.7064  0.6899  0.7526
  755MOL0     C 1854   9.002   4.363   3.053  1.4426 -0.8226  0.3265
  755MOL0     C 1855   8.991   4.455   3.137  0.2972 -0.1819  0.4358
  755MOL0     C 1856   9.529   4.290   3.073  1.0364  0.3003 -0.0929
  755MOL0     C 1857   9.559   4.363   3.182  0.5212  0.4223 -0.8183
  755MOL0     H 1858   9.746   4.821   3.397 -3.5507 -0.9586 -0.7209
  755MOL0     H 1859   9.850   4.927   3.583 -2.0094  1.2006 -0.3287
  755MOL0     H 1860   9.685   4.801   3.949  0.2349 -3.5545 -3.3472
  755MOL0     H 1861   9.835   4.722   4.010  3.0102  2.4105  1.5143
  755MOL0     H 1862   9.940   4.943   4.040  0.5406  1.4927  3.8132
  755MOL0     H 1863   9.793   5.029   4.022  0.9256 -0.0679 -0.6546
  755MOL0     H 1864   9.708   4.933   4.232  0.5117  1.1949  0.6592
  755MOL0     H 1865   9.852   4.820   4.246  1.5174  0.2053  0.0970
  755MOL0     H 1866  10.004   4.993   4.284 -1.5115 -4.0260  1.0432
  755MOL0     H 1867   9.899   5.114   4.209 -0.3549  0.0035 -0.6738
  755MOL0     H 1868   9.737   5.095   4.396  0.3990  1.8967  0.1560
  755MOL0     H 1869   9.873   4.992   4.477 -2.0192  0.9522  1.7318
  755MOL0     H 1870   9.882   5.226   4.544 -1.2185  0.4026 -0.7059
  755MOL0     H 1871  10.023   5.182   4.462  0.4802  1.4690 -3.3809
  755MOL0     H 1872   9.958   5.414   4.410 -0.8126 -1.3632  1.4215
  755MOL0     H 1873   9.982   5.314   4.268 -0.9693  1.7061 -1.2808
  755MOL0     H 1874   9.745   5.278   4.245  3.4605 -0.1567 -2.6926
  755MOL0     H 1875   9.806   5.437   4.211 -2.4654  0.3954 -0.8945
  755MOL0     H 1876   9.618   5.273   4.510 -0.2384  0.1277  2.6839
  755MOL0     H 1877   9.411   5.419   4.685 -0.1591  1.9787 -2.7145
  755MOL0     H 1878   9.576   5.381   4.744  0.3023 -1.7275 -1.9052
  755MOL0     H 1879   9.468   5.675   4.748  0.4536  1.1698  1.6837
  755MOL0     H 1880   9.624   5.616   4.789  0.4308 -0.9670  0.5893
  755MOL0     H 1881   9.462   5.647   4.991 -3.5334 -0.6886 -0.4634
  755MOL0     H 1882   9.584   5.531   4.992  0.0317  0.2328  0.8488
  755MOL0     H 1883   9.437   5.350   4.942  2.4392  1.3950 -2.0700
  755MOL0     H 1884   9.300   5.473   4.901 -2.0463  3.9287  4.0462
  755MOL0     H 1885   9.299   5.469   5.333  1.3228  0.4466 -0.8110
  755MOL0     H 1886   9.163   5.695   5.562  0.7101  0.3121  1.3231
  755MOL0     H 1887   9.021   5.595   5.516 -0.4196  4.9153  1.6833
  755MOL0     H 1888   9.181   5.515   5.529  1.3769  0.9802 -0.0727
  755MOL0     H 1889   8.928   6.162   5.297  0.8192  0.5407 -0.1415
  755MOL0     H 1890   8.788   6.295   5.462  2.5875 -0.8182  0.4776
  755MOL0     H 1891   8.650   6.377   5.618 -1.4660 -1.9378  3.5754
  755MOL0     H 1892   8.546   6.396   5.481 -1.4293  2.3340  0.1803
  755MOL0     H 1893   8.484   6.334   5.768 -1.2571 -0.4617 -0.0068
  755MOL0     H 1894   8.441   6.487   5.670 -0.6557  0.5592 -2.6180
  755MOL0     H 1895   8.320   6.216   5.606 -0.9825 -0.1723  0.3572
  755MOL0     H 1896   8.269   6.383   5.557 -0.5214  0.7898  1.0894
  755MOL0     H 1897   8.245   6.238   5.821  2.0256  0.3328 -0.5673
  755MOL0     H 1898   8.245   6.408   5.826  2.2225 -0.4567  0.4140
  755MOL0     H 1899   8.061   6.263   5.635  2.0738 -1.3236  1.2083
  755MOL0     H 1900   8.053   6.437   5.683  2.4418  2.8247  3.3123
  755MOL0     H 1901   8.022   6.197   5.893  0.4109  0.5035  0.2938
  755MOL0     H 1902   7.995   6.359   5.918  0.4191 -0.3468  0.0316
  755MOL0     H 1903   7.814   6.228   5.714 -2.7035  1.5772  0.7931
  755MOL0     H 1904   7.796   6.388   5.779 -1.7465 -0.8392  0.5681
  755MOL0     H 1905   7.753   6.135   5.929 -1.5792 -0.4806 -1.6371
  755MOL0     H 1906   7.629   6.241   5.876 -0.2179 -0.3026  0.0163
  755MOL0     H 1907   8.525   5.954   5.491 -0.0023 -0.5040 -2.0937
  755MOL0     H 1908   8.691   5.817   5.348 -0.5536  1.6879 -2.4347
  755MOL0     H 1909   9.105   5.855   5.100  1.8696  2.5892  2.6469
  755MOL0     H 1910   9.248   5.696   4.988  1.5215 -0.9042  0.4739
  755MOL0     H 1911   9.738   4.576   3.819  1.9518 -1.0352 -0.8239
  755MOL0     H 1912   9.669   4.470   3.638  2.7932 -1.2676 -0.8006
  755MOL0     H 1913   9.545   4.677   3.047  0.0026  1.2333 -2.1324
  755MOL0     H 1914   9.492   4.534   2.839 -1.1150  2.5952  2.1684
  755MOL0     H 1915   9.351   4.135   2.739 -2.7330  0.7413  0.3622
  755MOL0     H 1916   9.449   4.075   2.882  1.6346  0.1317 -2.5342
  755MOL0     H 1917   9.277   4.177   3.030 -3.5465  1.4285  0.5234
  755MOL0     H 1918   9.209   4.062   2.904  1.6459 -1.2716 -0.0893
  755MOL0     H 1919   9.132   4.233   2.775 -3.2175 -3.8701  1.5250
  755MOL0     H 1920   9.183   4.377   2.882 -0.0238  0.6386  1.9741
  755MOL0     H 1921   8.994   4.168   2.985  0.2903  0.9023  1.9191
  755MOL0     H 1922   8.927   4.295   2.885  0.0062 -2.4996 -1.7366
  755MOL0     H 1923   8.970   4.530   3.210 -2.2783 -2.8274  2.6617
  755MOL0     H 1924   9.515   4.183   3.084  0.1018  0.4208 -0.0804
  755MOL0     H 1925   9.559   4.313   3.278  1.4624  1.0997 -0.4562
  756MOL0     O 1926   6.845   9.916   4.803 -0.2720  0.1613  0.5133
  756MOL0     C 1927   6.810   9.909   4.683  0.7959  0.9475 -0.1203
  756MOL0     O 1928   6.687   9.940   4.646  0.1641  0.2005  0.4155
  756MOL0     C 1929   6.599  10.014   4.718  0.4800  0.0014 -0.0207
  756MOL0     C 1930   6.464   9.991   4.693  0.4130  0.2524 -0.2551
  756MOL0     C 1931   6.366  10.084   4.739  0.3905 -0.1497 -0.1179
  756MOL0     C 1932   6.405  10.191   4.813  0.0300 -0.7870  0.8204
  756MOL0     O 1933   6.300  10.274   4.837 -0.0756  0.4848  0.2010
  756MOL0     C 1934   6.311  10.382   4.931  0.2201 -0.0775  0.4646
  756MOL0     C 1935   6.171  10.434   4.958 -1.0795  0.3161  0.2161
  756MOL0     C 1936   6.172  10.531   5.077 -0.5354  0.9437  0.6947
  756MOL0     C 1937   6.238  10.665   5.050 -0.6733 -0.7524 -0.4959
  756MOL0     C 1938   6.267  10.745   5.175 -0.3619  0.8638  0.2721
  756MOL0     C 1939   6.389  10.675   5.247  0.2155 -0.2682  0.1776
  756MOL0     C 1940   6.438  10.745   5.370 -0.4354  0.0369  0.0616
  756MOL0     C 1941   6.501  10.877   5.322 -0.0314 -0.5449 -0.2824
  756MOL0     N 1942   6.611  10.912   5.419 -0.0298 -0.1780 -0.4506
  756MOL0     C 1943   6.734  10.862   5.416 -0.3348 -0.3191 -0.5831
  756MOL0     C 1944   6.796  10.908   5.518 -0.6928 -0.2201  0.0394
  756MOL0     C 1945   6.937  10.879   5.559  0.1482  0.1219  0.4927
  756MOL0     C 1946   7.005  11.010   5.552  0.0965  0.4255  0.1035
  756MOL0     C 1947   7.126  10.992   5.642  0.0514 -0.7754 -1.2251
  756MOL0     C 1948   7.218  11.121   5.645  0.2802  1.3078  0.9208
  756MOL0     O 1949   7.348  11.089   5.713  0.4893 -0.7503 -0.0506
  756MOL0     C 1950   7.427  11.198   5.750 -0.0617  0.7795 -1.2950
  756MOL0     C 1951   7.553  11.168   5.797  0.4667 -0.7973 -0.8500
  756MOL0     C 1952   7.654  11.270   5.825 -0.2828  0.3921 -0.7508
  756MOL0     C 1953   7.798  11.222   5.850 -0.3758  0.1198  0.3088
  756MOL0     C 1954   7.609  11.408   5.833  0.1323 -0.5399  0.0710
  756MOL0     C 1955   7.693  11.527   5.859 -0.7203  0.2797  0.1532
  756MOL0     O 1956   7.625  11.640   5.889 -0.1615 -0.0020  0.5229
  756MOL0     C 1957   7.710  11.743   5.940 -0.4204 -0.0608 -0.6134
  756MOL0     C 1958   7.675  11.870   5.910  0.6060 -0.3642 -0.7362
  756MOL0     C 1959   7.752  11.978   5.950  0.0193  0.4432  0.1384
  756MOL0     C 1960   7.877  11.963   6.010  0.7074 -0.1210  0.8035
  756MOL0     O 1961   7.958  12.066   6.047 -0.8258  0.0553  0.0417
  756MOL0     C 1962   7.905  12.199   6.071  0.5009 -0.3147 -0.3379
  756MOL0     C 1963   8.019  12.287   6.117 -0.3194 -0.4449 -0.6826
  756MOL0     C 1964   8.070  12.268   6.257  0.0875  0.5401 -1.0234
  756MOL0     C 1965   8.183  12.168   6.271 -0.1414  0.1766 -0.0160
  756MOL0     C 1966   8.248  12.168   6.408 -1.0401 -0.4848 -0.0826
  756MOL0     C 1967   8.158  12.093   6.505  0.0623  0.5693  0.6480
  756MOL0     C 1968   8.238  12.049   6.631 -1.0403  0.3496 -1.0405
  756MOL0     C 1969   8.185  11.928   6.710 -0.5909 -1.0363 -0.6619
  756MOL0    Cl 1970   8.303  11.888   6.834 -0.0241 -0.5744 -0.1923
  756MOL0     C 1971   7.921  11.830   6.035  0.0001  0.7212 -0.1213
  756MOL0     C 1972   7.836  11.721   6.015 -0.3170  0.8830  0.0474
  756MOL0     O 1973   7.812  11.512   5.848  0.6150  0.4868  0.4986
  756MOL0     C 1974   7.472  11.436   5.802  0.3749  0.1314  0.4820
  756MOL0     C 1975   7.383  11.333   5.758 -0.2938 -0.9040  0.1257
  756MOL0     N 1976   6.713  10.987   5.590 -0.0202 -0.4082 -0.4643
  756MOL0     N 1977   6.595  10.986   5.531 -0.0774  0.1768 -0.3654
  756MOL0     C 1978   6.544  10.202   4.856  0.0658  0.3063 -0.0143
  756MOL0     C 1979   6.643  10.124   4.789 -0.1980 -1.4863 -0.6844
  756MOL0     C 1980   6.908   9.853   4.590 -0.1365 -0.0228 -0.4363
  756MOL0     C 1981   7.037   9.805   4.622 -0.1074  0.0263 -0.9900
  756MOL0     C 1982   7.129   9.760   4.521  0.5580 -0.1903 -0.5463
  756MOL0     C 1983   7.089   9.771   4.388 -0.3791  1.3863 -0.0331
  756MOL0     O 1984   7.173   9.730   4.283 -0.0158 -0.8723  0.1886
  756MOL0     C 1985   7.184   9.592   4.250  0.6630 -0.6304  0.1703
  756MOL0     C 1986   7.279   9.514   4.347  0.4378 -1.0868 -0.1258
  756MOL0     C 1987   7.432   9.522   4.309  0.1989 -0.2267  0.4699
  756MOL0     C 1988   7.480   9.380   4.271  0.3026  0.4522 -0.9514
  756MOL0     C 1989   7.397   9.321   4.163 -0.2250 -0.7612  0.6112
  756MOL0     C 1990   7.330   9.289   4.072  0.9396 -0.3618  0.4884
  756MOL0     C 1991   6.965   9.821   4.349 -0.4465 -0.5826 -0.0036
  756MOL0     C 1992   6.880   9.864   4.450 -0.3486 -0.3280 -0.5688
  756MOL0     H 1993   6.426   9.899   4.650 -0.9109  1.4593 -1.7875
  756MOL0     H 1994   6.262  10.068   4.715  0.2829  2.8134 -1.9997
  756MOL0     H 1995   6.362  10.364   5.027  4.1128  0.1102 -1.3837
  756MOL0     H 1996   6.369  10.457   4.876 -0.3574  0.3766  0.4610
  756MOL0     H 1997   6.118  10.488   4.878  0.2397  1.5579  0.1315
  756MOL0     H 1998   6.117  10.346   4.992 -0.4934  0.4388  1.5203
  756MOL0     H 1999   6.070  10.534   5.114 -1.6966 -1.1663 -1.9637
  756MOL0     H 2000   6.226  10.481   5.158  2.3755  1.8974 -0.5165
  756MOL0     H 2001   6.323  10.653   4.980 -1.4496 -2.8814 -1.1679
  756MOL0     H 2002   6.161  10.715   4.991 -2.1141 -0.0169  1.9239
  756MOL0     H 2003   6.297  10.846   5.147  1.1092  0.2787 -0.3982
  756MOL0     H 2004   6.183  10.753   5.245 -2.5936  3.1972 -2.4104
  756MOL0     H 2005   6.353  10.575   5.270 -3.7604  1.3933  2.0333
  756MOL0     H 2006   6.467  10.654   5.173  0.9160  1.6271  0.3173
  756MOL0     H 2007   6.364  10.760   5.448  2.3412 -2.6731  3.5778
  756MOL0     H 2008   6.522  10.688   5.412  1.5910  4.4295  2.6220
  756MOL0     H 2009   6.426  10.956   5.326  0.2410 -0.3352  1.9113
  756MOL0     H 2010   6.529  10.879   5.216 -1.8627  1.8694 -0.8134
  756MOL0     H 2011   6.773  10.782   5.355  4.0005  0.7195  0.4401
  756MOL0     H 2012   6.925  10.832   5.657 -2.7232 -0.5046 -0.0641
  756MOL0     H 2013   6.976  10.803   5.492  0.8766  0.1409  0.8829
  756MOL0     H 2014   6.955  11.096   5.598  0.0302  0.6790 -0.4306
  756MOL0     H 2015   7.024  11.024   5.445 -1.3303 -2.0484 -0.5514
  756MOL0     H 2016   7.187  10.904   5.618  1.4589 -0.3391  0.5546
  756MOL0     H 2017   7.085  10.997   5.743 -1.0817 -1.2574 -1.6458
  756MOL0     H 2018   7.168  11.205   5.694 -0.3475  0.4759  1.7486
  756MOL0     H 2019   7.250  11.162   5.549 -1.7431 -0.7686 -0.7555
  756MOL0     H 2020   7.571  11.061   5.807  2.6413 -0.3110  1.4180
  756MOL0     H 2021   7.874  11.263   5.783  0.8074  1.0117  2.0793
  756MOL0     H 2022   7.836  11.259   5.946  1.1556  1.9721 -0.9247
  756MOL0     H 2023   7.816  11.115   5.845  1.9400  0.4677 -0.1651
  756MOL0     H 2024   7.576  11.889   5.869 -3.1040 -1.9003  6.0046
  756MOL0     H 2025   7.719  12.078   5.922 -0.6097 -0.0645 -0.9951
  756MOL0     H 2026   7.868  12.239   5.976  1.1258  2.0483  0.3540
  756MOL0     H 2027   7.826  12.206   6.147  0.9327  0.7227  0.0339
  756MOL0     H 2028   8.105  12.271   6.051  2.1153 -0.1565  2.2130
  756MOL0     H 2029   7.978  12.389   6.114 -0.1313 -0.1963  2.4034
  756MOL0     H 2030   7.989  12.238   6.324 -0.3544 -2.2587 -2.6760
  756MOL0     H 2031   8.107  12.365   6.291 -3.3860  1.3470  1.0197
  756MOL0     H 2032   8.148  12.066   6.250  0.2160  0.1636 -0.5749
  756MOL0     H 2033   8.252  12.198   6.192 -0.8395 -0.2456 -0.8078
  756MOL0     H 2034   8.276  12.263   6.453  2.6188 -1.4349 -0.0645
  756MOL0     H 2035   8.344  12.115   6.406 -0.4436  0.4981  1.2552
  756MOL0     H 2036   8.084  12.169   6.534  0.3274  0.9718  0.2985
  756MOL0     H 2037   8.116  12.003   6.460 -1.5176  2.1291 -1.1907
  756MOL0     H 2038   8.247  12.138   6.694 -0.0543 -1.4515  1.5232
  756MOL0     H 2039   8.344  12.045   6.605 -0.1671 -0.9451  2.2482
  756MOL0     H 2040   8.168  11.845   6.640 -0.1313  1.0035 -3.3653
  756MOL0     H 2041   8.084  11.945   6.749  0.7483  0.2485  2.5292
  756MOL0     H 2042   8.013  11.816   6.091 -1.4934 -3.7908  1.6635
  756MOL0     H 2043   7.863  11.622   6.050  0.6874  1.2418  0.3136
  756MOL0     H 2044   7.420  11.531   5.806 -0.0711 -0.0966  0.2182
  756MOL0     H 2045   7.279  11.356   5.739 -0.4701 -2.3133 -0.6950
  756MOL0     H 2046   6.584  10.276   4.924 -1.3819  1.1081 -0.0100
  756MOL0     H 2047   6.749  10.145   4.801 -0.7913  0.3741  2.1973
  756MOL0     H 2048   7.062   9.809   4.727 -2.6828  2.2186 -0.3453
  756MOL0     H 2049   7.228   9.727   4.553 -0.1269 -0.1633  1.8265
  756MOL0     H 2050   7.087   9.542   4.249  0.3152  0.0430 -0.7492
  756MOL0     H 2051   7.227   9.586   4.150  0.0219 -1.8291 -0.0565
  756MOL0     H 2052   7.239   9.414   4.366 -3.3317  0.1160 -0.9908
  756MOL0     H 2053   7.278   9.568   4.442  1.4618 -0.3617 -0.5075
  756MOL0     H 2054   7.486   9.553   4.398 -1.3470 -0.2900  1.4823
  756MOL0     H 2055   7.453   9.590   4.226 -3.8734 -0.1508 -0.7628
  756MOL0     H 2056   7.449   9.320   4.357  0.8148  1.4220 -0.0768
  756MOL0     H 2057   7.589   9.369   4.259  0.5270 -0.9825  1.6609
  756MOL0     H 2058   7.263   9.253   3.997  1.4047  0.1900 -0.2004
  756MOL0     H 2059   6.929   9.843   4.248 -2.5423  2.5043  1.2410
  756MOL0     H 2060   6.799   9.924   4.409  0.3056  0.4705 -0.7229
  757MOL0     O 2061   0.941   2.479   6.157 -0.7588 -0.3145 -0.3297
  757MOL0     C 2062   0.823   2.429   6.145 -0.6833  0.1477 -0.4364
  757MOL0     O 2063   0.789   2.295   6.135 -0.4327 -0.0611 -0.3767
  757MOL0     C 2064   0.891   2.203   6.132  0.1647  0.5410  0.9625
  757MOL0     C 2065   0.971   2.206   6.020 -0.8497 -0.8543  0.1619
  757MOL0     C 2066   1.079   2.109   6.015 -0.0195 -0.4672  0.7466
  757MOL0     C 2067   1.086   2.003   6.097 -0.1279 -0.1180 -0.1165
  757MOL0     O 2068   1.175   1.895   6.074  0.0759 -0.1531  0.7076
  757MOL0     C 2069   1.262   1.909   5.961 -0.7488 -0.1459 -0.0405
  757MOL0     C 2070   1.388   1.824   5.983  1.5431  0.3048 -0.4590
  757MOL0     C 2071   1.438   1.828   6.133  0.1372 -0.5587 -0.3569
  757MOL0     C 2072   1.353   1.736   6.235 -0.4024 -1.1804  0.2108
  757MOL0     C 2073   1.356   1.817   6.371 -0.1498 -0.4998  0.7796
  757MOL0     C 2074   1.246   1.767   6.455 -0.7544  0.0665  0.2764
  757MOL0     C 2075   1.250   1.817   6.600 -0.2721  0.0602 -0.7740
  757MOL0     C 2076   1.154   1.772   6.714 -0.1263 -1.0300 -0.0404
  757MOL0     N 2077   1.143   1.627   6.705  0.3189 -0.5740  0.2863
  757MOL0     C 2078   1.250   1.540   6.700 -0.0021 -0.8554 -0.8609
  757MOL0     C 2079   1.191   1.424   6.697 -0.1359 -0.5223  0.3168
  757MOL0     C 2080   1.268   1.292   6.692  0.2782 -0.6595  0.6530
  757MOL0     C 2081   1.408   1.305   6.628 -0.5669  0.3055 -0.0145
  757MOL0     C 2082   1.444   1.175   6.557 -0.3665 -0.2965 -1.1550
  757MOL0     C 2083   1.564   1.177   6.470  0.6161  0.8002  0.3827
  757MOL0     O 2084   1.526   1.268   6.369 -0.0498 -0.0117 -0.0818
  757MOL0     C 2085   1.610   1.291   6.258 -0.2444 -0.5014 -0.0781
  757MOL0     C 2086   1.582   1.388   6.161  0.2411  0.2826 -0.2646
  757MOL0     C 2087   1.676   1.408   6.055 -0.8182 -1.0159 -0.0221
  757MOL0     C 2088   1.629   1.514   5.947 -0.5358  0.7394 -0.9438
  757MOL0     C 2089   1.799   1.337   6.050  0.0399 -0.1063  0.5328
  757MOL0     C 2090   1.908   1.358   5.953  0.2352  0.4894 -0.0547
  757MOL0     O 2091   2.030   1.316   5.990  0.4692  0.1319 -0.4692
  757MOL0     C 2092   2.126   1.314   5.891 -0.5498  0.3477  0.0101
  757MOL0     C 2093   2.256   1.351   5.939  1.0012 -0.6335  0.2376
  757MOL0     C 2094   2.361   1.342   5.847  0.0646 -0.0027 -0.0967
  757MOL0     C 2095   2.343   1.295   5.706 -0.4464  0.7120  0.4158
  757MOL0     O 2096   2.453   1.296   5.619 -0.0456  1.1711 -0.8367
  757MOL0     C 2097   2.541   1.406   5.638  0.0428  0.3653 -0.6165
  757MOL0     C 2098   2.637   1.432   5.524  1.6238  0.2759 -1.3070
  757MOL0     C 2099   2.753   1.518   5.575 -0.2889  0.7780 -0.0618
  757MOL0     C 2100   2.878   1.479   5.491 -0.3453 -0.2936 -0.2196
  757MOL0     C 2101   2.989   1.579   5.498 -0.0800 -0.2302 -0.8501
  757MOL0     C 2102   3.115   1.525   5.424  0.1981  0.0168  0.6436
  757MOL0     C 2103   3.233   1.626   5.415  0.0760 -0.0268  0.1747
  757MOL0     C 2104   3.204   1.765   5.365  0.2889  0.2475 -0.1250
  757MOL0    Cl 2105   3.358   1.856   5.365 -0.3838 -0.3433  0.1836
  757MOL0     C 2106   2.219   1.243   5.676  0.1363  0.1643 -0.6514
  757MOL0     C 2107   2.113   1.262   5.758  0.0217  0.4551 -0.6794
  757MOL0     O 2108   1.875   1.396   5.845 -0.9787 -0.1563  0.3375
  757MOL0     C 2109   1.819   1.257   6.162 -0.4954  0.1513 -0.6619
  757MOL0     C 2110   1.732   1.233   6.255  0.1874 -0.3183 -0.7022
  757MOL0     N 2111   1.053   1.446   6.702  0.2454  0.7624  0.2705
  757MOL0     N 2112   1.021   1.569   6.710 -0.0919 -0.2198  0.4050
  757MOL0     C 2113   1.004   1.996   6.211 -0.0893 -0.3192 -0.0852
  757MOL0     C 2114   0.906   2.103   6.227  1.0070  0.3448 -0.8377
  757MOL0     C 2115   0.705   2.526   6.147  0.7074  0.1665 -0.0049
  757MOL0     C 2116   0.573   2.481   6.153 -0.2839  1.0075 -1.0821
  757MOL0     C 2117   0.467   2.571   6.144  0.6785 -0.9895 -0.0718
  757MOL0     C 2118   0.488   2.710   6.131 -0.4697 -0.4086 -0.0814
  757MOL0     O 2119   0.373   2.784   6.121  0.5456 -0.3751 -0.4242
  757MOL0     C 2120   0.385   2.924   6.082  0.2578 -0.3828  0.6269
  757MOL0     C 2121   0.272   2.977   5.993 -0.4441  0.2162 -0.3356
  757MOL0     C 2122   0.288   3.111   5.915  0.3343  0.9527 -0.8173
  757MOL0     C 2123   0.405   3.125   5.814  0.0658  0.8189 -0.9936
  757MOL0     C 2124   0.366   3.037   5.701 -0.6951 -1.6244  0.6486
  757MOL0     C 2125   0.337   2.959   5.614  0.2587 -0.3855 -0.3750
  757MOL0     C 2126   0.621   2.752   6.146  0.3909 -0.4292  0.5739
  757MOL0     C 2127   0.721   2.668   6.154  0.9181 -0.0200 -0.3656
  757MOL0     H 2128   0.953   2.280   5.943 -2.2164  0.1667  1.4002
  757MOL0     H 2129   1.147   2.125   5.932  0.2370  3.3714  1.4799
  757MOL0     H 2130   1.224   1.896   5.859 -0.6259 -0.6050 -0.0322
  757MOL0     H 2131   1.307   2.009   5.961  1.9070 -1.2044  2.1098
  757MOL0     H 2132   1.377   1.723   5.944  2.4120 -0.5210  1.3164
  757MOL0     H 2133   1.456   1.882   5.920 -0.3720 -0.5710 -3.5488
  757MOL0     H 2134   1.543   1.798   6.142  0.2339 -0.7625 -1.9298
  757MOL0     H 2135   1.438   1.934   6.159  2.0385 -0.9175  1.3659
  757MOL0     H 2136   1.248   1.721   6.210 -0.6126 -0.3253  0.5578
  757MOL0     H 2137   1.405   1.644   6.263  1.7259  0.4149  1.8352
  757MOL0     H 2138   1.451   1.796   6.421 -1.0894 -1.6076  2.1843
  757MOL0     H 2139   1.340   1.925   6.357 -1.3885 -0.8842 -1.2136
  757MOL0     H 2140   1.148   1.799   6.418  0.0007  3.3353  0.8251
  757MOL0     H 2141   1.254   1.657   6.455 -0.9596  0.0201  1.8627
  757MOL0     H 2142   1.346   1.781   6.637 -0.5483  0.1484  0.0377
  757MOL0     H 2143   1.249   1.927   6.601 -0.5548  0.0807 -1.7879
  757MOL0     H 2144   1.058   1.823   6.716  0.6149  0.4138  2.0099
  757MOL0     H 2145   1.199   1.806   6.807 -2.1170  2.4414 -0.1791
  757MOL0     H 2146   1.358   1.541   6.693  0.0712 -1.5544  0.0100
  757MOL0     H 2147   1.275   1.258   6.795  2.1037 -0.8558  0.5039
  757MOL0     H 2148   1.205   1.228   6.629  0.5205  0.3015 -0.6080
  757MOL0     H 2149   1.485   1.307   6.705 -2.7583  0.9094  2.2848
  757MOL0     H 2150   1.406   1.389   6.558 -0.7129 -0.0139 -0.4017
  757MOL0     H 2151   1.351   1.155   6.502 -1.1224  2.1715 -0.9078
  757MOL0     H 2152   1.458   1.108   6.643  3.0142 -1.4878 -2.4991
  757MOL0     H 2153   1.579   1.080   6.420  4.1077 -0.0714  2.7541
  757MOL0     H 2154   1.658   1.200   6.521  0.6931  0.2050  0.5238
  757MOL0     H 2155   1.479   1.421   6.167 -0.9730 -2.8802 -1.5377
  757MOL0     H 2156   1.699   1.598   5.943  1.9967 -1.2316 -0.7949
  757MOL0     H 2157   1.631   1.475   5.844  2.1950  2.3991 -1.6514
  757MOL0     H 2158   1.529   1.551   5.971 -0.5997  1.7212 -2.5451
  757MOL0     H 2159   2.257   1.393   6.039  0.7499 -0.4872  0.1796
  757MOL0     H 2160   2.457   1.381   5.881  0.4017 -0.0962 -0.9132
  757MOL0     H 2161   2.486   1.496   5.669 -4.3947 -2.1731 -0.2055
  757MOL0     H 2162   2.596   1.381   5.729 -1.0253 -0.7993 -0.2578
  757MOL0     H 2163   2.663   1.331   5.493  0.8990  0.0451 -1.1702
  757MOL0     H 2164   2.591   1.489   5.443  1.0007  1.9051  0.1303
  757MOL0     H 2165   2.769   1.509   5.683  0.2034  0.6775 -0.1370
  757MOL0     H 2166   2.729   1.623   5.561 -0.8764  0.4624 -1.6156
  757MOL0     H 2167   2.916   1.377   5.504  1.6604  0.6985  2.7000
  757MOL0     H 2168   2.846   1.469   5.387 -0.6302 -1.7996 -0.0113
  757MOL0     H 2169   3.008   1.596   5.604 -0.7408  0.5775 -0.8542
  757MOL0     H 2170   2.951   1.667   5.445  0.4575  2.4502  2.8768
  757MOL0     H 2171   3.131   1.433   5.480 -0.8480  1.0526  2.7476
  757MOL0     H 2172   3.100   1.503   5.318 -0.3000  0.5014  0.6115
  757MOL0     H 2173   3.307   1.587   5.345  0.0434  2.0785 -1.1237
  757MOL0     H 2174   3.281   1.612   5.512  1.8142 -0.4323 -0.7025
  757MOL0     H 2175   3.127   1.809   5.430  2.2858  1.5355  1.4809
  757MOL0     H 2176   3.161   1.765   5.265 -0.3149 -1.3188  0.0911
  757MOL0     H 2177   2.197   1.182   5.589 -1.1146  2.8721 -2.3670
  757MOL0     H 2178   2.017   1.224   5.725 -0.4458  1.1150 -0.1250
  757MOL0     H 2179   1.906   1.192   6.162  0.1719  1.0128 -0.3314
  757MOL0     H 2180   1.759   1.157   6.327 -0.8903 -1.5440 -1.5581
  757MOL0     H 2181   1.033   1.907   6.266  2.1892 -0.8608 -2.0150
  757MOL0     H 2182   0.843   2.090   6.314 -0.2231  1.7577 -1.4566
  757MOL0     H 2183   0.540   2.378   6.158 -0.0813  0.7392 -3.9322
  757MOL0     H 2184   0.368   2.537   6.172 -0.1508  2.3116  1.4313
  757MOL0     H 2185   0.401   2.986   6.170 -0.4779 -0.0408  0.5291
  757MOL0     H 2186   0.477   2.944   6.025  0.3323 -0.1965  0.8101
  757MOL0     H 2187   0.188   2.996   6.060  1.8581  0.6304  2.6318
  757MOL0     H 2188   0.247   2.900   5.919  0.6858 -0.0254 -0.4856
  757MOL0     H 2189   0.300   3.193   5.986  2.0170  2.0140 -2.2323
  757MOL0     H 2190   0.195   3.132   5.861 -1.3742 -2.4510  0.4932
  757MOL0     H 2191   0.502   3.097   5.855  0.3608  1.1148 -1.4852
  757MOL0     H 2192   0.417   3.229   5.781  0.1677  1.2436  0.3383
  757MOL0     H 2193   0.316   2.891   5.534  0.0421 -1.7239  0.7728
  757MOL0     H 2194   0.642   2.858   6.158  0.9071 -0.1678 -1.9985
  757MOL0     H 2195   0.817   2.714   6.170 -0.0476  1.9706 -0.0482
  758MOL0     O 2196  11.015   9.614   7.180 -0.5604  0.1292  0.0441
  758MOL0     C 2197  10.996   9.725   7.129 -0.4599  0.6176 -0.6191
  758MOL0     O 2198  10.911   9.741   7.025  0.4341  0.0735  0.3387
  758MOL0     C 2199  10.828   9.633   6.989  0.9880 -0.3110 -0.9719
  758MOL0     C 2200  10.761   9.570   7.095  0.5643 -0.1526  0.4388
  758MOL0     C 2201  10.681   9.459   7.061 -0.4248 -0.3882 -0.6470
  758MOL0     C 2202  10.673   9.408   6.926  0.0405  0.2291 -0.7500
  758MOL0     O 2203  10.588   9.301   6.907  0.5046  0.3128  0.1546
  758MOL0     C 2204  10.632   9.200   6.819  0.1061  0.2637 -0.3388
  758MOL0     C 2205  10.581   9.058   6.862 -0.6132  0.9540  0.8759
  758MOL0     C 2206  10.606   8.950   6.761  0.0532  0.5963  0.1396
  758MOL0     C 2207  10.509   8.947   6.642  0.4980  0.8649 -0.4683
  758MOL0     C 2208  10.524   8.821   6.557  0.9661  0.1548 -0.8261
  758MOL0     C 2209  10.652   8.794   6.487 -0.2580 -0.8044  0.5879
  758MOL0     C 2210  10.640   8.686   6.374 -0.2280  0.7653 -0.1599
  758MOL0     C 2211  10.625   8.541   6.410  0.0142 -0.2139  0.2312
  758MOL0     N 2212  10.683   8.444   6.312 -0.1272  0.8017  0.2471
  758MOL0     C 2213  10.819   8.416   6.292  0.2970  0.2198  0.3462
  758MOL0     C 2214  10.823   8.320   6.203  0.2783 -0.1392 -0.5249
  758MOL0     C 2215  10.941   8.242   6.145 -0.2307 -0.3542  0.5378
  758MOL0     C 2216  10.971   8.265   5.990 -0.0179 -0.1955 -0.2128
  758MOL0     C 2217  11.093   8.174   5.951  0.8098 -0.3653 -0.8198
  758MOL0     C 2218  11.134   8.207   5.809 -0.7743  0.4728  1.1270
  758MOL0     O 2219  11.143   8.352   5.773 -0.1828 -1.3335  0.0389
  758MOL0     C 2220  11.246   8.434   5.825  0.5659  1.2605 -0.7688
  758MOL0     C 2221  11.231   8.575   5.820 -0.5005 -0.5343  0.2219
  758MOL0     C 2222  11.332   8.660   5.852 -0.6663 -0.6324  0.9191
  758MOL0     C 2223  11.298   8.810   5.841 -0.2803 -0.2632 -1.0816
  758MOL0     C 2224  11.449   8.612   5.917 -0.4030 -0.8509 -0.0058
  758MOL0     C 2225  11.551   8.704   5.970 -0.5437 -0.5217 -0.3084
  758MOL0     O 2226  11.517   8.834   5.998 -0.4198  0.4268 -0.3448
  758MOL0     C 2227  11.618   8.914   6.058 -1.2330  0.3304 -0.9018
  758MOL0     C 2228  11.633   8.917   6.199  0.5586  0.0171  0.2825
  758MOL0     C 2229  11.735   8.991   6.256  0.4585 -0.6590 -0.2356
  758MOL0     C 2230  11.837   9.040   6.186 -0.0903  0.6114  0.5806
  758MOL0     O 2231  11.935   9.108   6.253 -0.4879 -0.2847 -0.3411
  758MOL0     C 2232  12.041   9.169   6.179  0.6098  0.6264 -0.3064
  758MOL0     C 2233  12.144   9.227   6.279 -0.3080  0.1052 -0.6017
  758MOL0     C 2234  12.190   9.356   6.210  1.0189 -0.3353 -0.4709
  758MOL0     C 2235  12.271   9.435   6.308 -0.5241  0.8197 -0.6431
  758MOL0     C 2236  12.311   9.571   6.256 -0.7401  0.1723 -0.6913
  758MOL0     C 2237  12.410   9.589   6.136 -0.8165 -0.1912 -0.6273
  758MOL0     C 2238  12.453   9.727   6.114  0.5027  0.1852  0.2300
  758MOL0     C 2239  12.518   9.754   5.976  0.8078 -0.2542 -0.3591
  758MOL0    Cl 2240  12.665   9.666   5.989  0.0058  0.0066 -0.0880
  758MOL0     C 2241  11.833   9.025   6.045  1.2210  0.5442 -0.4014
  758MOL0     C 2242  11.721   8.970   5.980  0.5435  0.2820  0.0963
  758MOL0     O 2243  11.672   8.662   5.974  0.3440  0.4029  0.1841
  758MOL0     C 2244  11.456   8.471   5.943 -0.2901  0.0644  0.2705
  758MOL0     C 2245  11.353   8.383   5.896 -0.1326  0.0719  0.0936
  758MOL0     N 2246  10.694   8.285   6.162  0.4063 -0.7351  0.5801
  758MOL0     N 2247  10.614   8.368   6.225  0.2469 -0.3576  0.0899
  758MOL0     C 2248  10.745   9.473   6.823  0.6806 -0.9101  0.6978
  758MOL0     C 2249  10.816   9.590   6.862 -0.8897 -0.0033 -0.4529
  758MOL0     C 2250  11.072   9.843   7.186 -0.2189  1.1407 -0.0616
  758MOL0     C 2251  11.150   9.836   7.307 -0.0886 -0.1120  0.3608
  758MOL0     C 2252  11.212   9.946   7.359 -0.3544 -0.1250  0.4584
  758MOL0     C 2253  11.216  10.063   7.297  0.5088 -0.5694  0.2063
  758MOL0     O 2254  11.307  10.156   7.339 -0.0806  0.5850  0.1429
  758MOL0     C 2255  11.302  10.287   7.307  0.1310  0.4189  0.4156
  758MOL0     C 2256  11.404  10.358   7.401 -0.8581  0.3208 -0.5673
  758MOL0     C 2257  11.553  10.317   7.386 -0.6369  1.0234 -0.3398
  758MOL0     C 2258  11.591  10.205   7.483 -0.2962  0.0919  0.7840
  758MOL0     C 2259  11.587  10.245   7.629  0.1233 -0.1165 -0.1651
  758MOL0     C 2260  11.555  10.266   7.746 -0.2170 -0.4190  0.1516
  758MOL0     C 2261  11.142  10.083   7.175 -0.6924  0.1698 -0.4670
  758MOL0     C 2262  11.072   9.970   7.120 -0.2220 -0.0845  0.0686
  758MOL0     H 2263  10.749   9.604   7.197 -1.1868 -0.9808  0.5552
  758MOL0     H 2264  10.622   9.418   7.142  1.2459  1.6684  1.7715
  758MOL0     H 2265  10.607   9.223   6.714  1.3737 -1.9212 -1.1949
  758MOL0     H 2266  10.741   9.200   6.815  0.0741  0.0859 -1.8674
  758MOL0     H 2267  10.628   9.023   6.955 -0.5446 -3.9386 -0.7326
  758MOL0     H 2268  10.472   9.059   6.872 -1.0340  0.2745 -2.6013
  758MOL0     H 2269  10.703   8.958   6.711 -2.5989 -1.2421 -6.3067
  758MOL0     H 2270  10.591   8.852   6.807  0.3732 -0.9280 -2.7622
  758MOL0     H 2271  10.405   8.946   6.676  0.3751  1.2426 -0.8249
  758MOL0     H 2272  10.513   9.036   6.579  0.0648 -0.0537 -1.8525
  758MOL0     H 2273  10.508   8.733   6.620  1.7335 -0.3442 -1.3251
  758MOL0     H 2274  10.448   8.818   6.478 -1.3751 -1.7043  1.3316
  758MOL0     H 2275  10.679   8.885   6.433 -3.2736  0.9158  1.6962
  758MOL0     H 2276  10.730   8.772   6.560  0.2090  0.1206  0.3747
  758MOL0     H 2277  10.558   8.708   6.305  0.2817 -1.8966 -1.7495
  758MOL0     H 2278  10.735   8.701   6.323  1.2914  1.0072  2.5404
  758MOL0     H 2279  10.518   8.523   6.424 -0.1822 -1.8872 -2.5713
  758MOL0     H 2280  10.670   8.525   6.508 -0.8464  1.3811  0.9224
  758MOL0     H 2281  10.898   8.461   6.350 -0.1400  0.5558  0.6889
  758MOL0     H 2282  11.026   8.265   6.209 -0.4987  1.7060  0.2148
  758MOL0     H 2283  10.916   8.135   6.154 -1.3129 -0.4696 -2.5096
  758MOL0     H 2284  10.978   8.370   5.961 -1.2982 -0.4787 -1.6774
  758MOL0     H 2285  10.882   8.238   5.933 -2.2845  1.5198  2.2505
  758MOL0     H 2286  11.061   8.070   5.957 -1.3799  0.1613 -2.2232
  758MOL0     H 2287  11.172   8.189   6.026  0.9945 -1.3145 -0.8239
  758MOL0     H 2288  11.060   8.165   5.741 -0.0028 -1.5217  1.4574
  758MOL0     H 2289  11.219   8.146   5.778 -2.9658 -1.9145 -0.5850
  758MOL0     H 2290  11.148   8.619   5.766  1.2966  3.4010  0.3076
  758MOL0     H 2291  11.244   8.843   5.930 -3.4429  1.3847 -3.4417
  758MOL0     H 2292  11.376   8.880   5.810 -0.5372 -0.6550 -2.7084
  758MOL0     H 2293  11.231   8.827   5.756 -2.7638  1.9243  1.1250
  758MOL0     H 2294  11.559   8.865   6.258  1.6818 -1.8676  0.0931
  758MOL0     H 2295  11.738   8.985   6.364  0.2394 -0.5345 -0.2212
  758MOL0     H 2296  12.082   9.091   6.114  1.6127  0.5502  0.3983
  758MOL0     H 2297  11.986   9.250   6.130  3.2769  4.8500  2.9780
  758MOL0     H 2298  12.090   9.261   6.368  3.6350 -1.4937  2.7181
  758MOL0     H 2299  12.223   9.156   6.303  2.8212  3.1143 -1.2312
  758MOL0     H 2300  12.109   9.426   6.190  1.4645  0.3412  0.0302
  758MOL0     H 2301  12.248   9.323   6.123 -2.5491 -1.5142 -2.6106
  758MOL0     H 2302  12.214   9.455   6.399  3.7145  1.5942  2.1082
  758MOL0     H 2303  12.366   9.384   6.323 -0.9212 -0.0583 -1.0215
  758MOL0     H 2304  12.350   9.627   6.341 -0.8768 -0.2408 -0.3582
  758MOL0     H 2305  12.217   9.626   6.243 -0.5154  1.9018  3.4901
  758MOL0     H 2306  12.503   9.535   6.158  0.0254  1.8092  1.0086
  758MOL0     H 2307  12.369   9.547   6.043 -0.9525 -0.5795 -0.3976
  758MOL0     H 2308  12.526   9.759   6.188 -0.1013  1.0406  0.4592
  758MOL0     H 2309  12.368   9.791   6.140 -1.2564 -1.8473 -0.1859
  758MOL0     H 2310  12.542   9.860   5.969 -2.3173  0.4863 -1.3991
  758MOL0     H 2311  12.457   9.720   5.892  3.1180 -3.3971 -0.9622
  758MOL0     H 2312  11.912   9.060   5.979  0.2847 -0.2030 -1.9728
  758MOL0     H 2313  11.721   8.962   5.872 -0.9131  1.3929 -0.0034
  758MOL0     H 2314  11.540   8.430   5.997  1.9233 -0.9130 -3.5136
  758MOL0     H 2315  11.369   8.276   5.910  0.9874  0.5482  3.1919
  758MOL0     H 2316  10.747   9.441   6.719  0.5908 -1.3230  0.8192
  758MOL0     H 2317  10.874   9.632   6.780  0.4731 -0.8276  0.0409
  758MOL0     H 2318  11.156   9.749   7.370  0.8354  0.5157  1.1728
  758MOL0     H 2319  11.273   9.941   7.449  3.0211 -1.3315 -1.6962
  758MOL0     H 2320  11.349  10.296   7.208  0.1823  0.3611  0.4340
  758MOL0     H 2321  11.198  10.315   7.327  0.0092 -0.1589  0.6154
  758MOL0     H 2322  11.366  10.348   7.503  0.0396  0.7200 -0.1817
  758MOL0     H 2323  11.385  10.460   7.365 -1.5727  0.2276 -0.4688
  758MOL0     H 2324  11.622  10.397   7.414 -1.3309  1.2483  0.8069
  758MOL0     H 2325  11.569  10.282   7.283 -0.5567 -2.0090  0.5890
  758MOL0     H 2326  11.696  10.188   7.460  0.2346  2.7154  0.9337
  758MOL0     H 2327  11.528  10.116   7.476 -1.1645  0.7641 -0.2022
  758MOL0     H 2328  11.507  10.271   7.841 -0.0226 -1.2841  0.3020
  758MOL0     H 2329  11.158  10.171   7.113  4.1824 -1.4349 -1.9712
  758MOL0     H 2330  11.023  10.006   7.030 -2.9123 -1.6536  0.7945
  759MOL0     O 2331   1.033   4.670   1.013  0.6261  0.3161 -0.2586
  759MOL0     C 2332   1.121   4.584   1.014  0.3567 -0.3395 -0.2174
  759MOL0     O 2333   1.219   4.563   1.115 -0.4945  0.3048 -0.4123
  759MOL0     C 2334   1.239   4.655   1.226 -0.4024 -0.5900 -0.1265
  759MOL0     C 2335   1.125   4.711   1.296  0.1925  0.3138 -0.1445
  759MOL0     C 2336   1.140   4.798   1.403 -0.4738  0.6770  0.3475
  759MOL0     C 2337   1.272   4.831   1.447  0.4250  0.5514  0.2238
  759MOL0     O 2338   1.288   4.913   1.557 -0.5800 -0.1111 -0.1161
  759MOL0     C 2339   1.252   4.844   1.683 -1.1080  0.0192 -0.3267
  759MOL0     C 2340   1.391   4.786   1.734  1.3418  0.6585 -0.4415
  759MOL0     C 2341   1.382   4.752   1.884 -0.1005  0.2068 -0.4561
  759MOL0     C 2342   1.515   4.686   1.936 -0.4636  0.4356  0.1838
  759MOL0     C 2343   1.497   4.648   2.081 -0.3503 -0.4884 -0.8901
  759MOL0     C 2344   1.628   4.574   2.131 -0.4537  0.4296 -0.8341
  759MOL0     C 2345   1.620   4.510   2.276  0.3182 -0.5351 -0.1941
  759MOL0     C 2346   1.746   4.497   2.357 -0.2368  0.4174  0.4808
  759MOL0     N 2347   1.848   4.425   2.298 -0.0018 -0.4041  0.4528
  759MOL0     C 2348   1.898   4.310   2.351 -1.4409  0.4238 -0.1220
  759MOL0     C 2349   2.006   4.281   2.278  0.1942  0.0188 -1.7517
  759MOL0     C 2350   2.107   4.167   2.286  0.4935  0.2091 -0.1654
  759MOL0     C 2351   2.243   4.208   2.342 -0.0415 -0.5587  0.0198
  759MOL0     C 2352   2.360   4.103   2.339 -0.2116 -1.0347 -0.2150
  759MOL0     C 2353   2.481   4.129   2.436 -0.1479 -0.1490  0.1899
  759MOL0     O 2354   2.595   4.180   2.373 -0.0497 -0.0636 -0.5553
  759MOL0     C 2355   2.608   4.312   2.371 -0.1102 -0.4637  0.1180
  759MOL0     C 2356   2.734   4.348   2.312  0.2619  0.1798  0.5947
  759MOL0     C 2357   2.761   4.480   2.287  0.6501 -0.1226 -0.0760
  759MOL0     C 2358   2.884   4.506   2.208 -0.1526  0.4432 -0.3672
  759MOL0     C 2359   2.668   4.585   2.326  0.3047  0.0844  0.3453
  759MOL0     C 2360   2.689   4.733   2.285  0.2248  0.5103 -0.4133
  759MOL0     O 2361   2.595   4.825   2.302  0.0527  0.1879  0.0582
  759MOL0     C 2362   2.625   4.958   2.316  0.3102  0.1084  0.0269
  759MOL0     C 2363   2.688   5.001   2.434 -1.3947  0.4732 -0.1646
  759MOL0     C 2364   2.737   5.133   2.442 -0.4845 -0.0739  0.4331
  759MOL0     C 2365   2.709   5.227   2.346  0.4870  0.3418  0.2419
  759MOL0     O 2366   2.726   5.363   2.386 -0.3527  0.3422  0.4433
  759MOL0     C 2367   2.652   5.455   2.308 -0.1686 -0.4451  1.3865
  759MOL0     C 2368   2.714   5.594   2.351  0.7786  0.7885  0.1516
  759MOL0     C 2369   2.667   5.634   2.491 -0.6422 -0.1443  0.4304
  759MOL0     C 2370   2.687   5.781   2.501 -0.0746  0.1560 -0.4728
  759MOL0     C 2371   2.628   5.830   2.635 -0.2897 -0.0639  0.0991
  759MOL0     C 2372   2.667   5.962   2.689 -0.0907 -0.5902  0.2835
  759MOL0     C 2373   2.626   5.994   2.834  0.3528  0.5604 -0.3786
  759MOL0     C 2374   2.657   6.137   2.879  0.5372 -1.3205 -0.2321
  759MOL0    Cl 2375   2.557   6.154   3.032  0.6833  0.1636  0.3541
  759MOL0     C 2376   2.644   5.180   2.226  0.1650 -0.1370 -0.2142
  759MOL0     C 2377   2.609   5.043   2.208 -0.5966 -0.8367  0.1050
  759MOL0     O 2378   2.800   4.761   2.248 -0.1612  0.3911 -0.3094
  759MOL0     C 2379   2.551   4.555   2.393  0.1997 -0.7411  0.6349
  759MOL0     C 2380   2.523   4.416   2.415 -0.8432 -0.7736  0.0015
  759MOL0     N 2381   2.029   4.386   2.188 -0.3526 -0.0829 -0.2301
  759MOL0     N 2382   1.933   4.472   2.203 -0.3729  0.4364 -0.7361
  759MOL0     C 2383   1.382   4.770   1.385  0.7283  0.0072 -0.1769
  759MOL0     C 2384   1.364   4.674   1.281  0.1971  0.4077  0.1890
  759MOL0     C 2385   1.132   4.490   0.900  0.8531 -0.0088 -0.0753
  759MOL0     C 2386   1.021   4.428   0.842  0.9482  0.2709 -0.0247
  759MOL0     C 2387   1.039   4.355   0.726 -0.2967  0.2648 -0.3912
  759MOL0     C 2388   1.166   4.323   0.679 -0.2280  0.3355  0.1990
  759MOL0     O 2389   1.179   4.238   0.571  0.1354 -0.1587  0.2580
  759MOL0     C 2390   1.305   4.173   0.549 -0.0382  0.0538 -0.1623
  759MOL0     C 2391   1.396   4.251   0.464 -0.0594  0.3143 -0.5677
  759MOL0     C 2392   1.521   4.170   0.418 -0.9926 -0.4934  0.0197
  759MOL0     C 2393   1.618   4.260   0.353  0.3188 -0.0125  0.8396
  759MOL0     C 2394   1.562   4.372   0.276  0.0134 -0.5939 -0.8705
  759MOL0     C 2395   1.526   4.459   0.202  0.4544  0.1298  0.3201
  759MOL0     C 2396   1.275   4.394   0.732  0.5716 -0.1552  0.6224
  759MOL0     C 2397   1.255   4.473   0.846 -1.0950  0.1792  0.1595
  759MOL0     H 2398   1.030   4.672   1.259 -0.1654  0.7388  0.3117
  759MOL0     H 2399   1.047   4.829   1.450 -1.3296 -2.6198  1.1156
  759MOL0     H 2400   1.214   4.918   1.754  1.9674  1.5136 -0.0689
  759MOL0     H 2401   1.178   4.765   1.676 -2.3451  1.0336  0.7772
  759MOL0     H 2402   1.410   4.688   1.690  0.2591 -0.1661  0.8214
  759MOL0     H 2403   1.471   4.854   1.703  0.2370  3.0418  1.5582
  759MOL0     H 2404   1.382   4.848   1.938  2.1068  0.0962 -0.1263
  759MOL0     H 2405   1.296   4.695   1.918 -0.1167  0.0111 -0.8247
  759MOL0     H 2406   1.534   4.592   1.883 -0.6412 -0.0829  1.0195
  759MOL0     H 2407   1.590   4.765   1.927 -0.5890  0.7732  1.8691
  759MOL0     H 2408   1.474   4.732   2.147 -3.0353 -1.6632 -0.1862
  759MOL0     H 2409   1.409   4.584   2.090 -1.4176  0.6921 -2.4269
  759MOL0     H 2410   1.671   4.515   2.050 -1.2701  2.4586 -2.8412
  759MOL0     H 2411   1.699   4.655   2.146 -0.9351  0.3842  2.3297
  759MOL0     H 2412   1.541   4.566   2.326 -0.4146 -1.4695 -0.2813
  759MOL0     H 2413   1.591   4.406   2.259 -1.7996  0.0948 -0.7505
  759MOL0     H 2414   1.720   4.438   2.446 -0.6680 -3.5635 -2.0557
  759MOL0     H 2415   1.791   4.591   2.389  0.5146  0.2957 -0.2057
  759MOL0     H 2416   1.859   4.258   2.438  0.7900 -1.3941 -0.1061
  759MOL0     H 2417   2.076   4.083   2.348  0.4728  0.9802  0.9062
  759MOL0     H 2418   2.123   4.126   2.186  0.6308 -2.0625  0.7317
  759MOL0     H 2419   2.225   4.241   2.445 -1.8904  1.8902 -1.0090
  759MOL0     H 2420   2.284   4.288   2.280 -1.0539  0.1121  0.1912
  759MOL0     H 2421   2.384   4.082   2.235  1.8062 -0.8113  0.1758
  759MOL0     H 2422   2.315   4.009   2.373 -2.8031 -0.3054 -1.3556
  759MOL0     H 2423   2.504   4.030   2.474 -1.3974 -0.2860  0.6479
  759MOL0     H 2424   2.469   4.189   2.527 -1.3866  2.1561 -1.3640
  759MOL0     H 2425   2.812   4.279   2.283 -1.5997 -0.5546 -3.3098
  759MOL0     H 2426   2.853   4.525   2.106 -0.1020 -2.7530 -1.1079
  759MOL0     H 2427   2.941   4.588   2.253 -0.3385 -0.7486  2.2239
  759MOL0     H 2428   2.957   4.425   2.193  1.2844  0.7597  3.6223
  759MOL0     H 2429   2.710   4.936   2.518 -0.0487  3.2779  1.8104
  759MOL0     H 2430   2.791   5.155   2.534 -1.8955  0.1822  1.2213
  759MOL0     H 2431   2.667   5.450   2.200  0.0482  1.7479  1.2755
  759MOL0     H 2432   2.545   5.451   2.329 -1.1557  1.1760 -2.5355
  759MOL0     H 2433   2.822   5.600   2.337  1.0981  0.5151  2.1998
  759MOL0     H 2434   2.678   5.666   2.277  3.3028  1.7160 -0.2536
  759MOL0     H 2435   2.729   5.587   2.568 -5.6556 -2.1897  3.8158
  759MOL0     H 2436   2.563   5.609   2.517 -0.8646 -0.4002 -0.6711
  759MOL0     H 2437   2.796   5.792   2.500 -0.3034  3.7285 -0.4407
  759MOL0     H 2438   2.649   5.833   2.412 -0.0843 -3.0369 -2.5218
  759MOL0     H 2439   2.660   5.758   2.711  0.5701  0.8939  0.6612
  759MOL0     H 2440   2.520   5.818   2.618 -0.0738  0.9371 -2.5333
  759MOL0     H 2441   2.775   5.976   2.685 -0.2217  0.2557 -1.7211
  759MOL0     H 2442   2.635   6.038   2.616  3.5077  2.4091  1.5121
  759MOL0     H 2443   2.675   5.921   2.899 -0.1838 -0.6162 -1.2663
  759MOL0     H 2444   2.518   5.974   2.831  0.3348 -0.3790  2.8083
  759MOL0     H 2445   2.620   6.201   2.799  0.8857 -1.3120 -0.3876
  759MOL0     H 2446   2.761   6.151   2.909  0.7301 -3.3871  0.2480
  759MOL0     H 2447   2.634   5.242   2.138 -1.4974  1.7492  1.2213
  759MOL0     H 2448   2.582   5.007   2.109 -0.2530  0.0180 -0.3128
  759MOL0     H 2449   2.472   4.629   2.402  0.5251 -0.4283  0.9418
  759MOL0     H 2450   2.429   4.391   2.462 -1.5015 -2.6621 -2.1648
  759MOL0     H 2451   1.482   4.795   1.419  1.9878 -2.5840 -1.6894
  759MOL0     H 2452   1.450   4.621   1.239 -0.4865  1.5495 -2.9160
  759MOL0     H 2453   0.920   4.449   0.877 -1.0532 -2.7044 -3.3655
  759MOL0     H 2454   0.951   4.308   0.684  1.2255 -3.1299 -0.0590
  759MOL0     H 2455   1.353   4.150   0.645  2.7126  2.0215 -0.9248
  759MOL0     H 2456   1.283   4.082   0.492 -0.2912 -0.6767  1.0544
  759MOL0     H 2457   1.432   4.341   0.515 -3.5025  2.1865 -1.1647
  759MOL0     H 2458   1.340   4.287   0.377  1.0249 -3.5009 -3.0817
  759MOL0     H 2459   1.482   4.092   0.352 -2.7446  0.8941 -0.6500
  759MOL0     H 2460   1.578   4.115   0.494 -0.2355 -4.6440 -3.1896
  759MOL0     H 2461   1.687   4.203   0.291  1.3873  1.6300  0.4636
  759MOL0     H 2462   1.690   4.300   0.425  1.2381  0.3025 -0.2226
  759MOL0     H 2463   1.476   4.545   0.163  0.5153  0.0998  0.1733
  759MOL0     H 2464   1.377   4.384   0.698  0.1145 -0.1299 -0.8210
  759MOL0     H 2465   1.336   4.529   0.890 -1.5307  1.2312 -0.3636
  760MOL0     O 2466   4.375  11.007   5.796 -0.6290 -0.1156  0.4616
  760MOL0     C 2467   4.277  10.959   5.744 -0.3619  0.7409 -0.2848
  760MOL0     O 2468   4.145  10.999   5.763 -1.2285  0.7870  0.3635
  760MOL0     C 2469   4.109  11.121   5.811  0.7343  0.4122 -0.7645
  760MOL0     C 2470   4.180  11.187   5.910 -0.1402  0.2629 -0.0295
  760MOL0     C 2471   4.135  11.316   5.955  0.1533 -0.5718  0.7926
  760MOL0     C 2472   4.008  11.376   5.919 -0.4508 -0.0066 -0.4423
  760MOL0     O 2473   3.983  11.504   5.958 -0.6384  0.3839  0.0639
  760MOL0     C 2474   3.845  11.546   5.950 -0.5586  0.0722  0.2744
  760MOL0     C 2475   3.824  11.651   6.054 -0.5715 -0.7056 -0.3691
  760MOL0     C 2476   3.682  11.715   6.038 -0.4279  0.1322  0.0332
  760MOL0     C 2477   3.694  11.865   6.031  0.2749 -0.3326 -0.1315
  760MOL0     C 2478   3.554  11.920   6.013  0.1581  0.0356 -0.3048
  760MOL0     C 2479   3.498  11.900   5.873  0.2793 -1.5115 -0.1536
  760MOL0     C 2480   3.351  11.944   5.863 -0.6622  0.4665 -0.3542
  760MOL0     C 2481   3.309  11.936   5.714 -0.0474 -0.2120 -0.3483
  760MOL0     N 2482   3.158  11.912   5.702  0.4154 -0.7459  0.8969
  760MOL0     C 2483   3.053  12.001   5.725  0.8353  0.1306 -0.0048
  760MOL0     C 2484   2.934  11.936   5.685  0.2692  0.5893 -0.2425
  760MOL0     C 2485   2.805  12.002   5.686  0.0462  0.3015 -0.1412
  760MOL0     C 2486   2.762  12.050   5.826  0.0522 -0.1776  0.8103
  760MOL0     C 2487   2.659  12.150   5.812 -0.6106  0.0027 -1.6110
  760MOL0     C 2488   2.596  12.192   5.944  0.0807 -1.4724 -0.3499
  760MOL0     O 2489   2.524  12.321   5.918  0.2342 -0.4853 -0.2235
  760MOL0     C 2490   2.386  12.332   5.938  0.0500  0.2268  0.2238
  760MOL0     C 2491   2.306  12.216   5.925 -0.3852  0.1347  0.5755
  760MOL0     C 2492   2.167  12.210   5.929 -0.2776 -0.2246  0.5525
  760MOL0     C 2493   2.107  12.077   5.921 -0.1516 -0.0068  0.4510
  760MOL0     C 2494   2.103  12.330   5.953 -0.3985  0.1471  0.4830
  760MOL0     C 2495   1.954  12.326   5.951 -0.0431 -0.6781 -0.7967
  760MOL0     O 2496   1.894  12.400   6.063 -0.5357  0.6686  0.6927
  760MOL0     C 2497   1.758  12.414   6.077  0.2089  0.4539  1.0106
  760MOL0     C 2498   1.694  12.375   6.190  0.0063  0.5860 -0.4865
  760MOL0     C 2499   1.559  12.404   6.219  0.4980  0.3661 -0.2087
  760MOL0     C 2500   1.483  12.471   6.123 -0.6878 -0.3490  0.7334
  760MOL0     O 2501   1.355  12.507   6.151 -0.4934 -0.2220  0.8001
  760MOL0     C 2502   1.319  12.638   6.101 -0.3629  0.5263 -0.5814
  760MOL0     C 2503   1.212  12.694   6.194 -1.4589  0.5180 -0.6603
  760MOL0     C 2504   1.167  12.830   6.139 -0.2439 -0.8587  0.6263
  760MOL0     C 2505   1.175  12.934   6.257 -0.3348 -0.6824 -0.5570
  760MOL0     C 2506   1.061  12.902   6.355  0.2658 -0.6641 -0.1803
  760MOL0     C 2507   0.916  12.926   6.309  0.0652 -0.4919 -0.1581
  760MOL0     C 2508   0.884  13.080   6.303 -0.7934  0.0043  0.8309
  760MOL0     C 2509   0.761  13.121   6.218 -0.6853 -0.4404 -0.7080
  760MOL0    Cl 2510   0.616  13.051   6.292 -0.3330 -0.7010 -0.3470
  760MOL0     C 2511   1.553  12.522   6.004 -0.5497 -0.3179 -0.3392
  760MOL0     C 2512   1.687  12.481   5.973 -0.2290 -0.1458 -0.5519
  760MOL0     O 2513   1.882  12.265   5.869  0.1613 -0.4657  0.1906
  760MOL0     C 2514   2.174  12.454   5.971  0.2491  1.4241  1.0017
  760MOL0     C 2515   2.315  12.448   5.971  0.2360 -0.1249 -0.3456
  760MOL0     N 2516   2.985  11.818   5.623  0.2927 -0.9772  0.1568
  760MOL0     N 2517   3.110  11.798   5.629 -0.3392  0.0587  0.1149
  760MOL0     C 2518   3.938  11.302   5.822 -0.0089  1.0648 -0.1043
  760MOL0     C 2519   3.984  11.174   5.779 -0.3419  0.2337  0.9390
  760MOL0     C 2520   4.299  10.842   5.662 -0.4015  0.7800  0.8004
  760MOL0     C 2521   4.430  10.795   5.645 -0.6173  0.4332  0.3425
  760MOL0     C 2522   4.455  10.684   5.558  0.1408  0.2558 -0.3424
  760MOL0     C 2523   4.344  10.625   5.490 -0.1052  0.0954  0.2925
  760MOL0     O 2524   4.385  10.510   5.431 -0.4371  1.1011 -0.1500
  760MOL0     C 2525   4.287  10.410   5.379  0.5657 -0.7290  0.0391
  760MOL0     C 2526   4.218  10.459   5.250  0.2923 -0.6633 -0.2058
  760MOL0     C 2527   4.086  10.406   5.217  0.3495 -0.6169  0.1636
  760MOL0     C 2528   4.031  10.463   5.089 -0.5245 -1.0903 -0.0393
  760MOL0     C 2529   3.945  10.577   5.103 -0.6648 -0.0305  0.4146
  760MOL0     C 2530   3.867  10.665   5.094  0.2778 -0.4641 -0.2769
  760MOL0     C 2531   4.211  10.665   5.513  0.3592 -0.0619 -0.8768
  760MOL0     C 2532   4.197  10.775   5.601  0.6700 -0.7334  0.3819
  760MOL0     H 2533   4.266  11.133   5.951 -1.3758 -1.3344  0.5995
  760MOL0     H 2534   4.205  11.384   6.003  1.9157  0.7345 -3.1736
  760MOL0     H 2535   3.826  11.577   5.847  2.3298 -2.9891 -1.3834
  760MOL0     H 2536   3.780  11.461   5.974 -1.1094  0.5367  0.4538
  760MOL0     H 2537   3.842  11.609   6.153 -1.6505 -2.1102 -0.7403
  760MOL0     H 2538   3.900  11.728   6.036  0.2981 -1.6083 -0.6791
  760MOL0     H 2539   3.628  11.670   5.954  1.1225 -0.7760 -0.5242
  760MOL0     H 2540   3.626  11.687   6.128 -1.9104  1.9712 -0.2768
  760MOL0     H 2541   3.733  11.909   6.123 -1.2312  0.2704  0.2466
  760MOL0     H 2542   3.757  11.902   5.949  2.7661  0.3129  1.9696
  760MOL0     H 2543   3.500  11.859   6.087 -1.4905  0.0201 -1.4709
  760MOL0     H 2544   3.550  12.025   6.043 -1.3755  0.2223 -1.0714
  760MOL0     H 2545   3.555  11.956   5.799  1.9249 -2.1696  0.5620
  760MOL0     H 2546   3.503  11.796   5.839 -1.5613 -1.8695  0.5583
  760MOL0     H 2547   3.279  11.892   5.927 -0.2726  1.6307  1.0959
  760MOL0     H 2548   3.346  12.048   5.895 -1.2877  0.4888 -0.5234
  760MOL0     H 2549   3.364  11.849   5.677 -0.2348 -0.3596 -0.2761
  760MOL0     H 2550   3.339  12.029   5.664  1.9961  0.0976  1.3265
  760MOL0     H 2551   3.068  12.098   5.772 -0.6109  0.5960 -0.4562
  760MOL0     H 2552   2.811  12.090   5.620 -1.8956  0.6760  0.1145
  760MOL0     H 2553   2.740  11.927   5.639  0.3297 -0.7521  1.1143
  760MOL0     H 2554   2.844  12.093   5.884  0.1251 -0.5155  0.9595
  760MOL0     H 2555   2.727  11.960   5.877  0.4210 -1.9563 -1.8540
  760MOL0     H 2556   2.567  12.115   5.764 -0.8068 -1.4079 -0.2600
  760MOL0     H 2557   2.720  12.228   5.764  1.6039 -1.3869 -1.2157
  760MOL0     H 2558   2.678  12.210   6.015 -2.5860  2.3449  2.1687
  760MOL0     H 2559   2.537  12.112   5.988 -0.0183 -0.3752  1.6216
  760MOL0     H 2560   2.356  12.125   5.894 -1.6526  0.7508 -4.0186
  760MOL0     H 2561   2.087  12.045   5.818 -1.4506  1.5410  0.1835
  760MOL0     H 2562   2.161  11.997   5.972  0.4224  0.9113  1.3350
  760MOL0     H 2563   2.002  12.070   5.952 -1.0133 -3.1084 -2.5352
  760MOL0     H 2564   1.754  12.320   6.260 -0.6375  1.6145  0.9210
  760MOL0     H 2565   1.515  12.379   6.314 -2.2814  0.9774 -1.2516
  760MOL0     H 2566   1.412  12.694   6.100  2.6962 -3.9913 -0.7101
  760MOL0     H 2567   1.276  12.623   6.002 -1.2814  0.3652 -0.1702
  760MOL0     H 2568   1.126  12.626   6.198 -1.8400  1.0606  0.7235
  760MOL0     H 2569   1.240  12.711   6.298 -0.2064 -0.6769 -0.7714
  760MOL0     H 2570   1.069  12.834   6.091  0.7532  3.1711 -1.5493
  760MOL0     H 2571   1.236  12.867   6.063 -0.5220  0.8360  1.1541
  760MOL0     H 2572   1.263  12.910   6.316 -2.4525 -4.3370  1.4978
  760MOL0     H 2573   1.173  13.031   6.206 -1.9209 -0.5068 -0.2094
  760MOL0     H 2574   1.078  12.976   6.434  1.7796  0.0727 -1.1282
  760MOL0     H 2575   1.078  12.804   6.401 -4.4763 -0.5380  2.3964
  760MOL0     H 2576   0.892  12.865   6.222  1.9594 -1.1785 -0.2502
  760MOL0     H 2577   0.851  12.888   6.389 -0.1009 -0.5908 -0.3384
  760MOL0     H 2578   0.970  13.134   6.261  1.5822 -2.9513  1.5746
  760MOL0     H 2579   0.863  13.126   6.400  2.1417  0.9119  1.1462
  760MOL0     H 2580   0.763  13.089   6.114  0.6867  3.3733 -2.0116
  760MOL0     H 2581   0.751  13.230   6.214 -0.6612 -0.3039  1.4479
  760MOL0     H 2582   1.502  12.594   5.941  2.6562  2.4420 -0.0382
  760MOL0     H 2583   1.742  12.506   5.883  3.7029 -2.4166  0.9664
  760MOL0     H 2584   2.114  12.541   5.993  2.7063  2.8799  2.3474
  760MOL0     H 2585   2.374  12.538   5.984  0.7497 -0.5114  0.0585
  760MOL0     H 2586   3.839  11.334   5.791 -2.5104 -6.1212 -1.3766
  760MOL0     H 2587   3.934  11.117   5.702  0.3658 -2.2040  2.1754
  760MOL0     H 2588   4.504  10.823   5.720 -0.1256 -3.2073  1.4528
  760MOL0     H 2589   4.556  10.650   5.544  2.0534  4.9362  0.1796
  760MOL0     H 2590   4.352  10.326   5.354  2.5896  0.5998  0.6127
  760MOL0     H 2591   4.230  10.375   5.466  1.8013  3.3714  2.8243
  760MOL0     H 2592   4.288  10.429   5.171 -0.8379  1.0156 -1.9313
  760MOL0     H 2593   4.211  10.568   5.250  0.0053 -0.6700 -1.3550
  760MOL0     H 2594   4.021  10.431   5.301  0.2557 -4.3505  1.4181
  760MOL0     H 2595   4.085  10.297   5.205 -1.3391 -0.4557 -1.7123
  760MOL0     H 2596   3.958  10.399   5.038 -4.8183  2.8966  0.4035
  760MOL0     H 2597   4.103  10.498   5.014 -3.2569  0.4469 -2.1855
  760MOL0     H 2598   3.794  10.739   5.071  3.8326  3.1447 -1.1228
  760MOL0     H 2599   4.122  10.624   5.466 -1.2783  2.6909 -0.3979
  760MOL0     H 2600   4.099  10.816   5.624  1.2885  0.4902  0.8720
  761MOL0     O 2601   7.169   1.346   9.487 -0.1873 -1.1426  0.1536
  761MOL0     C 2602   7.125   1.292   9.382  1.1138 -0.2466  0.3523
  761MOL0     O 2603   7.180   1.309   9.253  0.1628  0.1416  0.3637
  761MOL0     C 2604   7.292   1.390   9.221  0.0290 -0.0401  0.3210
  761MOL0     C 2605   7.286   1.459   9.091  0.0823  0.4639 -0.0729
  761MOL0     C 2606   7.399   1.529   9.045 -0.6289  0.3334  0.1862
  761MOL0     C 2607   7.518   1.539   9.124  0.1919 -0.5121 -0.4429
  761MOL0     O 2608   7.622   1.625   9.098 -0.3234 -0.6543 -0.1901
  761MOL0     C 2609   7.642   1.653   8.957  0.6812 -0.2067 -0.2348
  761MOL0     C 2610   7.773   1.725   8.940 -1.2985 -0.1045  0.4332
  761MOL0     C 2611   7.899   1.641   8.971 -0.2832  0.1135  0.3445
  761MOL0     C 2612   7.997   1.712   9.073 -0.0704  0.0303  0.0163
  761MOL0     C 2613   7.920   1.726   9.211  1.0638 -0.0229 -0.6834
  761MOL0     C 2614   8.017   1.787   9.322  0.5479 -0.0416 -0.0974
  761MOL0     C 2615   8.033   1.942   9.307  0.1932 -0.2939 -0.7439
  761MOL0     C 2616   8.160   1.975   9.393  0.3773 -0.4422  0.4415
  761MOL0     N 2617   8.197   2.113   9.378 -0.2014  0.3768 -0.1937
  761MOL0     C 2618   8.298   2.156   9.462 -0.6830 -1.0553  0.3835
  761MOL0     C 2619   8.358   2.254   9.385  1.5595  0.0554 -0.8145
  761MOL0     C 2620   8.483   2.338   9.405  0.4138 -0.7399  0.6676
  761MOL0     C 2621   8.527   2.337   9.551  0.1179 -1.5623  0.6402
  761MOL0     C 2622   8.560   2.480   9.595 -0.5481 -1.2124  0.1585
  761MOL0     C 2623   8.596   2.485   9.746 -0.3345 -0.0921 -0.2075
  761MOL0     O 2624   8.477   2.441   9.813 -0.1364  0.1715 -0.2997
  761MOL0     C 2625   8.480   2.424   9.952  0.0420 -0.7284 -0.3638
  761MOL0     C 2626   8.587   2.457  10.036 -0.3559 -0.1269 -0.7872
  761MOL0     C 2627   8.587   2.429  10.176 -0.6298 -0.6091 -0.2232
  761MOL0     C 2628   8.707   2.479  10.252 -1.0929  0.6297 -0.6212
  761MOL0     C 2629   8.468   2.371  10.225  0.0720 -0.7490 -1.1284
  761MOL0     C 2630   8.462   2.330  10.372 -0.6355  0.2238 -0.5314
  761MOL0     O 2631   8.370   2.239  10.409 -0.2857  0.5230 -0.2246
  761MOL0     C 2632   8.355   2.195  10.543 -0.2637 -1.2006  0.5000
  761MOL0     C 2633   8.391   2.266  10.652  0.5029 -0.0088  0.2872
  761MOL0     C 2634   8.372   2.223  10.782  1.0433 -0.5395 -0.3138
  761MOL0     C 2635   8.300   2.105  10.803 -1.1886 -0.1749 -0.8513
  761MOL0     O 2636   8.282   2.042  10.928  0.5399  0.4335 -0.4879
  761MOL0     C 2637   8.282   2.113  11.052  0.1096 -0.6899  1.4798
  761MOL0     C 2638   8.387   2.051  11.134  0.1258 -1.5512 -0.1606
  761MOL0     C 2639   8.525   2.044  11.081 -0.0180  0.0428  0.1905
  761MOL0     C 2640   8.623   2.004  11.199 -1.4792  0.3479 -0.0169
  761MOL0     C 2641   8.755   1.941  11.148 -0.1709 -0.4245 -0.5452
  761MOL0     C 2642   8.830   2.013  11.040  0.5743 -0.3992  0.7802
  761MOL0     C 2643   8.961   1.940  11.008 -0.5335 -0.3478 -0.3116
  761MOL0     C 2644   9.076   2.040  10.971 -0.0809 -0.0837 -0.0972
  761MOL0    Cl 2645   9.135   2.141  11.100  0.1476  0.0800 -0.3901
  761MOL0     C 2646   8.258   2.037  10.690  0.6103 -0.5899  0.7578
  761MOL0     C 2647   8.282   2.077  10.558 -1.1022 -0.6654 -0.7226
  761MOL0     O 2648   8.547   2.381  10.443 -0.5727  0.3149  0.5240
  761MOL0     C 2649   8.358   2.341  10.145 -0.1650 -0.2850  0.0130
  761MOL0     C 2650   8.368   2.368  10.001 -0.9738  0.0823  0.4994
  761MOL0     N 2651   8.285   2.288   9.269  0.6227 -0.3707 -0.0318
  761MOL0     N 2652   8.195   2.191   9.266 -0.6967 -0.0518 -0.3553
  761MOL0     C 2653   7.517   1.471   9.241  0.1163  0.7012 -0.6040
  761MOL0     C 2654   7.403   1.402   9.299 -0.0324  0.4583  0.2090
  761MOL0     C 2655   6.993   1.229   9.377 -0.3085  0.0506 -1.0430
  761MOL0     C 2656   6.907   1.247   9.277 -0.3713 -0.3955  0.7729
  761MOL0     C 2657   6.775   1.190   9.298 -0.6126 -0.2825  0.2227
  761MOL0     C 2658   6.742   1.110   9.400 -0.6001 -0.3325 -0.3687
  761MOL0     O 2659   6.615   1.059   9.402  0.3274 -0.3701 -0.2220
  761MOL0     C 2660   6.576   1.003   9.532  0.7171 -0.1076  0.1324
  761MOL0     C 2661   6.425   0.974   9.545 -1.0373  0.3303 -0.1711
  761MOL0     C 2662   6.375   0.846   9.469  0.4124 -0.9689 -1.4239
  761MOL0     C 2663   6.232   0.819   9.524  0.2618  0.5779  0.2127
  761MOL0     C 2664   6.135   0.924   9.503 -0.5101 -0.6016  1.9166
  761MOL0     C 2665   6.030   0.991   9.496 -0.3230 -1.1757  0.8068
  761MOL0     C 2666   6.834   1.103   9.510  0.5578  0.1137  0.4665
  761MOL0     C 2667   6.956   1.159   9.499  0.0922  0.0293 -0.4993
  761MOL0     H 2668   7.200   1.440   9.028 -1.8702 -2.1948  3.0726
  761MOL0     H 2669   7.397   1.568   8.944  2.6837 -0.6555 -0.3966
  761MOL0     H 2670   7.646   1.563   8.895 -3.2485  0.6782 -2.0488
  761MOL0     H 2671   7.570   1.724   8.916  0.6699 -0.8668 -1.3736
  761MOL0     H 2672   7.781   1.748   8.833 -0.2749  0.5424  0.6334
  761MOL0     H 2673   7.767   1.821   8.993  1.7215 -1.0048  2.6591
  761MOL0     H 2674   7.870   1.545   9.015 -2.1322 -0.7866 -2.5788
  761MOL0     H 2675   7.959   1.629   8.880  0.5878 -0.8132  1.0154
  761MOL0     H 2676   8.082   1.645   9.086 -1.6035 -1.9863  0.2390
  761MOL0     H 2677   8.024   1.812   9.038 -1.5655  0.6879  0.6318
  761MOL0     H 2678   7.830   1.788   9.214  2.2257  1.8121 -1.5276
  761MOL0     H 2679   7.905   1.622   9.239 -0.2383  0.2423 -0.3233
  761MOL0     H 2680   7.985   1.773   9.425  2.6408 -0.1109  0.5930
  761MOL0     H 2681   8.117   1.743   9.315 -0.3635 -1.9293 -3.1075
  761MOL0     H 2682   8.052   1.981   9.206 -0.3085  2.0816  0.0349
  761MOL0     H 2683   7.939   1.982   9.346  0.8200  0.8109 -0.3434
  761MOL0     H 2684   8.247   1.913   9.370  0.8323 -0.2051  1.4916
  761MOL0     H 2685   8.133   1.951   9.496 -1.6095 -0.3588 -0.0080
  761MOL0     H 2686   8.343   2.116   9.552  0.8449  0.9332  0.5810
  761MOL0     H 2687   8.559   2.322   9.328 -1.3665  0.0126 -1.3354
  761MOL0     H 2688   8.447   2.436   9.375  0.6071 -1.1342 -0.9302
  761MOL0     H 2689   8.611   2.271   9.576  1.4014  0.5802  2.2670
  761MOL0     H 2690   8.447   2.301   9.617  1.6713 -1.2478  2.7854
  761MOL0     H 2691   8.469   2.539   9.578 -0.7618 -1.1305  1.4723
  761MOL0     H 2692   8.638   2.518   9.528 -3.2761  1.2485 -1.8767
  761MOL0     H 2693   8.626   2.586   9.776  3.1608  0.5038 -4.5525
  761MOL0     H 2694   8.666   2.404   9.764 -0.3818 -0.4470 -1.4929
  761MOL0     H 2695   8.675   2.504   9.994 -0.5776 -0.5423 -1.7540
  761MOL0     H 2696   8.678   2.547  10.332 -3.3407 -1.7274  0.7183
  761MOL0     H 2697   8.769   2.402  10.298 -4.2386 -0.9453  1.3066
  761MOL0     H 2698   8.764   2.525  10.170 -3.6325 -1.1163 -3.6160
  761MOL0     H 2699   8.459   2.351  10.646  1.3797 -0.7970 -2.2953
  761MOL0     H 2700   8.406   2.278  10.869 -0.8108  1.3480 -0.6936
  761MOL0     H 2701   8.295   2.222  11.045 -4.7519  0.0085 -1.1431
  761MOL0     H 2702   8.190   2.109  11.111  0.0549  3.1845  1.9468
  761MOL0     H 2703   8.396   2.123  11.216  1.0696  1.7821 -2.9813
  761MOL0     H 2704   8.358   1.955  11.179  1.7788 -1.0780  2.0718
  761MOL0     H 2705   8.549   2.138  11.030 -4.7061  1.0891 -0.4839
  761MOL0     H 2706   8.524   1.967  11.003 -2.0029  1.2713 -1.0631
  761MOL0     H 2707   8.651   2.092  11.258  0.3286  0.7882 -1.4286
  761MOL0     H 2708   8.581   1.929  11.266  2.3965  0.2295  2.6305
  761MOL0     H 2709   8.729   1.841  11.111  4.9371 -1.6818 -1.5203
  761MOL0     H 2710   8.820   1.929  11.236 -1.0113  0.7847  0.2856
  761MOL0     H 2711   8.768   2.024  10.951  1.7687 -1.2137 -0.1852
  761MOL0     H 2712   8.846   2.115  11.074 -1.5751  0.4652 -0.6237
  761MOL0     H 2713   8.951   1.879  10.918 -1.0692  0.7710 -1.0359
  761MOL0     H 2714   8.988   1.875  11.092 -2.3551 -0.8655 -0.0816
  761MOL0     H 2715   9.043   2.100  10.886 -0.0669  1.7275  1.1136
  761MOL0     H 2716   9.160   1.980  10.934  0.9959  1.9545 -1.1112
  761MOL0     H 2717   8.201   1.946  10.675  3.3082 -2.1842 -0.5839
  761MOL0     H 2718   8.247   2.023  10.471 -2.6455 -2.5589  0.9547
  761MOL0     H 2719   8.269   2.297  10.189 -0.3550  3.6279  4.2445
  761MOL0     H 2720   8.284   2.347   9.936 -1.0679  1.7669  0.0227
  761MOL0     H 2721   7.614   1.480   9.289 -0.1145  0.3056 -0.0656
  761MOL0     H 2722   7.416   1.360   9.398  1.2622 -1.2855 -0.6424
  761MOL0     H 2723   6.939   1.302   9.189  1.5559  0.0479  1.6892
  761MOL0     H 2724   6.708   1.194   9.213 -1.0321  2.5199  0.6087
  761MOL0     H 2725   6.635   0.917   9.564 -0.4825  0.2569  3.8182
  761MOL0     H 2726   6.592   1.082   9.606  0.1413  0.2026 -0.0624
  761MOL0     H 2727   6.379   1.062   9.499 -0.0231  0.3589 -1.1893
  761MOL0     H 2728   6.400   0.966   9.651 -0.9759  2.6663  0.0674
  761MOL0     H 2729   6.433   0.758   9.500  0.7118  0.1955  1.7732
  761MOL0     H 2730   6.383   0.857   9.361  0.4095 -1.1053 -1.4390
  761MOL0     H 2731   6.243   0.789   9.628 -0.7116  1.2952  0.5328
  761MOL0     H 2732   6.193   0.728   9.478 -0.2808 -0.4652  2.6027
  761MOL0     H 2733   5.942   1.052   9.491  1.9056  2.5281  2.2398
  761MOL0     H 2734   6.797   1.060   9.603 -1.6610 -0.2681 -0.5246
  761MOL0     H 2735   7.023   1.149   9.584  1.0157 -1.2571 -1.3288
  762MOL0     O 2736   7.970   6.513   7.030 -0.9078  0.2569  0.4750
  762MOL0     C 2737   8.041   6.612   7.044 -0.1469  0.3705  0.0863
  762MOL0     O 2738   8.035   6.697   7.144  0.4839  0.9341  0.2147
  762MOL0     C 2739   7.985   6.653   7.264 -0.2819 -0.5700  0.3284
  762MOL0     C 2740   7.894   6.733   7.333  0.1566  0.5805  0.4549
  762MOL0     C 2741   7.854   6.696   7.459  0.1545 -0.9028  0.2815
  762MOL0     C 2742   7.894   6.585   7.519  0.2138  1.0263 -0.1106
  762MOL0     O 2743   7.838   6.552   7.641 -0.3140 -0.6253  0.7735
  762MOL0     C 2744   7.816   6.414   7.681  0.2091 -0.0304  0.1184
  762MOL0     C 2745   7.929   6.344   7.760  0.7878  0.9334 -0.7708
  762MOL0     C 2746   7.886   6.203   7.781 -0.2720  1.0608 -1.0163
  762MOL0     C 2747   8.008   6.108   7.811  0.3677  0.5762  0.3836
  762MOL0     C 2748   7.959   5.982   7.868 -0.1196  0.1080 -0.1072
  762MOL0     C 2749   8.076   5.880   7.860 -0.7700 -0.8336 -0.4335
  762MOL0     C 2750   8.074   5.768   7.955 -0.3318 -0.1456  0.0790
  762MOL0     C 2751   8.194   5.679   7.940  0.4909  0.1016 -0.1640
  762MOL0     N 2752   8.207   5.572   8.043 -0.0023 -0.5556 -0.6271
  762MOL0     C 2753   8.154   5.574   8.173  0.4558 -0.8476 -0.0383
  762MOL0     C 2754   8.185   5.457   8.235 -0.6651 -0.8700  0.6659
  762MOL0     C 2755   8.154   5.409   8.374  0.4390  1.0104  0.1794
  762MOL0     C 2756   8.273   5.452   8.467 -0.2853 -0.9909 -0.5613
  762MOL0     C 2757   8.418   5.400   8.422  0.1805  0.1744  0.1412
  762MOL0     C 2758   8.443   5.258   8.381  0.1697  0.4582 -1.3170
  762MOL0     O 2759   8.397   5.170   8.490  0.3727  0.2565  0.0002
  762MOL0     C 2760   8.479   5.162   8.597  0.2102  0.0654  0.3968
  762MOL0     C 2761   8.464   5.229   8.720 -0.6970 -0.0556 -0.1644
  762MOL0     C 2762   8.550   5.207   8.834  0.5486 -0.7435 -0.0899
  762MOL0     C 2763   8.512   5.276   8.960  0.0599 -0.3391  0.8062
  762MOL0     C 2764   8.649   5.110   8.817  0.4561  0.1068 -0.9911
  762MOL0     C 2765   8.738   5.053   8.926 -0.5632 -0.8761 -0.5523
  762MOL0     O 2766   8.788   4.925   8.913  0.5372 -0.0166  0.0473
  762MOL0     C 2767   8.881   4.884   9.005  0.7187  0.8161  0.4898
  762MOL0     C 2768   8.851   4.793   9.110  0.8200  0.2802  0.8066
  762MOL0     C 2769   8.954   4.754   9.203 -0.3704 -0.0587 -0.8565
  762MOL0     C 2770   9.076   4.818   9.202 -0.5884 -0.2575  0.0308
  762MOL0     O 2771   9.170   4.816   9.312 -0.1011  0.0073  0.5640
  762MOL0     C 2772   9.187   4.937   9.384 -0.3420  0.0872 -0.7030
  762MOL0     C 2773   9.278   4.911   9.517  0.1053  0.3004  0.1150
  762MOL0     C 2774   9.416   4.889   9.483 -0.2411 -0.0060 -0.7277
  762MOL0     C 2775   9.503   4.825   9.593 -0.7406  0.5705 -0.1896
  762MOL0     C 2776   9.481   4.673   9.617  0.1490  0.8225  0.4417
  762MOL0     C 2777   9.534   4.581   9.507 -0.3497  0.1157 -0.3005
  762MOL0     C 2778   9.529   4.426   9.529  0.3690 -0.1804  0.2987
  762MOL0     C 2779   9.391   4.359   9.514 -0.3196  0.3323 -0.9020
  762MOL0    Cl 2780   9.421   4.177   9.536 -0.5019 -0.2392 -0.0497
  762MOL0     C 2781   9.107   4.906   9.096 -0.3453  0.1307 -1.1717
  762MOL0     C 2782   9.007   4.938   9.004 -0.0299 -0.2862 -0.1899
  762MOL0     O 2783   8.776   5.135   9.017  0.4055  0.5596  0.8639
  762MOL0     C 2784   8.671   5.056   8.693 -0.4665  0.3502 -0.3504
  762MOL0     C 2785   8.586   5.079   8.584  0.8461  0.6786  0.6693
  762MOL0     N 2786   8.269   5.396   8.139  0.2857  0.0830 -0.1767
  762MOL0     N 2787   8.283   5.468   8.028  0.0084  0.5055  0.2556
  762MOL0     C 2788   7.985   6.496   7.459  0.1477 -0.3664  0.4339
  762MOL0     C 2789   8.035   6.534   7.329  0.4489  0.5478  0.7631
  762MOL0     C 2790   8.124   6.661   6.936 -0.0145  0.5834  0.1083
  762MOL0     C 2791   8.201   6.779   6.955 -0.7508  0.2217  0.2604
  762MOL0     C 2792   8.301   6.814   6.862  0.8339 -0.0720 -0.4637
  762MOL0     C 2793   8.328   6.731   6.754 -1.4710  0.0113  0.0791
  762MOL0     O 2794   8.438   6.765   6.680  0.4624 -0.1643  0.2637
  762MOL0     C 2795   8.436   6.744   6.533  0.4582 -0.2617 -1.0137
  762MOL0     C 2796   8.546   6.646   6.515 -0.2872 -0.3394 -0.0075
  762MOL0     C 2797   8.689   6.699   6.557  0.2397  0.1955 -0.4665
  762MOL0     C 2798   8.776   6.579   6.594 -0.3657 -0.0812  0.0228
  762MOL0     C 2799   8.832   6.530   6.467 -0.7923  0.3326 -0.5025
  762MOL0     C 2800   8.860   6.476   6.361 -0.3346  0.3648 -0.5807
  762MOL0     C 2801   8.250   6.629   6.730  0.6013  0.7346 -0.0842
  762MOL0     C 2802   8.156   6.586   6.817 -0.3826 -0.2493 -0.4473
  762MOL0     H 2803   7.848   6.823   7.293  1.6484  0.3882 -1.9312
  762MOL0     H 2804   7.797   6.778   7.503  0.1576  1.4270 -3.5613
  762MOL0     H 2805   7.731   6.414   7.749  1.0505 -1.6097  1.2346
  762MOL0     H 2806   7.784   6.359   7.591  1.1495 -1.4143  0.5849
  762MOL0     H 2807   8.026   6.353   7.709  2.0549  1.9022  1.6138
  762MOL0     H 2808   7.959   6.387   7.856  0.5015  1.7600 -1.0355
  762MOL0     H 2809   7.826   6.206   7.872  4.3656  5.8185  2.4960
  762MOL0     H 2810   7.825   6.167   7.697 -0.0233  1.8133 -1.5313
  762MOL0     H 2811   8.068   6.102   7.720 -2.0633  1.8703 -1.4525
  762MOL0     H 2812   8.074   6.157   7.883 -0.5160  1.4540  0.6245
  762MOL0     H 2813   7.922   5.990   7.970 -0.9321 -0.2867 -0.3648
  762MOL0     H 2814   7.878   5.948   7.803  0.0087  0.7016 -0.5919
  762MOL0     H 2815   8.088   5.850   7.756 -1.4425  0.2604 -0.8344
  762MOL0     H 2816   8.170   5.932   7.881  0.2352 -2.7786  0.1992
  762MOL0     H 2817   8.060   5.823   8.048 -4.3468  1.4578 -1.2140
  762MOL0     H 2818   7.987   5.706   7.932  0.8355 -2.6566  2.0305
  762MOL0     H 2819   8.284   5.741   7.947  0.1244  0.5908  0.2953
  762MOL0     H 2820   8.179   5.640   7.839 -0.7181  0.5992 -0.1867
  762MOL0     H 2821   8.089   5.653   8.209 -0.7645 -1.9164  0.1881
  762MOL0     H 2822   8.052   5.426   8.411 -0.1008 -0.6897 -0.4435
  762MOL0     H 2823   8.164   5.301   8.385  3.4348  1.0643 -0.9288
  762MOL0     H 2824   8.256   5.419   8.570  0.3233 -0.2006 -0.1953
  762MOL0     H 2825   8.263   5.561   8.463 -0.0127 -0.9798 -4.5242
  762MOL0     H 2826   8.480   5.417   8.510  0.7994 -3.0297  0.4410
  762MOL0     H 2827   8.457   5.475   8.352  0.2326 -0.0524 -0.0733
  762MOL0     H 2828   8.543   5.239   8.342  0.2372  1.0557 -1.4489
  762MOL0     H 2829   8.385   5.239   8.290 -0.4741  0.6085 -0.9458
  762MOL0     H 2830   8.379   5.294   8.738  0.6483  1.1094  2.5364
  762MOL0     H 2831   8.475   5.213   9.042 -3.9381  5.0204  3.8415
  762MOL0     H 2832   8.587   5.348   8.993 -0.1674  0.7276 -0.8795
  762MOL0     H 2833   8.427   5.344   8.946  2.4375  2.4128 -1.4468
  762MOL0     H 2834   8.746   4.769   9.124 -0.2004  1.1423 -3.7556
  762MOL0     H 2835   8.930   4.699   9.294  4.6611 -2.3970 -0.6120
  762MOL0     H 2836   9.250   5.007   9.328  2.5830 -0.3720  1.7194
  762MOL0     H 2837   9.097   4.989   9.416 -0.6998  1.1561 -3.2093
  762MOL0     H 2838   9.277   4.998   9.585  1.1930  1.5827 -1.4325
  762MOL0     H 2839   9.250   4.816   9.564 -1.1338 -0.1436 -1.4328
  762MOL0     H 2840   9.450   4.993   9.478 -2.6126  0.8724  0.1444
  762MOL0     H 2841   9.427   4.836   9.388  0.5655 -0.6527 -0.2855
  762MOL0     H 2842   9.610   4.832   9.569 -0.6589 -1.1566 -0.4280
  762MOL0     H 2843   9.481   4.866   9.692  0.3193 -1.7165  1.0692
  762MOL0     H 2844   9.379   4.641   9.642  0.2343  3.1788  4.8417
  762MOL0     H 2845   9.523   4.635   9.711 -1.9554 -0.8816  0.7897
  762MOL0     H 2846   9.492   4.595   9.407 -1.4781  1.3817  0.3270
  762MOL0     H 2847   9.636   4.617   9.491 -0.9945  1.5999 -1.3107
  762MOL0     H 2848   9.573   4.413   9.628 -0.0819 -0.5873  0.4496
  762MOL0     H 2849   9.588   4.368   9.458 -0.0526 -0.7127  0.3811
  762MOL0     H 2850   9.348   4.380   9.415 -0.5024 -0.1485 -0.9293
  762MOL0     H 2851   9.317   4.381   9.590  1.5580 -1.6065  1.6611
  762MOL0     H 2852   9.199   4.962   9.105 -0.2499  0.1884 -2.4086
  762MOL0     H 2853   9.034   5.014   8.931  0.9210  1.8375  2.2224
  762MOL0     H 2854   8.750   4.988   8.661  1.0978  2.2393 -0.6951
  762MOL0     H 2855   8.625   5.044   8.490 -0.9312 -0.8277  0.4299
  762MOL0     H 2856   8.020   6.408   7.512  0.0756 -0.8482 -0.3073
  762MOL0     H 2857   8.110   6.478   7.275 -0.2401 -0.8899  1.2485
  762MOL0     H 2858   8.177   6.849   7.035 -2.2775 -0.9593  0.8826
  762MOL0     H 2859   8.361   6.902   6.878  1.0409 -0.6044  2.3365
  762MOL0     H 2860   8.349   6.695   6.489  0.7942 -0.9188 -0.9538
  762MOL0     H 2861   8.474   6.832   6.479 -0.0824  1.3455  1.0971
  762MOL0     H 2862   8.539   6.601   6.415 -1.0285 -3.9115  1.5255
  762MOL0     H 2863   8.527   6.552   6.567 -0.9630 -1.3263 -1.9176
  762MOL0     H 2864   8.681   6.774   6.636  0.0175 -1.2565  0.9446
  762MOL0     H 2865   8.739   6.759   6.481  1.0041  2.2492  1.5592
  762MOL0     H 2866   8.722   6.507   6.655 -1.9821  3.7788  3.6472
  762MOL0     H 2867   8.863   6.615   6.651 -1.1763  0.5454  0.8818
  762MOL0     H 2868   8.860   6.424   6.267  1.3747 -2.8989  1.0272
  762MOL0     H 2869   8.267   6.564   6.645  0.1174  0.9321 -0.3333
  762MOL0     H 2870   8.092   6.499   6.805 -3.2462  1.2815  2.1648
  763MOL0     O 2871   0.385   5.643   9.875  0.1400  0.2372 -0.3820
  763MOL0     C 2872   0.272   5.603   9.842 -0.5014 -0.7700 -0.5478
  763MOL0     O 2873   0.170   5.590   9.926  1.2219 -0.3719 -0.0698
  763MOL0     C 2874   0.194   5.602  10.062  0.1986  0.5921 -0.3970
  763MOL0     C 2875   0.209   5.490  10.149  1.3886 -0.3007  0.1593
  763MOL0     C 2876   0.232   5.511  10.282  0.3017  0.7682  1.3634
  763MOL0     C 2877   0.227   5.638  10.337  0.4102 -0.1107  0.1228
  763MOL0     O 2878   0.219   5.657  10.476  0.2110 -0.3266  0.3718
  763MOL0     C 2879   0.329   5.675  10.563  0.1675  0.5497  0.2447
  763MOL0     C 2880   0.288   5.738  10.697  0.5212  0.2599  0.6436
  763MOL0     C 2881   0.296   5.894  10.700  0.6007 -0.8417  0.2408
  763MOL0     C 2882   0.237   5.943  10.573 -0.4245  0.3591  0.6536
  763MOL0     C 2883   0.207   6.094  10.596 -0.1250  0.9610  0.4036
  763MOL0     C 2884   0.172   6.164  10.459  0.1101  0.7568  0.1438
  763MOL0     C 2885   0.018   6.145  10.425 -0.2136 -0.9845 -1.2541
  763MOL0     C 2886  -0.054   6.198  10.303 -0.9153 -0.3994  0.6067
  763MOL0     N 2887  -0.012   6.114  10.192  0.9647 -0.6766 -0.1637
  763MOL0     C 2888  -0.110   6.048  10.119 -0.5936 -0.1811  0.1459
  763MOL0     C 2889  -0.045   6.010   9.997  0.1875  0.1545  0.3749
  763MOL0     C 2890  -0.118   5.951   9.878  0.6737  0.6391 -1.2586
  763MOL0     C 2891  -0.032   5.829   9.828  0.3216 -0.8724  0.4466
  763MOL0     C 2892  -0.114   5.746   9.724  0.1924  0.3056  0.4604
  763MOL0     C 2893  -0.106   5.804   9.589 -0.4940  0.2662  0.0670
  763MOL0     O 2894  -0.204   5.728   9.505 -0.4415  0.0342  0.2496
  763MOL0     C 2895  -0.208   5.745   9.373  0.1807 -0.0463  0.0248
  763MOL0     C 2896  -0.283   5.665   9.296  0.2308  0.8825 -0.8108
  763MOL0     C 2897  -0.288   5.674   9.159  0.3881  0.2552 -0.0721
  763MOL0     C 2898  -0.389   5.588   9.092 -0.1425  0.5773 -0.1761
  763MOL0     C 2899  -0.204   5.771   9.098  0.7717 -0.7841 -0.1380
  763MOL0     C 2900  -0.205   5.775   8.952  0.8794  0.0993  0.2337
  763MOL0     O 2901  -0.222   5.662   8.889  0.3466  0.7941 -0.3296
  763MOL0     C 2902  -0.243   5.664   8.748  0.6438 -0.7729 -0.0714
  763MOL0     C 2903  -0.127   5.678   8.673 -0.6019 -0.2576 -0.5331
  763MOL0     C 2904  -0.136   5.694   8.535 -0.3178 -0.1278 -0.2130
  763MOL0     C 2905  -0.262   5.697   8.478 -0.1127  1.0229  0.4128
  763MOL0     O 2906  -0.259   5.709   8.338  0.5344 -0.1944  0.1416
  763MOL0     C 2907  -0.334   5.816   8.277  0.1881  0.3868  0.7181
  763MOL0     C 2908  -0.460   5.758   8.197 -1.0618  0.0870 -0.4707
  763MOL0     C 2909  -0.556   5.871   8.149 -0.0605  0.1493  0.0828
  763MOL0     C 2910  -0.506   5.901   8.009  0.3235 -1.1977 -0.2022
  763MOL0     C 2911  -0.584   6.018   7.941  0.5689 -0.0587 -0.0165
  763MOL0     C 2912  -0.525   6.066   7.804  1.0184 -0.4842 -0.0310
  763MOL0     C 2913  -0.412   6.161   7.820  1.2084 -0.2120 -0.2029
  763MOL0     C 2914  -0.357   6.209   7.686 -0.5353 -0.4609 -0.2752
  763MOL0    Cl 2915  -0.290   6.366   7.703  0.6173  0.6242 -0.0142
  763MOL0     C 2916  -0.381   5.687   8.558  0.2697 -0.2253  0.0392
  763MOL0     C 2917  -0.372   5.677   8.695 -0.0215 -0.3625  0.1300
  763MOL0     O 2918  -0.184   5.887   8.896 -0.3239  0.3609  0.6188
  763MOL0     C 2919  -0.136   5.864   9.175  0.3046  0.4394 -0.1475
  763MOL0     C 2920  -0.124   5.845   9.309  0.3004  0.1852  0.7403
  763MOL0     N 2921   0.086   6.057  10.009 -1.4948  0.5313  0.1187
  763MOL0     N 2922   0.100   6.124  10.117  0.3379  0.7575 -0.0786
  763MOL0     C 2923   0.215   5.747  10.256 -0.6991  0.3248 -0.5529
  763MOL0     C 2924   0.193   5.731  10.119  0.0605  1.0235  0.2444
  763MOL0     C 2925   0.254   5.586   9.699  0.2094 -0.3468  0.6942
  763MOL0     C 2926   0.157   5.505   9.658  0.0020  0.0004  0.8207
  763MOL0     C 2927   0.151   5.478   9.526  1.0605  0.4402 -1.2587
  763MOL0     C 2928   0.214   5.552   9.426 -0.1623 -0.8725 -0.6872
  763MOL0     O 2929   0.221   5.520   9.299 -0.2007 -0.9271  0.3636
  763MOL0     C 2930   0.134   5.430   9.239  0.1288  1.4243  1.2579
  763MOL0     C 2931   0.144   5.441   9.092  0.3543 -0.5541  0.3886
  763MOL0     C 2932   0.072   5.568   9.036 -0.2987 -0.3631  0.4194
  763MOL0     C 2933   0.154   5.698   9.042  0.6935 -0.4266  0.7066
  763MOL0     C 2934   0.216   5.726   8.914 -0.7940  0.6351  0.5295
  763MOL0     C 2935   0.272   5.735   8.802 -0.0560 -0.5877 -0.3449
  763MOL0     C 2936   0.317   5.640   9.470  0.1520 -0.5275  0.5131
  763MOL0     C 2937   0.344   5.651   9.602  0.1014  0.3071 -0.4965
  763MOL0     H 2938   0.206   5.391  10.105  0.0582  0.8362 -2.5511
  763MOL0     H 2939   0.251   5.424  10.343  0.3842  1.0829  1.7962
  763MOL0     H 2940   0.372   5.577  10.587  0.5686  0.2727 -1.4760
  763MOL0     H 2941   0.407   5.729  10.509  0.3686 -0.3710 -0.4007
  763MOL0     H 2942   0.187   5.703  10.719  0.3022 -0.2708 -1.0997
  763MOL0     H 2943   0.358   5.716  10.779 -0.6703 -0.0672  1.5985
  763MOL0     H 2944   0.232   5.921  10.785  3.0948  2.4268  1.2521
  763MOL0     H 2945   0.396   5.933  10.718  0.8440 -0.5256 -1.5879
  763MOL0     H 2946   0.309   5.936  10.491  1.0288  5.6458  1.1394
  763MOL0     H 2947   0.143   5.906  10.531 -0.3050  2.6548 -1.9020
  763MOL0     H 2948   0.125   6.102  10.668 -2.0179  2.0874 -1.7456
  763MOL0     H 2949   0.289   6.146  10.645  1.2264 -2.1606  1.7521
  763MOL0     H 2950   0.183   6.273  10.459  1.2172  0.6813  1.6973
  763MOL0     H 2951   0.229   6.120  10.378 -0.5413 -1.5595  0.8761
  763MOL0     H 2952  -0.002   6.038  10.434 -2.2007 -0.4933  1.1549
  763MOL0     H 2953  -0.032   6.202  10.504 -1.4066 -0.3439 -2.4380
  763MOL0     H 2954  -0.027   6.302  10.280 -0.7310 -0.3529  1.0285
  763MOL0     H 2955  -0.162   6.201  10.321 -1.3172  0.0023 -1.5093
  763MOL0     H 2956  -0.218   6.055  10.124 -0.4156  2.8284  1.9196
  763MOL0     H 2957  -0.212   5.916   9.922  1.6229  0.5034  0.7690
  763MOL0     H 2958  -0.132   6.027   9.801  0.5680  1.2040 -0.6918
  763MOL0     H 2959   0.005   5.768   9.911  0.1844  1.4633  2.3111
  763MOL0     H 2960   0.062   5.867   9.787 -0.2798 -0.2726 -0.4027
  763MOL0     H 2961  -0.219   5.749   9.756 -1.0979  1.3492 -3.3300
  763MOL0     H 2962  -0.085   5.641   9.723 -2.7393 -0.6560  2.4817
  763MOL0     H 2963  -0.001   5.791   9.559 -0.6515  0.4498 -0.5788
  763MOL0     H 2964  -0.136   5.909   9.586 -0.5628  0.5825  4.7148
  763MOL0     H 2965  -0.336   5.592   9.357  1.9787 -3.2711 -3.7770
  763MOL0     H 2966  -0.458   5.544   9.164 -0.0183  1.3864  0.4584
  763MOL0     H 2967  -0.452   5.656   9.033  0.0023  1.3641  0.5524
  763MOL0     H 2968  -0.354   5.506   9.028 -0.7142 -0.9116  1.3533
  763MOL0     H 2969  -0.031   5.701   8.718 -1.4239 -0.8694  1.7005
  763MOL0     H 2970  -0.047   5.708   8.475  1.0042  4.5290  2.3582
  763MOL0     H 2971  -0.375   5.882   8.354 -1.9301 -1.2948  1.1577
  763MOL0     H 2972  -0.271   5.874   8.209  0.4460  0.9284  1.4068
  763MOL0     H 2973  -0.414   5.704   8.113 -1.5915  0.2286 -0.8521
  763MOL0     H 2974  -0.512   5.687   8.261 -0.3871 -0.0052 -0.0172
  763MOL0     H 2975  -0.562   5.957   8.216  2.1135 -1.0310  1.9275
  763MOL0     H 2976  -0.659   5.834   8.147 -0.2763 -0.2099  5.2835
  763MOL0     H 2977  -0.400   5.928   8.010  0.5151 -1.9369  0.9498
  763MOL0     H 2978  -0.507   5.810   7.949  1.4173 -0.7319 -0.9596
  763MOL0     H 2979  -0.591   6.101   8.011 -1.5444 -0.5067  0.3752
  763MOL0     H 2980  -0.687   5.982   7.930 -0.1352  0.1953  4.0240
  763MOL0     H 2981  -0.490   5.981   7.744  1.5924  0.6137 -1.2928
  763MOL0     H 2982  -0.604   6.113   7.745  1.2599 -0.3721 -0.2694
  763MOL0     H 2983  -0.331   6.112   7.876  0.6787 -2.2468 -1.0993
  763MOL0     H 2984  -0.446   6.248   7.876  3.9756  1.4967 -0.9621
  763MOL0     H 2985  -0.434   6.199   7.609 -1.6701  0.0102  0.7616
  763MOL0     H 2986  -0.279   6.138   7.657  1.1080 -0.6141  3.8647
  763MOL0     H 2987  -0.477   5.670   8.510 -2.3961 -3.4607  5.5803
  763MOL0     H 2988  -0.460   5.689   8.758  0.3053 -1.7123  0.8790
  763MOL0     H 2989  -0.085   5.938   9.114 -1.3907  0.9077 -1.0617
  763MOL0     H 2990  -0.057   5.913   9.361 -1.2674  2.2992  0.1320
  763MOL0     H 2991   0.214   5.848  10.296  2.1453  0.2831 -0.1677
  763MOL0     H 2992   0.171   5.819  10.060  0.1119  1.8690  1.4384
  763MOL0     H 2993   0.093   5.459   9.733 -0.6438 -1.1102 -0.3570
  763MOL0     H 2994   0.063   5.419   9.504 -0.7665  2.2003  0.7468
  763MOL0     H 2995   0.170   5.331   9.271  0.3420  0.4822 -1.6146
  763MOL0     H 2996   0.029   5.445   9.266 -0.6579  0.2740 -0.9359
  763MOL0     H 2997   0.098   5.353   9.046 -3.1423  0.4881  1.5731
  763MOL0     H 2998   0.249   5.434   9.061 -0.3752 -1.0601 -2.2453
  763MOL0     H 2999  -0.022   5.582   9.091  0.4337 -2.3186  2.3167
  763MOL0     H 3000   0.042   5.558   8.932  1.4243  1.0960 -0.2760
  763MOL0     H 3001   0.229   5.682   9.120 -0.2633  0.7692  1.9192
  763MOL0     H 3002   0.086   5.782   9.058  0.1729 -0.3857 -1.4068
  763MOL0     H 3003   0.321   5.748   8.708 -1.5961  0.5226 -1.0385
  763MOL0     H 3004   0.394   5.686   9.408  1.0668 -1.4396  0.9460
  763MOL0     H 3005   0.428   5.712   9.635 -1.2507  1.4980  0.9610
  764MOL0     O 3006   6.532   0.734   0.810  0.4153 -0.0190 -0.2642
  764MOL0     C 3007   6.644   0.775   0.773 -0.2169 -0.9407  0.1505
  764MOL0     O 3008   6.690   0.894   0.815 -0.0644  0.2257  0.5178
  764MOL0     C 3009   6.607   0.975   0.885  0.3879  0.0574  0.6694
  764MOL0     C 3010   6.567   0.936   1.010 -0.0861  0.0563 -0.0236
  764MOL0     C 3011   6.510   1.031   1.102  0.6145  0.2010 -0.0518
  764MOL0     C 3012   6.476   1.167   1.051 -0.1073 -0.4862 -0.6610
  764MOL0     O 3013   6.432   1.246   1.152 -0.5208 -0.6582 -0.0137
  764MOL0     C 3014   6.386   1.379   1.111 -0.4906 -0.0079 -0.6322
  764MOL0     C 3015   6.350   1.450   1.236 -0.3660  0.8487 -0.1446
  764MOL0     C 3016   6.240   1.557   1.236 -0.1107  0.3689  0.8342
  764MOL0     C 3017   6.112   1.534   1.154  0.5822 -0.2419  0.3872
  764MOL0     C 3018   5.995   1.611   1.222 -0.7313 -0.2287  0.5886
  764MOL0     C 3019   5.865   1.578   1.150  0.6776  0.1101 -0.5961
  764MOL0     C 3020   5.750   1.625   1.246  0.5806 -0.5273  0.8797
  764MOL0     C 3021   5.599   1.601   1.191  0.2059  0.4291 -0.6072
  764MOL0     N 3022   5.509   1.670   1.287 -0.8935 -0.0238  0.2353
  764MOL0     C 3023   5.468   1.613   1.405 -0.0745 -0.6388  0.4186
  764MOL0     C 3024   5.411   1.712   1.463 -0.3032 -0.3251  0.2126
  764MOL0     C 3025   5.367   1.711   1.602  0.0769 -1.0023  0.1570
  764MOL0     C 3026   5.217   1.747   1.615  0.1687 -0.2014  0.8911
  764MOL0     C 3027   5.159   1.724   1.757  0.1360 -0.9149  0.4647
  764MOL0     C 3028   5.218   1.810   1.863 -0.4082  1.0573  0.9096
  764MOL0     O 3029   5.173   1.765   1.997  0.3520  0.0653  0.5108
  764MOL0     C 3030   5.045   1.784   2.029 -0.6819  0.0356  0.3986
  764MOL0     C 3031   4.991   1.912   2.030  0.3658 -0.3322  1.0557
  764MOL0     C 3032   4.856   1.923   2.068 -0.6439 -0.7594 -0.0219
  764MOL0     C 3033   4.815   2.066   2.069 -0.3924  0.3641  0.1661
  764MOL0     C 3034   4.775   1.805   2.084 -0.7472 -0.4610 -0.4570
  764MOL0     C 3035   4.632   1.819   2.122  0.1135  0.5946  0.2259
  764MOL0     O 3036   4.559   1.916   2.060 -0.0670  0.1890  0.1190
  764MOL0     C 3037   4.435   1.968   2.100 -0.5539 -0.0810 -0.3506
  764MOL0     C 3038   4.381   2.058   2.003 -0.1150 -0.3609  0.2610
  764MOL0     C 3039   4.251   2.108   2.023  0.2426  0.0230 -0.2425
  764MOL0     C 3040   4.182   2.079   2.145  1.5778  0.1891  0.3679
  764MOL0     O 3041   4.066   2.136   2.159  0.3871 -0.2902  1.0442
  764MOL0     C 3042   3.986   2.115   2.284  0.1966  0.4946 -0.2970
  764MOL0     C 3043   3.852   2.198   2.284 -0.1381  0.9758 -0.6383
  764MOL0     C 3044   3.745   2.124   2.189  0.1784 -0.1684  0.6012
  764MOL0     C 3045   3.763   2.163   2.045  0.2928  0.9054 -0.2591
  764MOL0     C 3046   3.668   2.080   1.958 -0.9185  0.5049  0.1859
  764MOL0     C 3047   3.639   2.156   1.825  0.7190  0.2820 -0.4613
  764MOL0     C 3048   3.532   2.265   1.827 -0.5149  0.6530 -0.3888
  764MOL0     C 3049   3.477   2.302   1.687 -0.1144 -0.1630  0.2609
  764MOL0    Cl 3050   3.378   2.465   1.702  0.0831  0.7243  0.2970
  764MOL0     C 3051   4.233   1.986   2.235  0.7621  0.1738  0.3857
  764MOL0     C 3052   4.357   1.929   2.206 -0.3778  0.7154 -0.4809
  764MOL0     O 3053   4.594   1.734   2.208  0.2928 -0.0093 -0.1566
  764MOL0     C 3054   4.835   1.680   2.079 -0.1175 -0.0683 -0.5625
  764MOL0     C 3055   4.969   1.673   2.054  0.7974  0.1477 -0.0280
  764MOL0     N 3056   5.377   1.810   1.378  0.2988  0.7941  0.5562
  764MOL0     N 3057   5.439   1.780   1.263  0.8955 -0.4807  0.3466
  764MOL0     C 3058   6.505   1.201   0.922 -0.0328  0.3931  0.1289
  764MOL0     C 3059   6.575   1.101   0.839  0.0486 -0.0229 -0.6973
  764MOL0     C 3060   6.748   0.697   0.701 -0.0973 -0.6216  0.7247
  764MOL0     C 3061   6.708   0.581   0.631 -0.0059 -0.7128  0.0473
  764MOL0     C 3062   6.792   0.515   0.547  0.5410  0.1468 -0.3936
  764MOL0     C 3063   6.926   0.556   0.541 -0.1768 -0.3516  0.0260
  764MOL0     O 3064   7.006   0.493   0.451  0.0956 -0.6200  0.6263
  764MOL0     C 3065   7.136   0.539   0.425 -0.7620 -0.1812 -0.9766
  764MOL0     C 3066   7.248   0.520   0.535  0.4915  0.2725 -0.1089
  764MOL0     C 3067   7.273   0.364   0.540 -0.6704 -0.1003  0.4531
  764MOL0     C 3068   7.380   0.313   0.643 -0.6097  0.5842 -0.6250
  764MOL0     C 3069   7.317   0.270   0.766 -0.7091  0.3908  0.2116
  764MOL0     C 3070   7.269   0.261   0.874  0.0993  0.5248 -0.4544
  764MOL0     C 3071   6.968   0.662   0.619 -0.3380  0.7679 -0.2014
  764MOL0     C 3072   6.883   0.739   0.685  0.7799 -0.3341 -0.3923
  764MOL0     H 3073   6.605   0.839   1.043 -0.2198 -0.4422 -1.2845
  764MOL0     H 3074   6.484   1.000   1.203  1.8823 -0.8839 -0.0332
  764MOL0     H 3075   6.464   1.439   1.063 -1.0951  1.1758 -0.1664
  764MOL0     H 3076   6.302   1.357   1.046 -0.9544 -1.3357  0.3675
  764MOL0     H 3077   6.312   1.376   1.306  1.2690  1.0026  0.9610
  764MOL0     H 3078   6.443   1.487   1.279 -1.2180  2.9792 -0.0169
  764MOL0     H 3079   6.214   1.584   1.339  2.4929  1.7801  1.2018
  764MOL0     H 3080   6.284   1.649   1.195  0.0258 -0.6056 -1.3057
  764MOL0     H 3081   6.115   1.571   1.051 -1.4077  1.7688  0.9631
  764MOL0     H 3082   6.081   1.430   1.146 -1.6380  0.3522  0.7136
  764MOL0     H 3083   5.985   1.576   1.326  0.5197 -1.8020  0.2194
  764MOL0     H 3084   6.014   1.718   1.232 -0.6109  0.2249 -3.3073
  764MOL0     H 3085   5.830   1.635   1.063 -1.4519  2.3736  1.6049
  764MOL0     H 3086   5.861   1.470   1.132  3.1417 -0.8944  3.5773
  764MOL0     H 3087   5.755   1.580   1.345 -0.7623 -0.8773  0.8096
  764MOL0     H 3088   5.748   1.733   1.267 -5.1159 -0.1096 -0.0276
  764MOL0     H 3089   5.586   1.493   1.192 -0.0243  0.4357 -1.5609
  764MOL0     H 3090   5.594   1.639   1.088  5.9133  2.0648 -0.6397
  764MOL0     H 3091   5.498   1.524   1.458 -2.5647 -0.8011  1.7053
  764MOL0     H 3092   5.385   1.619   1.658  0.6450  0.5857  2.7516
  764MOL0     H 3093   5.413   1.795   1.655 -0.7191 -0.5918  0.2029
  764MOL0     H 3094   5.171   1.680   1.542  2.9424 -0.1567 -1.0388
  764MOL0     H 3095   5.197   1.851   1.588 -0.6833 -0.3896  0.7772
  764MOL0     H 3096   5.190   1.624   1.790  3.2786  0.0636  0.8240
  764MOL0     H 3097   5.050   1.735   1.756  0.0748 -1.5337 -0.0776
  764MOL0     H 3098   5.192   1.915   1.843 -0.5175  0.6959 -1.0270
  764MOL0     H 3099   5.325   1.805   1.843 -0.6336  3.8480 -1.7706
  764MOL0     H 3100   5.060   1.994   2.011 -0.4114  0.1218  0.0903
  764MOL0     H 3101   4.728   2.086   2.005  0.3148 -3.9735 -2.5485
  764MOL0     H 3102   4.785   2.101   2.168 -1.3533 -0.1143  0.0555
  764MOL0     H 3103   4.897   2.131   2.038  2.3722 -3.0468 -0.1875
  764MOL0     H 3104   4.428   2.078   1.907 -2.5271 -3.0669 -1.6674
  764MOL0     H 3105   4.210   2.179   1.952  3.1698  1.6089 -0.5109
  764MOL0     H 3106   3.958   2.009   2.285  2.8652 -0.2573  0.5056
  764MOL0     H 3107   4.043   2.127   2.376 -0.5948  1.3289  0.1065
  764MOL0     H 3108   3.790   2.199   2.373  1.9849 -1.1263  1.0018
  764MOL0     H 3109   3.879   2.298   2.248  2.3818  0.8921  0.8060
  764MOL0     H 3110   3.649   2.155   2.231 -0.4396 -1.4985  0.2590
  764MOL0     H 3111   3.749   2.015   2.201  0.6075  0.0925  3.4794
  764MOL0     H 3112   3.738   2.269   2.040  2.8604  1.5454 -0.8584
  764MOL0     H 3113   3.867   2.142   2.019  1.5788  1.1850  3.9899
  764MOL0     H 3114   3.573   2.058   2.008 -0.5375 -2.3074 -0.1403
  764MOL0     H 3115   3.716   1.983   1.943 -1.8335  0.1946 -0.9350
  764MOL0     H 3116   3.724   2.198   1.771  0.7611  0.5532 -0.1902
  764MOL0     H 3117   3.591   2.075   1.770  0.0032 -0.7806  1.6095
  764MOL0     H 3118   3.573   2.347   1.886 -1.2757  2.2098 -1.9295
  764MOL0     H 3119   3.454   2.219   1.889  0.2253 -1.5366 -0.9952
  764MOL0     H 3120   3.416   2.221   1.645  1.4418 -0.4196 -1.6785
  764MOL0     H 3121   3.560   2.317   1.617  1.1394 -0.0200  1.7276
  764MOL0     H 3122   4.168   1.959   2.317 -3.4542 -0.3768 -2.8136
  764MOL0     H 3123   4.409   1.859   2.271  0.9935  2.1095 -0.0147
  764MOL0     H 3124   4.766   1.598   2.095 -3.5588  2.9145  1.5776
  764MOL0     H 3125   5.030   1.584   2.066  0.3048 -0.2011 -0.1005
  764MOL0     H 3126   6.491   1.301   0.881 -0.5417  1.0819  1.8834
  764MOL0     H 3127   6.627   1.122   0.746  3.7777 -3.0710  0.4589
  764MOL0     H 3128   6.603   0.557   0.641 -0.4688 -0.3408 -2.8389
  764MOL0     H 3129   6.762   0.427   0.491 -3.2073  1.8400 -1.3649
  764MOL0     H 3130   7.174   0.481   0.340 -2.9041 -2.4153 -0.5237
  764MOL0     H 3131   7.130   0.646   0.402 -1.8221  0.8402  3.2016
  764MOL0     H 3132   7.215   0.552   0.634  2.1221 -7.4351  3.7048
  764MOL0     H 3133   7.335   0.578   0.502  0.2391  0.8660  0.2582
  764MOL0     H 3134   7.309   0.332   0.442 -1.6421  1.0176 -0.2958
  764MOL0     H 3135   7.184   0.309   0.572 -0.3585 -0.6491  0.3948
  764MOL0     H 3136   7.446   0.397   0.667  1.1722 -0.6321 -1.0642
  764MOL0     H 3137   7.444   0.232   0.605  1.4964  2.9019 -2.3605
  764MOL0     H 3138   7.214   0.241   0.964  0.6604 -1.2964 -0.4791
  764MOL0     H 3139   7.072   0.694   0.621 -0.3023  0.6399  0.9018
  764MOL0     H 3140   6.909   0.831   0.735 -0.7174 -0.6768  1.0868
  765MOL0     O 3141   9.062   0.184  10.546  0.0465 -0.4775 -0.8386
  765MOL0     C 3142   8.984   0.252  10.483  0.6821 -0.5721 -1.0759
  765MOL0     O 3143   8.995   0.389  10.468  0.8862  0.5076  0.6588
  765MOL0     C 3144   9.117   0.460  10.461 -0.5224 -0.0823 -0.5481
  765MOL0     C 3145   9.105   0.603  10.458  0.1948 -0.2462 -1.1682
  765MOL0     C 3146   9.225   0.679  10.466 -0.2743 -0.4216  0.1175
  765MOL0     C 3147   9.355   0.622  10.484 -0.2514  0.1002 -0.1244
  765MOL0     O 3148   9.467   0.705  10.504  1.0146  0.3391  0.4619
  765MOL0     C 3149   9.600   0.658  10.463 -0.0923  0.2395  0.1810
  765MOL0     C 3150   9.702   0.775  10.422  0.0364 -0.6731 -1.8830
  765MOL0     C 3151   9.848   0.731  10.408 -0.1787 -0.5683  0.3255
  765MOL0     C 3152   9.940   0.854  10.432  0.1421 -0.6349 -0.3939
  765MOL0     C 3153  10.086   0.832  10.421 -0.4160  0.1013 -0.1206
  765MOL0     C 3154  10.121   0.809  10.269  0.1311 -0.2515  0.0637
  765MOL0     C 3155  10.264   0.864  10.255 -0.8315  0.1010  0.6993
  765MOL0     C 3156  10.303   0.883  10.110  0.1013  0.1010 -0.0863
  765MOL0     N 3157  10.453   0.877  10.095 -0.4362 -0.7878  0.2117
  765MOL0     C 3158  10.536   0.778  10.145 -0.1763  0.6398  1.0086
  765MOL0     C 3159  10.663   0.831  10.126 -0.0436  0.1904  0.4512
  765MOL0     C 3160  10.794   0.774  10.177  0.3828  0.1637 -0.3271
  765MOL0     C 3161  10.864   0.677  10.069  0.8616  0.7526 -0.4071
  765MOL0     C 3162  10.998   0.629  10.117  0.4337  0.5002  0.0501
  765MOL0     C 3163  11.053   0.503  10.045 -0.1906 -0.2405  0.2295
  765MOL0     O 3164  11.155   0.525   9.939  0.7126 -0.0356 -0.0130
  765MOL0     C 3165  11.116   0.562   9.818 -0.4760 -0.4913 -0.8406
  765MOL0     C 3166  10.992   0.524   9.759  0.0170 -0.5239  0.5225
  765MOL0     C 3167  10.992   0.529   9.620 -0.2965  0.9949  0.9217
  765MOL0     C 3168  10.868   0.476   9.547 -0.2719 -0.4303  0.8078
  765MOL0     C 3169  11.097   0.572   9.540 -1.8651 -0.1981 -0.2707
  765MOL0     C 3170  11.092   0.572   9.390  0.2529 -0.4367 -0.4559
  765MOL0     O 3171  11.191   0.506   9.320  0.0754 -0.1112  0.6692
  765MOL0     C 3172  11.183   0.477   9.186  0.6501 -0.4799 -0.4254
  765MOL0     C 3173  11.305   0.445   9.123 -0.2736  0.9175 -0.5736
  765MOL0     C 3174  11.310   0.410   8.989 -0.6745 -0.7850 -0.0583
  765MOL0     C 3175  11.195   0.402   8.906  0.0253 -1.1130  0.3213
  765MOL0     O 3176  11.198   0.358   8.779 -0.7429 -0.9510  0.4434
  765MOL0     C 3177  11.316   0.395   8.705  0.0088 -0.7946  1.5710
  765MOL0     C 3178  11.280   0.417   8.556  0.0721 -0.0882 -0.0002
  765MOL0     C 3179  11.163   0.516   8.531  0.0683 -0.7359  0.0311
  765MOL0     C 3180  11.106   0.510   8.382  0.1774  0.3289 -0.9800
  765MOL0     C 3181  10.996   0.612   8.372  0.6547 -0.1527 -0.0678
  765MOL0     C 3182  10.966   0.639   8.224  0.3593  0.5474  0.3877
  765MOL0     C 3183  10.916   0.515   8.156 -1.0800  0.0545 -0.2333
  765MOL0     C 3184  10.940   0.499   8.008  0.2428  0.0921 -0.3957
  765MOL0    Cl 3185  10.853   0.629   7.916 -0.3852  0.5218 -0.4792
  765MOL0     C 3186  11.072   0.419   8.969  1.3488 -0.6316 -0.3012
  765MOL0     C 3187  11.064   0.467   9.101 -0.4745 -1.3295 -0.5046
  765MOL0     O 3188  11.003   0.642   9.342 -0.2087 -0.4084  0.7341
  765MOL0     C 3189  11.224   0.606   9.607  0.1121  0.0467  0.7958
  765MOL0     C 3190  11.233   0.596   9.749 -0.1865 -0.5877 -1.3552
  765MOL0     N 3191  10.655   0.952  10.062  0.3253 -0.2266  0.2033
  765MOL0     N 3192  10.532   0.980  10.041  0.7118 -0.7401 -1.1538
  765MOL0     C 3193   9.368   0.479  10.484  0.3773 -0.1862 -0.1491
  765MOL0     C 3194   9.250   0.402  10.475  0.8681  0.2574  0.1143
  765MOL0     C 3195   8.859   0.202  10.423  0.5154  0.0814 -0.5549
  765MOL0     C 3196   8.753   0.283  10.378 -0.0468  0.4057  0.8869
  765MOL0     C 3197   8.629   0.231  10.322  0.1079 -0.6478  0.0163
  765MOL0     C 3198   8.601   0.097  10.325  0.0652  0.0173 -0.0314
  765MOL0     O 3199   8.469   0.066  10.297 -0.8178  0.2556  0.5107
  765MOL0     C 3200   8.407  -0.033  10.381  0.2224 -0.4567  0.2463
  765MOL0     C 3201   8.344  -0.137  10.284 -0.1496  0.2377 -0.4497
  765MOL0     C 3202   8.198  -0.152  10.308 -1.2645 -0.2067 -0.3167
  765MOL0     C 3203   8.125  -0.206  10.187 -0.0348 -0.4907  0.2020
  765MOL0     C 3204   8.125  -0.113  10.077  0.2269 -0.2800  0.0548
  765MOL0     C 3205   8.128  -0.017  10.002 -0.2641 -0.2495 -0.5213
  765MOL0     C 3206   8.700   0.013  10.366 -0.3122 -0.2722  1.0511
  765MOL0     C 3207   8.831   0.063  10.412  0.8133 -0.0743 -0.8250
  765MOL0     H 3208   9.018   0.666  10.475  1.1233  0.1454  3.1163
  765MOL0     H 3209   9.235   0.787  10.473  3.7568 -0.6910  1.6980
  765MOL0     H 3210   9.641   0.602  10.547  0.2104  0.8601  0.4499
  765MOL0     H 3211   9.587   0.595  10.374 -3.2783  2.6499 -1.2711
  765MOL0     H 3212   9.669   0.831  10.334 -1.2648  0.3817 -0.7704
  765MOL0     H 3213   9.693   0.845  10.505  0.4738 -1.6125 -1.0216
  765MOL0     H 3214   9.869   0.643  10.471 -0.7940  0.1894  1.6331
  765MOL0     H 3215   9.867   0.702  10.305  0.2336 -0.3427  0.3338
  765MOL0     H 3216   9.904   0.936  10.369  1.8654  2.1984  1.9925
  765MOL0     H 3217   9.923   0.886  10.536  2.5696  0.2429 -0.1908
  765MOL0     H 3218  10.142   0.915  10.466 -2.3170 -0.3737  3.5431
  765MOL0     H 3219  10.126   0.751  10.482 -1.5225 -1.0265 -0.8480
  765MOL0     H 3220  10.117   0.702  10.247 -0.8671  0.0893 -1.6131
  765MOL0     H 3221  10.052   0.859  10.200  0.1624  1.4112  1.1658
  765MOL0     H 3222  10.278   0.961  10.303  0.1275  0.8030 -0.9159
  765MOL0     H 3223  10.335   0.797  10.304 -1.4625 -0.5950  0.6721
  765MOL0     H 3224  10.261   0.969  10.057  0.2533  0.4538  0.3651
  765MOL0     H 3225  10.274   0.794  10.052  0.6614  0.5853 -1.1483
  765MOL0     H 3226  10.503   0.684  10.188  1.0611  0.5757  1.8981
  765MOL0     H 3227  10.862   0.855  10.204  0.0633 -0.6319  3.2789
  765MOL0     H 3228  10.782   0.722  10.272  2.4552 -0.8360 -0.5541
  765MOL0     H 3229  10.874   0.716   9.968 -0.5151 -2.2589 -1.8408
  765MOL0     H 3230  10.787   0.600  10.059 -3.6276  4.9432 -1.7548
  765MOL0     H 3231  10.992   0.589  10.219  0.2557 -1.3435 -0.6542
  765MOL0     H 3232  11.077   0.704  10.102  1.4522 -0.2203  1.5806
  765MOL0     H 3233  10.972   0.441  10.007 -1.0285 -0.1656  1.8291
  765MOL0     H 3234  11.099   0.441  10.123  1.2859  0.6097  0.0847
  765MOL0     H 3235  10.901   0.489   9.806  0.2588 -0.3551  1.1283
  765MOL0     H 3236  10.892   0.420   9.456  3.4842 -0.1411  1.4456
  765MOL0     H 3237  10.792   0.431   9.612 -2.5215  2.4258  0.3687
  765MOL0     H 3238  10.818   0.564   9.506  2.4122  0.9513  0.2746
  765MOL0     H 3239  11.402   0.453   9.170 -1.5126 -1.0947  2.6548
  765MOL0     H 3240  11.412   0.398   8.954  0.0243 -0.8686  1.8899
  765MOL0     H 3241  11.362   0.487   8.743  1.3002 -1.0406  0.6648
  765MOL0     H 3242  11.400   0.324   8.707  0.9572  0.1181 -1.5625
  765MOL0     H 3243  11.368   0.457   8.505  0.5230  1.0407  1.5709
  765MOL0     H 3244  11.241   0.321   8.520 -2.2154  1.4532 -1.9489
  765MOL0     H 3245  11.210   0.613   8.544 -0.2754 -0.5954  0.2591
  765MOL0     H 3246  11.087   0.482   8.603  0.9897 -0.8409  0.9663
  765MOL0     H 3247  11.184   0.526   8.306 -1.5357  2.0427 -2.4811
  765MOL0     H 3248  11.067   0.408   8.375  1.2527 -0.2785  1.1835
  765MOL0     H 3249  11.018   0.708   8.420 -1.6152  0.3661  0.0693
  765MOL0     H 3250  10.909   0.563   8.418  0.6784 -3.9930 -3.5201
  765MOL0     H 3251  10.894   0.720   8.214  0.6231  0.8812  1.0942
  765MOL0     H 3252  11.059   0.674   8.177 -0.7707  1.2538 -1.4198
  765MOL0     H 3253  10.814   0.495   8.191 -1.3572  2.1133  0.2841
  765MOL0     H 3254  10.981   0.441   8.204 -1.0952  0.8777  1.1067
  765MOL0     H 3255  10.906   0.400   7.974  0.8503 -0.5798  0.8798
  765MOL0     H 3256  11.046   0.504   7.983 -0.0018  1.3571 -1.2632
  765MOL0     H 3257  10.977   0.387   8.926 -1.6324  2.8966  2.8353
  765MOL0     H 3258  10.967   0.493   9.142 -0.0190  0.0085 -0.2243
  765MOL0     H 3259  11.305   0.650   9.550  1.0095 -2.8514 -0.3583
  765MOL0     H 3260  11.324   0.620   9.803 -1.2870 -0.5419  0.5520
  765MOL0     H 3261   9.466   0.433  10.492 -0.7615 -2.5382  1.7829
  765MOL0     H 3262   9.265   0.296  10.490  0.2773  0.2401  0.6344
  765MOL0     H 3263   8.777   0.388  10.362 -0.5093  0.4739  0.6170
  765MOL0     H 3264   8.557   0.298  10.277  0.5136  1.2800  2.0627
  765MOL0     H 3265   8.483  -0.090  10.436 -0.2188 -3.3448 -1.8879
  765MOL0     H 3266   8.333   0.020  10.442 -0.7879  1.8596 -2.7920
  765MOL0     H 3267   8.410  -0.225  10.289  0.1401  0.4182 -0.9923
  765MOL0     H 3268   8.362  -0.107  10.181  0.8704  1.2980  0.0172
  765MOL0     H 3269   8.146  -0.066  10.352  0.2951  0.3785  0.4443
  765MOL0     H 3270   8.179  -0.240  10.370 -1.4436 -2.4211 -3.2551
  765MOL0     H 3271   8.021  -0.223  10.219 -0.4712 -1.2842 -1.5261
  765MOL0     H 3272   8.161  -0.307  10.170 -0.9352 -1.3076  2.6440
  765MOL0     H 3273   8.143   0.055   9.925  2.8446  1.6458  1.6274
  765MOL0     H 3274   8.679  -0.092  10.348 -1.5254 -0.4272  3.0833
  765MOL0     H 3275   8.910  -0.011  10.416 -0.2690 -1.6347 -4.3332
  766MOL0     O 3276   0.786   7.940   6.791  0.7565 -0.6306  0.2221
  766MOL0     C 3277   0.752   7.961   6.908  0.8025  0.5936 -1.3681
  766MOL0     O 3278   0.645   7.904   6.966 -0.6632 -0.0980  0.6054
  766MOL0     C 3279   0.598   7.792   6.894 -0.0444 -0.3441 -0.2398
  766MOL0     C 3280   0.497   7.797   6.799  0.7111  0.1657  0.2059
  766MOL0     C 3281   0.451   7.681   6.732  0.7110 -0.0010 -0.7121
  766MOL0     C 3282   0.516   7.560   6.761 -0.8956  0.0656  0.6044
  766MOL0     O 3283   0.461   7.446   6.701  0.1423 -0.7486 -0.1408
  766MOL0     C 3284   0.517   7.316   6.728  0.2637 -0.2772  0.0774
  766MOL0     C 3285   0.474   7.225   6.616  0.6380  0.6735 -0.5323
  766MOL0     C 3286   0.514   7.073   6.639  0.0687 -0.1427 -0.7267
  766MOL0     C 3287   0.422   7.022   6.760 -0.8955 -0.0456  0.3767
  766MOL0     C 3288   0.407   6.871   6.777 -0.0218  0.3829 -0.3789
  766MOL0     C 3289   0.312   6.846   6.894 -0.1428 -0.1816 -0.8197
  766MOL0     C 3290   0.329   6.693   6.940  0.1976 -0.1632 -0.1057
  766MOL0     C 3291   0.213   6.640   7.030 -0.0526  0.8558  0.0217
  766MOL0     N 3292   0.273   6.528   7.099 -0.1847 -0.3357  0.5640
  766MOL0     C 3293   0.296   6.522   7.225  0.5137 -0.0972 -0.3963
  766MOL0     C 3294   0.319   6.390   7.253 -0.4494 -1.1286  0.7164
  766MOL0     C 3295   0.353   6.343   7.390  0.2447  0.4353  0.4245
  766MOL0     C 3296   0.504   6.336   7.407  0.1664 -0.3289 -0.3485
  766MOL0     C 3297   0.547   6.305   7.550 -1.2403 -0.0946 -0.1993
  766MOL0     C 3298   0.697   6.303   7.570  0.6991  0.2240  0.8090
  766MOL0     O 3299   0.735   6.434   7.572  0.5138 -0.2738 -0.2064
  766MOL0     C 3300   0.862   6.458   7.621 -0.1331  0.2273  0.6471
  766MOL0     C 3301   0.967   6.363   7.636 -0.1996 -0.0008  0.2837
  766MOL0     C 3302   1.091   6.400   7.671 -0.5009  0.7367 -0.1715
  766MOL0     C 3303   1.188   6.287   7.694 -0.5345 -0.4454  0.2756
  766MOL0     C 3304   1.122   6.539   7.705  0.2214  0.3075  0.6430
  766MOL0     C 3305   1.245   6.587   7.762  0.6537 -0.1132 -0.1852
  766MOL0     O 3306   1.256   6.598   7.899 -0.2101 -0.8071  0.1356
  766MOL0     C 3307   1.347   6.683   7.952 -0.7488 -0.3668 -0.1631
  766MOL0     C 3308   1.375   6.815   7.907 -0.2970  0.0777 -0.8767
  766MOL0     C 3309   1.475   6.891   7.967 -0.0877  0.3019 -0.4655
  766MOL0     C 3310   1.541   6.848   8.082  0.6259  0.2845 -0.3580
  766MOL0     O 3311   1.631   6.919   8.146  0.5838 -0.6986  0.5002
  766MOL0     C 3312   1.688   7.043   8.086  1.2056 -0.5808 -0.4527
  766MOL0     C 3313   1.839   7.053   8.125  0.2766  0.5566 -0.1292
  766MOL0     C 3314   1.904   7.179   8.057 -0.1557  0.7814  0.1569
  766MOL0     C 3315   2.046   7.213   8.116 -0.1768 -0.3066  0.2812
  766MOL0     C 3316   2.071   7.357   8.056  0.2819  0.8955  0.3572
  766MOL0     C 3317   2.219   7.396   8.077  0.4193  0.1814  0.4017
  766MOL0     C 3318   2.249   7.531   8.023 -0.4765 -0.1195 -0.9626
  766MOL0     C 3319   2.266   7.517   7.868 -0.5142 -0.3261 -0.2340
  766MOL0    Cl 3320   2.123   7.572   7.768  0.2046  0.7342 -0.1072
  766MOL0     C 3321   1.496   6.723   8.147 -0.2425 -1.4184 -0.2773
  766MOL0     C 3322   1.409   6.644   8.079  1.1136 -0.4485 -0.0786
  766MOL0     O 3323   1.334   6.610   7.683 -0.3924  0.5005 -0.5696
  766MOL0     C 3324   1.011   6.627   7.691 -0.4842 -0.2756 -0.7371
  766MOL0     C 3325   0.886   6.587   7.654  0.4380 -0.7026 -0.3521
  766MOL0     N 3326   0.297   6.312   7.142 -0.0635 -0.2456  0.6309
  766MOL0     N 3327   0.275   6.403   7.049 -0.5889 -0.1467  0.4236
  766MOL0     C 3328   0.603   7.548   6.866  0.9829  0.2088 -0.1541
  766MOL0     C 3329   0.642   7.663   6.938  0.2807  0.3504  0.5381
  766MOL0     C 3330   0.820   8.060   6.984  0.5882 -0.9579  0.3461
  766MOL0     C 3331   0.757   8.140   7.083 -0.2545 -0.1200  0.3381
  766MOL0     C 3332   0.833   8.245   7.138  0.6866  0.1631 -0.3376
  766MOL0     C 3333   0.963   8.271   7.114  0.0117  0.8342  0.5691
  766MOL0     O 3334   1.045   8.360   7.175  0.1618  0.9139 -0.0744
  766MOL0     C 3335   0.998   8.490   7.191 -0.1043  0.3877  0.0031
  766MOL0     C 3336   1.112   8.573   7.246 -0.5401 -0.3684 -0.2910
  766MOL0     C 3337   1.076   8.715   7.255  0.1434 -0.3602 -0.0229
  766MOL0     C 3338   1.198   8.800   7.320  0.2549  1.2246  0.8224
  766MOL0     C 3339   1.261   8.920   7.257  0.1420  0.7429 -1.0348
  766MOL0     C 3340   1.309   9.016   7.210 -0.6239 -0.3741  0.4685
  766MOL0     C 3341   1.024   8.180   7.025  0.1044  0.1023  0.6080
  766MOL0     C 3342   0.957   8.078   6.966 -0.3094  0.2251  0.1023
  766MOL0     H 3343   0.459   7.891   6.760  0.8326 -0.1524 -0.6948
  766MOL0     H 3344   0.365   7.682   6.666 -1.0818 -2.0095  1.4192
  766MOL0     H 3345   0.625   7.324   6.712  0.1802 -1.8297 -1.7148
  766MOL0     H 3346   0.487   7.289   6.830  0.9900  1.3023  0.7378
  766MOL0     H 3347   0.367   7.243   6.616  0.2134 -1.5179 -1.6004
  766MOL0     H 3348   0.510   7.268   6.522  1.0165 -1.3729 -1.3727
  766MOL0     H 3349   0.497   7.016   6.546  3.5999 -0.6512 -1.1890
  766MOL0     H 3350   0.619   7.066   6.666  0.3312  1.3879 -1.2517
  766MOL0     H 3351   0.458   7.077   6.847  2.6336  0.5637 -1.3178
  766MOL0     H 3352   0.321   7.061   6.747 -0.1762  1.4079 -1.1311
  766MOL0     H 3353   0.363   6.828   6.686  2.0660 -1.2053 -0.7365
  766MOL0     H 3354   0.508   6.831   6.795  0.2006  0.9860 -0.2763
  766MOL0     H 3355   0.338   6.910   6.979  1.1171 -4.7010  2.5848
  766MOL0     H 3356   0.215   6.870   6.850 -2.2025 -0.7767  3.0270
  766MOL0     H 3357   0.347   6.636   6.848  1.6309 -2.3978  1.4599
  766MOL0     H 3358   0.417   6.684   7.003  0.9483 -0.5241 -1.1734
  766MOL0     H 3359   0.127   6.601   6.975  0.4295 -0.0765 -0.0879
  766MOL0     H 3360   0.179   6.713   7.104 -1.4174 -1.1784  1.5277
  766MOL0     H 3361   0.297   6.600   7.301 -0.0039 -0.0902 -0.3871
  766MOL0     H 3362   0.309   6.420   7.453  0.5944  3.3566 -2.6213
  766MOL0     H 3363   0.306   6.244   7.396 -0.4299  0.6080 -1.2908
  766MOL0     H 3364   0.557   6.426   7.376  1.4485 -1.3617 -1.2750
  766MOL0     H 3365   0.547   6.256   7.346  0.4451  0.9402 -1.8598
  766MOL0     H 3366   0.498   6.214   7.586  1.1020 -0.3267  2.8438
  766MOL0     H 3367   0.502   6.382   7.614 -0.5329  0.7596 -0.7011
  766MOL0     H 3368   0.745   6.234   7.499  2.0204 -2.0081  3.6535
  766MOL0     H 3369   0.699   6.257   7.669 -1.5223 -1.2352  0.2748
  766MOL0     H 3370   0.933   6.261   7.621  1.7482 -0.4401 -1.6571
  766MOL0     H 3371   1.143   6.206   7.752  0.2076  0.4751  2.2035
  766MOL0     H 3372   1.213   6.243   7.597 -1.4918 -0.9449  0.2481
  766MOL0     H 3373   1.283   6.323   7.736  0.5298 -0.5238 -1.9196
  766MOL0     H 3374   1.332   6.850   7.814  2.2734 -0.1992 -2.2664
  766MOL0     H 3375   1.475   6.992   7.926 -1.9464  0.6985  0.4126
  766MOL0     H 3376   1.675   7.048   7.977 -1.1190 -0.2709 -0.2275
  766MOL0     H 3377   1.632   7.131   8.119 -1.9349 -2.0621 -1.3489
  766MOL0     H 3378   1.848   7.057   8.234  3.3361 -0.2224 -0.2534
  766MOL0     H 3379   1.900   6.968   8.091 -1.7683 -1.0175 -0.1217
  766MOL0     H 3380   1.838   7.262   8.084  1.5171  1.5528  2.1486
  766MOL0     H 3381   1.902   7.163   7.949  1.5993 -2.0825  0.4300
  766MOL0     H 3382   2.057   7.201   8.224  2.1341  0.0656  0.1330
  766MOL0     H 3383   2.113   7.140   8.069 -1.8536 -1.4291 -0.4934
  766MOL0     H 3384   1.994   7.430   8.083 -2.7617 -1.7869 -0.3798
  766MOL0     H 3385   2.052   7.368   7.948  0.2083 -0.4367  0.2089
  766MOL0     H 3386   2.238   7.408   8.184  2.9751  3.8514 -0.2586
  766MOL0     H 3387   2.292   7.318   8.053 -0.6309 -2.0433  3.7649
  766MOL0     H 3388   2.344   7.566   8.065  0.2390 -2.7559 -0.2322
  766MOL0     H 3389   2.170   7.602   8.052 -2.1829 -1.5936 -1.8380
  766MOL0     H 3390   2.289   7.419   7.827  0.2332 -0.5365  0.6577
  766MOL0     H 3391   2.342   7.591   7.840 -2.0818  0.7624 -1.8613
  766MOL0     H 3392   1.536   6.698   8.244  1.4446  0.8715 -0.2851
  766MOL0     H 3393   1.370   6.554   8.127  1.0468 -0.9678 -1.0888
  766MOL0     H 3394   1.033   6.731   7.712  0.1004 -0.4615 -0.4182
  766MOL0     H 3395   0.811   6.664   7.664  0.1316 -1.2604  2.1740
  766MOL0     H 3396   0.654   7.463   6.910  2.9488  0.9562 -0.8604
  766MOL0     H 3397   0.720   7.668   7.013  1.3160 -4.7100  0.1855
  766MOL0     H 3398   0.654   8.115   7.107 -0.9648 -0.8158 -2.8731
  766MOL0     H 3399   0.789   8.312   7.211 -0.4077  0.4265 -1.2067
  766MOL0     H 3400   0.947   8.534   7.104 -0.7928 -2.2574 -1.0257
  766MOL0     H 3401   0.920   8.476   7.267 -0.3872  3.0064  0.2985
  766MOL0     H 3402   1.202   8.571   7.184 -1.5980  4.1347 -2.4225
  766MOL0     H 3403   1.134   8.532   7.345 -3.0625 -4.1263 -1.0454
  766MOL0     H 3404   0.988   8.737   7.317 -0.6705 -1.8775 -0.5939
  766MOL0     H 3405   1.068   8.758   7.155  0.8833 -1.7842 -0.7173
  766MOL0     H 3406   1.286   8.738   7.339  0.3417  0.6488 -1.2404
  766MOL0     H 3407   1.161   8.832   7.418  0.5973 -0.8365  1.6825
  766MOL0     H 3408   1.341   9.116   7.189  0.3219 -0.9112 -0.8471
  766MOL0     H 3409   1.131   8.194   7.014  0.7771  0.5081  5.4291
  766MOL0     H 3410   1.011   8.017   6.895 -1.5290 -0.7383 -0.0360
  767MOL0     O 3411   5.772   2.428   1.369  0.3819 -0.6860 -0.7256
  767MOL0     C 3412   5.683   2.491   1.311 -0.3480  0.3192 -0.3449
  767MOL0     O 3413   5.625   2.450   1.187  0.2193 -0.3893 -0.5132
  767MOL0     C 3414   5.685   2.390   1.076 -0.6010  1.2852 -0.6205
  767MOL0     C 3415   5.816   2.362   1.072 -0.3572  0.6577  0.0047
  767MOL0     C 3416   5.873   2.328   0.950 -0.1498 -0.3305  0.3666
  767MOL0     C 3417   5.798   2.310   0.830 -0.4205 -1.2495 -0.0919
  767MOL0     O 3418   5.847   2.259   0.717  0.3876  0.2026 -0.2843
  767MOL0     C 3419   5.966   2.315   0.665 -0.2784  0.6704 -0.2672
  767MOL0     C 3420   5.985   2.267   0.519  1.0758  0.2735 -0.5561
  767MOL0     C 3421   6.109   2.329   0.455  0.2534  0.4937 -0.4104
  767MOL0     C 3422   6.150   2.246   0.325 -0.6449  0.3505 -0.5612
  767MOL0     C 3423   6.290   2.279   0.280 -1.0547  0.0926  0.7703
  767MOL0     C 3424   6.341   2.209   0.151  0.2788 -0.2990 -0.1527
  767MOL0     C 3425   6.480   2.265   0.118  0.1895 -1.2630  0.3029
  767MOL0     C 3426   6.526   2.201  -0.011 -0.6792  0.0052  0.5750
  767MOL0     N 3427   6.666   2.241  -0.029  0.3153  0.0733 -0.5699
  767MOL0     C 3428   6.712   2.374  -0.040  0.1412 -0.1930  0.2261
  767MOL0     C 3429   6.849   2.356  -0.047  0.7341  0.1108  0.1163
  767MOL0     C 3430   6.942   2.475  -0.070 -0.8684  1.3456  0.4437
  767MOL0     C 3431   6.960   2.501  -0.224  0.3240  0.1468 -1.2325
  767MOL0     C 3432   6.974   2.378  -0.316  1.1671 -0.6692 -0.1390
  767MOL0     C 3433   7.039   2.421  -0.443 -0.2483 -0.0771  0.9994
  767MOL0     O 3434   6.949   2.479  -0.527 -0.0525 -0.2141  0.3490
  767MOL0     C 3435   7.004   2.512  -0.653  0.3196 -0.6716 -0.0602
  767MOL0     C 3436   6.922   2.579  -0.737 -0.1414 -1.2848 -0.1621
  767MOL0     C 3437   6.967   2.615  -0.864  0.1742 -0.3029 -0.3402
  767MOL0     C 3438   6.868   2.690  -0.944  0.2994  0.0447  0.9577
  767MOL0     C 3439   7.089   2.581  -0.916  0.0309 -0.2341  0.3744
  767MOL0     C 3440   7.136   2.588  -1.062 -0.4845 -0.3278  0.1554
  767MOL0     O 3441   7.267   2.553  -1.085  0.0066 -0.2310 -0.1762
  767MOL0     C 3442   7.301   2.545  -1.213 -0.7095  0.8691 -0.0582
  767MOL0     C 3443   7.331   2.410  -1.252  0.8167 -0.3217 -0.0049
  767MOL0     C 3444   7.366   2.394  -1.383  0.5631  0.2253 -0.4292
  767MOL0     C 3445   7.382   2.502  -1.475  0.5630  0.2218  0.5072
  767MOL0     O 3446   7.429   2.457  -1.597 -0.4660  0.4684  0.3266
  767MOL0     C 3447   7.449   2.563  -1.697 -0.6286 -0.2393  0.4409
  767MOL0     C 3448   7.583   2.639  -1.663  0.2471  0.4220 -0.7670
  767MOL0     C 3449   7.590   2.771  -1.745  0.4407  0.0304 -0.3352
  767MOL0     C 3450   7.724   2.833  -1.727  1.0866 -0.3074  0.0813
  767MOL0     C 3451   7.749   2.960  -1.806 -0.1952  0.8127  0.1205
  767MOL0     C 3452   7.875   3.034  -1.751  0.2512  0.0368  0.9546
  767MOL0     C 3453   7.892   3.161  -1.836  0.5195  0.9371 -0.3399
  767MOL0     C 3454   7.766   3.224  -1.892  0.1031 -0.5917  0.3503
  767MOL0    Cl 3455   7.683   3.302  -1.754  0.0377 -0.2255 -0.1620
  767MOL0     C 3456   7.364   2.640  -1.431  0.3887 -0.2461 -0.4185
  767MOL0     C 3457   7.322   2.653  -1.300 -0.0173  0.1887  0.0480
  767MOL0     O 3458   7.053   2.624  -1.147  0.2333 -0.0992  0.4172
  767MOL0     C 3459   7.170   2.518  -0.823  0.3709 -0.0261  0.1625
  767MOL0     C 3460   7.131   2.487  -0.700 -0.3858  0.7829 -0.2167
  767MOL0     N 3461   6.872   2.220  -0.049  0.1100  0.2312 -0.6773
  767MOL0     N 3462   6.762   2.155  -0.027 -0.7353 -0.5954  0.8978
  767MOL0     C 3463   5.655   2.332   0.841 -0.3763  0.2237 -0.5831
  767MOL0     C 3464   5.603   2.366   0.968  0.2519 -0.0627 -0.4128
  767MOL0     C 3465   5.638   2.614   1.382  0.0425  0.5729 -0.4752
  767MOL0     C 3466   5.684   2.639   1.511  0.3329 -1.2274  0.6125
  767MOL0     C 3467   5.630   2.752   1.568  0.0762 -0.8736 -0.5617
  767MOL0     C 3468   5.533   2.833   1.508  0.7919 -0.4996 -0.1451
  767MOL0     O 3469   5.474   2.928   1.580 -0.0020 -0.0638 -0.4305
  767MOL0     C 3470   5.351   2.985   1.536  0.3089  0.4539 -0.2075
  767MOL0     C 3471   5.287   3.073   1.646 -0.3935  0.7797 -0.3556
  767MOL0     C 3472   5.383   3.194   1.653 -0.0002  0.2366 -0.3142
  767MOL0     C 3473   5.328   3.302   1.750  0.5470  0.1072  0.6508
  767MOL0     C 3474   5.422   3.410   1.769 -0.7734  1.2386 -0.1043
  767MOL0     C 3475   5.516   3.497   1.779  0.1923  0.0355 -0.8765
  767MOL0     C 3476   5.493   2.807   1.374  0.2558 -0.0010  0.1782
  767MOL0     C 3477   5.548   2.699   1.317  0.1997  0.6945 -0.1779
  767MOL0     H 3478   5.876   2.361   1.162 -0.6463 -0.7598  0.2149
  767MOL0     H 3479   5.980   2.313   0.939 -0.0149  2.0763 -5.2309
  767MOL0     H 3480   5.985   2.422   0.669  2.1673  0.2580  0.4730
  767MOL0     H 3481   6.049   2.271   0.721  0.9081  1.1211 -1.5989
  767MOL0     H 3482   5.981   2.158   0.509 -1.7167  0.4370 -2.1767
  767MOL0     H 3483   5.894   2.300   0.469 -0.0564  1.4207  2.0305
  767MOL0     H 3484   6.077   2.430   0.428 -0.6685  0.4532  0.4839
  767MOL0     H 3485   6.192   2.320   0.525  2.0288 -2.7953 -2.6529
  767MOL0     H 3486   6.164   2.143   0.361  0.9514  0.1710 -1.5812
  767MOL0     H 3487   6.074   2.248   0.246  1.4558 -0.4914 -2.7476
  767MOL0     H 3488   6.288   2.388   0.279 -2.1097  0.0934  1.8168
  767MOL0     H 3489   6.361   2.255   0.360  1.2669  1.4391 -0.7579
  767MOL0     H 3490   6.346   2.101   0.166 -1.9494 -0.6540 -1.5150
  767MOL0     H 3491   6.276   2.220   0.064 -0.3755 -1.8885  0.0924
  767MOL0     H 3492   6.448   2.366   0.090 -0.8946 -1.8153 -0.5472
  767MOL0     H 3493   6.548   2.251   0.202 -1.6131 -2.9845  1.5823
  767MOL0     H 3494   6.466   2.236  -0.095 -0.8056  0.1488  0.7237
  767MOL0     H 3495   6.531   2.092  -0.005  0.0945 -0.0052 -0.0668
  767MOL0     H 3496   6.662   2.470  -0.040 -3.0045 -1.6996  0.0679
  767MOL0     H 3497   6.893   2.565  -0.033 -0.4706  1.0993  1.6210
  767MOL0     H 3498   7.035   2.449  -0.018 -1.8171 -2.4787  0.5869
  767MOL0     H 3499   7.045   2.569  -0.237 -0.9191  2.4509  1.6423
  767MOL0     H 3500   6.872   2.558  -0.255 -0.2047 -0.9865 -1.8819
  767MOL0     H 3501   6.874   2.339  -0.338  0.9761 -1.6738  2.2262
  767MOL0     H 3502   7.034   2.301  -0.267  0.9876  0.0382  1.2170
  767MOL0     H 3503   7.089   2.333  -0.484  1.7235  0.7710  1.4567
  767MOL0     H 3504   7.120   2.488  -0.413 -0.1124  0.9200 -1.4088
  767MOL0     H 3505   6.820   2.590  -0.702 -0.2106 -3.0669  0.3102
  767MOL0     H 3506   6.903   2.775  -1.002 -2.7829  1.1676  0.5476
  767MOL0     H 3507   6.825   2.628  -1.023 -1.8077  1.8713  0.5828
  767MOL0     H 3508   6.786   2.730  -0.885 -0.2542  0.7923 -0.2826
  767MOL0     H 3509   7.322   2.331  -1.178  0.5254 -1.3542 -1.1285
  767MOL0     H 3510   7.379   2.294  -1.423  4.4513 -0.2585  1.5611
  767MOL0     H 3511   7.458   2.523  -1.798 -1.0610  1.1892 -0.1830
  767MOL0     H 3512   7.365   2.632  -1.704  0.0174  0.4037 -5.6318
  767MOL0     H 3513   7.588   2.665  -1.557  1.0607 -2.2568 -0.0643
  767MOL0     H 3514   7.662   2.570  -1.695 -0.9713 -0.1704 -2.6861
  767MOL0     H 3515   7.519   2.845  -1.708 -2.2818 -1.6704 -1.8768
  767MOL0     H 3516   7.576   2.759  -1.853  0.7249  2.1576 -0.6512
  767MOL0     H 3517   7.746   2.844  -1.621  3.5027  2.0738 -0.5468
  767MOL0     H 3518   7.798   2.758  -1.758  0.2490 -1.7949  1.4983
  767MOL0     H 3519   7.667   3.032  -1.792  1.9191  3.0513  1.8669
  767MOL0     H 3520   7.754   2.927  -1.910 -0.7687  0.9657  0.0430
  767MOL0     H 3521   7.872   3.058  -1.644  0.8752  2.9492  0.4062
  767MOL0     H 3522   7.960   2.967  -1.759  0.5354  0.5110 -0.1750
  767MOL0     H 3523   7.956   3.146  -1.924  0.6482  0.7091 -0.2053
  767MOL0     H 3524   7.941   3.225  -1.762  0.1038  0.3338  0.4698
  767MOL0     H 3525   7.706   3.160  -1.958 -0.6096  2.0620 -1.7707
  767MOL0     H 3526   7.806   3.300  -1.960 -1.4806 -1.1024 -1.2444
  767MOL0     H 3527   7.387   2.714  -1.507 -0.2651 -3.0504 -3.6420
  767MOL0     H 3528   7.317   2.745  -1.243  2.2457 -0.7195  1.8416
  767MOL0     H 3529   7.272   2.486  -0.845 -0.2322 -0.1896 -2.7095
  767MOL0     H 3530   7.203   2.457  -0.625 -1.6734 -0.1755  0.6871
  767MOL0     H 3531   5.584   2.317   0.761 -1.4962 -0.0828  0.4257
  767MOL0     H 3532   5.498   2.365   0.993  1.2189  0.0792  4.7293
  767MOL0     H 3533   5.758   2.575   1.557  0.0203 -2.4337 -0.5055
  767MOL0     H 3534   5.674   2.789   1.660 -2.2080  2.8984 -0.7380
  767MOL0     H 3535   5.361   3.047   1.447 -0.4209  2.2540  0.8962
  767MOL0     H 3536   5.272   2.913   1.514 -1.6366  2.5046 -0.2464
  767MOL0     H 3537   5.281   3.017   1.740  0.7994  0.3582 -0.5169
  767MOL0     H 3538   5.185   3.104   1.621 -0.4649  1.8070  1.1283
  767MOL0     H 3539   5.387   3.236   1.552  2.0244  1.3173  0.1582
  767MOL0     H 3540   5.485   3.172   1.684 -0.3262  1.8606  2.1592
  767MOL0     H 3541   5.307   3.270   1.852 -0.6577 -1.1917  0.0298
  767MOL0     H 3542   5.227   3.334   1.721 -0.7983 -3.4191  0.9308
  767MOL0     H 3543   5.596   3.568   1.785  0.9248 -0.6212 -2.2863
  767MOL0     H 3544   5.420   2.868   1.321 -0.0222  2.8908  3.5291
  767MOL0     H 3545   5.513   2.667   1.219 -0.2490  1.7978 -0.3830
  768MOL0     O 3546   6.738   8.138   0.303 -0.0910 -0.1578 -0.2447
  768MOL0     C 3547   6.641   8.197   0.353 -0.2133  0.2206 -0.2501
  768MOL0     O 3548   6.577   8.177   0.473 -0.2244 -0.1769 -0.8932
  768MOL0     C 3549   6.604   8.077   0.556 -1.1073  0.5906 -0.4831
  768MOL0     C 3550   6.733   8.040   0.599  0.8134 -0.3398 -0.4222
  768MOL0     C 3551   6.754   7.952   0.707  0.0040 -1.1111  0.7740
  768MOL0     C 3552   6.631   7.884   0.757  0.2614 -0.6741  0.7072
  768MOL0     O 3553   6.622   7.799   0.868 -0.3318 -0.0060 -0.4703
  768MOL0     C 3554   6.720   7.806   0.963  0.5541 -0.5408 -0.0520
  768MOL0     C 3555   6.670   7.728   1.086  0.0417 -1.2968 -0.4623
  768MOL0     C 3556   6.743   7.768   1.210  0.0881 -0.0039  0.3571
  768MOL0     C 3557   6.671   7.750   1.351  0.1172 -0.3105 -1.0847
  768MOL0     C 3558   6.634   7.606   1.375 -0.7640  0.4554  0.4241
  768MOL0     C 3559   6.752   7.523   1.426  0.4361  0.1209  1.0068
  768MOL0     C 3560   6.735   7.369   1.398 -0.2218  0.1591  0.0038
  768MOL0     C 3561   6.851   7.296   1.466  0.1556  0.0422  0.2309
  768MOL0     N 3562   6.835   7.149   1.449 -0.2739 -0.0026  0.2111
  768MOL0     C 3563   6.839   7.055   1.547  0.2446 -0.2798 -0.0028
  768MOL0     C 3564   6.831   6.933   1.500 -0.0942  1.0686  0.8454
  768MOL0     C 3565   6.818   6.804   1.568 -0.0641  0.9719  0.2703
  768MOL0     C 3566   6.861   6.677   1.489  0.8632 -0.0986 -0.1865
  768MOL0     C 3567   6.752   6.600   1.416  0.4562 -0.8961  0.3204
  768MOL0     C 3568   6.637   6.545   1.488 -0.0449  0.7035 -1.3219
  768MOL0     O 3569   6.676   6.467   1.595  0.1122  0.1404 -0.3584
  768MOL0     C 3570   6.586   6.447   1.697  0.6707  0.5859  0.0047
  768MOL0     C 3571   6.620   6.440   1.821  1.2656  0.9361 -0.9423
  768MOL0     C 3572   6.534   6.399   1.928  1.7274 -1.0973 -0.4251
  768MOL0     C 3573   6.586   6.402   2.067  0.2352  0.0414 -0.6123
  768MOL0     C 3574   6.393   6.371   1.893  0.1663  0.3527 -0.1281
  768MOL0     C 3575   6.279   6.345   1.990 -0.7421  0.2985  0.5001
  768MOL0     O 3576   6.144   6.361   1.948  0.3619  0.1190 -0.1597
  768MOL0     C 3577   6.049   6.321   2.039 -0.8825 -0.2448  0.8978
  768MOL0     C 3578   6.003   6.185   2.037  0.0804  0.9488  0.5572
  768MOL0     C 3579   5.903   6.134   2.121 -0.0669 -0.3734 -0.7062
  768MOL0     C 3580   5.840   6.223   2.211  0.1825 -0.2314 -1.0357
  768MOL0     O 3581   5.760   6.173   2.313  0.1563 -0.2764 -0.8630
  768MOL0     C 3582   5.785   6.215   2.452  0.3064 -0.2247  0.5679
  768MOL0     C 3583   5.872   6.114   2.522 -0.3169 -0.0212  0.5273
  768MOL0     C 3584   5.795   5.980   2.539 -0.4361 -0.4741 -0.0965
  768MOL0     C 3585   5.804   5.914   2.679  0.4783 -0.6285 -0.3116
  768MOL0     C 3586   5.939   5.860   2.729  0.3131  0.2273  0.5300
  768MOL0     C 3587   5.987   5.766   2.632 -0.2633  0.2678 -0.5533
  768MOL0     C 3588   6.114   5.698   2.671  0.3773  0.0886 -0.4390
  768MOL0     C 3589   6.098   5.582   2.777 -0.3579 -0.7960 -0.5313
  768MOL0    Cl 3590   6.271   5.519   2.813 -0.3459  0.1031 -0.0191
  768MOL0     C 3591   5.877   6.361   2.207 -0.0442 -0.0462 -0.7297
  768MOL0     C 3592   5.985   6.406   2.124  0.5480 -1.4006 -0.5559
  768MOL0     O 3593   6.298   6.314   2.105  0.3415 -0.1364 -0.2496
  768MOL0     C 3594   6.356   6.391   1.758  0.6367 -0.4618 -0.1703
  768MOL0     C 3595   6.453   6.418   1.662  0.1069  0.1322 -0.7133
  768MOL0     N 3596   6.836   6.950   1.353 -0.2371  0.5810  0.4952
  768MOL0     N 3597   6.818   7.079   1.325  0.1310  0.4985 -0.3422
  768MOL0     C 3598   6.508   7.916   0.708 -0.7031 -0.0113  0.1395
  768MOL0     C 3599   6.494   8.011   0.612 -0.0329  0.2465 -0.8183
  768MOL0     C 3600   6.582   8.301   0.274 -0.5888 -1.0183  0.1049
  768MOL0     C 3601   6.604   8.311   0.138  0.2749  0.4106  0.3429
  768MOL0     C 3602   6.546   8.416   0.063 -0.0616  0.4231 -0.0342
  768MOL0     C 3603   6.474   8.520   0.123  0.6932 -0.2424 -0.3920
  768MOL0     O 3604   6.420   8.620   0.028  0.2306  0.1878  0.9411
  768MOL0     C 3605   6.374   8.744   0.076  0.3421  0.2466 -0.5526
  768MOL0     C 3606   6.326   8.840  -0.036  0.7844  0.2085  0.2607
  768MOL0     C 3607   6.429   8.898  -0.136  1.2153  0.4722 -0.2035
  768MOL0     C 3608   6.370   9.029  -0.203 -0.1532 -0.7254 -0.0105
  768MOL0     C 3609   6.244   9.004  -0.282  0.1943  0.1742 -0.6699
  768MOL0     C 3610   6.138   8.993  -0.336  0.2590  0.6113  0.3875
  768MOL0     C 3611   6.457   8.519   0.261  0.1970  0.2769  0.0007
  768MOL0     C 3612   6.518   8.414   0.339 -0.2198  0.4676  0.5160
  768MOL0     H 3613   6.812   8.107   0.565 -0.7474  1.0917 -1.3819
  768MOL0     H 3614   6.849   7.954   0.759 -0.5100  1.1916  1.7336
  768MOL0     H 3615   6.816   7.768   0.924 -0.1470 -3.0783  0.4801
  768MOL0     H 3616   6.739   7.908   0.998 -0.3030 -1.3287  3.0763
  768MOL0     H 3617   6.563   7.734   1.108 -0.0440 -0.0345 -1.1524
  768MOL0     H 3618   6.688   7.621   1.071 -1.2589 -1.9178  1.8301
  768MOL0     H 3619   6.835   7.710   1.199  1.1927  2.0331 -2.3695
  768MOL0     H 3620   6.777   7.872   1.212  1.4717 -0.3971 -0.7180
  768MOL0     H 3621   6.718   7.798   1.437  0.0216 -1.2508 -0.5029
  768MOL0     H 3622   6.576   7.805   1.342  0.1176 -0.3022 -1.0412
  768MOL0     H 3623   6.555   7.591   1.449 -3.3573  2.9366 -1.5856
  768MOL0     H 3624   6.597   7.568   1.280  2.4652  1.5130 -1.3929
  768MOL0     H 3625   6.849   7.556   1.388  0.9885 -1.2635  1.1543
  768MOL0     H 3626   6.755   7.548   1.533 -4.7581  2.7693  0.8424
  768MOL0     H 3627   6.638   7.336   1.436  1.4819 -3.5785  1.7057
  768MOL0     H 3628   6.736   7.354   1.290 -0.4729  0.8016 -0.0881
  768MOL0     H 3629   6.857   7.319   1.573  1.4529 -0.0086  0.1819
  768MOL0     H 3630   6.942   7.334   1.419 -1.9672  3.1955 -1.6869
  768MOL0     H 3631   6.821   7.090   1.648  2.2238 -0.1184  0.3295
  768MOL0     H 3632   6.882   6.812   1.655 -2.2046 -0.9702  2.1469
  768MOL0     H 3633   6.716   6.800   1.607 -1.4348  0.3812 -3.0204
  768MOL0     H 3634   6.899   6.604   1.562 -2.0657 -1.8000 -0.2215
  768MOL0     H 3635   6.938   6.702   1.416 -1.7004 -1.7576 -3.7577
  768MOL0     H 3636   6.805   6.514   1.375  1.9432  0.6960 -1.2591
  768MOL0     H 3637   6.709   6.664   1.339  1.2137  1.7871  1.9954
  768MOL0     H 3638   6.579   6.480   1.421 -0.7452  1.0773 -1.0794
  768MOL0     H 3639   6.577   6.630   1.518 -4.0196 -2.2783  0.0026
  768MOL0     H 3640   6.720   6.477   1.840  0.8205  0.9941  1.6355
  768MOL0     H 3641   6.679   6.459   2.077 -0.7376  1.5644  0.3049
  768MOL0     H 3642   6.506   6.455   2.121  0.3108 -1.2072  0.7604
  768MOL0     H 3643   6.598   6.304   2.113 -0.5991 -0.1185 -0.7204
  768MOL0     H 3644   6.047   6.117   1.965 -0.5471  1.1537 -0.0228
  768MOL0     H 3645   5.873   6.030   2.115 -3.2702  0.2986  1.3710
  768MOL0     H 3646   5.838   6.310   2.459 -3.2993  1.9731  0.5191
  768MOL0     H 3647   5.683   6.228   2.490  0.2866  0.3373  0.3220
  768MOL0     H 3648   5.964   6.106   2.464 -0.5747 -0.9009  0.2222
  768MOL0     H 3649   5.902   6.166   2.613 -0.5130  1.2201 -0.0940
  768MOL0     H 3650   5.847   5.917   2.466 -0.3125  2.1363 -2.4364
  768MOL0     H 3651   5.693   5.995   2.501  0.3222  2.6535 -1.2181
  768MOL0     H 3652   5.768   5.984   2.754 -2.1396 -1.4869 -0.6889
  768MOL0     H 3653   5.731   5.833   2.690 -0.2957 -0.0195 -0.8750
  768MOL0     H 3654   5.938   5.815   2.829  1.8322 -0.8623  0.0822
  768MOL0     H 3655   6.007   5.946   2.733 -3.3904  3.5122 -0.6926
  768MOL0     H 3656   5.913   5.685   2.620 -0.2889  0.0695  0.7609
  768MOL0     H 3657   6.010   5.803   2.532  0.7540  1.4582  0.0952
  768MOL0     H 3658   6.195   5.765   2.704 -1.1221  0.9331  1.7562
  768MOL0     H 3659   6.149   5.654   2.578  0.2845  0.3928 -0.6201
  768MOL0     H 3660   6.027   5.506   2.746  0.0575 -0.3559 -2.7549
  768MOL0     H 3661   6.056   5.633   2.864 -2.0373 -2.3290 -0.3879
  768MOL0     H 3662   5.819   6.431   2.266  1.4439  1.6960 -1.2504
  768MOL0     H 3663   5.991   6.515   2.130 -1.9865 -1.2641  2.1402
  768MOL0     H 3664   6.257   6.362   1.726  1.3287 -4.0357  0.4685
  768MOL0     H 3665   6.426   6.432   1.558 -1.2626  3.1724 -0.0497
  768MOL0     H 3666   6.423   7.865   0.751 -0.6417  1.2751  1.8606
  768MOL0     H 3667   6.394   8.034   0.578  0.2317 -0.4098 -2.0793
  768MOL0     H 3668   6.659   8.233   0.087 -0.7700 -0.2957  0.2618
  768MOL0     H 3669   6.565   8.417  -0.044 -2.0026  2.4571 -0.4573
  768MOL0     H 3670   6.288   8.730   0.142  0.4741  0.9365 -0.2269
  768MOL0     H 3671   6.456   8.794   0.128  1.6988 -0.0653 -2.2742
  768MOL0     H 3672   6.284   8.930   0.011  3.2202  0.2006  2.7400
  768MOL0     H 3673   6.253   8.788  -0.098  1.7769  0.3260 -1.0333
  768MOL0     H 3674   6.431   8.834  -0.224  1.0384 -0.0498  0.1630
  768MOL0     H 3675   6.530   8.911  -0.098  2.1713 -2.5043 -1.3791
  768MOL0     H 3676   6.449   9.079  -0.258 -2.6666  1.1416 -2.1508
  768MOL0     H 3677   6.352   9.100  -0.121  1.2339  1.1224 -1.2425
  768MOL0     H 3678   6.038   8.975  -0.370  1.1830 -2.7662 -0.9579
  768MOL0     H 3679   6.393   8.586   0.318 -0.8045 -1.0026  0.4481
  768MOL0     H 3680   6.505   8.402   0.446 -0.3935 -6.3202  0.1632
  769MOL0     O 3681  10.843   6.043   9.612 -0.4117  0.1050 -0.4958
  769MOL0     C 3682  10.846   5.978   9.715 -0.6682  0.8018  0.2935
  769MOL0     O 3683  10.806   5.842   9.729  0.1917 -0.2315 -0.1597
  769MOL0     C 3684  10.805   5.765   9.608 -0.1053  0.1554  0.2070
  769MOL0     C 3685  10.897   5.778   9.503  1.7213  0.0696 -0.0720
  769MOL0     C 3686  10.893   5.694   9.388  0.1318 -0.5462 -0.4829
  769MOL0     C 3687  10.800   5.590   9.389  0.1578 -0.8934 -0.0873
  769MOL0     O 3688  10.798   5.517   9.273  0.5421  1.1533  0.2354
  769MOL0     C 3689  10.761   5.376   9.281 -0.0785 -0.5686 -0.1866
  769MOL0     C 3690  10.806   5.292   9.153 -0.4516  0.6195 -0.6001
  769MOL0     C 3691  10.722   5.313   9.022 -0.4072 -0.2244 -0.8787
  769MOL0     C 3692  10.772   5.208   8.914  0.5710 -0.3292 -0.6535
  769MOL0     C 3693  10.780   5.273   8.772  0.4814  0.3865  0.9519
  769MOL0     C 3694  10.640   5.314   8.719 -0.3731  0.1570  0.4369
  769MOL0     C 3695  10.537   5.195   8.721 -0.3521  0.8151  1.1371
  769MOL0     C 3696  10.446   5.220   8.592  1.4010  1.1473  0.1827
  769MOL0     N 3697  10.382   5.349   8.603  0.0901 -0.1426  0.4826
  769MOL0     C 3698  10.297   5.396   8.699  0.8241  0.2631 -1.2566
  769MOL0     C 3699  10.267   5.521   8.665 -0.4553 -0.4408 -0.9460
  769MOL0     C 3700  10.172   5.596   8.736 -0.5450  0.3809  0.7228
  769MOL0     C 3701  10.031   5.533   8.765 -0.0011  0.2529 -0.4997
  769MOL0     C 3702   9.971   5.455   8.644 -0.2696  0.5091 -0.6056
  769MOL0     C 3703   9.839   5.504   8.603  0.0629 -0.2968  1.3716
  769MOL0     O 3704   9.817   5.451   8.469  0.0761 -0.3134  0.3659
  769MOL0     C 3705   9.773   5.534   8.367 -0.3760  0.1374 -0.1760
  769MOL0     C 3706   9.794   5.511   8.230 -0.5527  0.2434  0.0572
  769MOL0     C 3707   9.740   5.595   8.127 -0.6528  1.0572  0.1989
  769MOL0     C 3708   9.780   5.562   7.981  0.3177  0.6055 -0.2369
  769MOL0     C 3709   9.671   5.712   8.160 -0.1150 -0.1691 -0.8057
  769MOL0     C 3710   9.600   5.808   8.062 -0.2149  0.0934 -0.5716
  769MOL0     O 3711   9.577   5.772   7.938 -0.1852 -0.5953  0.1452
  769MOL0     C 3712   9.508   5.855   7.848 -1.4151 -0.3372 -0.0065
  769MOL0     C 3713   9.396   5.925   7.886 -0.8607 -0.0693  0.6856
  769MOL0     C 3714   9.334   5.992   7.778  0.2259  0.2566  0.2099
  769MOL0     C 3715   9.369   5.997   7.639 -0.2916 -0.5738 -0.0550
  769MOL0     O 3716   9.276   6.066   7.560  0.1257  0.8412  0.9584
  769MOL0     C 3717   9.279   6.053   7.417 -2.3560 -0.8668  0.7879
  769MOL0     C 3718   9.331   6.180   7.351  0.7593 -0.2243 -0.6078
  769MOL0     C 3719   9.264   6.305   7.402 -0.5648 -0.4928 -1.6057
  769MOL0     C 3720   9.147   6.346   7.326 -0.4812  0.6947  0.1356
  769MOL0     C 3721   9.061   6.462   7.379 -0.4439  0.8713 -0.5642
  769MOL0     C 3722   9.020   6.567   7.277 -0.2643 -0.2276 -0.3865
  769MOL0     C 3723   8.918   6.671   7.335 -0.7792 -0.8518 -0.9477
  769MOL0     C 3724   8.978   6.780   7.419 -1.0815 -0.3772 -0.3670
  769MOL0    Cl 3725   9.121   6.869   7.341 -0.0155 -0.0554  0.2582
  769MOL0     C 3726   9.500   5.942   7.612 -0.1632  1.0911 -0.5728
  769MOL0     C 3727   9.557   5.857   7.712 -0.3640 -0.8213  0.2381
  769MOL0     O 3728   9.572   5.919   8.109  0.5569  0.2541  0.0266
  769MOL0     C 3729   9.648   5.739   8.299 -0.8444 -0.2569  0.1347
  769MOL0     C 3730   9.696   5.641   8.393 -0.4100 -0.4613  0.5343
  769MOL0     N 3731  10.340   5.564   8.551  0.6910 -0.2145  0.8771
  769MOL0     N 3732  10.407   5.453   8.519 -0.2898 -0.1269  0.2056
  769MOL0     C 3733  10.695   5.577   9.493 -1.0615 -0.1268  0.6838
  769MOL0     C 3734  10.713   5.659   9.601 -0.2058  0.3291 -0.4783
  769MOL0     C 3735  10.878   6.055   9.841  0.0138 -0.2148  0.7313
  769MOL0     C 3736  10.897   6.196   9.835  0.0878 -0.0287  0.5974
  769MOL0     C 3737  10.919   6.262   9.955  0.0992  0.6892  0.8643
  769MOL0     C 3738  10.924   6.200  10.075  0.3549  0.8620 -0.1078
  769MOL0     O 3739  10.935   6.286  10.185  0.1118 -0.2326 -0.5436
  769MOL0     C 3740  10.909   6.246  10.322  1.0816  0.9372  0.9924
  769MOL0     C 3741  11.038   6.241  10.408 -0.3354  0.1171 -0.3164
  769MOL0     C 3742  11.012   6.213  10.556 -0.7762  0.2250  1.2710
  769MOL0     C 3743  11.024   6.067  10.597 -0.8395  0.4914 -0.1789
  769MOL0     C 3744  10.975   5.969  10.500  0.3670 -0.7514  0.1750
  769MOL0     C 3745  10.917   5.882  10.431  0.5409 -0.8915  0.3008
  769MOL0     C 3746  10.909   6.058  10.077 -0.9182 -0.2092  0.4600
  769MOL0     C 3747  10.887   5.991   9.960 -0.3410  0.2072  0.7012
  769MOL0     H 3748  10.973   5.856   9.509 -0.4520  2.4131 -1.3107
  769MOL0     H 3749  10.939   5.711   9.292  0.8742  1.0155  0.1060
  769MOL0     H 3750  10.814   5.333   9.366  0.1706  0.0799 -0.0071
  769MOL0     H 3751  10.653   5.369   9.294 -0.1980 -1.1386 -1.3440
  769MOL0     H 3752  10.911   5.310   9.129  0.0967 -2.9599 -1.5175
  769MOL0     H 3753  10.811   5.186   9.178 -1.9699  0.6250 -0.1376
  769MOL0     H 3754  10.618   5.294   9.047 -0.5654 -2.2943 -2.7846
  769MOL0     H 3755  10.727   5.420   9.000 -1.5460  0.2619  1.0669
  769MOL0     H 3756  10.869   5.167   8.942  0.2893 -0.3329  0.3613
  769MOL0     H 3757  10.716   5.115   8.899  4.0241 -2.4829 -1.2229
  769MOL0     H 3758  10.847   5.360   8.770  1.9830 -0.6830  2.1938
  769MOL0     H 3759  10.828   5.201   8.704  0.7713  2.7409 -1.5127
  769MOL0     H 3760  10.590   5.392   8.777 -0.5720  1.9768 -2.0356
  769MOL0     H 3761  10.635   5.335   8.612 -2.7232 -1.9120  0.0226
  769MOL0     H 3762  10.594   5.106   8.693 -2.1072  0.1291 -0.5044
  769MOL0     H 3763  10.474   5.185   8.809 -3.1383 -1.6613 -0.9283
  769MOL0     H 3764  10.375   5.136   8.595  2.0989  0.5733  1.1755
  769MOL0     H 3765  10.498   5.209   8.496  1.9777  1.2145  0.4819
  769MOL0     H 3766  10.269   5.337   8.786  3.2262  3.9671  2.4206
  769MOL0     H 3767  10.224   5.612   8.831  2.1982 -0.2383 -0.5674
  769MOL0     H 3768  10.154   5.692   8.688 -0.3682  1.4201  2.6259
  769MOL0     H 3769   9.970   5.619   8.794  0.1958  0.0641  0.5423
  769MOL0     H 3770  10.023   5.457   8.844 -2.2936  1.7673  0.8346
  769MOL0     H 3771   9.954   5.351   8.671 -0.9296  0.5416 -0.8861
  769MOL0     H 3772  10.028   5.466   8.551 -2.9012  0.4373 -2.3249
  769MOL0     H 3773   9.843   5.614   8.607  0.6558 -0.2447 -0.0514
  769MOL0     H 3774   9.751   5.483   8.665  0.6902  0.7408  2.6846
  769MOL0     H 3775   9.838   5.422   8.187 -2.5555 -0.4393 -0.7366
  769MOL0     H 3776   9.690   5.567   7.920  0.1610 -3.6969 -0.6659
  769MOL0     H 3777   9.860   5.628   7.945  2.0061 -0.4576  1.3329
  769MOL0     H 3778   9.815   5.459   7.984 -6.8013 -2.3247  1.7768
  769MOL0     H 3779   9.360   5.935   7.988 -3.4912  0.6878 -0.2274
  769MOL0     H 3780   9.242   6.047   7.794 -0.5902 -0.8702 -0.4891
  769MOL0     H 3781   9.343   5.971   7.384 -0.2112  2.0041 -3.0068
  769MOL0     H 3782   9.182   6.024   7.376 -1.2352 -0.3285 -2.5093
  769MOL0     H 3783   9.441   6.186   7.358  0.7718 -0.7477 -0.3086
  769MOL0     H 3784   9.296   6.175   7.248  1.0452  0.4298 -0.7490
  769MOL0     H 3785   9.342   6.381   7.395 -0.4756 -0.6195 -2.0618
  769MOL0     H 3786   9.231   6.287   7.505 -1.1970 -0.6114 -1.8274
  769MOL0     H 3787   9.178   6.380   7.227 -0.9907  1.9639  0.3947
  769MOL0     H 3788   9.074   6.267   7.306  0.0194  0.6440 -1.6366
  769MOL0     H 3789   9.120   6.511   7.457 -0.1633  1.1995 -0.9757
  769MOL0     H 3790   8.969   6.426   7.426 -1.0794 -0.4025 -2.6419
  769MOL0     H 3791   9.116   6.605   7.239  0.4311 -2.2635 -0.7885
  769MOL0     H 3792   8.973   6.531   7.185 -0.0365 -0.0368 -0.5804
  769MOL0     H 3793   8.850   6.618   7.402  2.9292 -1.3417  2.8370
  769MOL0     H 3794   8.884   6.729   7.249  1.6465  0.4783 -1.0834
  769MOL0     H 3795   9.009   6.733   7.513 -0.6683  2.0449  0.7849
  769MOL0     H 3796   8.903   6.855   7.444 -1.2545 -1.3711  2.5297
  769MOL0     H 3797   9.554   5.942   7.518 -1.7328 -0.4437 -1.5488
  769MOL0     H 3798   9.653   5.814   7.685  0.5500  1.4195 -0.3316
  769MOL0     H 3799   9.594   5.825   8.337 -2.2900 -1.8768  1.9849
  769MOL0     H 3800   9.663   5.660   8.495 -2.3291 -1.8736  0.2150
  769MOL0     H 3801  10.631   5.489   9.495  1.4649 -2.0878 -0.4967
  769MOL0     H 3802  10.643   5.639   9.681 -0.1179  0.4434 -0.3735
  769MOL0     H 3803  10.898   6.253   9.743  3.1640 -0.9972 -0.0676
  769MOL0     H 3804  10.928   6.369   9.965  0.1514  0.7908 -0.1381
  769MOL0     H 3805  10.835   6.315  10.363  0.4791  0.1401  1.2772
  769MOL0     H 3806  10.855   6.151  10.317 -0.4931  1.8507 -0.1029
  769MOL0     H 3807  11.078   6.343  10.404 -1.5050  0.6532  0.7940
  769MOL0     H 3808  11.109   6.171  10.362 -1.1810  0.2359 -1.8371
  769MOL0     H 3809  10.914   6.248  10.589 -0.5867  2.9589 -0.7407
  769MOL0     H 3810  11.091   6.270  10.605 -1.7062 -0.0482  3.1577
  769MOL0     H 3811  10.984   6.056  10.699 -1.2212 -0.8859 -0.4598
  769MOL0     H 3812  11.128   6.036  10.612 -1.0621  0.6747  2.1806
  769MOL0     H 3813  10.857   5.808  10.382 -1.8389  1.7203 -1.0291
  769MOL0     H 3814  10.911   5.996  10.166  3.1418  0.2115  0.8795
  769MOL0     H 3815  10.901   5.883   9.963  2.3825  0.5290  1.6808
  770MOL0     O 3816   9.354   8.477   4.947  0.4880 -0.4785  0.3790
  770MOL0     C 3817   9.387   8.387   5.015  0.3723 -0.1919  1.2410
  770MOL0     O 3818   9.481   8.296   4.983 -0.8085  0.2163  0.6344
  770MOL0     C 3819   9.553   8.321   4.870  0.2456  0.0366  0.9217
  770MOL0     C 3820   9.545   8.233   4.754 -0.9255  0.4278  0.0666
  770MOL0     C 3821   9.639   8.244   4.652 -0.3027  0.6476  0.1499
  770MOL0     C 3822   9.742   8.341   4.653 -0.5474 -0.1943 -0.0933
  770MOL0     O 3823   9.833   8.337   4.553  0.8557 -1.3566  0.3452
  770MOL0     C 3824   9.964   8.292   4.601 -0.0403  0.7141 -0.1327
  770MOL0     C 3825  10.067   8.402   4.612  0.5954 -0.7273  0.2201
  770MOL0     C 3826  10.078   8.491   4.486  0.3368  0.3996 -0.0383
  770MOL0     C 3827  10.152   8.420   4.383  0.4964  0.1568  0.4883
  770MOL0     C 3828  10.217   8.510   4.278  0.1525 -1.1008  0.2628
  770MOL0     C 3829  10.120   8.586   4.184  0.6507  0.8321  0.5333
  770MOL0     C 3830  10.029   8.493   4.096  0.3743  0.0925 -0.2246
  770MOL0     C 3831   9.950   8.587   4.011 -0.2224  0.2982 -0.4243
  770MOL0     N 3832   9.887   8.513   3.909  0.6804 -0.0031  1.4414
  770MOL0     C 3833   9.791   8.418   3.930  0.0816 -0.1417  0.7660
  770MOL0     C 3834   9.779   8.357   3.807  0.9877 -0.9501 -0.3989
  770MOL0     C 3835   9.672   8.252   3.788  0.4181 -1.7531  0.2945
  770MOL0     C 3836   9.575   8.324   3.695  1.5642  0.3800  0.1371
  770MOL0     C 3837   9.544   8.235   3.572  0.1566  0.0247  1.2115
  770MOL0     C 3838   9.488   8.099   3.592  0.4615 -0.2826 -1.0000
  770MOL0     O 3839   9.366   8.086   3.664 -0.3464 -0.2873  0.2166
  770MOL0     C 3840   9.264   8.138   3.596 -1.1132 -0.0566  0.1519
  770MOL0     C 3841   9.186   8.047   3.511 -0.6943  0.2435  0.3086
  770MOL0     C 3842   9.068   8.088   3.450 -0.1627  0.1824  0.0297
  770MOL0     C 3843   9.018   7.988   3.355  0.7308  0.1336  0.1649
  770MOL0     C 3844   9.008   8.217   3.488 -0.5997  0.4021 -0.3920
  770MOL0     C 3845   8.878   8.264   3.431  1.2033  0.1018  0.5457
  770MOL0     O 3846   8.854   8.401   3.429 -0.4518 -0.3415 -0.1530
  770MOL0     C 3847   8.730   8.464   3.416  0.0488 -1.1372  0.0883
  770MOL0     C 3848   8.738   8.591   3.360  0.1090 -0.1089 -0.0791
  770MOL0     C 3849   8.620   8.668   3.341 -0.0508  0.0749  0.1251
  770MOL0     C 3850   8.498   8.612   3.379 -0.6054  0.7244 -0.2253
  770MOL0     O 3851   8.390   8.684   3.352  0.3308 -0.5866 -0.2855
  770MOL0     C 3852   8.330   8.750   3.462 -0.3194 -0.5364  0.9541
  770MOL0     C 3853   8.223   8.854   3.414 -0.6158 -0.2418 -1.2612
  770MOL0     C 3854   8.107   8.791   3.337 -0.7490 -0.0409  0.4843
  770MOL0     C 3855   8.002   8.905   3.280 -0.3655  0.1096 -0.9564
  770MOL0     C 3856   7.895   8.830   3.213 -0.2746  0.1152 -0.7796
  770MOL0     C 3857   7.767   8.922   3.205  1.0762 -0.1470  0.3860
  770MOL0     C 3858   7.679   8.867   3.097  1.2078  0.8943  0.4654
  770MOL0     C 3859   7.544   8.929   3.102 -0.3850 -0.0685  0.1325
  770MOL0    Cl 3860   7.441   8.836   2.985  0.1436  0.1843 -0.2238
  770MOL0     C 3861   8.487   8.483   3.435 -0.8599  0.0355  0.8224
  770MOL0     C 3862   8.605   8.413   3.446  0.2662  0.2158  0.1586
  770MOL0     O 3863   8.792   8.179   3.400 -0.2957  0.3941  0.1213
  770MOL0     C 3864   9.089   8.302   3.565 -0.0859  0.5000 -0.3507
  770MOL0     C 3865   9.207   8.263   3.620  0.5031 -0.0437 -0.3671
  770MOL0     N 3866   9.860   8.428   3.714 -0.0070  0.0569  0.1600
  770MOL0     N 3867   9.922   8.516   3.780 -0.8754  0.0260 -0.6638
  770MOL0     C 3868   9.746   8.429   4.759  0.3380 -0.8848 -0.6294
  770MOL0     C 3869   9.660   8.417   4.869 -0.5770 -0.2998 -0.1098
  770MOL0     C 3870   9.294   8.360   5.128  0.0489  0.2409  0.3038
  770MOL0     C 3871   9.185   8.448   5.153 -0.3074 -0.7864  1.0386
  770MOL0     C 3872   9.102   8.420   5.256 -0.1212 -0.2711  0.2888
  770MOL0     C 3873   9.120   8.308   5.339  0.2093 -0.8471 -0.1038
  770MOL0     O 3874   9.030   8.290   5.436  0.0747  0.1055 -0.6550
  770MOL0     C 3875   9.045   8.183   5.530  0.7581 -0.2533  0.9727
  770MOL0     C 3876   8.931   8.189   5.643 -0.3249  0.2033  0.3139
  770MOL0     C 3877   8.940   8.323   5.723  0.2388 -0.1827  0.3720
  770MOL0     C 3878   9.049   8.344   5.834 -0.0277  0.7681  0.0797
  770MOL0     C 3879   9.022   8.242   5.936 -0.1173 -0.3629  0.1467
  770MOL0     C 3880   8.971   8.162   6.018  1.2527 -1.1475  0.5734
  770MOL0     C 3881   9.220   8.220   5.306 -0.2639  1.1927  0.0310
  770MOL0     C 3882   9.310   8.247   5.201  0.4278  0.6210  0.1793
  770MOL0     H 3883   9.479   8.146   4.753 -1.9686  1.2004 -0.4036
  770MOL0     H 3884   9.618   8.177   4.570  0.7970 -1.0690  1.2017
  770MOL0     H 3885   9.956   8.229   4.690 -1.5375 -1.1862 -1.5098
  770MOL0     H 3886  10.010   8.221   4.531  3.2573  0.0418  2.5014
  770MOL0     H 3887  10.026   8.473   4.684 -0.4304 -2.5811  1.5476
  770MOL0     H 3888  10.167   8.373   4.645 -0.7318 -2.4357  3.0860
  770MOL0     H 3889   9.988   8.532   4.439  1.6175  1.4950 -1.6846
  770MOL0     H 3890  10.134   8.575   4.528  1.6747  0.4197 -1.7385
  770MOL0     H 3891  10.240   8.369   4.423  1.5435  1.5702  0.0869
  770MOL0     H 3892  10.088   8.353   4.324 -1.0199  3.2020 -1.6035
  770MOL0     H 3893  10.296   8.569   4.327  1.8676  0.6689 -4.1056
  770MOL0     H 3894  10.286   8.448   4.220 -1.3631 -3.3602  0.7744
  770MOL0     H 3895  10.055   8.660   4.232  0.9157  2.2439 -1.1659
  770MOL0     H 3896  10.184   8.638   4.112  1.0224 -0.0447  0.2273
  770MOL0     H 3897  10.087   8.421   4.038  1.8311 -0.5973  1.9648
  770MOL0     H 3898   9.959   8.435   4.158 -1.7654  1.0103 -1.6643
  770MOL0     H 3899  10.006   8.670   3.968 -0.9300  1.4545  0.8019
  770MOL0     H 3900   9.879   8.633   4.081 -0.1649 -0.5723  0.2225
  770MOL0     H 3901   9.746   8.390   4.025 -0.6399  1.5725  0.9674
  770MOL0     H 3902   9.716   8.161   3.743  4.6830  0.7464 -1.1755
  770MOL0     H 3903   9.628   8.214   3.881 -0.2300  0.3004  0.8584
  770MOL0     H 3904   9.604   8.423   3.659  0.8085  1.3313  2.0017
  770MOL0     H 3905   9.471   8.337   3.725  0.7693  1.3666 -2.6961
  770MOL0     H 3906   9.634   8.228   3.510  0.8374  1.9385  1.9062
  770MOL0     H 3907   9.483   8.300   3.509  0.9407  0.1360  0.5436
  770MOL0     H 3908   9.555   8.057   3.668 -0.0402  1.5078  0.5149
  770MOL0     H 3909   9.488   8.029   3.508 -0.6815 -1.6895  0.1094
  770MOL0     H 3910   9.225   7.947   3.502  0.2348  0.7349 -1.9202
  770MOL0     H 3911   8.975   8.035   3.266 -0.3745 -1.8877 -0.4228
  770MOL0     H 3912   9.097   7.920   3.322  0.0355  1.6032 -5.4400
  770MOL0     H 3913   8.937   7.936   3.407  0.3845 -1.1852 -1.6258
  770MOL0     H 3914   8.838   8.630   3.345 -0.2170  0.4130 -0.9943
  770MOL0     H 3915   8.631   8.769   3.301  3.0653  1.5474  4.0978
  770MOL0     H 3916   8.289   8.684   3.539 -2.1943 -0.9269 -0.3067
  770MOL0     H 3917   8.411   8.802   3.514  2.1943 -1.5992 -1.6230
  770MOL0     H 3918   8.187   8.906   3.503 -0.0409 -2.2793  0.2593
  770MOL0     H 3919   8.262   8.932   3.348 -2.3080  0.4012 -1.5439
  770MOL0     H 3920   8.058   8.714   3.398 -0.7061 -1.4399 -1.1808
  770MOL0     H 3921   8.140   8.737   3.248 -0.5978 -0.6276  0.8870
  770MOL0     H 3922   7.956   8.949   3.368 -1.8378 -0.5517 -1.3624
  770MOL0     H 3923   8.052   8.979   3.217 -1.2240  1.4805 -0.0921
  770MOL0     H 3924   7.871   8.741   3.272  0.7657  1.4313  1.7577
  770MOL0     H 3925   7.930   8.792   3.116 -1.4776  0.6278 -1.4307
  770MOL0     H 3926   7.710   8.920   3.299  0.2136  3.4790  0.1025
  770MOL0     H 3927   7.788   9.029   3.199 -3.1851  1.2555  4.3952
  770MOL0     H 3928   7.667   8.760   3.114 -1.1166  1.3548  2.3706
  770MOL0     H 3929   7.710   8.884   2.993 -0.6321 -1.0986 -0.4869
  770MOL0     H 3930   7.545   9.028   3.056  0.6630 -0.4810 -0.7773
  770MOL0     H 3931   7.511   8.928   3.206  0.6770 -2.9457  0.5311
  770MOL0     H 3932   8.393   8.434   3.460 -0.5348 -0.4283  1.1461
  770MOL0     H 3933   8.588   8.313   3.486  1.4917  0.5365  1.5586
  770MOL0     H 3934   9.053   8.402   3.589  1.3893  0.7151  1.1195
  770MOL0     H 3935   9.260   8.325   3.692  2.1223 -2.5033  0.6937
  770MOL0     H 3936   9.816   8.512   4.762  2.0915 -2.2908 -1.0492
  770MOL0     H 3937   9.642   8.489   4.948  0.0807  0.5640 -0.7383
  770MOL0     H 3938   9.176   8.541   5.097 -2.7976  0.0489  2.6557
  770MOL0     H 3939   9.019   8.483   5.286  0.7395  0.0728  2.0527
  770MOL0     H 3940   9.049   8.084   5.483  3.0322 -0.0428  0.6147
  770MOL0     H 3941   9.133   8.189   5.593 -0.9965 -0.6499  3.6322
  770MOL0     H 3942   8.941   8.098   5.703 -0.1372  0.5910  0.8827
  770MOL0     H 3943   8.832   8.188   5.596 -0.1434 -1.7146 -0.1035
  770MOL0     H 3944   8.839   8.336   5.763 -0.8240 -0.8389 -1.9394
  770MOL0     H 3945   8.942   8.406   5.651 -2.2902 -0.5065 -0.1917
  770MOL0     H 3946   9.044   8.439   5.889  1.4312  0.0547  1.5489
  770MOL0     H 3947   9.151   8.329   5.797  1.7999  2.7311  3.7737
  770MOL0     H 3948   8.932   8.092   6.089  0.5206 -2.0179 -0.6466
  770MOL0     H 3949   9.235   8.136   5.373 -2.3439  1.6753  1.1950
  770MOL0     H 3950   9.398   8.186   5.182 -1.2173 -1.0645 -2.6460
  771MOL0     O 3951  10.618   4.603   9.080 -1.1452  0.2126 -0.6005
  771MOL0     C 3952  10.671   4.556   8.982 -0.6342  0.3656  0.3655
  771MOL0     O 3953  10.732   4.436   8.974  0.3409  0.7299 -0.8725
  771MOL0     C 3954  10.751   4.367   9.088 -0.7707  0.6961 -0.8499
  771MOL0     C 3955  10.864   4.375   9.164 -1.0914  0.1853 -0.4548
  771MOL0     C 3956  10.883   4.298   9.281 -0.3479  0.1302 -0.0753
  771MOL0     C 3957  10.785   4.209   9.326 -0.0969  0.5713  0.7664
  771MOL0     O 3958  10.786   4.143   9.445  0.2772 -0.1561 -0.0606
  771MOL0     C 3959  10.876   4.171   9.549 -0.5021  0.0692  0.1869
  771MOL0     C 3960  10.830   4.100   9.678 -0.2657  0.0348  0.6127
  771MOL0     C 3961  10.783   3.954   9.650 -0.5740  0.1251 -0.3304
  771MOL0     C 3962  10.729   3.883   9.782  0.6427  0.3397 -0.0445
  771MOL0     C 3963  10.611   3.961   9.857 -0.0282 -0.1099  0.8340
  771MOL0     C 3964  10.469   3.971   9.781  0.6197 -0.8009  0.4388
  771MOL0     C 3965  10.428   3.834   9.713 -0.1668  0.2373  0.2219
  771MOL0     C 3966  10.290   3.848   9.648 -0.3935 -0.2993 -0.5967
  771MOL0     N 3967  10.293   3.760   9.536  0.4087 -1.2257  0.9410
  771MOL0     C 3968  10.290   3.626   9.539 -0.5324 -0.0730  0.3702
  771MOL0     C 3969  10.279   3.591   9.403  0.4689 -0.4787 -0.4761
  771MOL0     C 3970  10.262   3.452   9.344  0.0261  0.7639 -0.8280
  771MOL0     C 3971  10.399   3.369   9.318  0.9873  0.6362  0.0046
  771MOL0     C 3972  10.465   3.300   9.430 -0.0606 -0.2987 -0.3337
  771MOL0     C 3973  10.586   3.220   9.388  0.3354  0.3151  0.0745
  771MOL0     O 3974  10.682   3.302   9.324  0.8312 -0.1053  0.0380
  771MOL0     C 3975  10.796   3.230   9.280  0.0492 -0.2274 -0.3426
  771MOL0     C 3976  10.834   3.093   9.310  0.0044 -0.2209  0.0344
  771MOL0     C 3977  10.952   3.035   9.258  0.4900 -0.2263  0.8015
  771MOL0     C 3978  10.998   2.909   9.310 -0.1873  0.1136  0.3662
  771MOL0     C 3979  11.035   3.113   9.172 -0.1601  0.1308 -0.1283
  771MOL0     C 3980  11.171   3.071   9.115  0.3267  0.4369  0.6437
  771MOL0     O 3981  11.235   3.167   9.024 -0.3952  0.4498 -0.8863
  771MOL0     C 3982  11.379   3.162   9.021  0.2143  0.5395 -0.8813
  771MOL0     C 3983  11.439   3.044   8.960 -0.3303  0.3730 -0.0330
  771MOL0     C 3984  11.575   3.018   8.978 -0.5232 -0.3274  0.4208
  771MOL0     C 3985  11.662   3.113   9.032 -0.5625 -0.4269 -1.3502
  771MOL0     O 3986  11.798   3.089   9.032  0.4899 -0.8726 -0.3133
  771MOL0     C 3987  11.885   3.160   9.120 -0.4409 -0.2680 -1.1537
  771MOL0     C 3988  12.032   3.109   9.089 -0.1196 -0.1060 -0.2986
  771MOL0     C 3989  12.147   3.162   9.177  0.5071  0.2847  0.1007
  771MOL0     C 3990  12.272   3.079   9.142  0.7530  0.7421  0.1456
  771MOL0     C 3991  12.369   3.063   9.266  0.1179  0.1551  0.0823
  771MOL0     C 3992  12.507   3.025   9.208 -1.7307  0.3848  0.9913
  771MOL0     C 3993  12.610   3.003   9.322 -0.3371  0.6482 -0.0027
  771MOL0     C 3994  12.743   2.943   9.278 -0.2097  0.0824 -0.8251
  771MOL0    Cl 3995  12.867   2.980   9.391  0.0202  0.1707 -0.1331
  771MOL0     C 3996  11.602   3.241   9.087 -0.2055  0.2132 -0.0914
  771MOL0     C 3997  11.457   3.259   9.087  0.8104 -0.0293  0.9538
  771MOL0     O 3998  11.214   2.961   9.130  0.1106 -0.9348  0.3621
  771MOL0     C 3999  10.994   3.248   9.142  0.9057 -0.0492  0.3997
  771MOL0     C 4000  10.874   3.294   9.184 -0.1185 -0.1112  0.0795
  771MOL0     N 4001  10.264   3.711   9.330  0.1008 -0.0336  0.0986
  771MOL0     N 4002  10.259   3.807   9.412  1.3893  0.0508 -0.1110
  771MOL0     C 4003  10.667   4.197   9.249 -0.3524  0.8756  0.3741
  771MOL0     C 4004  10.655   4.279   9.137  0.1674  0.3458 -0.3758
  771MOL0     C 4005  10.677   4.621   8.845  1.1083 -0.4197  0.1971
  771MOL0     C 4006  10.704   4.555   8.721  0.5174 -0.0600 -0.8392
  771MOL0     C 4007  10.679   4.601   8.590 -0.6109  0.2957  1.2063
  771MOL0     C 4008  10.632   4.727   8.574 -1.5541 -0.1101  0.1583
  771MOL0     O 4009  10.571   4.773   8.458 -0.7424 -0.2343 -0.4323
  771MOL0     C 4010  10.648   4.768   8.336  0.2948  0.9867 -0.5202
  771MOL0     C 4011  10.747   4.887   8.333 -0.9926 -0.2203  1.1141
  771MOL0     C 4012  10.815   4.880   8.196 -0.6916 -0.7402  0.3907
  771MOL0     C 4013  10.897   4.758   8.180  0.4836 -0.8434 -0.0477
  771MOL0     C 4014  10.986   4.757   8.071  0.7984 -0.5775  0.6389
  771MOL0     C 4015  11.061   4.752   7.981  0.4475  0.5729  0.5856
  771MOL0     C 4016  10.610   4.808   8.683 -0.6059 -0.4892  0.6902
  771MOL0     C 4017  10.618   4.749   8.817  0.8067  0.1385 -0.2412
  771MOL0     H 4018  10.948   4.438   9.137 -0.1900  0.2901  2.2283
  771MOL0     H 4019  10.962   4.339   9.344 -1.9153  2.1693  0.6846
  771MOL0     H 4020  10.983   4.157   9.533 -0.6013  1.3156 -1.9443
  771MOL0     H 4021  10.859   4.278   9.564  0.7466  0.7874 -2.8718
  771MOL0     H 4022  10.907   4.097   9.756  4.3654 -0.9006 -3.4661
  771MOL0     H 4023  10.749   4.161   9.718  0.3661  1.7277 -0.5492
  771MOL0     H 4024  10.705   3.959   9.574  0.0390 -2.3917 -1.2470
  771MOL0     H 4025  10.868   3.897   9.610 -2.6327 -3.2936 -0.1973
  771MOL0     H 4026  10.683   3.786   9.763 -1.3192  1.4770 -1.4632
  771MOL0     H 4027  10.818   3.875   9.845  1.7534  1.5426 -1.3875
  771MOL0     H 4028  10.601   3.899   9.946  0.6228 -0.3963  0.7193
  771MOL0     H 4029  10.642   4.064   9.877  1.9533  0.4769 -3.9552
  771MOL0     H 4030  10.393   3.993   9.856 -0.9160  0.3935 -1.3800
  771MOL0     H 4031  10.462   4.053   9.709 -1.3555  0.2402  1.7330
  771MOL0     H 4032  10.503   3.811   9.636 -0.2025  1.5316 -0.2261
  771MOL0     H 4033  10.428   3.766   9.799  2.6965  1.2997  1.1891
  771MOL0     H 4034  10.269   3.946   9.604  2.3920 -0.7693 -3.2837
  771MOL0     H 4035  10.228   3.819   9.733  0.0848  1.2927  0.3426
  771MOL0     H 4036  10.294   3.554   9.619 -0.3884  1.2217  1.5731
  771MOL0     H 4037  10.193   3.384   9.395 -0.1064 -0.2799 -2.3283
  771MOL0     H 4038  10.209   3.473   9.251 -2.6068  1.4573  0.7100
  771MOL0     H 4039  10.463   3.444   9.269 -0.0557 -0.9391 -4.2308
  771MOL0     H 4040  10.388   3.295   9.238  1.5581  0.6384 -0.0841
  771MOL0     H 4041  10.389   3.237   9.477 -3.0482  1.8603 -1.9384
  771MOL0     H 4042  10.478   3.381   9.502 -1.1109 -0.8004  0.4448
  771MOL0     H 4043  10.556   3.131   9.332  1.1689  0.4114 -0.5438
  771MOL0     H 4044  10.621   3.169   9.478 -2.0800 -2.4352 -0.3861
  771MOL0     H 4045  10.787   3.036   9.390 -2.0127 -1.7264 -2.0864
  771MOL0     H 4046  11.004   2.832   9.231  1.1987 -1.7256  2.1525
  771MOL0     H 4047  11.102   2.909   9.341 -0.3993 -2.1150  1.2746
  771MOL0     H 4048  10.926   2.873   9.384 -0.4239 -1.0349 -0.3865
  771MOL0     H 4049  11.383   2.973   8.901 -1.9728 -0.8275  2.7433
  771MOL0     H 4050  11.635   2.940   8.932  2.1417  2.9558 -2.2159
  771MOL0     H 4051  11.887   3.267   9.100 -0.5004 -0.4058 -1.9193
  771MOL0     H 4052  11.858   3.141   9.224 -1.0590 -2.5988 -1.6740
  771MOL0     H 4053  12.022   3.001   9.104  0.8592 -0.1051  0.4882
  771MOL0     H 4054  12.051   3.144   8.988 -0.8877 -1.3255 -0.8810
  771MOL0     H 4055  12.101   3.150   9.276 -0.5172  0.1873 -0.3780
  771MOL0     H 4056  12.174   3.264   9.150 -1.1692  0.4130 -1.2472
  771MOL0     H 4057  12.234   2.977   9.130 -0.6245  1.1784  0.5329
  771MOL0     H 4058  12.316   3.120   9.050 -3.6869 -2.2147 -3.7809
  771MOL0     H 4059  12.331   2.983   9.331  3.2525 -1.8800 -0.3767
  771MOL0     H 4060  12.373   3.156   9.323 -1.0391  0.8553 -0.9405
  771MOL0     H 4061  12.498   2.938   9.143  0.1866  1.0179 -0.1888
  771MOL0     H 4062  12.537   3.107   9.142  1.9209 -1.1544  0.4815
  771MOL0     H 4063  12.558   2.938   9.393 -2.7295  1.5275 -0.8387
  771MOL0     H 4064  12.627   3.104   9.360  0.5179  0.6988 -0.4978
  771MOL0     H 4065  12.769   2.986   9.181  0.4204  0.0851 -0.6566
  771MOL0     H 4066  12.740   2.834   9.265 -0.4770  0.0152 -0.2051
  771MOL0     H 4067  11.674   3.307   9.135  0.8509 -1.1915  0.3166
  771MOL0     H 4068  11.408   3.348   9.126  1.3973  0.2019  1.1867
  771MOL0     H 4069  11.047   3.301   9.064  0.2037  0.3526  0.1979
  771MOL0     H 4070  10.831   3.388   9.149  1.2836 -0.6136 -3.4561
  771MOL0     H 4071  10.601   4.115   9.273  1.3783 -0.5096  0.6491
  771MOL0     H 4072  10.564   4.291   9.079  0.9200  0.0176 -1.6630
  771MOL0     H 4073  10.730   4.451   8.734  0.2603 -0.3835 -2.6697
  771MOL0     H 4074  10.680   4.535   8.504 -0.3580  2.8073 -0.8371
  771MOL0     H 4075  10.708   4.677   8.331 -0.6125  0.3649 -0.4027
  771MOL0     H 4076  10.582   4.763   8.248  1.8685  0.8628 -1.7343
  771MOL0     H 4077  10.814   4.877   8.419 -0.0604  0.9289  0.5663
  771MOL0     H 4078  10.682   4.975   8.336  0.9719  1.4868 -1.4461
  771MOL0     H 4079  10.877   4.970   8.188  1.9900 -2.2409  2.6346
  771MOL0     H 4080  10.743   4.887   8.113  0.5386  3.5107 -0.5917
  771MOL0     H 4081  10.829   4.674   8.165  0.0756 -0.0891 -3.2905
  771MOL0     H 4082  10.946   4.745   8.277 -3.8403 -3.1988  2.1132
  771MOL0     H 4083  11.133   4.744   7.902 -1.7690  0.4751 -1.5703
  771MOL0     H 4084  10.556   4.899   8.661 -0.8231 -0.7425  0.1479
  771MOL0     H 4085  10.579   4.797   8.906 -2.3100 -4.1359  0.9740
  772MOL0     O 4086   5.632   3.174   6.478 -0.2511  0.2462 -0.3639
  772MOL0     C 4087   5.661   3.084   6.553  0.0503 -1.0084  0.5149
  772MOL0     O 4088   5.581   2.975   6.573 -0.1393 -0.7372 -0.0569
  772MOL0     C 4089   5.453   2.959   6.531 -0.2463  0.2725 -0.2571
  772MOL0     C 4090   5.407   2.833   6.494 -1.6772 -1.0236 -0.1826
  772MOL0     C 4091   5.288   2.815   6.435 -0.2478  0.0208 -1.3176
  772MOL0     C 4092   5.195   2.921   6.428  0.5348  0.2572 -0.4079
  772MOL0     O 4093   5.075   2.913   6.358 -0.2447  0.0946 -1.6044
  772MOL0     C 4094   5.000   2.796   6.369  0.3589 -0.2726 -0.9546
  772MOL0     C 4095   4.854   2.832   6.343  0.4927 -0.4214  0.2102
  772MOL0     C 4096   4.781   2.855   6.476  0.1628 -0.0550  0.5930
  772MOL0     C 4097   4.643   2.922   6.468 -0.4749 -0.1970 -0.7023
  772MOL0     C 4098   4.567   2.929   6.598 -0.2565  0.0545 -0.2958
  772MOL0     C 4099   4.433   3.003   6.576  0.3833  0.4124 -0.3803
  772MOL0     C 4100   4.333   2.946   6.464  0.7502 -0.1240  0.2468
  772MOL0     C 4101   4.276   2.808   6.494  1.0760  0.5762  0.8450
  772MOL0     N 4102   4.189   2.773   6.378  1.0388 -0.8463 -0.1971
  772MOL0     C 4103   4.233   2.717   6.266 -0.1879 -1.0724  0.1115
  772MOL0     C 4104   4.131   2.731   6.179  0.0866  0.0165  0.9283
  772MOL0     C 4105   4.140   2.676   6.038  0.2628  0.0322 -1.0059
  772MOL0     C 4106   4.064   2.547   6.017  0.0887  0.8369  0.7690
  772MOL0     C 4107   3.916   2.539   6.061 -1.6462  1.0016  0.9806
  772MOL0     C 4108   3.866   2.398   6.041  0.1874  1.3405  0.3976
  772MOL0     O 4109   3.930   2.304   6.136  0.6502  0.0710  0.4318
  772MOL0     C 4110   3.928   2.170   6.091 -0.8889  0.0741 -0.1852
  772MOL0     C 4111   3.841   2.072   6.135  0.3406 -0.1414  0.4283
  772MOL0     C 4112   3.845   1.935   6.083 -0.6625 -0.5909 -0.4074
  772MOL0     C 4113   3.736   1.839   6.136 -0.3474 -0.6834  0.2442
  772MOL0     C 4114   3.938   1.905   5.981  1.0056 -0.0506  0.6299
  772MOL0     C 4115   3.957   1.767   5.925 -0.0585 -0.5746 -0.8207
  772MOL0     O 4116   4.038   1.754   5.807  0.8756  1.2835 -0.8743
  772MOL0     C 4117   4.083   1.622   5.793  1.0559 -0.2350 -0.2611
  772MOL0     C 4118   4.021   1.561   5.688 -0.4703  0.0407  0.4231
  772MOL0     C 4119   4.028   1.424   5.672  0.0978  0.0747  0.2580
  772MOL0     C 4120   4.107   1.351   5.755  0.0050  0.1989 -0.5470
  772MOL0     O 4121   4.099   1.217   5.731  0.6172  0.4785 -0.4493
  772MOL0     C 4122   4.197   1.117   5.779 -0.5858  0.4474  0.2734
  772MOL0     C 4123   4.108   0.994   5.789  0.1350  0.2894  0.3247
  772MOL0     C 4124   4.176   0.856   5.830 -0.0585  0.3029 -0.6244
  772MOL0     C 4125   4.240   0.873   5.967  0.3035  0.2318 -1.3196
  772MOL0     C 4126   4.298   0.741   6.020 -0.2135  0.5970  0.4854
  772MOL0     C 4127   4.196   0.639   6.058  0.4544  1.0823 -0.5590
  772MOL0     C 4128   4.260   0.531   6.158  0.3372  0.2658  1.1803
  772MOL0     C 4129   4.380   0.460   6.088 -0.2837  0.1919 -0.5963
  772MOL0    Cl 4130   4.475   0.362   6.215 -0.0816  0.3056 -0.2366
  772MOL0     C 4131   4.176   1.403   5.865 -0.1427 -0.2461  0.1596
  772MOL0     C 4132   4.156   1.542   5.887  0.1620  0.0598 -0.2060
  772MOL0     O 4133   3.907   1.671   5.985  0.3526 -0.4846 -0.0788
  772MOL0     C 4134   4.031   2.005   5.944  0.6405 -0.0171  0.3938
  772MOL0     C 4135   4.022   2.137   5.989 -0.0495  1.7243 -0.6833
  772MOL0     N 4136   4.024   2.797   6.238  0.5019 -0.5084 -0.3851
  772MOL0     N 4137   4.058   2.818   6.365 -0.2943 -0.0964  0.0232
  772MOL0     C 4138   5.230   3.045   6.477 -0.4555 -0.6862  0.6265
  772MOL0     C 4139   5.357   3.059   6.527 -0.3064 -0.9936 -0.9924
  772MOL0     C 4140   5.798   3.097   6.624  0.2012  0.2664  0.6701
  772MOL0     C 4141   5.841   3.002   6.714  0.5734 -0.3120 -1.0316
  772MOL0     C 4142   5.960   3.024   6.788 -0.6766 -0.1511 -0.6074
  772MOL0     C 4143   6.029   3.147   6.785  0.3694 -0.7132  0.2259
  772MOL0     O 4144   6.139   3.156   6.861 -0.3528 -0.4806  0.2398
  772MOL0     C 4145   6.243   3.255   6.833 -1.0989  0.3944  0.4762
  772MOL0     C 4146   6.376   3.192   6.833 -0.2238 -0.2500 -0.2192
  772MOL0     C 4147   6.408   3.114   6.703  1.0751 -0.0061 -0.2239
  772MOL0     C 4148   6.335   2.977   6.701 -0.1762  0.0222 -0.8531
  772MOL0     C 4149   6.402   2.876   6.620 -0.4133 -0.8112 -0.5431
  772MOL0     C 4150   6.430   2.785   6.552  0.2154  1.4649  0.3056
  772MOL0     C 4151   5.981   3.243   6.694 -0.9260  0.1898  0.5217
  772MOL0     C 4152   5.871   3.212   6.612  0.0440  0.2595  0.4316
  772MOL0     H 4153   5.480   2.753   6.481  0.9022  1.1177  0.1208
  772MOL0     H 4154   5.268   2.714   6.401 -0.4027 -0.6849  0.7170
  772MOL0     H 4155   5.034   2.728   6.290 -1.8029  2.5461 -4.7057
  772MOL0     H 4156   5.007   2.763   6.472  3.5803  1.7713 -0.3326
  772MOL0     H 4157   4.846   2.925   6.287 -1.3945  0.2478  1.5047
  772MOL0     H 4158   4.814   2.755   6.276 -0.7165  1.5383 -1.4369
  772MOL0     H 4159   4.777   2.754   6.520  4.0635 -1.6126 -2.0975
  772MOL0     H 4160   4.841   2.918   6.541 -1.8737  2.5639  0.1147
  772MOL0     H 4161   4.658   3.021   6.425  1.5702 -0.3865 -0.5408
  772MOL0     H 4162   4.583   2.863   6.398  0.2851  0.0083 -1.5507
  772MOL0     H 4163   4.539   2.828   6.627 -2.0050  0.6767  0.3137
  772MOL0     H 4164   4.618   2.975   6.683 -3.1882  0.8804  1.1398
  772MOL0     H 4165   4.377   3.001   6.670 -3.0805 -3.5277 -2.1887
  772MOL0     H 4166   4.441   3.108   6.549  0.8494  0.8231  1.2248
  772MOL0     H 4167   4.256   3.019   6.436  1.6626 -0.2942 -3.0130
  772MOL0     H 4168   4.382   2.927   6.368  2.7752 -0.6482  1.3229
  772MOL0     H 4169   4.220   2.807   6.588 -0.5206 -0.8523 -0.0712
  772MOL0     H 4170   4.358   2.737   6.511  1.2001 -0.6104 -3.4279
  772MOL0     H 4171   4.333   2.678   6.250  1.2550  2.9224 -2.0116
  772MOL0     H 4172   4.093   2.753   5.976 -1.3716 -1.8319 -2.2071
  772MOL0     H 4173   4.247   2.671   6.016  0.3722  3.6495 -1.9999
  772MOL0     H 4174   4.121   2.467   6.066 -0.1567  0.4413  0.4171
  772MOL0     H 4175   4.072   2.522   5.911 -1.0837 -1.2912  1.1245
  772MOL0     H 4176   3.849   2.601   6.001  0.6682  1.4439 -1.3122
  772MOL0     H 4177   3.906   2.563   6.167  1.3359 -0.9603  1.8322
  772MOL0     H 4178   3.888   2.368   5.938 -2.1027  2.9530 -0.6477
  772MOL0     H 4179   3.758   2.404   6.060  0.1180  1.9327 -0.1554
  772MOL0     H 4180   3.763   2.104   6.204 -0.1689  0.5724 -0.4553
  772MOL0     H 4181   3.679   1.874   6.222  2.7290 -0.4104  2.3388
  772MOL0     H 4182   3.661   1.816   6.060 -2.0795  1.9045  1.0522
  772MOL0     H 4183   3.781   1.742   6.161 -2.4862 -2.1947 -1.4163
  772MOL0     H 4184   3.959   1.624   5.625  1.5247  2.2541  0.5156
  772MOL0     H 4185   3.968   1.371   5.598  1.0668  1.4214 -1.5758
  772MOL0     H 4186   4.266   1.103   5.696  0.9128 -0.3121  1.5991
  772MOL0     H 4187   4.240   1.148   5.875 -1.1037 -2.9887  1.7515
  772MOL0     H 4188   4.030   1.022   5.862  0.5000  0.5814  0.6070
  772MOL0     H 4189   4.063   0.977   5.691  0.1614 -0.7319  0.4757
  772MOL0     H 4190   4.257   0.844   5.757 -1.4360  2.3448 -2.6165
  772MOL0     H 4191   4.117   0.764   5.833 -0.1701  0.3834  1.7446
  772MOL0     H 4192   4.315   0.952   5.958  0.9000 -0.2637 -0.8016
  772MOL0     H 4193   4.161   0.910   6.032  0.5654 -3.8692  1.7218
  772MOL0     H 4194   4.359   0.755   6.110 -2.8404 -2.6942  3.0617
  772MOL0     H 4195   4.357   0.703   5.936  0.0457  1.8456  0.0904
  772MOL0     H 4196   4.115   0.696   6.104 -1.3019  0.7869 -3.0835
  772MOL0     H 4197   4.150   0.588   5.973 -0.8527 -1.1685  1.3596
  772MOL0     H 4198   4.181   0.462   6.189  0.0116 -0.0056 -0.1612
  772MOL0     H 4199   4.302   0.578   6.247  2.0838 -1.6470  1.4343
  772MOL0     H 4200   4.459   0.532   6.065 -1.3062  2.3709  2.1707
  772MOL0     H 4201   4.338   0.407   6.002 -2.9787  2.2089 -0.6664
  772MOL0     H 4202   4.215   1.341   5.945  0.7428  1.5614  1.1771
  772MOL0     H 4203   4.189   1.589   5.979  2.1009 -1.9353  0.1898
  772MOL0     H 4204   4.099   1.986   5.861 -1.5879  0.6979 -1.7280
  772MOL0     H 4205   4.104   2.200   5.957  1.4229  0.4742  0.4717
  772MOL0     H 4206   5.157   3.124   6.463 -0.9953 -1.0441  1.3537
  772MOL0     H 4207   5.393   3.149   6.575  0.2070 -1.6010 -0.2380
  772MOL0     H 4208   5.785   2.913   6.740 -1.0772  0.3795 -2.0919
  772MOL0     H 4209   5.991   2.953   6.863 -0.1267 -2.7336 -3.0958
  772MOL0     H 4210   6.230   3.309   6.739 -0.1162 -1.5410 -0.8262
  772MOL0     H 4211   6.236   3.327   6.915 -1.2486 -0.8289  1.5733
  772MOL0     H 4212   6.386   3.131   6.923  0.1221 -0.4727 -0.4028
  772MOL0     H 4213   6.454   3.268   6.849  0.9374 -1.3201 -0.5846
  772MOL0     H 4214   6.516   3.104   6.689  0.7135 -3.3868 -1.3207
  772MOL0     H 4215   6.379   3.181   6.622  1.7595 -0.6750 -1.0359
  772MOL0     H 4216   6.232   2.981   6.665 -0.2470 -0.1098 -0.6698
  772MOL0     H 4217   6.322   2.937   6.802  2.1119 -4.1814 -1.9983
  772MOL0     H 4218   6.442   2.693   6.499 -0.5546  0.6464  1.5049
  772MOL0     H 4219   6.014   3.345   6.677 -0.2318 -0.4588 -2.5336
  772MOL0     H 4220   5.843   3.297   6.551 -0.9368  0.9644  1.8042
  773MOL0     O 4221   7.528  10.218   7.950  0.5042  0.3818  0.2145
  773MOL0     C 4222   7.599  10.266   8.034 -0.1950 -0.3914 -0.4303
  773MOL0     O 4223   7.672  10.189   8.120 -0.1500  0.2174 -0.2485
  773MOL0     C 4224   7.711  10.060   8.093  0.0722  0.6574 -0.1117
  773MOL0     C 4225   7.724  10.014   7.959  0.8536 -0.8353 -0.0650
  773MOL0     C 4226   7.781   9.889   7.937  0.2535 -0.5996 -0.1938
  773MOL0     C 4227   7.817   9.813   8.045  0.8847  0.4003  0.2579
  773MOL0     O 4228   7.879   9.697   8.001  0.0748  1.1305  0.5073
  773MOL0     C 4229   7.918   9.592   8.092 -0.4590  0.3322 -0.4677
  773MOL0     C 4230   8.028   9.632   8.184  0.1052 -0.3975 -0.6361
  773MOL0     C 4231   8.167   9.640   8.120  0.2111  0.6275  0.7355
  773MOL0     C 4232   8.205   9.784   8.089  1.0318 -0.8793 -0.1704
  773MOL0     C 4233   8.338   9.798   8.031  0.4153  0.3982 -1.2636
  773MOL0     C 4234   8.362   9.933   7.962  0.1004  1.0517 -0.3629
  773MOL0     C 4235   8.509   9.970   7.931  0.0446 -0.8725 -0.3663
  773MOL0     C 4236   8.603  10.001   8.053 -0.6999 -0.6010  0.1597
  773MOL0     N 4237   8.734  10.027   8.000 -0.1529 -0.5909 -0.6593
  773MOL0     C 4238   8.833   9.935   8.000 -0.9192 -0.6891 -0.5289
  773MOL0     C 4239   8.932   9.994   7.927 -0.1908 -0.4432  0.3785
  773MOL0     C 4240   9.062   9.918   7.891  0.3999 -0.1231  0.6989
  773MOL0     C 4241   9.142   9.886   8.009 -1.5696  0.3655 -0.4751
  773MOL0     C 4242   9.277   9.836   7.967 -0.3767 -0.2002  0.5933
  773MOL0     C 4243   9.374   9.808   8.097  0.6653 -0.4842 -0.1937
  773MOL0     O 4244   9.511   9.788   8.061 -0.1603 -0.6202 -0.1240
  773MOL0     C 4245   9.567   9.671   8.098 -0.9902 -0.8098  0.7906
  773MOL0     C 4246   9.698   9.664   8.126  0.9247  0.7901 -0.9642
  773MOL0     C 4247   9.761   9.547   8.173  0.2255  0.2625 -0.1103
  773MOL0     C 4248   9.906   9.564   8.196 -0.3120  0.1454  0.8803
  773MOL0     C 4249   9.684   9.422   8.201  0.1088 -0.5783  0.3663
  773MOL0     C 4250   9.741   9.297   8.253 -0.5699 -1.5118  0.4273
  773MOL0     O 4251   9.871   9.295   8.304  0.1089 -0.0400 -0.6526
  773MOL0     C 4252   9.912   9.197   8.392 -0.1121  0.3548  0.9404
  773MOL0     C 4253   9.841   9.165   8.509 -0.4712  0.3351  0.0082
  773MOL0     C 4254   9.889   9.063   8.591  0.3437  0.2025  0.0104
  773MOL0     C 4255  10.010   8.999   8.569  0.5151 -0.2759  0.3081
  773MOL0     O 4256  10.051   8.910   8.671  0.4910 -0.1379  0.3185
  773MOL0     C 4257  10.153   8.819   8.621  0.2504  0.8321  0.4721
  773MOL0     C 4258  10.202   8.702   8.718  0.2963 -0.2074 -0.0453
  773MOL0     C 4259  10.243   8.572   8.639  0.6755  0.6776 -0.1290
  773MOL0     C 4260  10.142   8.494   8.553  0.2169  0.2751  0.1558
  773MOL0     C 4261  10.211   8.383   8.472 -0.9096  0.4840  0.3789
  773MOL0     C 4262  10.220   8.420   8.326  0.0014  0.2220  0.9330
  773MOL0     C 4263  10.303   8.323   8.224  0.4364 -0.2709 -0.2880
  773MOL0     C 4264  10.330   8.389   8.088 -0.5317  0.4155  0.3329
  773MOL0    Cl 4265  10.181   8.414   7.996  0.1749  0.0317  0.1737
  773MOL0     C 4266  10.085   9.038   8.456 -0.5839 -0.6152  0.4658
  773MOL0     C 4267  10.036   9.140   8.379 -0.8873  0.2443  0.3992
  773MOL0     O 4268   9.670   9.205   8.251  0.5827  0.0323 -0.1873
  773MOL0     C 4269   9.547   9.430   8.166 -0.1174 -0.0154  0.1431
  773MOL0     C 4270   9.493   9.548   8.102 -0.0904 -0.8296 -0.6453
  773MOL0     N 4271   8.902  10.126   7.913 -0.1062 -0.2542  0.0916
  773MOL0     N 4272   8.779  10.144   7.955  0.1633 -0.9117 -0.3359
  773MOL0     C 4273   7.786   9.846   8.181 -0.3528  0.0484  0.7575
  773MOL0     C 4274   7.730   9.971   8.202  0.2701 -0.2157 -0.0168
  773MOL0     C 4275   7.611  10.412   8.040  0.2725 -0.8093  0.6931
  773MOL0     C 4276   7.511  10.495   7.975 -1.3916 -0.3743  1.3068
  773MOL0     C 4277   7.525  10.634   7.982  0.6080  0.0975 -0.2986
  773MOL0     C 4278   7.639  10.697   8.033 -0.5459  0.6751  0.7364
  773MOL0     O 4279   7.668  10.831   8.037 -0.0849  0.4949  0.7416
  773MOL0     C 4280   7.580  10.931   7.994  0.9554 -0.4216  0.6285
  773MOL0     C 4281   7.494  10.969   8.120  0.3089  0.0615 -0.4225
  773MOL0     C 4282   7.576  10.999   8.249  0.3757 -0.0388  0.2381
  773MOL0     C 4283   7.681  11.104   8.224 -0.7379 -0.0566 -0.7995
  773MOL0     C 4284   7.634  11.222   8.147 -0.3924 -0.5096  0.9559
  773MOL0     C 4285   7.617  11.321   8.075 -0.1784 -0.1172  0.2058
  773MOL0     C 4286   7.731  10.617   8.101 -0.3694 -0.8433  0.1795
  773MOL0     C 4287   7.717  10.484   8.112  0.4212  0.5159 -0.2438
  773MOL0     H 4288   7.689  10.052   7.863 -2.2301 -4.1650 -0.4538
  773MOL0     H 4289   7.800   9.856   7.835 -2.2259 -1.0063 -0.5811
  773MOL0     H 4290   7.828   9.564   8.147 -1.9228 -0.2014 -2.9667
  773MOL0     H 4291   7.946   9.505   8.032 -0.6097  1.4509 -2.2448
  773MOL0     H 4292   8.000   9.715   8.250 -3.4621 -1.5514 -0.4602
  773MOL0     H 4293   8.034   9.548   8.253  2.1147 -0.4818 -0.8504
  773MOL0     H 4294   8.243   9.595   8.184  1.6730  0.5553 -0.9819
  773MOL0     H 4295   8.166   9.589   8.023 -0.6344  0.2913  0.9116
  773MOL0     H 4296   8.132   9.835   8.025 -0.5612  0.5487  2.5832
  773MOL0     H 4297   8.197   9.841   8.182  1.2173 -0.3614 -0.4690
  773MOL0     H 4298   8.407   9.784   8.115  0.1793 -3.4308 -1.5375
  773MOL0     H 4299   8.345   9.720   7.955  1.2440  0.4274 -1.2215
  773MOL0     H 4300   8.311   9.938   7.866  0.9235 -1.2200 -0.9784
  773MOL0     H 4301   8.314  10.010   8.023  2.7148  2.4382  0.0975
  773MOL0     H 4302   8.574   9.888   7.898  4.3515  1.7359  0.7780
  773MOL0     H 4303   8.512  10.053   7.861  2.6995  2.4855  3.2927
  773MOL0     H 4304   8.594   9.919   8.125  1.0099 -0.8191  0.1562
  773MOL0     H 4305   8.570  10.098   8.092  0.8745  0.3370 -0.7517
  773MOL0     H 4306   8.831   9.835   8.042  0.9183 -0.5542 -0.0207
  773MOL0     H 4307   9.034   9.835   7.825 -1.8637 -0.3876  1.8882
  773MOL0     H 4308   9.115   9.989   7.827 -0.2610 -2.7756 -3.1691
  773MOL0     H 4309   9.102   9.804   8.070  0.2028  0.1201  0.4309
  773MOL0     H 4310   9.148   9.978   8.067  1.0235 -0.2466  0.3659
  773MOL0     H 4311   9.325   9.907   7.900  1.3875  1.6667  3.5679
  773MOL0     H 4312   9.279   9.741   7.913 -1.3785  0.4541 -0.6286
  773MOL0     H 4313   9.324   9.723   8.145 -2.0435  0.6011 -0.9203
  773MOL0     H 4314   9.374   9.892   8.166  0.7104 -0.5172 -0.1529
  773MOL0     H 4315   9.760   9.752   8.133  1.3518  0.3567  3.4710
  773MOL0     H 4316   9.954   9.642   8.135  0.8791 -0.1479  1.4053
  773MOL0     H 4317   9.945   9.580   8.297 -0.2771  0.3322  0.8380
  773MOL0     H 4318   9.955   9.468   8.179 -1.9089 -0.9387  2.0947
  773MOL0     H 4319   9.748   9.218   8.531  0.0901  1.9347 -1.2568
  773MOL0     H 4320   9.837   9.042   8.685 -0.9715  0.1394 -0.7073
  773MOL0     H 4321  10.120   8.775   8.526  1.0557 -1.1048  1.0314
  773MOL0     H 4322  10.238   8.884   8.600 -1.3136  2.4311 -1.2968
  773MOL0     H 4323  10.282   8.746   8.779 -0.0350 -0.1762  0.3738
  773MOL0     H 4324  10.114   8.675   8.777 -1.4886  0.3318 -2.3520
  773MOL0     H 4325  10.264   8.496   8.715  1.5601  1.4262  0.3894
  773MOL0     H 4326  10.324   8.603   8.573 -2.2405 -0.4038 -4.6006
  773MOL0     H 4327  10.061   8.459   8.618  2.1791  1.0919  3.2571
  773MOL0     H 4328  10.093   8.560   8.481  0.1596  0.0587 -0.0049
  773MOL0     H 4329  10.158   8.291   8.500 -0.1395  0.2766  1.1818
  773MOL0     H 4330  10.314   8.371   8.507  0.7519  3.4079 -2.8966
  773MOL0     H 4331  10.123   8.423   8.275 -0.9545  2.0272  2.7031
  773MOL0     H 4332  10.269   8.517   8.310  0.9975 -0.3567  0.3314
  773MOL0     H 4333  10.232   8.242   8.204 -2.4531  1.8948  0.4277
  773MOL0     H 4334  10.395   8.295   8.275 -0.3041 -0.3929  1.0319
  773MOL0     H 4335  10.403   8.334   8.026 -2.7830 -1.0521 -1.1930
  773MOL0     H 4336  10.392   8.478   8.096 -1.2004  1.0411 -1.0039
  773MOL0     H 4337  10.179   8.991   8.428  0.2115  1.1266  0.0526
  773MOL0     H 4338  10.103   9.166   8.298 -4.1170  0.0885 -2.5754
  773MOL0     H 4339   9.485   9.341   8.176 -0.7778  0.3259 -0.7919
  773MOL0     H 4340   9.392   9.532   8.065 -2.8338  1.4793  4.7023
  773MOL0     H 4341   7.799   9.778   8.265  2.4763 -0.7209 -0.2037
  773MOL0     H 4342   7.718  10.007   8.304 -3.4029 -1.4777  0.1514
  773MOL0     H 4343   7.433  10.450   7.913  1.8493  0.8321 -4.4207
  773MOL0     H 4344   7.449  10.705   7.953  0.7321  0.3742  0.0494
  773MOL0     H 4345   7.628  11.019   7.951  1.5221 -0.3996  1.2848
  773MOL0     H 4346   7.511  10.892   7.919 -1.0278  2.3192  0.8573
  773MOL0     H 4347   7.423  10.889   8.141 -0.6432  1.0813  0.3503
  773MOL0     H 4348   7.434  11.058   8.102  1.9299  1.3052  0.1049
  773MOL0     H 4349   7.606  10.897   8.278 -2.0146 -1.8988 -3.1831
  773MOL0     H 4350   7.509  11.027   8.330  3.1330  0.0518  2.6607
  773MOL0     H 4351   7.774  11.072   8.176  2.3755 -0.0139  4.4387
  773MOL0     H 4352   7.699  11.142   8.325 -2.2303  0.9176 -0.8674
  773MOL0     H 4353   7.606  11.410   8.016 -0.4135  0.2609  0.8151
  773MOL0     H 4354   7.794  10.671   8.171 -0.3607  2.6488 -2.2898
  773MOL0     H 4355   7.781  10.423   8.176  0.6305  1.5434  0.5446
  774MOL0     O 4356   9.194   7.132   1.085 -0.2860 -0.7962  0.0056
  774MOL0     C 4357   9.147   7.145   1.193 -0.7797  0.1833 -0.6049
  774MOL0     O 4358   9.226   7.139   1.303  0.1036  0.8884 -0.6273
  774MOL0     C 4359   9.355   7.083   1.298 -0.5327 -1.0962 -0.8990
  774MOL0     C 4360   9.382   6.951   1.308  0.3873 -0.6161 -0.1004
  774MOL0     C 4361   9.520   6.908   1.328 -0.2781  0.0920  1.4234
  774MOL0     C 4362   9.623   6.996   1.319  0.0365 -0.3972  0.8152
  774MOL0     O 4363   9.745   6.941   1.324  0.1848  0.6695 -0.5140
  774MOL0     C 4364   9.867   7.014   1.291 -0.4267  0.0755  0.2542
  774MOL0     C 4365   9.979   6.910   1.296  0.8580  1.1813 -0.8826
  774MOL0     C 4366   9.951   6.818   1.421  0.6729 -0.3775 -0.2066
  774MOL0     C 4367  10.071   6.743   1.476 -0.1293 -0.5663 -0.1257
  774MOL0     C 4368  10.016   6.650   1.586  0.7740 -0.1952  0.2450
  774MOL0     C 4369  10.122   6.561   1.654 -0.5565 -0.8348 -0.2363
  774MOL0     C 4370  10.149   6.430   1.574  1.0640 -0.1627 -0.2055
  774MOL0     C 4371  10.238   6.329   1.652  0.2297  0.1255 -0.7153
  774MOL0     N 4372  10.347   6.389   1.731 -0.1297  0.2794 -0.3058
  774MOL0     C 4373  10.466   6.432   1.689 -0.9115  0.7230  0.7776
  774MOL0     C 4374  10.516   6.504   1.791 -0.0999  0.4298  0.1741
  774MOL0     C 4375  10.630   6.602   1.788 -0.3546 -0.2953  0.1241
  774MOL0     C 4376  10.639   6.716   1.684 -0.1603  0.0270  0.0573
  774MOL0     C 4377  10.540   6.824   1.713 -0.1889  0.0913 -0.0712
  774MOL0     C 4378  10.560   6.948   1.623 -0.9834  0.0840 -0.2138
  774MOL0     O 4379  10.651   7.033   1.678  0.5713 -0.1979  0.6265
  774MOL0     C 4380  10.723   7.094   1.583  0.2244 -0.3441 -0.5533
  774MOL0     C 4381  10.674   7.203   1.507 -1.1885 -0.3929 -0.3694
  774MOL0     C 4382  10.757   7.270   1.415 -0.9216 -0.4383  0.4529
  774MOL0     C 4383  10.693   7.390   1.353 -0.4330 -0.3957 -0.4595
  774MOL0     C 4384  10.892   7.238   1.405 -0.2849 -0.2313  0.0692
  774MOL0     C 4385  10.995   7.296   1.307  0.8775 -0.6216  0.1594
  774MOL0     O 4386  11.124   7.326   1.350 -0.5136  0.3885  0.5091
  774MOL0     C 4387  11.219   7.366   1.263  0.5610  0.9419  0.6504
  774MOL0     C 4388  11.341   7.296   1.274 -0.1373  0.4994 -0.6260
  774MOL0     C 4389  11.443   7.325   1.180  0.9359  1.4049  0.3130
  774MOL0     C 4390  11.442   7.436   1.092 -0.3424 -0.0159  0.3456
  774MOL0     O 4391  11.540   7.472   1.005  0.6431 -0.0161  0.1011
  774MOL0     C 4392  11.570   7.379   0.901  0.5634  0.0713 -0.2401
  774MOL0     C 4393  11.566   7.450   0.761  0.4737 -0.0486 -0.6384
  774MOL0     C 4394  11.433   7.525   0.737  0.0448  0.3778 -0.1004
  774MOL0     C 4395  11.317   7.418   0.755 -0.7253 -0.1479  0.1714
  774MOL0     C 4396  11.185   7.493   0.750  0.4195  0.0139  0.8324
  774MOL0     C 4397  11.080   7.399   0.809  0.2783  0.5845  0.1777
  774MOL0     C 4398  10.934   7.441   0.765  0.3588  0.1842  0.0289
  774MOL0     C 4399  10.822   7.387   0.867 -0.6017 -0.1781  0.2163
  774MOL0    Cl 4400  10.765   7.223   0.827 -0.2490 -0.2306 -0.5133
  774MOL0     C 4401  11.326   7.520   1.102  0.2741  0.1264 -0.4233
  774MOL0     C 4402  11.209   7.476   1.175 -1.1520 -0.2060  0.2859
  774MOL0     O 4403  10.950   7.303   1.183  0.0581  0.3261 -0.6885
  774MOL0     C 4404  10.944   7.127   1.474  0.7208  0.0935 -0.2364
  774MOL0     C 4405  10.857   7.050   1.556 -0.1596  1.3492  0.8533
  774MOL0     N 4406  10.426   6.511   1.889  0.3297 -0.6437 -0.3806
  774MOL0     N 4407  10.330   6.432   1.862 -0.4134  1.5854  0.8842
  774MOL0     C 4408   9.602   7.131   1.300  1.0771  0.0918 -0.4830
  774MOL0     C 4409   9.464   7.172   1.288  0.1959 -0.0830  0.2368
  774MOL0     C 4410   9.011   7.205   1.212 -0.3249  0.5391 -0.4669
  774MOL0     C 4411   8.965   7.251   1.336 -0.2932 -0.8507 -1.2032
  774MOL0     C 4412   8.838   7.298   1.356  0.0404  0.7304  0.0884
  774MOL0     C 4413   8.753   7.310   1.243  0.0529 -0.8363 -0.2146
  774MOL0     O 4414   8.624   7.364   1.243 -0.5919 -0.1310 -0.0417
  774MOL0     C 4415   8.566   7.369   1.374  0.2350 -1.2108  0.1113
  774MOL0     C 4416   8.452   7.470   1.352  0.0451 -0.7642  0.1313
  774MOL0     C 4417   8.398   7.551   1.470 -0.0481 -0.2419 -0.3472
  774MOL0     C 4418   8.312   7.454   1.558 -0.1115  0.0678  0.4523
  774MOL0     C 4419   8.393   7.390   1.664  0.5431 -0.2994 -0.7155
  774MOL0     C 4420   8.448   7.349   1.762  1.0382 -0.3030  0.2404
  774MOL0     C 4421   8.799   7.261   1.120  0.4625 -0.7178  0.7258
  774MOL0     C 4422   8.918   7.203   1.103 -0.6412 -0.4213 -0.0375
  774MOL0     H 4423   9.293   6.891   1.319 -0.9005  1.4552  1.4846
  774MOL0     H 4424   9.549   6.805   1.348  1.9982  0.2692 -0.5564
  774MOL0     H 4425   9.859   7.061   1.193  0.3907 -1.4961 -0.6082
  774MOL0     H 4426   9.886   7.087   1.370 -2.6511  3.0782 -1.7976
  774MOL0     H 4427   9.977   6.842   1.211 -2.0883 -0.3269  0.2660
  774MOL0     H 4428  10.069   6.969   1.317 -0.0842  1.2792  4.1411
  774MOL0     H 4429   9.911   6.870   1.509  3.7402  0.4736  0.8161
  774MOL0     H 4430   9.873   6.748   1.390 -2.7208  3.0304 -0.0914
  774MOL0     H 4431  10.118   6.680   1.400  1.2521  0.2552  0.0254
  774MOL0     H 4432  10.130   6.824   1.520 -1.8353  0.0536  1.1597
  774MOL0     H 4433   9.967   6.698   1.671  1.0949 -1.5665  1.2415
  774MOL0     H 4434   9.940   6.581   1.548  0.5973 -0.5877  1.2953
  774MOL0     H 4435  10.214   6.620   1.664 -1.4745  1.2663 -2.9879
  774MOL0     H 4436  10.082   6.531   1.752 -1.4251  1.7732  0.2992
  774MOL0     H 4437  10.055   6.380   1.547  0.2107 -0.0428  2.2891
  774MOL0     H 4438  10.204   6.459   1.484  0.8649  2.4649  0.4442
  774MOL0     H 4439  10.279   6.268   1.571  0.6150 -1.0854  0.3411
  774MOL0     H 4440  10.181   6.264   1.720  0.2754  0.8613  0.0443
  774MOL0     H 4441  10.497   6.428   1.585  2.2864  2.7111  1.5208
  774MOL0     H 4442  10.639   6.645   1.889  1.1276 -0.8331  0.2443
  774MOL0     H 4443  10.714   6.534   1.771  1.7407  2.2305 -0.2101
  774MOL0     H 4444  10.620   6.677   1.584  0.6235 -0.0730 -0.0543
  774MOL0     H 4445  10.740   6.758   1.687  0.7610 -1.6876 -2.8534
  774MOL0     H 4446  10.540   6.860   1.816  0.9841  0.8583 -0.3102
  774MOL0     H 4447  10.437   6.792   1.696 -0.1402  0.1914 -0.5785
  774MOL0     H 4448  10.460   6.993   1.620 -1.5570 -1.1232  0.2015
  774MOL0     H 4449  10.578   6.909   1.523 -3.2771 -1.2814 -0.1825
  774MOL0     H 4450  10.571   7.233   1.524 -1.2690  0.9023 -2.7527
  774MOL0     H 4451  10.584   7.390   1.366 -0.7216 -2.2503 -2.2054
  774MOL0     H 4452  10.746   7.483   1.374 -1.4918  0.3389 -0.9404
  774MOL0     H 4453  10.699   7.362   1.247  0.0567 -2.1520  0.0027
  774MOL0     H 4454  11.368   7.221   1.348  1.7138  0.6753 -1.0790
  774MOL0     H 4455  11.538   7.281   1.208  0.4188  0.4220  0.5569
  774MOL0     H 4456  11.666   7.328   0.916 -0.3490 -2.0523 -1.2016
  774MOL0     H 4457  11.501   7.295   0.903  1.7928 -1.0088  2.6649
  774MOL0     H 4458  11.652   7.518   0.762  0.2559  0.2264  0.3821
  774MOL0     H 4459  11.594   7.368   0.694  1.4097 -0.7492  0.5642
  774MOL0     H 4460  11.429   7.567   0.636 -1.0685  3.0532  0.9868
  774MOL0     H 4461  11.424   7.610   0.804 -4.3082  0.8125 -0.9368
  774MOL0     H 4462  11.327   7.349   0.671 -0.8086 -0.1552  0.1673
  774MOL0     H 4463  11.324   7.361   0.848 -1.3961 -1.8571 -0.7718
  774MOL0     H 4464  11.165   7.512   0.644 -0.4782  3.1145  1.4586
  774MOL0     H 4465  11.193   7.586   0.806  2.5566  1.1602 -1.1897
  774MOL0     H 4466  11.107   7.298   0.778 -0.8743 -0.1891  1.5729
  774MOL0     H 4467  11.081   7.403   0.919 -0.5429  1.1084  0.1725
  774MOL0     H 4468  10.900   7.431   0.662  1.1586 -1.7986 -0.0857
  774MOL0     H 4469  10.935   7.549   0.780 -1.3827  0.0350  1.5499
  774MOL0     H 4470  10.743   7.462   0.860 -0.9111 -0.5009  0.2409
  774MOL0     H 4471  10.860   7.396   0.970 -1.9433  1.0363  0.6461
  774MOL0     H 4472  11.316   7.611   1.045 -0.3501 -0.3111 -1.0310
  774MOL0     H 4473  11.119   7.534   1.162 -0.9138  0.0753 -0.1470
  774MOL0     H 4474  11.044   7.087   1.460  0.2377 -0.6858 -1.6731
  774MOL0     H 4475  10.904   6.956   1.583 -2.6084 -0.4792 -0.9101
  774MOL0     H 4476   9.682   7.203   1.285  3.0165 -1.9767 -0.5494
  774MOL0     H 4477   9.439   7.277   1.276 -0.8718 -0.2878  0.6122
  774MOL0     H 4478   9.029   7.250   1.424  1.1328 -0.8775 -2.2013
  774MOL0     H 4479   8.821   7.333   1.458  2.0629  3.9299 -0.5185
  774MOL0     H 4480   8.541   7.268   1.409  2.8524 -1.3115  1.9095
  774MOL0     H 4481   8.636   7.410   1.447 -2.1399 -1.4204  2.6650
  774MOL0     H 4482   8.364   7.424   1.306 -2.4574  0.9552  2.8366
  774MOL0     H 4483   8.493   7.550   1.289  1.3525 -1.8801 -0.4854
  774MOL0     H 4484   8.329   7.633   1.447 -2.0204 -2.1577 -1.6641
  774MOL0     H 4485   8.487   7.590   1.520  0.7566  0.7150 -2.4137
  774MOL0     H 4486   8.273   7.375   1.493 -0.1162 -1.1165  1.8186
  774MOL0     H 4487   8.226   7.507   1.601 -1.5983  0.0776 -2.3207
  774MOL0     H 4488   8.492   7.289   1.839 -1.8609  2.4393  4.4223
  774MOL0     H 4489   8.733   7.263   1.034  0.4381 -2.4432  0.6728
  774MOL0     H 4490   8.946   7.183   1.000 -0.7816  2.4328 -0.7178
  775MOL0     O 4491   9.397   3.766  11.426  0.2907  0.0923  0.4437
  775MOL0     C 4492   9.431   3.767  11.307  0.6757  0.0303  0.3260
  775MOL0     O 4493   9.366   3.710  11.197 -0.4967  0.6382  0.0800
  775MOL0     C 4494   9.249   3.645  11.214  0.3311  0.6117 -0.3635
  775MOL0     C 4495   9.240   3.543  11.306  0.3625 -0.5118 -0.3900
  775MOL0     C 4496   9.128   3.462  11.312 -0.2764  0.0244 -1.1165
  775MOL0     C 4497   9.017   3.483  11.233 -0.3868 -0.8990  0.2876
  775MOL0     O 4498   8.909   3.400  11.242 -0.5261  0.1949  0.3667
  775MOL0     C 4499   8.773   3.446  11.264 -0.1788 -0.1204 -0.8103
  775MOL0     C 4500   8.689   3.359  11.184  0.4562  0.6129 -0.5901
  775MOL0     C 4501   8.693   3.409  11.039 -0.0180 -0.4648 -0.3642
  775MOL0     C 4502   8.593   3.519  11.027  0.7551 -0.5507  0.6392
  775MOL0     C 4503   8.602   3.604  10.898 -0.0352 -0.0569  0.2262
  775MOL0     C 4504   8.567   3.524  10.767 -0.7535  0.0077  0.2364
  775MOL0     C 4505   8.554   3.616  10.641 -0.3492  0.6633 -0.3300
  775MOL0     C 4506   8.702   3.663  10.617  0.5124  0.1615 -1.0269
  775MOL0     N 4507   8.718   3.739  10.489  0.1777 -0.0423  0.1669
  775MOL0     C 4508   8.722   3.880  10.476  0.2717  0.3793 -0.1348
  775MOL0     C 4509   8.766   3.902  10.346 -0.2288  0.9893 -0.8426
  775MOL0     C 4510   8.799   4.030  10.278  0.4093  0.5263  0.0787
  775MOL0     C 4511   8.676   4.075  10.213 -0.0880  0.1789 -0.3777
  775MOL0     C 4512   8.682   4.222  10.185 -0.3256 -0.5014 -0.5227
  775MOL0     C 4513   8.569   4.250  10.085 -0.7012 -0.5808  0.4780
  775MOL0     O 4514   8.439   4.217  10.126 -0.8132  0.5464 -0.9074
  775MOL0     C 4515   8.340   4.296  10.079  0.5312 -0.3298 -0.6082
  775MOL0     C 4516   8.332   4.313   9.939  1.0411 -0.2997 -0.0815
  775MOL0     C 4517   8.218   4.376   9.892 -0.9159  0.4697 -0.1030
  775MOL0     C 4518   8.197   4.383   9.738  0.5706 -0.0876  0.2044
  775MOL0     C 4519   8.118   4.436   9.978  0.4972 -0.1161  0.9846
  775MOL0     C 4520   8.013   4.526   9.929 -0.0659 -0.1430 -0.0040
  775MOL0     O 4521   7.969   4.619  10.018 -0.2553  0.3098  0.1350
  775MOL0     C 4522   7.887   4.725   9.970  0.7538  0.9812  0.1164
  775MOL0     C 4523   7.748   4.711   9.969 -0.0884  0.4459 -0.5385
  775MOL0     C 4524   7.663   4.815   9.933 -0.6630  0.4818 -0.6416
  775MOL0     C 4525   7.717   4.943   9.911 -1.1276  0.7757 -0.3843
  775MOL0     O 4526   7.638   5.053   9.893 -0.4068 -0.1240  0.0169
  775MOL0     C 4527   7.605   5.133  10.004  0.9807  0.2725 -0.2567
  775MOL0     C 4528   7.502   5.062  10.097  0.0189  0.5942  0.2199
  775MOL0     C 4529   7.456   5.150  10.213 -1.4772  0.2403  0.4545
  775MOL0     C 4530   7.367   5.270  10.184  0.6035 -0.0768  0.5371
  775MOL0     C 4531   7.268   5.240  10.080  1.1612  0.6430 -0.4199
  775MOL0     C 4532   7.164   5.129  10.127  0.1108  0.6085  0.8048
  775MOL0     C 4533   7.083   5.076  10.010 -0.4378  0.1502 -0.8924
  775MOL0     C 4534   6.964   5.160   9.967 -0.1269  1.3899 -1.1688
  775MOL0    Cl 4535   6.870   5.063   9.849  0.6788  0.3527 -0.0060
  775MOL0     C 4536   7.856   4.953   9.916  0.9654  0.0730  0.1659
  775MOL0     C 4537   7.940   4.846   9.944  0.6205 -0.9176  0.3323
  775MOL0     O 4538   7.971   4.517   9.819  0.1610 -0.6878  0.3585
  775MOL0     C 4539   8.143   4.431  10.114  0.2200 -0.5971  0.4930
  775MOL0     C 4540   8.254   4.354  10.165  0.1452 -0.8152 -0.1064
  775MOL0     N 4541   8.780   3.780  10.288 -0.1405 -0.3931  0.7554
  775MOL0     N 4542   8.754   3.683  10.371 -0.4764 -1.0026  0.4310
  775MOL0     C 4543   9.026   3.595  11.138 -0.1526  0.2701  0.5413
  775MOL0     C 4544   9.141   3.675  11.132  0.6404 -0.3766  0.0361
  775MOL0     C 4545   9.558   3.838  11.271 -0.5864 -0.0261 -0.3240
  775MOL0     C 4546   9.622   3.931  11.359  0.0961  0.0591 -0.4305
  775MOL0     C 4547   9.739   4.007  11.322  0.2412 -0.2874  0.3546
  775MOL0     C 4548   9.788   4.003  11.188  0.1667 -0.3101  0.1592
  775MOL0     O 4549   9.879   4.098  11.163  0.6213  0.0598 -0.2244
  775MOL0     C 4550   9.953   4.089  11.043  1.1555  0.5784  0.4421
  775MOL0     C 4551  10.067   4.186  11.016  0.2943  0.1767  0.4103
  775MOL0     C 4552  10.164   4.149  10.892 -0.4942  0.1541 -1.1369
  775MOL0     C 4553  10.290   4.237  10.894 -0.8290 -0.2675  0.3345
  775MOL0     C 4554  10.396   4.179  10.820 -0.4084 -1.9293  0.2336
  775MOL0     C 4555  10.464   4.144  10.725 -0.1195  0.4907  0.3373
  775MOL0     C 4556   9.724   3.915  11.101  0.0343 -0.5869 -0.2445
  775MOL0     C 4557   9.618   3.832  11.141  0.2297  0.1325  0.3496
  775MOL0     H 4558   9.333   3.533  11.362  1.5001  1.0687 -1.8945
  775MOL0     H 4559   9.118   3.383  11.387 -2.2986  0.8104 -0.4920
  775MOL0     H 4560   8.755   3.437  11.372 -0.2376 -2.8420 -0.9891
  775MOL0     H 4561   8.761   3.554  11.246 -0.6814  0.0503  0.4366
  775MOL0     H 4562   8.722   3.254  11.191  0.0985  0.6108  1.6088
  775MOL0     H 4563   8.587   3.376  11.219  1.1105  1.2092  1.1037
  775MOL0     H 4564   8.790   3.458  11.029 -0.3054  0.2495  0.2140
  775MOL0     H 4565   8.673   3.334  10.962 -1.4596 -1.2805  0.7484
  775MOL0     H 4566   8.497   3.469  11.012  0.2109  0.2082  1.4744
  775MOL0     H 4567   8.575   3.584  11.113  1.3042  3.7411 -2.2312
  775MOL0     H 4568   8.529   3.685  10.908 -1.2214 -1.1567  0.8356
  775MOL0     H 4569   8.704   3.642  10.892 -0.3988  0.9987  0.6468
  775MOL0     H 4570   8.642   3.447  10.747 -0.6916 -0.1813  1.1531
  775MOL0     H 4571   8.469   3.477  10.781 -1.4940  1.7070  0.9955
  775MOL0     H 4572   8.527   3.564  10.548  2.4336 -1.0422 -0.2766
  775MOL0     H 4573   8.486   3.701  10.651 -1.1829  0.1563 -1.4108
  775MOL0     H 4574   8.778   3.584  10.621 -2.2204 -2.5848  1.8252
  775MOL0     H 4575   8.740   3.722  10.701  1.7010  0.6316 -1.8516
  775MOL0     H 4576   8.688   3.952  10.549  2.0576 -0.4814  1.6506
  775MOL0     H 4577   8.832   4.098  10.357  1.8403 -1.4220  1.2508
  775MOL0     H 4578   8.883   4.010  10.211  2.5782 -0.6420  2.8856
  775MOL0     H 4579   8.587   4.057  10.274 -0.8367  0.0059 -1.4874
  775MOL0     H 4580   8.666   4.024  10.117 -0.4541  0.7014 -0.6196
  775MOL0     H 4581   8.778   4.256  10.145 -0.9613 -0.1542 -1.7968
  775MOL0     H 4582   8.676   4.277  10.280 -0.2528  3.9217 -2.8094
  775MOL0     H 4583   8.585   4.180  10.002 -1.1758 -1.2233  0.9139
  775MOL0     H 4584   8.584   4.354  10.056 -2.4678 -0.2474  0.6822
  775MOL0     H 4585   8.387   4.254   9.867 -1.5542 -0.6008 -1.9618
  775MOL0     H 4586   8.178   4.485   9.703  1.7282  0.4396  1.0708
  775MOL0     H 4587   8.277   4.339   9.678 -2.0202 -0.9841 -2.8872
  775MOL0     H 4588   8.115   4.316   9.710 -0.9916  2.2406 -1.2153
  775MOL0     H 4589   7.716   4.609   9.989 -0.9275  0.9710  0.9281
  775MOL0     H 4590   7.557   4.795   9.921 -1.1907  0.6654  2.6382
  775MOL0     H 4591   7.702   5.144  10.052  1.4581 -2.6410 -0.3610
  775MOL0     H 4592   7.568   5.231   9.974 -0.5324  0.2760  1.4523
  775MOL0     H 4593   7.414   5.020  10.048  2.3994 -4.1844 -0.5777
  775MOL0     H 4594   7.554   4.975  10.139 -2.7670 -0.0832  2.5775
  775MOL0     H 4595   7.542   5.189  10.268 -0.4613  2.5877 -2.5248
  775MOL0     H 4596   7.394   5.093  10.283 -1.0408 -1.6185 -0.5912
  775MOL0     H 4597   7.311   5.287  10.276 -0.9142 -1.7078 -0.0336
  775MOL0     H 4598   7.433   5.356  10.168 -0.7495  1.3960  2.3627
  775MOL0     H 4599   7.320   5.210   9.988  2.0645 -0.8578  0.5316
  775MOL0     H 4600   7.213   5.335  10.076 -0.9929 -0.5764 -1.3190
  775MOL0     H 4601   7.218   5.055  10.186  0.4660 -0.9179 -1.3091
  775MOL0     H 4602   7.095   5.172  10.200 -3.6819 -1.2822 -1.3563
  775MOL0     H 4603   7.048   4.981  10.053  0.6467 -1.0862 -2.6061
  775MOL0     H 4604   7.147   5.042   9.928  1.6682  1.5858  0.0681
  775MOL0     H 4605   7.000   5.259   9.938 -0.7458  1.3185 -2.2414
  775MOL0     H 4606   6.909   5.165  10.061 -0.8761 -0.6279 -1.4361
  775MOL0     H 4607   7.900   5.048   9.888 -0.6335  0.1511 -2.3862
  775MOL0     H 4608   8.045   4.868   9.960  1.2561 -2.8942 -0.7478
  775MOL0     H 4609   8.079   4.457  10.199  1.4903 -1.4686  1.7609
  775MOL0     H 4610   8.266   4.331  10.270  2.7636 -2.3223 -0.6640
  775MOL0     H 4611   8.939   3.614  11.075 -0.1984  2.4029  1.1649
  775MOL0     H 4612   9.141   3.751  11.054 -0.3695  0.2217  0.5950
  775MOL0     H 4613   9.587   3.954  11.459 -0.6411 -1.8344 -0.2177
  775MOL0     H 4614   9.786   4.066  11.400 -0.4695  0.7956 -0.0016
  775MOL0     H 4615   9.999   3.990  11.043 -0.7472 -0.3736  1.7801
  775MOL0     H 4616   9.889   4.103  10.956  2.8083 -0.0986 -0.9410
  775MOL0     H 4617  10.128   4.179  11.107  2.1804 -1.8321 -0.9257
  775MOL0     H 4618  10.042   4.292  11.012  1.7258  0.5474  0.7650
  775MOL0     H 4619  10.118   4.190  10.802  3.7288  1.9942 -2.6805
  775MOL0     H 4620  10.187   4.042  10.886 -1.5166 -0.1838  0.3816
  775MOL0     H 4621  10.317   4.239  11.000  1.1844  1.1651 -0.1446
  775MOL0     H 4622  10.267   4.332  10.844 -0.9358 -1.9422 -3.0705
  775MOL0     H 4623  10.516   4.087  10.650 -0.8433  1.1297 -0.6675
  775MOL0     H 4624   9.742   3.935  10.995 -0.8634 -0.4858 -0.3848
  775MOL0     H 4625   9.606   3.761  11.060  1.3512 -0.0154  0.2988
  776MOL0     O 4626   4.367   0.590   1.378 -0.4617 -0.1346 -0.4922
  776MOL0     C 4627   4.248   0.594   1.397  0.8345 -0.1434  0.6814
  776MOL0     O 4628   4.163   0.484   1.414 -0.4345  0.1648 -0.7179
  776MOL0     C 4629   4.206   0.368   1.482  0.1986 -0.8777 -0.7956
  776MOL0     C 4630   4.327   0.366   1.560  0.4099 -0.1071 -0.3352
  776MOL0     C 4631   4.368   0.240   1.610 -0.4630 -0.4406  0.0624
  776MOL0     C 4632   4.296   0.116   1.591 -0.6815 -0.5857 -0.1816
  776MOL0     O 4633   4.350   0.001   1.662 -0.1206 -0.3102 -0.2263
  776MOL0     C 4634   4.330  -0.130   1.606 -0.0240  0.8688  0.4738
  776MOL0     C 4635   4.327  -0.227   1.710  0.4951 -0.0141  0.2683
  776MOL0     C 4636   4.312  -0.371   1.661 -0.5408 -0.8490  0.7783
  776MOL0     C 4637   4.308  -0.451   1.789 -0.0666 -0.0358 -0.5177
  776MOL0     C 4638   4.365  -0.592   1.766 -0.2368  0.6893 -0.8154
  776MOL0     C 4639   4.361  -0.670   1.903 -0.8306  0.7552  0.2944
  776MOL0     C 4640   4.433  -0.800   1.888  0.5456 -0.1420  0.2013
  776MOL0     C 4641   4.467  -0.864   2.024 -0.1897  0.7543 -0.1048
  776MOL0     N 4642   4.543  -0.993   2.025 -0.3272 -0.2709  0.1175
  776MOL0     C 4643   4.656  -1.018   1.949 -0.4708  0.0001  0.4623
  776MOL0     C 4644   4.684  -1.148   1.979 -1.2555  0.6595  0.8346
  776MOL0     C 4645   4.797  -1.227   1.916 -0.0328 -1.1567 -0.1391
  776MOL0     C 4646   4.789  -1.387   1.937 -0.5203  0.4893  0.3367
  776MOL0     C 4647   4.865  -1.473   1.834 -0.3562 -0.0169  0.2064
  776MOL0     C 4648   4.939  -1.599   1.896  0.3710 -0.5278 -0.0326
  776MOL0     O 4649   4.860  -1.655   2.000  0.1184 -0.4786 -0.2866
  776MOL0     C 4650   4.816  -1.781   1.979 -0.3888 -0.8395  0.6089
  776MOL0     C 4651   4.743  -1.815   1.869 -0.1303  0.6318  0.3358
  776MOL0     C 4652   4.729  -1.946   1.832 -0.0669 -0.7772  0.8925
  776MOL0     C 4653   4.648  -1.967   1.699 -0.2286  0.0441  0.8405
  776MOL0     C 4654   4.782  -2.049   1.912  0.2906 -0.4883 -0.9613
  776MOL0     C 4655   4.766  -2.194   1.889  0.2637  0.5746  0.1693
  776MOL0     O 4656   4.652  -2.234   1.832 -0.0564  0.6780  0.0685
  776MOL0     C 4657   4.598  -2.361   1.831 -0.0017  0.4937 -0.4979
  776MOL0     C 4658   4.467  -2.385   1.775  0.2058 -0.4312  0.2567
  776MOL0     C 4659   4.399  -2.509   1.777  0.3817  0.0211 -0.3548
  776MOL0     C 4660   4.464  -2.624   1.836 -0.7565  0.0068 -0.3376
  776MOL0     O 4661   4.380  -2.734   1.852 -0.2361  0.5766 -0.0286
  776MOL0     C 4662   4.438  -2.838   1.942 -0.9309 -0.0267  0.4444
  776MOL0     C 4663   4.314  -2.927   1.983 -0.1957 -0.3160 -0.0556
  776MOL0     C 4664   4.323  -3.032   2.099 -0.4615 -0.0419  0.0243
  776MOL0     C 4665   4.185  -3.060   2.145  0.0195  0.3371 -0.1802
  776MOL0     C 4666   4.172  -3.157   2.264 -0.0681  0.0352 -0.3781
  776MOL0     C 4667   4.032  -3.207   2.292 -0.2688 -0.7006 -0.0484
  776MOL0     C 4668   4.046  -3.319   2.406 -0.7570 -1.2488  0.6185
  776MOL0     C 4669   3.911  -3.388   2.430 -0.5149  0.1789 -0.5007
  776MOL0    Cl 4670   3.829  -3.288   2.562 -0.2542 -0.3267  0.1839
  776MOL0     C 4671   4.601  -2.611   1.883  1.2778 -0.6910 -0.1716
  776MOL0     C 4672   4.659  -2.487   1.884  0.3894  0.0366  1.3763
  776MOL0     O 4673   4.862  -2.269   1.912  0.1033  0.3387  1.3005
  776MOL0     C 4674   4.854  -2.010   2.030  0.3445 -0.0613 -0.5151
  776MOL0     C 4675   4.856  -1.879   2.072 -1.1846 -0.2334 -0.6380
  776MOL0     N 4676   4.602  -1.185   2.081  0.1608 -0.1930 -0.0977
  776MOL0     N 4677   4.517  -1.087   2.110 -0.8080  0.7925  0.7101
  776MOL0     C 4678   4.174   0.123   1.518  0.3133 -0.3363  1.0505
  776MOL0     C 4679   4.137   0.252   1.472  0.2754  0.4663 -0.8865
  776MOL0     C 4680   4.177   0.722   1.381  0.3539  0.0220  0.3410
  776MOL0     C 4681   4.034   0.715   1.382  0.2063  0.8198  0.1388
  776MOL0     C 4682   3.952   0.830   1.371 -0.3741  0.1433  0.4188
  776MOL0     C 4683   4.006   0.965   1.369  0.1543 -0.1938 -0.0447
  776MOL0     O 4684   3.925   1.076   1.358 -0.8804  0.2975 -0.0650
  776MOL0     C 4685   3.971   1.207   1.328  0.1017  0.4220 -0.1244
  776MOL0     C 4686   3.867   1.310   1.329  0.5755  0.3015 -0.0770
  776MOL0     C 4687   3.790   1.310   1.457  0.3669  0.1026 -0.0562
  776MOL0     C 4688   3.875   1.343   1.582  0.7288  0.4800 -0.3640
  776MOL0     C 4689   3.795   1.374   1.694 -1.0595  0.1214 -0.9223
  776MOL0     C 4690   3.741   1.406   1.795 -0.0826  0.2725 -0.4352
  776MOL0     C 4691   4.151   0.965   1.370 -0.4673 -0.5307  0.2443
  776MOL0     C 4692   4.234   0.850   1.367 -0.8179 -0.2487  0.7081
  776MOL0     H 4693   4.373   0.462   1.582 -0.7755  0.4061 -0.0057
  776MOL0     H 4694   4.461   0.243   1.667 -0.6005  0.9841  0.2448
  776MOL0     H 4695   4.248  -0.146   1.536  0.8996 -2.0082 -0.0792
  776MOL0     H 4696   4.409  -0.148   1.533 -3.0849 -1.9798 -2.4499
  776MOL0     H 4697   4.415  -0.212   1.774  2.4365 -0.2108 -2.2022
  776MOL0     H 4698   4.238  -0.207   1.771 -0.1396 -0.8136 -0.3796
  776MOL0     H 4699   4.220  -0.396   1.608 -0.2162  0.1181 -0.2977
  776MOL0     H 4700   4.387  -0.405   1.589 -4.6736 -1.1531 -3.9360
  776MOL0     H 4701   4.352  -0.400   1.876  1.2682  1.5316 -2.0443
  776MOL0     H 4702   4.202  -0.475   1.804 -0.6314  2.0693 -0.7238
  776MOL0     H 4703   4.308  -0.643   1.688 -0.3746 -2.5249  1.2023
  776MOL0     H 4704   4.470  -0.582   1.737  0.2663  0.1243  0.7247
  776MOL0     H 4705   4.404  -0.608   1.982  0.1759 -0.2149  0.5346
  776MOL0     H 4706   4.258  -0.698   1.929 -0.5541 -2.4535 -1.5323
  776MOL0     H 4707   4.358  -0.867   1.846  1.3830 -0.4265 -0.8751
  776MOL0     H 4708   4.519  -0.785   1.822 -0.1932  0.4750 -0.6495
  776MOL0     H 4709   4.376  -0.868   2.085 -0.3723  1.7884 -0.2926
  776MOL0     H 4710   4.519  -0.780   2.070 -1.9555  2.0787 -0.3745
  776MOL0     H 4711   4.702  -0.947   1.881 -0.7159 -0.0065  0.2871
  776MOL0     H 4712   4.814  -1.211   1.809  0.5326 -0.7087  0.0071
  776MOL0     H 4713   4.891  -1.195   1.963  0.3095 -0.7696 -1.0662
  776MOL0     H 4714   4.685  -1.417   1.921 -0.7485  1.8565 -0.9454
  776MOL0     H 4715   4.815  -1.406   2.042  0.1284 -0.2707  0.0414
  776MOL0     H 4716   4.934  -1.410   1.778 -1.8422  2.7503  1.3111
  776MOL0     H 4717   4.782  -1.508   1.772 -0.3866 -3.2254  1.8056
  776MOL0     H 4718   5.037  -1.563   1.926  1.4700 -1.7480 -1.9672
  776MOL0     H 4719   4.961  -1.675   1.820  1.8260  0.0003 -0.1681
  776MOL0     H 4720   4.700  -1.740   1.802 -1.1335  0.3007  0.5965
  776MOL0     H 4721   4.660  -1.875   1.641  0.7561 -1.3837 -1.3562
  776MOL0     H 4722   4.698  -2.045   1.640  2.2974 -0.0067  2.8490
  776MOL0     H 4723   4.541  -1.989   1.699 -0.5280  1.3295 -0.4637
  776MOL0     H 4724   4.409  -2.298   1.746 -0.2249 -0.8251 -0.0695
  776MOL0     H 4725   4.299  -2.503   1.737 -0.7678  1.6775  2.5210
  776MOL0     H 4726   4.515  -2.901   1.898  0.3715  1.8039 -0.0220
  776MOL0     H 4727   4.480  -2.791   2.032 -1.1179  0.7610  0.1279
  776MOL0     H 4728   4.241  -2.849   2.006  1.3401  2.8081 -4.4364
  776MOL0     H 4729   4.275  -2.984   1.898 -1.1041 -0.0886  0.2002
  776MOL0     H 4730   4.375  -2.988   2.185  4.1015 -1.4354 -1.7423
  776MOL0     H 4731   4.382  -3.119   2.068  0.4276  2.0624 -5.1448
  776MOL0     H 4732   4.152  -2.958   2.169  2.9768  1.1008  1.1478
  776MOL0     H 4733   4.115  -3.097   2.069 -1.2411 -3.4785  2.5400
  776MOL0     H 4734   4.228  -3.120   2.350  0.5334 -0.1300 -0.6896
  776MOL0     H 4735   4.222  -3.251   2.236 -2.5462 -0.8496 -2.1661
  776MOL0     H 4736   3.966  -3.126   2.324 -1.5415 -0.0381 -3.8234
  776MOL0     H 4737   3.980  -3.228   2.198 -0.6866  1.5404 -0.3789
  776MOL0     H 4738   4.104  -3.274   2.487 -0.7693  1.4676 -0.7509
  776MOL0     H 4739   4.117  -3.394   2.370  0.4745  1.1109 -2.3706
  776MOL0     H 4740   3.914  -3.491   2.466 -3.7165 -0.1005 -0.7391
  776MOL0     H 4741   3.850  -3.385   2.339  0.1580  1.2135 -0.9392
  776MOL0     H 4742   4.657  -2.698   1.914 -2.2215 -2.0514  3.2436
  776MOL0     H 4743   4.753  -2.493   1.936  1.0260  0.8324  0.3425
  776MOL0     H 4744   4.900  -2.080   2.099 -1.4615 -1.4164 -0.6092
  776MOL0     H 4745   4.902  -1.846   2.165  1.1587  0.0869 -1.8406
  776MOL0     H 4746   4.107   0.038   1.508 -0.9633  0.6968  0.5405
  776MOL0     H 4747   4.043   0.273   1.422  1.3426  1.9357 -2.3872
  776MOL0     H 4748   3.979   0.622   1.384 -1.5304  1.7899  0.1236
  776MOL0     H 4749   3.844   0.821   1.368 -0.3658  0.4234 -1.5539
  776MOL0     H 4750   4.042   1.240   1.404 -1.5266 -0.0238  1.6448
  776MOL0     H 4751   4.017   1.179   1.232  1.4013 -1.3564  0.9540
  776MOL0     H 4752   3.792   1.277   1.256  0.4155  1.6484 -0.5510
  776MOL0     H 4753   3.899   1.412   1.306  1.4439  0.3045  1.0612
  776MOL0     H 4754   3.760   1.205   1.469  0.8530  0.1653  2.1646
  776MOL0     H 4755   3.701   1.373   1.455 -1.5356 -2.0741  3.8469
  776MOL0     H 4756   3.944   1.425   1.561 -0.0088  0.8594 -1.3749
  776MOL0     H 4757   3.940   1.257   1.597  0.1851  0.3698  1.5640
  776MOL0     H 4758   3.705   1.434   1.893  1.5316  0.2720  0.1897
  776MOL0     H 4759   4.199   1.062   1.362 -1.2642 -0.2521 -1.5853
  776MOL0     H 4760   4.339   0.859   1.340 -1.2890 -0.7311 -1.4185
  777MOL0     O 4761  10.264   6.781   2.741 -0.3760  0.2783  0.3146
  777MOL0     C 4762  10.313   6.789   2.853  0.5043  0.1834 -0.1545
  777MOL0     O 4763  10.256   6.743   2.963  0.1821  0.1429 -0.6337
  777MOL0     C 4764  10.133   6.683   2.960 -0.1275 -0.7204 -0.5489
  777MOL0     C 4765  10.105   6.575   2.873  0.3611  0.2764  0.1641
  777MOL0     C 4766   9.976   6.516   2.874  0.0733 -1.1891 -0.0162
  777MOL0     C 4767   9.882   6.550   2.973  0.5717 -0.9265  0.2237
  777MOL0     O 4768   9.763   6.477   2.985 -0.3382  0.0172 -0.7817
  777MOL0     C 4769   9.695   6.464   3.113  0.2780  0.6766  0.1130
  777MOL0     C 4770   9.776   6.356   3.183  0.6704  0.6744 -0.1427
  777MOL0     C 4771   9.767   6.212   3.106 -0.3669 -1.7060 -1.0206
  777MOL0     C 4772   9.798   6.087   3.191  1.0472 -0.2297  0.0508
  777MOL0     C 4773   9.772   5.960   3.114 -0.0022 -0.1103 -0.6874
  777MOL0     C 4774   9.751   5.842   3.216  0.2980  0.8976 -1.0422
  777MOL0     C 4775   9.602   5.821   3.259 -1.2773 -0.3567  0.6377
  777MOL0     C 4776   9.588   5.747   3.392  0.1002 -0.6198 -1.6200
  777MOL0     N 4777   9.670   5.793   3.504 -0.3409  0.5543 -0.6304
  777MOL0     C 4778   9.665   5.924   3.554 -0.5183  0.0054  0.8293
  777MOL0     C 4779   9.748   5.915   3.659  0.0653 -1.1658  0.4102
  777MOL0     C 4780   9.761   6.037   3.740 -0.2705 -0.4638 -0.0337
  777MOL0     C 4781   9.682   6.008   3.865 -0.3229 -0.4822 -0.2110
  777MOL0     C 4782   9.670   6.139   3.951 -0.2758 -0.4957  0.1146
  777MOL0     C 4783   9.617   6.112   4.086 -0.0620 -0.1634  0.0194
  777MOL0     O 4784   9.601   6.233   4.171  0.2511 -0.6496  0.3117
  777MOL0     C 4785   9.478   6.301   4.147 -0.0647  0.6296 -0.5680
  777MOL0     C 4786   9.456   6.429   4.204 -0.1186 -0.2129  0.1298
  777MOL0     C 4787   9.334   6.489   4.200  0.0710 -1.0151 -0.8493
  777MOL0     C 4788   9.319   6.626   4.266 -0.2379  0.3636  0.0108
  777MOL0     C 4789   9.229   6.446   4.113 -0.1413 -0.0318  0.0127
  777MOL0     C 4790   9.097   6.499   4.105 -0.2159 -1.1926 -0.2484
  777MOL0     O 4791   9.020   6.452   4.005  0.3358  0.2507 -0.0543
  777MOL0     C 4792   8.889   6.482   3.999 -0.2276 -0.0633  0.1701
  777MOL0     C 4793   8.848   6.616   3.960 -0.0098  0.5940  0.5027
  777MOL0     C 4794   8.715   6.650   3.972  0.3018 -0.6576  0.3633
  777MOL0     C 4795   8.612   6.558   4.002 -0.6096  0.9123  0.9250
  777MOL0     O 4796   8.486   6.587   4.023 -0.5370 -0.4798 -0.4956
  777MOL0     C 4797   8.450   6.727   4.066  0.1108 -0.3996 -0.1825
  777MOL0     C 4798   8.308   6.744   4.118  0.6340 -0.4425  0.3159
  777MOL0     C 4799   8.196   6.722   4.010  0.1717  0.0394 -0.4653
  777MOL0     C 4800   8.065   6.677   4.081  0.0878 -0.1099  0.8836
  777MOL0     C 4801   7.935   6.708   4.012  0.2794  0.4288 -0.0292
  777MOL0     C 4802   7.804   6.680   4.090 -0.4415 -0.2327  0.2366
  777MOL0     C 4803   7.773   6.530   4.114  0.3240 -0.6425  0.2154
  777MOL0     C 4804   7.631   6.515   4.173  0.2762 -0.3014 -0.2964
  777MOL0    Cl 4805   7.500   6.392   4.116  0.0258 -0.3014  0.0204
  777MOL0     C 4806   8.656   6.421   4.026 -0.4991  0.2140 -0.3476
  777MOL0     C 4807   8.790   6.387   4.028 -1.4230 -0.5953  0.2362
  777MOL0     O 4808   9.065   6.589   4.180  0.0747 -0.8902 -0.2824
  777MOL0     C 4809   9.260   6.336   4.037 -1.0543 -0.3207 -0.4891
  777MOL0     C 4810   9.373   6.257   4.057 -0.2805 -0.9271  0.2516
  777MOL0     N 4811   9.792   5.790   3.680  0.0874  0.2020 -0.3687
  777MOL0     N 4812   9.747   5.713   3.586  0.7884 -0.3466 -1.1580
  777MOL0     C 4813   9.908   6.670   3.045  0.0406  0.5955  0.2604
  777MOL0     C 4814  10.031   6.735   3.044 -0.3120  0.1287  0.2093
  777MOL0     C 4815  10.446   6.849   2.857  0.3376 -0.0984 -0.0054
  777MOL0     C 4816  10.488   6.929   2.747  0.1209  0.4639 -0.0182
  777MOL0     C 4817  10.617   6.989   2.753 -0.2572  0.8563  0.4088
  777MOL0     C 4818  10.703   6.978   2.867 -1.0993 -0.2600 -0.0059
  777MOL0     O 4819  10.826   7.032   2.883  0.1964 -0.6415  0.6651
  777MOL0     C 4820  10.866   7.138   2.792 -0.9444 -0.5696 -0.8364
  777MOL0     C 4821  11.012   7.162   2.836  0.3569  0.7877  0.0841
  777MOL0     C 4822  11.098   7.046   2.797 -0.5068  0.7328  0.0468
  777MOL0     C 4823  11.245   7.065   2.840 -0.6997  0.3613  0.1531
  777MOL0     C 4824  11.337   6.973   2.785 -0.3129  0.4322  0.6757
  777MOL0     C 4825  11.423   6.918   2.716  0.1896  0.7794  0.0723
  777MOL0     C 4826  10.646   6.903   2.972 -0.5800  0.4771  0.0408
  777MOL0     C 4827  10.527   6.838   2.967 -0.4161  0.1299  0.2739
  777MOL0     H 4828  10.174   6.541   2.797 -2.6747  3.3136 -4.4766
  777MOL0     H 4829   9.964   6.431   2.808  0.4237  1.1938 -3.4012
  777MOL0     H 4830   9.693   6.555   3.173  4.0811  2.0133 -1.4468
  777MOL0     H 4831   9.593   6.426   3.117  0.2053  0.9539  2.9540
  777MOL0     H 4832   9.883   6.380   3.182  0.6000  0.9854 -0.4841
  777MOL0     H 4833   9.727   6.343   3.280  1.3922  0.6569  0.2236
  777MOL0     H 4834   9.666   6.198   3.067  0.0458 -0.5678 -2.5737
  777MOL0     H 4835   9.838   6.216   3.023  0.3441 -0.2064 -0.3870
  777MOL0     H 4836   9.900   6.083   3.230  0.7156  2.1660  1.3657
  777MOL0     H 4837   9.734   6.096   3.280  0.6403  4.7953 -0.4553
  777MOL0     H 4838   9.694   5.976   3.040  1.5243 -0.2978 -2.4276
  777MOL0     H 4839   9.857   5.934   3.049  0.2288 -2.5202  0.4541
  777MOL0     H 4840   9.796   5.753   3.171 -0.4754 -0.8315  1.4115
  777MOL0     H 4841   9.807   5.855   3.309  0.5844 -3.4157 -0.4044
  777MOL0     H 4842   9.557   5.920   3.266 -1.3143 -0.1668 -1.6816
  777MOL0     H 4843   9.542   5.763   3.189  0.4141  0.8431 -1.9349
  777MOL0     H 4844   9.602   5.640   3.374  4.2688 -0.6171  0.3736
  777MOL0     H 4845   9.490   5.767   3.436  0.6149  0.5641 -0.9745
  777MOL0     H 4846   9.615   6.013   3.520  0.2481  0.0720 -0.1606
  777MOL0     H 4847   9.866   6.045   3.771 -0.2805  1.3849 -0.3518
  777MOL0     H 4848   9.729   6.133   3.696  0.9723 -0.5304 -1.1686
  777MOL0     H 4849   9.728   5.926   3.920  2.8263 -1.0795 -3.3381
  777MOL0     H 4850   9.577   5.986   3.843 -1.7732  2.5251  2.7914
  777MOL0     H 4851   9.603   6.212   3.905  1.9081  2.4589  1.3028
  777MOL0     H 4852   9.767   6.189   3.943 -0.6293  0.3244  0.7029
  777MOL0     H 4853   9.697   6.057   4.137 -0.2184  0.8220  1.4029
  777MOL0     H 4854   9.528   6.050   4.086 -0.4389  0.3437 -1.4506
  777MOL0     H 4855   9.544   6.466   4.256  0.0151 -2.7534  1.9386
  777MOL0     H 4856   9.239   6.621   4.340 -1.6967  0.4692 -1.5121
  777MOL0     H 4857   9.412   6.663   4.310  0.6900 -1.7425 -0.0436
  777MOL0     H 4858   9.296   6.699   4.188 -0.8116  2.3152  1.8897
  777MOL0     H 4859   8.926   6.690   3.942  1.4547 -0.6544  1.4554
  777MOL0     H 4860   8.690   6.754   3.953  2.0469 -0.5896 -2.0186
  777MOL0     H 4861   8.506   6.758   4.154  0.3206 -0.6868 -0.2170
  777MOL0     H 4862   8.454   6.799   3.984 -3.4656  4.4924  3.3407
  777MOL0     H 4863   8.295   6.677   4.203  0.3973 -1.4054 -0.4550
  777MOL0     H 4864   8.293   6.848   4.148  0.4839  0.2386 -1.8994
  777MOL0     H 4865   8.224   6.639   3.944  1.1942 -0.3087  0.3603
  777MOL0     H 4866   8.174   6.814   3.956  2.2969 -0.6918 -2.7647
  777MOL0     H 4867   8.060   6.569   4.093  0.0015 -0.2486 -0.2797
  777MOL0     H 4868   8.068   6.721   4.181 -3.6749  2.0407  0.2718
  777MOL0     H 4869   7.930   6.641   3.926 -4.0770 -0.4001  0.6484
  777MOL0     H 4870   7.934   6.811   3.974 -0.9606  0.1446 -0.8002
  777MOL0     H 4871   7.815   6.735   4.183 -2.1179  1.3384 -0.4400
  777MOL0     H 4872   7.720   6.730   4.041 -1.3685  1.6222  3.4710
  777MOL0     H 4873   7.841   6.480   4.183 -2.3113 -1.1428  2.6368
  777MOL0     H 4874   7.784   6.497   4.011  0.4827 -2.4610  0.7853
  777MOL0     H 4875   7.578   6.611   4.173 -0.2943 -0.5467  2.4160
  777MOL0     H 4876   7.633   6.507   4.282 -0.6647  3.0173  0.0914
  777MOL0     H 4877   8.567   6.363   4.052 -1.2749  1.4034 -0.2803
  777MOL0     H 4878   8.822   6.285   4.043  1.6225  0.4351  1.6633
  777MOL0     H 4879   9.189   6.306   3.961  0.0010 -1.8562 -0.9089
  777MOL0     H 4880   9.373   6.176   3.984  0.5113  1.4842 -2.6429
  777MOL0     H 4881   9.830   6.713   3.106 -2.2835 -1.7451 -0.8540
  777MOL0     H 4882  10.051   6.823   3.106  2.8576 -1.0532  1.0727
  777MOL0     H 4883  10.428   6.936   2.657 -0.2051 -0.4080  0.1138
  777MOL0     H 4884  10.647   7.045   2.665  0.7909  0.3489  0.4295
  777MOL0     H 4885  10.855   7.117   2.685  0.8774  4.6215 -2.3300
  777MOL0     H 4886  10.810   7.230   2.815 -0.2314 -0.1872 -0.5957
  777MOL0     H 4887  11.017   7.169   2.945  0.8739  0.4796  0.0855
  777MOL0     H 4888  11.048   7.251   2.783  2.6020  2.1158  3.5228
  777MOL0     H 4889  11.092   7.041   2.688 -1.7195 -1.9057  0.1550
  777MOL0     H 4890  11.059   6.954   2.843 -4.0863  2.4338  0.7758
  777MOL0     H 4891  11.260   7.072   2.948  0.6412  5.0553 -0.1418
  777MOL0     H 4892  11.271   7.164   2.802  2.4225 -0.7624 -0.9002
  777MOL0     H 4893  11.498   6.890   2.645  0.7335  1.4661  0.3533
  777MOL0     H 4894  10.705   6.895   3.063 -0.0353 -0.4270 -0.3765
  777MOL0     H 4895  10.502   6.774   3.051 -2.4464  0.0051 -0.3816
  778MOL0     O 4896   2.647   8.259   6.902 -0.5623  0.8266  0.9402
  778MOL0     C 4897   2.673   8.360   6.965  0.2337 -0.5075 -0.8230
  778MOL0     O 4898   2.646   8.483   6.932 -0.4649 -0.8778 -0.3889
  778MOL0     C 4899   2.560   8.510   6.828 -0.5022 -0.2760 -0.2950
  778MOL0     C 4900   2.427   8.480   6.840  0.3283  0.2251  0.1108
  778MOL0     C 4901   2.349   8.493   6.726  0.2693  0.1058 -0.5295
  778MOL0     C 4902   2.401   8.536   6.607 -0.4609 -0.6577  0.0007
  778MOL0     O 4903   2.303   8.544   6.511 -0.1241 -0.7452 -0.1499
  778MOL0     C 4904   2.346   8.618   6.399  0.5461 -0.4582 -0.1753
  778MOL0     C 4905   2.252   8.630   6.285 -0.7147  0.1369 -0.8588
  778MOL0     C 4906   2.321   8.696   6.160 -0.6164 -0.4596  1.1346
  778MOL0     C 4907   2.227   8.729   6.042  0.0340  0.1705 -0.5098
  778MOL0     C 4908   2.143   8.604   5.990  0.1528 -0.2303 -0.3103
  778MOL0     C 4909   2.043   8.648   5.890  0.4019 -0.1701  0.4927
  778MOL0     C 4910   1.954   8.528   5.843  0.6249 -1.5017 -0.2874
  778MOL0     C 4911   2.024   8.419   5.749 -0.2646  0.4421  0.3789
  778MOL0     N 4912   2.131   8.348   5.822  0.7586 -0.0465 -0.0865
  778MOL0     C 4913   2.122   8.271   5.936  0.6148 -0.5056 -1.2138
  778MOL0     C 4914   2.247   8.222   5.962  0.3816  0.0521  0.1958
  778MOL0     C 4915   2.262   8.128   6.073 -0.3287  0.4657 -0.5988
  778MOL0     C 4916   2.267   7.974   6.054 -0.1616 -0.8781 -0.2602
  778MOL0     C 4917   2.237   7.915   6.190  0.2204 -0.3872 -0.5273
  778MOL0     C 4918   2.276   7.766   6.204  1.3008 -0.4158 -0.3924
  778MOL0     O 4919   2.204   7.700   6.094 -0.2886 -0.5201  0.1201
  778MOL0     C 4920   2.270   7.617   6.006 -0.0071  0.0894  0.2768
  778MOL0     C 4921   2.345   7.513   6.050 -0.3804 -0.0164  0.0887
  778MOL0     C 4922   2.413   7.428   5.953 -0.1364  0.4486 -1.1815
  778MOL0     C 4923   2.470   7.294   6.014 -0.7126 -1.0802  0.8727
  778MOL0     C 4924   2.403   7.466   5.817 -0.6106  0.4871 -0.2118
  778MOL0     C 4925   2.483   7.395   5.712  0.8759  0.8054  0.8756
  778MOL0     O 4926   2.502   7.459   5.591  1.3402 -0.9648  0.0218
  778MOL0     C 4927   2.553   7.387   5.493 -0.9915 -0.5995  0.2744
  778MOL0     C 4928   2.492   7.276   5.442 -0.1730  0.4432 -0.3297
  778MOL0     C 4929   2.553   7.220   5.326  0.2242  0.5786 -0.4871
  778MOL0     C 4930   2.679   7.265   5.273 -0.4903 -0.3420 -0.6319
  778MOL0     O 4931   2.755   7.216   5.164 -0.6570  0.3406  0.4417
  778MOL0     C 4932   2.678   7.156   5.052 -0.0729 -0.3242 -0.5808
  778MOL0     C 4933   2.752   7.136   4.921  0.3296  0.5101  0.2009
  778MOL0     C 4934   2.821   7.000   4.908  0.8889  0.0413 -0.1578
  778MOL0     C 4935   2.926   6.969   5.006 -0.3571  0.8270 -0.4027
  778MOL0     C 4936   2.977   6.826   4.984  0.2128  0.3662 -0.5339
  778MOL0     C 4937   3.092   6.777   5.083 -0.1733  0.1804  0.4952
  778MOL0     C 4938   3.148   6.640   5.040  0.2657  0.0325  0.4785
  778MOL0     C 4939   3.274   6.599   5.115 -0.1513 -1.0067  0.4290
  778MOL0    Cl 4940   3.234   6.577   5.296 -0.3593  0.0563 -0.2112
  778MOL0     C 4941   2.736   7.386   5.333 -0.0430  1.6513  0.5013
  778MOL0     C 4942   2.669   7.435   5.442 -0.1766 -0.4777  0.0558
  778MOL0     O 4943   2.502   7.276   5.735  0.8539  0.6227 -0.5066
  778MOL0     C 4944   2.337   7.585   5.778 -0.7426 -0.5361 -1.0550
  778MOL0     C 4945   2.265   7.654   5.878  0.0456 -0.9424 -0.2520
  778MOL0     N 4946   2.335   8.278   5.862  0.6486  0.6499 -0.2517
  778MOL0     N 4947   2.260   8.348   5.777  0.5031  0.5593 -0.5226
  778MOL0     C 4948   2.529   8.593   6.599  0.3733  0.3862  0.0910
  778MOL0     C 4949   2.607   8.569   6.708 -0.4012  0.3423  0.1164
  778MOL0     C 4950   2.721   8.335   7.098  0.4813  0.4065 -1.7882
  778MOL0     C 4951   2.762   8.439   7.195  0.3901  1.5359 -0.3725
  778MOL0     C 4952   2.795   8.415   7.334  0.0121 -0.0625  0.5323
  778MOL0     C 4953   2.788   8.286   7.383  0.2132 -0.0302 -0.0305
  778MOL0     O 4954   2.842   8.275   7.503  0.5640  0.5591  0.4210
  778MOL0     C 4955   2.901   8.151   7.555  0.0470 -0.2478  0.4091
  778MOL0     C 4956   2.975   8.178   7.692 -0.0404  0.1172 -0.0008
  778MOL0     C 4957   3.102   8.249   7.668 -0.1862  0.6641  0.0054
  778MOL0     C 4958   3.160   8.309   7.810  0.7672  0.3042  0.7642
  778MOL0     C 4959   3.299   8.358   7.797 -0.1111 -0.0999 -0.1260
  778MOL0     C 4960   3.415   8.400   7.782 -0.6157 -0.0439  0.6477
  778MOL0     C 4961   2.746   8.180   7.301  0.4249  0.1446  0.5687
  778MOL0     C 4962   2.725   8.201   7.157  0.7332  1.1464 -0.1163
  778MOL0     H 4963   2.378   8.453   6.933  1.2046 -3.4057 -0.3214
  778MOL0     H 4964   2.244   8.469   6.739 -0.3027  0.9877 -2.9132
  778MOL0     H 4965   2.373   8.719   6.431 -2.8274  1.1618 -1.9560
  778MOL0     H 4966   2.431   8.567   6.352  0.5867  0.6797 -1.3954
  778MOL0     H 4967   2.217   8.533   6.248 -2.4056 -0.0865  1.0857
  778MOL0     H 4968   2.173   8.688   6.334  0.7767  1.5502 -0.0428
  778MOL0     H 4969   2.359   8.791   6.200  0.1754 -1.0213  1.7545
  778MOL0     H 4970   2.412   8.641   6.133 -0.5147 -1.2086  2.8808
  778MOL0     H 4971   2.164   8.813   6.075  0.2143  0.2445 -0.3506
  778MOL0     H 4972   2.294   8.756   5.960  0.1202 -3.1691 -1.6775
  778MOL0     H 4973   2.212   8.538   5.936 -1.9779 -3.3327  0.5580
  778MOL0     H 4974   2.087   8.565   6.075  0.2998  0.7698  0.2606
  778MOL0     H 4975   1.976   8.723   5.933 -0.4413 -0.9867  0.6493
  778MOL0     H 4976   2.083   8.692   5.798  0.3685 -0.8228  0.1604
  778MOL0     H 4977   1.919   8.471   5.930 -4.1773 -0.8531 -1.4612
  778MOL0     H 4978   1.870   8.576   5.791  1.5757  2.9924  1.8043
  778MOL0     H 4979   2.066   8.462   5.658  1.1420 -0.6982  0.4537
  778MOL0     H 4980   1.951   8.346   5.712  1.3250 -2.2015  2.1274
  778MOL0     H 4981   2.027   8.259   5.987  0.2206  1.0613 -1.5110
  778MOL0     H 4982   2.349   8.167   6.127 -1.8844  0.8243  1.7733
  778MOL0     H 4983   2.180   8.142   6.144  0.9948 -0.3968  1.1810
  778MOL0     H 4984   2.366   7.944   6.020  1.5613 -1.2149  4.3253
  778MOL0     H 4985   2.195   7.951   5.974 -0.1439  0.9270 -0.8325
  778MOL0     H 4986   2.130   7.925   6.208 -0.0299  0.8123 -2.3365
  778MOL0     H 4987   2.302   7.971   6.257  2.0400 -0.5836 -2.0285
  778MOL0     H 4988   2.250   7.726   6.303 -1.1541  1.4376 -0.1949
  778MOL0     H 4989   2.385   7.762   6.195  1.4901 -0.8573  1.5730
  778MOL0     H 4990   2.330   7.490   6.155  0.4265  0.0301  0.2193
  778MOL0     H 4991   2.463   7.294   6.124 -0.9081 -1.2365  0.8610
  778MOL0     H 4992   2.411   7.212   5.972 -0.6210 -0.5129 -0.3965
  778MOL0     H 4993   2.576   7.273   5.997 -0.1783 -1.5301  4.0515
  778MOL0     H 4994   2.405   7.242   5.497 -0.5476  1.0295 -0.5503
  778MOL0     H 4995   2.520   7.132   5.272  0.9218 -0.8851  1.3817
  778MOL0     H 4996   2.655   7.059   5.097  1.1088  1.3633  4.2843
  778MOL0     H 4997   2.584   7.209   5.041 -1.6360 -2.6396  0.6480
  778MOL0     H 4998   2.686   7.140   4.834 -2.2886  0.4702  2.0632
  778MOL0     H 4999   2.832   7.210   4.912 -0.2198  0.9812 -0.9572
  778MOL0     H 5000   2.858   7.000   4.805 -1.6749  0.4838 -1.1481
  778MOL0     H 5001   2.743   6.924   4.909  2.0396 -1.2001  2.2181
  778MOL0     H 5002   3.011   7.034   4.984  1.5435 -1.6484 -0.9077
  778MOL0     H 5003   2.903   6.978   5.113 -2.0921 -1.6526 -0.4851
  778MOL0     H 5004   3.021   6.828   4.884 -2.0029 -2.9710 -1.7471
  778MOL0     H 5005   2.900   6.747   4.986  3.4076 -3.0888  2.6229
  778MOL0     H 5006   3.168   6.856   5.082 -0.2018  0.2235  1.0883
  778MOL0     H 5007   3.066   6.765   5.189 -3.0754 -1.4031 -0.3079
  778MOL0     H 5008   3.180   6.635   4.935  3.9701 -1.3123  1.4983
  778MOL0     H 5009   3.069   6.570   5.069 -0.9419  1.5549  1.0288
  778MOL0     H 5010   3.355   6.668   5.091  1.0621 -3.0897 -1.9644
  778MOL0     H 5011   3.315   6.513   5.062  0.6733 -1.3594  1.6251
  778MOL0     H 5012   2.830   7.427   5.299  0.8895 -1.2173 -0.6560
  778MOL0     H 5013   2.717   7.521   5.486 -1.6500 -0.4013  1.6172
  778MOL0     H 5014   2.332   7.607   5.672 -2.2098 -1.8421 -1.2839
  778MOL0     H 5015   2.213   7.741   5.840 -3.4301 -1.9524  1.7593
  778MOL0     H 5016   2.564   8.633   6.504  1.4115  3.7373  1.7277
  778MOL0     H 5017   2.709   8.601   6.689 -0.5223 -0.2056 -1.7548
  778MOL0     H 5018   2.772   8.537   7.152  2.1504  0.6346 -2.1762
  778MOL0     H 5019   2.823   8.501   7.394  1.6291  2.1586 -3.0813
  778MOL0     H 5020   2.819   8.083   7.580 -0.3919  0.3090  0.4767
  778MOL0     H 5021   2.970   8.102   7.485  0.8793 -0.2431  1.2007
  778MOL0     H 5022   3.000   8.091   7.752  0.5629  0.0654 -0.3215
  778MOL0     H 5023   2.908   8.239   7.753  0.1072  0.3431 -0.0612
  778MOL0     H 5024   3.092   8.325   7.591  0.0053  0.9147  0.2272
  778MOL0     H 5025   3.176   8.180   7.626  1.3296  0.4699  2.7413
  778MOL0     H 5026   3.143   8.233   7.888  1.0225 -1.3098 -0.6852
  778MOL0     H 5027   3.101   8.399   7.830  2.0887  1.2536  0.4994
  778MOL0     H 5028   3.520   8.418   7.774 -0.8263  1.9237  1.6747
  778MOL0     H 5029   2.747   8.077   7.336 -3.5016  0.1430  1.1292
  778MOL0     H 5030   2.707   8.114   7.095  0.8784  0.7464  0.3956
  779MOL0     O 5031   5.487   7.284   6.839 -0.3156  0.4454 -0.0699
  779MOL0     C 5032   5.396   7.310   6.761 -0.4647 -0.3063 -0.1809
  779MOL0     O 5033   5.283   7.379   6.795 -0.2366 -0.6435  0.0494
  779MOL0     C 5034   5.276   7.431   6.920  0.5087 -0.1371 -0.2202
  779MOL0     C 5035   5.240   7.569   6.934 -0.5183  1.3477 -0.4161
  779MOL0     C 5036   5.226   7.640   7.048  0.1295 -0.1587  0.1491
  779MOL0     C 5037   5.243   7.583   7.166  0.5230  0.2323 -0.0967
  779MOL0     O 5038   5.214   7.639   7.290  0.3423 -0.3203 -0.5604
  779MOL0     C 5039   5.174   7.776   7.300 -0.0445 -0.3957  0.7339
  779MOL0     C 5040   5.170   7.827   7.440  0.1805  0.0218 -0.0698
  779MOL0     C 5041   5.134   7.975   7.454 -0.8725  0.0195 -0.5800
  779MOL0     C 5042   5.116   8.023   7.597 -0.8053 -0.3119  0.2701
  779MOL0     C 5043   4.998   7.959   7.674 -0.3825  0.1922  0.3160
  779MOL0     C 5044   4.999   7.988   7.826  0.3974  0.4956 -0.1812
  779MOL0     C 5045   4.950   8.137   7.859 -0.4810 -0.0321  0.2492
  779MOL0     C 5046   4.968   8.162   8.011 -0.7648 -0.2326 -0.4085
  779MOL0     N 5047   4.876   8.074   8.080  0.3645  0.8074  0.0372
  779MOL0     C 5048   4.908   7.956   8.147  0.0740  0.9206  0.1084
  779MOL0     C 5049   4.801   7.946   8.233  0.3835  0.0150 -0.1561
  779MOL0     C 5050   4.780   7.847   8.347  0.3584 -0.2764  0.1550
  779MOL0     C 5051   4.727   7.710   8.302 -0.3385  0.5439  0.1009
  779MOL0     C 5052   4.573   7.709   8.287 -0.1738 -0.4963  0.1106
  779MOL0     C 5053   4.511   7.564   8.271 -0.1883 -0.5888 -0.7007
  779MOL0     O 5054   4.578   7.509   8.160  0.1005  0.4442  0.7017
  779MOL0     C 5055   4.517   7.512   8.032  0.0255 -0.2683  0.4610
  779MOL0     C 5056   4.551   7.412   7.944  0.0434  0.9755 -0.1881
  779MOL0     C 5057   4.503   7.405   7.817 -0.0585  0.9850 -0.7658
  779MOL0     C 5058   4.556   7.287   7.728  0.3744 -0.9465 -0.3202
  779MOL0     C 5059   4.419   7.503   7.774  0.8653 -0.8901  0.1568
  779MOL0     C 5060   4.356   7.512   7.640  0.8676 -0.8118  0.4611
  779MOL0     O 5061   4.230   7.562   7.637  0.0789 -0.2217  0.6964
  779MOL0     C 5062   4.180   7.632   7.529  0.2927  0.1057 -0.5882
  779MOL0     C 5063   4.048   7.679   7.544  0.3830  0.4794  0.5474
  779MOL0     C 5064   3.970   7.731   7.435  1.0217  0.1950  0.1908
  779MOL0     C 5065   4.026   7.742   7.309  0.0009 -0.3283  0.1763
  779MOL0     O 5066   3.957   7.796   7.199 -0.8931  0.0491  0.9089
  779MOL0     C 5067   3.820   7.809   7.204  0.9256 -0.6970 -0.6018
  779MOL0     C 5068   3.764   7.870   7.078  0.4893  0.7813 -0.1481
  779MOL0     C 5069   3.619   7.922   7.092 -1.0753  0.0378  0.0534
  779MOL0     C 5070   3.546   7.947   6.961  0.8486  0.1623 -0.2438
  779MOL0     C 5071   3.578   8.082   6.882  0.0415  0.4769  0.4151
  779MOL0     C 5072   3.491   8.097   6.758 -0.5752 -0.7147 -0.3870
  779MOL0     C 5073   3.551   8.202   6.653 -0.3436 -0.1287  0.7418
  779MOL0     C 5074   3.469   8.161   6.527  0.2061 -0.7955  0.9105
  779MOL0    Cl 5075   3.492   8.280   6.401 -0.0488 -0.2780 -0.3256
  779MOL0     C 5076   4.166   7.719   7.297  0.7225 -0.3269 -0.0293
  779MOL0     C 5077   4.238   7.661   7.403 -0.3031  0.3382 -0.3029
  779MOL0     O 5078   4.421   7.491   7.544 -0.5015 -0.4069  0.0337
  779MOL0     C 5079   4.368   7.601   7.867  0.3255 -0.0535  0.8939
  779MOL0     C 5080   4.420   7.607   7.990 -0.5060  0.6744 -0.9306
  779MOL0     N 5081   4.708   8.053   8.227 -0.3824  0.5215 -0.3387
  779MOL0     N 5082   4.765   8.128   8.135 -0.1400 -0.4605 -0.4455
  779MOL0     C 5083   5.272   7.444   7.167  0.2224  0.3385 -0.5851
  779MOL0     C 5084   5.300   7.374   7.052  0.8458 -0.3702  0.1796
  779MOL0     C 5085   5.387   7.233   6.638  0.8100  0.1482 -0.2624
  779MOL0     C 5086   5.298   7.282   6.542  0.1731 -0.0660 -0.1676
  779MOL0     C 5087   5.296   7.220   6.415 -0.2125 -1.7281 -1.2182
  779MOL0     C 5088   5.373   7.110   6.390 -0.1024 -0.0658 -0.2212
  779MOL0     O 5089   5.358   7.052   6.275 -0.1960  0.1598 -0.6760
  779MOL0     C 5090   5.295   6.932   6.267 -0.5944  0.1618  0.0440
  779MOL0     C 5091   5.297   6.863   6.141  0.8959  0.5854  0.0650
  779MOL0     C 5092   5.443   6.855   6.085 -0.8525  0.1853  0.0851
  779MOL0     C 5093   5.446   6.774   5.953 -0.3066 -0.8113  0.1198
  779MOL0     C 5094   5.454   6.861   5.828 -0.9084 -0.0329  1.3648
  779MOL0     C 5095   5.447   6.927   5.728  0.3535 -0.2750  0.3158
  779MOL0     C 5096   5.460   7.056   6.488 -0.1380  0.4114  1.2125
  779MOL0     C 5097   5.472   7.131   6.608  1.1249 -0.0958  0.0129
  779MOL0     H 5098   5.241   7.635   6.848 -0.1586 -0.1712 -1.6166
  779MOL0     H 5099   5.210   7.747   7.034  0.3845 -0.3246 -1.7471
  779MOL0     H 5100   5.257   7.828   7.251 -1.6426  2.1226  0.4859
  779MOL0     H 5101   5.078   7.800   7.255 -1.0250 -0.5447  2.6442
  779MOL0     H 5102   5.099   7.779   7.508 -0.4697  1.5708  0.3823
  779MOL0     H 5103   5.266   7.807   7.488 -0.3284 -1.9062  0.2288
  779MOL0     H 5104   5.213   8.026   7.398 -0.2952 -1.8513 -1.5405
  779MOL0     H 5105   5.037   7.991   7.405 -0.2319  0.0339 -1.8853
  779MOL0     H 5106   5.205   7.997   7.656 -1.2898 -2.5069  0.0941
  779MOL0     H 5107   5.105   8.132   7.598 -2.0898 -0.3987 -1.0077
  779MOL0     H 5108   4.904   7.987   7.626  0.8945  2.3500 -1.0637
  779MOL0     H 5109   5.007   7.851   7.657  0.8314  0.4002 -0.5127
  779MOL0     H 5110   4.935   7.912   7.873  2.9153 -2.3005 -0.9856
  779MOL0     H 5111   5.097   7.983   7.873  0.9508  2.0782 -1.1000
  779MOL0     H 5112   5.017   8.203   7.803  1.2680 -0.6308  1.5347
  779MOL0     H 5113   4.847   8.155   7.830 -0.7002  2.5502  2.2522
  779MOL0     H 5114   4.951   8.267   8.038 -0.2174 -0.6428  1.7417
  779MOL0     H 5115   5.073   8.146   8.036 -0.4902  0.8490 -0.8313
  779MOL0     H 5116   4.991   7.888   8.132 -1.9169 -1.8968  1.0784
  779MOL0     H 5117   4.874   7.839   8.402  2.0718  1.5100 -2.2863
  779MOL0     H 5118   4.719   7.886   8.429  2.9619  1.3550  1.4344
  779MOL0     H 5119   4.732   7.637   8.384  0.6855 -4.7319 -4.0960
  779MOL0     H 5120   4.787   7.660   8.225  0.9927 -1.5237  2.3290
  779MOL0     H 5121   4.547   7.764   8.196  1.9224 -1.1438 -0.9581
  779MOL0     H 5122   4.527   7.757   8.374 -1.6541 -3.0329  0.8267
  779MOL0     H 5123   4.402   7.563   8.258 -0.1692 -0.9525 -0.8351
  779MOL0     H 5124   4.534   7.495   8.352  0.4806 -2.2819 -2.2802
  779MOL0     H 5125   4.629   7.344   7.976 -0.1316  1.3634  1.1040
  779MOL0     H 5126   4.473   7.261   7.662  0.1703  0.5827 -0.7192
  779MOL0     H 5127   4.636   7.328   7.667 -2.0539  1.0462 -2.4323
  779MOL0     H 5128   4.599   7.204   7.785 -0.7270 -1.8090 -0.7099
  779MOL0     H 5129   3.999   7.650   7.637  1.5543 -2.2289  0.4041
  779MOL0     H 5130   3.871   7.763   7.466  1.2667 -0.6865  2.0447
  779MOL0     H 5131   3.772   7.711   7.214 -1.2791 -0.0355 -3.3161
  779MOL0     H 5132   3.785   7.876   7.282 -1.4375  1.6302 -3.4122
  779MOL0     H 5133   3.833   7.949   7.046  0.8346 -0.6364 -3.3389
  779MOL0     H 5134   3.773   7.785   7.009 -0.5218  1.3742 -1.0460
  779MOL0     H 5135   3.611   8.018   7.145 -5.5098  0.8731 -1.6991
  779MOL0     H 5136   3.560   7.842   7.136 -0.5315 -2.1387 -2.8881
  779MOL0     H 5137   3.564   7.858   6.900 -2.7694 -0.1291 -1.1059
  779MOL0     H 5138   3.439   7.952   6.986  1.2308  2.1812  1.2847
  779MOL0     H 5139   3.681   8.080   6.846 -0.4674  0.3552 -1.0737
  779MOL0     H 5140   3.548   8.160   6.953 -1.8826 -0.8227  1.1013
  779MOL0     H 5141   3.474   7.999   6.712  1.0194 -1.0197 -0.3639
  779MOL0     H 5142   3.399   8.138   6.802  0.8071  1.5180  0.6087
  779MOL0     H 5143   3.659   8.191   6.635 -0.2699  1.5793 -0.0904
  779MOL0     H 5144   3.530   8.302   6.691 -2.9707 -1.7383  4.0771
  779MOL0     H 5145   3.365   8.159   6.558  0.5384 -1.1501  2.0467
  779MOL0     H 5146   3.491   8.060   6.490 -0.6949 -0.8827  0.5858
  779MOL0     H 5147   4.215   7.735   7.201  1.4931  0.0424  0.4201
  779MOL0     H 5148   4.338   7.628   7.379 -0.6234 -0.7812 -0.1659
  779MOL0     H 5149   4.298   7.677   7.834 -0.5905 -1.5396 -0.7811
  779MOL0     H 5150   4.388   7.685   8.059 -0.4147  0.2469 -0.3998
  779MOL0     H 5151   5.295   7.392   7.259 -1.6373  0.7925  0.1698
  779MOL0     H 5152   5.351   7.280   7.065 -0.0966 -0.7982  0.8755
  779MOL0     H 5153   5.234   7.369   6.549 -1.5006 -1.0204 -2.2219
  779MOL0     H 5154   5.221   7.255   6.346 -0.4983 -2.5336 -1.3222
  779MOL0     H 5155   5.353   6.863   6.329  2.0901 -1.3338 -3.7593
  779MOL0     H 5156   5.189   6.942   6.290 -0.3083 -1.1203  2.1993
  779MOL0     H 5157   5.236   6.918   6.070  1.3743  0.8212 -0.1657
  779MOL0     H 5158   5.243   6.769   6.151 -2.4010  2.5309  2.4169
  779MOL0     H 5159   5.510   6.803   6.154 -1.8348  0.7505  1.5141
  779MOL0     H 5160   5.486   6.955   6.067 -3.1222  0.7515 -3.0156
  779MOL0     H 5161   5.361   6.707   5.936  0.4584 -0.8780 -4.4555
  779MOL0     H 5162   5.541   6.721   5.951  0.0522 -0.5450 -5.6875
  779MOL0     H 5163   5.436   6.987   5.640  3.0887 -0.5637 -0.2917
  779MOL0     H 5164   5.528   6.972   6.473  1.3789  1.5718  1.3716
  779MOL0     H 5165   5.551   7.100   6.676  0.8866  2.4078  1.5432
  780MOL0     O 5166  11.049   4.309   7.861 -0.2149 -0.1745  0.7096
  780MOL0     C 5167  11.155   4.373   7.837 -0.3248  0.4920 -0.9387
  780MOL0     O 5168  11.209   4.386   7.718 -0.3051 -0.4158  0.4644
  780MOL0     C 5169  11.129   4.380   7.611 -0.2749 -0.6037  0.0541
  780MOL0     C 5170  11.018   4.466   7.587 -0.5212 -0.5259 -1.1285
  780MOL0     C 5171  10.944   4.464   7.474 -0.5960 -0.0308 -0.2736
  780MOL0     C 5172  10.976   4.375   7.364  0.2344  0.7646 -0.3776
  780MOL0     O 5173  10.899   4.381   7.250  0.3353 -0.3999 -0.2123
  780MOL0     C 5174  10.929   4.297   7.135 -0.2261  0.1092 -0.0527
  780MOL0     C 5175  10.786   4.255   7.079  0.1654 -0.4482 -0.1194
  780MOL0     C 5176  10.796   4.175   6.955 -0.2172  0.0221  0.1858
  780MOL0     C 5177  10.662   4.139   6.896 -0.5421 -0.5197  0.5269
  780MOL0     C 5178  10.681   4.027   6.789  0.4952  0.1722 -0.5330
  780MOL0     C 5179  10.550   3.968   6.748 -0.1113  0.5337 -0.2162
  780MOL0     C 5180  10.460   4.077   6.685  0.0739 -0.2562  0.2295
  780MOL0     C 5181  10.491   4.098   6.538  0.1780  0.3897 -1.0571
  780MOL0     N 5182  10.402   4.193   6.474 -0.3080 -0.2011  0.8077
  780MOL0     C 5183  10.270   4.172   6.449  0.5329 -0.3407 -0.1470
  780MOL0     C 5184  10.220   4.296   6.414 -1.4538 -0.1197 -0.3423
  780MOL0     C 5185  10.085   4.339   6.388  0.1255 -0.2511  0.3207
  780MOL0     C 5186  10.043   4.293   6.242  0.1794  0.3340  0.5849
  780MOL0     C 5187  10.098   4.387   6.136 -0.3611 -0.7950 -0.2034
  780MOL0     C 5188  10.059   4.336   5.993  0.5531 -0.6110 -0.5103
  780MOL0     O 5189   9.922   4.356   5.954 -0.3458 -0.3400 -0.5043
  780MOL0     C 5190   9.877   4.303   5.838  0.2040 -0.2295  0.4346
  780MOL0     C 5191   9.752   4.258   5.822 -0.1501 -0.1257  0.3088
  780MOL0     C 5192   9.710   4.197   5.698 -0.9608 -0.0031 -1.0607
  780MOL0     C 5193   9.561   4.158   5.683 -0.4299  0.0444 -0.0931
  780MOL0     C 5194   9.799   4.199   5.587  0.1014  0.0380 -0.3383
  780MOL0     C 5195   9.773   4.150   5.448  0.2649  0.0277 -0.2145
  780MOL0     O 5196   9.878   4.107   5.378  0.3772 -0.1179  1.1580
  780MOL0     C 5197   9.859   4.010   5.291  0.3629 -0.5118 -0.2010
  780MOL0     C 5198   9.817   4.042   5.158 -0.6300  1.8019 -0.4784
  780MOL0     C 5199   9.800   3.936   5.077 -0.2458  0.1752  0.2203
  780MOL0     C 5200   9.815   3.806   5.114  0.5223  1.1823 -1.2032
  780MOL0     O 5201   9.811   3.699   5.030  0.1460 -0.2550  0.1033
  780MOL0     C 5202   9.686   3.693   4.959  0.3779 -0.2654 -0.5108
  780MOL0     C 5203   9.669   3.578   4.867 -0.6994 -0.8304 -0.4687
  780MOL0     C 5204   9.787   3.564   4.770 -0.5606 -0.2472 -0.3838
  780MOL0     C 5205   9.891   3.458   4.809  1.1361 -0.1854 -1.1446
  780MOL0     C 5206  10.021   3.451   4.722  0.8213 -0.5713  0.6405
  780MOL0     C 5207   9.985   3.368   4.594 -0.1002  0.0270 -0.0911
  780MOL0     C 5208  10.119   3.345   4.513  1.0719  0.1854  0.6017
  780MOL0     C 5209  10.101   3.281   4.378  0.0760  0.1600 -0.2924
  780MOL0    Cl 5210  10.256   3.297   4.291 -0.0119  0.0996  0.1599
  780MOL0     C 5211   9.838   3.773   5.243  0.3482  0.4459 -0.3550
  780MOL0     C 5212   9.870   3.872   5.331  0.4222 -0.4534  0.2851
  780MOL0     O 5213   9.657   4.153   5.412 -0.2601 -0.7839 -0.1837
  780MOL0     C 5214   9.928   4.245   5.611  0.1474  0.1339  0.2378
  780MOL0     C 5215   9.962   4.293   5.732  0.4898 -0.5626 -0.0062
  780MOL0     N 5216  10.318   4.386   6.408 -0.3708  0.4647 -0.0940
  780MOL0     N 5217  10.427   4.325   6.448 -0.0258  0.4792  0.5211
  780MOL0     C 5218  11.097   4.297   7.374  0.3839 -0.2609 -0.1816
  780MOL0     C 5219  11.168   4.309   7.495 -0.5177 -0.2665 -0.2708
  780MOL0     C 5220  11.233   4.417   7.954  0.0463 -0.6263  0.3620
  780MOL0     C 5221  11.162   4.434   8.077  0.0533 -0.5120  0.4725
  780MOL0     C 5222  11.220   4.483   8.196  0.1553  0.5750 -0.8993
  780MOL0     C 5223  11.357   4.499   8.206 -0.0344 -0.0383 -0.0561
  780MOL0     O 5224  11.404   4.557   8.321  0.4016  0.5378 -0.4934
  780MOL0     C 5225  11.551   4.583   8.340  0.1678  0.6887  0.2415
  780MOL0     C 5226  11.629   4.455   8.380  0.3057 -0.4059 -0.4778
  780MOL0     C 5227  11.585   4.409   8.526  0.0673 -0.0761  0.2373
  780MOL0     C 5228  11.562   4.255   8.538 -0.3070  0.4275  0.4921
  780MOL0     C 5229  11.446   4.208   8.464  0.3605  0.1759  0.0602
  780MOL0     C 5230  11.352   4.167   8.403  0.8781 -0.4172 -0.4392
  780MOL0     C 5231  11.429   4.481   8.084 -0.7813 -0.1224  0.3253
  780MOL0     C 5232  11.365   4.448   7.963  0.0900  1.0264  0.7008
  780MOL0     H 5233  11.004   4.535   7.670 -1.3323 -2.5823  0.5239
  780MOL0     H 5234  10.854   4.524   7.463 -0.5583 -0.1659 -1.3873
  780MOL0     H 5235  10.973   4.350   7.051 -1.0218  1.0171  0.0942
  780MOL0     H 5236  10.982   4.205   7.160  1.5354  1.6332  2.1502
  780MOL0     H 5237  10.736   4.209   7.165  0.1783  2.4539  1.5874
  780MOL0     H 5238  10.713   4.335   7.065 -1.3213 -1.5380  1.0756
  780MOL0     H 5239  10.854   4.233   6.882 -0.2218  0.6118  0.6421
  780MOL0     H 5240  10.853   4.085   6.976  2.8063  1.3942 -1.4832
  780MOL0     H 5241  10.593   4.112   6.977  0.8799 -2.4535  1.1665
  780MOL0     H 5242  10.627   4.234   6.855  0.8671  0.2520  1.0407
  780MOL0     H 5243  10.734   4.064   6.700 -0.9079  2.5846 -0.4537
  780MOL0     H 5244  10.745   3.950   6.833  0.6122 -1.4091 -3.2654
  780MOL0     H 5245  10.571   3.896   6.669  1.4587 -0.6521  1.2140
  780MOL0     H 5246  10.503   3.919   6.834  0.3578  3.1839  1.6716
  780MOL0     H 5247  10.359   4.036   6.679  0.4753 -1.1060 -0.9709
  780MOL0     H 5248  10.465   4.171   6.742  2.3764 -0.5177  0.5633
  780MOL0     H 5249  10.485   3.999   6.494  0.0669  0.8598 -2.1208
  780MOL0     H 5250  10.590   4.141   6.519  0.1615  1.0206  0.1394
  780MOL0     H 5251  10.215   4.081   6.469  2.7178 -1.5102  0.7379
  780MOL0     H 5252  10.018   4.298   6.464 -1.8801  2.2604  0.0458
  780MOL0     H 5253  10.070   4.446   6.402  0.9940 -0.2707  1.5269
  780MOL0     H 5254   9.935   4.280   6.234  0.3143 -0.5478  0.0634
  780MOL0     H 5255  10.073   4.189   6.230 -2.5830 -0.5752  0.9489
  780MOL0     H 5256  10.207   4.385   6.133 -0.2753 -0.2408 -4.7116
  780MOL0     H 5257  10.061   4.489   6.153  2.1839  0.5505 -2.1874
  780MOL0     H 5258  10.089   4.231   6.002  3.6269 -0.0296 -2.5771
  780MOL0     H 5259  10.134   4.392   5.936  0.9427 -1.2903 -0.6816
  780MOL0     H 5260   9.684   4.259   5.906  0.4126 -1.1665  0.8052
  780MOL0     H 5261   9.511   4.159   5.780 -1.3478  0.1931 -0.5655
  780MOL0     H 5262   9.511   4.232   5.620 -3.5314  1.8341  4.0748
  780MOL0     H 5263   9.558   4.058   5.639  0.3452  0.2206 -0.5731
  780MOL0     H 5264   9.801   4.144   5.124  0.8168  1.5261 -2.1328
  780MOL0     H 5265   9.768   3.950   4.975  3.9335  0.9073 -1.1944
  780MOL0     H 5266   9.604   3.670   5.028  1.7951 -2.2915  0.6172
  780MOL0     H 5267   9.672   3.790   4.911  2.3326  0.9481  1.2322
  780MOL0     H 5268   9.681   3.490   4.931  1.2438 -1.9234 -2.2103
  780MOL0     H 5269   9.574   3.579   4.814 -0.5332 -1.6530 -0.8002
  780MOL0     H 5270   9.836   3.660   4.752 -3.7242  1.1808 -2.3184
  780MOL0     H 5271   9.748   3.544   4.670 -1.6041  3.5391 -0.9171
  780MOL0     H 5272   9.927   3.487   4.908 -2.0856 -2.2480  0.8084
  780MOL0     H 5273   9.831   3.366   4.812  0.8498 -0.0321 -1.9215
  780MOL0     H 5274  10.088   3.393   4.786  0.0846 -0.6329  1.3771
  780MOL0     H 5275  10.069   3.544   4.691  1.7563  0.1110  3.7465
  780MOL0     H 5276   9.920   3.281   4.609 -1.0550  0.4620 -1.4648
  780MOL0     H 5277   9.922   3.434   4.533 -3.4686 -0.8757  2.1213
  780MOL0     H 5278  10.178   3.269   4.564 -1.0958 -0.4517  2.3514
  780MOL0     H 5279  10.174   3.436   4.489  1.8027 -0.6589 -1.0765
  780MOL0     H 5280  10.029   3.335   4.317  0.5569 -1.5708 -2.5128
  780MOL0     H 5281  10.069   3.176   4.388  0.4362  0.1504  1.0665
  780MOL0     H 5282   9.855   3.670   5.271 -0.3119 -0.0540 -1.6862
  780MOL0     H 5283   9.904   3.833   5.426 -0.9726 -1.5771  0.3615
  780MOL0     H 5284   9.995   4.256   5.526  0.3856 -2.7880 -0.0561
  780MOL0     H 5285  10.062   4.336   5.732  0.1478  0.3207  1.6942
  780MOL0     H 5286  11.143   4.238   7.296 -0.4697  0.5354 -1.3086
  780MOL0     H 5287  11.263   4.259   7.505  0.4577  1.0901 -2.1386
  780MOL0     H 5288  11.057   4.407   8.079  0.9679 -5.5576  4.5191
  780MOL0     H 5289  11.167   4.504   8.288  0.0910 -2.6738 -0.0608
  780MOL0     H 5290  11.596   4.625   8.250 -0.5396  1.6108  0.3007
  780MOL0     H 5291  11.556   4.660   8.418  1.0624  2.3791 -1.4139
  780MOL0     H 5292  11.737   4.474   8.371  0.9948 -2.9969  1.2564
  780MOL0     H 5293  11.606   4.378   8.306 -1.8092 -0.6416  0.3707
  780MOL0     H 5294  11.490   4.455   8.556  0.5141  2.4060 -1.8908
  780MOL0     H 5295  11.666   4.438   8.593 -0.7612  0.8629  0.8614
  780MOL0     H 5296  11.547   4.236   8.645 -0.7199  1.1862  0.5734
  780MOL0     H 5297  11.655   4.207   8.507  0.7554  0.5934  3.1859
  780MOL0     H 5298  11.255   4.144   8.364 -1.1302  1.1407  3.1519
  780MOL0     H 5299  11.536   4.500   8.083 -0.6536 -0.6974 -2.0222
  780MOL0     H 5300  11.417   4.438   7.868 -1.1215 -2.5158  0.2594
  781MOL0     O 5301   1.457  11.475   8.732 -0.2170 -0.2127  0.3463
  781MOL0     C 5302   1.490  11.573   8.805  0.9783 -0.5140 -0.5162
  781MOL0     O 5303   1.401  11.641   8.883 -0.7032  0.0532 -0.1238
  781MOL0     C 5304   1.280  11.590   8.927  0.8126 -0.1207  0.3334
  781MOL0     C 5305   1.225  11.657   9.027  0.7992  0.8606 -0.6558
  781MOL0     C 5306   1.100  11.622   9.087  0.3377  0.0935 -0.3041
  781MOL0     C 5307   1.029  11.509   9.046 -0.4808 -0.2312 -0.3005
  781MOL0     O 5308   0.919  11.460   9.111 -0.1505 -0.4633 -0.5373
  781MOL0     C 5309   0.903  11.487   9.253 -1.1267 -0.3285  0.7865
  781MOL0     C 5310   0.749  11.491   9.275 -0.0467 -0.5883  0.1460
  781MOL0     C 5311   0.684  11.605   9.184 -0.2606 -0.4384  0.0834
  781MOL0     C 5312   0.562  11.663   9.255  0.8260 -0.0129 -0.2543
  781MOL0     C 5313   0.491  11.758   9.161  0.0424 -0.2798 -0.3430
  781MOL0     C 5314   0.349  11.805   9.203 -0.3124  0.1202  0.8882
  781MOL0     C 5315   0.273  11.896   9.102  0.3281  0.7036  0.2876
  781MOL0     C 5316   0.321  12.038   9.072  0.2116 -0.6056  0.3301
  781MOL0     N 5317   0.239  12.101   8.970  0.8996 -0.8429  0.7800
  781MOL0     C 5318   0.160  12.215   8.994 -0.5883  0.5086 -0.2411
  781MOL0     C 5319   0.064  12.216   8.897  0.0565  0.1865 -0.5450
  781MOL0     C 5320  -0.041  12.325   8.875 -0.2010  0.2603  0.7889
  781MOL0     C 5321  -0.172  12.297   8.952 -0.9660 -0.6899  0.2556
  781MOL0     C 5322  -0.285  12.387   8.903  0.3229 -0.9343  0.5142
  781MOL0     C 5323  -0.413  12.362   8.974  0.1473  0.3230 -0.5130
  781MOL0     O 5324  -0.531  12.400   8.911  0.7607 -0.4579 -0.5614
  781MOL0     C 5325  -0.641  12.389   8.994 -0.9083  0.1471  0.8222
  781MOL0     C 5326  -0.750  12.454   8.952  0.5290 -0.0270  0.5653
  781MOL0     C 5327  -0.879  12.449   9.015  0.8364 -0.2462 -1.0824
  781MOL0     C 5328  -1.000  12.520   8.956 -0.5495 -0.0275 -0.4475
  781MOL0     C 5329  -0.889  12.390   9.141  0.8205 -0.3368 -0.4652
  781MOL0     C 5330  -1.005  12.388   9.227  0.2490 -0.1897  0.2370
  781MOL0     O 5331  -1.006  12.289   9.329 -0.1088 -0.1417 -0.3703
  781MOL0     C 5332  -1.105  12.287   9.430  0.3349  0.4424  0.2820
  781MOL0     C 5333  -1.149  12.401   9.500 -0.5374 -0.7121  0.2757
  781MOL0     C 5334  -1.237  12.390   9.601  0.2205  0.2057  1.1759
  781MOL0     C 5335  -1.306  12.267   9.618 -0.1292 -0.4470 -0.2961
  781MOL0     O 5336  -1.416  12.260   9.700  0.4565  0.9011  0.0271
  781MOL0     C 5337  -1.463  12.372   9.773  0.6475 -0.0239  0.1118
  781MOL0     C 5338  -1.565  12.469   9.699 -0.5163 -0.0731 -0.0721
  781MOL0     C 5339  -1.525  12.545   9.573  0.4192  0.1106  0.5533
  781MOL0     C 5340  -1.642  12.615   9.512 -0.2358  0.4854  0.3199
  781MOL0     C 5341  -1.613  12.720   9.406  0.3082  0.5277 -0.1274
  781MOL0     C 5342  -1.562  12.657   9.279 -0.6643  0.8981  1.2935
  781MOL0     C 5343  -1.508  12.749   9.171 -0.6655 -0.3312  0.1403
  781MOL0     C 5344  -1.349  12.726   9.139  0.7037  0.0643 -0.2261
  781MOL0    Cl 5345  -1.291  12.866   9.050  0.2441  0.3265  0.2035
  781MOL0     C 5346  -1.283  12.157   9.541 -0.1267 -0.0228  0.3787
  781MOL0     C 5347  -1.174  12.170   9.451 -0.2629 -0.0355 -0.6787
  781MOL0     O 5348  -1.097  12.468   9.215 -0.4800  0.9323  1.1264
  781MOL0     C 5349  -0.774  12.323   9.191 -0.3546  0.2690 -0.3344
  781MOL0     C 5350  -0.650  12.322   9.119 -0.3918  0.2925  0.3820
  781MOL0     N 5351   0.092  12.109   8.815 -0.9789 -0.7974 -0.1657
  781MOL0     N 5352   0.201  12.040   8.855  1.0582  0.1157  0.5769
  781MOL0     C 5353   1.082  11.440   8.940  0.3724 -0.2018  0.0507
  781MOL0     C 5354   1.200  11.478   8.885 -0.8920  1.1185  0.5770
  781MOL0     C 5355   1.635  11.615   8.828 -0.3768 -0.2681 -0.1182
  781MOL0     C 5356   1.718  11.607   8.717  0.0772 -0.5289 -0.9397
  781MOL0     C 5357   1.853  11.658   8.734 -1.0477 -0.0363  0.9004
  781MOL0     C 5358   1.900  11.695   8.867  0.9270 -0.0905  0.0262
  781MOL0     O 5359   2.029  11.711   8.873 -0.3032 -0.4193  0.1396
  781MOL0     C 5360   2.101  11.732   8.999  0.8637  0.5219  0.1309
  781MOL0     C 5361   2.255  11.769   8.958 -0.1139 -0.8153 -0.2485
  781MOL0     C 5362   2.312  11.652   8.892  0.2683 -0.4390 -0.6095
  781MOL0     C 5363   2.467  11.672   8.860 -0.2874 -1.0524  0.3634
  781MOL0     C 5364   2.518  11.555   8.787 -0.9445 -0.2931  0.1591
  781MOL0     C 5365   2.561  11.465   8.711  0.5273  0.0283 -0.2063
  781MOL0     C 5366   1.809  11.694   8.978  0.3025  0.0073  0.1642
  781MOL0     C 5367   1.675  11.658   8.957  0.7649 -0.3284  0.2264
  781MOL0     H 5368   1.278  11.741   9.073  1.4611 -0.3494  0.9240
  781MOL0     H 5369   1.056  11.687   9.162  2.0671  1.3042 -0.2843
  781MOL0     H 5370   0.953  11.415   9.318 -0.0767  0.5168  0.9382
  781MOL0     H 5371   0.934  11.581   9.300 -1.1420  0.1294 -0.1063
  781MOL0     H 5372   0.698  11.400   9.243 -0.8727 -0.3655  0.8054
  781MOL0     H 5373   0.729  11.514   9.380  0.7822  2.0726 -0.2071
  781MOL0     H 5374   0.753  11.686   9.157 -2.3353  0.8575 -1.6735
  781MOL0     H 5375   0.653  11.553   9.093  2.2083 -2.0234  0.0445
  781MOL0     H 5376   0.496  11.577   9.267  2.9106 -1.4431  1.6474
  781MOL0     H 5377   0.597  11.699   9.352  0.2992  4.5958 -1.5319
  781MOL0     H 5378   0.555  11.846   9.163 -2.0019  1.2929 -0.3328
  781MOL0     H 5379   0.493  11.713   9.061 -2.0539 -1.4122  0.0587
  781MOL0     H 5380   0.294  11.712   9.216  0.3198 -0.0716  2.4093
  781MOL0     H 5381   0.345  11.861   9.297 -0.2828  0.8764  0.4472
  781MOL0     H 5382   0.277  11.844   9.006 -3.5745  2.3380 -1.0023
  781MOL0     H 5383   0.166  11.894   9.126  0.3081  0.9045  0.2237
  781MOL0     H 5384   0.428  12.042   9.051 -0.0966  0.8945 -1.0917
  781MOL0     H 5385   0.301  12.094   9.164 -0.6792 -0.2816 -0.0524
  781MOL0     H 5386   0.183  12.296   9.062  0.7841  0.1123 -0.2016
  781MOL0     H 5387   0.005  12.420   8.905 -0.7337  1.5962 -2.2373
  781MOL0     H 5388  -0.071  12.332   8.770 -4.4133 -0.5104  1.7481
  781MOL0     H 5389  -0.148  12.292   9.058  3.3618 -3.1888 -0.6143
  781MOL0     H 5390  -0.204  12.194   8.936  0.1299 -1.0104  0.0332
  781MOL0     H 5391  -0.310  12.359   8.800 -3.0105  0.7732  0.7168
  781MOL0     H 5392  -0.254  12.491   8.920  1.0277 -1.0542  0.0141
  781MOL0     H 5393  -0.403  12.398   9.077 -0.6547  0.1799 -0.3793
  781MOL0     H 5394  -0.417  12.253   8.987 -1.3172  0.3007 -0.9047
  781MOL0     H 5395  -0.758  12.502   8.855  0.9519 -3.8381 -1.5309
  781MOL0     H 5396  -1.091  12.461   8.972  0.1371 -0.4791  2.2994
  781MOL0     H 5397  -0.999  12.619   9.003  1.9800 -0.3769  0.4039
  781MOL0     H 5398  -0.979  12.540   8.851  1.5184  2.5171  0.3436
  781MOL0     H 5399  -1.094  12.492   9.479  3.2536 -2.9477 -0.4247
  781MOL0     H 5400  -1.261  12.474   9.666 -2.0793  1.7528 -1.4756
  781MOL0     H 5401  -1.511  12.332   9.863 -1.2527 -1.5881 -1.4865
  781MOL0     H 5402  -1.382  12.435   9.809  0.5370  2.8598 -3.9778
  781MOL0     H 5403  -1.638  12.395   9.664  3.6197 -4.7281  0.1427
  781MOL0     H 5404  -1.608  12.550   9.759 -0.7804  1.9066 -2.7774
  781MOL0     H 5405  -1.489  12.470   9.501  0.3012 -1.7732  2.3721
  781MOL0     H 5406  -1.442  12.615   9.590  0.4716  0.0541  0.5344
  781MOL0     H 5407  -1.721  12.543   9.488  0.5059 -0.5383  0.8996
  781MOL0     H 5408  -1.686  12.673   9.594  1.0024 -0.2008  1.4877
  781MOL0     H 5409  -1.534  12.790   9.435  0.5233  1.0008 -1.7459
  781MOL0     H 5410  -1.700  12.784   9.389 -0.2276 -0.2497 -0.3575
  781MOL0     H 5411  -1.476  12.596   9.306 -0.2985 -0.1859 -1.9261
  781MOL0     H 5412  -1.637  12.594   9.232  0.3607  0.0451  0.7738
  781MOL0     H 5413  -1.541  12.852   9.184  1.6632  0.2721  2.1227
  781MOL0     H 5414  -1.563  12.730   9.078 -0.7158  0.5050 -0.0046
  781MOL0     H 5415  -1.326  12.644   9.070  2.7187  0.0202  0.4028
  781MOL0     H 5416  -1.294  12.714   9.233 -1.0740  0.8470  0.9564
  781MOL0     H 5417  -1.336  12.062   9.540  1.2203 -0.8126  0.3153
  781MOL0     H 5418  -1.149  12.090   9.382  0.2471 -1.0773  0.6615
  781MOL0     H 5419  -0.766  12.257   9.277 -2.7114 -1.7973 -1.5863
  781MOL0     H 5420  -0.571  12.256   9.153 -0.9034 -1.8335 -2.2374
  781MOL0     H 5421   1.009  11.365   8.910 -0.7241  1.3213 -1.2441
  781MOL0     H 5422   1.240  11.425   8.799  0.0609 -2.2039  2.8589
  781MOL0     H 5423   1.683  11.577   8.618 -2.6208  2.8195 -1.2098
  781MOL0     H 5424   1.919  11.655   8.648 -0.5043  0.6354  1.2759
  781MOL0     H 5425   2.061  11.825   9.041  2.1100  0.6674  1.0742
  781MOL0     H 5426   2.091  11.650   9.070  0.1622  1.8901  1.6923
  781MOL0     H 5427   2.319  11.792   9.043 -2.9012 -0.9090  2.0333
  781MOL0     H 5428   2.262  11.855   8.891 -2.4213  1.2445  1.9194
  781MOL0     H 5429   2.242  11.621   8.813 -1.1500  1.4185 -0.1442
  781MOL0     H 5430   2.309  11.566   8.959  1.3341  0.4763  0.6673
  781MOL0     H 5431   2.527  11.689   8.950  0.0241 -1.4150  0.2278
  781MOL0     H 5432   2.463  11.758   8.793 -3.7706 -1.5788 -0.2984
  781MOL0     H 5433   2.587  11.382   8.647  0.3458 -0.4576  0.3397
  781MOL0     H 5434   1.842  11.718   9.078  3.6532  0.3769 -0.8939
  781MOL0     H 5435   1.606  11.656   9.041 -1.4689 -2.8522 -1.5208
  782MOL0     O 5436   9.416   1.139   6.430 -0.1638 -0.1378 -0.9085
  782MOL0     C 5437   9.461   1.157   6.319 -1.1917 -0.0139 -1.1091
  782MOL0     O 5438   9.507   1.055   6.235  0.5231 -0.1370  0.0581
  782MOL0     C 5439   9.452   0.924   6.230 -0.0418 -0.6946  0.0301
  782MOL0     C 5440   9.318   0.899   6.287  0.3036  0.7236 -0.3112
  782MOL0     C 5441   9.275   0.769   6.306 -0.1623  0.2662 -0.7177
  782MOL0     C 5442   9.356   0.668   6.247 -0.2718  0.5719 -0.3626
  782MOL0     O 5443   9.326   0.535   6.274  0.1018  0.7414 -0.3566
  782MOL0     C 5444   9.349   0.443   6.165  0.5961 -1.2436  0.0965
  782MOL0     C 5445   9.240   0.453   6.066  0.4308 -1.2605  0.7959
  782MOL0     C 5446   9.257   0.342   5.951  0.4863 -1.1141  0.3986
  782MOL0     C 5447   9.135   0.328   5.852 -1.1964 -0.4625  0.3509
  782MOL0     C 5448   9.177   0.222   5.746  1.1516  0.3981  0.0894
  782MOL0     C 5449   9.063   0.195   5.645 -0.9546  0.0908 -0.7039
  782MOL0     C 5450   9.106   0.100   5.531 -0.4932 -1.1581  0.2490
  782MOL0     C 5451   8.985   0.078   5.442  0.6374 -0.2361  0.1665
  782MOL0     N 5452   8.949   0.194   5.357 -0.3998 -0.0205 -0.5477
  782MOL0     C 5453   9.016   0.247   5.256  0.0303  0.8616  0.2754
  782MOL0     C 5454   8.934   0.336   5.198  0.0720 -0.0453 -0.7892
  782MOL0     C 5455   8.965   0.428   5.092  0.1390 -0.0584  0.5957
  782MOL0     C 5456   8.995   0.567   5.129  1.2584  0.1628  0.9295
  782MOL0     C 5457   9.125   0.591   5.206  0.1510  0.6773 -0.5320
  782MOL0     C 5458   9.213   0.696   5.142 -0.6320  0.1285 -0.1848
  782MOL0     O 5459   9.293   0.648   5.036 -0.1160 -0.1048  0.4341
  782MOL0     C 5460   9.393   0.732   4.994  0.6888 -0.0610 -0.5041
  782MOL0     C 5461   9.372   0.817   4.887 -0.5953 -0.6779 -0.0203
  782MOL0     C 5462   9.474   0.906   4.841  1.2203  0.1635 -0.1470
  782MOL0     C 5463   9.432   0.980   4.716 -0.3299 -0.3857  0.3097
  782MOL0     C 5464   9.599   0.911   4.905  0.1762  0.3272 -1.1789
  782MOL0     C 5465   9.717   1.003   4.874 -0.5543 -0.3576 -0.5156
  782MOL0     O 5466   9.841   0.962   4.926 -0.2419 -0.1702  0.3201
  782MOL0     C 5467   9.944   1.040   4.898  0.1335  0.0859  0.6806
  782MOL0     C 5468  10.020   1.020   4.783 -0.0536  0.4319  0.6730
  782MOL0     C 5469  10.138   1.079   4.759 -0.2607  0.0573 -0.5318
  782MOL0     C 5470  10.179   1.179   4.841 -0.9433  1.2026 -0.2654
  782MOL0     O 5471  10.283   1.266   4.821 -0.9760 -0.2519 -0.2271
  782MOL0     C 5472  10.355   1.276   4.694 -1.0084  1.5044 -0.9638
  782MOL0     C 5473  10.469   1.174   4.703 -0.0162  0.7496 -0.0953
  782MOL0     C 5474  10.565   1.200   4.816 -0.6190 -0.8336 -0.4079
  782MOL0     C 5475  10.703   1.135   4.780  0.2201  0.1480  0.1809
  782MOL0     C 5476  10.815   1.178   4.875 -0.1523  0.6744  0.7306
  782MOL0     C 5477  10.789   1.163   5.023  0.1224 -0.4150 -0.5594
  782MOL0     C 5478  10.925   1.189   5.100 -0.1852  0.5182  0.5045
  782MOL0     C 5479  10.995   1.331   5.074 -0.8286  0.4372  0.2837
  782MOL0    Cl 5480  11.137   1.347   5.186 -0.7463  0.3218 -0.3507
  782MOL0     C 5481  10.114   1.195   4.962 -0.1027 -0.1113  0.5209
  782MOL0     C 5482   9.995   1.132   4.997 -0.1489  0.7618  0.7094
  782MOL0     O 5483   9.701   1.092   4.794 -0.8155 -0.0462  0.3748
  782MOL0     C 5484   9.616   0.833   5.016  0.6443  0.0709 -0.0855
  782MOL0     C 5485   9.518   0.742   5.063  0.0207 -0.0143  1.4066
  782MOL0     N 5486   8.818   0.338   5.278  0.3420 -0.0617 -0.1405
  782MOL0     N 5487   8.827   0.247   5.371  0.4710  0.7021  0.4218
  782MOL0     C 5488   9.479   0.703   6.183  0.9080  1.1160 -0.2630
  782MOL0     C 5489   9.530   0.828   6.173  0.5488 -0.0822 -0.4944
  782MOL0     C 5490   9.474   1.298   6.280 -0.7114  0.0180 -0.2468
  782MOL0     C 5491   9.372   1.392   6.307 -0.1743 -0.2410  0.6105
  782MOL0     C 5492   9.406   1.528   6.280 -0.4856 -0.0577  0.7295
  782MOL0     C 5493   9.519   1.572   6.207 -0.2088 -0.8757  0.0543
  782MOL0     O 5494   9.531   1.701   6.168  0.4379  0.3261  0.6189
  782MOL0     C 5495   9.649   1.772   6.196 -0.1359 -0.3134  0.3323
  782MOL0     C 5496   9.668   1.817   6.347 -0.6875 -0.5879  0.5271
  782MOL0     C 5497   9.747   1.714   6.439 -0.1664  0.2448  0.6136
  782MOL0     C 5498   9.707   1.739   6.579 -0.5513 -0.3956 -0.5545
  782MOL0     C 5499   9.771   1.866   6.632 -0.8986  0.1756  0.6698
  782MOL0     C 5500   9.817   1.962   6.689 -0.5156 -0.2511 -0.0772
  782MOL0     C 5501   9.603   1.476   6.153 -0.1476  0.5864  0.5303
  782MOL0     C 5502   9.585   1.342   6.211 -0.3756 -0.5945  0.0126
  782MOL0     H 5503   9.253   0.976   6.327 -2.5298 -1.8768  0.4887
  782MOL0     H 5504   9.174   0.743   6.337 -0.3453 -0.0726 -1.5862
  782MOL0     H 5505   9.444   0.467   6.117  1.5183  0.1981  2.4532
  782MOL0     H 5506   9.344   0.339   6.197  0.5019 -0.9103  1.2169
  782MOL0     H 5507   9.145   0.442   6.120  1.9141 -1.7579  3.4922
  782MOL0     H 5508   9.249   0.557   6.034  0.8597 -1.6661 -0.4605
  782MOL0     H 5509   9.351   0.366   5.900 -1.4242  1.6313 -2.2332
  782MOL0     H 5510   9.266   0.246   6.003 -3.1477 -1.6961  0.2808
  782MOL0     H 5511   9.050   0.305   5.917 -0.9992  2.9406  2.0339
  782MOL0     H 5512   9.120   0.426   5.806  3.1750 -0.2626 -1.0910
  782MOL0     H 5513   9.264   0.261   5.693  3.1375 -0.9084  2.1752
  782MOL0     H 5514   9.199   0.132   5.806 -0.4905  0.1466  0.3650
  782MOL0     H 5515   8.977   0.152   5.698 -1.2873  1.9338  0.3237
  782MOL0     H 5516   9.039   0.294   5.607 -1.8549 -0.3909 -1.4313
  782MOL0     H 5517   9.190   0.151   5.482 -1.1886 -1.0301 -0.8522
  782MOL0     H 5518   9.140   0.007   5.576  0.3158  0.4579  3.2850
  782MOL0     H 5519   8.903   0.043   5.505  0.6200 -4.7541 -1.9413
  782MOL0     H 5520   8.991  -0.007   5.373 -4.4579  0.2867 -1.2814
  782MOL0     H 5521   9.121   0.243   5.228 -0.5215 -0.0265 -1.8669
  782MOL0     H 5522   9.054   0.393   5.039 -0.0252 -0.3357  0.5014
  782MOL0     H 5523   8.878   0.418   5.026 -0.3257 -0.5292  1.2706
  782MOL0     H 5524   8.913   0.626   5.172  1.5191  0.3554  1.1661
  782MOL0     H 5525   9.009   0.624   5.036 -1.2929 -0.5858 -0.0119
  782MOL0     H 5526   9.167   0.490   5.216 -3.1860 -0.8817 -0.8515
  782MOL0     H 5527   9.099   0.630   5.304 -0.4215 -0.8007 -0.0715
  782MOL0     H 5528   9.274   0.741   5.221  0.8438  2.1773 -2.3597
  782MOL0     H 5529   9.154   0.782   5.111 -0.2636  0.3599 -0.2485
  782MOL0     H 5530   9.277   0.817   4.834 -0.6078 -0.2898 -0.0053
  782MOL0     H 5531   9.507   0.951   4.641 -0.2853 -2.6255  1.1554
  782MOL0     H 5532   9.329   0.957   4.689 -0.9944  2.3076  0.2254
  782MOL0     H 5533   9.438   1.089   4.728  2.0205 -0.1143 -2.2122
  782MOL0     H 5534   9.983   0.959   4.701  0.6688  1.8788 -0.7681
  782MOL0     H 5535  10.194   1.042   4.673 -0.5576  0.3238 -0.8425
  782MOL0     H 5536  10.284   1.257   4.613  1.2423  0.7188 -2.8691
  782MOL0     H 5537  10.392   1.379   4.697  1.7502  0.5972  2.4588
  782MOL0     H 5538  10.437   1.071   4.722  0.4691  0.7097  0.5445
  782MOL0     H 5539  10.526   1.165   4.611  1.2071 -0.1032  0.7139
  782MOL0     H 5540  10.519   1.160   4.906 -1.1989  0.5639 -0.0542
  782MOL0     H 5541  10.577   1.309   4.824 -3.5241 -0.3535 -1.5513
  782MOL0     H 5542  10.694   1.026   4.784 -0.8243  0.2573  2.7415
  782MOL0     H 5543  10.745   1.155   4.681  2.6381 -0.6399  0.9677
  782MOL0     H 5544  10.841   1.284   4.864  0.5293  0.4556  0.1021
  782MOL0     H 5545  10.904   1.122   4.842 -0.5209  2.2741 -3.6503
  782MOL0     H 5546  10.717   1.238   5.057 -1.9062 -2.2672 -0.5777
  782MOL0     H 5547  10.746   1.066   5.048 -0.3860 -0.2576 -0.8176
  782MOL0     H 5548  11.009   1.126   5.069  1.2912  3.3582 -1.8455
  782MOL0     H 5549  10.915   1.163   5.205  0.5832  2.8236  1.2164
  782MOL0     H 5550  10.921   1.411   5.088 -0.6880  0.4674  0.8857
  782MOL0     H 5551  11.029   1.325   4.971  2.8881 -0.6486  1.4222
  782MOL0     H 5552  10.144   1.274   5.031 -0.8875 -0.7900  1.6605
  782MOL0     H 5553   9.968   1.149   5.101 -1.3435  0.9984  0.3750
  782MOL0     H 5554   9.701   0.850   5.080 -0.0581  1.0258  0.6297
  782MOL0     H 5555   9.537   0.685   5.153 -1.0886 -2.7557  0.0115
  782MOL0     H 5556   9.546   0.626   6.146  0.6364  0.6709  0.1620
  782MOL0     H 5557   9.630   0.854   6.143  0.3483  1.4509  0.0875
  782MOL0     H 5558   9.276   1.367   6.352 -1.0377  0.2784 -0.8533
  782MOL0     H 5559   9.343   1.615   6.300  2.4941  2.4044  0.1619
  782MOL0     H 5560   9.740   1.717   6.171  0.7756  2.0925 -2.0836
  782MOL0     H 5561   9.661   1.861   6.133  0.8054  1.5701  2.9566
  782MOL0     H 5562   9.574   1.862   6.379 -1.3382  3.4668 -5.3847
  782MOL0     H 5563   9.748   1.891   6.348  2.8295 -4.0361 -0.3109
  782MOL0     H 5564   9.853   1.727   6.414 -0.4179  1.5380  0.1505
  782MOL0     H 5565   9.712   1.613   6.416 -1.4983  0.9137 -0.3717
  782MOL0     H 5566   9.739   1.659   6.645  1.3463  2.1929  1.8970
  782MOL0     H 5567   9.599   1.754   6.588 -0.4889 -0.0091 -0.4353
  782MOL0     H 5568   9.872   2.046   6.726  1.1349 -1.4214  0.2467
  782MOL0     H 5569   9.688   1.501   6.090  1.8482 -1.0009  2.4102
  782MOL0     H 5570   9.661   1.270   6.182  0.4295  0.1665  0.1801
  783MOL0     O 5571  10.872   8.431   9.048  0.1761 -1.0991  0.4590
  783MOL0     C 5572  10.888   8.329   8.982  0.0015 -0.0559 -0.4416
  783MOL0     O 5573  10.836   8.205   9.015 -0.3563  0.3937  0.2126
  783MOL0     C 5574  10.778   8.189   9.135  0.0314  0.8852  0.6473
  783MOL0     C 5575  10.848   8.120   9.231  0.0912 -0.3869  0.4549
  783MOL0     C 5576  10.772   8.082   9.349 -0.4017  0.4118 -0.0090
  783MOL0     C 5577  10.638   8.112   9.368  0.5449 -0.5774 -0.5490
  783MOL0     O 5578  10.586   8.065   9.489 -0.2372 -0.1908  0.0680
  783MOL0     C 5579  10.461   8.109   9.543 -0.8525  0.8093  1.4761
  783MOL0     C 5580  10.488   8.259   9.583 -0.7844 -0.4077  0.1456
  783MOL0     C 5581  10.577   8.270   9.708 -0.7724 -1.0617  0.4461
  783MOL0     C 5582  10.633   8.143   9.769  0.4678  0.2728 -0.0958
  783MOL0     C 5583  10.704   8.177   9.900  0.3767  0.1570  0.7056
  783MOL0     C 5584  10.792   8.064   9.955  0.1659  0.5766  0.6744
  783MOL0     C 5585  10.767   8.011  10.101 -1.1828  0.1593 -0.4656
  783MOL0     C 5586  10.843   8.110  10.195 -0.0708 -1.1954  0.5801
  783MOL0     N 5587  10.988   8.111  10.172  0.6487  0.3107  0.3731
  783MOL0     C 5588  11.077   8.010  10.186  0.4698 -0.8199  0.5702
  783MOL0     C 5589  11.197   8.064  10.145  0.6463 -0.0336  0.0163
  783MOL0     C 5590  11.326   8.004  10.166 -0.6145 -0.7593 -0.5503
  783MOL0     C 5591  11.404   8.062  10.282 -0.5389  1.0155  1.6662
  783MOL0     C 5592  11.325   8.053  10.413  0.1420 -0.9844 -0.2061
  783MOL0     C 5593  11.397   8.133  10.532  0.3347  0.3240 -0.1204
  783MOL0     O 5594  11.366   8.058  10.648 -0.0784 -0.0115  0.4558
  783MOL0     C 5595  11.277   8.096  10.750  0.2366 -1.1046 -0.0071
  783MOL0     C 5596  11.313   8.065  10.883 -0.9470 -0.5609  0.3677
  783MOL0     C 5597  11.222   8.095  10.992 -0.2877  0.7235  0.4086
  783MOL0     C 5598  11.272   8.075  11.129 -0.1915 -0.8634 -0.1934
  783MOL0     C 5599  11.101   8.152  10.967  0.5612 -0.5356  0.6864
  783MOL0     C 5600  11.003   8.198  11.072 -0.8536  0.6596  0.2118
  783MOL0     O 5601  10.961   8.110  11.166  0.2654 -0.6337 -1.1331
  783MOL0     C 5602  10.885   8.165  11.278 -0.9586 -0.3213 -0.4993
  783MOL0     C 5603  10.770   8.232  11.254  0.2230  0.1557  0.2140
  783MOL0     C 5604  10.695   8.281  11.360  0.3156  0.2712  0.1273
  783MOL0     C 5605  10.736   8.265  11.491  0.1738 -0.1162  0.3831
  783MOL0     O 5606  10.650   8.323  11.584  0.0692 -0.3001  0.2225
  783MOL0     C 5607  10.628   8.265  11.712 -0.7836  0.7888  0.8478
  783MOL0     C 5608  10.505   8.333  11.781  0.7212  0.6768  0.1523
  783MOL0     C 5609  10.488   8.259  11.910  0.6344 -0.6157 -0.3986
  783MOL0     C 5610  10.358   8.298  11.981 -0.0434  0.8528  0.0183
  783MOL0     C 5611  10.342   8.221  12.116  0.7657  0.7283  0.2265
  783MOL0     C 5612  10.202   8.237  12.169 -0.0794  0.2628 -0.5427
  783MOL0     C 5613  10.085   8.194  12.078  0.8608  0.0457  0.4950
  783MOL0     C 5614  10.010   8.313  11.996  0.4176 -0.3624  0.1869
  783MOL0    Cl 5615   9.859   8.241  11.914 -0.5773 -0.2109  0.1147
  783MOL0     C 5616  10.856   8.194  11.518  0.5123 -0.5091 -0.3484
  783MOL0     C 5617  10.931   8.154  11.407 -0.3474  0.7331 -0.2163
  783MOL0     O 5618  10.974   8.317  11.066  0.4008 -0.3024 -0.0178
  783MOL0     C 5619  11.080   8.192  10.836 -0.9162  0.9274 -0.0031
  783MOL0     C 5620  11.166   8.171  10.728 -0.1848 -0.1309 -0.5380
  783MOL0     N 5621  11.166   8.183  10.082 -0.5671  0.7035 -0.1278
  783MOL0     N 5622  11.049   8.213  10.105 -0.0768 -0.8081 -0.3150
  783MOL0     C 5623  10.574   8.181   9.271 -0.5545  0.0131  0.4508
  783MOL0     C 5624  10.636   8.227   9.153 -0.1084  0.8029 -1.2124
  783MOL0     C 5625  10.961   8.349   8.860 -0.2659 -0.3582 -0.1723
  783MOL0     C 5626  11.032   8.466   8.835  0.0297 -0.8028 -0.0343
  783MOL0     C 5627  11.089   8.500   8.713 -0.9277 -0.2142  0.2258
  783MOL0     C 5628  11.095   8.407   8.610  0.3724  0.0770 -0.0702
  783MOL0     O 5629  11.158   8.428   8.494 -0.4971 -0.2595  0.1834
  783MOL0     C 5630  11.266   8.337   8.460  0.0127 -0.5058  0.0927
  783MOL0     C 5631  11.403   8.411   8.470 -0.1640  0.0271 -0.2852
  783MOL0     C 5632  11.415   8.541   8.379 -0.1235  0.0909 -1.0857
  783MOL0     C 5633  11.380   8.670   8.461  0.2803 -0.3456 -0.6173
  783MOL0     C 5634  11.497   8.726   8.539  1.0954  0.2106  0.4636
  783MOL0     C 5635  11.587   8.771   8.599 -0.3201 -0.0588  0.9451
  783MOL0     C 5636  11.031   8.286   8.630  0.9202 -0.3721  0.1894
  783MOL0     C 5637  10.959   8.260   8.751 -0.0441  0.5220  1.1503
  783MOL0     H 5638  10.951   8.086   9.231 -0.6498 -2.9568  1.9916
  783MOL0     H 5639  10.834   8.041   9.428  0.5080 -1.0000 -1.3795
  783MOL0     H 5640  10.398   8.101   9.454  2.2069 -0.9899 -0.7236
  783MOL0     H 5641  10.423   8.044   9.623  0.5434 -1.5252  0.3570
  783MOL0     H 5642  10.544   8.309   9.504 -0.6808  1.1412  1.1331
  783MOL0     H 5643  10.396   8.315   9.607  0.8749  2.1698  0.9654
  783MOL0     H 5644  10.662   8.325   9.667 -2.2070  0.2889 -0.8451
  783MOL0     H 5645  10.534   8.340   9.780 -1.5261  0.0221 -1.0035
  783MOL0     H 5646  10.555   8.071   9.796  2.1887 -0.9468  1.9821
  783MOL0     H 5647  10.701   8.095   9.697 -0.3734 -1.1288  0.0017
  783MOL0     H 5648  10.768   8.265   9.890  0.2938  0.1721  0.2851
  783MOL0     H 5649  10.624   8.205   9.970 -1.0907 -1.0455 -0.4468
  783MOL0     H 5650  10.783   7.985   9.880  5.1443  2.0548 -1.9249
  783MOL0     H 5651  10.892   8.099   9.927 -0.4911  2.7638  0.8924
  783MOL0     H 5652  10.660   7.995  10.122 -0.8664 -2.7356 -0.6747
  783MOL0     H 5653  10.810   7.914  10.127 -3.2913 -0.5480  0.7122
  783MOL0     H 5654  10.833   8.080  10.300 -0.9738 -0.6225  0.6733
  783MOL0     H 5655  10.801   8.211  10.197 -0.5530 -1.3985  1.4823
  783MOL0     H 5656  11.076   7.913  10.236  0.3815 -1.0812  0.0647
  783MOL0     H 5657  11.327   7.895  10.177  2.7293 -0.6979  1.0299
  783MOL0     H 5658  11.379   8.042  10.077 -0.5653  1.6449  0.4280
  783MOL0     H 5659  11.429   8.166  10.259  0.8553  0.8473  2.3239
  783MOL0     H 5660  11.500   8.011  10.295 -0.3078  2.1128  5.4281
  783MOL0     H 5661  11.330   7.949  10.447  1.2857 -1.8173 -2.6637
  783MOL0     H 5662  11.223   8.090  10.401 -0.7555 -1.9260  3.1810
  783MOL0     H 5663  11.378   8.240  10.519 -0.0230  0.2470 -0.2523
  783MOL0     H 5664  11.502   8.109  10.513 -0.1185 -0.3636 -2.0817
  783MOL0     H 5665  11.414   8.029  10.896 -1.3658 -1.2154  2.1301
  783MOL0     H 5666  11.228   8.161  11.182  1.0687  1.3251 -2.4625
  783MOL0     H 5667  11.250   7.977  11.171 -0.4656 -0.7878 -0.1611
  783MOL0     H 5668  11.378   8.102  11.123 -0.5925  0.7129 -0.7552
  783MOL0     H 5669  10.727   8.253  11.157  3.4871  0.8958 -1.2204
  783MOL0     H 5670  10.603   8.337  11.346  1.1471  2.3546  2.2775
  783MOL0     H 5671  10.620   8.156  11.708 -0.0800  0.7281 -2.9735
  783MOL0     H 5672  10.705   8.300  11.782 -2.7583  3.2035  1.9951
  783MOL0     H 5673  10.534   8.437  11.802 -0.8715  1.4665 -1.2927
  783MOL0     H 5674  10.417   8.331  11.716  1.3413  1.5814 -0.7544
  783MOL0     H 5675  10.567   8.270  11.984  0.3945 -1.4228 -0.0133
  783MOL0     H 5676  10.467   8.156  11.879  3.1776 -1.1220 -0.6290
  783MOL0     H 5677  10.365   8.406  11.998  0.6170  0.9307 -0.6638
  783MOL0     H 5678  10.271   8.277  11.919  0.1080 -3.4276  0.9855
  783MOL0     H 5679  10.413   8.252  12.193  0.4811 -0.3257  0.9331
  783MOL0     H 5680  10.359   8.113  12.103  2.1463  0.6879  2.0582
  783MOL0     H 5681  10.192   8.177  12.260 -1.1954 -0.4728 -1.1267
  783MOL0     H 5682  10.186   8.342  12.198 -4.4732 -0.1422 -0.8426
  783MOL0     H 5683  10.013   8.138  12.138 -1.3733  0.9971 -1.1583
  783MOL0     H 5684  10.126   8.125  12.005 -0.8006 -0.2275 -0.2205
  783MOL0     H 5685  10.080   8.356  11.924 -0.8343  0.9410 -0.3151
  783MOL0     H 5686   9.963   8.389  12.059 -0.6721  0.7025 -1.7846
  783MOL0     H 5687  10.894   8.188  11.620  0.8415  2.6006 -0.1950
  783MOL0     H 5688  11.015   8.087  11.425 -3.0106 -2.7359  0.4910
  783MOL0     H 5689  10.995   8.252  10.807 -1.3214  0.1626 -0.4323
  783MOL0     H 5690  11.148   8.206  10.626  1.0485  3.5475  0.3554
  783MOL0     H 5691  10.468   8.204   9.283 -0.2741  3.6157 -2.2326
  783MOL0     H 5692  10.576   8.295   9.093 -2.6441  2.4821  2.8461
  783MOL0     H 5693  11.031   8.543   8.912  1.8118 -1.9097  1.1817
  783MOL0     H 5694  11.130   8.601   8.724 -3.6944  1.1597 -1.1316
  783MOL0     H 5695  11.268   8.251   8.527  1.6628  0.3068  1.1645
  783MOL0     H 5696  11.246   8.305   8.357 -0.0385  3.5327 -1.3166
  783MOL0     H 5697  11.475   8.343   8.424 -0.6544 -1.4352  1.0418
  783MOL0     H 5698  11.429   8.445   8.571 -1.4209  0.9571 -0.2391
  783MOL0     H 5699  11.346   8.530   8.295 -1.9082 -0.5200  0.3945
  783MOL0     H 5700  11.513   8.535   8.332 -1.0171 -1.2351 -2.8871
  783MOL0     H 5701  11.309   8.631   8.534  2.0206  0.4292  1.6186
  783MOL0     H 5702  11.330   8.743   8.396 -0.8696 -1.5652 -1.1402
  783MOL0     H 5703  11.676   8.805   8.647 -0.3029  1.4124 -0.0778
  783MOL0     H 5704  11.029   8.224   8.541  0.8011  2.0256 -1.5682
  783MOL0     H 5705  10.920   8.159   8.755  1.8655 -0.5360 -2.1849
  784MOL0     O 5706   5.732  11.443  10.172 -0.1808  0.0291 -0.7644
  784MOL0     C 5707   5.834  11.383  10.134  0.5984 -0.0144  0.6360
  784MOL0     O 5708   5.960  11.412  10.178  0.4262 -0.1964  0.2239
  784MOL0     C 5709   5.984  11.474  10.299 -0.1348  0.5374  0.0395
  784MOL0     C 5710   5.925  11.446  10.427 -0.1464  0.0737  0.5552
  784MOL0     C 5711   5.974  11.514  10.539 -0.8217  0.5686 -0.9468
  784MOL0     C 5712   6.074  11.607  10.536 -0.2649 -0.8289  0.2716
  784MOL0     O 5713   6.141  11.674  10.645  0.3272  0.0750 -0.2685
  784MOL0     C 5714   6.059  11.676  10.765 -1.7115  0.0732  0.2211
  784MOL0     C 5715   5.929  11.764  10.782  0.5010  0.0825  0.2345
  784MOL0     C 5716   5.863  11.757  10.923 -0.1894  0.6965 -1.0337
  784MOL0     C 5717   5.712  11.778  10.906 -0.6090  0.5466  0.2037
  784MOL0     C 5718   5.645  11.829  11.029 -0.1389  0.1275 -1.0794
  784MOL0     C 5719   5.646  11.989  11.040  0.0197  0.7654 -0.1056
  784MOL0     C 5720   5.585  12.042  11.167 -1.4608  0.9683 -0.0872
  784MOL0     C 5721   5.654  12.167  11.235 -0.2945 -0.3998 -0.0515
  784MOL0     N 5722   5.585  12.206  11.360 -0.1428 -0.0162 -0.1002
  784MOL0     C 5723   5.455  12.238  11.365 -0.2394  0.4258 -0.3883
  784MOL0     C 5724   5.421  12.230  11.499  0.4339  0.0737  0.4296
  784MOL0     C 5725   5.285  12.261  11.552 -0.0491  0.5506  0.7000
  784MOL0     C 5726   5.175  12.149  11.493  0.5986 -0.7669  0.2323
  784MOL0     C 5727   5.037  12.152  11.555  0.2035 -0.2701  0.5669
  784MOL0     C 5728   5.016  12.077  11.681  0.3833 -0.4047 -0.0916
  784MOL0     O 5729   5.085  12.145  11.783 -0.4738 -1.0314 -0.2100
  784MOL0     C 5730   5.076  12.100  11.903  0.2469 -0.0746 -0.0430
  784MOL0     C 5731   5.145  12.169  12.006  0.7091  0.8250 -0.8416
  784MOL0     C 5732   5.138  12.134  12.146  0.2711  0.3570 -0.4781
  784MOL0     C 5733   5.204  12.225  12.251  0.6067 -0.0498 -0.8470
  784MOL0     C 5734   5.069  12.014  12.181 -0.3900 -0.0941  0.5851
  784MOL0     C 5735   5.070  11.959  12.316 -1.0345  0.7481  0.8769
  784MOL0     O 5736   4.955  11.922  12.373  0.4281 -0.0432 -0.2507
  784MOL0     C 5737   4.940  11.904  12.505 -1.0498 -1.1269 -0.5044
  784MOL0     C 5738   4.816  11.869  12.555 -0.6581 -0.4133  0.6013
  784MOL0     C 5739   4.783  11.838  12.695 -0.6029 -0.3466  0.5518
  784MOL0     C 5740   4.895  11.844  12.783  0.5527 -0.3609 -0.8370
  784MOL0     O 5741   4.877  11.830  12.918  0.4252 -0.5954  0.0870
  784MOL0     C 5742   4.974  11.790  13.001  0.1493 -0.6372 -0.0111
  784MOL0     C 5743   5.001  11.637  12.975  0.0713  0.7313 -0.4781
  784MOL0     C 5744   5.104  11.581  13.079  0.0435 -0.4209  0.5150
  784MOL0     C 5745   5.156  11.446  13.041 -0.6033  0.7583 -1.3718
  784MOL0     C 5746   5.221  11.367  13.166  0.9540 -0.6726  0.2723
  784MOL0     C 5747   5.247  11.219  13.127 -0.9146  0.3324 -0.9633
  784MOL0     C 5748   5.234  11.138  13.252 -0.7282  0.1540  0.8437
  784MOL0     C 5749   5.307  11.008  13.242 -0.2465  0.0869 -0.4719
  784MOL0    Cl 5750   5.212  10.906  13.128 -0.1872  0.0895  0.1460
  784MOL0     C 5751   5.016  11.898  12.740  0.4051  0.5769  0.3006
  784MOL0     C 5752   5.032  11.928  12.607 -0.9937  0.2896  0.6617
  784MOL0     O 5753   5.187  11.941  12.367  0.1423 -0.5364  0.7278
  784MOL0     C 5754   4.993  11.941  12.087 -0.0984 -0.8024 -0.0264
  784MOL0     C 5755   5.011  11.983  11.949 -0.2575 -0.4905  0.4765
  784MOL0     N 5756   5.548  12.219  11.567  0.5378 -0.1395 -0.3059
  784MOL0     N 5757   5.640  12.208  11.484  0.2739 -0.2855  0.6591
  784MOL0     C 5758   6.128  11.635  10.413 -0.6570 -0.4416 -0.3012
  784MOL0     C 5759   6.088  11.566  10.302  0.4024  0.2275 -0.4237
  784MOL0     C 5760   5.818  11.288  10.022 -0.0330 -0.5347 -0.0849
  784MOL0     C 5761   5.907  11.173  10.011 -0.1389 -0.3716  0.0752
  784MOL0     C 5762   5.871  11.084   9.905 -0.1852  0.7233 -1.2936
  784MOL0     C 5763   5.781  11.113   9.803  0.1443 -1.6832  0.5078
  784MOL0     O 5764   5.757  11.010   9.714 -1.0667  0.1701 -0.0395
  784MOL0     C 5765   5.766  11.053   9.587 -0.2851 -0.5516 -0.3873
  784MOL0     C 5766   5.886  11.010   9.513 -0.3386 -0.7688 -1.0247
  784MOL0     C 5767   5.916  11.110   9.397 -0.5329  0.5577 -0.6184
  784MOL0     C 5768   6.018  11.030   9.315 -0.0714  0.2538  0.0563
  784MOL0     C 5769   6.022  11.106   9.190 -0.7583 -0.2023  0.1937
  784MOL0     C 5770   6.034  11.160   9.086 -0.0305 -0.2272 -0.7021
  784MOL0     C 5771   5.703  11.238   9.809 -0.0553  0.0866  0.3529
  784MOL0     C 5772   5.719  11.314   9.929  0.9398  0.2517  0.9528
  784MOL0     H 5773   5.847  11.371  10.431 -1.0577  0.8482 -1.2083
  784MOL0     H 5774   5.932  11.484  10.635  0.5361 -2.8588 -1.2656
  784MOL0     H 5775   6.028  11.573  10.785  2.6881 -1.3122  0.8407
  784MOL0     H 5776   6.118  11.684  10.857 -1.9370 -1.8836  0.5750
  784MOL0     H 5777   5.960  11.863  10.747  1.3834 -0.4588 -0.5477
  784MOL0     H 5778   5.866  11.725  10.701 -0.5299 -0.0316  1.0617
  784MOL0     H 5779   5.886  11.661  10.970  1.3278  0.1860 -2.6852
  784MOL0     H 5780   5.901  11.832  10.993 -2.9203  0.8013  0.4605
  784MOL0     H 5781   5.691  11.844  10.822  2.2623  3.1407  1.3101
  784MOL0     H 5782   5.667  11.680  10.889 -2.2516  0.7267  2.8719
  784MOL0     H 5783   5.544  11.787  11.017 -0.2405 -0.7865  2.0533
  784MOL0     H 5784   5.692  11.786  11.118 -1.7058  1.3535  0.4033
  784MOL0     H 5785   5.750  12.018  11.025  0.0237 -0.0539 -1.8702
  784MOL0     H 5786   5.599  12.047  10.961  0.3828  3.3751  1.4735
  784MOL0     H 5787   5.486  12.073  11.133 -2.5120 -0.1033  1.7708
  784MOL0     H 5788   5.571  11.971  11.250 -1.9784  0.9187 -0.2119
  784MOL0     H 5789   5.644  12.249  11.165  0.0017 -1.7592 -1.7614
  784MOL0     H 5790   5.758  12.136  11.250 -0.0283  0.2651 -0.5202
  784MOL0     H 5791   5.394  12.256  11.277  1.2102 -2.7378 -2.1683
  784MOL0     H 5792   5.290  12.257  11.662 -2.0493  1.1741  0.8545
  784MOL0     H 5793   5.262  12.361  11.515 -0.6967 -0.1025 -0.7676
  784MOL0     H 5794   5.227  12.054  11.507  0.5784 -0.7461  0.4623
  784MOL0     H 5795   5.161  12.166  11.386  0.3753  2.8707  0.7127
  784MOL0     H 5796   4.973  12.097  11.485 -1.0056 -0.4451  1.7665
  784MOL0     H 5797   4.997  12.254  11.557 -1.1287 -0.6571 -1.9254
  784MOL0     H 5798   5.052  11.973  11.684 -1.7945 -1.2213 -0.8288
  784MOL0     H 5799   4.909  12.071  11.698  0.1990 -1.0769 -1.3262
  784MOL0     H 5800   5.211  12.247  11.973  1.1496  1.2053  0.8661
  784MOL0     H 5801   5.160  12.325  12.246  0.4838 -0.0243  0.4035
  784MOL0     H 5802   5.195  12.197  12.357 -0.8062  1.7442 -0.4305
  784MOL0     H 5803   5.313  12.227  12.243  0.6162  0.7702 -0.6654
  784MOL0     H 5804   4.749  11.870  12.470  2.0725 -0.0242 -1.6905
  784MOL0     H 5805   4.685  11.808  12.727 -0.9264  1.3633  1.2959
  784MOL0     H 5806   5.067  11.845  12.984  0.6928 -1.9139 -1.4218
  784MOL0     H 5807   4.945  11.806  13.105 -2.1012  1.1834 -0.8193
  784MOL0     H 5808   4.907  11.582  12.979 -0.6668  1.9105 -0.8932
  784MOL0     H 5809   5.047  11.625  12.876  2.3436  0.3693  0.5436
  784MOL0     H 5810   5.057  11.574  13.177 -0.2596 -1.8802  0.2806
  784MOL0     H 5811   5.188  11.651  13.081  0.1058 -0.3970 -1.1664
  784MOL0     H 5812   5.069  11.391  13.004 -0.0610 -1.0336 -0.1269
  784MOL0     H 5813   5.232  11.449  12.962 -0.5453 -2.6657 -1.5841
  784MOL0     H 5814   5.141  11.366  13.240 -0.3741  1.9823 -0.9905
  784MOL0     H 5815   5.310  11.416  13.207  3.1588 -3.7207 -0.5141
  784MOL0     H 5816   5.170  11.176  13.061 -0.4229 -0.3844 -1.0810
  784MOL0     H 5817   5.339  11.211  13.070 -1.2979 -3.5373 -1.3108
  784MOL0     H 5818   5.134  11.101  13.276 -2.0025 -0.3104 -4.0754
  784MOL0     H 5819   5.279  11.198  13.331  0.3838 -1.2167  1.2997
  784MOL0     H 5820   5.322  10.948  13.332 -0.9568 -1.6583 -1.4468
  784MOL0     H 5821   5.405  11.035  13.202 -0.6768  0.7398 -1.1332
  784MOL0     H 5822   5.098  11.917  12.809 -0.5165 -1.7604  2.1366
  784MOL0     H 5823   5.131  11.965  12.582  0.5014 -4.1071 -1.0003
  784MOL0     H 5824   4.943  11.851  12.120  0.1399 -0.9621 -0.0956
  784MOL0     H 5825   4.967  11.917  11.874  1.0698 -0.2002 -0.5842
  784MOL0     H 5826   6.194  11.719  10.394 -2.1498  1.2376  1.3417
  784MOL0     H 5827   6.140  11.594  10.211  1.8617 -0.3754  0.1949
  784MOL0     H 5828   5.991  11.143  10.072  0.1705  1.6104  0.6932
  784MOL0     H 5829   5.917  10.988   9.886  4.2735  1.6725  2.6362
  784MOL0     H 5830   5.683  11.005   9.535 -0.8651  0.9977 -0.9456
  784MOL0     H 5831   5.754  11.162   9.585 -0.4239 -0.3106  4.1515
  784MOL0     H 5832   5.866  10.907   9.481 -0.8841 -1.3016  0.8973
  784MOL0     H 5833   5.974  10.994   9.576  0.1117  0.5913 -1.2690
  784MOL0     H 5834   5.952  11.208   9.431 -2.8550  0.7780  1.5073
  784MOL0     H 5835   5.826  11.128   9.336 -2.3132  0.7442  1.9007
  784MOL0     H 5836   5.982  10.931   9.287 -0.1096  0.2937 -0.0364
  784MOL0     H 5837   6.117  11.034   9.361 -0.1346 -0.2032  0.2306
  784MOL0     H 5838   6.067  11.191   8.989  0.2206 -0.0729 -0.5680
  784MOL0     H 5839   5.628  11.260   9.734  0.7854 -0.2351 -0.6118
  784MOL0     H 5840   5.655  11.398   9.954  1.3051  0.4621  1.2087
  785MOL0     O 5841   7.746   2.710   5.255  0.6137  0.3036 -0.8626
  785MOL0     C 5842   7.858   2.754   5.225  0.0501  0.0890 -0.2571
  785MOL0     O 5843   7.968   2.734   5.302  0.4993 -0.8319  0.6810
  785MOL0     C 5844   7.960   2.663   5.420 -0.2905 -0.6234 -1.1344
  785MOL0     C 5845   7.884   2.703   5.536  0.4118 -0.4046  0.5303
  785MOL0     C 5846   7.878   2.636   5.658 -0.7465  0.3550 -0.1754
  785MOL0     C 5847   7.959   2.519   5.674  0.4836 -0.5534  0.1570
  785MOL0     O 5848   7.978   2.453   5.794  0.2035 -0.2255 -0.2226
  785MOL0     C 5849   7.875   2.413   5.876  0.5936  1.1066  0.6149
  785MOL0     C 5850   7.916   2.342   6.007 -0.4312  0.5530 -0.2725
  785MOL0     C 5851   8.028   2.411   6.079  0.2934 -0.3641 -0.1931
  785MOL0     C 5852   8.046   2.368   6.226 -0.4593  0.5079  0.0977
  785MOL0     C 5853   8.187   2.393   6.271  0.0710 -0.5530 -0.5784
  785MOL0     C 5854   8.234   2.540   6.293  0.1718 -0.7724  0.4503
  785MOL0     C 5855   8.373   2.573   6.353 -0.2836  1.1456  0.3423
  785MOL0     C 5856   8.399   2.485   6.480 -0.7211  0.6685 -0.3104
  785MOL0     N 5857   8.521   2.530   6.545 -0.7224  0.0622 -0.1312
  785MOL0     C 5858   8.519   2.630   6.642 -0.1405 -1.0687 -0.3747
  785MOL0     C 5859   8.644   2.667   6.673  0.3746  0.5855  0.9551
  785MOL0     C 5860   8.677   2.764   6.788 -0.9245 -0.3178 -0.3752
  785MOL0     C 5861   8.673   2.689   6.919 -0.1688  0.2613 -0.8215
  785MOL0     C 5862   8.682   2.771   7.047  0.8269  0.3752 -0.9441
  785MOL0     C 5863   8.809   2.850   7.070 -0.5566 -0.6790  0.3416
  785MOL0     O 5864   8.900   2.763   7.142 -0.6261  0.2881  0.3930
  785MOL0     C 5865   9.030   2.762   7.089  0.6677 -0.1690  1.0074
  785MOL0     C 5866   9.126   2.810   7.172  0.2230  0.2592  0.6755
  785MOL0     C 5867   9.264   2.815   7.133  0.8918 -0.2204  0.0534
  785MOL0     C 5868   9.362   2.852   7.235  0.2012 -0.7501  0.6333
  785MOL0     C 5869   9.302   2.761   7.006  0.8149 -0.0127 -0.1852
  785MOL0     C 5870   9.443   2.783   6.950  0.2528 -0.2059  0.5441
  785MOL0     O 5871   9.526   2.877   7.002  0.7180 -0.8038  0.4387
  785MOL0     C 5872   9.654   2.884   6.949  0.0790 -0.0988 -0.9097
  785MOL0     C 5873   9.757   2.789   6.990  0.4973 -0.0989 -0.0497
  785MOL0     C 5874   9.888   2.819   6.941  0.8942  0.9735 -0.6552
  785MOL0     C 5875   9.899   2.899   6.826 -0.7120  1.1954 -0.7601
  785MOL0     O 5876  10.018   2.882   6.758 -0.0870 -0.6872 -0.0551
  785MOL0     C 5877  10.014   2.851   6.617  0.7660 -1.2076 -0.3119
  785MOL0     C 5878  10.029   2.700   6.595 -0.5994 -0.3849 -0.0436
  785MOL0     C 5879   9.906   2.619   6.641  0.4215  0.0810 -0.5378
  785MOL0     C 5880   9.896   2.476   6.570 -0.1860 -0.6330 -0.2302
  785MOL0     C 5881   9.783   2.391   6.631  0.7455 -0.3499 -0.1346
  785MOL0     C 5882   9.639   2.455   6.621  0.2505 -0.7516 -0.0401
  785MOL0     C 5883   9.535   2.346   6.661 -0.1175  1.0244 -0.3340
  785MOL0     C 5884   9.404   2.356   6.578 -0.0691 -0.2698  0.1315
  785MOL0    Cl 5885   9.452   2.301   6.414 -0.0826  0.4252  0.2237
  785MOL0     C 5886   9.806   2.993   6.796  0.1805 -0.0982 -0.1163
  785MOL0     C 5887   9.680   2.983   6.858 -0.0307 -1.6351 -0.7882
  785MOL0     O 5888   9.472   2.715   6.854 -0.1127 -0.0839 -0.1999
  785MOL0     C 5889   9.201   2.721   6.920 -0.5713  0.0215 -0.8788
  785MOL0     C 5890   9.063   2.720   6.961  0.3867 -0.7282 -0.4057
  785MOL0     N 5891   8.727   2.576   6.602  0.7178  1.0336  0.7358
  785MOL0     N 5892   8.651   2.484   6.534  0.3488  0.0655 -0.5368
  785MOL0     C 5893   8.041   2.475   5.564  0.3451 -0.2237  0.0693
  785MOL0     C 5894   8.038   2.545   5.438 -0.3805  0.0910  0.3466
  785MOL0     C 5895   7.868   2.842   5.109  0.4087 -0.1243 -1.0819
  785MOL0     C 5896   7.772   2.846   5.012 -0.0761 -0.3845  0.1275
  785MOL0     C 5897   7.797   2.901   4.887  0.1265 -0.7834 -0.8835
  785MOL0     C 5898   7.918   2.962   4.859  0.1839 -0.0842  0.2910
  785MOL0     O 5899   7.956   2.997   4.729 -0.6682 -0.6902 -0.0790
  785MOL0     C 5900   7.878   2.954   4.621 -0.2624  0.8434  0.1965
  785MOL0     C 5901   7.954   2.996   4.498 -0.0586 -0.0128  0.3118
  785MOL0     C 5902   7.938   3.145   4.475  0.3837  0.7262  0.0241
  785MOL0     C 5903   7.936   3.179   4.326  0.5810  1.0863  0.1339
  785MOL0     C 5904   7.951   3.324   4.299  0.2966  0.3211 -0.4184
  785MOL0     C 5905   7.968   3.441   4.286 -0.3237  0.2677  1.2034
  785MOL0     C 5906   8.009   2.977   4.960  0.3426  1.0282 -0.6092
  785MOL0     C 5907   7.983   2.906   5.075 -0.0595 -0.6522 -0.5205
  785MOL0     H 5908   7.818   2.788   5.527  1.8643  0.6592 -0.2937
  785MOL0     H 5909   7.828   2.676   5.746  0.0136 -3.0970  1.9840
  785MOL0     H 5910   7.807   2.496   5.896  0.4504  1.3193 -0.6761
  785MOL0     H 5911   7.806   2.350   5.819  1.1374  0.3777  0.7437
  785MOL0     H 5912   7.831   2.322   6.073  0.1995 -2.3241 -0.1991
  785MOL0     H 5913   7.956   2.243   5.980  1.6648  1.5476 -1.0423
  785MOL0     H 5914   8.122   2.392   6.026  0.4527 -0.0576 -0.0285
  785MOL0     H 5915   8.014   2.519   6.066  2.1954 -0.1453 -0.7721
  785MOL0     H 5916   7.973   2.413   6.294 -0.6149  0.4793 -0.0491
  785MOL0     H 5917   8.020   2.262   6.229  0.0234  0.3925  2.9314
  785MOL0     H 5918   8.200   2.343   6.367 -0.2283  0.0069 -0.2418
  785MOL0     H 5919   8.269   2.349   6.214  0.7378 -2.5636  1.7864
  785MOL0     H 5920   8.222   2.577   6.191 -0.6369 -3.4855 -0.5239
  785MOL0     H 5921   8.160   2.584   6.360 -1.8995 -0.1169 -2.1563
  785MOL0     H 5922   8.443   2.559   6.271 -0.8767 -1.7072  0.1901
  785MOL0     H 5923   8.374   2.680   6.376 -0.0428  0.9585  1.2528
  785MOL0     H 5924   8.409   2.384   6.438 -2.3123  0.1476  0.5067
  785MOL0     H 5925   8.318   2.489   6.553  0.0205 -1.5824  0.7242
  785MOL0     H 5926   8.438   2.678   6.697  0.5171  4.0670 -3.2105
  785MOL0     H 5927   8.778   2.805   6.778  0.2686 -3.3091 -2.2144
  785MOL0     H 5928   8.597   2.838   6.785 -1.2361 -0.5286  1.6194
  785MOL0     H 5929   8.764   2.631   6.911 -2.9522 -5.2529  1.7368
  785MOL0     H 5930   8.586   2.623   6.927  0.6670 -1.0512 -2.1513
  785MOL0     H 5931   8.662   2.698   7.126  2.1334 -3.2311 -3.6365
  785MOL0     H 5932   8.593   2.834   7.047  0.8192  0.3891 -1.8759
  785MOL0     H 5933   8.798   2.940   7.130 -0.2960 -2.2540  2.8908
  785MOL0     H 5934   8.847   2.883   6.973 -0.3596 -3.9651 -0.8431
  785MOL0     H 5935   9.095   2.843   7.270  1.3592 -3.5182  2.4998
  785MOL0     H 5936   9.302   2.880   7.323  0.1888 -3.1460  1.4383
  785MOL0     H 5937   9.427   2.770   7.266 -1.1788 -1.3177  2.1973
  785MOL0     H 5938   9.410   2.943   7.197 -2.1454  0.6018  0.6368
  785MOL0     H 5939   9.744   2.716   7.069  2.9314  1.1788  1.6606
  785MOL0     H 5940   9.982   2.781   6.978  1.2924  0.9771 -1.6356
  785MOL0     H 5941   9.921   2.893   6.579  0.1229 -0.4565  1.9115
  785MOL0     H 5942  10.089   2.919   6.576 -3.3164  4.9359  1.0268
  785MOL0     H 5943  10.045   2.681   6.488 -1.3104 -0.5197 -0.1364
  785MOL0     H 5944  10.121   2.667   6.643 -1.7970 -1.8057  1.3710
  785MOL0     H 5945   9.819   2.680   6.612  0.8723  0.3972 -1.2458
  785MOL0     H 5946   9.904   2.608   6.750 -0.3888  4.4190  0.0711
  785MOL0     H 5947   9.872   2.488   6.464  1.7107  0.1792 -0.6165
  785MOL0     H 5948   9.985   2.413   6.583 -1.2045 -1.5598  2.9650
  785MOL0     H 5949   9.804   2.375   6.737 -1.7111 -1.1694  0.3102
  785MOL0     H 5950   9.788   2.292   6.584 -3.5129 -2.2945  2.8492
  785MOL0     H 5951   9.629   2.540   6.690  0.7248 -2.0306  1.6814
  785MOL0     H 5952   9.631   2.491   6.518  0.1037 -1.3638 -0.2440
  785MOL0     H 5953   9.522   2.337   6.769 -3.0055  1.3078 -0.5735
  785MOL0     H 5954   9.575   2.252   6.623 -1.7416  0.1595  0.0448
  785MOL0     H 5955   9.371   2.460   6.584  2.6322  0.5490  2.9816
  785MOL0     H 5956   9.322   2.293   6.613  0.3111  0.0092  1.5520
  785MOL0     H 5957   9.817   3.068   6.718 -1.3896 -0.0847 -0.3622
  785MOL0     H 5958   9.600   3.050   6.831  0.4979 -0.8302 -0.3815
  785MOL0     H 5959   9.227   2.694   6.819 -1.4387 -0.9060 -0.8633
  785MOL0     H 5960   8.994   2.680   6.887  1.3297 -1.1030 -1.1135
  785MOL0     H 5961   8.118   2.399   5.565  1.5093  0.9014  1.6965
  785MOL0     H 5962   8.097   2.516   5.352 -0.3628  2.0281 -0.3451
  785MOL0     H 5963   7.685   2.782   5.023 -0.6945  0.4798  0.3650
  785MOL0     H 5964   7.714   2.892   4.817 -0.6327 -0.0488 -0.1058
  785MOL0     H 5965   7.872   2.845   4.620  1.6765  0.6583  1.5397
  785MOL0     H 5966   7.781   3.004   4.614  0.4759  2.3133 -0.0711
  785MOL0     H 5967   7.891   2.938   4.430  1.4109 -1.9547  0.5239
  785MOL0     H 5968   8.059   2.965   4.488 -0.4463 -1.1224 -0.5304
  785MOL0     H 5969   8.015   3.193   4.536  0.4268  1.8911 -0.9078
  785MOL0     H 5970   7.840   3.181   4.507 -1.2059 -1.5345 -1.8950
  785MOL0     H 5971   7.839   3.152   4.283 -0.7983  1.7889  2.5858
  785MOL0     H 5972   8.017   3.122   4.280  0.8029  1.4806  0.0298
  785MOL0     H 5973   8.001   3.543   4.283  2.1927 -0.4274  2.3401
  785MOL0     H 5974   8.109   3.002   4.928  0.9484 -1.6977 -1.0875
  785MOL0     H 5975   8.063   2.904   5.149 -0.2156 -1.1016 -0.3596
  786MOL0     O 5976   6.479   6.335  11.134  0.1008  0.5353  0.0197
  786MOL0     C 5977   6.419   6.246  11.197 -0.3647  0.0830 -0.5507
  786MOL0     O 5978   6.473   6.121  11.220  0.8456 -0.7647 -0.4980
  786MOL0     C 5979   6.591   6.097  11.160 -0.8253 -0.0185 -1.2392
  786MOL0     C 5980   6.610   6.065  11.015 -0.1761 -1.5183  0.1767
  786MOL0     C 5981   6.738   6.033  10.960  0.1928  0.4020  0.0086
  786MOL0     C 5982   6.849   6.045  11.042  0.6798  0.9794 -0.0886
  786MOL0     O 5983   6.970   6.011  10.998 -0.4303 -0.4878 -0.9109
  786MOL0     C 5984   6.993   5.962  10.866  0.0141  0.1139  0.2925
  786MOL0     C 5985   7.137   5.908  10.863 -0.9059 -0.2394 -0.5059
  786MOL0     C 5986   7.181   5.892  10.720 -0.2953 -0.7955  0.6126
  786MOL0     C 5987   7.327   5.871  10.687 -1.2086 -0.5180  1.1768
  786MOL0     C 5988   7.398   5.758  10.781  0.0736 -0.6039 -0.4391
  786MOL0     C 5989   7.520   5.691  10.729 -0.5328  0.2167  0.5963
  786MOL0     C 5990   7.587   5.589  10.833  1.1536 -0.4888  0.7709
  786MOL0     C 5991   7.562   5.439  10.824  0.1089 -0.3288  0.3763
  786MOL0     N 5992   7.560   5.373  10.962 -0.1347 -0.3688 -0.1549
  786MOL0     C 5993   7.476   5.406  11.062  1.8718 -0.1785  0.4735
  786MOL0     C 5994   7.503   5.331  11.172 -0.5934 -0.3925 -0.1285
  786MOL0     C 5995   7.440   5.325  11.308  0.0358  0.7903  0.5475
  786MOL0     C 5996   7.482   5.459  11.392  0.8383  0.5338  0.3646
  786MOL0     C 5997   7.404   5.462  11.527 -0.6471  0.4972  0.3995
  786MOL0     C 5998   7.429   5.589  11.600  0.9971 -0.2385  0.3919
  786MOL0     O 5999   7.317   5.598  11.692 -0.1863 -0.0677 -0.5705
  786MOL0     C 6000   7.309   5.715  11.766  0.6548 -0.6412 -0.0114
  786MOL0     C 6001   7.205   5.725  11.860 -0.0418  0.7421 -0.6652
  786MOL0     C 6002   7.164   5.838  11.933 -1.0853  0.6462  0.3397
  786MOL0     C 6003   7.058   5.827  12.044 -0.1587  0.4266  0.0047
  786MOL0     C 6004   7.247   5.951  11.914 -0.5205 -0.9742  0.4661
  786MOL0     C 6005   7.220   6.077  11.967  0.2834 -0.2517 -0.3835
  786MOL0     O 6006   7.330   6.157  11.998 -0.6741  0.3455  0.3325
  786MOL0     C 6007   7.318   6.288  12.047  0.7009  0.1050 -0.0516
  786MOL0     C 6008   7.432   6.366  12.019 -0.4019 -0.8311 -0.1308
  786MOL0     C 6009   7.447   6.493  12.063  0.6622  0.3096 -0.6354
  786MOL0     C 6010   7.341   6.554  12.127  0.1951  0.3751 -1.0177
  786MOL0     O 6011   7.350   6.680  12.172 -0.1657  0.4591 -0.7749
  786MOL0     C 6012   7.385   6.778  12.072 -0.4401 -0.4835  0.8410
  786MOL0     C 6013   7.271   6.833  11.992  0.7835 -0.6680 -0.4436
  786MOL0     C 6014   7.152   6.870  12.090 -0.4143  1.1017  0.8336
  786MOL0     C 6015   7.036   6.925  12.020  0.0890 -0.7065 -0.1142
  786MOL0     C 6016   6.917   6.934  12.113  0.1005 -0.0092 -0.6661
  786MOL0     C 6017   6.801   7.010  12.043  0.6858  0.2664  0.4906
  786MOL0     C 6018   6.667   7.034  12.120 -0.6273  0.4721 -0.4079
  786MOL0     C 6019   6.630   6.913  12.208 -0.1320  0.4119  0.4022
  786MOL0    Cl 6020   6.598   6.771  12.110 -0.6487  0.2395 -0.3369
  786MOL0     C 6021   7.225   6.478  12.157 -0.0729  0.0764 -0.0066
  786MOL0     C 6022   7.215   6.347  12.118  0.3714  0.9857  0.4529
  786MOL0     O 6023   7.099   6.107  11.993 -0.7903  0.9692 -0.2767
  786MOL0     C 6024   7.357   5.945  11.829 -0.2541  0.3330  0.2627
  786MOL0     C 6025   7.391   5.825  11.762  0.0054  0.2895  0.1977
  786MOL0     N 6026   7.621   5.268  11.138 -0.0041 -0.1243 -0.1896
  786MOL0     N 6027   7.647   5.284  11.013 -0.3436  1.1896 -0.3035
  786MOL0     C 6028   6.832   6.091  11.173  0.2816 -0.3244 -0.1555
  786MOL0     C 6029   6.714   6.104  11.234  0.5447 -0.8618  0.2320
  786MOL0     C 6030   6.285   6.279  11.240  0.4422 -0.2436  0.0536
  786MOL0     C 6031   6.225   6.202  11.329 -0.2473  0.6103 -0.2115
  786MOL0     C 6032   6.096   6.210  11.382  0.6342 -0.1274 -0.4911
  786MOL0     C 6033   6.008   6.294  11.311  0.2950 -0.7519 -0.1087
  786MOL0     O 6034   5.877   6.300  11.351  0.6618  0.0359 -0.2566
  786MOL0     C 6035   5.789   6.417  11.332 -0.7388 -1.1528  0.8714
  786MOL0     C 6036   5.667   6.386  11.420  0.4060 -1.0502 -0.1235
  786MOL0     C 6037   5.571   6.285  11.365  0.3111  0.6167  0.1576
  786MOL0     C 6038   5.640   6.163  11.308 -0.0065  0.1639 -0.0947
  786MOL0     C 6039   5.534   6.076  11.248 -0.5246 -0.7849 -0.0879
  786MOL0     C 6040   5.447   6.011  11.185  0.5814  0.1390  0.3429
  786MOL0     C 6041   6.065   6.390  11.220 -0.1579 -0.1111  0.2137
  786MOL0     C 6042   6.203   6.384  11.186 -0.0338 -0.3213  0.3284
  786MOL0     H 6043   6.522   6.055  10.952 -0.1943  1.4230 -0.4091
  786MOL0     H 6044   6.744   6.019  10.852 -3.7000 -0.0073 -0.2902
  786MOL0     H 6045   6.923   5.885  10.832 -1.3559  1.9052 -1.1471
  786MOL0     H 6046   6.966   6.046  10.802 -0.2572 -0.2243 -0.0406
  786MOL0     H 6047   7.212   5.972  10.908 -0.1666 -0.7545 -0.9776
  786MOL0     H 6048   7.139   5.807  10.906  2.3366  0.1778  0.5895
  786MOL0     H 6049   7.127   5.801  10.692  3.1213 -2.2370 -2.0491
  786MOL0     H 6050   7.146   5.976  10.660 -3.2024 -1.4177  1.2624
  786MOL0     H 6051   7.327   5.830  10.585  1.2193 -0.6987  1.1925
  786MOL0     H 6052   7.383   5.965  10.690  0.9457 -1.7027  0.3431
  786MOL0     H 6053   7.433   5.819  10.865 -0.8254  1.5907 -1.5830
  786MOL0     H 6054   7.321   5.686  10.810 -0.6723  1.2230  2.5622
  786MOL0     H 6055   7.492   5.638  10.637 -0.5118  1.1802  0.0187
  786MOL0     H 6056   7.586   5.772  10.698 -1.4735  1.0544  0.7148
  786MOL0     H 6057   7.694   5.603  10.814  1.3281 -3.0992 -0.6986
  786MOL0     H 6058   7.577   5.635  10.932  0.5252  1.2081 -0.0441
  786MOL0     H 6059   7.641   5.393  10.764  0.5197  0.4752  0.3005
  786MOL0     H 6060   7.465   5.415  10.778 -0.0658  1.0388  0.0086
  786MOL0     H 6061   7.392   5.475  11.060  1.3286 -0.7793 -2.8176
  786MOL0     H 6062   7.331   5.310  11.302 -0.1395  1.0060  2.5693
  786MOL0     H 6063   7.488   5.244  11.362  3.2307  1.1689 -1.4641
  786MOL0     H 6064   7.478   5.548  11.328  1.0886 -0.7828 -1.5635
  786MOL0     H 6065   7.588   5.437  11.410  1.3263 -0.6816 -3.0964
  786MOL0     H 6066   7.432   5.377  11.590 -1.6227  0.2568  0.5213
  786MOL0     H 6067   7.297   5.474  11.510 -0.5429  1.6872  0.5290
  786MOL0     H 6068   7.432   5.674  11.532 -1.4103  1.0041  1.6997
  786MOL0     H 6069   7.519   5.576  11.662  0.6699  0.7662  1.1152
  786MOL0     H 6070   7.144   5.638  11.881 -4.5755  3.8925  0.8378
  786MOL0     H 6071   7.037   5.722  12.066  0.0610  0.5474  0.8180
  786MOL0     H 6072   7.085   5.874  12.139 -0.1740  0.8138 -0.1798
  786MOL0     H 6073   6.961   5.871  12.017 -1.1930 -1.1603  0.9854
  786MOL0     H 6074   7.505   6.310  11.962 -0.3790 -2.6197  1.5366
  786MOL0     H 6075   7.540   6.546  12.045  0.6682  1.1250  1.4517
  786MOL0     H 6076   7.413   6.860  12.140  1.6601  0.3617 -0.9494
  786MOL0     H 6077   7.473   6.754  12.012 -1.8819 -0.1299 -1.5596
  786MOL0     H 6078   7.316   6.921  11.946  2.0761 -0.1039  1.7388
  786MOL0     H 6079   7.252   6.752  11.922  1.6069 -1.9709  0.7668
  786MOL0     H 6080   7.197   6.943  12.157 -1.1630 -0.0340  2.6406
  786MOL0     H 6081   7.127   6.773  12.135  1.1052  0.3877  0.2359
  786MOL0     H 6082   7.061   7.025  11.984 -1.5282  0.6876  2.3735
  786MOL0     H 6083   7.013   6.868  11.929  0.1002 -0.4589 -0.2728
  786MOL0     H 6084   6.955   6.989  12.199  1.8664 -2.6697  0.3990
  786MOL0     H 6085   6.886   6.837  12.154 -3.1340  1.8177  1.6763
  786MOL0     H 6086   6.837   7.109  12.014 -0.2701  0.3936 -0.2987
  786MOL0     H 6087   6.766   6.965  11.950  1.9913 -1.2596  0.6890
  786MOL0     H 6088   6.577   7.050  12.060 -0.9019  2.3851  0.4365
  786MOL0     H 6089   6.685   7.112  12.194 -2.0002 -0.9926  1.5880
  786MOL0     H 6090   6.539   6.947  12.258  0.2769  3.8451 -0.9568
  786MOL0     H 6091   6.711   6.885  12.277  0.8067  2.8883  0.4071
  786MOL0     H 6092   7.143   6.520  12.214 -1.1129 -0.3983 -1.0952
  786MOL0     H 6093   7.131   6.285  12.148  1.3921 -0.2242  0.9031
  786MOL0     H 6094   7.422   6.029  11.809 -0.7153  1.7234  3.7856
  786MOL0     H 6095   7.468   5.837  11.686 -1.0711 -0.6435 -1.0649
  786MOL0     H 6096   6.923   6.095  11.233  1.0531  1.5174 -1.3556
  786MOL0     H 6097   6.703   6.145  11.334 -1.1644  0.2075 -0.3463
  786MOL0     H 6098   6.289   6.136  11.387  1.1889  3.5712  1.8692
  786MOL0     H 6099   6.064   6.149  11.466 -1.1199  0.9400 -0.3243
  786MOL0     H 6100   5.834   6.512  11.363 -3.8284 -0.1761  2.8266
  786MOL0     H 6101   5.764   6.416  11.226  0.7952 -1.0093  0.4836
  786MOL0     H 6102   5.611   6.480  11.420  1.5278 -0.1590 -4.3889
  786MOL0     H 6103   5.705   6.349  11.516  0.3997  0.2429  0.4028
  786MOL0     H 6104   5.506   6.330  11.289  0.6102  0.1108 -0.4061
  786MOL0     H 6105   5.512   6.249  11.449  2.1055 -2.5183  0.2031
  786MOL0     H 6106   5.692   6.112  11.390 -4.6254 -0.4032  2.9025
  786MOL0     H 6107   5.709   6.186  11.227 -0.3052  2.5952  0.2534
  786MOL0     H 6108   5.371   5.960  11.129  0.9698  2.0460 -2.0935
  786MOL0     H 6109   5.999   6.459  11.168  1.9507  1.6266 -0.2980
  786MOL0     H 6110   6.245   6.454  11.115 -2.0393  0.6564  0.0234
  787MOL0     O 6111   7.619   6.509   6.768 -0.3661 -0.2278  0.8868
  787MOL0     C 6112   7.498   6.531   6.804 -0.0810 -0.2972  0.9659
  787MOL0     O 6113   7.400   6.588   6.732 -0.2165 -0.3994  0.4223
  787MOL0     C 6114   7.423   6.624   6.597  0.4005  0.6429  0.1580
  787MOL0     C 6115   7.356   6.733   6.543  0.0441 -0.2021 -0.0007
  787MOL0     C 6116   7.385   6.768   6.409  0.0691 -0.2946 -0.0169
  787MOL0     C 6117   7.475   6.703   6.328  0.6756 -0.2923 -0.3850
  787MOL0     O 6118   7.503   6.743   6.193 -0.4580 -0.2073  0.4135
  787MOL0     C 6119   7.531   6.623   6.107 -0.8343  0.5340 -0.6670
  787MOL0     C 6120   7.529   6.652   5.964 -0.4062 -0.7552 -1.0795
  787MOL0     C 6121   7.636   6.752   5.918 -0.5371  0.4905 -0.7408
  787MOL0     C 6122   7.771   6.679   5.908  0.1762 -0.5792 -0.4180
  787MOL0     C 6123   7.864   6.770   5.825  0.7948  0.1710 -0.3578
  787MOL0     C 6124   8.005   6.703   5.814  0.2683  0.7324 -0.7931
  787MOL0     C 6125   8.097   6.827   5.760  0.4525  0.4400  0.1939
  787MOL0     C 6126   8.234   6.794   5.753 -0.0742 -0.5391 -0.2648
  787MOL0     N 6127   8.311   6.790   5.885  0.1780 -0.1437 -0.3450
  787MOL0     C 6128   8.373   6.893   5.944  0.2488 -0.2467  0.8218
  787MOL0     C 6129   8.420   6.844   6.058  0.1407 -0.0288  0.0163
  787MOL0     C 6130   8.507   6.925   6.155 -0.6756 -0.4298 -0.7188
  787MOL0     C 6131   8.642   6.862   6.185 -0.1081  1.1525  0.2969
  787MOL0     C 6132   8.738   6.962   6.232 -0.8898  0.6101  0.2905
  787MOL0     C 6133   8.882   6.897   6.248  0.7231 -0.5493 -0.1361
  787MOL0     O 6134   8.933   6.855   6.126  0.1491  0.3971 -0.4369
  787MOL0     C 6135   9.074   6.832   6.125 -0.6106  0.9703  0.4798
  787MOL0     C 6136   9.135   6.861   6.006  0.5093 -0.8967  0.3453
  787MOL0     C 6137   9.273   6.843   5.989  0.0745  0.0043 -1.2035
  787MOL0     C 6138   9.331   6.878   5.857 -0.5449 -0.2115 -0.7637
  787MOL0     C 6139   9.362   6.814   6.099  0.4365 -0.1904  0.0100
  787MOL0     C 6140   9.508   6.815   6.097  0.0172 -0.6376 -0.2669
  787MOL0     O 6141   9.570   6.799   6.215  0.0724  0.4964  0.0790
  787MOL0     C 6142   9.704   6.781   6.212  0.3086  0.0928  0.7952
  787MOL0     C 6143   9.758   6.692   6.119  0.7474 -0.0425  0.1401
  787MOL0     C 6144   9.888   6.656   6.116 -0.5101 -0.2230 -0.6194
  787MOL0     C 6145   9.975   6.719   6.204 -0.4966 -0.9688 -0.3300
  787MOL0     O 6146  10.105   6.676   6.190 -0.8579  0.5404 -0.4943
  787MOL0     C 6147  10.178   6.686   6.305 -0.1639  0.2009  0.0495
  787MOL0     C 6148  10.322   6.655   6.264 -0.1171  0.4054 -2.2254
  787MOL0     C 6149  10.405   6.636   6.389 -0.1374 -0.2997  0.4184
  787MOL0     C 6150  10.555   6.656   6.370 -0.1777 -0.0289 -0.6007
  787MOL0     C 6151  10.634   6.644   6.500 -0.4955 -0.1983 -0.3300
  787MOL0     C 6152  10.787   6.632   6.467 -0.1206 -0.2068  0.5008
  787MOL0     C 6153  10.830   6.772   6.405  1.0239  0.6542 -0.3434
  787MOL0     C 6154  10.977   6.759   6.370  0.8818  0.5316 -0.7237
  787MOL0    Cl 6155  11.063   6.918   6.361  0.1336 -0.2595  0.2183
  787MOL0     C 6156   9.929   6.821   6.286 -0.0492 -0.0286  0.3879
  787MOL0     C 6157   9.790   6.846   6.302 -1.4328 -0.1241  0.0082
  787MOL0     O 6158   9.564   6.833   5.991 -0.2276  0.4797 -0.4076
  787MOL0     C 6159   9.291   6.799   6.218 -0.7939  0.5816  1.8377
  787MOL0     C 6160   9.152   6.805   6.230  0.2689  0.6509  0.6173
  787MOL0     N 6161   8.381   6.715   6.074  0.0252  0.0997 -0.6822
  787MOL0     N 6162   8.322   6.680   5.968  0.4925  0.2186 -0.0974
  787MOL0     C 6163   7.525   6.582   6.383  0.5588 -0.2734 -0.1513
  787MOL0     C 6164   7.497   6.543   6.519  0.7219  0.0122 -0.1643
  787MOL0     C 6165   7.477   6.536   6.943  0.2052 -1.2227  0.3368
  787MOL0     C 6166   7.584   6.512   7.035  0.3892  0.6710  0.7351
  787MOL0     C 6167   7.563   6.501   7.173  0.1560  0.1178  0.0509
  787MOL0     C 6168   7.438   6.533   7.220  0.8429 -0.3199 -0.4719
  787MOL0     O 6169   7.396   6.520   7.351 -0.1421  1.0220 -0.2359
  787MOL0     C 6170   7.499   6.531   7.451  0.5776 -0.0282 -0.0336
  787MOL0     C 6171   7.443   6.512   7.593 -0.3706 -0.0464  0.3603
  787MOL0     C 6172   7.353   6.395   7.595  0.4099  0.8211  0.1085
  787MOL0     C 6173   7.306   6.347   7.736 -0.6956  0.7197 -0.3463
  787MOL0     C 6174   7.420   6.277   7.795  0.2884  0.3973  0.2991
  787MOL0     C 6175   7.518   6.218   7.828 -0.5130 -0.7316 -0.0218
  787MOL0     C 6176   7.333   6.563   7.133 -0.2989  0.3041 -0.2312
  787MOL0     C 6177   7.347   6.566   6.992  0.0942  0.2333 -0.5478
  787MOL0     H 6178   7.290   6.795   6.604  2.8298  2.8193  0.2228
  787MOL0     H 6179   7.319   6.847   6.374  0.0145 -1.0164 -1.6351
  787MOL0     H 6180   7.617   6.563   6.137 -1.4391  0.2016  0.4687
  787MOL0     H 6181   7.442   6.564   6.131 -0.5037  0.4940  0.5275
  787MOL0     H 6182   7.528   6.560   5.905 -2.1450 -0.7057 -1.1846
  787MOL0     H 6183   7.439   6.712   5.948  1.0385  1.4190 -1.4506
  787MOL0     H 6184   7.611   6.789   5.819 -0.5370 -1.7766 -1.6548
  787MOL0     H 6185   7.658   6.834   5.988  0.5973  0.7720 -1.4010
  787MOL0     H 6186   7.808   6.659   6.009  0.1917  0.3394 -0.2350
  787MOL0     H 6187   7.752   6.581   5.862  2.3810 -2.2970  2.0513
  787MOL0     H 6188   7.826   6.813   5.732 -2.8835  2.8180  2.0607
  787MOL0     H 6189   7.877   6.856   5.891 -1.7452 -1.0110  1.9291
  787MOL0     H 6190   8.038   6.655   5.906  0.2898  0.6491 -0.8439
  787MOL0     H 6191   7.999   6.623   5.740  1.6646  0.2678 -0.4209
  787MOL0     H 6192   8.065   6.866   5.663 -0.6367  1.0861  0.7957
  787MOL0     H 6193   8.067   6.911   5.824 -0.5476 -1.2979  2.1411
  787MOL0     H 6194   8.280   6.872   5.693  0.4708 -0.5074  0.1900
  787MOL0     H 6195   8.250   6.709   5.686  1.7331 -0.8474  0.5103
  787MOL0     H 6196   8.381   6.994   5.905  1.4083 -1.0330 -1.1116
  787MOL0     H 6197   8.518   7.028   6.122 -0.8545 -1.0585 -2.8985
  787MOL0     H 6198   8.455   6.932   6.251 -0.0157 -3.7518  0.0245
  787MOL0     H 6199   8.669   6.813   6.091 -0.8291 -0.3327  0.8383
  787MOL0     H 6200   8.618   6.788   6.262 -0.4401  2.4254  1.4567
  787MOL0     H 6201   8.701   6.994   6.330 -0.1900 -1.5258  1.3037
  787MOL0     H 6202   8.746   7.049   6.166  2.0628  1.9800  2.2000
  787MOL0     H 6203   8.862   6.814   6.317 -0.7110  0.7452  1.1028
  787MOL0     H 6204   8.930   6.984   6.295  0.0483  0.5687 -1.4469
  787MOL0     H 6205   9.074   6.896   5.924  4.0462  0.6074 -1.8420
  787MOL0     H 6206   9.388   6.971   5.848  3.5637 -2.5264 -1.4639
  787MOL0     H 6207   9.406   6.802   5.836  1.5216  0.7464  2.4639
  787MOL0     H 6208   9.260   6.880   5.773  2.1836  1.2317 -3.2400
  787MOL0     H 6209   9.691   6.634   6.057  2.1993 -2.7636  0.9722
  787MOL0     H 6210   9.923   6.581   6.046  3.2480  1.6572 -1.0400
  787MOL0     H 6211  10.168   6.790   6.337 -1.9567  0.0843 -0.0712
  787MOL0     H 6212  10.138   6.616   6.379 -1.1055 -0.3995 -1.0000
  787MOL0     H 6213  10.316   6.569   6.196 -3.1254 -0.6364 -0.7853
  787MOL0     H 6214  10.363   6.743   6.212 -0.5241  1.3973 -0.9139
  787MOL0     H 6215  10.388   6.536   6.430 -0.2085  0.8354  3.4167
  787MOL0     H 6216  10.378   6.710   6.464 -2.6478  0.7907 -1.4408
  787MOL0     H 6217  10.595   6.574   6.310  0.2769  0.7075 -1.3343
  787MOL0     H 6218  10.571   6.754   6.324 -1.1606  3.1226  4.8167
  787MOL0     H 6219  10.605   6.567   6.573  1.0999  0.5039  1.1173
  787MOL0     H 6220  10.625   6.742   6.548  1.8599 -0.1377  0.1146
  787MOL0     H 6221  10.843   6.620   6.561  1.0551  1.1743  0.0089
  787MOL0     H 6222  10.814   6.553   6.396  1.2683  0.8358 -0.1955
  787MOL0     H 6223  10.822   6.851   6.481 -1.6204  0.1453  0.0075
  787MOL0     H 6224  10.769   6.818   6.326  3.1218  3.1185 -0.6678
  787MOL0     H 6225  10.974   6.723   6.267  0.9118  2.3124 -1.3875
  787MOL0     H 6226  11.030   6.693   6.440 -2.5682  1.2551  2.8876
  787MOL0     H 6227   9.991   6.883   6.349  0.0662  0.1219  0.1268
  787MOL0     H 6228   9.753   6.916   6.377 -3.8207  0.5803 -1.7164
  787MOL0     H 6229   9.340   6.763   6.308 -0.5786 -3.8003  0.2512
  787MOL0     H 6230   9.115   6.781   6.330  2.7607  1.0419  1.7031
  787MOL0     H 6231   7.586   6.507   6.333  0.1105  0.3657 -1.7217
  787MOL0     H 6232   7.541   6.449   6.551  0.1167  0.3691  1.7986
  787MOL0     H 6233   7.684   6.484   7.004 -0.4480  0.8221 -2.3801
  787MOL0     H 6234   7.640   6.458   7.236 -0.6970 -0.3161  0.8197
  787MOL0     H 6235   7.568   6.448   7.436  0.0040 -1.3939  3.8214
  787MOL0     H 6236   7.547   6.628   7.437  0.0311  0.4895  1.4953
  787MOL0     H 6237   7.396   6.602   7.635 -1.9787 -0.8893  0.4539
  787MOL0     H 6238   7.528   6.497   7.661 -1.1320  1.9054  1.8242
  787MOL0     H 6239   7.395   6.307   7.546  1.2172 -0.0393  2.2134
  787MOL0     H 6240   7.261   6.433   7.549  0.4335 -0.0428 -0.6758
  787MOL0     H 6241   7.215   6.286   7.728 -0.6062 -0.2717  3.9272
  787MOL0     H 6242   7.270   6.431   7.796 -1.7835  0.3987 -0.5173
  787MOL0     H 6243   7.607   6.164   7.855  0.1376  0.6174  0.6061
  787MOL0     H 6244   7.230   6.577   7.165 -1.0044 -0.7378 -1.8890
  787MOL0     H 6245   7.264   6.590   6.928 -1.5485  2.6628  2.2237
  788MOL0     O 6246   0.029   0.133   3.985  0.5241 -1.2103 -0.0108
  788MOL0     C 6247   0.037   0.170   3.867  0.0419  1.0427  0.0188
  788MOL0     O 6248   0.095   0.285   3.824  0.5641  0.2742  0.1214
  788MOL0     C 6249   0.187   0.352   3.896  0.2571 -0.9324 -0.2280
  788MOL0     C 6250   0.181   0.495   3.874 -0.7831  0.7491 -0.3671
  788MOL0     C 6251   0.259   0.579   3.961  1.2030  0.7081  0.5232
  788MOL0     C 6252   0.342   0.516   4.056 -0.3506 -0.0333 -0.3189
  788MOL0     O 6253   0.390   0.606   4.144  0.6059  0.2701  0.1143
  788MOL0     C 6254   0.500   0.584   4.236 -0.2409 -1.0556 -0.3762
  788MOL0     C 6255   0.491   0.700   4.333 -0.2845 -0.7840 -0.2830
  788MOL0     C 6256   0.559   0.698   4.477 -0.7017  0.3582 -0.1843
  788MOL0     C 6257   0.712   0.727   4.460  0.0880 -0.7681 -0.0826
  788MOL0     C 6258   0.776   0.726   4.593  0.3241  0.0094 -0.5094
  788MOL0     C 6259   0.792   0.582   4.645  0.4049  0.5916  0.3576
  788MOL0     C 6260   0.910   0.575   4.737  0.5067  0.3897 -0.5682
  788MOL0     C 6261   0.919   0.432   4.804  0.9008 -0.1010  0.2572
  788MOL0     N 6262   0.930   0.318   4.714  0.6684 -0.3521 -0.0448
  788MOL0     C 6263   0.828   0.231   4.683 -0.5055  0.0727  0.1663
  788MOL0     C 6264   0.893   0.124   4.628  0.4037  0.0846  0.7469
  788MOL0     C 6265   0.820   0.023   4.551  0.1976 -0.1858  0.5815
  788MOL0     C 6266   0.907  -0.061   4.446 -0.4341 -0.3711  0.5684
  788MOL0     C 6267   0.825  -0.173   4.387 -0.3175  0.3690 -0.0422
  788MOL0     C 6268   0.920  -0.276   4.334 -0.4740  0.6592 -0.5520
  788MOL0     O 6269   0.986  -0.344   4.447 -0.0393 -0.0015 -0.5211
  788MOL0     C 6270   1.020  -0.483   4.432  0.7384 -1.0140  0.5285
  788MOL0     C 6271   1.026  -0.566   4.545  0.2401 -0.6439 -0.1410
  788MOL0     C 6272   1.032  -0.704   4.539  0.8069 -0.0783 -0.4133
  788MOL0     C 6273   1.010  -0.773   4.673 -1.7166  0.4671 -0.9236
  788MOL0     C 6274   1.041  -0.767   4.408  0.3746  0.6495  0.5342
  788MOL0     C 6275   1.043  -0.916   4.389 -0.5349 -0.1806  0.5412
  788MOL0     O 6276   1.112  -0.988   4.475  0.1053  0.9134  0.0351
  788MOL0     C 6277   1.116  -1.129   4.493  1.0185 -0.2747  0.4834
  788MOL0     C 6278   1.235  -1.182   4.534  0.1947  0.1938 -0.6778
  788MOL0     C 6279   1.252  -1.317   4.556  0.2564  0.1927  1.1831
  788MOL0     C 6280   1.140  -1.392   4.572  0.3780  0.5253 -0.0517
  788MOL0     O 6281   1.146  -1.518   4.628  0.2040 -0.0496  0.1483
  788MOL0     C 6282   1.043  -1.620   4.642  0.1359 -0.4163 -0.1866
  788MOL0     C 6283   0.967  -1.599   4.776 -0.9056  0.3141 -0.1967
  788MOL0     C 6284   0.882  -1.722   4.807  0.1289  0.3359 -0.1849
  788MOL0     C 6285   0.803  -1.717   4.931  0.6188 -0.5535 -0.0828
  788MOL0     C 6286   0.681  -1.809   4.919  0.0251 -0.4696 -0.0272
  788MOL0     C 6287   0.556  -1.730   4.877  0.6241 -0.0968 -0.5613
  788MOL0     C 6288   0.430  -1.812   4.895 -0.4248 -0.6544  0.3779
  788MOL0     C 6289   0.416  -1.938   4.808 -0.0969  0.1835  0.4138
  788MOL0    Cl 6290   0.240  -1.989   4.809  0.4141 -0.0962 -0.0823
  788MOL0     C 6291   1.018  -1.338   4.519 -0.2678  0.6409  0.2193
  788MOL0     C 6292   1.009  -1.201   4.487  0.3827 -0.2404  0.1964
  788MOL0     O 6293   0.997  -0.960   4.286 -1.3124 -0.1303  0.4250
  788MOL0     C 6294   1.044  -0.681   4.296  0.2461  0.4312 -0.0580
  788MOL0     C 6295   1.037  -0.543   4.298 -0.1490 -0.0233 -0.8350
  788MOL0     N 6296   1.028   0.138   4.642 -0.3900  0.7462  0.7907
  788MOL0     N 6297   1.048   0.249   4.707  0.4652 -0.3860  0.3354
  788MOL0     C 6298   0.354   0.379   4.064  0.3890  0.2949 -0.2498
  788MOL0     C 6299   0.272   0.296   3.990 -0.3174  0.5543  0.5582
  788MOL0     C 6300  -0.034   0.100   3.762 -0.8087  0.5327  0.3546
  788MOL0     C 6301  -0.019   0.142   3.628 -0.3186 -0.8343  0.2506
  788MOL0     C 6302  -0.081   0.070   3.533 -0.5990 -0.1659  0.2821
  788MOL0     C 6303  -0.168  -0.040   3.554  0.4844 -1.1287  0.5075
  788MOL0     O 6304  -0.235  -0.088   3.445 -0.8744  0.5332 -0.1100
  788MOL0     C 6305  -0.329  -0.194   3.449 -0.4403 -0.4481 -0.1432
  788MOL0     C 6306  -0.409  -0.210   3.325  0.5116  1.1594  0.0796
  788MOL0     C 6307  -0.343  -0.274   3.204  0.0773  0.0422 -0.3932
  788MOL0     C 6308  -0.443  -0.322   3.107  0.0493 -0.1184  0.6033
  788MOL0     C 6309  -0.507  -0.216   3.024 -0.4316  0.5603  0.1439
  788MOL0     C 6310  -0.547  -0.139   2.937  0.0355 -0.0387  0.6410
  788MOL0     C 6311  -0.189  -0.081   3.691 -0.2654  0.4435  0.5828
  788MOL0     C 6312  -0.115  -0.017   3.786  0.7743 -0.8801 -0.0216
  788MOL0     H 6313   0.109   0.538   3.805 -0.6311  0.0726 -0.9594
  788MOL0     H 6314   0.238   0.686   3.969  3.0973  1.0100  2.5418
  788MOL0     H 6315   0.476   0.499   4.300  0.5686 -0.3284  0.9551
  788MOL0     H 6316   0.601   0.582   4.193 -0.0246 -1.1229  0.1229
  788MOL0     H 6317   0.537   0.790   4.293 -1.2497  0.8120  1.9645
  788MOL0     H 6318   0.382   0.712   4.341 -0.4739 -1.6481 -1.3098
  788MOL0     H 6319   0.514   0.779   4.536  2.5633  1.5396  0.9229
  788MOL0     H 6320   0.539   0.601   4.523 -0.9758 -0.2177 -1.4767
  788MOL0     H 6321   0.760   0.653   4.394 -1.7063 -1.4170 -0.7040
  788MOL0     H 6322   0.729   0.820   4.406  1.3702 -0.8769  0.0979
  788MOL0     H 6323   0.878   0.767   4.586  0.1008  0.6315 -0.2254
  788MOL0     H 6324   0.724   0.786   4.668 -0.9223 -2.9291  1.1386
  788MOL0     H 6325   0.700   0.550   4.696  1.3833 -2.9616  0.1807
  788MOL0     H 6326   0.819   0.518   4.561 -1.9111 -0.1553  0.0885
  788MOL0     H 6327   0.993   0.595   4.670  0.8631 -1.6615 -0.8072
  788MOL0     H 6328   0.890   0.649   4.815  1.7932 -0.7225  0.8889
  788MOL0     H 6329   0.822   0.420   4.852  2.1853 -0.6989  2.8953
  788MOL0     H 6330   1.003   0.431   4.874  1.0012  2.7784  0.2968
  788MOL0     H 6331   0.721   0.247   4.691 -0.7608 -0.8209 -1.1127
  788MOL0     H 6332   0.758  -0.036   4.619 -1.1667 -3.3392 -3.0521
  788MOL0     H 6333   0.749   0.074   4.486  0.8275 -1.7848 -1.4445
  788MOL0     H 6334   0.993  -0.096   4.504  2.5727  2.1165 -2.0519
  788MOL0     H 6335   0.954  -0.006   4.364 -0.6510 -1.5201 -0.3576
  788MOL0     H 6336   0.759  -0.129   4.312 -0.7297 -1.6033 -0.9190
  788MOL0     H 6337   0.778  -0.221   4.473  3.9729 -1.5616  1.5285
  788MOL0     H 6338   0.989  -0.250   4.254  0.3916  0.8067  0.2190
  788MOL0     H 6339   0.862  -0.357   4.288 -0.5628  0.1697  0.3783
  788MOL0     H 6340   1.011  -0.517   4.640 -2.2366  0.7121 -1.1233
  788MOL0     H 6341   0.907  -0.759   4.707 -1.2867  0.1448  0.6203
  788MOL0     H 6342   1.035  -0.880   4.678 -0.0667  0.7568 -2.0800
  788MOL0     H 6343   1.080  -0.718   4.738 -2.5062  0.6085 -0.1782
  788MOL0     H 6344   1.321  -1.115   4.536 -0.6168  1.4699  3.9148
  788MOL0     H 6345   1.352  -1.353   4.577  1.3622  2.6356  0.5003
  788MOL0     H 6346   0.969  -1.628   4.562  2.1521  0.7381 -2.2668
  788MOL0     H 6347   1.106  -1.707   4.664  0.1522 -0.1389  0.9369
  788MOL0     H 6348   1.040  -1.570   4.851 -0.7761 -0.3201 -0.0736
  788MOL0     H 6349   0.895  -1.517   4.766 -0.2959  0.8038 -0.5968
  788MOL0     H 6350   0.948  -1.809   4.812  0.2809  0.4305 -0.4942
  788MOL0     H 6351   0.812  -1.735   4.724 -2.2229 -0.4053  1.7924
  788MOL0     H 6352   0.859  -1.752   5.019  1.5976  2.1410  0.4673
  788MOL0     H 6353   0.768  -1.615   4.949  1.6818 -0.3242  0.8027
  788MOL0     H 6354   0.653  -1.851   5.016 -2.7240  1.2120  0.0215
  788MOL0     H 6355   0.685  -1.890   4.845 -1.2729  0.5977 -1.3099
  788MOL0     H 6356   0.537  -1.630   4.917  1.6213 -0.0800 -0.1084
  788MOL0     H 6357   0.574  -1.705   4.772  3.2910  1.7140  0.2108
  788MOL0     H 6358   0.344  -1.751   4.868 -0.2042 -0.6012 -0.2280
  788MOL0     H 6359   0.429  -1.830   5.003 -0.7540 -0.6823  0.3696
  788MOL0     H 6360   0.477  -2.024   4.837  1.6319 -0.2608 -3.7659
  788MOL0     H 6361   0.460  -1.923   4.709  0.6512 -0.6079  0.6168
  788MOL0     H 6362   0.933  -1.405   4.528 -0.7651  1.2513  0.1291
  788MOL0     H 6363   0.912  -1.153   4.475 -0.4528 -2.1764 -1.3031
  788MOL0     H 6364   1.041  -0.717   4.193 -0.6202 -1.1511  0.4746
  788MOL0     H 6365   1.028  -0.486   4.207  0.8164  1.4421 -0.0445
  788MOL0     H 6366   0.416   0.349   4.147  0.0105  2.4447  0.8910
  788MOL0     H 6367   0.272   0.189   4.009 -2.2731  0.5973  1.0871
  788MOL0     H 6368   0.047   0.224   3.601  2.7118 -1.2110  5.2557
  788MOL0     H 6369  -0.063   0.106   3.432  0.3102  0.4511  0.6534
  788MOL0     H 6370  -0.280  -0.290   3.463 -3.6974 -3.0085 -3.8206
  788MOL0     H 6371  -0.397  -0.169   3.531  0.3822 -0.1310  0.4520
  788MOL0     H 6372  -0.440  -0.112   3.288  1.3472  1.6683  0.6867
  788MOL0     H 6373  -0.501  -0.264   3.347  0.5497  1.4364  0.9586
  788MOL0     H 6374  -0.279  -0.358   3.231 -1.3171 -2.3458 -3.8242
  788MOL0     H 6375  -0.278  -0.192   3.169  0.1087  1.1882  2.1368
  788MOL0     H 6376  -0.510  -0.380   3.170  0.3491 -1.6554 -0.4467
  788MOL0     H 6377  -0.383  -0.395   3.052  1.1075  1.4351 -0.4179
  788MOL0     H 6378  -0.575  -0.068   2.862  0.1391  0.5094  1.1155
  788MOL0     H 6379  -0.255  -0.166   3.705 -1.7235  0.3547 -4.6701
  788MOL0     H 6380  -0.114  -0.050   3.890  3.5427  0.6922  0.5760
  789MOL0     O 6381   3.671   3.961   6.579 -0.4139  0.1754  0.8058
  789MOL0     C 6382   3.702   3.974   6.695 -0.2810 -0.4742  0.0458
  789MOL0     O 6383   3.821   3.943   6.750 -0.1971  0.3203  0.2627
  789MOL0     C 6384   3.900   3.846   6.691 -0.3595  0.0213 -0.0790
  789MOL0     C 6385   3.862   3.744   6.607 -0.2766  1.2545  0.3170
  789MOL0     C 6386   3.950   3.654   6.555 -0.6333 -0.2531 -0.9627
  789MOL0     C 6387   4.093   3.686   6.570  0.8262  1.0165 -0.9721
  789MOL0     O 6388   4.184   3.600   6.514 -0.1212 -0.0739  0.3467
  789MOL0     C 6389   4.302   3.573   6.588  0.3274  0.2246 -0.8891
  789MOL0     C 6390   4.268   3.481   6.704  0.3362 -0.6535  0.3444
  789MOL0     C 6391   4.209   3.346   6.658 -0.8450  0.5493  0.1220
  789MOL0     C 6392   4.136   3.275   6.770  0.4597 -0.0786 -0.4873
  789MOL0     C 6393   4.081   3.138   6.719  0.8633 -0.2266 -0.1534
  789MOL0     C 6394   3.967   3.092   6.814 -0.1333 -0.4516  0.2597
  789MOL0     C 6395   3.951   2.941   6.803  0.0520  0.2130 -0.1597
  789MOL0     C 6396   3.902   2.904   6.675 -0.8429  0.8112  0.0947
  789MOL0     N 6397   3.894   2.751   6.656  1.5246  0.4171 -0.4369
  789MOL0     C 6398   3.807   2.679   6.567 -0.2991  0.4860  0.2429
  789MOL0     C 6399   3.855   2.550   6.586 -0.3478  0.0236 -0.0871
  789MOL0     C 6400   3.815   2.424   6.528  0.8859 -0.2856  0.1957
  789MOL0     C 6401   3.695   2.348   6.593 -0.0597 -0.2466  0.1840
  789MOL0     C 6402   3.747   2.214   6.668  0.1332  0.5114 -0.3190
  789MOL0     C 6403   3.639   2.124   6.716  0.0091 -0.6789 -0.7689
  789MOL0     O 6404   3.699   1.998   6.758 -0.6986  0.1227  0.2181
  789MOL0     C 6405   3.620   1.890   6.769 -0.4002  0.6308  0.2971
  789MOL0     C 6406   3.475   1.874   6.759 -0.2405  0.5923 -0.2672
  789MOL0     C 6407   3.415   1.752   6.771 -0.8176  0.3431  0.5388
  789MOL0     C 6408   3.267   1.743   6.732 -0.2353  0.2103 -0.3169
  789MOL0     C 6409   3.487   1.638   6.807  0.1582  0.7721  0.1061
  789MOL0     C 6410   3.415   1.506   6.832  0.5968 -2.0785  0.1927
  789MOL0     O 6411   3.495   1.394   6.814  0.2025  0.0441 -0.8084
  789MOL0     C 6412   3.436   1.272   6.854 -0.0169 -0.8289  0.6853
  789MOL0     C 6413   3.498   1.188   6.941 -0.1675  0.2140  0.1821
  789MOL0     C 6414   3.429   1.069   6.965 -0.7940 -0.6557 -0.8878
  789MOL0     C 6415   3.314   1.032   6.902  0.1490  0.2309  0.1858
  789MOL0     O 6416   3.266   0.909   6.948  0.7284 -0.1273  0.3283
  789MOL0     C 6417   3.173   0.829   6.877 -0.0206 -0.8842  0.3805
  789MOL0     C 6418   3.148   0.698   6.953  0.2198  0.4655 -0.9896
  789MOL0     C 6419   3.250   0.580   6.933 -0.0515 -0.1387  0.2935
  789MOL0     C 6420   3.388   0.613   6.977 -0.3646 -0.5103 -0.1705
  789MOL0     C 6421   3.490   0.497   6.953  0.4653  0.3146 -0.5857
  789MOL0     C 6422   3.530   0.486   6.811  0.0346  1.4943  0.7250
  789MOL0     C 6423   3.621   0.360   6.786  0.9638 -0.8437 -0.1286
  789MOL0     C 6424   3.656   0.357   6.638 -0.2268  0.5031  0.2373
  789MOL0    Cl 6425   3.523   0.327   6.525  1.0346 -0.3561  0.4380
  789MOL0     C 6426   3.251   1.117   6.809  0.1459 -0.1990  0.1422
  789MOL0     C 6427   3.316   1.239   6.789 -0.5187  0.1654  0.8355
  789MOL0     O 6428   3.298   1.507   6.866  0.8408  0.8668  0.0147
  789MOL0     C 6429   3.631   1.645   6.820  0.9544  0.3935 -0.7207
  789MOL0     C 6430   3.693   1.769   6.799 -1.0511  0.4053  0.0356
  789MOL0     N 6431   3.954   2.545   6.683  0.0523  0.2628  0.2220
  789MOL0     N 6432   3.976   2.668   6.722  0.5221  0.7306 -1.0367
  789MOL0     C 6433   4.128   3.793   6.653 -0.0339  0.2856 -0.3533
  789MOL0     C 6434   4.035   3.872   6.715 -1.0032 -0.4003 -0.8667
  789MOL0     C 6435   3.633   4.081   6.769  0.1264 -0.1341  0.2033
  789MOL0     C 6436   3.582   4.192   6.700 -0.1963 -0.4334  0.0640
  789MOL0     C 6437   3.528   4.296   6.771  0.8897 -0.0748 -0.8809
  789MOL0     C 6438   3.519   4.287   6.910  0.0321 -0.0785 -0.0054
  789MOL0     O 6439   3.468   4.403   6.963 -0.4684 -0.6969  0.3731
  789MOL0     C 6440   3.446   4.410   7.103 -0.3384  0.2371 -0.0842
  789MOL0     C 6441   3.345   4.315   7.169 -0.1183  0.4467  0.5548
  789MOL0     C 6442   3.207   4.373   7.174 -0.1142  0.4055 -0.6257
  789MOL0     C 6443   3.090   4.278   7.211  0.5289  0.7724  0.2120
  789MOL0     C 6444   3.096   4.236   7.349 -0.1051 -0.8926 -0.0091
  789MOL0     C 6445   3.103   4.226   7.469  0.3685 -0.2434 -0.5016
  789MOL0     C 6446   3.569   4.183   6.980  0.3908 -0.2882 -0.4129
  789MOL0     C 6447   3.634   4.085   6.911 -0.0781 -0.6418 -0.4652
  789MOL0     H 6448   3.758   3.724   6.584  0.2838 -1.0907 -0.4538
  789MOL0     H 6449   3.926   3.562   6.502  2.5846 -3.0237  1.9416
  789MOL0     H 6450   4.365   3.514   6.521  1.7473  0.0940  0.5206
  789MOL0     H 6451   4.360   3.658   6.625 -0.4333  1.0585 -1.5690
  789MOL0     H 6452   4.359   3.468   6.763 -0.1083  0.7176  1.3997
  789MOL0     H 6453   4.188   3.532   6.759  0.2515  1.5257 -1.6190
  789MOL0     H 6454   4.148   3.357   6.568 -0.6263 -0.4271 -0.1633
  789MOL0     H 6455   4.297   3.282   6.647  0.0804  1.8047  0.0398
  789MOL0     H 6456   4.181   3.256   6.868  0.8571 -0.5021 -0.7541
  789MOL0     H 6457   4.051   3.342   6.789  0.2988  0.0690 -1.6558
  789MOL0     H 6458   4.040   3.148   6.618 -0.7354 -1.1044  0.3747
  789MOL0     H 6459   4.160   3.063   6.712 -0.3047 -1.5395  0.0910
  789MOL0     H 6460   4.008   3.114   6.914  1.0923 -0.5511 -0.2060
  789MOL0     H 6461   3.878   3.152   6.792  0.4087 -0.0903 -1.0070
  789MOL0     H 6462   4.045   2.896   6.835  0.4603  0.4856 -0.9454
  789MOL0     H 6463   3.869   2.914   6.871 -1.6657  2.3788 -1.2128
  789MOL0     H 6464   3.977   2.938   6.604  0.2757 -0.7529  0.4672
  789MOL0     H 6465   3.804   2.949   6.656 -1.9238 -0.5059  2.1366
  789MOL0     H 6466   3.721   2.696   6.505  1.7206 -2.9673 -4.0340
  789MOL0     H 6467   3.788   2.451   6.425 -0.3619 -1.4655  0.1748
  789MOL0     H 6468   3.903   2.363   6.506 -0.0847 -1.0003 -2.0640
  789MOL0     H 6469   3.623   2.307   6.521 -1.3368  0.9002  0.7504
  789MOL0     H 6470   3.630   2.400   6.664 -0.7153  0.6856 -1.0626
  789MOL0     H 6471   3.811   2.245   6.751  2.1369 -1.2456 -1.1062
  789MOL0     H 6472   3.806   2.150   6.602  0.4914  0.4152  0.0904
  789MOL0     H 6473   3.561   2.105   6.642 -0.4846 -1.0279 -0.1649
  789MOL0     H 6474   3.579   2.176   6.790  0.2220  0.9807 -1.7125
  789MOL0     H 6475   3.412   1.959   6.735 -1.3204 -0.7460 -2.4478
  789MOL0     H 6476   3.209   1.733   6.823  3.0743  0.1038  1.9552
  789MOL0     H 6477   3.241   1.840   6.689 -0.2857  1.1327  1.6866
  789MOL0     H 6478   3.247   1.667   6.656 -1.5370  1.1454 -0.9597
  789MOL0     H 6479   3.595   1.222   6.975  0.6366  0.9536 -2.5678
  789MOL0     H 6480   3.488   1.002   7.026  2.4148  0.1935 -2.8445
  789MOL0     H 6481   3.084   0.892   6.864 -0.2606 -1.4206 -0.8224
  789MOL0     H 6482   3.206   0.798   6.777  1.9174  0.8367  0.4232
  789MOL0     H 6483   3.132   0.736   7.054 -1.1897  2.3519 -1.8600
  789MOL0     H 6484   3.054   0.653   6.921 -0.9494 -0.7123  3.3448
  789MOL0     H 6485   3.259   0.571   6.824 -1.2600 -1.8491  0.3094
  789MOL0     H 6486   3.215   0.488   6.979  2.8469  0.7129  4.8460
  789MOL0     H 6487   3.439   0.699   6.931  0.1572 -0.7282 -0.0078
  789MOL0     H 6488   3.374   0.635   7.083  1.1027  0.1753 -0.0840
  789MOL0     H 6489   3.450   0.406   6.998 -0.1693  2.4073  3.5048
  789MOL0     H 6490   3.577   0.527   7.012  0.9467  0.5145 -1.3815
  789MOL0     H 6491   3.443   0.472   6.746  0.1618 -2.5538  1.1471
  789MOL0     H 6492   3.586   0.577   6.790  0.5358  1.6561  2.5787
  789MOL0     H 6493   3.563   0.274   6.820 -1.1291  1.2920  2.2321
  789MOL0     H 6494   3.717   0.373   6.837  0.4086  4.0100  0.2127
  789MOL0     H 6495   3.709   0.263   6.621 -0.5836  0.0865  1.3331
  789MOL0     H 6496   3.713   0.446   6.609 -3.0699  3.0575  1.8328
  789MOL0     H 6497   3.160   1.082   6.761  0.3973 -0.0427 -0.4504
  789MOL0     H 6498   3.275   1.291   6.703 -4.8155 -3.0318  0.6153
  789MOL0     H 6499   3.692   1.557   6.834  1.2447  0.1635 -3.0525
  789MOL0     H 6500   3.795   1.777   6.834 -0.8565  1.6827 -0.7489
  789MOL0     H 6501   4.231   3.828   6.659  1.5138 -3.7934  0.0959
  789MOL0     H 6502   4.066   3.957   6.775  2.1920 -0.6068 -2.0021
  789MOL0     H 6503   3.557   4.185   6.595 -0.0874  4.0117 -0.4746
  789MOL0     H 6504   3.477   4.381   6.726 -2.3465  0.5845  3.4026
  789MOL0     H 6505   3.540   4.407   7.160 -0.7838 -1.1564  0.5993
  789MOL0     H 6506   3.418   4.516   7.107  0.0032  0.5621 -3.3953
  789MOL0     H 6507   3.382   4.300   7.271  0.9092 -1.4823 -0.0361
  789MOL0     H 6508   3.348   4.215   7.123 -0.2878 -0.2685  2.0400
  789MOL0     H 6509   3.191   4.420   7.077 -0.7696  0.0231 -0.7061
  789MOL0     H 6510   3.199   4.453   7.249 -1.7564 -0.4634  0.1763
  789MOL0     H 6511   3.099   4.185   7.155 -0.8401  0.7344  0.0268
  789MOL0     H 6512   2.993   4.323   7.186 -1.1133 -2.5166  0.1402
  789MOL0     H 6513   3.130   4.218   7.573  1.6700 -1.6078 -0.9201
  789MOL0     H 6514   3.575   4.179   7.088 -0.5616  1.0911 -0.2830
  789MOL0     H 6515   3.685   4.002   6.958  0.9660  0.7797  1.0073
  790MOL0     O 6516   7.038   1.780   6.351 -0.0048 -0.1193  0.2449
  790MOL0     C 6517   7.131   1.839   6.417  0.0620  0.7189  0.5571
  790MOL0     O 6518   7.109   1.959   6.487 -0.0554  0.5438 -0.0088
  790MOL0     C 6519   6.982   2.009   6.509  0.5048 -0.8962  0.0521
  790MOL0     C 6520   6.938   2.057   6.637 -0.3897  0.2388 -0.0328
  790MOL0     C 6521   6.815   2.111   6.658 -0.4438 -0.7614  0.3779
  790MOL0     C 6522   6.723   2.113   6.555  0.3115  1.0581 -0.1284
  790MOL0     O 6523   6.586   2.141   6.578 -0.5209  0.2683  0.4836
  790MOL0     C 6524   6.511   2.062   6.668 -0.8514 -0.1720 -0.0256
  790MOL0     C 6525   6.375   2.141   6.674  0.0891 -0.1515 -0.1633
  790MOL0     C 6526   6.286   2.047   6.758 -0.1120  0.5074 -0.2047
  790MOL0     C 6527   6.154   2.122   6.782 -0.4059 -0.3115  0.2127
  790MOL0     C 6528   6.058   2.020   6.820  0.4790 -0.7213  0.1279
  790MOL0     C 6529   5.911   2.073   6.853  0.2571 -0.0641  0.6860
  790MOL0     C 6530   5.839   2.151   6.742 -0.8434  0.3922 -0.4504
  790MOL0     C 6531   5.828   2.063   6.617  0.1747  0.2410  0.3862
  790MOL0     N 6532   5.780   2.147   6.505  0.2581 -0.8901  0.8624
  790MOL0     C 6533   5.852   2.198   6.398  1.4884  0.1664 -0.0281
  790MOL0     C 6534   5.759   2.261   6.322 -0.4614  0.0422  0.8499
  790MOL0     C 6535   5.781   2.315   6.185  0.5143 -0.5884  0.6975
  790MOL0     C 6536   5.803   2.466   6.192  0.0684 -0.3708  0.2260
  790MOL0     C 6537   5.685   2.540   6.243  0.4588  0.5569  0.1581
  790MOL0     C 6538   5.715   2.693   6.229  0.5787  0.4047  0.8117
  790MOL0     O 6539   5.848   2.729   6.235  0.7189 -0.2071 -0.0112
  790MOL0     C 6540   5.888   2.860   6.261  0.9821  0.1287 -0.1506
  790MOL0     C 6541   6.017   2.895   6.292 -0.6835 -0.1306 -0.5030
  790MOL0     C 6542   6.056   3.032   6.318  0.6497 -0.3599  0.4697
  790MOL0     C 6543   6.200   3.064   6.345 -0.0533 -0.0591  0.1605
  790MOL0     C 6544   5.957   3.134   6.305  0.1555  0.3125  0.4759
  790MOL0     C 6545   5.967   3.285   6.323 -0.3198 -1.1967  1.0358
  790MOL0     O 6546   5.869   3.371   6.285 -0.0786  0.3503 -0.3597
  790MOL0     C 6547   5.873   3.501   6.320 -0.2253 -0.2322 -0.1169
  790MOL0     C 6548   5.899   3.562   6.443 -0.2492 -0.0063 -0.4107
  790MOL0     C 6549   5.913   3.699   6.449 -0.3806 -0.2972 -0.3229
  790MOL0     C 6550   5.873   3.783   6.347  0.0122  0.0567 -0.0826
  790MOL0     O 6551   5.891   3.909   6.372 -0.4313 -0.4445 -0.1324
  790MOL0     C 6552   5.865   3.997   6.264  0.0778 -0.1622  0.8343
  790MOL0     C 6553   5.894   4.141   6.312 -0.3481 -0.2749  0.1480
  790MOL0     C 6554   5.821   4.181   6.440 -0.7560 -0.8723 -0.3241
  790MOL0     C 6555   5.924   4.159   6.548 -0.4862 -0.0400 -0.3337
  790MOL0     C 6556   5.873   4.211   6.689 -0.2037 -0.0661  0.3189
  790MOL0     C 6557   5.959   4.202   6.813  0.6990  1.2136  0.3142
  790MOL0     C 6558   5.999   4.058   6.838 -0.8154  0.9261 -1.5849
  790MOL0     C 6559   6.049   4.037   6.989 -0.4850 -0.6273 -0.6692
  790MOL0    Cl 6560   6.215   4.112   7.005 -0.1876 -0.1657 -0.0854
  790MOL0     C 6561   5.827   3.717   6.230  0.2221 -0.2741 -0.7502
  790MOL0     C 6562   5.839   3.578   6.213  0.0902 -0.7767  0.0171
  790MOL0     O 6563   6.069   3.320   6.381  0.0744  1.3122  0.2439
  790MOL0     C 6564   5.833   3.094   6.255  0.3964 -1.5245  0.0922
  790MOL0     C 6565   5.792   2.962   6.244 -0.2079  0.9096  0.1860
  790MOL0     N 6566   5.636   2.234   6.372  0.4188 -0.4905  0.4294
  790MOL0     N 6567   5.647   2.167   6.481 -0.4058 -0.2255 -0.3254
  790MOL0     C 6568   6.768   2.084   6.429  0.7635  0.7489 -0.4830
  790MOL0     C 6569   6.892   2.036   6.403 -0.9824  0.2437  0.0878
  790MOL0     C 6570   7.265   1.783   6.429  0.2046  0.6127 -0.8298
  790MOL0     C 6571   7.298   1.679   6.346  0.1924  0.1365 -0.3538
  790MOL0     C 6572   7.429   1.633   6.353  0.8889 -0.6409  0.8960
  790MOL0     C 6573   7.523   1.673   6.446 -0.1973  1.0763  0.7010
  790MOL0     O 6574   7.653   1.621   6.428  0.2784 -0.1636 -0.3095
  790MOL0     C 6575   7.744   1.640   6.539  0.7548  0.8071  0.2469
  790MOL0     C 6576   7.724   1.533   6.655 -0.6625 -0.1352 -0.6868
  790MOL0     C 6577   7.692   1.387   6.609  0.2910  0.8028  0.1529
  790MOL0     C 6578   7.800   1.327   6.523 -0.3947  1.0346  0.8143
  790MOL0     C 6579   7.775   1.180   6.503 -0.6295  0.3481 -0.9241
  790MOL0     C 6580   7.765   1.063   6.487 -0.2796  0.7129 -0.3844
  790MOL0     C 6581   7.481   1.766   6.541  0.0359 -0.3878 -0.7887
  790MOL0     C 6582   7.348   1.818   6.541  0.6364 -0.8167  0.8708
  790MOL0     H 6583   6.996   2.036   6.726 -1.6345  0.9198  0.9740
  790MOL0     H 6584   6.789   2.141   6.759  3.0280 -1.1605  1.5411
  790MOL0     H 6585   6.497   1.960   6.633  2.8560 -1.6719  2.2409
  790MOL0     H 6586   6.571   2.049   6.759  0.4710 -0.5384 -0.9188
  790MOL0     H 6587   6.381   2.234   6.731  0.5039  0.0122 -0.4691
  790MOL0     H 6588   6.333   2.145   6.573  1.8389 -0.1451 -0.9287
  790MOL0     H 6589   6.261   1.955   6.704 -0.9207  0.5067  0.1685
  790MOL0     H 6590   6.330   2.027   6.856 -3.9622  1.0952  1.8070
  790MOL0     H 6591   6.171   2.197   6.860  0.9844 -0.9221  0.5229
  790MOL0     H 6592   6.103   2.170   6.698 -1.4791  0.1662  1.1022
  790MOL0     H 6593   6.063   1.935   6.753 -0.2864 -1.1273  0.5786
  790MOL0     H 6594   6.103   1.982   6.913  3.1201 -2.5959 -1.7706
  790MOL0     H 6595   5.854   1.986   6.888 -2.9058  0.8493 -1.7952
  790MOL0     H 6596   5.913   2.141   6.938  5.1513  0.5182  0.3909
  790MOL0     H 6597   5.736   2.165   6.777 -0.7563  3.4870 -1.1500
  790MOL0     H 6598   5.879   2.249   6.715 -1.4998  0.4046 -1.4676
  790MOL0     H 6599   5.750   1.986   6.620  1.1032 -0.8802 -1.7120
  790MOL0     H 6600   5.927   2.020   6.599 -0.3914 -1.7241  1.6731
  790MOL0     H 6601   5.959   2.193   6.381  1.2679 -0.0982 -1.4824
  790MOL0     H 6602   5.856   2.261   6.126 -2.3410 -1.5625 -2.3549
  790MOL0     H 6603   5.690   2.295   6.129  1.6133 -3.4112 -0.2853
  790MOL0     H 6604   5.833   2.512   6.097  1.0080 -1.3033  0.0526
  790MOL0     H 6605   5.893   2.468   6.253  1.3416  0.2519 -1.5675
  790MOL0     H 6606   5.660   2.525   6.348  2.6843  0.0893  0.6715
  790MOL0     H 6607   5.597   2.503   6.189  0.5873 -3.5588  2.4369
  790MOL0     H 6608   5.665   2.748   6.309 -0.2296  0.6392  0.1536
  790MOL0     H 6609   5.673   2.722   6.132  1.4306 -2.1292 -0.4157
  790MOL0     H 6610   6.091   2.816   6.302  3.4531  3.4601  0.3321
  790MOL0     H 6611   6.264   2.980   6.373  1.4587  1.4280  1.4392
  790MOL0     H 6612   6.242   3.121   6.262 -2.0074  2.0056  0.4744
  790MOL0     H 6613   6.195   3.137   6.427 -0.9042  2.0568 -1.6930
  790MOL0     H 6614   5.939   3.506   6.526  3.8213  1.5565 -1.0922
  790MOL0     H 6615   5.941   3.745   6.544 -1.9991 -2.5372  1.3527
  790MOL0     H 6616   5.923   3.960   6.179 -0.1614  0.1223  0.5433
  790MOL0     H 6617   5.760   4.010   6.236 -0.0096  1.2262  1.7029
  790MOL0     H 6618   5.999   4.168   6.326 -0.7064 -0.3929  3.8078
  790MOL0     H 6619   5.861   4.214   6.237  2.0739  0.0480 -0.6694
  790MOL0     H 6620   5.729   4.121   6.448 -0.7954 -0.5813  2.9627
  790MOL0     H 6621   5.796   4.287   6.438  0.3670 -0.5680 -3.4095
  790MOL0     H 6622   5.952   4.053   6.554 -1.3930 -0.2256  1.0553
  790MOL0     H 6623   6.015   4.215   6.524 -0.5972 -0.4196 -1.7186
  790MOL0     H 6624   5.786   4.151   6.714 -2.0035  1.2812 -2.2739
  790MOL0     H 6625   5.829   4.310   6.673 -1.2031 -0.3778  1.0549
  790MOL0     H 6626   6.049   4.262   6.795  0.5278  0.9882 -1.4857
  790MOL0     H 6627   5.901   4.228   6.901 -3.0611 -3.8962 -0.2318
  790MOL0     H 6628   6.077   4.034   6.764 -0.3920  0.8743 -1.1242
  790MOL0     H 6629   5.916   3.990   6.818 -0.9558  0.6750 -0.2035
  790MOL0     H 6630   6.039   3.930   7.007 -1.3685 -0.8826 -2.4712
  790MOL0     H 6631   5.971   4.070   7.057 -1.2413 -5.2907  1.0579
  790MOL0     H 6632   5.795   3.769   6.141  3.7106  2.0680 -0.8357
  790MOL0     H 6633   5.807   3.541   6.116  0.0774 -0.6690 -0.0198
  790MOL0     H 6634   5.756   3.168   6.234 -1.1638 -3.3834 -1.1715
  790MOL0     H 6635   5.696   2.934   6.203  1.5492 -0.5205 -3.4556
  790MOL0     H 6636   6.696   2.087   6.348 -2.2325 -1.4535  1.8373
  790MOL0     H 6637   6.923   2.018   6.300  0.7734  1.4473  0.3485
  790MOL0     H 6638   7.247   1.673   6.250 -0.2553  1.2328 -0.1891
  790MOL0     H 6639   7.455   1.590   6.256 -1.5952  0.2971 -0.2714
  790MOL0     H 6640   7.844   1.617   6.502  1.5613 -0.0255  2.7289
  790MOL0     H 6641   7.755   1.743   6.574  1.0897  0.1267  2.3140
  790MOL0     H 6642   7.640   1.580   6.706 -2.2391 -2.1817 -1.2800
  790MOL0     H 6643   7.803   1.534   6.731 -0.1169 -0.4353 -1.2385
  790MOL0     H 6644   7.595   1.402   6.560  0.8846  2.9687 -0.4750
  790MOL0     H 6645   7.673   1.322   6.695  0.8879  0.3339 -0.0665
  790MOL0     H 6646   7.895   1.321   6.577  0.4645 -2.1362 -0.7786
  790MOL0     H 6647   7.809   1.376   6.425 -0.5727 -1.4134 -0.4887
  790MOL0     H 6648   7.751   0.957   6.478  0.3890  0.7822 -3.0249
  790MOL0     H 6649   7.548   1.801   6.619  0.3446  1.6330 -1.8877
  790MOL0     H 6650   7.312   1.898   6.606 -0.5701 -1.8429  1.5006
  791MOL0     O 6651   0.054   2.307   1.408 -0.7126  0.3209 -0.1165
  791MOL0     C 6652  -0.033   2.378   1.369  0.0073 -0.8819 -0.3017
  791MOL0     O 6653  -0.014   2.495   1.289  0.4356 -0.3542 -0.0397
  791MOL0     C 6654   0.118   2.544   1.275 -0.3574  0.8161  0.1887
  791MOL0     C 6655   0.212   2.567   1.375 -0.2272  0.9195  0.5711
  791MOL0     C 6656   0.333   2.627   1.348  0.4952 -0.0489 -0.7003
  791MOL0     C 6657   0.376   2.647   1.216 -0.3472 -0.5086 -0.7730
  791MOL0     O 6658   0.495   2.714   1.186  0.0202  0.8288 -0.3389
  791MOL0     C 6659   0.605   2.710   1.272  0.4545 -1.0055  0.1373
  791MOL0     C 6660   0.720   2.664   1.188 -0.2491  0.8884 -0.8073
  791MOL0     C 6661   0.862   2.724   1.234 -0.6829  0.7797 -0.1523
  791MOL0     C 6662   0.983   2.666   1.154 -0.3224  0.5830  0.0640
  791MOL0     C 6663   1.111   2.708   1.212  0.8477  0.2972 -0.6077
  791MOL0     C 6664   1.225   2.645   1.124 -0.0213  0.1188  0.6783
  791MOL0     C 6665   1.360   2.697   1.182  1.3030 -0.4144 -0.4947
  791MOL0     C 6666   1.486   2.652   1.121 -0.6716  0.5172  0.7029
  791MOL0     N 6667   1.607   2.698   1.183 -0.8316 -0.2953  0.4115
  791MOL0     C 6668   1.673   2.637   1.293  0.0269 -0.3226  0.2686
  791MOL0     C 6669   1.781   2.718   1.319 -0.6087  0.0711  0.3387
  791MOL0     C 6670   1.891   2.712   1.418 -0.4263  0.0480  0.1542
  791MOL0     C 6671   1.842   2.674   1.561  0.5564 -0.0287  0.7380
  791MOL0     C 6672   1.933   2.713   1.675 -0.8503  0.2424 -0.1649
  791MOL0     C 6673   2.081   2.672   1.655 -0.5488  0.0025  0.7020
  791MOL0     O 6674   2.136   2.666   1.783  0.1338 -0.4013  0.2351
  791MOL0     C 6675   2.273   2.669   1.797 -0.8467 -0.4728 -0.4258
  791MOL0     C 6676   2.314   2.682   1.934 -0.4998 -0.4397  0.5539
  791MOL0     C 6677   2.449   2.695   1.967 -0.5214  1.2772 -0.0432
  791MOL0     C 6678   2.481   2.698   2.112  0.8087 -0.0956 -0.5391
  791MOL0     C 6679   2.542   2.691   1.859 -0.1183  0.6421 -0.4368
  791MOL0     C 6680   2.686   2.703   1.885  0.2404  0.4018 -0.1273
  791MOL0     O 6681   2.766   2.661   1.786  0.0245  0.3924 -0.5858
  791MOL0     C 6682   2.899   2.694   1.785 -0.2920 -0.4369  0.5491
  791MOL0     C 6683   2.990   2.665   1.884  0.2016 -0.3090 -1.0713
  791MOL0     C 6684   3.120   2.700   1.873  0.3490 -2.1325 -0.3596
  791MOL0     C 6685   3.161   2.780   1.758 -0.2195 -0.1863 -0.6637
  791MOL0     O 6686   3.295   2.818   1.766 -0.2247  0.0150 -0.1300
  791MOL0     C 6687   3.362   2.857   1.647 -0.0118 -0.1606 -0.2109
  791MOL0     C 6688   3.461   2.977   1.672 -0.6643 -0.2826  1.0346
  791MOL0     C 6689   3.560   2.947   1.788 -0.4334 -0.2188  0.1043
  791MOL0     C 6690   3.654   3.073   1.819  0.2834  0.0818 -0.3170
  791MOL0     C 6691   3.747   3.045   1.935 -0.3407 -0.0359  0.1206
  791MOL0     C 6692   3.793   3.175   1.997 -0.2371  0.1963 -0.2386
  791MOL0     C 6693   3.873   3.147   2.127 -0.5181 -0.2661  0.1610
  791MOL0     C 6694   3.852   3.249   2.228 -0.1223  0.1131  0.3796
  791MOL0    Cl 6695   3.937   3.203   2.383 -0.2761 -0.1092 -0.1072
  791MOL0     C 6696   3.071   2.811   1.664 -0.7036  0.3103  0.5394
  791MOL0     C 6697   2.941   2.767   1.675 -0.9397 -0.9428 -0.0237
  791MOL0     O 6698   2.726   2.753   1.989  0.1901 -0.2491  0.2432
  791MOL0     C 6699   2.501   2.672   1.724 -0.1547  0.2349 -0.8234
  791MOL0     C 6700   2.367   2.655   1.701  0.0713 -0.1731  0.5236
  791MOL0     N 6701   1.778   2.824   1.225  0.5768  0.0820  0.5791
  791MOL0     N 6702   1.684   2.795   1.140 -0.1324 -1.2510 -0.6358
  791MOL0     C 6703   0.290   2.623   1.112  0.8105  0.2035 -0.1202
  791MOL0     C 6704   0.153   2.574   1.143 -0.1258  0.1151  0.3733
  791MOL0     C 6705  -0.169   2.367   1.418  0.8046 -0.2468 -0.3621
  791MOL0     C 6706  -0.278   2.438   1.373 -1.1827  0.0440  0.6256
  791MOL0     C 6707  -0.410   2.415   1.419 -0.4177 -0.1315  0.1846
  791MOL0     C 6708  -0.427   2.332   1.523  0.6367  1.2475 -1.9196
  791MOL0     O 6709  -0.554   2.324   1.568 -0.2859  0.6326  0.2712
  791MOL0     C 6710  -0.639   2.211   1.534 -0.8548  0.3219  0.6288
  791MOL0     C 6711  -0.786   2.241   1.548 -0.5420 -1.3896  0.0912
  791MOL0     C 6712  -0.878   2.117   1.537 -0.0122  0.3478 -0.5090
  791MOL0     C 6713  -1.023   2.132   1.500 -0.5787  0.0908  0.7898
  791MOL0     C 6714  -1.090   1.997   1.493 -0.7824  0.0399  0.0157
  791MOL0     C 6715  -1.162   1.904   1.498 -0.9520 -0.2441 -0.0674
  791MOL0     C 6716  -0.320   2.253   1.571  0.3393 -0.0870  0.1257
  791MOL0     C 6717  -0.191   2.271   1.515  0.2935  0.3724 -0.6242
  791MOL0     H 6718   0.187   2.536   1.476 -0.9968  0.3874  0.2279
  791MOL0     H 6719   0.384   2.656   1.439 -2.5338  1.7167  0.5784
  791MOL0     H 6720   0.632   2.810   1.307 -0.1918 -0.3838 -1.0546
  791MOL0     H 6721   0.600   2.650   1.363 -1.0068 -1.6191 -0.3279
  791MOL0     H 6722   0.728   2.555   1.202  0.6219  0.7842 -1.9617
  791MOL0     H 6723   0.697   2.672   1.081 -3.7175 -0.9191 -0.3297
  791MOL0     H 6724   0.848   2.831   1.215  0.4353  0.8131 -0.9486
  791MOL0     H 6725   0.892   2.711   1.338  1.3000  0.8536 -0.6715
  791MOL0     H 6726   0.981   2.557   1.146 -0.5929  0.6850 -1.5133
  791MOL0     H 6727   0.982   2.698   1.050  1.7671  1.2736  0.2124
  791MOL0     H 6728   1.114   2.818   1.215  0.6834  0.2891  1.3296
  791MOL0     H 6729   1.115   2.679   1.318  2.4667 -1.4702 -1.0891
  791MOL0     H 6730   1.218   2.536   1.129  0.7470  0.0689  0.8708
  791MOL0     H 6731   1.216   2.687   1.023 -1.4336 -1.4645  0.0989
  791MOL0     H 6732   1.350   2.805   1.173 -0.7212 -0.0639  3.6228
  791MOL0     H 6733   1.344   2.667   1.286 -2.7790  0.3925 -0.7408
  791MOL0     H 6734   1.491   2.680   1.016  0.3922 -1.2601  0.2412
  791MOL0     H 6735   1.476   2.543   1.125  2.3725  0.1256  5.6564
  791MOL0     H 6736   1.649   2.546   1.347 -0.0409 -1.4816 -1.6107
  791MOL0     H 6737   1.965   2.638   1.386 -1.3242 -0.0446 -1.9005
  791MOL0     H 6738   1.935   2.812   1.418 -0.9203  0.2650  0.4591
  791MOL0     H 6739   1.812   2.569   1.565 -2.6140  0.5452 -2.4125
  791MOL0     H 6740   1.746   2.726   1.576  0.3646 -1.1143  4.0272
  791MOL0     H 6741   1.891   2.668   1.766  0.6004  0.2579  0.5427
  791MOL0     H 6742   1.932   2.822   1.681  0.4451  0.1843  2.0370
  791MOL0     H 6743   2.129   2.739   1.583  0.5021 -3.5050 -2.1776
  791MOL0     H 6744   2.088   2.568   1.620  0.4003 -0.5408  2.3834
  791MOL0     H 6745   2.240   2.701   2.011 -1.6674 -0.7664 -0.4603
  791MOL0     H 6746   2.526   2.793   2.143  3.3706 -0.9539 -1.3715
  791MOL0     H 6747   2.394   2.679   2.175  1.2527 -1.0305 -0.1726
  791MOL0     H 6748   2.549   2.615   2.134 -0.2875 -0.8177  0.2277
  791MOL0     H 6749   2.949   2.615   1.970  1.7199  1.1992  0.6161
  791MOL0     H 6750   3.175   2.677   1.964 -0.2614  0.6611  0.8077
  791MOL0     H 6751   3.416   2.773   1.603  0.2893  0.1022 -0.3562
  791MOL0     H 6752   3.284   2.886   1.576 -1.7816 -2.0482  0.8649
  791MOL0     H 6753   3.517   2.980   1.578  0.9287  1.2476  1.9682
  791MOL0     H 6754   3.407   3.071   1.682  0.1088  0.2352  0.4413
  791MOL0     H 6755   3.620   2.862   1.753  0.7752  0.4723  0.4306
  791MOL0     H 6756   3.511   2.927   1.884 -0.0354  0.7463  0.5270
  791MOL0     H 6757   3.723   3.100   1.738  0.5111 -1.2333 -0.5771
  791MOL0     H 6758   3.589   3.156   1.850  0.2874 -0.0217 -0.0339
  791MOL0     H 6759   3.833   2.985   1.903  1.5432  2.4923  0.1759
  791MOL0     H 6760   3.685   2.992   2.008  1.5873 -2.7795 -0.0648
  791MOL0     H 6761   3.858   3.242   1.939  2.6271  0.3714  2.8771
  791MOL0     H 6762   3.703   3.227   2.031 -0.8942 -1.5577  0.8182
  791MOL0     H 6763   3.978   3.153   2.097 -0.9831 -1.7074 -2.0114
  791MOL0     H 6764   3.850   3.050   2.173  2.8927 -0.9938  0.6516
  791MOL0     H 6765   3.746   3.256   2.252 -0.0810 -0.4095  0.7297
  791MOL0     H 6766   3.883   3.348   2.195  2.7434 -0.2353  1.6971
  791MOL0     H 6767   3.095   2.886   1.590  3.6058  1.1001  2.4575
  791MOL0     H 6768   2.864   2.789   1.601  0.3358 -1.8416 -1.6765
  791MOL0     H 6769   2.558   2.667   1.632  0.2934  1.2962 -0.6196
  791MOL0     H 6770   2.337   2.637   1.598 -0.3636 -0.5279  0.7090
  791MOL0     H 6771   0.325   2.658   1.015  0.8577  2.4944  0.6659
  791MOL0     H 6772   0.076   2.560   1.067 -1.4148 -0.5915  1.7686
  791MOL0     H 6773  -0.274   2.501   1.285 -0.1291  0.7470  1.1527
  791MOL0     H 6774  -0.491   2.473   1.375  0.4912  0.4765 -0.7227
  791MOL0     H 6775  -0.606   2.171   1.438 -1.0017  1.3306  0.1428
  791MOL0     H 6776  -0.613   2.133   1.606 -2.7321  1.1183  2.3040
  791MOL0     H 6777  -0.802   2.321   1.474 -1.9999  0.3299  2.1366
  791MOL0     H 6778  -0.803   2.279   1.649  1.0986  0.7516 -0.3371
  791MOL0     H 6779  -0.873   2.062   1.631  0.7154 -0.6001 -1.0922
  791MOL0     H 6780  -0.842   2.043   1.465 -2.3374  0.4667 -1.8939
  791MOL0     H 6781  -1.014   2.187   1.406  3.0700  2.6638  2.3599
  791MOL0     H 6782  -1.071   2.200   1.571 -3.7159 -1.7613  0.6156
  791MOL0     H 6783  -1.240   1.830   1.500 -0.3340 -0.9182  2.2856
  791MOL0     H 6784  -0.324   2.188   1.657  0.9758 -0.6780 -0.2789
  791MOL0     H 6785  -0.107   2.217   1.558 -1.7977 -2.7330 -0.0754
  792MOL0     O 6786   0.210   4.184  10.608 -0.3697  0.3524  0.1909
  792MOL0     C 6787   0.179   4.065  10.633  0.2543  0.4485 -1.0154
  792MOL0     O 6788   0.268   3.960  10.623 -0.2231 -0.9630 -0.1413
  792MOL0     C 6789   0.396   3.977  10.600 -0.2360  0.7542 -0.5755
  792MOL0     C 6790   0.482   3.889  10.670 -0.1229  0.0308  0.3528
  792MOL0     C 6791   0.617   3.890  10.648  0.8171 -0.9028 -0.2548
  792MOL0     C 6792   0.675   3.980  10.562  0.4101 -0.5234  0.9178
  792MOL0     O 6793   0.806   4.011  10.549  0.0324  0.1940 -0.0434
  792MOL0     C 6794   0.903   3.917  10.601 -0.3523  0.0238  0.7690
  792MOL0     C 6795   1.043   3.976  10.561 -0.4823 -0.4152 -0.1181
  792MOL0     C 6796   1.080   4.117  10.624  0.0399  0.4317 -0.0499
  792MOL0     C 6797   1.225   4.179  10.579 -0.2118  0.8649  0.1933
  792MOL0     C 6798   1.263   4.293  10.665 -0.0800 -0.8464 -0.1591
  792MOL0     C 6799   1.283   4.264  10.813 -0.0874 -0.0963 -0.3705
  792MOL0     C 6800   1.425   4.206  10.843  0.4885  0.4074 -1.0479
  792MOL0     C 6801   1.452   4.169  10.997 -0.5051  0.7374  0.0104
  792MOL0     N 6802   1.358   4.064  11.036  0.8486  0.1753  0.3525
  792MOL0     C 6803   1.283   4.068  11.152  1.0444 -0.0167 -0.1136
  792MOL0     C 6804   1.222   3.952  11.168 -0.8626  0.7971 -0.1979
  792MOL0     C 6805   1.136   3.890  11.273  0.4499  0.6916 -0.4211
  792MOL0     C 6806   1.223   3.789  11.343 -0.4392  0.1636 -0.3752
  792MOL0     C 6807   1.157   3.738  11.467 -0.8356  0.3437  1.0247
  792MOL0     C 6808   1.233   3.614  11.515 -0.5942 -0.2592 -0.1173
  792MOL0     O 6809   1.362   3.650  11.576 -0.4643 -0.3251 -0.0198
  792MOL0     C 6810   1.376   3.712  11.704  0.2700  1.0603 -0.8647
  792MOL0     C 6811   1.278   3.711  11.804 -0.0150  0.4331  0.3283
  792MOL0     C 6812   1.302   3.767  11.930 -0.3084  0.5510  0.3420
  792MOL0     C 6813   1.185   3.777  12.020 -0.5461 -1.2681 -0.5649
  792MOL0     C 6814   1.443   3.794  11.960 -0.2429  0.0455  0.8501
  792MOL0     C 6815   1.494   3.819  12.091  0.6893  0.2568 -1.1152
  792MOL0     O 6816   1.618   3.778  12.129  0.0206  0.5760  0.0651
  792MOL0     C 6817   1.656   3.821  12.257  0.5036 -0.6263  1.1666
  792MOL0     C 6818   1.737   3.939  12.266  0.0159 -0.1716  0.0847
  792MOL0     C 6819   1.779   3.981  12.392 -0.0960  0.5804 -0.1002
  792MOL0     C 6820   1.754   3.912  12.508 -0.1882 -0.3472 -0.4604
  792MOL0     O 6821   1.810   3.947  12.626  0.0106  0.6003 -0.5395
  792MOL0     C 6822   1.942   3.896  12.631  0.4172 -0.1753  0.4781
  792MOL0     C 6823   2.038   4.010  12.642  0.6183 -0.1269 -0.6143
  792MOL0     C 6824   2.176   3.959  12.676  0.9396 -0.5149  0.6357
  792MOL0     C 6825   2.284   4.065  12.656 -0.6887 -0.8940 -1.1838
  792MOL0     C 6826   2.361   4.108  12.775  0.7343 -0.4953 -0.5302
  792MOL0     C 6827   2.287   4.150  12.900  0.6980  0.4005  0.2944
  792MOL0     C 6828   2.210   4.279  12.888 -0.2464  0.1055  0.8284
  792MOL0     C 6829   2.245   4.374  13.002  0.3785  0.5274  0.7477
  792MOL0    Cl 6830   2.402   4.441  12.970  0.3222  0.4945 -0.1356
  792MOL0     C 6831   1.666   3.798  12.497  0.3873 -0.2555  0.0276
  792MOL0     C 6832   1.623   3.753  12.371 -0.5633  0.1047  0.3841
  792MOL0     O 6833   1.419   3.883  12.169 -0.6292  0.4445  0.0925
  792MOL0     C 6834   1.543   3.807  11.852 -0.2421  0.7824  0.7045
  792MOL0     C 6835   1.502   3.763  11.728  0.3141 -0.5356  0.9863
  792MOL0     N 6836   1.252   3.880  11.057  0.6305  0.8750 -0.0175
  792MOL0     N 6837   1.314   3.958  10.972 -0.1255  0.5921 -0.5720
  792MOL0     C 6838   0.591   4.069  10.495 -0.6690  0.7342 -0.5577
  792MOL0     C 6839   0.453   4.052  10.499 -0.6295 -0.3767 -0.3353
  792MOL0     C 6840   0.033   4.034  10.656 -0.1235  0.0342  0.3258
  792MOL0     C 6841  -0.009   3.901  10.669 -0.3422  0.6125 -1.5833
  792MOL0     C 6842  -0.143   3.872  10.678 -0.8592 -0.1582  0.2291
  792MOL0     C 6843  -0.236   3.965  10.660  0.3198  0.0475  0.2893
  792MOL0     O 6844  -0.371   3.921  10.647  0.2149 -0.2572  0.6513
  792MOL0     C 6845  -0.479   4.017  10.680  0.1141  0.0650  0.9186
  792MOL0     C 6846  -0.457   4.052  10.829  0.3203  0.2759  0.1572
  792MOL0     C 6847  -0.601   4.091  10.877 -0.4181 -0.1597  0.1010
  792MOL0     C 6848  -0.590   4.167  11.016  0.4128 -0.1829 -1.1880
  792MOL0     C 6849  -0.725   4.224  11.057  0.3695  0.8812  0.0907
  792MOL0     C 6850  -0.828   4.285  11.076  1.2013 -0.9987  0.9297
  792MOL0     C 6851  -0.195   4.097  10.646 -0.0152  0.5291  0.2979
  792MOL0     C 6852  -0.066   4.139  10.646  0.1200  0.2664  0.2390
  792MOL0     H 6853   0.447   3.825  10.750  1.1863  1.4875  2.1694
  792MOL0     H 6854   0.673   3.820  10.710  2.0787  3.0449  3.5298
  792MOL0     H 6855   0.886   3.895  10.707 -1.3655  0.0008  0.6098
  792MOL0     H 6856   0.907   3.817  10.556  3.6795  0.6053 -0.5799
  792MOL0     H 6857   1.117   3.900  10.587  0.5326  0.5168 -0.1987
  792MOL0     H 6858   1.044   3.988  10.452 -0.7617 -1.5247 -0.2461
  792MOL0     H 6859   1.001   4.189  10.602 -1.4519 -0.7382  1.3070
  792MOL0     H 6860   1.088   4.082  10.727  2.5930 -3.7719 -1.4221
  792MOL0     H 6861   1.306   4.105  10.584 -0.4586  0.6322  0.8966
  792MOL0     H 6862   1.218   4.208  10.474 -2.2009 -2.4137 -0.7381
  792MOL0     H 6863   1.362   4.330  10.639  0.8906 -1.5680  2.1683
  792MOL0     H 6864   1.182   4.367  10.658  3.0250  2.7607 -1.2065
  792MOL0     H 6865   1.281   4.348  10.883  2.4220 -2.3438  2.7184
  792MOL0     H 6866   1.202   4.203  10.854 -1.1444  2.8141  2.3171
  792MOL0     H 6867   1.431   4.108  10.795 -2.6947 -0.0197 -0.7754
  792MOL0     H 6868   1.509   4.271  10.815  1.7845  0.1623  1.8805
  792MOL0     H 6869   1.470   4.252  11.065  0.0205  0.5988  0.0421
  792MOL0     H 6870   1.553   4.127  10.994  0.2541  2.0881  2.9777
  792MOL0     H 6871   1.287   4.150  11.223 -3.0680  0.9480 -0.7109
  792MOL0     H 6872   1.101   3.964  11.347 -3.1600 -0.6531 -0.5861
  792MOL0     H 6873   1.054   3.842  11.219  1.5413 -0.1863 -1.3357
  792MOL0     H 6874   1.323   3.829  11.359 -0.5719  2.6566 -4.2441
  792MOL0     H 6875   1.229   3.708  11.270 -2.5681 -1.8233  1.5018
  792MOL0     H 6876   1.058   3.705  11.432  1.1948 -1.4770 -3.9657
  792MOL0     H 6877   1.144   3.807  11.551  0.2889  0.8539  0.7946
  792MOL0     H 6878   1.255   3.545  11.434  0.6365 -0.8295  0.6632
  792MOL0     H 6879   1.170   3.565  11.590 -0.4933  0.1116  0.2208
  792MOL0     H 6880   1.185   3.662  11.778  1.3316 -2.3843  0.4483
  792MOL0     H 6881   1.200   3.729  12.117  0.7912  3.3897  1.8259
  792MOL0     H 6882   1.162   3.880  12.048 -1.6484 -1.6294 -0.1253
  792MOL0     H 6883   1.097   3.731  11.975  0.1052 -1.9634 -1.1705
  792MOL0     H 6884   1.763   3.989  12.174 -0.8088 -0.7883 -0.5010
  792MOL0     H 6885   1.839   4.071  12.404 -2.0990  1.9829 -0.1019
  792MOL0     H 6886   1.960   3.818  12.706  0.7719 -1.6815 -1.1064
  792MOL0     H 6887   1.968   3.849  12.535 -0.5018  1.7694 -0.7852
  792MOL0     H 6888   2.042   4.066  12.548  2.9578 -2.1738 -1.8635
  792MOL0     H 6889   2.005   4.076  12.722 -2.1008 -0.5406 -1.3101
  792MOL0     H 6890   2.214   3.871  12.623  1.8768  0.0635  0.3072
  792MOL0     H 6891   2.183   3.932  12.781 -0.9084  2.7800  1.7458
  792MOL0     H 6892   2.358   4.029  12.583  2.4914  1.5937  0.5101
  792MOL0     H 6893   2.240   4.162  12.632  0.8563 -0.1481 -1.1500
  792MOL0     H 6894   2.438   4.179  12.743 -0.1702  0.0204 -1.6301
  792MOL0     H 6895   2.411   4.013  12.793  0.1486 -0.6960  0.1111
  792MOL0     H 6896   2.220   4.076  12.944  1.9109 -1.1499 -0.3981
  792MOL0     H 6897   2.367   4.176  12.971 -1.6876  0.3531  3.2048
  792MOL0     H 6898   2.103   4.261  12.879  0.3489 -3.0296 -1.9723
  792MOL0     H 6899   2.245   4.327  12.796  1.3645 -2.6504 -0.1298
  792MOL0     H 6900   2.247   4.325  13.101 -0.0148 -2.1856 -0.4901
  792MOL0     H 6901   2.177   4.459  13.006 -0.0537  0.2696 -0.7077
  792MOL0     H 6902   1.636   3.735  12.579 -0.0057 -0.7953 -0.5210
  792MOL0     H 6903   1.571   3.658  12.362 -4.2629  1.8101  1.8985
  792MOL0     H 6904   1.647   3.832  11.867 -0.5605  3.3227 -0.6134
  792MOL0     H 6905   1.568   3.769  11.642 -0.2689  1.7944  0.6466
  792MOL0     H 6906   0.641   4.138  10.427 -1.6666  0.6088 -1.4415
  792MOL0     H 6907   0.391   4.110  10.432  0.2136 -1.2928 -1.9801
  792MOL0     H 6908   0.058   3.816  10.673 -1.9806 -0.6775  0.6192
  792MOL0     H 6909  -0.181   3.772  10.694 -2.1320  0.5690  2.1227
  792MOL0     H 6910  -0.486   4.103  10.613 -0.6960  0.9965  2.1581
  792MOL0     H 6911  -0.562   3.947  10.671  2.7735 -3.1162 -1.2041
  792MOL0     H 6912  -0.390   4.137  10.845  0.4398  0.5298 -1.5013
  792MOL0     H 6913  -0.416   3.977  10.897  3.0511  1.0092 -0.5487
  792MOL0     H 6914  -0.671   4.010  10.897  0.8495 -0.7088  2.7753
  792MOL0     H 6915  -0.640   4.147  10.791  1.3210  0.1180 -0.5637
  792MOL0     H 6916  -0.533   4.260  11.012 -1.0212  0.7605 -0.6263
  792MOL0     H 6917  -0.565   4.106  11.104 -0.6107 -0.0669 -0.8075
  792MOL0     H 6918  -0.920   4.339  11.086  1.9056  0.6034 -0.7097
  792MOL0     H 6919  -0.272   4.171  10.626 -3.0968 -2.8634 -1.4773
  792MOL0     H 6920  -0.031   4.241  10.629  1.4679 -0.2913 -0.5198
  793MOL0     O 6921   7.025   4.364   2.650 -0.0027  0.9365  0.4151
  793MOL0     C 6922   7.046   4.380   2.532 -0.7201  0.2316  0.2287
  793MOL0     O 6923   6.984   4.458   2.448  0.5370 -0.3124 -0.3697
  793MOL0     C 6924   6.889   4.559   2.499 -0.0170  0.1698 -0.1257
  793MOL0     C 6925   6.888   4.684   2.431  0.0142  0.4006  0.1573
  793MOL0     C 6926   6.787   4.773   2.462  0.4378  0.0949 -0.9573
  793MOL0     C 6927   6.700   4.748   2.574 -0.6504 -0.6950  0.1826
  793MOL0     O 6928   6.609   4.838   2.625  0.0502  0.2481 -1.1514
  793MOL0     C 6929   6.509   4.885   2.528 -0.9814 -0.7690  0.1040
  793MOL0     C 6930   6.388   4.949   2.605 -1.1432 -0.1662  0.6021
  793MOL0     C 6931   6.407   5.103   2.612  0.2456  1.0921  0.5241
  793MOL0     C 6932   6.537   5.147   2.680 -0.2975 -0.1195 -0.1279
  793MOL0     C 6933   6.562   5.305   2.692  0.3284 -0.1052 -0.4588
  793MOL0     C 6934   6.692   5.341   2.760 -0.8970 -0.0225  0.3623
  793MOL0     C 6935   6.689   5.480   2.820  0.4925  0.6283 -0.0795
  793MOL0     C 6936   6.651   5.590   2.714  0.2486  0.1070 -0.5375
  793MOL0     N 6937   6.768   5.614   2.624  1.1026 -0.4088  0.2993
  793MOL0     C 6938   6.835   5.739   2.617 -0.2227 -0.8478 -0.1171
  793MOL0     C 6939   6.906   5.735   2.500  1.0295 -0.6050  1.3339
  793MOL0     C 6940   6.995   5.843   2.444  0.5105 -0.1000  0.8996
  793MOL0     C 6941   6.921   5.907   2.323 -0.2650  0.0648  0.3554
  793MOL0     C 6942   6.993   6.034   2.291  0.6135 -0.6031  0.5842
  793MOL0     C 6943   6.948   6.070   2.153  0.4242 -0.0834  0.6474
  793MOL0     O 6944   7.004   6.196   2.117  0.3935 -1.3786 -0.3697
  793MOL0     C 6945   7.116   6.208   2.042 -0.5728 -1.0792 -0.3769
  793MOL0     C 6946   7.120   6.263   1.917 -0.3846 -0.8539  0.5678
  793MOL0     C 6947   7.229   6.300   1.843 -0.0052 -0.4225  0.6872
  793MOL0     C 6948   7.204   6.364   1.701 -0.0293 -0.6130 -0.0158
  793MOL0     C 6949   7.355   6.282   1.905 -0.5340 -0.1371 -0.4138
  793MOL0     C 6950   7.492   6.311   1.844  0.0233 -0.3515 -0.0695
  793MOL0     O 6951   7.599   6.292   1.925 -0.2631  1.0092  0.0944
  793MOL0     C 6952   7.723   6.328   1.875  0.0231 -0.9020 -0.6202
  793MOL0     C 6953   7.830   6.241   1.887 -0.2165  0.6122  0.1295
  793MOL0     C 6954   7.968   6.284   1.849  0.0716 -0.0899 -0.3390
  793MOL0     C 6955   7.990   6.399   1.773 -0.1805 -0.4870  0.1005
  793MOL0     O 6956   8.118   6.440   1.736 -0.2557  0.9096 -0.1556
  793MOL0     C 6957   8.131   6.568   1.675  0.5408  0.3924  0.1597
  793MOL0     C 6958   8.281   6.586   1.627 -0.5778  1.4542 -0.2942
  793MOL0     C 6959   8.337   6.470   1.536 -0.6543 -0.0592  0.6572
  793MOL0     C 6960   8.487   6.473   1.531 -0.1263  1.2690  0.0465
  793MOL0     C 6961   8.553   6.346   1.470  0.1980 -0.2389 -0.5745
  793MOL0     C 6962   8.555   6.230   1.576  0.7219  0.7167 -1.2094
  793MOL0     C 6963   8.565   6.099   1.498 -0.0390  0.1400 -0.3800
  793MOL0     C 6964   8.571   5.964   1.579 -0.5894  0.0259  0.1194
  793MOL0    Cl 6965   8.732   5.961   1.671  0.1019 -0.1675 -0.1468
  793MOL0     C 6966   7.878   6.481   1.752  0.0355 -0.2742 -1.0736
  793MOL0     C 6967   7.745   6.454   1.813 -0.2874 -1.3652  0.0979
  793MOL0     O 6968   7.492   6.340   1.719  0.0425  0.3344 -0.5522
  793MOL0     C 6969   7.357   6.223   2.037 -1.6904 -0.4570 -0.0387
  793MOL0     C 6970   7.238   6.196   2.105 -0.9018  0.6863 -0.7241
  793MOL0     N 6971   6.880   5.611   2.435  0.4818 -0.3917 -0.0749
  793MOL0     N 6972   6.804   5.546   2.507  0.2602 -0.0265  0.5213
  793MOL0     C 6973   6.694   4.623   2.631  0.3254 -0.5423  0.6794
  793MOL0     C 6974   6.792   4.529   2.588  0.1645  0.2591 -0.2847
  793MOL0     C 6975   7.171   4.307   2.499  0.1129  0.4380  0.7131
  793MOL0     C 6976   7.185   4.259   2.372 -0.0067 -0.2792  0.6414
  793MOL0     C 6977   7.303   4.192   2.333  0.3822  1.2693 -0.5087
  793MOL0     C 6978   7.402   4.152   2.428  0.2367 -0.6256  0.2835
  793MOL0     O 6979   7.509   4.073   2.375 -0.6194 -0.9330 -0.0851
  793MOL0     C 6980   7.626   4.049   2.454  1.2707 -0.4280 -0.4092
  793MOL0     C 6981   7.700   3.925   2.402 -0.1863  0.2608  0.3039
  793MOL0     C 6982   7.810   3.881   2.501  0.0473 -0.7923 -0.1739
  793MOL0     C 6983   7.741   3.799   2.610 -0.0600 -0.1474 -0.6194
  793MOL0     C 6984   7.816   3.795   2.740 -0.9733 -0.5364  0.0496
  793MOL0     C 6985   7.883   3.813   2.844  0.0206  0.2449  0.1994
  793MOL0     C 6986   7.386   4.210   2.551 -0.1333  1.1137 -0.7203
  793MOL0     C 6987   7.268   4.275   2.590 -1.0667  0.2116  1.0929
  793MOL0     H 6988   6.942   4.711   2.342 -2.3977  4.9913 -0.2157
  793MOL0     H 6989   6.783   4.870   2.414  0.6693 -0.0166 -1.2056
  793MOL0     H 6990   6.563   4.957   2.466 -1.9958  2.7226  2.9619
  793MOL0     H 6991   6.477   4.802   2.464  1.9183 -2.0526  0.1531
  793MOL0     H 6992   6.294   4.927   2.553  0.3975 -1.5063 -1.8374
  793MOL0     H 6993   6.401   4.906   2.704  0.4694  0.2110  0.5866
  793MOL0     H 6994   6.406   5.156   2.516  1.2412  1.3130  0.6252
  793MOL0     H 6995   6.315   5.138   2.659  0.5376  2.6045  0.0088
  793MOL0     H 6996   6.548   5.102   2.779  2.4319  4.2450  1.8621
  793MOL0     H 6997   6.610   5.119   2.604 -1.7808  0.2705 -1.7734
  793MOL0     H 6998   6.565   5.362   2.599  2.4174  3.0309  1.3550
  793MOL0     H 6999   6.488   5.351   2.758  2.5614 -0.1567  2.2589
  793MOL0     H 7000   6.700   5.281   2.851 -0.1198 -0.9918 -0.3345
  793MOL0     H 7001   6.765   5.319   2.682 -3.3016  0.7188 -2.3095
  793MOL0     H 7002   6.609   5.475   2.895 -1.2346 -2.5783 -1.9164
  793MOL0     H 7003   6.782   5.507   2.872  1.6353  1.2940 -2.3632
  793MOL0     H 7004   6.641   5.687   2.763  1.8789  1.5781 -2.9230
  793MOL0     H 7005   6.568   5.567   2.647 -0.5925 -3.7577  1.5367
  793MOL0     H 7006   6.834   5.818   2.692 -0.9047 -0.9908  0.0249
  793MOL0     H 7007   7.002   5.918   2.524  0.5281 -1.0298  1.7981
  793MOL0     H 7008   7.098   5.811   2.426  0.0564 -0.0465 -2.3876
  793MOL0     H 7009   6.814   5.914   2.347 -0.3091 -0.1764  0.2413
  793MOL0     H 7010   6.922   5.847   2.231 -0.4892  1.3878 -0.5283
  793MOL0     H 7011   7.099   6.008   2.289  0.4722 -1.1842  0.0791
  793MOL0     H 7012   6.974   6.115   2.361  2.1705 -0.4164  0.8049
  793MOL0     H 7013   6.840   6.083   2.156  0.3141 -0.2981  5.4215
  793MOL0     H 7014   6.984   5.997   2.079 -2.8051 -0.4245 -0.7328
  793MOL0     H 7015   7.022   6.291   1.881 -0.0158  2.8331  1.9345
  793MOL0     H 7016   7.271   6.325   1.624  1.9868  0.2470  1.2244
  793MOL0     H 7017   7.100   6.358   1.666  0.1026 -1.5119 -0.2708
  793MOL0     H 7018   7.222   6.472   1.708  0.0020 -0.6389  0.2845
  793MOL0     H 7019   7.823   6.139   1.923  0.0744  0.5370 -0.0191
  793MOL0     H 7020   8.058   6.224   1.849  0.5751  0.6061 -1.6266
  793MOL0     H 7021   8.057   6.581   1.596  0.4261  1.5763  0.4474
  793MOL0     H 7022   8.116   6.632   1.762  3.3389  0.2972  0.8133
  793MOL0     H 7023   8.288   6.683   1.576  1.1553  1.3383 -0.3357
  793MOL0     H 7024   8.346   6.585   1.715  0.4713 -1.3701 -1.0161
  793MOL0     H 7025   8.294   6.466   1.436 -0.4265  1.4204  0.4816
  793MOL0     H 7026   8.304   6.379   1.587 -1.8794  0.2685  0.4931
  793MOL0     H 7027   8.518   6.561   1.474 -0.9531  1.3552 -0.2903
  793MOL0     H 7028   8.530   6.482   1.631 -0.3211  3.1603 -0.0152
  793MOL0     H 7029   8.657   6.373   1.448  0.4434  1.3242  2.0401
  793MOL0     H 7030   8.488   6.325   1.384  0.4007  1.5489 -1.2035
  793MOL0     H 7031   8.643   6.231   1.641  0.3755 -2.5369 -0.5142
  793MOL0     H 7032   8.466   6.226   1.640 -0.7147 -2.8853 -3.1171
  793MOL0     H 7033   8.657   6.103   1.440  1.4288 -3.1853  1.4803
  793MOL0     H 7034   8.481   6.085   1.429 -0.9175 -2.0748  1.0293
  793MOL0     H 7035   8.552   5.881   1.510  0.7958  0.7124 -1.1526
  793MOL0     H 7036   8.480   5.951   1.638  0.2592  2.4347  2.1265
  793MOL0     H 7037   7.891   6.571   1.692  0.8779  0.4642  0.1572
  793MOL0     H 7038   7.666   6.526   1.794  1.9816  1.0572 -0.6433
  793MOL0     H 7039   7.445   6.193   2.092 -1.6819 -3.9530 -1.6958
  793MOL0     H 7040   7.245   6.171   2.210  3.2041  1.8229 -0.5170
  793MOL0     H 7041   6.619   4.601   2.706  1.9006  0.6660  2.7360
  793MOL0     H 7042   6.795   4.432   2.637 -2.0733 -0.4722 -1.4295
  793MOL0     H 7043   7.112   4.274   2.293 -0.3200  3.6906  1.5154
  793MOL0     H 7044   7.322   4.159   2.231  2.7039  0.0473  0.2307
  793MOL0     H 7045   7.682   4.142   2.457 -2.3136  1.9629 -1.3366
  793MOL0     H 7046   7.601   4.039   2.560  1.6880  1.8663 -0.0537
  793MOL0     H 7047   7.746   3.950   2.305  0.5684 -3.2498 -0.4275
  793MOL0     H 7048   7.630   3.843   2.379 -0.2508  1.1529 -3.4227
  793MOL0     H 7049   7.871   3.956   2.552  0.9541 -1.3833 -0.3677
  793MOL0     H 7050   7.885   3.824   2.445  0.8834  0.5553 -0.4753
  793MOL0     H 7051   7.739   3.695   2.574  1.2686 -0.4854  0.2224
  793MOL0     H 7052   7.642   3.841   2.625  0.6093  0.6991  1.9252
  793MOL0     H 7053   7.935   3.807   2.937 -0.6693 -0.1647  0.5679
  793MOL0     H 7054   7.466   4.190   2.622  0.0789 -0.0889 -1.2848
  793MOL0     H 7055   7.261   4.302   2.695  0.3708 -1.1580  1.5763
  794MOL0     O 7056   9.192   8.056   7.482  0.1021 -0.1385 -0.3022
  794MOL0     C 7057   9.235   7.946   7.507  1.0935 -0.3629 -0.3330
  794MOL0     O 7058   9.304   7.868   7.415 -0.4139  0.3623  0.1077
  794MOL0     C 7059   9.308   7.906   7.284  0.3880 -0.3565 -0.7180
  794MOL0     C 7060   9.404   7.996   7.236 -0.2761  0.2181 -0.6821
  794MOL0     C 7061   9.407   8.034   7.098  0.8607  0.6127 -0.4236
  794MOL0     C 7062   9.312   7.982   7.010  0.9571 -0.4661  0.4312
  794MOL0     O 7063   9.295   8.013   6.873 -0.5260  0.0290 -0.0521
  794MOL0     C 7064   9.384   8.112   6.810 -0.3508 -0.0168 -0.3859
  794MOL0     C 7065   9.334   8.252   6.836 -0.4725  0.4027  0.5973
  794MOL0     C 7066   9.430   8.359   6.777 -0.1952 -0.3326 -0.5920
  794MOL0     C 7067   9.445   8.333   6.627  0.5357  0.0119  0.0236
  794MOL0     C 7068   9.545   8.428   6.558 -0.2257 -0.0879  0.3202
  794MOL0     C 7069   9.520   8.583   6.574 -0.4642 -0.4622  0.2166
  794MOL0     C 7070   9.618   8.676   6.492 -0.0705  0.3175  0.3158
  794MOL0     C 7071   9.626   8.816   6.556 -0.0404  0.5093  0.7055
  794MOL0     N 7072   9.694   8.921   6.474  0.3311  0.0092  0.4337
  794MOL0     C 7073   9.690   9.056   6.493 -0.8178 -0.1023  0.4392
  794MOL0     C 7074   9.768   9.106   6.396 -0.1761 -0.0725  0.2440
  794MOL0     C 7075   9.790   9.250   6.354 -0.7674 -0.7067 -0.1128
  794MOL0     C 7076   9.827   9.330   6.483  0.5132  0.0606  0.0931
  794MOL0     C 7077   9.940   9.431   6.459  0.7033  0.0704 -0.2545
  794MOL0     C 7078   9.915   9.538   6.356 -0.0104 -0.0194 -0.1190
  794MOL0     O 7079  10.021   9.635   6.360 -0.4777 -0.2153  0.3648
  794MOL0     C 7080   9.976   9.753   6.391 -0.7737 -0.9347 -0.5521
  794MOL0     C 7081  10.009   9.792   6.524  0.2469 -0.5185 -1.1941
  794MOL0     C 7082   9.953   9.907   6.580  0.2749  0.0238 -0.4524
  794MOL0     C 7083   9.983   9.940   6.726 -0.0846 -0.7270  0.0117
  794MOL0     C 7084   9.885   9.998   6.494  1.4569  0.1138 -0.8518
  794MOL0     C 7085   9.808  10.112   6.532  0.7450  0.6993  0.5016
  794MOL0     O 7086   9.737  10.110   6.640  0.2681 -0.2248  0.5769
  794MOL0     C 7087   9.680  10.218   6.689  0.1699 -0.3837 -0.2393
  794MOL0     C 7088   9.614  10.323   6.619  0.0508  0.4511 -0.1634
  794MOL0     C 7089   9.562  10.432   6.698 -0.3519 -0.1623  0.3077
  794MOL0     C 7090   9.583  10.446   6.834  0.8038 -0.1860 -0.0914
  794MOL0     O 7091   9.538  10.548   6.910 -0.9806 -0.4210 -0.1051
  794MOL0     C 7092   9.413  10.594   6.867 -0.3464  0.7033 -0.1875
  794MOL0     C 7093   9.372  10.715   6.970  0.3699  0.8359 -0.2675
  794MOL0     C 7094   9.260  10.807   6.934  0.1709 -0.3101  0.1557
  794MOL0     C 7095   9.135  10.729   6.905  0.8496 -0.4050 -0.4187
  794MOL0     C 7096   9.029  10.831   6.869  0.1718 -0.9975  0.3911
  794MOL0     C 7097   8.893  10.777   6.820 -0.0136  1.0152 -0.4991
  794MOL0     C 7098   8.797  10.719   6.938  0.4380  0.1857  0.3458
  794MOL0     C 7099   8.667  10.792   6.934 -0.3597  0.0955 -0.2872
  794MOL0    Cl 7100   8.589  10.780   6.782  0.3648  0.0484 -0.1833
  794MOL0     C 7101   9.649  10.348   6.898 -0.4016  0.6579 -0.2523
  794MOL0     C 7102   9.688  10.231   6.830 -0.1987 -0.0877 -1.1286
  794MOL0     O 7103   9.839  10.205   6.459  0.2671 -0.4274  0.8039
  794MOL0     C 7104   9.854   9.961   6.365 -0.6116 -0.1514  1.2679
  794MOL0     C 7105   9.906   9.838   6.309 -0.5879 -0.6668 -0.2365
  794MOL0     N 7106   9.816   9.003   6.323 -0.3720 -0.7971  0.4094
  794MOL0     N 7107   9.773   8.888   6.365  0.5414 -0.0430 -0.5280
  794MOL0     C 7108   9.223   7.891   7.060  0.1420 -0.2529 -0.4110
  794MOL0     C 7109   9.219   7.853   7.193 -0.1048 -0.7420 -0.4683
  794MOL0     C 7110   9.219   7.916   7.649  0.1462 -0.4140 -0.8167
  794MOL0     C 7111   9.184   8.017   7.743 -0.0818  0.1630  0.1201
  794MOL0     C 7112   9.176   7.989   7.875  0.8085 -0.0125 -0.6790
  794MOL0     C 7113   9.193   7.852   7.922 -0.0310 -0.4552  0.5348
  794MOL0     O 7114   9.200   7.819   8.057 -0.8976  0.3763 -0.1117
  794MOL0     C 7115   9.118   7.883   8.157  0.2900  0.0011  0.5881
  794MOL0     C 7116   9.208   7.946   8.273  0.6633  0.5333  0.7998
  794MOL0     C 7117   9.299   8.057   8.229 -0.8190  0.2622 -0.1520
  794MOL0     C 7118   9.393   8.104   8.347  0.3399 -0.3738 -0.0573
  794MOL0     C 7119   9.328   8.145   8.470  0.0988 -0.2403 -0.1507
  794MOL0     C 7120   9.301   8.191   8.585 -0.9107 -0.3384  0.5969
  794MOL0     C 7121   9.233   7.760   7.831 -0.6990  1.3635 -0.2247
  794MOL0     C 7122   9.238   7.781   7.691  1.1759  0.0820  0.1329
  794MOL0     H 7123   9.470   8.046   7.305 -0.7169  0.1493 -0.2045
  794MOL0     H 7124   9.478   8.105   7.056  0.2885 -0.6990 -3.9248
  794MOL0     H 7125   9.484   8.109   6.853 -2.1394  2.0936  4.7640
  794MOL0     H 7126   9.382   8.086   6.704  0.1860  3.9002 -1.4959
  794MOL0     H 7127   9.234   8.256   6.792 -1.2886 -5.6665  1.1194
  794MOL0     H 7128   9.326   8.274   6.943 -1.5179 -0.4237  0.7011
  794MOL0     H 7129   9.394   8.459   6.801  1.2677 -0.1840  1.1892
  794MOL0     H 7130   9.523   8.353   6.833 -1.8302  1.0722  2.5305
  794MOL0     H 7131   9.472   8.232   6.592 -0.0407  0.0360 -0.5095
  794MOL0     H 7132   9.348   8.347   6.577  0.0467 -0.3312  0.8566
  794MOL0     H 7133   9.649   8.432   6.590  0.0397  2.0138 -0.6634
  794MOL0     H 7134   9.553   8.397   6.453  1.6559  0.2013  0.3505
  794MOL0     H 7135   9.417   8.601   6.542  0.0502  0.8043 -0.8319
  794MOL0     H 7136   9.523   8.616   6.678 -1.5515 -0.7950  0.3614
  794MOL0     H 7137   9.714   8.624   6.492  0.0225  0.4451  1.6842
  794MOL0     H 7138   9.559   8.692   6.401 -0.0270  1.1996  0.4335
  794MOL0     H 7139   9.670   8.800   6.654 -2.8834  0.6232  2.1094
  794MOL0     H 7140   9.526   8.851   6.582  0.2552  0.7853  1.4795
  794MOL0     H 7141   9.643   9.121   6.566  0.0585  0.9242  0.1092
  794MOL0     H 7142   9.868   9.241   6.277  0.0873 -1.1477  0.7868
  794MOL0     H 7143   9.694   9.286   6.316 -2.0038  0.4852  3.6921
  794MOL0     H 7144   9.864   9.269   6.566  1.9815 -0.4622 -0.8876
  794MOL0     H 7145   9.736   9.379   6.517 -0.3124 -1.9626  0.9841
  794MOL0     H 7146  10.029   9.372   6.435  0.0473 -2.5454  3.1290
  794MOL0     H 7147   9.962   9.482   6.553  4.8796 -1.0700 -0.4087
  794MOL0     H 7148   9.814   9.579   6.369 -0.9954 -1.8188 -1.6044
  794MOL0     H 7149   9.918   9.487   6.259 -1.2530  1.5280 -1.0312
  794MOL0     H 7150  10.082   9.735   6.581  0.3808 -0.7196 -1.5642
  794MOL0     H 7151   9.920   9.868   6.779  1.2166 -1.7280  0.2365
  794MOL0     H 7152  10.088   9.922   6.748 -0.2218 -1.7525 -0.1252
  794MOL0     H 7153   9.957  10.042   6.758  1.4746  0.5189 -2.4125
  794MOL0     H 7154   9.602  10.325   6.511  1.6418 -2.0214 -0.4788
  794MOL0     H 7155   9.506  10.506   6.643  0.0077 -1.2667 -1.6292
  794MOL0     H 7156   9.424  10.644   6.771  1.1852  1.4954  0.3642
  794MOL0     H 7157   9.334  10.518   6.862 -0.6477  0.8757  1.4313
  794MOL0     H 7158   9.342  10.665   7.063  2.5359 -1.7291 -0.7928
  794MOL0     H 7159   9.447  10.782   7.012  0.9677 -2.2500  4.4209
  794MOL0     H 7160   9.294  10.875   6.855 -0.5820  1.0557  0.9621
  794MOL0     H 7161   9.241  10.880   7.014  0.4738  1.3237 -1.2000
  794MOL0     H 7162   9.152  10.656   6.825 -0.6866 -1.3448  0.0654
  794MOL0     H 7163   9.108  10.675   6.996 -2.4815  1.2463 -0.2829
  794MOL0     H 7164   9.072  10.880   6.781  1.0040 -0.5295  1.0438
  794MOL0     H 7165   9.012  10.913   6.939 -0.0027 -2.5541  2.2325
  794MOL0     H 7166   8.854  10.859   6.759 -0.7178  1.2491  0.2493
  794MOL0     H 7167   8.899  10.701   6.741  2.4610  3.2575 -2.6248
  794MOL0     H 7168   8.844  10.715   7.037  3.1093 -0.2341 -0.8408
  794MOL0     H 7169   8.776  10.614   6.913  1.3402  0.3801 -1.4117
  794MOL0     H 7170   8.677  10.898   6.957  0.4195 -0.2526  1.0388
  794MOL0     H 7171   8.609  10.759   7.020  3.5628 -2.2598  1.7370
  794MOL0     H 7172   9.649  10.339   7.007 -1.6501 -2.0516 -0.4064
  794MOL0     H 7173   9.728  10.143   6.880  1.1977 -0.3967 -2.6682
  794MOL0     H 7174   9.805  10.019   6.288 -3.7774 -2.6450  1.1844
  794MOL0     H 7175   9.896   9.813   6.204  1.0163 -1.0430 -0.3320
  794MOL0     H 7176   9.160   7.836   6.991 -1.0551 -3.0560  2.6544
  794MOL0     H 7177   9.147   7.778   7.223 -0.4889 -1.4045 -2.8384
  794MOL0     H 7178   9.178   8.119   7.707 -2.3946  0.1565  0.3254
  794MOL0     H 7179   9.162   8.078   7.936 -1.6552  0.4493 -1.7751
  794MOL0     H 7180   9.057   7.964   8.117  0.0597  0.6574  2.1868
  794MOL0     H 7181   9.062   7.806   8.210  1.8783  0.9703  3.9665
  794MOL0     H 7182   9.261   7.863   8.320 -1.2824 -0.4253  1.3978
  794MOL0     H 7183   9.144   8.003   8.341  0.9681  0.0685  1.4902
  794MOL0     H 7184   9.244   8.144   8.191 -1.7897 -0.8050 -1.2550
  794MOL0     H 7185   9.359   8.013   8.150 -3.1383 -4.1656  0.2432
  794MOL0     H 7186   9.463   8.177   8.307  2.1620 -1.4233  1.1021
  794MOL0     H 7187   9.466   8.031   8.382 -0.4056 -1.9329 -1.6326
  794MOL0     H 7188   9.295   8.239   8.681  0.8142  0.3889  0.3674
  794MOL0     H 7189   9.261   7.662   7.869 -0.0647  1.0703 -1.3993
  794MOL0     H 7190   9.261   7.698   7.626  2.6861 -0.8293  1.7596
  795MOL0     O 7191   2.065   0.481   0.689  0.0640 -0.3125 -0.0698
  795MOL0     C 7192   2.183   0.484   0.721  0.4367  0.5717 -0.4553
  795MOL0     O 7193   2.278   0.408   0.661 -0.6378  0.1524  0.2664
  795MOL0     C 7194   2.265   0.345   0.539 -0.5930  0.1369 -0.1519
  795MOL0     C 7195   2.221   0.413   0.427  0.4069 -0.5348 -0.5301
  795MOL0     C 7196   2.217   0.341   0.310 -0.7047 -0.0712 -0.4255
  795MOL0     C 7197   2.262   0.211   0.299  0.0907  0.5483  0.0991
  795MOL0     O 7198   2.247   0.122   0.188  0.3623  0.8022  0.3072
  795MOL0     C 7199   2.178   0.170   0.061 -0.5918 -0.9907  0.1310
  795MOL0     C 7200   2.171   0.082  -0.061 -0.0849  0.7489  0.9522
  795MOL0     C 7201   2.309   0.016  -0.084 -0.2075  0.3342  0.1527
  795MOL0     C 7202   2.303  -0.086  -0.190  0.6866 -0.0477  0.7627
  795MOL0     C 7203   2.449  -0.124  -0.246 -0.2649 -0.6080  0.0752
  795MOL0     C 7204   2.529  -0.209  -0.148  0.8555  0.9205 -0.3384
  795MOL0     C 7205   2.637  -0.286  -0.222  0.1568  0.1479 -0.0445
  795MOL0     C 7206   2.572  -0.396  -0.320 -0.0101  0.8095  0.0194
  795MOL0     N 7207   2.661  -0.504  -0.337 -0.9172 -0.3886  0.6405
  795MOL0     C 7208   2.774  -0.507  -0.420 -0.9194  0.4441 -0.4215
  795MOL0     C 7209   2.855  -0.600  -0.366 -0.5219  0.7214  0.2693
  795MOL0     C 7210   2.996  -0.636  -0.420  0.1809  0.2213  0.9890
  795MOL0     C 7211   3.022  -0.786  -0.423 -0.0438 -0.2466 -0.0777
  795MOL0     C 7212   3.162  -0.821  -0.472  0.3100 -0.1108 -0.2001
  795MOL0     C 7213   3.147  -0.962  -0.523 -0.1164  0.4449  0.3449
  795MOL0     O 7214   3.269  -1.011  -0.572  0.2808  0.5081 -0.0746
  795MOL0     C 7215   3.373  -1.053  -0.493  0.3698 -0.3588  0.8086
  795MOL0     C 7216   3.369  -1.071  -0.355 -0.4575 -0.0814 -0.7358
  795MOL0     C 7217   3.481  -1.111  -0.277  1.1497  1.1251  0.9874
  795MOL0     C 7218   3.467  -1.131  -0.129 -0.2739  1.2075  0.3963
  795MOL0     C 7219   3.602  -1.158  -0.350  0.8645 -1.1442 -0.1888
  795MOL0     C 7220   3.724  -1.225  -0.293  0.1834  0.3278 -0.1775
  795MOL0     O 7221   3.841  -1.212  -0.367 -0.3467  0.2717  0.2913
  795MOL0     C 7222   3.964  -1.260  -0.330 -0.5570  0.6272 -0.2656
  795MOL0     C 7223   3.994  -1.380  -0.267 -0.1074 -1.0840  0.0446
  795MOL0     C 7224   4.130  -1.412  -0.264 -0.4687 -0.3769  0.1153
  795MOL0     C 7225   4.232  -1.340  -0.330  0.5205  0.4983 -0.6835
  795MOL0     O 7226   4.365  -1.378  -0.344 -0.1802  0.2055 -0.2874
  795MOL0     C 7227   4.465  -1.310  -0.267  0.5453  0.0203  0.1876
  795MOL0     C 7228   4.596  -1.369  -0.290  0.2055 -0.3104  0.1553
  795MOL0     C 7229   4.646  -1.395  -0.426  0.4589 -0.0628  0.0338
  795MOL0     C 7230   4.780  -1.468  -0.427  0.3664 -0.5553  0.3505
  795MOL0     C 7231   4.832  -1.514  -0.566 -0.1550  0.1434  1.0142
  795MOL0     C 7232   4.760  -1.637  -0.624 -0.0893  1.1309 -0.1547
  795MOL0     C 7233   4.807  -1.666  -0.767  0.9905 -0.6906  0.4491
  795MOL0     C 7234   4.952  -1.715  -0.771 -0.0498 -0.0533  0.1735
  795MOL0    Cl 7235   4.952  -1.896  -0.752 -0.2686  0.1144 -0.0527
  795MOL0     C 7236   4.197  -1.217  -0.375  0.9142 -0.0505  1.0576
  795MOL0     C 7237   4.062  -1.176  -0.385  1.1640  0.9402 -0.4258
  795MOL0     O 7238   3.717  -1.293  -0.193  0.2492  0.3838  0.3560
  795MOL0     C 7239   3.598  -1.140  -0.491 -0.4755 -2.1820 -0.4362
  795MOL0     C 7240   3.482  -1.089  -0.556 -0.9323 -0.3716 -0.0188
  795MOL0     N 7241   2.794  -0.654  -0.261 -0.3496 -0.3585 -0.2581
  795MOL0     N 7242   2.680  -0.602  -0.250 -0.4342  0.7213 -0.3648
  795MOL0     C 7243   2.318   0.148   0.408  0.0964  0.1177 -0.6244
  795MOL0     C 7244   2.313   0.217   0.524 -0.1286  0.5074 -0.3573
  795MOL0     C 7245   2.220   0.548   0.839 -0.5467 -0.5128  0.3997
  795MOL0     C 7246   2.351   0.542   0.881 -0.3242 -0.6508  0.1159
  795MOL0     C 7247   2.394   0.601   0.997 -0.3042 -0.0990 -0.5587
  795MOL0     C 7248   2.306   0.660   1.082  0.0418 -0.1053 -0.2731
  795MOL0     O 7249   2.361   0.694   1.204  0.2594 -0.0753 -0.2172
  795MOL0     C 7250   2.295   0.790   1.277 -0.1931  0.5055  0.2015
  795MOL0     C 7251   2.371   0.825   1.408  0.5426  0.2905  1.0836
  795MOL0     C 7252   2.389   0.711   1.506 -0.9001 -0.0870 -0.1575
  795MOL0     C 7253   2.256   0.644   1.546 -0.3960  1.0982  0.3518
  795MOL0     C 7254   2.192   0.551   1.445 -0.6486 -0.4006 -0.8512
  795MOL0     C 7255   2.158   0.473   1.358  0.4926 -0.1831 -0.0674
  795MOL0     C 7256   2.173   0.659   1.044  0.2329  0.2032 -0.0450
  795MOL0     C 7257   2.121   0.609   0.923 -0.2305  0.2426  0.1800
  795MOL0     H 7258   2.182   0.513   0.440 -0.7222 -1.1267  1.0253
  795MOL0     H 7259   2.179   0.392   0.222 -1.8085 -0.1613 -0.0227
  795MOL0     H 7260   2.076   0.188   0.094  0.0117  1.4683  0.8839
  795MOL0     H 7261   2.219   0.267   0.032  0.0686 -1.4367 -0.4770
  795MOL0     H 7262   2.106  -0.003  -0.036  1.1744 -0.2455  0.9873
  795MOL0     H 7263   2.130   0.137  -0.146  2.0813 -1.6178 -1.8475
  795MOL0     H 7264   2.382   0.096  -0.101  0.2824  1.0299  4.3990
  795MOL0     H 7265   2.332  -0.040   0.008 -3.4940 -0.4925  0.5907
  795MOL0     H 7266   2.247  -0.176  -0.160  0.4383 -0.2488 -0.2607
  795MOL0     H 7267   2.243  -0.041  -0.270  1.6633 -2.7762 -1.7363
  795MOL0     H 7268   2.424  -0.186  -0.333 -0.7260  0.3087 -0.4690
  795MOL0     H 7269   2.500  -0.031  -0.273  1.2162 -0.7319  2.2080
  795MOL0     H 7270   2.577  -0.139  -0.078  0.3151  0.6245  0.3330
  795MOL0     H 7271   2.458  -0.280  -0.106  2.8003  0.3525  2.2074
  795MOL0     H 7272   2.712  -0.224  -0.272  2.9136 -2.4771  0.5285
  795MOL0     H 7273   2.694  -0.338  -0.145  3.2422 -0.6495 -2.6592
  795MOL0     H 7274   2.534  -0.363  -0.417 -2.2563  0.0437  0.5734
  795MOL0     H 7275   2.486  -0.445  -0.273  1.1947 -0.3811  1.0521
  795MOL0     H 7276   2.784  -0.442  -0.506  2.3223 -3.7882 -3.6847
  795MOL0     H 7277   3.009  -0.609  -0.526  0.2585  0.4113  1.0471
  795MOL0     H 7278   3.076  -0.593  -0.360  0.9744 -0.7733  0.6753
  795MOL0     H 7279   2.945  -0.834  -0.484 -0.9461 -2.5828  2.6651
  795MOL0     H 7280   3.012  -0.821  -0.319  3.3565  1.1002  0.8350
  795MOL0     H 7281   3.242  -0.806  -0.399  1.5534  0.2900 -1.5845
  795MOL0     H 7282   3.185  -0.756  -0.557 -0.9103 -0.0146 -0.4726
  795MOL0     H 7283   3.072  -0.977  -0.601 -0.6176 -3.8606  1.4139
  795MOL0     H 7284   3.123  -1.034  -0.445  0.5603 -0.8870 -0.6244
  795MOL0     H 7285   3.287  -1.030  -0.298  1.5915 -1.4767  3.6386
  795MOL0     H 7286   3.522  -1.060  -0.068 -0.8745  1.5895  0.5061
  795MOL0     H 7287   3.361  -1.115  -0.103 -1.7009 -0.9178 -3.3081
  795MOL0     H 7288   3.496  -1.230  -0.092 -0.0079  1.2358  0.2608
  795MOL0     H 7289   3.918  -1.435  -0.213  0.0863 -1.7284 -0.3160
  795MOL0     H 7290   4.157  -1.507  -0.219 -0.8337 -1.0637 -1.0836
  795MOL0     H 7291   4.474  -1.208  -0.306 -0.8517 -0.3243 -1.1309
  795MOL0     H 7292   4.441  -1.311  -0.161 -0.1594  2.0593  0.0919
  795MOL0     H 7293   4.660  -1.313  -0.221 -2.3846 -0.4314  2.8394
  795MOL0     H 7294   4.585  -1.467  -0.244 -0.9654  0.0537  0.6731
  795MOL0     H 7295   4.661  -1.294  -0.467 -0.5335  0.5827  1.1973
  795MOL0     H 7296   4.566  -1.451  -0.475 -0.4880  0.0358  1.4215
  795MOL0     H 7297   4.865  -1.406  -0.394  1.3458 -0.7618 -1.6329
  795MOL0     H 7298   4.766  -1.553  -0.360 -2.2434 -0.0223  0.6022
  795MOL0     H 7299   4.940  -1.531  -0.569 -0.2777 -0.7498 -2.3210
  795MOL0     H 7300   4.815  -1.431  -0.635 -2.2461 -1.5079 -0.5808
  795MOL0     H 7301   4.776  -1.721  -0.557  0.1213  2.9202  2.1749
  795MOL0     H 7302   4.652  -1.623  -0.627 -0.4501  0.2855  3.9547
  795MOL0     H 7303   4.808  -1.569  -0.818 -2.3378 -0.1691  1.1579
  795MOL0     H 7304   4.742  -1.735  -0.821 -1.1242  0.4021  1.4891
  795MOL0     H 7305   5.022  -1.667  -0.702 -0.5376 -1.2961  1.5875
  795MOL0     H 7306   5.006  -1.691  -0.863 -2.1268 -0.9276 -1.3473
  795MOL0     H 7307   4.278  -1.153  -0.409 -0.2584 -0.3495 -2.9026
  795MOL0     H 7308   4.016  -1.091  -0.434 -4.3302 -0.9682  0.7162
  795MOL0     H 7309   3.684  -1.165  -0.552  0.3741  0.4304 -0.4448
  795MOL0     H 7310   3.489  -1.078  -0.664  1.3986 -2.0554 -0.1078
  795MOL0     H 7311   2.357   0.047   0.400  0.0873  0.1344 -0.9251
  795MOL0     H 7312   2.367   0.158   0.597 -0.6636 -3.6135 -2.9607
  795MOL0     H 7313   2.420   0.484   0.819  1.4859  2.9455 -1.5631
  795MOL0     H 7314   2.498   0.595   1.028 -0.2125 -2.3921 -1.1909
  795MOL0     H 7315   2.292   0.878   1.211 -0.0248 -0.3735 -1.0028
  795MOL0     H 7316   2.194   0.749   1.286 -0.2660  0.5124 -0.5366
  795MOL0     H 7317   2.309   0.901   1.456 -1.5491  0.0131 -0.9926
  795MOL0     H 7318   2.464   0.872   1.375 -1.1158  1.4999 -2.2773
  795MOL0     H 7319   2.431   0.759   1.595 -0.7571 -2.4447  1.1348
  795MOL0     H 7320   2.464   0.639   1.470 -1.4762 -1.0148  0.4631
  795MOL0     H 7321   2.196   0.728   1.582  0.8915  2.9227 -1.5132
  795MOL0     H 7322   2.285   0.582   1.631  0.1670 -0.1828 -0.7305
  795MOL0     H 7323   2.126   0.395   1.292  1.1355  0.4607 -1.1653
  795MOL0     H 7324   2.099   0.709   1.105  0.5586  3.0018 -1.7633
  795MOL0     H 7325   2.017   0.607   0.891 -0.2513 -0.3447  0.2672
  796MOL0     O 7326   4.985   0.595  11.184  0.7479  0.5484  0.3037
  796MOL0     C 7327   4.874   0.550  11.146 -0.5554  0.6820  0.0970
  796MOL0     O 7328   4.796   0.463  11.220 -0.0202  0.5227 -0.3310
  796MOL0     C 7329   4.848   0.409  11.337 -0.3719 -0.0744 -0.0533
  796MOL0     C 7330   4.975   0.343  11.343  0.3888  0.1010 -0.1535
  796MOL0     C 7331   5.007   0.267  11.453 -0.2491  0.0344  0.2018
  796MOL0     C 7332   4.926   0.256  11.565  0.5071 -1.3755 -0.0851
  796MOL0     O 7333   4.960   0.179  11.678  0.8835  1.0286  0.1559
  796MOL0     C 7334   5.099   0.151  11.698  0.2937  0.0332  0.9313
  796MOL0     C 7335   5.128   0.055  11.818 -0.4562 -0.0116 -0.1168
  796MOL0     C 7336   5.128   0.142  11.945  0.5568  0.3339 -0.5383
  796MOL0     C 7337   5.170   0.079  12.077 -1.0330  0.0382  0.3348
  796MOL0     C 7338   5.294  -0.020  12.071  0.8189 -1.0048  0.9279
  796MOL0     C 7339   5.304  -0.083  12.209  0.9139 -0.1183 -0.2057
  796MOL0     C 7340   5.434  -0.150  12.236 -0.7639 -1.7215 -1.0870
  796MOL0     C 7341   5.496  -0.222  12.108 -0.0286  0.5190  0.6223
  796MOL0     N 7342   5.428  -0.347  12.078  0.2757 -0.4484 -0.0985
  796MOL0     C 7343   5.443  -0.478  12.120 -1.0891 -0.0795 -0.6669
  796MOL0     C 7344   5.385  -0.561  12.030  0.1141  0.4611  0.1933
  796MOL0     C 7345   5.399  -0.709  12.026 -0.4876  1.2929  0.7212
  796MOL0     C 7346   5.293  -0.790  11.939 -0.0843 -0.3453  0.1005
  796MOL0     C 7347   5.325  -0.941  11.943 -0.2389  0.0839  0.0252
  796MOL0     C 7348   5.223  -1.030  11.865  0.5898  0.2761  0.3243
  796MOL0     O 7349   5.101  -1.032  11.935 -0.0237 -0.3855  0.1392
  796MOL0     C 7350   4.996  -1.087  11.870  0.2829 -0.1816  0.9610
  796MOL0     C 7351   5.002  -1.148  11.742 -0.4361  0.1969  0.1299
  796MOL0     C 7352   4.896  -1.214  11.681  0.3701 -0.1927  1.2558
  796MOL0     C 7353   4.919  -1.270  11.542 -0.6740  0.3766  0.6014
  796MOL0     C 7354   4.769  -1.206  11.747 -0.4853  0.4800 -0.6049
  796MOL0     C 7355   4.653  -1.267  11.692 -0.4072 -0.3881 -1.1851
  796MOL0     O 7356   4.544  -1.267  11.775  0.2374  0.0757  0.2927
  796MOL0     C 7357   4.435  -1.323  11.715 -0.3122 -1.0298  0.2840
  796MOL0     C 7358   4.401  -1.450  11.769  0.0329  1.2368  0.1298
  796MOL0     C 7359   4.285  -1.509  11.719  0.7429 -0.5692  0.4311
  796MOL0     C 7360   4.204  -1.453  11.620  0.0510  0.0619  0.3063
  796MOL0     O 7361   4.082  -1.505  11.573  0.0951  0.0502  0.2889
  796MOL0     C 7362   4.055  -1.644  11.609 -0.0160  0.1200  0.3040
  796MOL0     C 7363   3.954  -1.691  11.507  0.0615 -0.8962 -0.0402
  796MOL0     C 7364   3.888  -1.827  11.528 -0.6735 -0.6891 -0.4804
  796MOL0     C 7365   3.794  -1.870  11.416  0.1265  0.5755  0.5326
  796MOL0     C 7366   3.653  -1.811  11.410  0.5033 -0.6830 -0.9613
  796MOL0     C 7367   3.647  -1.694  11.312 -0.3569  0.3108  0.6535
  796MOL0     C 7368   3.508  -1.637  11.327 -0.3814  0.4309 -0.3073
  796MOL0     C 7369   3.399  -1.741  11.290 -0.6901  0.1766 -0.4229
  796MOL0    Cl 7370   3.407  -1.827  11.141  0.0043 -0.1185  0.5712
  796MOL0     C 7371   4.232  -1.328  11.575  0.3302  0.2932 -0.0181
  796MOL0     C 7372   4.346  -1.263  11.622 -0.3227 -0.6274 -0.2253
  796MOL0     O 7373   4.645  -1.298  11.578  0.0590 -0.3993 -0.2597
  796MOL0     C 7374   4.769  -1.144  11.872  0.6259  0.1385  0.2652
  796MOL0     C 7375   4.876  -1.089  11.938 -0.1504  0.8450  0.1349
  796MOL0     N 7376   5.316  -0.480  11.941 -0.4325 -0.8645  0.3561
  796MOL0     N 7377   5.346  -0.357  11.970 -0.6708 -0.0983 -0.8019
  796MOL0     C 7378   4.794   0.311  11.560 -0.1834 -0.1349  0.2280
  796MOL0     C 7379   4.763   0.391  11.446 -0.4509 -0.6816 -0.1482
  796MOL0     C 7380   4.833   0.585  11.013 -0.0431  0.3039 -0.4135
  796MOL0     C 7381   4.899   0.681  10.927 -0.1970  0.2981 -0.1228
  796MOL0     C 7382   4.843   0.722  10.803  0.4903 -1.1132  0.8763
  796MOL0     C 7383   4.721   0.662  10.762 -0.0752 -0.3085  0.1084
  796MOL0     O 7384   4.654   0.679  10.634  0.1403 -0.0554 -0.2851
  796MOL0     C 7385   4.714   0.778  10.543  0.4959 -0.5659  0.2961
  796MOL0     C 7386   4.710   0.928  10.578 -0.1606  0.7828  0.5856
  796MOL0     C 7387   4.572   0.985  10.607  0.2010 -0.6249 -0.2108
  796MOL0     C 7388   4.573   1.139  10.622  0.0037 -0.8448  0.1893
  796MOL0     C 7389   4.570   1.204  10.492  0.4416 -0.5102 -0.1493
  796MOL0     C 7390   4.580   1.248  10.380  0.4441  0.0105  0.3382
  796MOL0     C 7391   4.663   0.564  10.848 -0.3150 -0.0855 -0.5683
  796MOL0     C 7392   4.714   0.524  10.969  0.2133  0.0224 -0.2646
  796MOL0     H 7393   5.048   0.373  11.269 -1.0298  4.0461 -0.1578
  796MOL0     H 7394   5.105   0.220  11.453 -0.4462 -0.3852  0.7286
  796MOL0     H 7395   5.139   0.095  11.613  1.8673  2.6004 -0.1292
  796MOL0     H 7396   5.166   0.236  11.712  0.2286  0.0516  1.1421
  796MOL0     H 7397   5.054  -0.026  11.819 -2.4490  1.7332  0.7788
  796MOL0     H 7398   5.236   0.038  11.804 -0.5419 -0.1231 -0.6549
  796MOL0     H 7399   5.195   0.224  11.919  0.3621  0.3951 -0.8505
  796MOL0     H 7400   5.025   0.176  11.956  0.9244  1.4387 -0.4098
  796MOL0     H 7401   5.188   0.155  12.154  0.6636 -4.3575  4.8766
  796MOL0     H 7402   5.080   0.038  12.124 -1.1657  0.7145  0.6785
  796MOL0     H 7403   5.270  -0.091  11.990 -1.6570 -1.4773  1.9743
  796MOL0     H 7404   5.388   0.033  12.056  0.4681  0.3194  2.9876
  796MOL0     H 7405   5.270  -0.017  12.290 -2.7980 -2.6075  0.5247
  796MOL0     H 7406   5.226  -0.157  12.195  0.7778  0.5235 -3.9335
  796MOL0     H 7407   5.505  -0.072  12.262 -2.1271 -0.9313  0.4754
  796MOL0     H 7408   5.425  -0.212  12.326 -1.8440 -3.1199 -2.1081
  796MOL0     H 7409   5.600  -0.248  12.128 -0.5766 -0.7091  2.1215
  796MOL0     H 7410   5.502  -0.153  12.024  1.0089  1.6791  1.6195
  796MOL0     H 7411   5.511  -0.520  12.195 -1.3163  1.6773  0.5829
  796MOL0     H 7412   5.496  -0.723  11.979 -1.6838 -1.7624 -1.1224
  796MOL0     H 7413   5.401  -0.739  12.132  0.4104  1.8485  0.8705
  796MOL0     H 7414   5.298  -0.765  11.832 -0.6262 -1.1741 -0.1235
  796MOL0     H 7415   5.193  -0.759  11.971 -1.2259 -2.1177 -1.5555
  796MOL0     H 7416   5.315  -0.976  12.046 -2.1044  1.6511  0.4319
  796MOL0     H 7417   5.429  -0.943  11.908 -0.5518  1.1792 -1.0353
  796MOL0     H 7418   5.257  -1.131  11.844 -2.1685 -1.2274  2.4708
  796MOL0     H 7419   5.201  -0.983  11.769 -0.9910 -0.4814  0.2768
  796MOL0     H 7420   5.092  -1.146  11.682 -0.8282  0.4758 -0.4533
  796MOL0     H 7421   4.883  -1.204  11.462 -1.7877 -0.1286  0.6713
  796MOL0     H 7422   5.025  -1.292  11.529 -0.2518  1.8058  1.4016
  796MOL0     H 7423   4.870  -1.367  11.531  0.6520 -0.1974 -0.5047
  796MOL0     H 7424   4.469  -1.497  11.839 -1.7843 -1.5583  0.1612
  796MOL0     H 7425   4.265  -1.608  11.758 -0.4615 -1.6659 -2.6212
  796MOL0     H 7426   4.135  -1.717  11.592  1.3318  1.2993  1.3888
  796MOL0     H 7427   4.015  -1.655  11.710 -5.5263  1.2747 -1.4353
  796MOL0     H 7428   3.873  -1.618  11.501 -0.3699 -1.4763 -1.8835
  796MOL0     H 7429   4.005  -1.674  11.412 -2.1072 -0.5832 -1.2189
  796MOL0     H 7430   3.834  -1.825  11.623  2.6294 -2.2549  1.6504
  796MOL0     H 7431   3.964  -1.903  11.548 -0.7283 -0.0058  3.0382
  796MOL0     H 7432   3.845  -1.868  11.319 -0.8433  1.1308  0.0199
  796MOL0     H 7433   3.780  -1.976  11.435  3.5845 -0.8084 -3.1687
  796MOL0     H 7434   3.628  -1.777  11.511 -0.9193  1.8276 -2.0777
  796MOL0     H 7435   3.589  -1.894  11.378 -0.5636  0.0546 -0.7805
  796MOL0     H 7436   3.723  -1.617  11.322 -1.0152  1.7429 -3.3706
  796MOL0     H 7437   3.659  -1.732  11.210  2.1836  2.1668  0.1819
  796MOL0     H 7438   3.492  -1.554  11.258 -2.6142  1.3463  1.1851
  796MOL0     H 7439   3.481  -1.602  11.427 -3.6436 -1.2930 -0.4472
  796MOL0     H 7440   3.302  -1.691  11.297 -0.6484  0.1277  0.6466
  796MOL0     H 7441   3.389  -1.810  11.374  4.4285 -0.0825  0.3020
  796MOL0     H 7442   4.162  -1.301  11.496 -3.6978 -1.2626  2.6987
  796MOL0     H 7443   4.368  -1.163  11.585 -2.0132 -0.5066 -0.9811
  796MOL0     H 7444   4.671  -1.130  11.917  1.1269 -0.7609  1.7213
  796MOL0     H 7445   4.865  -1.040  12.034 -2.6421 -0.7013  0.7340
  796MOL0     H 7446   4.721   0.277  11.633  0.6977 -0.7496  0.8531
  796MOL0     H 7447   4.669   0.444  11.447 -0.7526 -1.1736  2.0220
  796MOL0     H 7448   5.000   0.695  10.962  0.7036 -2.1635 -1.5161
  796MOL0     H 7449   4.900   0.795  10.747 -0.3602  0.3137  1.8017
  796MOL0     H 7450   4.812   0.740  10.512 -0.1853 -1.1922 -1.2380
  796MOL0     H 7451   4.646   0.770  10.457  0.9585 -0.1759 -0.1096
  796MOL0     H 7452   4.749   0.972  10.486  3.0359 -0.0744  1.3813
  796MOL0     H 7453   4.783   0.939  10.659 -1.6823  0.7306  2.0182
  796MOL0     H 7454   4.524   0.949  10.699 -1.2857  3.3350  0.7866
  796MOL0     H 7455   4.495   0.956  10.535 -2.3429 -2.0670  2.8229
  796MOL0     H 7456   4.654   1.170  10.688 -0.4139  0.3969  0.1470
  796MOL0     H 7457   4.489   1.173  10.684  0.9569 -0.2805  1.2017
  796MOL0     H 7458   4.572   1.290  10.282 -1.3431 -4.0650 -1.4901
  796MOL0     H 7459   4.562   0.527  10.836 -0.0338 -1.4035  0.8344
  796MOL0     H 7460   4.664   0.450  11.031  1.4190 -0.5635  0.0397
  797MOL0     O 7461   0.932   9.663   2.181 -0.1165  0.2806 -0.4840
  797MOL0     C 7462   0.890   9.631   2.295  0.1212  0.0495  1.1147
  797MOL0     O 7463   0.771   9.569   2.318  0.0077  0.6741  0.2934
  797MOL0     C 7464   0.669   9.578   2.222 -0.2149 -0.0364  0.2132
  797MOL0     C 7465   0.552   9.656   2.251  0.4253  0.1963 -0.6370
  797MOL0     C 7466   0.444   9.667   2.156  0.5972  0.8069 -0.1236
  797MOL0     C 7467   0.443   9.593   2.037 -0.1311 -0.1136  0.2931
  797MOL0     O 7468   0.334   9.588   1.955 -0.1555 -1.1650  0.1621
  797MOL0     C 7469   0.258   9.710   1.932 -0.7386  0.3214 -0.4193
  797MOL0     C 7470   0.263   9.750   1.785 -0.3856  0.4126  0.2387
  797MOL0     C 7471   0.253   9.644   1.675  1.0044 -0.5393 -0.2055
  797MOL0     C 7472   0.109   9.606   1.668  0.2105  0.2188  0.6074
  797MOL0     C 7473   0.109   9.493   1.565 -0.3143  0.8876 -0.3551
  797MOL0     C 7474   0.077   9.535   1.420  0.3374 -0.4602 -0.0979
  797MOL0     C 7475   0.114   9.421   1.329 -0.0517 -0.4380  0.5274
  797MOL0     C 7476   0.096   9.449   1.181 -0.5761  0.2089  0.0895
  797MOL0     N 7477  -0.033   9.437   1.121  1.2402 -0.1618  0.3387
  797MOL0     C 7478  -0.061   9.459   0.988 -0.0292  0.7525  0.8239
  797MOL0     C 7479  -0.185   9.402   0.967  0.2946  0.3097 -0.9102
  797MOL0     C 7480  -0.287   9.416   0.856 -0.8732 -0.3996  0.3979
  797MOL0     C 7481  -0.272   9.300   0.764  0.3394 -0.0005 -0.0436
  797MOL0     C 7482  -0.125   9.282   0.708 -0.3234  0.0980  1.0668
  797MOL0     C 7483  -0.120   9.153   0.617  0.0452  0.6897  0.7115
  797MOL0     O 7484  -0.009   9.174   0.525  0.3506 -0.5823 -0.4995
  797MOL0     C 7485   0.018   9.082   0.430  0.9123  0.1451  0.2933
  797MOL0     C 7486   0.041   9.122   0.306 -1.2704 -1.1070  1.1544
  797MOL0     C 7487   0.077   9.030   0.202  0.0386  0.7643 -0.1452
  797MOL0     C 7488   0.112   9.091   0.069 -0.4420 -0.6126  0.0627
  797MOL0     C 7489   0.076   8.890   0.228 -0.6093 -0.4129  0.2108
  797MOL0     C 7490   0.107   8.780   0.134  0.5916  0.2516 -0.4523
  797MOL0     O 7491   0.088   8.657   0.183 -0.3099  0.4388 -0.0655
  797MOL0     C 7492   0.075   8.559   0.085  0.5678  0.7042  0.9038
  797MOL0     C 7493  -0.049   8.549  -0.003 -1.2309  0.7504 -0.1226
  797MOL0     C 7494  -0.048   8.444  -0.101  0.0932 -1.0216  0.1999
  797MOL0     C 7495   0.058   8.346  -0.109 -0.2291  0.1668 -0.6224
  797MOL0     O 7496   0.040   8.250  -0.205 -1.0764  0.7964  0.5645
  797MOL0     C 7497   0.116   8.271  -0.323  0.2902  0.4763 -0.6330
  797MOL0     C 7498   0.249   8.191  -0.314  0.8179  0.2360 -0.7027
  797MOL0     C 7499   0.349   8.203  -0.427  0.5332 -0.4614 -0.3671
  797MOL0     C 7500   0.454   8.300  -0.392  0.8369 -0.1926 -0.2800
  797MOL0     C 7501   0.550   8.323  -0.507 -0.1302  0.7677  0.6280
  797MOL0     C 7502   0.605   8.188  -0.568  1.0116 -0.6472 -0.5605
  797MOL0     C 7503   0.670   8.089  -0.477  0.4580  0.3212 -0.2198
  797MOL0     C 7504   0.713   7.957  -0.534 -0.2702 -0.0329 -0.5914
  797MOL0    Cl 7505   0.826   7.981  -0.660  0.1634 -0.2065  0.5868
  797MOL0     C 7506   0.161   8.345  -0.011 -0.1872 -0.1627  0.1213
  797MOL0     C 7507   0.175   8.454   0.078 -0.3783 -0.6053  0.0456
  797MOL0     O 7508   0.117   8.802   0.014 -0.7508 -1.7210  0.7296
  797MOL0     C 7509   0.047   8.848   0.365  0.1839  0.2827  1.4640
  797MOL0     C 7510   0.012   8.943   0.454  0.1771  0.1419 -0.3507
  797MOL0     N 7511  -0.224   9.356   1.085 -0.5545  0.8751  0.1101
  797MOL0     N 7512  -0.134   9.367   1.175  0.9196  0.4558 -0.5526
  797MOL0     C 7513   0.556   9.516   2.005  0.8952 -0.5902  0.0457
  797MOL0     C 7514   0.666   9.511   2.096 -0.2040  0.2198 -0.1851
  797MOL0     C 7515   0.983   9.659   2.407 -0.4487  0.7170 -0.0854
  797MOL0     C 7516   0.940   9.643   2.539  0.1850  0.0910  0.4019
  797MOL0     C 7517   1.021   9.692   2.645 -0.0139 -0.0126  0.1045
  797MOL0     C 7518   1.154   9.742   2.626  0.1164  0.4617  0.9142
  797MOL0     O 7519   1.231   9.775   2.731 -0.7082  0.1406 -0.4024
  797MOL0     C 7520   1.240   9.675   2.841 -0.7341 -0.3088  0.0889
  797MOL0     C 7521   1.351   9.714   2.936 -0.9593  0.3458 -1.9294
  797MOL0     C 7522   1.332   9.857   2.990 -0.8589 -0.0625  0.0491
  797MOL0     C 7523   1.429   9.892   3.107 -0.2356 -0.2564 -0.3248
  797MOL0     C 7524   1.549   9.941   3.039  0.0016 -0.0616 -1.0646
  797MOL0     C 7525   1.654   9.984   2.992  0.6936 -0.5409  0.1918
  797MOL0     C 7526   1.196   9.738   2.500  0.6598 -1.1966 -0.7485
  797MOL0     C 7527   1.113   9.701   2.391  0.0325  0.4934  0.7545
  797MOL0     H 7528   0.534   9.715   2.339  2.0174  1.5777 -1.2048
  797MOL0     H 7529   0.352   9.719   2.179 -0.0954 -0.1376 -0.6760
  797MOL0     H 7530   0.156   9.688   1.965 -0.8929  0.6939 -0.6483
  797MOL0     H 7531   0.301   9.795   1.985  0.3276 -2.5130  3.7566
  797MOL0     H 7532   0.179   9.821   1.783 -2.5924 -1.7899  3.5986
  797MOL0     H 7533   0.359   9.796   1.761 -0.4541  0.7031  0.5092
  797MOL0     H 7534   0.287   9.690   1.581 -1.3010  2.2144  0.1574
  797MOL0     H 7535   0.321   9.562   1.697  0.9944 -0.2433  1.0093
  797MOL0     H 7536   0.080   9.567   1.766 -0.6355  1.1401  0.7364
  797MOL0     H 7537   0.042   9.690   1.648 -0.5370 -0.5723 -0.3903
  797MOL0     H 7538   0.200   9.434   1.584 -0.0158  1.3739 -0.2663
  797MOL0     H 7539   0.026   9.425   1.589  2.9909 -3.6087 -0.3227
  797MOL0     H 7540  -0.026   9.570   1.407  0.4369 -1.3444 -4.5230
  797MOL0     H 7541   0.136   9.625   1.403 -1.5262  1.4434  2.5756
  797MOL0     H 7542   0.220   9.398   1.344  1.0544  3.1677 -0.6396
  797MOL0     H 7543   0.059   9.330   1.353 -2.7580  0.8929 -0.3312
  797MOL0     H 7544   0.165   9.387   1.123 -2.4010  0.8088 -2.9624
  797MOL0     H 7545   0.141   9.548   1.169 -1.2899  0.4697 -0.5303
  797MOL0     H 7546  -0.006   9.510   0.910 -0.7720  0.8952  0.3926
  797MOL0     H 7547  -0.391   9.414   0.891 -0.9972  0.6277  0.1107
  797MOL0     H 7548  -0.277   9.506   0.795  0.2585 -1.6076 -1.3111
  797MOL0     H 7549  -0.342   9.317   0.682 -0.0145  2.4992  0.6934
  797MOL0     H 7550  -0.297   9.213   0.824  0.3721 -0.0153 -0.0522
  797MOL0     H 7551  -0.040   9.278   0.777  1.1064 -3.5689 -0.6977
  797MOL0     H 7552  -0.111   9.366   0.639  1.0352 -0.9718  0.0077
  797MOL0     H 7553  -0.212   9.154   0.558  2.8536 -0.7433 -4.3154
  797MOL0     H 7554  -0.106   9.056   0.664  3.2627  0.2666 -0.8135
  797MOL0     H 7555   0.027   9.225   0.273  0.7527 -1.0035  0.4997
  797MOL0     H 7556   0.171   9.031  -0.000 -1.9703 -3.4974  1.0849
  797MOL0     H 7557   0.017   9.094   0.014  0.3206 -5.3529 -1.9740
  797MOL0     H 7558   0.144   9.195   0.079  0.4156 -0.8716  0.0162
  797MOL0     H 7559  -0.129   8.623  -0.005  0.9888  3.2978 -1.8616
  797MOL0     H 7560  -0.124   8.423  -0.176 -0.0064  0.2930 -0.0946
  797MOL0     H 7561   0.058   8.254  -0.414 -0.6107 -0.6529  0.1303
  797MOL0     H 7562   0.140   8.378  -0.324  1.1854  0.3026  0.1976
  797MOL0     H 7563   0.293   8.209  -0.216 -1.3553  1.5579  0.1058
  797MOL0     H 7564   0.216   8.087  -0.320 -1.9047  1.0578 -1.6943
  797MOL0     H 7565   0.308   8.252  -0.516  1.3589 -1.6322 -1.4150
  797MOL0     H 7566   0.373   8.100  -0.452 -3.1318 -2.6948  3.8729
  797MOL0     H 7567   0.413   8.393  -0.352  0.1236 -0.1055 -1.1794
  797MOL0     H 7568   0.508   8.273  -0.301 -1.9369 -1.3021  1.1664
  797MOL0     H 7569   0.631   8.394  -0.488  0.4439 -0.0597  1.3674
  797MOL0     H 7570   0.492   8.379  -0.581  0.1922  2.2180  1.4207
  797MOL0     H 7571   0.520   8.146  -0.622 -0.1530 -0.2470  0.9104
  797MOL0     H 7572   0.679   8.209  -0.646  0.9998 -2.5927 -1.1268
  797MOL0     H 7573   0.593   8.062  -0.404 -3.4645  2.5679 -3.1239
  797MOL0     H 7574   0.757   8.133  -0.428 -0.3894 -0.9997  2.6946
  797MOL0     H 7575   0.621   7.912  -0.570 -0.2564 -0.5752  0.0318
  797MOL0     H 7576   0.771   7.898  -0.462 -1.4640  1.3200  1.6012
  797MOL0     H 7577   0.231   8.262  -0.012  0.6869  0.5430  0.9778
  797MOL0     H 7578   0.260   8.453   0.145 -3.3696 -0.8182  4.1731
  797MOL0     H 7579   0.040   8.743   0.388 -0.4352 -0.7873 -2.7514
  797MOL0     H 7580  -0.005   8.910   0.556 -0.2782  2.4605  0.3667
  797MOL0     H 7581   0.556   9.461   1.912  0.3275 -2.6818  1.2091
  797MOL0     H 7582   0.751   9.455   2.057  0.0280 -0.1543  0.8312
  797MOL0     H 7583   0.837   9.609   2.551 -0.5207  2.1807  0.8388
  797MOL0     H 7584   0.989   9.674   2.748  1.1111  0.3356  0.5260
  797MOL0     H 7585   1.152   9.676   2.906  1.1355  1.5763  2.8499
  797MOL0     H 7586   1.248   9.574   2.800 -1.8148 -0.7650  0.9480
  797MOL0     H 7587   1.450   9.694   2.895 -0.5908 -2.5381  0.1112
  797MOL0     H 7588   1.353   9.640   3.017  2.8804 -0.6729 -2.7830
  797MOL0     H 7589   1.225   9.859   3.016 -1.3954 -3.0288 -1.5787
  797MOL0     H 7590   1.353   9.916   2.900  0.1357 -2.4603 -1.3813
  797MOL0     H 7591   1.458   9.813   3.178  0.3347  0.9546  0.8455
  797MOL0     H 7592   1.385   9.978   3.159 -0.7196  1.0840 -2.7836
  797MOL0     H 7593   1.743  10.038   2.966 -0.4802  1.3086 -0.2046
  797MOL0     H 7594   1.296   9.776   2.480  0.1332 -0.4448 -2.0430
  797MOL0     H 7595   1.144   9.701   2.287  0.2949 -1.1716  0.8184
  798MOL0     O 7596   0.795   3.611  10.713 -0.0089 -0.7931  0.0050
  798MOL0     C 7597   0.792   3.487  10.723 -0.1806 -0.6401 -0.3162
  798MOL0     O 7598   0.682   3.411  10.756  0.1556  0.5382  0.4690
  798MOL0     C 7599   0.562   3.469  10.777  0.2305 -0.0303 -0.1793
  798MOL0     C 7600   0.493   3.516  10.670 -0.3677  0.3805 -0.2508
  798MOL0     C 7601   0.375   3.582  10.690  0.0919 -0.0683  0.7645
  798MOL0     C 7602   0.326   3.610  10.817 -0.0081 -0.3330 -0.3969
  798MOL0     O 7603   0.212   3.674  10.832 -0.3744 -1.0438 -0.7556
  798MOL0     C 7604   0.190   3.751  10.959 -0.4506 -0.1146  0.8338
  798MOL0     C 7605   0.095   3.671  11.051 -0.1363  0.6336  0.0823
  798MOL0     C 7606   0.065   3.743  11.181  0.7174  0.3408  0.7303
  798MOL0     C 7607   0.176   3.728  11.288 -0.4168  0.2046 -0.1973
  798MOL0     C 7608   0.156   3.821  11.408 -0.4963 -0.7013 -0.4865
  798MOL0     C 7609   0.287   3.811  11.494  0.0962 -0.9530 -0.7254
  798MOL0     C 7610   0.279   3.887  11.620  0.5672  0.2393 -0.2652
  798MOL0     C 7611   0.276   4.040  11.609  0.3350  0.3322 -0.6760
  798MOL0     N 7612   0.405   4.086  11.650  0.6656  0.1135 -0.0754
  798MOL0     C 7613   0.456   4.060  11.776 -0.8253  0.1567  0.3146
  798MOL0     C 7614   0.569   4.138  11.773 -1.2306  0.1296 -0.6324
  798MOL0     C 7615   0.663   4.154  11.894 -0.4445 -0.8565 -0.1317
  798MOL0     C 7616   0.796   4.073  11.871  0.7620 -0.4175 -0.0859
  798MOL0     C 7617   0.905   4.177  11.832 -0.1797 -0.1451 -0.5832
  798MOL0     C 7618   1.031   4.112  11.766  0.1288 -0.5474  0.0474
  798MOL0     O 7619   1.067   4.196  11.659 -0.1341 -0.7696  0.5568
  798MOL0     C 7620   1.187   4.183  11.595 -0.2913 -0.0717  0.6444
  798MOL0     C 7621   1.230   4.289  11.515 -0.7247 -0.4428  0.1432
  798MOL0     C 7622   1.358   4.294  11.454  0.5195 -0.9360 -0.3418
  798MOL0     C 7623   1.398   4.432  11.390 -0.6790  0.0187 -0.7663
  798MOL0     C 7624   1.435   4.178  11.460  0.1604 -0.0445 -0.3168
  798MOL0     C 7625   1.569   4.158  11.401 -0.5705 -0.3881 -0.5440
  798MOL0     O 7626   1.660   4.082  11.468  0.7646  0.0987 -0.4332
  798MOL0     C 7627   1.789   4.102  11.440  0.4359  0.0710  0.7865
  798MOL0     C 7628   1.852   4.220  11.479  0.0531 -0.2190  0.6377
  798MOL0     C 7629   1.991   4.239  11.453  0.2841 -0.7363  0.5546
  798MOL0     C 7630   2.072   4.142  11.395 -0.2184  0.5702 -0.5492
  798MOL0     O 7631   2.209   4.156  11.388 -0.1249  0.2484 -0.2976
  798MOL0     C 7632   2.278   4.076  11.290  0.7510  0.2781 -0.2465
  798MOL0     C 7633   2.430   4.112  11.292  1.3003  0.8409  0.7020
  798MOL0     C 7634   2.483   4.057  11.422 -0.4156 -0.3729  0.2282
  798MOL0     C 7635   2.631   4.096  11.448 -0.3806  0.2272  0.0013
  798MOL0     C 7636   2.693   4.016  11.571  0.8005 -0.4013  0.2069
  798MOL0     C 7637   2.833   4.035  11.611 -0.3535  0.4051  0.2415
  798MOL0     C 7638   2.864   4.178  11.648  0.5622  0.1152  0.7818
  798MOL0     C 7639   3.003   4.212  11.701  0.5363  0.4955 -0.3094
  798MOL0    Cl 7640   3.091   4.256  11.548 -0.1390  0.1218 -0.2961
  798MOL0     C 7641   2.002   4.029  11.358 -0.2481 -0.0940 -0.1439
  798MOL0     C 7642   1.867   4.007  11.372  0.1194  0.0134 -0.7324
  798MOL0     O 7643   1.596   4.217  11.293 -0.0299  0.3509  0.7765
  798MOL0     C 7644   1.394   4.066  11.540 -0.0327  0.1825 -0.0246
  798MOL0     C 7645   1.274   4.075  11.610 -0.3838  0.5450  0.8846
  798MOL0     N 7646   0.587   4.199  11.653 -0.1573 -1.0444 -0.3887
  798MOL0     N 7647   0.486   4.163  11.577 -0.2103  0.2927 -0.6570
  798MOL0     C 7648   0.384   3.539  10.926  0.7306  0.2879 -0.1509
  798MOL0     C 7649   0.512   3.474  10.906  0.0963 -0.0826 -0.2783
  798MOL0     C 7650   0.921   3.412  10.715 -0.6256  0.3467 -0.4183
  798MOL0     C 7651   0.913   3.268  10.736  0.5190  0.6195  0.2439
  798MOL0     C 7652   1.030   3.189  10.735 -0.3845  0.3629  0.6593
  798MOL0     C 7653   1.152   3.253  10.721 -0.2678  0.4484 -0.5236
  798MOL0     O 7654   1.259   3.168  10.715  0.1437  0.2148 -0.2923
  798MOL0     C 7655   1.393   3.220  10.723 -0.1322 -0.0341  1.0207
  798MOL0     C 7656   1.499   3.111  10.763  0.4156 -0.7281  0.2527
  798MOL0     C 7657   1.512   3.090  10.917  0.8490  0.3185 -0.4609
  798MOL0     C 7658   1.660   3.075  10.968  0.0911 -0.6096  0.9127
  798MOL0     C 7659   1.748   3.189  10.938 -0.0332  0.4161 -1.2779
  798MOL0     C 7660   1.818   3.287  10.916  0.4745  0.3968  0.1740
  798MOL0     C 7661   1.165   3.391  10.713 -0.0913 -1.0152  1.2821
  798MOL0     C 7662   1.049   3.469  10.707 -0.3406  0.0373  0.9428
  798MOL0     H 7663   0.529   3.505  10.568  0.5396  0.3309  0.0710
  798MOL0     H 7664   0.316   3.611  10.603 -0.1109  0.5529  1.1047
  798MOL0     H 7665   0.290   3.759  11.004  1.0369 -0.8869 -2.0979
  798MOL0     H 7666   0.156   3.855  10.952 -0.2451 -0.1742 -2.7187
  798MOL0     H 7667  -0.002   3.677  11.000  1.8523  0.4344 -4.1861
  798MOL0     H 7668   0.126   3.567  11.069 -1.4153 -0.1700 -1.9919
  798MOL0     H 7669   0.040   3.847  11.160  0.7853  0.5729  1.7223
  798MOL0     H 7670  -0.023   3.707  11.234 -1.5065  2.3944 -1.3589
  798MOL0     H 7671   0.157   3.634  11.342 -0.8207  0.7432  0.6232
  798MOL0     H 7672   0.279   3.743  11.256 -0.2379 -0.2727  0.1424
  798MOL0     H 7673   0.143   3.927  11.384  1.5694 -0.0305  1.0610
  798MOL0     H 7674   0.078   3.785  11.475 -0.5100  0.7290  0.3193
  798MOL0     H 7675   0.311   3.708  11.522  0.3728 -0.1320  2.3609
  798MOL0     H 7676   0.379   3.851  11.449  1.1216  1.2127  2.8545
  798MOL0     H 7677   0.193   3.843  11.671  1.8342  1.4747  3.2466
  798MOL0     H 7678   0.373   3.864  11.671  0.5300  1.7497  0.5426
  798MOL0     H 7679   0.208   4.082  11.685  1.5833 -0.2771  0.8218
  798MOL0     H 7680   0.255   4.083  11.510  4.8954 -2.6225 -3.2808
  798MOL0     H 7681   0.421   3.997  11.858 -3.8942  2.3292  0.8631
  798MOL0     H 7682   0.678   4.258  11.925  3.7506 -1.3500  0.0965
  798MOL0     H 7683   0.624   4.117  11.989  2.7318  0.1619  1.7330
  798MOL0     H 7684   0.787   4.001  11.790 -1.1744  1.0497 -1.2665
  798MOL0     H 7685   0.817   4.025  11.967 -0.2635 -2.3084 -0.7590
  798MOL0     H 7686   0.936   4.216  11.930  1.8704 -3.5319  0.2851
  798MOL0     H 7687   0.866   4.266  11.781  0.8405  0.3075 -0.5961
  798MOL0     H 7688   1.005   4.012  11.731  0.3908 -1.3914  2.1195
  798MOL0     H 7689   1.120   4.112  11.830  2.9669  2.6008 -3.4266
  798MOL0     H 7690   1.179   4.384  11.509 -0.9661 -0.3343  2.8586
  798MOL0     H 7691   1.345   4.522  11.422 -1.0467  0.2137 -1.8864
  798MOL0     H 7692   1.503   4.445  11.417 -1.4409  5.1504  0.6996
  798MOL0     H 7693   1.378   4.415  11.284 -2.8656 -1.0117 -0.2572
  798MOL0     H 7694   1.794   4.299  11.525 -0.8348 -0.9765  0.8424
  798MOL0     H 7695   2.019   4.342  11.471  0.1867 -0.9642  2.1451
  798MOL0     H 7696   2.268   3.971  11.321  0.0050  0.9261  1.8791
  798MOL0     H 7697   2.245   4.092  11.187  0.7161 -0.4044 -0.3473
  798MOL0     H 7698   2.482   4.065  11.208  1.0397 -1.1557  1.5746
  798MOL0     H 7699   2.436   4.221  11.288  2.1516  0.7635 -1.9284
  798MOL0     H 7700   2.484   3.947  11.425  0.4372 -0.5968 -3.5980
  798MOL0     H 7701   2.436   4.096  11.513  0.2196  0.4990  0.1960
  798MOL0     H 7702   2.699   4.073  11.365 -0.3558 -0.2313  0.1413
  798MOL0     H 7703   2.645   4.203  11.464  1.8891 -0.4454  3.6679
  798MOL0     H 7704   2.688   3.910  11.543  1.5086 -0.5638  0.6769
  798MOL0     H 7705   2.625   4.029  11.656  0.3860 -1.9673  0.1391
  798MOL0     H 7706   2.855   3.959  11.686  0.1720 -3.1188 -3.1251
  798MOL0     H 7707   2.909   4.017  11.533 -0.6023 -1.6208  0.4088
  798MOL0     H 7708   2.785   4.203  11.719  1.1871  0.1401  1.4904
  798MOL0     H 7709   2.848   4.239  11.558 -2.9784  2.2931  2.6570
  798MOL0     H 7710   3.049   4.120  11.738 -3.6127 -1.0838  1.5036
  798MOL0     H 7711   2.999   4.286  11.781 -0.2193 -1.5179  1.6391
  798MOL0     H 7712   2.052   3.955  11.295  3.3168  1.9270  0.0420
  798MOL0     H 7713   1.824   3.910  11.347 -0.6488  0.1525 -0.0080
  798MOL0     H 7714   1.452   3.975  11.546  3.7594  2.3846 -0.3848
  798MOL0     H 7715   1.246   3.994  11.677  0.4535 -0.5470 -0.0501
  798MOL0     H 7716   0.344   3.543  11.027 -1.1965  0.9736 -0.8959
  798MOL0     H 7717   0.582   3.443  10.983  0.4486  1.0067 -0.1466
  798MOL0     H 7718   0.817   3.219  10.752  1.9955 -2.0405  1.6683
  798MOL0     H 7719   1.034   3.081  10.741  0.6525  0.2359 -1.4017
  798MOL0     H 7720   1.419   3.267  10.627 -1.6643 -1.4728 -0.1514
  798MOL0     H 7721   1.405   3.302  10.794  3.3800 -3.2025  4.5684
  798MOL0     H 7722   1.593   3.146  10.718  0.1040  0.4979  0.5079
  798MOL0     H 7723   1.469   3.022  10.708 -1.3943  2.1533 -3.9271
  798MOL0     H 7724   1.454   3.002  10.945 -0.5514  1.1818 -0.5819
  798MOL0     H 7725   1.470   3.173  10.974  0.2203 -0.7619  0.7012
  798MOL0     H 7726   1.713   2.990  10.926  1.6786  0.9024 -0.2534
  798MOL0     H 7727   1.666   3.069  11.078  2.2810 -1.8774  0.7823
  798MOL0     H 7728   1.883   3.370  10.896  0.5609  1.8269  4.9966
  798MOL0     H 7729   1.260   3.442  10.705 -0.7002 -0.1504 -4.3797
  798MOL0     H 7730   1.067   3.576  10.705 -0.3296  0.0431 -0.7896
  799MOL0     O 7731   3.596   7.939   3.226  0.2139 -0.4967 -0.3394
  799MOL0     C 7732   3.493   8.013   3.228 -0.5441 -0.1225 -0.3015
  799MOL0     O 7733   3.403   8.007   3.332  0.0290 -0.0461 -0.6233
  799MOL0     C 7734   3.415   7.909   3.432  0.2055  1.6047  0.8699
  799MOL0     C 7735   3.313   7.817   3.449 -0.1883  0.7036 -0.0751
  799MOL0     C 7736   3.325   7.723   3.546  0.3742 -0.0705 -1.0713
  799MOL0     C 7737   3.440   7.702   3.623 -0.6313  0.4872 -0.5858
  799MOL0     O 7738   3.424   7.606   3.712 -0.9080  0.8889  0.4974
  799MOL0     C 7739   3.528   7.575   3.815  0.1094  0.0420 -0.6937
  799MOL0     C 7740   3.645   7.496   3.760  0.4015  0.0515  1.0054
  799MOL0     C 7741   3.741   7.467   3.878 -1.2712  0.3523 -0.0981
  799MOL0     C 7742   3.688   7.359   3.984  0.0871 -0.1271 -0.7689
  799MOL0     C 7743   3.782   7.374   4.105 -0.3436 -0.0760 -1.1187
  799MOL0     C 7744   3.756   7.277   4.219  0.1354 -0.4549  1.1336
  799MOL0     C 7745   3.608   7.281   4.279 -0.7496  1.4834  0.0847
  799MOL0     C 7746   3.623   7.208   4.413 -0.0306  0.5996  0.3124
  799MOL0     N 7747   3.710   7.291   4.506 -0.2087  0.8672 -0.1541
  799MOL0     C 7748   3.660   7.410   4.558 -0.0351  0.4010  0.3530
  799MOL0     C 7749   3.756   7.454   4.642  0.4636 -0.0012  0.3064
  799MOL0     C 7750   3.761   7.579   4.722  0.7751 -0.5207 -0.4437
  799MOL0     C 7751   3.700   7.710   4.661 -0.5719  0.3541  0.8140
  799MOL0     C 7752   3.811   7.794   4.602  0.2141 -0.7692  0.3488
  799MOL0     C 7753   3.889   7.731   4.483 -0.0461  0.1001 -0.0011
  799MOL0     O 7754   3.801   7.667   4.391  0.6456  0.7407  0.2599
  799MOL0     C 7755   3.717   7.759   4.325 -0.5343  0.9597 -0.2752
  799MOL0     C 7756   3.738   7.901   4.298 -0.0636  0.2471 -0.6964
  799MOL0     C 7757   3.638   7.974   4.235  0.2830  0.4771  0.4757
  799MOL0     C 7758   3.641   8.127   4.217  0.1292  0.0550 -0.3916
  799MOL0     C 7759   3.519   7.903   4.185 -0.6910  0.3694  0.2431
  799MOL0     C 7760   3.425   7.982   4.106  0.1313  0.2526  0.1216
  799MOL0     O 7761   3.468   8.028   3.987  0.6910 -0.3007 -1.8914
  799MOL0     C 7762   3.380   8.093   3.900  0.7404  0.4075  0.1407
  799MOL0     C 7763   3.384   8.234   3.880  0.0811  0.8607 -0.2064
  799MOL0     C 7764   3.291   8.280   3.782  0.8069  0.1900  1.1164
  799MOL0     C 7765   3.206   8.199   3.708  0.4288 -0.2273  0.8591
  799MOL0     O 7766   3.117   8.257   3.622 -0.2218  0.1641 -0.3179
  799MOL0     C 7767   3.183   8.255   3.490  0.5130  0.8345 -0.3642
  799MOL0     C 7768   3.125   8.362   3.400 -0.2420 -0.0226  0.3630
  799MOL0     C 7769   3.146   8.507   3.455  0.3799 -0.2271 -0.6110
  799MOL0     C 7770   3.056   8.532   3.581 -0.0283  0.2276  0.4209
  799MOL0     C 7771   3.022   8.677   3.615  1.0777  0.3483  0.1086
  799MOL0     C 7772   3.100   8.761   3.711  0.1756  0.8824  0.0390
  799MOL0     C 7773   3.236   8.792   3.647  0.4358  0.7236 -0.5680
  799MOL0     C 7774   3.313   8.873   3.750 -0.2292 -0.1394 -1.2022
  799MOL0    Cl 7775   3.480   8.902   3.690  0.3667 -0.0574 -0.3271
  799MOL0     C 7776   3.211   8.063   3.718 -0.5673  0.0115  0.6171
  799MOL0     C 7777   3.296   8.013   3.818  0.9450  0.2919 -0.7103
  799MOL0     O 7778   3.311   7.991   4.154  0.1135 -0.3205 -0.8116
  799MOL0     C 7779   3.496   7.765   4.208 -1.0152  0.4171 -0.0465
  799MOL0     C 7780   3.593   7.699   4.283  1.3462 -0.2568 -0.2861
  799MOL0     N 7781   3.853   7.357   4.649  0.3330 -0.8207 -0.1440
  799MOL0     N 7782   3.834   7.264   4.558 -0.2410 -0.9788 -1.1202
  799MOL0     C 7783   3.534   7.808   3.622  0.2653 -0.2769  0.4718
  799MOL0     C 7784   3.514   7.909   3.529 -0.0017 -0.5673 -0.5042
  799MOL0     C 7785   3.481   8.121   3.124 -0.0204 -0.1826  0.0665
  799MOL0     C 7786   3.358   8.191   3.131 -0.8687 -0.0141  0.0094
  799MOL0     C 7787   3.332   8.285   3.035 -0.2429  0.6211  0.1449
  799MOL0     C 7788   3.418   8.314   2.930  0.4150  1.2821 -0.7771
  799MOL0     O 7789   3.405   8.398   2.824 -0.8409  0.2196  0.6660
  799MOL0     C 7790   3.312   8.355   2.724  0.0184  0.1061 -0.6555
  799MOL0     C 7791   3.314   8.463   2.625  0.1811 -0.3009  0.5157
  799MOL0     C 7792   3.448   8.472   2.549  0.2264  0.1495  0.2054
  799MOL0     C 7793   3.472   8.363   2.446 -0.3169  0.1366 -0.8183
  799MOL0     C 7794   3.355   8.339   2.355  0.0256  0.4593 -0.3037
  799MOL0     C 7795   3.261   8.311   2.285 -0.5235 -0.3764  0.5155
  799MOL0     C 7796   3.536   8.248   2.927  0.8237  0.0543  0.6209
  799MOL0     C 7797   3.573   8.151   3.021 -0.4576  0.5779 -0.0265
  799MOL0     H 7798   3.223   7.819   3.388 -0.3135 -1.8282 -0.0850
  799MOL0     H 7799   3.247   7.649   3.557  0.9124 -0.4641  0.3322
  799MOL0     H 7800   3.564   7.664   3.868 -1.5660  1.6959 -2.1849
  799MOL0     H 7801   3.487   7.515   3.896  0.9833  1.9223  1.2536
  799MOL0     H 7802   3.623   7.396   3.722  4.7220 -0.9071  0.4617
  799MOL0     H 7803   3.710   7.540   3.683  2.7973 -3.4402  0.7843
  799MOL0     H 7804   3.833   7.427   3.835 -1.2512 -0.6489  0.8532
  799MOL0     H 7805   3.767   7.560   3.930  2.2457  0.4289 -1.7041
  799MOL0     H 7806   3.584   7.369   4.015 -0.9201 -2.5756 -3.0231
  799MOL0     H 7807   3.697   7.258   3.943  1.6301  0.7290 -2.7531
  799MOL0     H 7808   3.887   7.374   4.074 -0.8624 -0.6941 -3.0639
  799MOL0     H 7809   3.772   7.469   4.158 -2.6520 -1.1590  0.5602
  799MOL0     H 7810   3.783   7.178   4.182  1.4845 -0.6646  2.5686
  799MOL0     H 7811   3.822   7.307   4.301 -1.9416 -2.7244  3.8335
  799MOL0     H 7812   3.576   7.382   4.306 -1.2981  1.1405  0.7710
  799MOL0     H 7813   3.530   7.244   4.212  0.1729  2.0792 -1.3560
  799MOL0     H 7814   3.661   7.109   4.389 -1.2413 -0.4776  2.5689
  799MOL0     H 7815   3.525   7.196   4.459  0.1240 -1.5711  0.1477
  799MOL0     H 7816   3.565   7.451   4.527 -2.8637 -5.5381 -0.0800
  799MOL0     H 7817   3.716   7.561   4.820  4.0581  0.9809  1.5247
  799MOL0     H 7818   3.868   7.598   4.737 -0.0638  1.9888  3.8374
  799MOL0     H 7819   3.657   7.759   4.749 -0.8783 -1.9313  2.0187
  799MOL0     H 7820   3.625   7.677   4.589  2.0165 -0.7234 -1.5770
  799MOL0     H 7821   3.884   7.819   4.680  0.6422  0.1349 -0.3283
  799MOL0     H 7822   3.764   7.883   4.559 -1.0427 -1.7839 -0.4420
  799MOL0     H 7823   3.961   7.656   4.518 -0.4157  0.4416  1.5686
  799MOL0     H 7824   3.949   7.810   4.437  1.2694  0.0531  1.5542
  799MOL0     H 7825   3.823   7.963   4.328  1.0499 -1.4307 -0.2466
  799MOL0     H 7826   3.727   8.180   4.258  1.2581 -2.0780  0.1559
  799MOL0     H 7827   3.635   8.155   4.111  0.1700  3.0770  0.3185
  799MOL0     H 7828   3.553   8.161   4.272 -0.4113 -0.5476 -0.8711
  799MOL0     H 7829   3.445   8.296   3.944 -1.4716  2.0080  0.2193
  799MOL0     H 7830   3.290   8.387   3.762 -3.7426  0.7495  3.0524
  799MOL0     H 7831   3.291   8.265   3.502  0.7459 -3.1529  2.6085
  799MOL0     H 7832   3.157   8.162   3.439 -0.8343 -0.6535  2.8174
  799MOL0     H 7833   3.175   8.351   3.303  0.9625  1.5293  0.7474
  799MOL0     H 7834   3.019   8.351   3.379  0.0801 -1.1330 -0.8157
  799MOL0     H 7835   3.137   8.583   3.377  0.8639  2.6600  1.9388
  799MOL0     H 7836   3.248   8.527   3.490 -0.5016  2.5615  0.7105
  799MOL0     H 7837   2.965   8.471   3.567 -0.1086  0.8870 -2.6495
  799MOL0     H 7838   3.113   8.497   3.667 -0.5419  0.4886  0.8753
  799MOL0     H 7839   2.925   8.672   3.666  0.2703 -0.6783 -1.4327
  799MOL0     H 7840   3.015   8.733   3.521  1.5038  1.3555  0.6644
  799MOL0     H 7841   3.048   8.851   3.743  0.0649  0.5741  0.7593
  799MOL0     H 7842   3.119   8.699   3.799 -0.6602 -0.5015 -0.7258
  799MOL0     H 7843   3.227   8.846   3.552  1.4186  3.3553  0.7270
  799MOL0     H 7844   3.280   8.693   3.632 -2.3192 -0.3362 -2.5326
  799MOL0     H 7845   3.302   8.822   3.846 -3.2786  2.7621  0.1953
  799MOL0     H 7846   3.261   8.968   3.765 -1.5863 -0.9637 -0.4909
  799MOL0     H 7847   3.152   8.000   3.652  0.6718 -0.4360 -0.0960
  799MOL0     H 7848   3.319   7.907   3.814 -3.2666 -0.7706 -1.4233
  799MOL0     H 7849   3.403   7.731   4.163 -1.4643  1.4444  0.0739
  799MOL0     H 7850   3.578   7.597   4.315 -0.8281  0.5939  1.7153
  799MOL0     H 7851   3.615   7.810   3.694  1.9724  0.6616 -1.3640
  799MOL0     H 7852   3.594   7.981   3.514  2.7437 -3.2292  0.1921
  799MOL0     H 7853   3.283   8.178   3.208  0.1262  3.1159  1.6765
  799MOL0     H 7854   3.232   8.327   3.027 -0.4358  0.5818  1.8055
  799MOL0     H 7855   3.350   8.265   2.677 -1.2358  0.3223 -2.1460
  799MOL0     H 7856   3.209   8.349   2.760 -0.8791  1.1361 -2.8815
  799MOL0     H 7857   3.297   8.560   2.673  0.4626  0.3271 -0.6011
  799MOL0     H 7858   3.230   8.435   2.560  1.4028 -1.5262 -0.5918
  799MOL0     H 7859   3.533   8.459   2.616  0.4135 -0.0376 -0.0696
  799MOL0     H 7860   3.458   8.573   2.508 -0.6710 -0.1656 -0.8394
  799MOL0     H 7861   3.494   8.271   2.501 -1.9950 -0.5303 -1.1961
  799MOL0     H 7862   3.558   8.398   2.389 -0.7716 -0.7162 -2.0914
  799MOL0     H 7863   3.171   8.297   2.228 -0.2016  1.2106 -0.4250
  799MOL0     H 7864   3.614   8.288   2.863  0.2806 -1.3740 -1.0107
  799MOL0     H 7865   3.668   8.100   3.025 -1.6110 -1.6157  0.5556
  800MOL0     O 7866   7.633   9.810   3.921 -0.0722  0.0028 -0.0274
  800MOL0     C 7867   7.594   9.850   4.032  0.3299 -0.4399 -0.0450
  800MOL0     O 7868   7.653   9.820   4.150 -0.5464  0.1051 -0.0644
  800MOL0     C 7869   7.763   9.738   4.148  0.9250 -0.5403 -0.8032
  800MOL0     C 7870   7.761   9.638   4.249 -0.4321 -0.5167 -0.2079
  800MOL0     C 7871   7.885   9.578   4.280  0.1070 -0.8883 -0.4654
  800MOL0     C 7872   8.003   9.608   4.208  1.1079 -0.6896  0.4676
  800MOL0     O 7873   8.128   9.572   4.244  0.5456 -0.1624  0.5429
  800MOL0     C 7874   8.165   9.503   4.359 -0.5214 -0.3256 -0.4199
  800MOL0     C 7875   8.311   9.464   4.326  0.0583 -0.3484 -0.3446
  800MOL0     C 7876   8.384   9.409   4.455  0.4999  0.2877  0.1896
  800MOL0     C 7877   8.536   9.422   4.433  0.1679  0.5987 -0.3867
  800MOL0     C 7878   8.607   9.328   4.535 -0.4246  2.0333 -0.1691
  800MOL0     C 7879   8.589   9.374   4.677 -0.3246  0.3877  0.3350
  800MOL0     C 7880   8.660   9.287   4.779 -0.3937  0.6320  0.2272
  800MOL0     C 7881   8.629   9.334   4.921 -0.5468  0.1124  0.1263
  800MOL0     N 7882   8.692   9.233   5.014 -0.1615 -0.0787  0.0008
  800MOL0     C 7883   8.821   9.244   5.059 -1.2128  0.8356 -1.0235
  800MOL0     C 7884   8.850   9.131   5.129  0.8007  0.5928  0.7627
  800MOL0     C 7885   8.975   9.097   5.205 -0.1200 -0.2854  0.5364
  800MOL0     C 7886   8.995   8.954   5.250  0.0574  0.0427  0.3845
  800MOL0     C 7887   9.011   8.847   5.137  0.1542 -1.1064  0.0423
  800MOL0     C 7888   9.152   8.848   5.079 -0.0932  0.1351  0.5055
  800MOL0     O 7889   9.236   8.788   5.175  0.3111  0.1488 -0.0416
  800MOL0     C 7890   9.366   8.763   5.136 -0.6002  0.0986  0.3647
  800MOL0     C 7891   9.453   8.709   5.232 -0.3644 -0.1959  0.2585
  800MOL0     C 7892   9.589   8.704   5.205  0.5049 -0.5375 -0.4450
  800MOL0     C 7893   9.677   8.656   5.313 -0.0222  0.2838  0.7529
  800MOL0     C 7894   9.645   8.747   5.086  1.0474 -0.5011  0.1133
  800MOL0     C 7895   9.789   8.738   5.064 -0.6019 -0.0848  0.0128
  800MOL0     O 7896   9.853   8.621   5.089 -0.3171 -0.0856 -0.2542
  800MOL0     C 7897   9.994   8.625   5.075  0.3108 -0.7977  0.1094
  800MOL0     C 7898  10.078   8.695   5.168 -0.0737  0.7895 -0.0532
  800MOL0     C 7899  10.224   8.683   5.160  0.6168  0.5142 -0.0855
  800MOL0     C 7900  10.275   8.607   5.052 -1.1809  0.5467  0.8345
  800MOL0     O 7901  10.404   8.587   5.024  1.1874  0.6653  0.5924
  800MOL0     C 7902  10.502   8.669   5.093 -0.2564 -0.2534 -0.5675
  800MOL0     C 7903  10.633   8.667   5.020  0.1542 -0.5061  0.8648
  800MOL0     C 7904  10.691   8.528   4.987 -0.1127  0.7055  0.3470
  800MOL0     C 7905  10.812   8.536   4.891 -1.0709  0.4393  0.7310
  800MOL0     C 7906  10.964   8.574   4.936  0.8231 -0.2322  0.7828
  800MOL0     C 7907  11.055   8.610   4.822 -0.9702  0.2315 -0.2597
  800MOL0     C 7908  11.190   8.542   4.829  0.9235 -0.1795 -0.2466
  800MOL0     C 7909  11.250   8.552   4.973 -0.5555 -0.5600  0.9791
  800MOL0    Cl 7910  11.241   8.720   5.022  0.2451  0.5133 -0.1409
  800MOL0     C 7911  10.191   8.532   4.968 -0.4542  0.0856  0.1370
  800MOL0     C 7912  10.055   8.548   4.976  0.6017  0.6435 -1.0030
  800MOL0     O 7913   9.849   8.832   5.018  0.4630 -0.0792 -1.1177
  800MOL0     C 7914   9.564   8.793   4.983  0.0787 -0.1602 -0.0720
  800MOL0     C 7915   9.426   8.802   5.009 -0.1271 -0.1657  0.3174
  800MOL0     N 7916   8.736   9.050   5.127  0.1616 -0.0689  0.9903
  800MOL0     N 7917   8.648   9.109   5.059 -0.1978 -0.6473 -0.1635
  800MOL0     C 7918   7.999   9.696   4.104  0.6353 -0.0253 -0.2775
  800MOL0     C 7919   7.880   9.762   4.076  0.0579 -0.0425 -0.8140
  800MOL0     C 7920   7.452   9.917   4.052 -1.2006  0.3244 -0.0239
  800MOL0     C 7921   7.412   9.944   4.178  0.5668 -0.5633  0.5062
  800MOL0     C 7922   7.287  10.009   4.201 -0.5970  0.2261  0.4599
  800MOL0     C 7923   7.216  10.060   4.090  0.2812 -0.7764 -0.9333
  800MOL0     O 7924   7.095  10.122   4.122 -0.4434  0.2826  0.1326
  800MOL0     C 7925   7.050  10.241   4.058 -0.3292 -0.1459 -0.2246
  800MOL0     C 7926   6.912  10.209   4.002 -1.0988  0.0447 -0.1336
  800MOL0     C 7927   6.841  10.320   3.934 -0.9390  0.7111  0.3532
  800MOL0     C 7928   6.727  10.289   3.839  0.0725 -0.6261  0.3680
  800MOL0     C 7929   6.771  10.202   3.730 -0.3755  0.2643 -0.3775
  800MOL0     C 7930   6.807  10.125   3.656  0.1852 -0.5997  0.7325
  800MOL0     C 7931   7.260  10.032   3.963 -1.1818 -0.0287  0.9745
  800MOL0     C 7932   7.375   9.956   3.943 -0.4296  0.2042 -0.5735
  800MOL0     H 7933   7.681   9.634   4.323 -0.3948  0.5318 -0.1003
  800MOL0     H 7934   7.887   9.509   4.364 -2.1865 -1.1808 -0.6061
  800MOL0     H 7935   8.135   9.548   4.454 -2.3657 -2.9490  0.3625
  800MOL0     H 7936   8.107   9.411   4.366 -0.9101 -0.0631 -0.1777
  800MOL0     H 7937   8.311   9.381   4.254 -1.7232 -0.9380  0.2770
  800MOL0     H 7938   8.361   9.550   4.282 -4.1444  1.3989 -2.3080
  800MOL0     H 7939   8.352   9.446   4.553  3.0581 -0.1384  1.2487
  800MOL0     H 7940   8.357   9.303   4.457 -4.0076  1.2160  2.4893
  800MOL0     H 7941   8.569   9.380   4.337  5.9511 -2.5398  2.4172
  800MOL0     H 7942   8.569   9.526   4.443 -1.4395  1.0074  1.1053
  800MOL0     H 7943   8.565   9.228   4.531  0.7385  1.5518 -1.1586
  800MOL0     H 7944   8.712   9.325   4.503 -1.2012  0.4801 -2.8731
  800MOL0     H 7945   8.633   9.473   4.693  2.8085 -0.5960 -1.3647
  800MOL0     H 7946   8.483   9.364   4.703 -1.6136  3.8077 -2.7097
  800MOL0     H 7947   8.621   9.185   4.766 -3.2533  1.4307  1.8182
  800MOL0     H 7948   8.768   9.275   4.762 -0.5119  0.7333 -0.6611
  800MOL0     H 7949   8.520   9.326   4.933 -0.5025  1.4510  1.8409
  800MOL0     H 7950   8.667   9.434   4.946  2.0078 -0.0986 -2.4717
  800MOL0     H 7951   8.889   9.327   5.041 -1.0068  0.4483 -2.1022
  800MOL0     H 7952   9.057   9.128   5.140 -0.1952 -1.2394 -0.0299
  800MOL0     H 7953   8.990   9.162   5.292  2.6800  3.8774 -2.6374
  800MOL0     H 7954   8.908   8.928   5.310  1.7676 -2.7342  1.8863
  800MOL0     H 7955   9.085   8.949   5.313  1.1570  0.9314 -1.0532
  800MOL0     H 7956   8.940   8.869   5.057 -0.4051  2.5522  1.3692
  800MOL0     H 7957   9.000   8.745   5.174  0.3370 -1.3396 -0.5330
  800MOL0     H 7958   9.195   8.948   5.064  2.1083 -0.8212  0.0052
  800MOL0     H 7959   9.157   8.793   4.985 -3.1205 -2.4174  1.6657
  800MOL0     H 7960   9.405   8.676   5.324 -0.6584 -1.4210 -0.3111
  800MOL0     H 7961   9.774   8.707   5.309  1.6474 -2.7322 -0.2527
  800MOL0     H 7962   9.642   8.685   5.412  2.0999  0.3053  1.5425
  800MOL0     H 7963   9.705   8.552   5.297  0.8636  0.4632  1.1134
  800MOL0     H 7964  10.041   8.753   5.252  3.0527 -0.5971  2.5139
  800MOL0     H 7965  10.291   8.730   5.231  2.8490  1.0948 -2.4270
  800MOL0     H 7966  10.461   8.770   5.087 -1.9549 -0.9730 -2.1597
  800MOL0     H 7967  10.520   8.641   5.197 -2.7666 -1.7278 -0.4643
  800MOL0     H 7968  10.622   8.719   4.924  1.3229 -1.3737  0.2405
  800MOL0     H 7969  10.716   8.710   5.077 -0.3331 -1.1884  2.1341
  800MOL0     H 7970  10.617   8.462   4.941  0.1167 -0.2381  1.2871
  800MOL0     H 7971  10.724   8.484   5.082 -2.6641 -0.0261  0.9879
  800MOL0     H 7972  10.823   8.442   4.837  1.6884  1.2258 -0.2559
  800MOL0     H 7973  10.767   8.617   4.833 -0.1924  2.0932  2.2508
  800MOL0     H 7974  10.986   8.479   4.986 -2.2295 -0.9933  0.8399
  800MOL0     H 7975  10.956   8.663   4.999 -0.6315  0.7981 -0.7888
  800MOL0     H 7976  11.008   8.588   4.726 -0.0586 -1.0794 -0.4264
  800MOL0     H 7977  11.066   8.719   4.811 -0.5922  0.0673 -1.8365
  800MOL0     H 7978  11.266   8.589   4.765  1.8540 -1.9848 -0.5617
  800MOL0     H 7979  11.176   8.436   4.804 -0.7828 -0.5936  2.2032
  800MOL0     H 7980  11.351   8.513   4.956 -1.8205 -3.6013 -0.1746
  800MOL0     H 7981  11.201   8.486   5.045 -2.0258  2.3897  2.8538
  800MOL0     H 7982  10.223   8.469   4.885  1.4210  1.2513 -0.1133
  800MOL0     H 7983   9.996   8.492   4.904  0.8966  0.3108 -0.9842
  800MOL0     H 7984   9.596   8.831   4.886 -0.2444  1.6095  0.4711
  800MOL0     H 7985   9.367   8.846   4.929 -0.0160 -0.3478  0.1326
  800MOL0     H 7986   8.089   9.723   4.049  2.5298  1.1028  3.0474
  800MOL0     H 7987   7.882   9.842   4.001  2.5023 -0.3035 -1.1026
  800MOL0     H 7988   7.463   9.922   4.271  1.1055 -0.4349  0.2466
  800MOL0     H 7989   7.253  10.028   4.302 -1.2617  0.1685  0.2529
  800MOL0     H 7990   7.026  10.308   4.140 -5.5372 -2.5657  0.6682
  800MOL0     H 7991   7.120  10.277   3.982  1.3348 -4.0673 -0.7922
  800MOL0     H 7992   6.843  10.181   4.082 -1.5459  0.7399 -0.2611
  800MOL0     H 7993   6.928  10.125   3.934 -4.4690 -0.3962 -0.5554
  800MOL0     H 7994   6.917  10.378   3.880  1.9290 -1.9861  1.2072
  800MOL0     H 7995   6.803  10.380   4.018 -2.5401 -0.4214  0.4824
  800MOL0     H 7996   6.701  10.387   3.798 -1.2395 -0.8815  0.5274
  800MOL0     H 7997   6.634  10.261   3.889 -0.6197 -0.0077 -0.5239
  800MOL0     H 7998   6.825  10.044   3.588 -2.4906  0.0286 -0.8871
  800MOL0     H 7999   7.201  10.073   3.882 -0.1303 -0.1049  0.1492
  800MOL0     H 8000   7.404   9.921   3.845 -0.8989 -0.1096 -0.6054
  801MOL0     O 8001   9.767   4.095   0.732 -0.2860 -0.1010  0.7349
  801MOL0     C 8002   9.763   4.207   0.783  0.4696 -0.0656 -0.2735
  801MOL0     O 8003   9.760   4.228   0.919 -0.3180  0.1329  0.3059
  801MOL0     C 8004   9.807   4.138   1.010  0.5643 -0.3076 -0.2665
  801MOL0     C 8005   9.906   4.037   0.984 -0.1100  0.5053 -1.0742
  801MOL0     C 8006   9.959   3.959   1.091  0.5106  0.6996  0.4735
  801MOL0     C 8007   9.906   3.967   1.219 -0.1149 -1.4472 -0.7032
  801MOL0     O 8008   9.969   3.903   1.325 -0.1442 -0.0753  0.4432
  801MOL0     C 8009  10.111   3.877   1.324  0.7798 -0.3917 -1.1445
  801MOL0     C 8010  10.119   3.765   1.429  0.0790  0.9081 -0.0716
  801MOL0     C 8011  10.259   3.717   1.462 -0.9875 -0.0639 -0.6753
  801MOL0     C 8012  10.265   3.602   1.558 -0.2598 -0.0372 -0.7852
  801MOL0     C 8013  10.232   3.472   1.486 -0.2672  0.5031  0.4269
  801MOL0     C 8014  10.229   3.350   1.579  0.0076 -0.1971  0.1738
  801MOL0     C 8015  10.289   3.231   1.504 -0.5051  0.1643  0.3444
  801MOL0     C 8016  10.321   3.115   1.598 -0.4683 -0.1773  0.0878
  801MOL0     N 8017  10.404   3.019   1.519 -0.4520  0.2895 -0.1455
  801MOL0     C 8018  10.540   3.016   1.529 -0.5402  0.2976  0.2799
  801MOL0     C 8019  10.578   2.913   1.454 -0.0705 -0.9668 -0.4073
  801MOL0     C 8020  10.725   2.878   1.430 -0.0718  0.3270  0.5359
  801MOL0     C 8021  10.758   2.726   1.420 -0.6377  0.5253 -0.9092
  801MOL0     C 8022  10.769   2.666   1.563 -0.2619 -0.9844  0.2804
  801MOL0     C 8023  10.625   2.626   1.606  0.2687  0.0661 -0.0913
  801MOL0     O 8024  10.615   2.644   1.752  0.2060 -0.5729 -0.3258
  801MOL0     C 8025  10.528   2.563   1.826  0.1892  0.6686 -0.0376
  801MOL0     C 8026  10.531   2.559   1.964 -0.6258 -0.3810  1.3880
  801MOL0     C 8027  10.442   2.504   2.051  0.8349  0.6259 -0.4127
  801MOL0     C 8028  10.458   2.530   2.200 -0.4021 -1.1442  0.2902
  801MOL0     C 8029  10.334   2.425   1.991 -0.0690 -0.8619 -0.1085
  801MOL0     C 8030  10.220   2.373   2.072 -0.8272  0.0593  1.2574
  801MOL0     O 8031  10.124   2.301   2.012  0.5236 -0.3448 -0.1418
  801MOL0     C 8032  10.059   2.202   2.090 -1.0370  0.0785 -0.2995
  801MOL0     C 8033  10.112   2.148   2.207 -0.6187  0.6358 -0.9310
  801MOL0     C 8034  10.039   2.080   2.302  0.2650  0.5052  0.6388
  801MOL0     C 8035   9.905   2.049   2.267 -0.1024  0.8999 -0.9151
  801MOL0     O 8036   9.838   1.979   2.366  0.0755 -0.5094 -0.4462
  801MOL0     C 8037   9.699   1.993   2.381  0.4915 -0.0006  0.3284
  801MOL0     C 8038   9.651   1.947   2.528 -0.6123  0.3667  0.1805
  801MOL0     C 8039   9.742   2.015   2.631  0.5130 -0.1130  0.1865
  801MOL0     C 8040   9.686   1.984   2.776 -0.0327  0.2779  0.6214
  801MOL0     C 8041   9.768   2.003   2.901 -0.4368 -0.8261 -0.0416
  801MOL0     C 8042   9.688   1.977   3.034  0.6604  0.1411 -0.3818
  801MOL0     C 8043   9.770   2.012   3.157 -0.9045  0.4645 -0.0394
  801MOL0     C 8044   9.709   1.972   3.291  0.4507 -0.3569  0.4922
  801MOL0    Cl 8045   9.842   2.001   3.408 -0.0343 -0.0266 -0.3017
  801MOL0     C 8046   9.852   2.092   2.148  0.3685 -0.3528 -0.3978
  801MOL0     C 8047   9.928   2.163   2.058 -0.5581 -1.1925  1.1282
  801MOL0     O 8048  10.212   2.415   2.189 -0.2554  0.8136 -0.6903
  801MOL0     C 8049  10.328   2.425   1.849  1.2240 -0.8963 -0.2852
  801MOL0     C 8050  10.419   2.497   1.771  0.4666  0.1292  0.2975
  801MOL0     N 8051  10.464   2.871   1.380 -0.6778 -0.5672 -0.3329
  801MOL0     N 8052  10.363   2.935   1.423 -0.2234 -0.3930  0.2289
  801MOL0     C 8053   9.799   4.054   1.240 -0.5426  0.4683 -0.9127
  801MOL0     C 8054   9.759   4.142   1.140  0.4815 -0.4544  0.2095
  801MOL0     C 8055   9.767   4.325   0.692  0.3207  0.2857 -0.0472
  801MOL0     C 8056   9.803   4.311   0.563  0.5197 -0.1436  0.0016
  801MOL0     C 8057   9.819   4.412   0.472 -0.2660 -0.1431  0.9030
  801MOL0     C 8058   9.801   4.544   0.514 -0.1672  0.5471  0.2279
  801MOL0     O 8059   9.798   4.661   0.432  0.1865 -0.1002  0.6558
  801MOL0     C 8060   9.910   4.676   0.336  0.8413 -0.7745 -0.2034
  801MOL0     C 8061   9.870   4.653   0.195  0.6500 -0.4921  0.0421
  801MOL0     C 8062   9.767   4.757   0.137  0.1310  0.5241 -0.2865
  801MOL0     C 8063   9.624   4.699   0.146  0.6264 -0.0352  0.6144
  801MOL0     C 8064   9.537   4.764   0.053  0.8565  0.1752 -1.4923
  801MOL0     C 8065   9.475   4.829  -0.035  0.2412 -0.1802  0.2672
  801MOL0     C 8066   9.752   4.563   0.651 -1.4638  0.7881  0.2374
  801MOL0     C 8067   9.737   4.452   0.738  0.0482 -0.2809  0.3940
  801MOL0     H 8068   9.948   4.023   0.885  1.6374 -0.2344 -0.2846
  801MOL0     H 8069  10.039   3.890   1.065 -0.9024 -0.5244 -0.8212
  801MOL0     H 8070  10.155   3.847   1.228 -1.5656 -2.3339 -1.7008
  801MOL0     H 8071  10.170   3.950   1.379  1.7652 -1.0411 -1.3111
  801MOL0     H 8072  10.083   3.809   1.522 -2.0379  1.1271 -0.9554
  801MOL0     H 8073  10.052   3.686   1.393  0.2115  0.7230  0.0811
  801MOL0     H 8074  10.324   3.706   1.375 -0.4145  2.9784 -0.7618
  801MOL0     H 8075  10.314   3.801   1.507  3.0472 -2.0972 -1.2878
  801MOL0     H 8076  10.359   3.589   1.613  0.0080  1.6333 -0.7869
  801MOL0     H 8077  10.190   3.628   1.633  0.8289  2.2784 -0.3940
  801MOL0     H 8078  10.146   3.475   1.419 -1.8125 -2.7585  2.0072
  801MOL0     H 8079  10.319   3.471   1.419  0.1046  2.4774  0.8337
  801MOL0     H 8080  10.300   3.375   1.659 -1.2942 -5.6956  3.5735
  801MOL0     H 8081  10.131   3.339   1.625 -0.1135 -2.5199 -0.5224
  801MOL0     H 8082  10.210   3.195   1.437 -0.1294  0.4730 -0.2771
  801MOL0     H 8083  10.380   3.246   1.445  1.6441  0.8514  3.5800
  801MOL0     H 8084  10.226   3.074   1.633 -1.7090 -1.5928 -4.3824
  801MOL0     H 8085  10.371   3.161   1.684  0.9526  1.3012 -1.4563
  801MOL0     H 8086  10.606   3.068   1.598  1.0846 -1.2566 -0.0314
  801MOL0     H 8087  10.761   2.910   1.331 -0.5801  0.8343  0.5084
  801MOL0     H 8088  10.788   2.915   1.510 -0.9569 -1.3955  2.1156
  801MOL0     H 8089  10.845   2.698   1.360  0.0996 -0.6737  0.6321
  801MOL0     H 8090  10.675   2.674   1.371  0.4018 -3.0626  0.7379
  801MOL0     H 8091  10.812   2.735   1.637  1.5331 -2.5879  0.8242
  801MOL0     H 8092  10.833   2.578   1.550 -0.1880 -0.6138 -2.3062
  801MOL0     H 8093  10.614   2.529   1.557  0.4424  0.1395 -0.2760
  801MOL0     H 8094  10.545   2.688   1.565 -1.1368 -0.8826  1.1033
  801MOL0     H 8095  10.611   2.625   1.998 -0.7801  1.3739 -1.3838
  801MOL0     H 8096  10.543   2.598   2.207 -0.5374 -0.9607  0.1474
  801MOL0     H 8097  10.378   2.589   2.247 -0.3463 -2.1094  1.6813
  801MOL0     H 8098  10.477   2.437   2.255  1.0155 -1.1152 -0.1132
  801MOL0     H 8099  10.212   2.170   2.241 -1.5512  1.8802  1.2670
  801MOL0     H 8100  10.062   2.058   2.405 -0.1044  0.7829  0.7809
  801MOL0     H 8101   9.668   2.098   2.383 -2.0952 -0.6655 -0.7859
  801MOL0     H 8102   9.641   1.938   2.307 -0.0857  1.0042  0.0190
  801MOL0     H 8103   9.550   1.982   2.553  0.6916  3.6788  1.3474
  801MOL0     H 8104   9.655   1.839   2.542  1.8695  0.1517 -1.4580
  801MOL0     H 8105   9.750   2.123   2.617  1.0328 -0.3142 -1.2713
  801MOL0     H 8106   9.846   1.983   2.623 -0.2689 -3.1578  0.9809
  801MOL0     H 8107   9.597   2.048   2.774 -0.7638 -0.7250  0.4346
  801MOL0     H 8108   9.647   1.883   2.790 -4.6566  2.0738  3.1714
  801MOL0     H 8109   9.808   2.103   2.887  2.9090 -2.2240 -1.4103
  801MOL0     H 8110   9.858   1.942   2.895 -0.9535 -1.4811 -2.0513
  801MOL0     H 8111   9.596   2.034   3.021  1.1766  0.3612 -5.3381
  801MOL0     H 8112   9.662   1.871   3.038 -1.4570  0.6125 -0.3960
  801MOL0     H 8113   9.791   2.119   3.162  0.6293  0.1743  4.1838
  801MOL0     H 8114   9.862   1.952   3.157 -1.4760 -0.4356 -0.6369
  801MOL0     H 8115   9.699   1.863   3.296  2.0347 -0.4679  1.7147
  801MOL0     H 8116   9.616   2.022   3.319 -0.1128 -2.2690  2.3252
  801MOL0     H 8117   9.752   2.060   2.119  0.0011 -1.7341  2.1205
  801MOL0     H 8118   9.878   2.200   1.968 -0.6918  1.9909  2.3877
  801MOL0     H 8119  10.245   2.374   1.802  0.3461  0.9093 -0.8145
  801MOL0     H 8120  10.407   2.511   1.665  4.3972 -0.7265 -0.4430
  801MOL0     H 8121   9.747   4.062   1.335 -1.7582  2.9006 -1.6789
  801MOL0     H 8122   9.671   4.201   1.164  1.3526  1.2635 -0.5815
  801MOL0     H 8123   9.822   4.204   0.552 -2.5549 -0.9363  1.1939
  801MOL0     H 8124   9.848   4.384   0.372  3.0716 -2.3283  2.2902
  801MOL0     H 8125   9.965   4.769   0.350 -0.3468 -0.0976  0.1414
  801MOL0     H 8126   9.978   4.598   0.371  0.6013 -0.8961 -0.0053
  801MOL0     H 8127   9.835   4.551   0.173  1.7929 -0.5917 -1.5765
  801MOL0     H 8128   9.957   4.672   0.131  1.0823 -0.5958  0.5893
  801MOL0     H 8129   9.783   4.783   0.032 -1.7642 -0.1695 -0.7777
  801MOL0     H 8130   9.769   4.846   0.201  0.5939 -1.7096  3.0091
  801MOL0     H 8131   9.575   4.709   0.244 -3.6073 -2.9284 -0.9088
  801MOL0     H 8132   9.615   4.593   0.121  0.3621  0.0704  0.2577
  801MOL0     H 8133   9.411   4.874  -0.108 -1.2347 -0.9971  1.0018
  801MOL0     H 8134   9.753   4.664   0.690  1.4082  1.4521 -1.2690
  801MOL0     H 8135   9.707   4.467   0.841 -0.5512  0.9382  0.0612
  802MOL0     O 8136  10.125   8.576   0.265 -0.1876 -0.5115 -0.3888
  802MOL0     C 8137  10.154   8.668   0.342  0.2149 -0.0673 -0.1771
  802MOL0     O 8138  10.266   8.748   0.327  0.1215 -1.2820  0.6230
  802MOL0     C 8139  10.326   8.736   0.205 -0.5162  0.1481 -0.5489
  802MOL0     C 8140  10.260   8.768   0.088  0.1008 -0.5138 -0.2417
  802MOL0     C 8141  10.330   8.754  -0.037 -0.3599 -0.3842  0.7865
  802MOL0     C 8142  10.456   8.690  -0.046  0.7178 -0.1233  0.1027
  802MOL0     O 8143  10.489   8.667  -0.177  0.6358 -0.0998  0.2623
  802MOL0     C 8144  10.630   8.649  -0.187 -0.0056 -0.1893  0.7303
  802MOL0     C 8145  10.676   8.669  -0.327  1.4155  0.5496  0.3637
  802MOL0     C 8146  10.635   8.559  -0.432  0.3059  0.6043  0.4995
  802MOL0     C 8147  10.667   8.595  -0.570  0.1470  0.7015 -0.1701
  802MOL0     C 8148  10.641   8.482  -0.679 -0.0723 -0.5721  0.1516
  802MOL0     C 8149  10.694   8.524  -0.820  0.3047 -0.1789 -0.2089
  802MOL0     C 8150  10.690   8.397  -0.899 -0.6411 -1.4437  0.5263
  802MOL0     C 8151  10.743   8.416  -1.035 -0.9502  0.6017  0.0251
  802MOL0     N 8152  10.893   8.435  -1.042  0.4657  0.3699 -0.2506
  802MOL0     C 8153  10.969   8.536  -0.994 -0.8288 -0.2674  0.1710
  802MOL0     C 8154  11.100   8.488  -0.994 -0.7896 -0.2593  0.6442
  802MOL0     C 8155  11.220   8.566  -0.939  0.1939  0.2595  0.2279
  802MOL0     C 8156  11.339   8.578  -1.037  0.0369  0.3753 -0.0361
  802MOL0     C 8157  11.312   8.673  -1.152  0.1054  0.2268  0.4032
  802MOL0     C 8158  11.318   8.596  -1.285 -0.7736  0.7780 -0.7083
  802MOL0     O 8159  11.444   8.612  -1.345 -0.4797 -0.2776  0.9323
  802MOL0     C 8160  11.474   8.536  -1.461 -0.2972 -0.0444  0.8886
  802MOL0     C 8161  11.610   8.536  -1.496  0.2393 -0.4845 -0.4671
  802MOL0     C 8162  11.669   8.471  -1.608 -0.3524 -1.2492  0.1963
  802MOL0     C 8163  11.827   8.485  -1.617  1.5682  0.4385  0.9868
  802MOL0     C 8164  11.592   8.386  -1.690  0.9014  0.0533 -0.3553
  802MOL0     C 8165  11.636   8.320  -1.819  0.4486  0.4839  0.1060
  802MOL0     O 8166  11.540   8.258  -1.891  0.0398  0.4902  0.4130
  802MOL0     C 8167  11.594   8.170  -1.981  0.2384 -0.0810  0.0840
  802MOL0     C 8168  11.598   8.212  -2.117  0.5578  0.0275 -0.7059
  802MOL0     C 8169  11.628   8.123  -2.222 -0.1048 -0.0963  0.4832
  802MOL0     C 8170  11.662   7.993  -2.194  0.2040 -0.0205  0.3016
  802MOL0     O 8171  11.713   7.922  -2.296 -0.7151  0.3535 -0.4980
  802MOL0     C 8172  11.628   7.901  -2.407  0.4084 -0.0146 -0.2232
  802MOL0     C 8173  11.669   7.785  -2.501  0.5138  0.3522 -0.6752
  802MOL0     C 8174  11.665   7.655  -2.415 -0.3224 -0.3628  0.7864
  802MOL0     C 8175  11.811   7.612  -2.397 -0.2751  0.2808 -0.5980
  802MOL0     C 8176  11.840   7.465  -2.353  0.6676 -0.4315 -0.9709
  802MOL0     C 8177  11.779   7.446  -2.208 -0.1060  0.3373 -0.5334
  802MOL0     C 8178  11.792   7.547  -2.093  0.4804 -0.5775 -0.4295
  802MOL0     C 8179  11.937   7.574  -2.042 -0.2074 -0.2912  0.1119
  802MOL0    Cl 8180  12.024   7.421  -2.009  0.0650  0.1399 -0.5380
  802MOL0     C 8181  11.674   7.952  -2.061  0.2946  0.4812 -0.5253
  802MOL0     C 8182  11.637   8.041  -1.958  1.1200 -0.2044 -0.8964
  802MOL0     O 8183  11.757   8.316  -1.849 -0.7354  0.8915 -0.2512
  802MOL0     C 8184  11.446   8.391  -1.654 -0.5617 -0.2758  0.2643
  802MOL0     C 8185  11.398   8.464  -1.546 -0.0622 -0.1553 -0.5067
  802MOL0     N 8186  11.097   8.357  -1.044 -0.4319  0.4160  0.0241
  802MOL0     N 8187  10.969   8.329  -1.075 -0.4094  0.4780 -0.0312
  802MOL0     C 8188  10.517   8.645   0.072  1.7527 -0.3558 -0.1521
  802MOL0     C 8189  10.452   8.668   0.199  0.2832  0.1439  0.3786
  802MOL0     C 8190  10.056   8.698   0.445  0.0304 -0.3791 -0.0248
  802MOL0     C 8191  10.083   8.796   0.541  0.1787 -0.8815 -0.3602
  802MOL0     C 8192   9.985   8.822   0.639 -0.0737  0.4555  1.0327
  802MOL0     C 8193   9.857   8.755   0.649 -0.6535  0.1355 -0.1660
  802MOL0     O 8194   9.772   8.785   0.749  0.6474  0.0928  0.6042
  802MOL0     C 8195   9.648   8.707   0.765 -0.6315  0.1019 -0.0018
  802MOL0     C 8196   9.670   8.587   0.864 -0.6483 -0.8433 -0.1449
  802MOL0     C 8197   9.732   8.643   0.988 -0.0578  0.4111  0.3847
  802MOL0     C 8198   9.725   8.556   1.121  0.4530 -0.1193  0.5177
  802MOL0     C 8199   9.800   8.604   1.232  0.4237  0.2829  0.1435
  802MOL0     C 8200   9.871   8.650   1.315 -0.0961 -0.5244 -1.0075
  802MOL0     C 8201   9.841   8.648   0.556  0.4528 -0.1156  0.3188
  802MOL0     C 8202   9.933   8.625   0.452  0.2333 -0.7793 -0.4107
  802MOL0     H 8203  10.163   8.815   0.085  1.1141  1.6884 -0.3372
  802MOL0     H 8204  10.271   8.790  -0.122 -1.1450 -2.9027  0.1648
  802MOL0     H 8205  10.689   8.726  -0.136 -0.8130  0.6596  0.4295
  802MOL0     H 8206  10.661   8.547  -0.164 -0.3748 -0.7956 -1.2718
  802MOL0     H 8207  10.643   8.761  -0.377 -2.8036  1.2142  3.7408
  802MOL0     H 8208  10.785   8.671  -0.333  1.4771  1.3881  1.4167
  802MOL0     H 8209  10.680   8.461  -0.413 -0.4394  0.1922  0.1647
  802MOL0     H 8210  10.529   8.537  -0.422 -0.2409  2.2299 -1.1281
  802MOL0     H 8211  10.614   8.682  -0.610 -1.5737 -1.1443 -2.2332
  802MOL0     H 8212  10.775   8.611  -0.563  0.3868 -0.7666 -0.0661
  802MOL0     H 8213  10.703   8.396  -0.651 -1.5526 -1.2959  1.3692
  802MOL0     H 8214  10.534   8.458  -0.682 -0.4677  0.9597  0.9244
  802MOL0     H 8215  10.643   8.611  -0.863 -1.4055 -1.0258  0.0269
  802MOL0     H 8216  10.789   8.570  -0.792 -0.2026  0.1256  1.1033
  802MOL0     H 8217  10.751   8.317  -0.856  2.1610  0.4716  0.4010
  802MOL0     H 8218  10.586   8.370  -0.919 -0.2196 -0.7053 -3.2490
  802MOL0     H 8219  10.699   8.505  -1.079 -2.7697 -0.4111 -0.2961
  802MOL0     H 8220  10.709   8.337  -1.104 -0.5828 -1.6430  2.2702
  802MOL0     H 8221  10.940   8.634  -0.958  0.1766  0.3353 -0.5862
  802MOL0     H 8222  11.182   8.668  -0.925  1.4669  0.9843 -1.2481
  802MOL0     H 8223  11.247   8.524  -0.842 -0.6937  1.3612  0.9826
  802MOL0     H 8224  11.371   8.479  -1.071 -2.2253 -0.0293 -1.1937
  802MOL0     H 8225  11.427   8.614  -0.983 -0.2056 -1.6555  1.8498
  802MOL0     H 8226  11.383   8.755  -1.161 -0.6553  0.9866  1.1504
  802MOL0     H 8227  11.206   8.698  -1.147 -0.5357 -2.1927  0.3001
  802MOL0     H 8228  11.244   8.644  -1.351 -0.4515 -0.0036 -1.6570
  802MOL0     H 8229  11.288   8.492  -1.270 -0.8515  0.9171  0.1284
  802MOL0     H 8230  11.678   8.599  -1.440 -0.2645 -1.5826  1.4588
  802MOL0     H 8231  11.881   8.395  -1.584 -0.1933 -0.3694  1.8012
  802MOL0     H 8232  11.854   8.509  -1.721 -2.9641  1.7929 -0.0691
  802MOL0     H 8233  11.860   8.567  -1.553  1.6928  0.4921  0.8535
  802MOL0     H 8234  11.562   8.313  -2.134 -0.1577 -0.3744 -1.6753
  802MOL0     H 8235  11.628   8.158  -2.324  1.7199  2.5991  1.3176
  802MOL0     H 8236  11.524   7.894  -2.374  0.3028  2.6886  0.2231
  802MOL0     H 8237  11.631   7.995  -2.462 -0.4762 -1.2102 -2.4647
  802MOL0     H 8238  11.591   7.774  -2.577  0.5010  0.1855 -0.6367
  802MOL0     H 8239  11.769   7.802  -2.543  2.3869 -3.6039  1.6049
  802MOL0     H 8240  11.603   7.579  -2.463 -0.7068 -1.6441  3.1692
  802MOL0     H 8241  11.614   7.664  -2.319 -0.8227  3.0042  0.3297
  802MOL0     H 8242  11.846   7.621  -2.501 -1.7337 -0.5190 -1.1811
  802MOL0     H 8243  11.865   7.686  -2.338 -0.1055 -0.2536 -0.0747
  802MOL0     H 8244  11.949   7.451  -2.351  0.7861  0.4831 -0.4478
  802MOL0     H 8245  11.791   7.397  -2.423 -1.3065  0.2391 -0.3079
  802MOL0     H 8246  11.670   7.437  -2.216 -0.1927  0.2338  0.6751
  802MOL0     H 8247  11.830   7.358  -2.167  0.0840 -0.0249 -1.5158
  802MOL0     H 8248  11.729   7.505  -2.015 -1.3729 -1.1396 -2.1496
  802MOL0     H 8249  11.738   7.641  -2.107 -0.1465 -0.7563  0.6587
  802MOL0     H 8250  11.953   7.648  -1.963  1.9447 -1.8879  1.2856
  802MOL0     H 8251  11.999   7.608  -2.126  1.3253 -2.3392  0.3210
  802MOL0     H 8252  11.709   7.850  -2.050  2.4066  1.1105 -1.0355
  802MOL0     H 8253  11.642   8.003  -1.856  1.2693  1.2587 -0.3452
  802MOL0     H 8254  11.371   8.340  -1.713 -2.1333 -0.3082  2.1958
  802MOL0     H 8255  11.291   8.454  -1.538  0.0946 -2.7095 -0.9583
  802MOL0     H 8256  10.608   8.586   0.073  3.7644  2.4930  2.0953
  802MOL0     H 8257  10.504   8.630   0.286  1.5042 -0.7120 -0.6816
  802MOL0     H 8258  10.171   8.859   0.552 -0.8289  0.6786 -0.8549
  802MOL0     H 8259  10.009   8.894   0.716  1.3583 -2.0485  3.0906
  802MOL0     H 8260   9.576   8.774   0.813 -0.2963  0.5368 -0.1012
  802MOL0     H 8261   9.604   8.654   0.680 -2.2801 -5.7942  3.8904
  802MOL0     H 8262   9.735   8.508   0.826 -0.5635 -2.6297  3.3474
  802MOL0     H 8263   9.571   8.553   0.893  0.1490 -3.8767 -0.6725
  802MOL0     H 8264   9.688   8.742   1.007 -4.9834 -1.2403 -0.8340
  802MOL0     H 8265   9.837   8.660   0.962 -0.0682 -0.8057 -0.5293
  802MOL0     H 8266   9.746   8.453   1.090  1.8260  0.5100 -0.7828
  802MOL0     H 8267   9.620   8.558   1.149  0.2738 -2.7482  0.2605
  802MOL0     H 8268   9.942   8.703   1.376  0.1958 -3.0125  0.9407
  802MOL0     H 8269   9.754   8.583   0.552  0.1675  0.3132 -1.3900
  802MOL0     H 8270   9.918   8.546   0.379  2.2514 -1.5195 -0.0746
  803MOL0     O 8271   9.125   3.004   1.818  0.1345  0.0948 -0.2418
  803MOL0     C 8272   9.098   2.884   1.811  1.2099  0.4526 -0.0346
  803MOL0     O 8273   8.985   2.828   1.768  0.3918 -0.1775  0.4156
  803MOL0     C 8274   8.882   2.923   1.750  0.0472  0.2014  0.6363
  803MOL0     C 8275   8.874   3.041   1.677 -0.4386  0.8476  0.0592
  803MOL0     C 8276   8.762   3.127   1.671 -0.8346  0.1523  0.3419
  803MOL0     C 8277   8.646   3.074   1.730  0.2905  0.7379 -0.6478
  803MOL0     O 8278   8.545   3.161   1.731  0.0227 -0.4735  0.2776
  803MOL0     C 8279   8.417   3.124   1.780 -0.1365  0.1425  0.1212
  803MOL0     C 8280   8.341   3.259   1.798 -1.6070 -0.8121  0.3012
  803MOL0     C 8281   8.335   3.346   1.662  0.2836  0.1918 -0.2415
  803MOL0     C 8282   8.267   3.482   1.683  0.2256  0.3645  0.3920
  803MOL0     C 8283   8.117   3.493   1.706 -0.3448 -0.7948  0.0770
  803MOL0     C 8284   8.034   3.393   1.627  0.0041  0.4792 -0.1448
  803MOL0     C 8285   7.882   3.398   1.624 -0.0157 -0.0739  0.1632
  803MOL0     C 8286   7.808   3.432   1.763 -0.6209 -0.2792  0.3688
  803MOL0     N 8287   7.662   3.428   1.756  0.2042 -0.6428 -0.3644
  803MOL0     C 8288   7.573   3.328   1.718 -0.6865  0.2869 -0.5307
  803MOL0     C 8289   7.451   3.384   1.726  0.8595 -0.7038 -1.1734
  803MOL0     C 8290   7.327   3.306   1.694 -0.1259  0.2178  0.3974
  803MOL0     C 8291   7.347   3.213   1.572  0.0906 -0.6778  0.5122
  803MOL0     C 8292   7.212   3.185   1.503 -0.5513  0.6675 -0.2571
  803MOL0     C 8293   7.132   3.065   1.558 -1.0366  0.3353 -0.8355
  803MOL0     O 8294   6.997   3.060   1.528  0.1425 -0.7092 -0.4236
  803MOL0     C 8295   6.960   3.001   1.399 -1.1165 -0.5382 -0.4363
  803MOL0     C 8296   6.890   3.076   1.311 -0.2768 -0.1079  0.5573
  803MOL0     C 8297   6.860   3.027   1.178 -0.1459 -0.9976 -0.4920
  803MOL0     C 8298   6.787   3.123   1.090  0.3924  1.4168  0.0317
  803MOL0     C 8299   6.901   2.900   1.137  1.4375  0.4568  0.0895
  803MOL0     C 8300   6.866   2.840   1.003 -0.1657 -0.7278  0.2297
  803MOL0     O 8301   6.952   2.740   0.961 -0.3326 -0.8851  0.2615
  803MOL0     C 8302   6.973   2.727   0.825 -0.1394 -0.2808 -0.5619
  803MOL0     C 8303   6.946   2.811   0.712  1.1081  0.2730  0.6677
  803MOL0     C 8304   7.000   2.789   0.586  0.3943 -0.0333 -0.3240
  803MOL0     C 8305   7.095   2.681   0.565  0.5751 -0.2778  0.3460
  803MOL0     O 8306   7.155   2.682   0.443 -0.5914  0.2724  0.1290
  803MOL0     C 8307   7.157   2.567   0.367  0.5942  0.9774 -0.8763
  803MOL0     C 8308   7.202   2.600   0.225 -0.5711 -0.2358  0.3568
  803MOL0     C 8309   7.324   2.698   0.213  0.2784 -0.4123  0.1012
  803MOL0     C 8310   7.368   2.711   0.065 -0.0939 -0.2378  0.8300
  803MOL0     C 8311   7.499   2.785   0.052  0.7201 -0.3595  0.4221
  803MOL0     C 8312   7.522   2.834  -0.086  0.2253  0.1626  0.0301
  803MOL0     C 8313   7.658   2.900  -0.096  0.4928  0.2835  0.4580
  803MOL0     C 8314   7.707   2.930  -0.234 -0.6550 -0.0113  0.6437
  803MOL0    Cl 8315   7.636   3.082  -0.295 -0.0764  0.7413 -0.1398
  803MOL0     C 8316   7.115   2.595   0.673  0.3149 -0.3767 -0.0609
  803MOL0     C 8317   7.062   2.630   0.797 -0.9738  0.5462 -0.0930
  803MOL0     O 8318   6.771   2.872   0.938  0.4535 -1.1171 -0.7447
  803MOL0     C 8319   6.981   2.825   1.229 -0.7336  0.2373  1.1645
  803MOL0     C 8320   7.006   2.879   1.353  0.3347  0.9285 -0.0296
  803MOL0     N 8321   7.463   3.515   1.762 -0.3300 -0.2448 -0.4951
  803MOL0     N 8322   7.587   3.540   1.772  0.4040  0.2472 -0.3712
  803MOL0     C 8323   8.643   2.948   1.788  0.2929  0.2404  0.2308
  803MOL0     C 8324   8.761   2.879   1.809 -0.0232  0.6787  0.2473
  803MOL0     C 8325   9.212   2.788   1.834  0.1292  0.3133 -0.9829
  803MOL0     C 8326   9.199   2.646   1.821 -0.0057  0.5738  0.2305
  803MOL0     C 8327   9.293   2.550   1.870 -0.5396 -0.4137  0.8733
  803MOL0     C 8328   9.412   2.598   1.933  0.5245 -0.4290  0.4008
  803MOL0     O 8329   9.513   2.533   1.989 -0.0253 -0.3195  0.1440
  803MOL0     C 8330   9.512   2.387   1.988 -0.2195  0.8806 -0.2372
  803MOL0     C 8331   9.558   2.320   1.858  0.4445  1.1669 -0.6522
  803MOL0     C 8332   9.679   2.409   1.800 -0.8555  0.7827 -0.0575
  803MOL0     C 8333   9.737   2.359   1.665  0.0916 -0.4370  0.8247
  803MOL0     C 8334   9.638   2.333   1.560 -1.3115 -0.1264  0.4721
  803MOL0     C 8335   9.573   2.316   1.461  0.5863 -0.0628  0.4179
  803MOL0     C 8336   9.419   2.738   1.946  1.0924  1.0704  0.4600
  803MOL0     C 8337   9.332   2.832   1.901 -0.4452 -0.0641 -0.2209
  803MOL0     H 8338   8.966   3.069   1.626 -0.3143 -0.6620 -0.6087
  803MOL0     H 8339   8.753   3.218   1.612 -1.9113 -0.2721 -0.1859
  803MOL0     H 8340   8.367   3.068   1.700  1.3945  0.1783 -0.9059
  803MOL0     H 8341   8.417   3.066   1.873  0.7044 -0.7999 -0.4473
  803MOL0     H 8342   8.237   3.246   1.830 -1.9437  2.1065  0.7157
  803MOL0     H 8343   8.406   3.316   1.864 -0.7451  0.8146 -1.8361
  803MOL0     H 8344   8.431   3.382   1.625  1.3545  1.2816  3.1701
  803MOL0     H 8345   8.273   3.296   1.588  0.1573  0.8602 -0.5983
  803MOL0     H 8346   8.316   3.551   1.752 -0.8990  1.6546 -0.0501
  803MOL0     H 8347   8.275   3.542   1.591  0.6149  0.5773  0.5621
  803MOL0     H 8348   8.096   3.471   1.811 -0.9153 -1.2968 -0.1387
  803MOL0     H 8349   8.085   3.593   1.676  1.0638 -1.1809 -3.2418
  803MOL0     H 8350   8.084   3.405   1.531  3.1961  1.3381  1.4543
  803MOL0     H 8351   8.060   3.292   1.661  3.5040  1.8766  1.9624
  803MOL0     H 8352   7.854   3.477   1.553 -0.2434 -0.3673 -0.0736
  803MOL0     H 8353   7.851   3.300   1.588 -0.0702  0.7171 -2.0963
  803MOL0     H 8354   7.833   3.535   1.790 -3.2808  0.9548 -1.5257
  803MOL0     H 8355   7.842   3.366   1.844 -2.3337  1.3338  2.5449
  803MOL0     H 8356   7.594   3.226   1.687  2.5197  1.6589 -3.6800
  803MOL0     H 8357   7.316   3.256   1.790  2.3314  0.2525  0.7537
  803MOL0     H 8358   7.249   3.380   1.673 -2.0786 -1.4998  1.2777
  803MOL0     H 8359   7.410   3.130   1.607  1.3680 -1.0277 -2.3226
  803MOL0     H 8360   7.414   3.260   1.500 -0.8248  1.7419  1.1466
  803MOL0     H 8361   7.244   3.151   1.405  0.3170  0.2511  0.1553
  803MOL0     H 8362   7.150   3.274   1.497 -0.9532  0.7714  3.2409
  803MOL0     H 8363   7.134   3.079   1.666 -1.4854 -0.0353 -0.7800
  803MOL0     H 8364   7.186   2.971   1.547  0.4514  1.2104 -1.2942
  803MOL0     H 8365   6.868   3.174   1.352 -1.1607  0.2392 -0.7178
  803MOL0     H 8366   6.842   3.129   0.996 -0.6116 -1.8083 -0.8881
  803MOL0     H 8367   6.683   3.091   1.078  0.9733 -0.2879 -0.6551
  803MOL0     H 8368   6.763   3.221   1.132 -1.0843  1.9170 -1.8045
  803MOL0     H 8369   6.869   2.886   0.730 -0.1420 -1.1714  1.5473
  803MOL0     H 8370   6.980   2.858   0.504  2.4648  0.8789 -0.1086
  803MOL0     H 8371   7.236   2.506   0.412 -0.9888 -0.7174 -0.3040
  803MOL0     H 8372   7.065   2.508   0.370  1.2832 -0.1746 -1.4248
  803MOL0     H 8373   7.234   2.501   0.189  0.1939 -0.6825  2.1564
  803MOL0     H 8374   7.121   2.633   0.160  0.4278  5.2278  1.3914
  803MOL0     H 8375   7.404   2.651   0.272  0.1463  0.1902  0.7618
  803MOL0     H 8376   7.311   2.801   0.248  1.1506 -0.8795  1.9723
  803MOL0     H 8377   7.367   2.610   0.023 -0.4468 -1.2653  3.1658
  803MOL0     H 8378   7.299   2.771   0.005  3.1664  2.5422 -0.5143
  803MOL0     H 8379   7.585   2.722   0.078  0.8832  0.1925  1.2386
  803MOL0     H 8380   7.503   2.876   0.113 -0.9828 -1.1199  1.7744
  803MOL0     H 8381   7.514   2.745  -0.149 -0.1546 -2.1710  3.1332
  803MOL0     H 8382   7.449   2.902  -0.131 -1.2034 -1.8974 -0.9546
  803MOL0     H 8383   7.725   2.829  -0.047  2.6452  2.1153  0.3463
  803MOL0     H 8384   7.659   2.990  -0.034  2.4442  2.7744 -2.8236
  803MOL0     H 8385   7.708   2.852  -0.311  0.2830 -0.8053  1.4300
  803MOL0     H 8386   7.812   2.951  -0.213 -0.5840  2.4912 -1.7844
  803MOL0     H 8387   7.199   2.527   0.668  1.8706  1.5434 -2.7063
  803MOL0     H 8388   7.080   2.558   0.876  1.7869 -0.2749 -1.3694
  803MOL0     H 8389   7.026   2.732   1.195 -0.8163  1.1510 -1.7801
  803MOL0     H 8390   7.063   2.811   1.416  0.2433 -0.3983 -1.3213
  803MOL0     H 8391   8.548   2.911   1.824 -0.6690 -0.6454 -2.8402
  803MOL0     H 8392   8.758   2.779   1.850  3.1231 -0.2309 -1.4862
  803MOL0     H 8393   9.106   2.597   1.791 -0.2798  1.4907 -0.4672
  803MOL0     H 8394   9.284   2.442   1.865  2.5323 -0.7463  0.5389
  803MOL0     H 8395   9.566   2.358   2.079 -1.7617  2.8197  1.4220
  803MOL0     H 8396   9.409   2.357   2.013 -0.9335 -0.0029 -3.7980
  803MOL0     H 8397   9.478   2.298   1.786 -0.3219  0.4615  0.3916
  803MOL0     H 8398   9.602   2.224   1.885  1.3296  1.8964  0.5906
  803MOL0     H 8399   9.767   2.413   1.865 -0.5465  0.0615 -0.4189
  803MOL0     H 8400   9.650   2.512   1.778 -1.2428  0.3515 -1.6901
  803MOL0     H 8401   9.805   2.277   1.693  2.5579  1.9298  2.2421
  803MOL0     H 8402   9.796   2.442   1.624  0.6850 -0.2699  1.9839
  803MOL0     H 8403   9.524   2.312   1.365  1.5450  1.4063 -0.1759
  803MOL0     H 8404   9.505   2.778   1.999  0.7479  2.1054  0.2608
  803MOL0     H 8405   9.339   2.940   1.908  2.4623 -0.1199 -1.0898
  804MOL0     O 8406   4.203   3.375   0.723  0.1433  0.4892  0.7525
  804MOL0     C 8407   4.316   3.409   0.726 -0.5097  0.1537  0.4227
  804MOL0     O 8408   4.423   3.330   0.712  0.2040  0.7972 -0.4495
  804MOL0     C 8409   4.406   3.192   0.727  0.3228  0.7595 -0.7321
  804MOL0     C 8410   4.465   3.108   0.630  1.0735  0.7437  0.0437
  804MOL0     C 8411   4.445   2.969   0.635  0.0269 -0.2146 -0.3077
  804MOL0     C 8412   4.358   2.917   0.728 -0.2447 -0.0753  0.9030
  804MOL0     O 8413   4.357   2.776   0.729 -0.0021  0.1966  0.5626
  804MOL0     C 8414   4.235   2.721   0.780 -1.0333 -0.5351  1.2272
  804MOL0     C 8415   4.243   2.566   0.742  0.7206 -0.0498 -0.6270
  804MOL0     C 8416   4.128   2.497   0.811 -0.2422  0.0136 -0.6104
  804MOL0     C 8417   4.150   2.354   0.863 -0.3727 -0.7974 -0.1726
  804MOL0     C 8418   4.238   2.272   0.769  0.0617 -0.0205  0.2153
  804MOL0     C 8419   4.154   2.214   0.655 -0.3161 -0.5728 -0.7966
  804MOL0     C 8420   4.232   2.190   0.519 -0.4542 -0.8158 -0.9364
  804MOL0     C 8421   4.127   2.166   0.407  0.6699  0.4986  0.4720
  804MOL0     N 8422   4.174   2.158   0.265  0.1266  0.3416  0.7708
  804MOL0     C 8423   4.187   2.047   0.185  0.2826  0.2511  0.7245
  804MOL0     C 8424   4.214   2.082   0.060  0.6246 -1.1859 -0.0093
  804MOL0     C 8425   4.242   1.998  -0.063 -0.0856  0.5935  0.4255
  804MOL0     C 8426   4.164   1.871  -0.068 -0.6590 -0.7763  0.5322
  804MOL0     C 8427   4.215   1.779  -0.181 -0.1445 -0.1986  0.7210
  804MOL0     C 8428   4.342   1.696  -0.144  1.1263  0.4581 -0.7821
  804MOL0     O 8429   4.460   1.769  -0.144 -0.1215  0.4474  1.0078
  804MOL0     C 8430   4.552   1.779  -0.253  0.2274 -0.3552  0.1192
  804MOL0     C 8431   4.633   1.896  -0.253  0.1147 -0.4404  0.2238
  804MOL0     C 8432   4.724   1.931  -0.353 -0.4546  0.1548  0.1006
  804MOL0     C 8433   4.805   2.058  -0.339  0.7365  1.3582 -0.1691
  804MOL0     C 8434   4.739   1.832  -0.461 -0.5548  0.0791  0.2452
  804MOL0     C 8435   4.826   1.850  -0.576  0.0965  0.7442  0.2653
  804MOL0     O 8436   4.960   1.873  -0.553  0.7729 -0.3163  0.7528
  804MOL0     C 8437   5.038   1.904  -0.669 -0.4241  0.6247 -0.4016
  804MOL0     C 8438   5.123   2.007  -0.650 -0.5205 -0.0550  0.7375
  804MOL0     C 8439   5.205   2.048  -0.751 -1.2198  0.1615 -0.3221
  804MOL0     C 8440   5.215   1.971  -0.868  1.1714 -0.5956  0.1308
  804MOL0     O 8441   5.295   2.023  -0.968 -0.2308 -0.1637  0.0647
  804MOL0     C 8442   5.251   1.989  -1.106  0.4985 -0.3417 -0.7727
  804MOL0     C 8443   5.278   2.108  -1.199 -0.5912 -0.2777  0.2095
  804MOL0     C 8444   5.233   2.256  -1.156 -0.1213  0.0892 -0.2217
  804MOL0     C 8445   5.092   2.288  -1.207  0.0746 -0.5556  0.9919
  804MOL0     C 8446   5.031   2.419  -1.185  0.9880  0.5015  0.6750
  804MOL0     C 8447   5.055   2.474  -1.049  0.5328  0.0693  0.2529
  804MOL0     C 8448   4.988   2.388  -0.940  0.0843 -0.5824  0.7760
  804MOL0     C 8449   5.062   2.416  -0.813 -0.3724 -0.3082 -0.2907
  804MOL0    Cl 8450   4.964   2.379  -0.671 -0.0676 -0.3032 -0.0167
  804MOL0     C 8451   5.132   1.859  -0.886 -0.9661  0.9695  0.5557
  804MOL0     C 8452   5.053   1.817  -0.782  0.1956 -0.3339  0.0110
  804MOL0     O 8453   4.781   1.837  -0.689 -0.6738  0.7627  0.0347
  804MOL0     C 8454   4.669   1.709  -0.455 -0.2637  0.6841 -0.2997
  804MOL0     C 8455   4.566   1.689  -0.361 -0.3555 -0.3694  0.9438
  804MOL0     N 8456   4.207   2.217   0.054  0.2671  0.2791 -0.9639
  804MOL0     N 8457   4.197   2.266   0.181 -1.0117  0.2799 -1.3411
  804MOL0     C 8458   4.311   2.999   0.828  0.5738  0.0728  0.7285
  804MOL0     C 8459   4.340   3.134   0.833  0.3223 -0.3921 -0.8417
  804MOL0     C 8460   4.352   3.551   0.735 -1.1354 -0.9591  0.3637
  804MOL0     C 8461   4.272   3.641   0.804  0.9076 -0.3800  0.2974
  804MOL0     C 8462   4.303   3.773   0.802  0.8794 -0.2253 -0.6624
  804MOL0     C 8463   4.423   3.821   0.745  0.7453  0.2829 -0.2197
  804MOL0     O 8464   4.456   3.953   0.750 -0.1923  0.7542  0.0257
  804MOL0     C 8465   4.378   4.035   0.664 -0.6982  0.8188  0.1267
  804MOL0     C 8466   4.434   4.176   0.668 -1.0016 -0.7831  0.6241
  804MOL0     C 8467   4.573   4.181   0.590  0.6000  0.3724  0.4010
  804MOL0     C 8468   4.623   4.319   0.583  0.6351 -0.3014  0.0705
  804MOL0     C 8469   4.755   4.326   0.530 -0.5214  0.3651  0.3823
  804MOL0     C 8470   4.867   4.330   0.487 -0.0197  0.4595 -0.0139
  804MOL0     C 8471   4.512   3.729   0.688  0.1689  0.4990 -0.8391
  804MOL0     C 8472   4.481   3.597   0.676 -0.6399 -0.0864  0.0601
  804MOL0     H 8473   4.526   3.149   0.550  0.5649 -0.3599 -0.9414
  804MOL0     H 8474   4.487   2.907   0.557 -1.3165  0.8252 -1.9422
  804MOL0     H 8475   4.229   2.728   0.889 -2.3767 -2.7715  1.3552
  804MOL0     H 8476   4.146   2.763   0.731  1.0288  1.4150 -1.1307
  804MOL0     H 8477   4.242   2.552   0.633  1.3861 -0.5157 -0.5824
  804MOL0     H 8478   4.343   2.529   0.766  0.6552  0.2415  0.1117
  804MOL0     H 8479   4.088   2.555   0.895  1.0336 -1.1355  0.8556
  804MOL0     H 8480   4.047   2.495   0.738 -1.2126 -0.2814  0.4317
  804MOL0     H 8481   4.200   2.362   0.960 -1.2146  2.5134  0.1069
  804MOL0     H 8482   4.053   2.310   0.886 -0.9632  1.4668  2.2379
  804MOL0     H 8483   4.338   2.305   0.740  1.4560 -3.9590 -0.1674
  804MOL0     H 8484   4.273   2.188   0.830 -0.8757  0.4550  1.4310
  804MOL0     H 8485   4.119   2.116   0.685  2.4559 -1.7614 -1.0914
  804MOL0     H 8486   4.064   2.273   0.640 -1.0473 -1.1255  1.1803
  804MOL0     H 8487   4.293   2.275   0.490  1.3917 -1.7899 -0.0567
  804MOL0     H 8488   4.299   2.104   0.531  0.7745  0.2912  0.5804
  804MOL0     H 8489   4.056   2.249   0.412  2.6033  2.1428  2.8825
  804MOL0     H 8490   4.079   2.071   0.427 -0.7731  0.1141 -3.7297
  804MOL0     H 8491   4.189   1.942   0.213  0.7347 -0.2692 -1.1042
  804MOL0     H 8492   4.225   2.049  -0.158 -0.9341 -0.4738 -0.0129
  804MOL0     H 8493   4.345   1.969  -0.042 -1.3084 -2.9400  2.2837
  804MOL0     H 8494   4.058   1.886  -0.087  0.2608  2.2112 -3.8117
  804MOL0     H 8495   4.185   1.817   0.025 -1.0777 -0.3570  0.8735
  804MOL0     H 8496   4.236   1.833  -0.273  0.3945  1.9400  2.0223
  804MOL0     H 8497   4.130   1.711  -0.198  0.5211 -1.2622  1.5118
  804MOL0     H 8498   4.355   1.608  -0.208 -1.7792 -0.1629 -0.6481
  804MOL0     H 8499   4.335   1.659  -0.041  2.0488 -1.8064 -1.4661
  804MOL0     H 8500   4.619   1.974  -0.178 -0.8120 -2.8330  2.7095
  804MOL0     H 8501   4.874   2.037  -0.257  0.3985 -1.1740 -0.4584
  804MOL0     H 8502   4.854   2.086  -0.432 -0.2571  0.2340 -1.0613
  804MOL0     H 8503   4.753   2.150  -0.312  0.8644  1.2838  0.3481
  804MOL0     H 8504   5.125   2.062  -0.556  1.9423  0.9045  0.2132
  804MOL0     H 8505   5.264   2.139  -0.740 -0.9666 -0.0254 -0.0915
  804MOL0     H 8506   5.303   1.897  -1.133 -0.8248 -0.8291 -1.7843
  804MOL0     H 8507   5.144   1.970  -1.122  0.5090 -0.0714 -1.2064
  804MOL0     H 8508   5.385   2.101  -1.223 -1.3011 -0.6472 -3.3567
  804MOL0     H 8509   5.245   2.086  -1.301  0.1765  1.2656 -0.4055
  804MOL0     H 8510   5.295   2.334  -1.202 -3.3208  1.7614 -2.0459
  804MOL0     H 8511   5.244   2.274  -1.048 -0.8342  0.6306 -0.2343
  804MOL0     H 8512   5.079   2.256  -1.311  0.0868 -1.0533  1.1436
  804MOL0     H 8513   5.031   2.218  -1.149 -0.0874 -3.2165 -2.1073
  804MOL0     H 8514   4.923   2.411  -1.199  0.8390 -0.9848  2.2756
  804MOL0     H 8515   5.074   2.486  -1.260 -0.5397  1.0860  0.2930
  804MOL0     H 8516   5.163   2.479  -1.030  0.8546 -1.3282 -0.9800
  804MOL0     H 8517   5.025   2.579  -1.042  2.8621  0.7502  0.9221
  804MOL0     H 8518   4.997   2.280  -0.951  0.5262 -0.3105 -2.7729
  804MOL0     H 8519   4.883   2.413  -0.924 -0.0911 -0.3112 -0.6486
  804MOL0     H 8520   5.085   2.521  -0.797 -0.3227 -0.1758 -1.1967
  804MOL0     H 8521   5.157   2.362  -0.819  0.8351  1.8726 -2.3667
  804MOL0     H 8522   5.123   1.817  -0.985  0.6958  4.1745 -1.1274
  804MOL0     H 8523   4.995   1.726  -0.788  2.2143 -2.0618  3.7227
  804MOL0     H 8524   4.692   1.632  -0.528 -0.3594  0.5041 -0.1431
  804MOL0     H 8525   4.515   1.594  -0.373 -0.6484  0.1650 -3.3410
  804MOL0     H 8526   4.271   2.962   0.922  5.2050 -2.6544  1.9415
  804MOL0     H 8527   4.305   3.186   0.921  1.1091  0.3709 -0.9714
  804MOL0     H 8528   4.184   3.604   0.856  0.4811  0.9996  0.5897
  804MOL0     H 8529   4.222   3.835   0.840  0.6979  1.6625 -3.7694
  804MOL0     H 8530   4.366   4.001   0.561 -0.4631  0.4331  0.2239
  804MOL0     H 8531   4.277   4.037   0.705 -2.1532  1.6146 -3.1264
  804MOL0     H 8532   4.457   4.194   0.774  2.0270 -1.0508  0.1201
  804MOL0     H 8533   4.369   4.245   0.614  0.0043 -0.3830 -0.1007
  804MOL0     H 8534   4.561   4.142   0.488  0.4812 -0.6155  0.7810
  804MOL0     H 8535   4.647   4.125   0.647  0.4638  0.5172  0.7189
  804MOL0     H 8536   4.622   4.374   0.677 -3.0992  2.5513 -1.4064
  804MOL0     H 8537   4.568   4.364   0.499 -1.8374 -1.1351  1.1508
  804MOL0     H 8538   4.968   4.350   0.457  0.5704  1.0478  2.1533
  804MOL0     H 8539   4.615   3.759   0.674  0.2017  4.3868  4.4393
  804MOL0     H 8540   4.554   3.525   0.641  0.3361  0.5136  0.7845
  805MOL0     O 8541  10.450   3.722   2.908  0.6783 -0.1337  0.1349
  805MOL0     C 8542  10.398   3.621   2.930 -0.7627  1.0035 -0.2564
  805MOL0     O 8543  10.430   3.538   3.034  0.4186 -0.3056 -0.5121
  805MOL0     C 8544  10.544   3.577   3.101 -0.1135  0.2110  0.0251
  805MOL0     C 8545  10.539   3.601   3.242 -0.1133 -0.3956  0.8044
  805MOL0     C 8546  10.659   3.611   3.313  0.2941 -0.8073 -0.5773
  805MOL0     C 8547  10.786   3.594   3.252 -0.0400  0.4508  0.0396
  805MOL0     O 8548  10.908   3.590   3.321  0.2528  0.1961  0.1551
  805MOL0     C 8549  10.928   3.631   3.453  0.0914  0.3311  0.1257
  805MOL0     C 8550  11.043   3.549   3.534 -0.5813  0.1490  0.2710
  805MOL0     C 8551  11.052   3.608   3.670  0.7120 -0.1322  0.1556
  805MOL0     C 8552  11.112   3.529   3.781 -0.1186 -0.2206  0.2412
  805MOL0     C 8553  11.130   3.604   3.916 -0.1361  0.3703  0.9523
  805MOL0     C 8554  10.996   3.652   3.985  0.1529  0.1919 -0.1931
  805MOL0     C 8555  10.996   3.767   4.082 -0.5274  0.3588 -0.2118
  805MOL0     C 8556  11.019   3.894   4.016  0.1969  0.2435  0.4504
  805MOL0     N 8557  10.986   3.993   4.113 -0.5576 -0.0952 -0.5034
  805MOL0     C 8558  11.061   4.035   4.221  1.0849  0.4841  0.8256
  805MOL0     C 8559  10.985   4.123   4.286  0.9184 -0.3747 -0.5177
  805MOL0     C 8560  11.028   4.209   4.403 -0.2752  0.1900 -0.6209
  805MOL0     C 8561  11.115   4.324   4.354 -0.4902 -0.3058 -0.1670
  805MOL0     C 8562  11.046   4.412   4.250 -0.9414 -0.3364  0.1626
  805MOL0     C 8563  11.137   4.542   4.233  1.1876  0.4491 -0.1487
  805MOL0     O 8564  11.270   4.504   4.193 -0.7889  0.4006  0.7558
  805MOL0     C 8565  11.305   4.473   4.060 -0.0332 -0.1384 -0.2243
  805MOL0     C 8566  11.444   4.450   4.031 -0.1947  0.4091 -0.2584
  805MOL0     C 8567  11.487   4.421   3.901  0.7622 -0.6867  0.1058
  805MOL0     C 8568  11.635   4.415   3.879 -0.4092 -0.1486  0.4059
  805MOL0     C 8569  11.392   4.407   3.796  0.0483  0.7535 -0.4590
  805MOL0     C 8570  11.426   4.365   3.652  0.5696 -0.4537 -0.2958
  805MOL0     O 8571  11.556   4.336   3.618 -0.1274  0.5689  0.2779
  805MOL0     C 8572  11.590   4.339   3.481 -0.3158 -0.2991  0.0916
  805MOL0     C 8573  11.663   4.227   3.427 -0.0994 -0.1673 -1.0036
  805MOL0     C 8574  11.687   4.211   3.292  0.0143  0.5672 -0.2639
  805MOL0     C 8575  11.649   4.317   3.204  0.2758  0.3653 -0.4987
  805MOL0     O 8576  11.682   4.290   3.072 -0.2299  0.0586 -0.4837
  805MOL0     C 8577  11.607   4.347   2.969  0.4006 -0.5230 -0.1084
  805MOL0     C 8578  11.625   4.255   2.840 -0.0266 -0.0583 -0.7152
  805MOL0     C 8579  11.571   4.122   2.856 -0.3310  0.2253 -0.2743
  805MOL0     C 8580  11.590   4.051   2.730  0.6728 -0.7040  0.0268
  805MOL0     C 8581  11.532   3.907   2.737  0.8114  0.0469  0.5814
  805MOL0     C 8582  11.383   3.881   2.708  0.5679 -0.3480 -0.6283
  805MOL0     C 8583  11.337   3.746   2.769  0.8799  0.4677 -0.6606
  805MOL0     C 8584  11.199   3.709   2.716 -0.5660 -0.1702 -0.4935
  805MOL0    Cl 8585  11.138   3.560   2.791  0.4966  0.6971 -0.1925
  805MOL0     C 8586  11.585   4.434   3.254  0.3006 -0.2525  0.2198
  805MOL0     C 8587  11.547   4.436   3.389 -0.6399  0.2500  0.1392
  805MOL0     O 8588  11.335   4.367   3.575 -0.1545 -0.2945  0.1822
  805MOL0     C 8589  11.254   4.425   3.830 -0.1902 -1.5860 -0.7746
  805MOL0     C 8590  11.219   4.455   3.953  0.3816 -0.9129 -0.4185
  805MOL0     N 8591  10.872   4.140   4.212  0.4091 -1.0654 -0.3979
  805MOL0     N 8592  10.874   4.077   4.099 -0.8670  0.6915 -0.3590
  805MOL0     C 8593  10.785   3.567   3.116  0.0214  0.7183 -0.1586
  805MOL0     C 8594  10.669   3.557   3.045  0.4515 -0.8661  0.7048
  805MOL0     C 8595  10.276   3.599   2.850  0.5389 -0.1690  0.3590
  805MOL0     C 8596  10.238   3.677   2.731 -0.1675 -0.8702  0.0701
  805MOL0     C 8597  10.130   3.644   2.660  1.3603 -0.7432  0.0038
  805MOL0     C 8598  10.041   3.541   2.697  0.2875 -0.8340  0.3020
  805MOL0     O 8599   9.927   3.512   2.625  0.0275  0.2014  0.5340
  805MOL0     C 8600   9.917   3.552   2.487 -0.1012  0.5717  0.7652
  805MOL0     C 8601   9.783   3.501   2.417  0.7209 -0.4821 -0.4724
  805MOL0     C 8602   9.780   3.489   2.273 -0.1495 -0.1206 -0.1331
  805MOL0     C 8603   9.805   3.614   2.191 -0.4864 -0.9111  0.4812
  805MOL0     C 8604   9.701   3.724   2.189  0.1899  0.8571 -0.4662
  805MOL0     C 8605   9.619   3.816   2.189 -0.4865  0.4182  0.3810
  805MOL0     C 8606  10.078   3.460   2.808 -0.6428  0.1406 -0.1699
  805MOL0     C 8607  10.190   3.488   2.892 -0.1030 -0.4675  0.0833
  805MOL0     H 8608  10.443   3.625   3.287 -0.0156  2.1684 -0.1747
  805MOL0     H 8609  10.655   3.642   3.417  0.1608  0.7444 -1.0268
  805MOL0     H 8610  10.946   3.739   3.450  1.4459  0.1402  0.6077
  805MOL0     H 8611  10.842   3.610   3.516  1.3463  1.0053  2.1763
  805MOL0     H 8612  11.033   3.440   3.539  2.4397 -0.1779  1.5173
  805MOL0     H 8613  11.129   3.560   3.466  1.0833 -2.0774  1.8526
  805MOL0     H 8614  11.115   3.697   3.666  0.5465  0.2510  3.5708
  805MOL0     H 8615  10.951   3.642   3.696  0.0964 -0.9882 -1.0369
  805MOL0     H 8616  11.038   3.453   3.809 -0.3522  0.7457  2.4638
  805MOL0     H 8617  11.209   3.490   3.750  0.5963  1.1893  0.6322
  805MOL0     H 8618  11.181   3.528   3.976  1.3860 -2.0975 -2.9899
  805MOL0     H 8619  11.200   3.686   3.896 -0.8311  0.7886  0.1615
  805MOL0     H 8620  10.918   3.674   3.912 -1.6181  0.7832  1.7742
  805MOL0     H 8621  10.967   3.561   4.039  2.3445  1.5037  3.5816
  805MOL0     H 8622  10.897   3.771   4.128  0.0921  1.2492  1.1188
  805MOL0     H 8623  11.070   3.746   4.160 -0.9555 -1.5285 -0.2655
  805MOL0     H 8624  10.968   3.909   3.921  1.7193  0.1847 -0.4053
  805MOL0     H 8625  11.127   3.902   4.001  0.5690 -3.9707 -0.1524
  805MOL0     H 8626  11.158   3.995   4.246  0.6982 -0.4050  0.9311
  805MOL0     H 8627  10.939   4.251   4.452 -0.5655  0.0894 -1.0512
  805MOL0     H 8628  11.083   4.156   4.481 -2.8097  1.0013  1.9065
  805MOL0     H 8629  11.209   4.288   4.310 -1.0359  0.1983 -1.8189
  805MOL0     H 8630  11.143   4.389   4.438  0.7933 -1.9221  0.7131
  805MOL0     H 8631  10.951   4.451   4.289 -2.5371 -2.2944 -1.5504
  805MOL0     H 8632  11.019   4.369   4.154 -0.8491  1.5825 -0.7608
  805MOL0     H 8633  11.143   4.598   4.326  3.1814  1.8580 -1.0607
  805MOL0     H 8634  11.084   4.610   4.166 -1.1792  1.8709  2.9618
  805MOL0     H 8635  11.511   4.456   4.116  0.8545  1.2133 -1.1080
  805MOL0     H 8636  11.683   4.317   3.879  0.9214  0.4603 -1.0307
  805MOL0     H 8637  11.655   4.473   3.789 -1.7902 -2.4878 -1.5428
  805MOL0     H 8638  11.677   4.465   3.966 -0.2482  1.4114 -0.5350
  805MOL0     H 8639  11.706   4.159   3.499 -0.8273  0.0222 -0.3814
  805MOL0     H 8640  11.731   4.116   3.262  2.5227  2.1214 -1.9509
  805MOL0     H 8641  11.499   4.341   2.980  0.1326 -0.2882 -2.2148
  805MOL0     H 8642  11.639   4.449   2.945 -3.3305  0.2247 -2.6751
  805MOL0     H 8643  11.583   4.303   2.752  2.7905  4.5991  0.1197
  805MOL0     H 8644  11.730   4.242   2.811 -0.7795 -0.9404 -3.2622
  805MOL0     H 8645  11.463   4.129   2.873 -0.5277  1.2511 -1.7902
  805MOL0     H 8646  11.613   4.075   2.945 -1.0895  1.4811  0.8073
  805MOL0     H 8647  11.522   4.091   2.654  2.3875  1.3364 -0.5495
  805MOL0     H 8648  11.692   4.048   2.689 -0.3017 -0.5472 -2.5370
  805MOL0     H 8649  11.556   3.858   2.832 -0.4356 -0.3873  0.6875
  805MOL0     H 8650  11.592   3.844   2.670 -1.1921  0.3471 -1.6083
  805MOL0     H 8651  11.315   3.958   2.747 -0.3487 -1.5528  0.2194
  805MOL0     H 8652  11.360   3.872   2.602 -1.6645 -3.7753 -0.0134
  805MOL0     H 8653  11.328   3.766   2.877  1.6730  1.6530 -0.7966
  805MOL0     H 8654  11.407   3.667   2.742  4.7417  3.0855  0.7694
  805MOL0     H 8655  11.215   3.697   2.608  0.2048  1.2660 -0.5516
  805MOL0     H 8656  11.126   3.789   2.730 -1.7705 -0.6878 -3.0242
  805MOL0     H 8657  11.546   4.514   3.191  1.1814  1.0521  1.2583
  805MOL0     H 8658  11.505   4.531   3.419  1.0551  1.2759 -0.6101
  805MOL0     H 8659  11.174   4.403   3.760 -3.1271 -0.7606  2.0607
  805MOL0     H 8660  11.114   4.453   3.979  0.8439 -2.5382  1.6624
  805MOL0     H 8661  10.880   3.539   3.071  0.2999 -3.4568  2.4710
  805MOL0     H 8662  10.656   3.521   2.943  0.1226 -3.0541  1.4645
  805MOL0     H 8663  10.295   3.767   2.709 -0.3023 -0.1212  2.5745
  805MOL0     H 8664  10.103   3.715   2.583  0.4722 -1.3515 -0.2631
  805MOL0     H 8665   9.933   3.659   2.471  6.8131 -0.4433 -2.8120
  805MOL0     H 8666   9.996   3.505   2.429  0.0249  0.7210  0.8152
  805MOL0     H 8667   9.702   3.574   2.425 -1.0351 -1.8797 -3.8179
  805MOL0     H 8668   9.744   3.409   2.460 -1.5058 -1.2302 -3.7779
  805MOL0     H 8669   9.675   3.465   2.253 -0.0746  0.7860 -1.8931
  805MOL0     H 8670   9.846   3.410   2.237 -1.0915 -1.0113  0.0359
  805MOL0     H 8671   9.820   3.594   2.085 -1.2828 -0.6470  0.3125
  805MOL0     H 8672   9.901   3.653   2.225 -0.0760 -0.9130 -0.6281
  805MOL0     H 8673   9.553   3.898   2.169 -0.6307  0.4055  0.8056
  805MOL0     H 8674  10.017   3.373   2.829 -0.7164 -0.3347 -2.1866
  805MOL0     H 8675  10.221   3.430   2.979 -2.7778 -0.3768  1.1910
  806MOL0     O 8676   2.393   4.270   7.965  0.3636  0.6515 -0.1248
  806MOL0     C 8677   2.303   4.319   8.029 -0.4246  1.0516 -0.2504
  806MOL0     O 8678   2.199   4.247   8.082  1.3166  0.4890 -0.4792
  806MOL0     C 8679   2.201   4.104   8.067 -0.3587  0.0996  0.7493
  806MOL0     C 8680   2.239   4.036   8.181  0.3263 -0.1176  0.0799
  806MOL0     C 8681   2.249   3.897   8.185  0.5149 -0.6201 -0.3839
  806MOL0     C 8682   2.215   3.826   8.061 -0.0488  0.2551 -0.7071
  806MOL0     O 8683   2.194   3.692   8.071  0.3047  0.0054 -0.3887
  806MOL0     C 8684   2.310   3.616   8.117  0.1151  0.0613  0.3369
  806MOL0     C 8685   2.327   3.487   8.037 -0.0335 -0.3644 -0.0925
  806MOL0     C 8686   2.222   3.387   8.090 -0.9913 -0.2397  0.5912
  806MOL0     C 8687   2.173   3.307   7.966 -0.9118 -0.5937  0.9094
  806MOL0     C 8688   2.068   3.224   8.019  0.0140  1.0739 -0.2105
  806MOL0     C 8689   2.026   3.105   7.921 -1.4565 -0.1212 -0.4906
  806MOL0     C 8690   1.976   3.143   7.783  0.6229 -0.2046 -0.3787
  806MOL0     C 8691   1.945   3.025   7.690 -0.2005 -0.1828 -0.3799
  806MOL0     N 8692   1.888   3.081   7.565 -0.4529 -0.1810 -0.0914
  806MOL0     C 8693   1.770   3.152   7.557 -0.1936  0.5356 -0.4212
  806MOL0     C 8694   1.746   3.155   7.423 -0.5754 -0.4886  0.0810
  806MOL0     C 8695   1.624   3.226   7.373 -0.4174 -0.6969  0.2550
  806MOL0     C 8696   1.636   3.320   7.255 -0.2168 -0.1412  0.7582
  806MOL0     C 8697   1.695   3.458   7.301  0.3873  0.3975 -0.7037
  806MOL0     C 8698   1.688   3.579   7.208 -0.9753 -0.6896 -0.2346
  806MOL0     O 8699   1.767   3.685   7.256 -0.6363 -0.2602  0.5228
  806MOL0     C 8700   1.880   3.718   7.179  0.3364 -0.7621 -0.3564
  806MOL0     C 8701   1.883   3.743   7.043  0.4551  0.1604  0.1547
  806MOL0     C 8702   1.991   3.783   6.970  0.4403  0.2237  0.4148
  806MOL0     C 8703   1.968   3.837   6.832  0.0818 -0.5236 -0.2239
  806MOL0     C 8704   2.119   3.778   7.033 -0.2073  0.9198 -0.3095
  806MOL0     C 8705   2.251   3.813   6.974 -0.2814 -0.3855  0.4864
  806MOL0     O 8706   2.274   3.784   6.840 -0.0693  0.2819 -0.5288
  806MOL0     C 8707   2.400   3.818   6.802 -0.8352  0.6806 -0.5372
  806MOL0     C 8708   2.502   3.728   6.809 -0.9631  1.2999  0.7126
  806MOL0     C 8709   2.628   3.754   6.754 -0.2798 -0.3093 -0.0106
  806MOL0     C 8710   2.658   3.883   6.698  0.6904 -0.0949  0.5954
  806MOL0     O 8711   2.774   3.923   6.633  0.1168 -0.3006  0.4925
  806MOL0     C 8712   2.874   3.824   6.586 -0.1889  0.5508  0.0574
  806MOL0     C 8713   2.816   3.753   6.466 -0.6429  0.5841  0.2220
  806MOL0     C 8714   2.900   3.634   6.402 -0.5711 -1.0300 -0.1172
  806MOL0     C 8715   3.032   3.681   6.343  0.0823  0.6982  0.5106
  806MOL0     C 8716   3.104   3.569   6.247  0.0934 -0.5303 -1.1293
  806MOL0     C 8717   3.188   3.476   6.345  0.8723 -0.6181 -0.1272
  806MOL0     C 8718   3.263   3.378   6.255  0.9551 -0.2857 -1.1791
  806MOL0     C 8719   3.381   3.320   6.329 -0.0221 -0.1802  0.6382
  806MOL0    Cl 8720   3.380   3.147   6.297  0.0684  0.0827  0.6621
  806MOL0     C 8721   2.552   3.964   6.688 -0.3174  0.5206  0.2175
  806MOL0     C 8722   2.428   3.931   6.740 -0.9564 -0.2569 -0.0664
  806MOL0     O 8723   2.328   3.872   7.050 -0.0643  0.5551  0.0989
  806MOL0     C 8724   2.126   3.743   7.172 -0.0827 -0.5744 -1.3042
  806MOL0     C 8725   2.007   3.721   7.244 -0.6627  0.5587 -0.6796
  806MOL0     N 8726   1.856   3.093   7.352 -0.0809  0.8395 -0.4275
  806MOL0     N 8727   1.950   3.060   7.441 -0.3595 -0.6149  0.3262
  806MOL0     C 8728   2.171   3.897   7.950  0.0353  0.7122 -0.0423
  806MOL0     C 8729   2.165   4.037   7.952  1.6348  0.6632  0.4253
  806MOL0     C 8730   2.282   4.471   8.021 -1.1576 -0.5601 -0.5396
  806MOL0     C 8731   2.384   4.559   7.975  0.0613  0.5645 -0.2374
  806MOL0     C 8732   2.346   4.692   7.962 -0.9953  0.4894 -0.3595
  806MOL0     C 8733   2.219   4.732   7.984 -0.1854  0.0366  0.2194
  806MOL0     O 8734   2.192   4.867   7.973  0.0210  0.0521 -0.1283
  806MOL0     C 8735   2.052   4.907   7.948 -0.5630  0.5584 -1.1926
  806MOL0     C 8736   2.063   5.002   7.829 -0.0992 -1.2495  0.2032
  806MOL0     C 8737   1.972   4.976   7.721  0.2243 -0.5213 -0.4553
  806MOL0     C 8738   1.830   5.024   7.748  0.0621 -0.2663  0.0090
  806MOL0     C 8739   1.751   4.973   7.862 -0.5950  0.8771  0.4740
  806MOL0     C 8740   1.681   4.932   7.952 -0.0369  0.6987 -0.2352
  806MOL0     C 8741   2.122   4.641   8.029 -0.0918 -0.5356 -0.1766
  806MOL0     C 8742   2.155   4.517   8.052  0.2466  0.6949 -0.6993
  806MOL0     H 8743   2.276   4.091   8.267  0.2324 -1.2875  0.8925
  806MOL0     H 8744   2.282   3.850   8.277  3.2157  0.1196 -0.9006
  806MOL0     H 8745   2.401   3.675   8.107 -0.4214  0.8812  0.1517
  806MOL0     H 8746   2.300   3.608   8.226 -3.3707  2.6636  0.4092
  806MOL0     H 8747   2.296   3.510   7.935 -2.4587  1.4769  0.9400
  806MOL0     H 8748   2.429   3.452   8.051  0.2009  0.5947  0.6736
  806MOL0     H 8749   2.267   3.328   8.170  0.7475 -3.2437 -2.3458
  806MOL0     H 8750   2.129   3.434   8.122 -0.1693  1.7934  0.1624
  806MOL0     H 8751   2.135   3.371   7.885 -3.0666 -0.6100  1.8538
  806MOL0     H 8752   2.247   3.238   7.924  2.4346  2.1328  1.8666
  806MOL0     H 8753   2.095   3.179   8.115  0.8502  0.4260 -0.7410
  806MOL0     H 8754   1.976   3.279   8.040 -2.2180 -2.2741 -0.4266
  806MOL0     H 8755   2.117   3.044   7.924 -1.3811  0.0163  1.6531
  806MOL0     H 8756   1.957   3.040   7.976 -0.3327  0.3921  1.5995
  806MOL0     H 8757   1.885   3.198   7.809  1.0837  1.9170 -2.8584
  806MOL0     H 8758   2.052   3.213   7.745 -0.6342  1.8403  0.6685
  806MOL0     H 8759   1.874   2.953   7.731  0.9982 -0.1279  2.0068
  806MOL0     H 8760   2.036   2.966   7.676 -1.1517 -1.4380 -1.5197
  806MOL0     H 8761   1.692   3.174   7.628 -1.6188 -0.7885 -1.5120
  806MOL0     H 8762   1.548   3.154   7.341  0.6230 -1.3542 -0.8640
  806MOL0     H 8763   1.584   3.287   7.454  3.5141  1.7767  0.6344
  806MOL0     H 8764   1.531   3.343   7.231  0.3141  1.2250 -0.4362
  806MOL0     H 8765   1.700   3.282   7.176  0.7755  2.5331  0.1468
  806MOL0     H 8766   1.801   3.432   7.304  1.4702  4.2285 -1.2771
  806MOL0     H 8767   1.651   3.491   7.396 -3.2561  3.5771 -3.1782
  806MOL0     H 8768   1.590   3.628   7.203 -0.8558 -0.3091  0.9125
  806MOL0     H 8769   1.717   3.546   7.108  1.7568  1.6905 -0.3609
  806MOL0     H 8770   1.789   3.748   6.990  3.2178 -4.0594 -6.3766
  806MOL0     H 8771   1.868   3.858   6.794  0.6250 -1.7313 -2.5223
  806MOL0     H 8772   2.034   3.923   6.815  1.4307 -1.6379 -0.8832
  806MOL0     H 8773   2.010   3.765   6.762  1.1008 -0.4815  0.3199
  806MOL0     H 8774   2.493   3.627   6.846  1.1376  0.2995 -1.2262
  806MOL0     H 8775   2.720   3.697   6.750  1.8167  2.8733 -0.4006
  806MOL0     H 8776   2.969   3.872   6.559  0.6725 -2.2469 -2.5085
  806MOL0     H 8777   2.895   3.768   6.678 -0.7527  1.1329  0.5389
  806MOL0     H 8778   2.723   3.707   6.501 -0.9047  2.6371  2.4480
  806MOL0     H 8779   2.800   3.823   6.384  0.1837  0.8241  0.2581
  806MOL0     H 8780   2.836   3.577   6.334  1.5693 -3.1789 -0.4791
  806MOL0     H 8781   2.919   3.560   6.479 -0.0650 -1.6863 -0.8560
  806MOL0     H 8782   3.007   3.761   6.272 -1.1796  0.1186  0.2569
  806MOL0     H 8783   3.106   3.705   6.419  0.9996  2.8867 -0.9592
  806MOL0     H 8784   3.170   3.619   6.176  0.7377  1.3852  0.7009
  806MOL0     H 8785   3.032   3.512   6.188 -0.2874  1.4300 -2.6583
  806MOL0     H 8786   3.249   3.535   6.414  1.6272 -1.7997  0.2361
  806MOL0     H 8787   3.112   3.423   6.402 -0.1509  0.2583 -0.6259
  806MOL0     H 8788   3.309   3.435   6.173  0.1557  1.6194 -0.3660
  806MOL0     H 8789   3.201   3.310   6.196  0.0916 -0.2849 -0.2932
  806MOL0     H 8790   3.379   3.334   6.438  1.1454 -2.9417  1.1000
  806MOL0     H 8791   3.474   3.364   6.293  0.6659 -0.1187  2.3857
  806MOL0     H 8792   2.578   4.062   6.650  2.7292  0.7172  2.4664
  806MOL0     H 8793   2.342   3.997   6.733 -0.7921 -0.0649 -0.3052
  806MOL0     H 8794   2.215   3.730   7.234 -1.4411 -0.9792  0.6594
  806MOL0     H 8795   2.020   3.679   7.344  2.5896 -2.9128 -2.2925
  806MOL0     H 8796   2.136   3.838   7.866 -2.1217 -0.8856  1.8495
  806MOL0     H 8797   2.137   4.103   7.871  1.7245 -2.2732 -2.1997
  806MOL0     H 8798   2.484   4.530   7.943 -0.5069 -3.6695  1.2632
  806MOL0     H 8799   2.415   4.768   7.926 -1.3311  0.8400 -0.2663
  806MOL0     H 8800   1.987   4.822   7.924  0.1300 -0.6673  0.9548
  806MOL0     H 8801   2.010   4.959   8.035  0.4430  0.2720 -0.5277
  806MOL0     H 8802   2.158   4.975   7.784 -1.6012 -1.6947 -2.9718
  806MOL0     H 8803   2.082   5.106   7.860 -2.4534 -0.6843 -0.0142
  806MOL0     H 8804   1.962   4.869   7.701 -2.9525 -0.7965  1.8946
  806MOL0     H 8805   2.001   5.039   7.636 -0.2717  1.4515  0.7717
  806MOL0     H 8806   1.771   5.008   7.658  0.7610 -2.2640 -0.1464
  806MOL0     H 8807   1.832   5.132   7.771 -0.4036 -0.2572  0.0284
  806MOL0     H 8808   1.629   4.903   8.040 -0.2758  1.8486  0.0110
  806MOL0     H 8809   2.024   4.671   8.064 -0.1473 -1.2462  0.2890
  806MOL0     H 8810   2.077   4.448   8.082  3.3278 -1.7394  2.4095
  807MOL0     O 8811   4.177   4.846   9.000  0.2311 -0.2423 -0.5046
  807MOL0     C 8812   4.204   4.853   8.880 -0.5471 -0.0581  0.4685
  807MOL0     O 8813   4.140   4.921   8.791 -0.3060  0.2012 -0.2510
  807MOL0     C 8814   4.037   5.012   8.826  0.6520 -0.3237  0.0909
  807MOL0     C 8815   3.952   5.047   8.716  0.1746 -0.2161  0.5777
  807MOL0     C 8816   3.844   5.137   8.738 -0.6533  0.3951 -0.7889
  807MOL0     C 8817   3.824   5.187   8.867 -0.0835 -0.0419  0.1816
  807MOL0     O 8818   3.708   5.256   8.901 -0.0717  0.1580  0.7354
  807MOL0     C 8819   3.603   5.247   8.811  1.0456 -1.5112 -0.6093
  807MOL0     C 8820   3.484   5.333   8.866 -0.1160 -1.1520  0.9906
  807MOL0     C 8821   3.427   5.296   9.009 -0.5022  0.7835 -0.2547
  807MOL0     C 8822   3.333   5.409   9.070  0.4271  0.1488  0.4414
  807MOL0     C 8823   3.430   5.516   9.115  0.7875  0.4073 -0.2098
  807MOL0     C 8824   3.356   5.623   9.198  0.3594 -0.0134  0.0998
  807MOL0     C 8825   3.383   5.594   9.352  0.9031  0.1862 -0.4850
  807MOL0     C 8826   3.288   5.679   9.434  0.5779  0.3588  0.4088
  807MOL0     N 8827   3.300   5.644   9.575  0.1671 -0.2131 -0.0860
  807MOL0     C 8828   3.398   5.693   9.657 -0.4842  0.0105  0.1583
  807MOL0     C 8829   3.381   5.640   9.780 -0.4804  0.8622  0.3855
  807MOL0     C 8830   3.468   5.695   9.896  0.2851  0.1989  0.2012
  807MOL0     C 8831   3.581   5.596   9.924  0.0808 -0.0299 -0.0225
  807MOL0     C 8832   3.661   5.653  10.042 -0.2005 -0.5058  0.6285
  807MOL0     C 8833   3.805   5.622  10.030 -0.1440 -0.0065  0.2812
  807MOL0     O 8834   3.823   5.483   9.996  0.7058  0.0507  0.0287
  807MOL0     C 8835   3.926   5.461   9.919 -1.0083 -1.3178  0.1558
  807MOL0     C 8836   3.908   5.421   9.788 -0.3607 -0.2423 -0.3120
  807MOL0     C 8837   4.006   5.390   9.696 -1.2407 -0.2406  0.0957
  807MOL0     C 8838   3.966   5.344   9.551 -0.3006  0.2121 -0.1616
  807MOL0     C 8839   4.141   5.409   9.734  0.1366  0.6959 -0.5830
  807MOL0     C 8840   4.262   5.376   9.638 -0.2610 -0.3230  0.7079
  807MOL0     O 8841   4.376   5.448   9.670  0.0215  0.3646 -0.2707
  807MOL0     C 8842   4.497   5.406   9.622  0.0201 -0.2862 -0.2826
  807MOL0     C 8843   4.545   5.273   9.622 -0.7191  0.0729 -0.8460
  807MOL0     C 8844   4.662   5.224   9.556 -0.3828 -0.4817  0.1769
  807MOL0     C 8845   4.741   5.323   9.495  0.3104  0.9442  0.2333
  807MOL0     O 8846   4.858   5.262   9.444  0.0405  0.1048  0.1182
  807MOL0     C 8847   4.941   5.348   9.361  0.3249 -0.1240 -0.9537
  807MOL0     C 8848   5.072   5.289   9.338 -0.5245  1.4432 -0.1156
  807MOL0     C 8849   5.173   5.384   9.261  0.5559 -0.6278 -0.2826
  807MOL0     C 8850   5.247   5.486   9.349 -0.5882  0.2088  0.3130
  807MOL0     C 8851   5.395   5.445   9.368 -0.8804  0.3980  0.2814
  807MOL0     C 8852   5.478   5.531   9.463  0.6361  0.0224  0.5453
  807MOL0     C 8853   5.619   5.467   9.501 -0.5759 -0.1582 -0.1673
  807MOL0     C 8854   5.650   5.484   9.653  0.1041  0.3595  0.4321
  807MOL0    Cl 8855   5.778   5.370   9.711 -1.0385  0.5497  0.3145
  807MOL0     C 8856   4.694   5.458   9.487 -0.1701  0.5541  0.4775
  807MOL0     C 8857   4.571   5.491   9.540 -0.4594  0.3681  0.8181
  807MOL0     O 8858   4.247   5.317   9.537  0.2028 -0.1327  0.2186
  807MOL0     C 8859   4.170   5.445   9.869  0.8131  0.2579 -0.5128
  807MOL0     C 8860   4.062   5.479   9.951 -0.0339  0.0050 -0.0536
  807MOL0     N 8861   3.273   5.557   9.776  1.0365 -0.2412  0.1193
  807MOL0     N 8862   3.229   5.561   9.653  0.7313 -0.2020 -0.4146
  807MOL0     C 8863   3.921   5.180   8.972 -0.0188  0.3786  0.3045
  807MOL0     C 8864   4.018   5.083   8.949 -0.8328  0.2079 -0.3512
  807MOL0     C 8865   4.334   4.796   8.829  1.2148  0.2927  0.7181
  807MOL0     C 8866   4.388   4.831   8.699  1.7356 -0.2161 -0.9031
  807MOL0     C 8867   4.520   4.798   8.667 -0.5288 -0.5925  0.0568
  807MOL0     C 8868   4.605   4.725   8.749  0.0526 -0.0332 -0.1190
  807MOL0     O 8869   4.731   4.684   8.708 -0.3057  0.1645  0.4754
  807MOL0     C 8870   4.830   4.647   8.800  0.9800 -0.1336 -0.1482
  807MOL0     C 8871   4.931   4.761   8.783  0.7647  0.3220 -0.1747
  807MOL0     C 8872   4.999   4.771   8.657 -0.0154  0.2942  0.0037
  807MOL0     C 8873   5.069   4.637   8.606 -0.3429  0.0886 -0.1976
  807MOL0     C 8874   5.115   4.664   8.466 -0.3852 -0.3066 -0.5097
  807MOL0     C 8875   5.154   4.683   8.350 -0.3034 -0.1704 -0.6044
  807MOL0     C 8876   4.548   4.673   8.871 -0.4520  0.1861 -0.1852
  807MOL0     C 8877   4.420   4.716   8.906  0.2791  1.0187 -0.4220
  807MOL0     H 8878   3.952   5.008   8.614 -5.4373  3.3800 -1.2922
  807MOL0     H 8879   3.773   5.157   8.659 -1.9623 -2.2487 -0.3727
  807MOL0     H 8880   3.622   5.283   8.709 -2.2050 -2.7899 -1.8154
  807MOL0     H 8881   3.565   5.145   8.800  3.2870 -2.3829 -0.6542
  807MOL0     H 8882   3.511   5.439   8.859  1.3446 -1.6274 -2.7094
  807MOL0     H 8883   3.413   5.334   8.783  1.4666  0.2915 -0.4236
  807MOL0     H 8884   3.373   5.201   9.014 -0.5598  0.7094 -1.7742
  807MOL0     H 8885   3.512   5.281   9.075 -0.7548  0.8713  0.0974
  807MOL0     H 8886   3.271   5.455   8.993  0.0810 -1.5574 -0.3632
  807MOL0     H 8887   3.268   5.375   9.151 -2.6046  2.4997 -0.8318
  807MOL0     H 8888   3.513   5.480   9.176  2.6230  3.2562 -0.8169
  807MOL0     H 8889   3.470   5.562   9.024 -1.5122 -0.8110 -1.9322
  807MOL0     H 8890   3.381   5.728   9.176  0.5645 -0.2691 -0.9898
  807MOL0     H 8891   3.249   5.623   9.175  0.4262 -1.4973 -0.3497
  807MOL0     H 8892   3.372   5.491   9.388  1.4345  0.3845  0.2707
  807MOL0     H 8893   3.484   5.630   9.374  0.3472  1.8746 -0.5374
  807MOL0     H 8894   3.188   5.658   9.394  0.6855  0.7196 -0.0667
  807MOL0     H 8895   3.313   5.785   9.431  1.1576  0.3797  3.3361
  807MOL0     H 8896   3.474   5.771   9.650  0.2016 -0.2183  3.4046
  807MOL0     H 8897   3.505   5.794   9.869  3.3235 -1.1727 -1.1352
  807MOL0     H 8898   3.401   5.698   9.982 -1.4111  0.6637 -1.0807
  807MOL0     H 8899   3.640   5.587   9.833  0.0648  0.6770 -0.1080
  807MOL0     H 8900   3.534   5.500   9.949 -1.7576  1.0660  0.9740
  807MOL0     H 8901   3.638   5.609  10.139  1.7879 -2.7512  0.1872
  807MOL0     H 8902   3.657   5.762  10.046 -1.2154 -0.5772  2.8381
  807MOL0     H 8903   3.844   5.640  10.130 -1.5278  4.3724  0.2398
  807MOL0     H 8904   3.850   5.679   9.947 -1.6029 -1.1000 -1.3365
  807MOL0     H 8905   3.808   5.401   9.752 -0.2499  1.8062 -1.9711
  807MOL0     H 8906   3.973   5.235   9.540  1.3079  0.1904  0.8628
  807MOL0     H 8907   3.861   5.370   9.534  0.1339  1.1469 -1.5339
  807MOL0     H 8908   4.016   5.398   9.470  1.0374  0.7848  1.0161
  807MOL0     H 8909   4.471   5.201   9.658  0.1610 -0.1595  0.5789
  807MOL0     H 8910   4.692   5.120   9.546  3.2604  0.5152 -0.8012
  807MOL0     H 8911   4.882   5.372   9.272 -2.0805 -0.4851  0.4338
  807MOL0     H 8912   4.955   5.447   9.406  1.3680 -0.0678 -1.3879
  807MOL0     H 8913   5.121   5.263   9.432 -3.5965 -1.1744  0.9112
  807MOL0     H 8914   5.054   5.192   9.289 -0.0784  1.5660 -0.5355
  807MOL0     H 8915   5.110   5.442   9.194 -2.3708  0.9133  3.4673
  807MOL0     H 8916   5.237   5.322   9.197 -2.9002 -4.2960 -0.5325
  807MOL0     H 8917   5.251   5.583   9.298  2.4979 -1.1909 -2.4037
  807MOL0     H 8918   5.199   5.494   9.447 -1.5115  0.8375 -0.1763
  807MOL0     H 8919   5.445   5.448   9.271 -1.5611  1.4685 -0.0584
  807MOL0     H 8920   5.387   5.341   9.399 -0.2253  0.3334  0.2432
  807MOL0     H 8921   5.496   5.628   9.416  0.5579 -0.9820 -1.7077
  807MOL0     H 8922   5.414   5.562   9.545 -2.3593 -1.1733 -1.1885
  807MOL0     H 8923   5.700   5.510   9.442 -1.0435 -0.7102 -1.2339
  807MOL0     H 8924   5.612   5.360   9.481 -2.8581 -0.3452  1.2159
  807MOL0     H 8925   5.570   5.471   9.726  1.0702 -5.7944  0.8785
  807MOL0     H 8926   5.697   5.581   9.673 -0.6535  0.1953  3.4338
  807MOL0     H 8927   4.743   5.536   9.429  1.4756  0.0817  1.2003
  807MOL0     H 8928   4.535   5.591   9.522  1.9922  1.7195  2.8160
  807MOL0     H 8929   4.270   5.454   9.910  0.6194  1.7528 -0.3001
  807MOL0     H 8930   4.073   5.508  10.055 -4.0931  0.7112  0.3179
  807MOL0     H 8931   3.899   5.214   9.072  0.5726  2.3160 -0.1758
  807MOL0     H 8932   4.090   5.073   9.031  1.4541  3.7974 -1.6831
  807MOL0     H 8933   4.334   4.879   8.618  1.4778 -0.3103 -0.7872
  807MOL0     H 8934   4.564   4.830   8.573  0.3628  1.0693  0.9970
  807MOL0     H 8935   4.796   4.637   8.904 -0.2913 -1.7017 -0.6743
  807MOL0     H 8936   4.870   4.550   8.769 -0.4880 -0.4589 -1.1272
  807MOL0     H 8937   5.004   4.754   8.864 -0.1705 -1.2783  0.5825
  807MOL0     H 8938   4.882   4.856   8.804 -1.3742 -0.8743  0.5070
  807MOL0     H 8939   5.070   4.854   8.666 -0.2710  0.5304 -0.1672
  807MOL0     H 8940   4.933   4.802   8.576  1.2895  0.9767 -0.8364
  807MOL0     H 8941   5.005   4.548   8.608 -0.5064  0.1571 -1.3428
  807MOL0     H 8942   5.160   4.629   8.665  0.5513 -0.4975 -1.5917
  807MOL0     H 8943   5.192   4.694   8.250  2.2233 -5.6747 -0.5556
  807MOL0     H 8944   4.589   4.594   8.933 -0.9167  1.9683  2.5113
  807MOL0     H 8945   4.381   4.686   9.003  0.8833 -2.0193 -0.9926
  808MOL0     O 8946   9.088   2.703   2.645  0.3855 -0.1980  0.0353
  808MOL0     C 8947   8.972   2.685   2.622  0.7164  0.4493 -0.1172
  808MOL0     O 8948   8.904   2.735   2.512 -0.6017 -0.3443 -0.1000
  808MOL0     C 8949   8.893   2.661   2.396 -0.1819  0.1535 -0.9562
  808MOL0     C 8950   8.917   2.525   2.384  0.1832  0.5949 -0.7889
  808MOL0     C 8951   8.898   2.466   2.260 -0.3438  0.5047 -0.8472
  808MOL0     C 8952   8.868   2.544   2.149  0.1946 -1.1117 -0.1852
  808MOL0     O 8953   8.854   2.499   2.016  0.0838  0.1060 -0.1382
  808MOL0     C 8954   8.771   2.381   2.006 -0.4375  0.0546  0.4929
  808MOL0     C 8955   8.762   2.324   1.856  0.0552 -0.7824  0.1431
  808MOL0     C 8956   8.695   2.435   1.773 -0.3764  0.1312  0.0094
  808MOL0     C 8957   8.696   2.388   1.628  0.5832 -0.4901 -0.2374
  808MOL0     C 8958   8.628   2.486   1.535  1.3013  0.5380 -0.9037
  808MOL0     C 8959   8.677   2.449   1.398 -0.3580 -0.9739  0.5288
  808MOL0     C 8960   8.617   2.549   1.300  0.6828 -0.1818 -0.1938
  808MOL0     C 8961   8.639   2.512   1.155  0.0596  0.1086 -0.4619
  808MOL0     N 8962   8.588   2.614   1.068 -0.6780  0.3807 -0.1891
  808MOL0     C 8963   8.652   2.721   1.017  0.3864 -0.0536 -0.4045
  808MOL0     C 8964   8.552   2.789   0.952 -0.6253  0.0447 -0.5317
  808MOL0     C 8965   8.578   2.922   0.877 -0.0288  0.0604  0.1839
  808MOL0     C 8966   8.523   2.904   0.740  0.4310  0.1747  0.5681
  808MOL0     C 8967   8.581   3.015   0.651  0.8553  0.2001  0.1578
  808MOL0     C 8968   8.574   2.970   0.501 -1.0230  0.2872  0.1592
  808MOL0     O 8969   8.617   3.074   0.414  0.6384 -0.0238 -0.3307
  808MOL0     C 8970   8.575   3.060   0.285  0.2433  0.5892 -0.6211
  808MOL0     C 8971   8.570   2.931   0.208 -0.0794 -0.7732 -0.0831
  808MOL0     C 8972   8.523   2.935   0.080  0.4734  0.1510 -0.3100
  808MOL0     C 8973   8.525   2.799   0.007  0.8528  0.5446  0.1677
  808MOL0     C 8974   8.475   3.048   0.015  0.1871 -0.4349 -0.4336
  808MOL0     C 8975   8.412   3.043  -0.126  0.1737 -0.4092  0.0610
  808MOL0     O 8976   8.357   3.158  -0.176  0.7055  0.3730  0.5587
  808MOL0     C 8977   8.337   3.165  -0.313 -0.4539 -0.5738 -0.0380
  808MOL0     C 8978   8.208   3.209  -0.364  0.3361 -0.6506  0.3707
  808MOL0     C 8979   8.190   3.235  -0.502  0.8237  0.3080  0.1694
  808MOL0     C 8980   8.290   3.210  -0.596  0.3666 -0.5367  0.0068
  808MOL0     O 8981   8.272   3.250  -0.729 -0.3312  0.3967 -0.1662
  808MOL0     C 8982   8.314   3.186  -0.843 -0.2382  0.9247 -0.4157
  808MOL0     C 8983   8.378   3.284  -0.941  0.3433 -0.3545 -0.9365
  808MOL0     C 8984   8.430   3.227  -1.060  0.4878 -0.6436  0.9456
  808MOL0     C 8985   8.374   3.293  -1.187 -0.6329  0.6225 -0.5537
  808MOL0     C 8986   8.231   3.237  -1.210  0.4541 -0.4603 -0.9676
  808MOL0     C 8987   8.185   3.249  -1.351 -0.7473 -0.1949 -0.1993
  808MOL0     C 8988   8.111   3.126  -1.408 -0.3207 -0.2535 -0.5940
  808MOL0     C 8989   7.974   3.119  -1.324 -0.4037  0.1210  0.1784
  808MOL0    Cl 8990   7.895   2.963  -1.374  0.2787  0.2632  0.0730
  808MOL0     C 8991   8.410   3.166  -0.541  0.6460 -0.5629 -0.6640
  808MOL0     C 8992   8.438   3.142  -0.408 -1.0460  0.5994 -0.0044
  808MOL0     O 8993   8.435   2.944  -0.196 -0.8036  0.4599  0.1656
  808MOL0     C 8994   8.484   3.173   0.087  0.0682 -0.8191 -0.8884
  808MOL0     C 8995   8.542   3.177   0.218 -0.2691 -0.1805 -0.4044
  808MOL0     N 8996   8.430   2.731   0.978 -0.7944 -1.0432 -0.0079
  808MOL0     N 8997   8.448   2.632   1.055  0.3808  0.1320  0.0659
  808MOL0     C 8998   8.838   2.685   2.166 -0.4197 -0.4213 -0.6651
  808MOL0     C 8999   8.852   2.742   2.292  0.1340  0.7189 -0.9260
  808MOL0     C 9000   8.891   2.590   2.716 -0.2758 -0.1527 -0.0910
  808MOL0     C 9001   8.949   2.540   2.834  0.1231 -0.0006 -0.0965
  808MOL0     C 9002   8.876   2.451   2.923  0.9253 -0.0885  0.7563
  808MOL0     C 9003   8.742   2.418   2.909 -0.5995  0.7647 -0.4643
  808MOL0     O 9004   8.682   2.336   2.992  0.0419  0.4538 -0.3344
  808MOL0     C 9005   8.541   2.311   3.016 -1.0321 -0.1744 -0.0111
  808MOL0     C 9006   8.529   2.181   3.107  0.5266 -0.1479  0.0544
  808MOL0     C 9007   8.553   2.051   3.023  1.2251 -0.6273 -0.0555
  808MOL0     C 9008   8.526   1.924   3.103  0.2845  0.1430 -0.2716
  808MOL0     C 9009   8.526   1.811   3.018  0.2261  0.1370 -0.3935
  808MOL0     C 9010   8.524   1.713   2.946  0.5469  0.9080 -0.7378
  808MOL0     C 9011   8.675   2.487   2.805  0.0368 -0.9677  0.7084
  808MOL0     C 9012   8.750   2.566   2.707  0.6448 -0.4019 -0.1077
  808MOL0     H 9013   8.943   2.474   2.477 -0.4581  1.3667 -0.1599
  808MOL0     H 9014   8.916   2.360   2.246 -1.1588  0.1872  0.3319
  808MOL0     H 9015   8.805   2.296   2.066  4.5444  2.1044  1.0931
  808MOL0     H 9016   8.669   2.393   2.043  0.1607  1.6552  1.7366
  808MOL0     H 9017   8.857   2.293   1.813  0.3523 -1.8250  1.4762
  808MOL0     H 9018   8.704   2.232   1.862 -2.3560  0.6743  0.8899
  808MOL0     H 9019   8.591   2.435   1.808 -0.2826 -0.6505  0.3046
  808MOL0     H 9020   8.749   2.529   1.789 -0.1860  0.0803 -0.3509
  808MOL0     H 9021   8.800   2.371   1.598  0.6988  0.8338 -0.6708
  808MOL0     H 9022   8.640   2.294   1.627  0.7366 -0.6060 -2.2894
  808MOL0     H 9023   8.520   2.473   1.545  1.4100 -0.2577 -0.6370
  808MOL0     H 9024   8.653   2.589   1.559  0.9101  1.0993 -2.7645
  808MOL0     H 9025   8.785   2.459   1.387 -0.3907 -2.7697 -2.0875
  808MOL0     H 9026   8.645   2.348   1.373 -2.8736 -0.1710  0.1234
  808MOL0     H 9027   8.509   2.559   1.312  1.0548  1.1704  3.3133
  808MOL0     H 9028   8.656   2.650   1.318  0.9258 -0.0636 -1.3264
  808MOL0     H 9029   8.596   2.414   1.135  1.5998 -0.4404 -1.1885
  808MOL0     H 9030   8.747   2.499   1.152 -0.0780 -2.8134  2.3237
  808MOL0     H 9031   8.755   2.745   1.039  0.5105 -0.6342 -0.3342
  808MOL0     H 9032   8.530   3.010   0.921  3.3500  1.6086  1.0332
  808MOL0     H 9033   8.685   2.943   0.878  0.0944 -0.0095 -2.5338
  808MOL0     H 9034   8.413   2.904   0.745  0.4005 -0.5424  0.1062
  808MOL0     H 9035   8.550   2.805   0.701 -1.5256 -0.1467 -0.1016
  808MOL0     H 9036   8.684   3.031   0.685  0.9944 -3.0191  1.7251
  808MOL0     H 9037   8.529   3.109   0.670  2.8758  0.9405  2.6979
  808MOL0     H 9038   8.471   2.937   0.482 -0.4163 -2.4839  1.3157
  808MOL0     H 9039   8.650   2.892   0.494  1.3824  2.4045  1.1889
  808MOL0     H 9040   8.579   2.840   0.266 -0.9178  0.6017  2.3820
  808MOL0     H 9041   8.572   2.726   0.074  6.0265  3.4769  0.2606
  808MOL0     H 9042   8.429   2.753  -0.016  1.9506 -0.8688 -1.8980
  808MOL0     H 9043   8.586   2.794  -0.084 -0.0383 -0.8135 -0.3902
  808MOL0     H 9044   8.134   3.232  -0.289  1.4364  2.0828  0.7375
  808MOL0     H 9045   8.100   3.284  -0.537  0.0780 -1.8352 -1.0179
  808MOL0     H 9046   8.383   3.103  -0.825 -1.1870  0.6931  2.8076
  808MOL0     H 9047   8.227   3.140  -0.890  0.8518 -1.0340 -0.6570
  808MOL0     H 9048   8.301   3.361  -0.948 -0.4683 -0.2267  4.7899
  808MOL0     H 9049   8.454   3.339  -0.885 -0.0296  0.3170 -1.0738
  808MOL0     H 9050   8.426   3.118  -1.052 -0.8220 -0.5277  2.3552
  808MOL0     H 9051   8.535   3.257  -1.063 -0.4721  3.2384 -1.1266
  808MOL0     H 9052   8.376   3.402  -1.198  0.9672  1.1415  3.0979
  808MOL0     H 9053   8.434   3.254  -1.269 -0.2022 -1.2192  0.5705
  808MOL0     H 9054   8.161   3.283  -1.139 -0.9012 -5.1010  1.1057
  808MOL0     H 9055   8.245   3.132  -1.181 -1.3186 -0.6586 -0.7014
  808MOL0     H 9056   8.101   3.318  -1.360 -0.7646 -0.1663  0.1641
  808MOL0     H 9057   8.259   3.300  -1.413 -1.7777  0.3656 -0.9940
  808MOL0     H 9058   8.185   3.048  -1.390  0.4983  1.1476  2.9026
  808MOL0     H 9059   8.087   3.135  -1.515 -0.5157  2.0094 -0.4130
  808MOL0     H 9060   7.911   3.199  -1.365 -0.0641 -0.3401 -1.2972
  808MOL0     H 9061   7.987   3.112  -1.216  0.5414 -0.3581  0.0411
  808MOL0     H 9062   8.490   3.151  -0.613 -0.9794  0.8570 -2.9114
  808MOL0     H 9063   8.534   3.100  -0.378 -0.4451  0.7302 -1.6646
  808MOL0     H 9064   8.432   3.258   0.043 -1.3829 -1.4920 -0.5333
  808MOL0     H 9065   8.543   3.277   0.261 -1.6704  0.8546 -2.5309
  808MOL0     H 9066   8.823   2.756   2.085  0.0834  2.0612  1.3030
  808MOL0     H 9067   8.842   2.849   2.304  1.7923  0.6640  1.7834
  808MOL0     H 9068   9.051   2.551   2.871 -0.8454  0.8492  2.5713
  808MOL0     H 9069   8.939   2.407   3.000 -1.4233 -1.1395  2.2083
  808MOL0     H 9070   8.495   2.386   3.080  0.4781 -0.8928  2.0069
  808MOL0     H 9071   8.488   2.281   2.925 -0.5610 -2.4609  0.3935
  808MOL0     H 9072   8.437   2.182   3.165 -0.0071  1.0905 -0.7644
  808MOL0     H 9073   8.611   2.201   3.176 -2.3895  4.8608  2.5946
  808MOL0     H 9074   8.655   2.054   2.984  0.7483 -0.2689 -1.3275
  808MOL0     H 9075   8.476   2.059   2.946  0.4061  2.4581  0.9360
  808MOL0     H 9076   8.426   1.921   3.148 -0.2964  0.2424 -1.5144
  808MOL0     H 9077   8.593   1.924   3.190 -1.0310  1.3365  0.7888
  808MOL0     H 9078   8.509   1.636   2.873 -2.4008  2.1316 -1.5764
  808MOL0     H 9079   8.569   2.467   2.790  0.0940 -3.1224  2.6775
  808MOL0     H 9080   8.703   2.604   2.617 -0.9568  0.0034  0.8662
  809MOL0     O 9081   5.039   1.201   5.357  0.3754  0.3435 -0.1863
  809MOL0     C 9082   4.986   1.114   5.289 -0.4275 -0.2375  0.2033
  809MOL0     O 9083   5.016   0.980   5.300 -0.3134 -0.0610 -0.1328
  809MOL0     C 9084   5.115   0.937   5.387 -0.7867 -0.2593 -0.3185
  809MOL0     C 9085   5.251   0.982   5.392  0.4636 -0.3959 -0.8243
  809MOL0     C 9086   5.340   0.924   5.482 -0.3028 -0.7618  0.3053
  809MOL0     C 9087   5.313   0.804   5.547  0.5025  0.3479  0.0779
  809MOL0     O 9088   5.403   0.728   5.623 -0.2853 -0.3796 -0.1061
  809MOL0     C 9089   5.500   0.807   5.694 -0.1964 -0.1928  1.2144
  809MOL0     C 9090   5.635   0.814   5.617  0.6032 -0.1194 -0.1898
  809MOL0     C 9091   5.761   0.829   5.707  0.2961 -0.1078 -0.1991
  809MOL0     C 9092   5.830   0.695   5.745  0.2035 -0.1072  0.1635
  809MOL0     C 9093   5.950   0.711   5.831 -0.6314  0.7072 -0.2736
  809MOL0     C 9094   6.069   0.775   5.746  1.0671  0.5991 -0.6440
  809MOL0     C 9095   6.192   0.786   5.826  0.2520  0.0612 -1.0576
  809MOL0     C 9096   6.310   0.749   5.733  0.3591  0.8642  0.1200
  809MOL0     N 9097   6.354   0.862   5.646  0.0062  0.7666 -0.1173
  809MOL0     C 9098   6.442   0.958   5.675  0.0324  1.6346 -0.1707
  809MOL0     C 9099   6.453   1.023   5.557 -0.0011  0.1402  0.6247
  809MOL0     C 9100   6.525   1.161   5.542  0.1247  0.0167 -0.0547
  809MOL0     C 9101   6.673   1.163   5.503  0.1306 -0.3471  0.3694
  809MOL0     C 9102   6.690   1.116   5.347  0.5210 -0.0306  0.3889
  809MOL0     C 9103   6.840   1.092   5.325  0.7143 -1.1055 -0.4595
  809MOL0     O 9104   6.920   1.198   5.390  0.2366 -0.1525  0.1208
  809MOL0     C 9105   7.059   1.191   5.381  0.2306  0.3079 -0.0871
  809MOL0     C 9106   7.132   1.106   5.304  0.2619 -0.4403 -0.3530
  809MOL0     C 9107   7.269   1.112   5.301 -0.4264 -0.3747 -0.3161
  809MOL0     C 9108   7.336   1.023   5.204 -0.2544 -0.4994  0.1163
  809MOL0     C 9109   7.327   1.217   5.380 -0.5903  0.1437 -0.9145
  809MOL0     C 9110   7.477   1.244   5.374  0.1757  0.2790  0.0385
  809MOL0     O 9111   7.538   1.311   5.479  0.5918  0.1728  0.2492
  809MOL0     C 9112   7.673   1.306   5.485 -0.4427  0.2696 -0.1940
  809MOL0     C 9113   7.750   1.185   5.467  1.2051  0.0366 -0.4911
  809MOL0     C 9114   7.889   1.186   5.468 -0.0789 -0.5211  0.3653
  809MOL0     C 9115   7.958   1.311   5.486  0.2965  1.0766  0.2525
  809MOL0     O 9116   8.092   1.332   5.496 -0.7245 -0.1164 -0.2177
  809MOL0     C 9117   8.167   1.234   5.426  0.4523  0.5903  1.4362
  809MOL0     C 9118   8.319   1.261   5.436 -0.1711 -0.8789 -0.0317
  809MOL0     C 9119   8.381   1.299   5.297 -0.2127  0.4128 -0.2831
  809MOL0     C 9120   8.355   1.447   5.272  0.2389 -0.4429 -0.5303
  809MOL0     C 9121   8.391   1.483   5.122  0.5462 -0.3467 -0.5620
  809MOL0     C 9122   8.375   1.632   5.081  0.0501 -0.6921  0.3049
  809MOL0     C 9123   8.446   1.637   4.937 -1.0517 -0.1839 -0.4469
  809MOL0     C 9124   8.416   1.765   4.859  0.8402 -0.6767  0.7843
  809MOL0    Cl 9125   8.236   1.763   4.837  0.5534 -0.1180  0.3292
  809MOL0     C 9126   7.885   1.421   5.516  0.5937  0.7680  0.8745
  809MOL0     C 9127   7.750   1.421   5.501  0.7334 -0.6098 -0.4101
  809MOL0     O 9128   7.537   1.191   5.282  0.3417  1.0361  0.7608
  809MOL0     C 9129   7.250   1.302   5.462 -0.6697 -0.4403 -0.5742
  809MOL0     C 9130   7.111   1.292   5.456 -0.6436  0.1730 -0.7860
  809MOL0     N 9131   6.392   0.950   5.454  0.6045 -0.0092  0.6287
  809MOL0     N 9132   6.325   0.858   5.514  0.2996 -0.0177 -0.0890
  809MOL0     C 9133   5.185   0.750   5.523  1.0469  0.2609 -0.0686
  809MOL0     C 9134   5.084   0.821   5.453 -0.4658 -0.2618 -0.8894
  809MOL0     C 9135   4.889   1.155   5.189 -0.5963  0.2572 -0.0423
  809MOL0     C 9136   4.857   1.071   5.085  0.3877 -0.1310 -0.0076
  809MOL0     C 9137   4.769   1.107   4.981 -0.2953 -0.1169 -1.5147
  809MOL0     C 9138   4.724   1.243   4.984  0.5387  0.0215  1.0730
  809MOL0     O 9139   4.634   1.302   4.899  0.7369 -0.1201 -0.0120
  809MOL0     C 9140   4.619   1.242   4.769 -0.2554 -0.6249  0.6772
  809MOL0     C 9141   4.746   1.258   4.685 -0.5573 -0.0059 -0.7391
  809MOL0     C 9142   4.724   1.373   4.584 -0.6138  0.0784  0.0265
  809MOL0     C 9143   4.841   1.382   4.485 -0.2010  1.3161 -0.1781
  809MOL0     C 9144   4.959   1.446   4.547 -0.2351 -0.1499  0.1670
  809MOL0     C 9145   5.049   1.516   4.585 -0.7618  0.1800  0.5088
  809MOL0     C 9146   4.751   1.323   5.089 -0.2087 -0.4090  0.0472
  809MOL0     C 9147   4.819   1.279   5.196  0.1156  0.5081  0.4149
  809MOL0     H 9148   5.286   1.071   5.340 -0.3787 -0.0819 -0.8790
  809MOL0     H 9149   5.437   0.970   5.497  0.2885 -0.4005 -3.6600
  809MOL0     H 9150   5.473   0.909   5.723  1.3635  1.5572 -2.7321
  809MOL0     H 9151   5.504   0.741   5.781  0.6218 -0.8552  0.6889
  809MOL0     H 9152   5.666   0.734   5.549 -0.5746  0.4844 -1.4895
  809MOL0     H 9153   5.626   0.900   5.550  3.7352  0.8721  0.4837
  809MOL0     H 9154   5.833   0.896   5.660  1.5538  0.7409  2.7150
  809MOL0     H 9155   5.737   0.871   5.805 -0.7457 -0.4484 -0.2987
  809MOL0     H 9156   5.758   0.642   5.808  0.7748  1.5042  2.2914
  809MOL0     H 9157   5.857   0.634   5.659  0.5256 -1.6128  1.2974
  809MOL0     H 9158   5.935   0.778   5.916  2.0814  1.3055 -0.1619
  809MOL0     H 9159   5.979   0.614   5.872 -0.5016  0.3397 -1.2221
  809MOL0     H 9160   6.073   0.692   5.675  0.3109 -0.6382  0.6904
  809MOL0     H 9161   6.047   0.874   5.705  1.4863  1.8161  1.8555
  809MOL0     H 9162   6.202   0.887   5.867  2.8951 -0.1499 -1.0078
  809MOL0     H 9163   6.190   0.707   5.901  0.5828 -1.3910 -2.5281
  809MOL0     H 9164   6.295   0.657   5.676  1.3168  0.7451  0.0455
  809MOL0     H 9165   6.390   0.717   5.800 -0.0752  2.1438  1.2908
  809MOL0     H 9166   6.461   0.992   5.776 -2.4060 -1.6798  1.5899
  809MOL0     H 9167   6.473   1.203   5.455 -1.6490  0.1021  0.9937
  809MOL0     H 9168   6.509   1.220   5.633 -0.2974  1.0533 -0.7819
  809MOL0     H 9169   6.723   1.087   5.563  3.0313  0.3752 -0.9552
  809MOL0     H 9170   6.721   1.261   5.509 -0.3373  0.0946 -1.9763
  809MOL0     H 9171   6.649   1.193   5.282  0.5617 -1.8246 -1.8808
  809MOL0     H 9172   6.628   1.030   5.320  0.2699 -0.5743  2.4867
  809MOL0     H 9173   6.861   1.088   5.218  2.9441 -0.8168 -0.0734
  809MOL0     H 9174   6.874   0.995   5.361  2.2619 -0.6938 -0.7126
  809MOL0     H 9175   7.075   1.033   5.248 -0.0489  0.1904 -0.8767
  809MOL0     H 9176   7.266   0.949   5.165 -0.6319  1.2644 -2.8892
  809MOL0     H 9177   7.379   1.076   5.118 -1.4261  1.0522  0.4216
  809MOL0     H 9178   7.418   0.961   5.242  1.3156  0.7086 -1.1211
  809MOL0     H 9179   7.711   1.084   5.457  3.5643 -1.0949  0.9084
  809MOL0     H 9180   7.940   1.092   5.449  0.4983  0.0466 -1.0496
  809MOL0     H 9181   8.155   1.132   5.463 -1.2950  0.9327  1.9520
  809MOL0     H 9182   8.131   1.227   5.323 -2.8767  0.0846  2.4959
  809MOL0     H 9183   8.336   1.338   5.512  3.6059 -0.1418 -1.4124
  809MOL0     H 9184   8.368   1.166   5.459  0.6080 -0.4033  0.3056
  809MOL0     H 9185   8.337   1.243   5.214 -0.6763 -0.3905  0.4817
  809MOL0     H 9186   8.490   1.293   5.295 -0.1539  1.1830  0.0955
  809MOL0     H 9187   8.251   1.470   5.295 -0.0831 -1.2523 -1.1167
  809MOL0     H 9188   8.418   1.512   5.334 -0.3202  0.2149 -0.6422
  809MOL0     H 9189   8.340   1.422   5.047 -0.4080 -0.0742 -0.1369
  809MOL0     H 9190   8.497   1.453   5.120  0.7259 -0.0950  2.0627
  809MOL0     H 9191   8.271   1.665   5.081  0.6708  1.4730 -0.1210
  809MOL0     H 9192   8.434   1.699   5.144 -0.9952  1.5990 -1.0029
  809MOL0     H 9193   8.414   1.557   4.870  3.1296 -3.3664  0.9055
  809MOL0     H 9194   8.553   1.615   4.950 -1.3315 -1.5978 -0.3607
  809MOL0     H 9195   8.474   1.765   4.766  3.3281  2.3503  2.1493
  809MOL0     H 9196   8.456   1.851   4.914  0.3296  0.3184 -0.3507
  809MOL0     H 9197   7.934   1.518   5.513  0.6186  0.7239 -1.2710
  809MOL0     H 9198   7.694   1.509   5.530 -0.1213 -1.2385 -0.1152
  809MOL0     H 9199   7.300   1.378   5.522  3.3331 -3.6862  0.6910
  809MOL0     H 9200   7.050   1.358   5.516  1.2690 -0.2919  1.8550
  809MOL0     H 9201   5.169   0.649   5.560  2.9955 -1.3213 -3.1529
  809MOL0     H 9202   4.983   0.782   5.460 -0.7254  0.6061  1.0067
  809MOL0     H 9203   4.896   0.970   5.079  1.0879  0.1279  0.1219
  809MOL0     H 9204   4.729   1.036   4.909 -0.1933 -2.8171  0.8942
  809MOL0     H 9205   4.595   1.136   4.775 -1.1809 -0.7888 -3.1707
  809MOL0     H 9206   4.534   1.296   4.726  1.2149  0.6438 -0.7512
  809MOL0     H 9207   4.768   1.173   4.618 -1.1477  0.7820 -1.9761
  809MOL0     H 9208   4.835   1.280   4.744 -1.1353  2.8665 -0.7875
  809MOL0     H 9209   4.712   1.475   4.622  0.2106  0.9320 -1.8742
  809MOL0     H 9210   4.635   1.355   4.524 -0.1141 -0.6349 -0.5051
  809MOL0     H 9211   4.811   1.417   4.386  0.0585 -0.0546 -0.7686
  809MOL0     H 9212   4.852   1.274   4.472  1.3887  1.5967 -1.4274
  809MOL0     H 9213   5.135   1.576   4.606  1.7886 -2.9221 -0.3378
  809MOL0     H 9214   4.712   1.424   5.089  0.0712 -0.2518 -2.1327
  809MOL0     H 9215   4.823   1.336   5.289 -0.7051 -0.8297  1.3146
  810MOL0     O 9216   2.569   1.877   5.150 -0.2022  0.4242  0.0717
  810MOL0     C 9217   2.650   1.794   5.112  0.0891 -0.3078 -0.9140
  810MOL0     O 9218   2.779   1.766   5.159  1.1698 -1.0505 -0.1051
  810MOL0     C 9219   2.827   1.855   5.254  1.4200  0.4773  0.6051
  810MOL0     C 9220   2.931   1.943   5.219  0.2595  0.8973  0.7664
  810MOL0     C 9221   2.968   2.049   5.295  0.7207  0.7353  0.6606
  810MOL0     C 9222   2.900   2.071   5.410  0.7640  0.6488  0.4187
  810MOL0     O 9223   2.918   2.176   5.500  1.1960  0.4557  0.0444
  810MOL0     C 9224   3.053   2.225   5.514  0.3394 -0.7031 -0.0039
  810MOL0     C 9225   3.144   2.128   5.589  0.5069 -0.6847  0.2924
  810MOL0     C 9226   3.280   2.170   5.548  0.6230  0.4350  0.0861
  810MOL0     C 9227   3.391   2.130   5.652 -0.2606 -0.7116  0.1598
  810MOL0     C 9228   3.537   2.157   5.599 -0.0540 -0.1320 -0.2506
  810MOL0     C 9229   3.633   2.168   5.718  0.7557 -0.2863 -0.3599
  810MOL0     C 9230   3.778   2.175   5.667  0.7030  0.6310  0.1524
  810MOL0     C 9231   3.827   2.297   5.597  0.3073  0.0884  0.4674
  810MOL0     N 9232   3.966   2.282   5.569 -0.1717 -0.7060  0.1484
  810MOL0     C 9233   4.031   2.235   5.452  0.7658  0.3205 -0.6717
  810MOL0     C 9234   4.165   2.223   5.485  0.4432 -0.7191 -0.3468
  810MOL0     C 9235   4.263   2.138   5.421 -0.2236  1.1810  0.0409
  810MOL0     C 9236   4.338   2.202   5.307 -0.3291  0.5413 -0.0110
  810MOL0     C 9237   4.470   2.268   5.367  0.3225  0.1129 -1.1683
  810MOL0     C 9238   4.453   2.351   5.483 -0.1427 -0.3032  0.2456
  810MOL0     O 9239   4.342   2.442   5.478 -0.6906 -0.3858  0.2225
  810MOL0     C 9240   4.350   2.575   5.502 -0.9544  0.4830  0.1654
  810MOL0     C 9241   4.444   2.649   5.441 -0.3412 -0.9323 -0.4344
  810MOL0     C 9242   4.438   2.791   5.441 -0.6522 -0.2149  0.5583
  810MOL0     C 9243   4.536   2.868   5.349 -0.1323 -0.1759 -0.1599
  810MOL0     C 9244   4.336   2.860   5.511 -0.0075  0.7021 -0.2182
  810MOL0     C 9245   4.303   3.013   5.516  0.7666 -0.3994  0.2695
  810MOL0     O 9246   4.180   3.054   5.558  0.3349  0.0678 -0.5848
  810MOL0     C 9247   4.147   3.187   5.553  1.3187 -0.5523  0.0508
  810MOL0     C 9248   4.238   3.300   5.575  0.3518  0.5607  0.7670
  810MOL0     C 9249   4.190   3.437   5.558 -0.2328 -0.2131 -0.1265
  810MOL0     C 9250   4.047   3.451   5.551  0.5021 -0.2504  1.4841
  810MOL0     O 9251   3.992   3.582   5.557  0.4671 -0.5137  0.3650
  810MOL0     C 9252   3.863   3.598   5.499 -0.4028  0.0956 -0.3630
  810MOL0     C 9253   3.824   3.754   5.501 -0.0457 -0.2735 -0.1813
  810MOL0     C 9254   3.690   3.778   5.434  0.4130 -0.4594  0.0051
  810MOL0     C 9255   3.669   3.730   5.292  1.5300 -0.2857  0.2177
  810MOL0     C 9256   3.550   3.797   5.229 -0.2285  0.8027 -0.1939
  810MOL0     C 9257   3.409   3.762   5.280  0.6446 -0.6220  0.2258
  810MOL0     C 9258   3.293   3.813   5.185 -0.7168  0.4141  0.7756
  810MOL0     C 9259   3.294   3.964   5.169  0.3765 -0.8415 -0.0052
  810MOL0    Cl 9260   3.187   3.988   5.037  0.7365 -0.1212 -0.3668
  810MOL0     C 9261   3.958   3.343   5.566 -0.0477 -0.6534 -0.6334
  810MOL0     C 9262   4.007   3.215   5.557 -1.1497  0.7482 -0.1005
  810MOL0     O 9263   4.387   3.088   5.470 -0.0215  0.4987 -0.0621
  810MOL0     C 9264   4.250   2.776   5.589  0.9271  0.1392  0.7251
  810MOL0     C 9265   4.252   2.637   5.571 -0.4355  0.0574  0.5721
  810MOL0     N 9266   4.179   2.278   5.612  0.0300 -0.0808  0.5291
  810MOL0     N 9267   4.063   2.313   5.658  0.7860  0.4975  0.1663
  810MOL0     C 9268   2.795   1.989   5.450 -0.2136 -0.2667 -0.9990
  810MOL0     C 9269   2.757   1.876   5.372 -0.2449  0.1404 -0.3929
  810MOL0     C 9270   2.594   1.688   5.029  0.3474 -0.3112  0.1698
  810MOL0     C 9271   2.451   1.658   5.025 -0.8093  1.2091 -0.8554
  810MOL0     C 9272   2.398   1.562   4.933  0.1136  0.0355  0.9304
  810MOL0     C 9273   2.485   1.502   4.847  0.4535 -0.4982 -0.6530
  810MOL0     O 9274   2.448   1.416   4.745  0.4963  0.5551  0.6985
  810MOL0     C 9275   2.309   1.404   4.702  0.0369  0.0607  0.7538
  810MOL0     C 9276   2.249   1.282   4.766 -0.5604 -0.1572  0.4103
  810MOL0     C 9277   2.088   1.288   4.749 -0.5301  0.3016 -0.1214
  810MOL0     C 9278   2.030   1.156   4.786 -0.4159  0.5652 -0.8203
  810MOL0     C 9279   2.041   1.132   4.935  0.3330 -0.3575  0.2644
  810MOL0     C 9280   2.017   1.107   5.051  0.3071 -1.3282 -0.3692
  810MOL0     C 9281   2.620   1.534   4.849  0.2557  0.2242  0.9058
  810MOL0     C 9282   2.677   1.632   4.927  0.1476  0.2260 -0.4234
  810MOL0     H 9283   2.981   1.926   5.124  1.2847  0.0775  1.4407
  810MOL0     H 9284   3.046   2.113   5.254 -0.3576  1.3319 -0.5210
  810MOL0     H 9285   3.089   2.251   5.414 -2.5009  0.3917 -0.8469
  810MOL0     H 9286   3.042   2.312   5.579 -0.5040 -1.1931  0.5302
  810MOL0     H 9287   3.121   2.135   5.696 -4.6900 -1.7455 -0.4663
  810MOL0     H 9288   3.129   2.024   5.560 -4.6164  0.1867 -1.1814
  810MOL0     H 9289   3.290   2.114   5.455  2.2957  0.5819  0.1485
  810MOL0     H 9290   3.279   2.276   5.519 -0.6775  0.5906  0.6106
  810MOL0     H 9291   3.372   2.187   5.743  0.1157 -1.4147  0.6940
  810MOL0     H 9292   3.376   2.024   5.675 -0.9775 -0.8181 -0.7648
  810MOL0     H 9293   3.568   2.071   5.540 -2.8080  0.8043 -3.3878
  810MOL0     H 9294   3.533   2.240   5.528 -1.7814  1.3281  1.4326
  810MOL0     H 9295   3.609   2.260   5.772 -3.0920 -1.4460  0.2116
  810MOL0     H 9296   3.608   2.088   5.788  0.0004 -0.1458 -0.4506
  810MOL0     H 9297   3.837   2.161   5.758 -1.9243 -1.8905  1.6259
  810MOL0     H 9298   3.784   2.076   5.620 -1.0326  0.3422  0.4822
  810MOL0     H 9299   3.810   2.388   5.656  1.2881  0.4562  0.1986
  810MOL0     H 9300   3.772   2.317   5.505 -0.7309  1.7272  1.3897
  810MOL0     H 9301   3.992   2.184   5.364 -0.5001 -0.9033  0.5477
  810MOL0     H 9302   4.329   2.100   5.500  2.2048  0.9865 -1.9821
  810MOL0     H 9303   4.226   2.039   5.394 -0.1934 -0.6060  5.4265
  810MOL0     H 9304   4.266   2.255   5.243 -0.3645 -3.1786 -3.4285
  810MOL0     H 9305   4.372   2.119   5.245  2.5835 -0.1891  2.3645
  810MOL0     H 9306   4.521   2.313   5.281 -1.0773 -0.4034 -2.3111
  810MOL0     H 9307   4.528   2.180   5.398  0.5139  0.2820 -1.0422
  810MOL0     H 9308   4.548   2.404   5.494 -0.5645  0.5303  0.0238
  810MOL0     H 9309   4.430   2.284   5.566 -0.6622 -4.7857 -3.1830
  810MOL0     H 9310   4.524   2.606   5.382 -0.0522 -1.3837  0.2624
  810MOL0     H 9311   4.475   2.910   5.269 -1.1641  0.8899  1.1396
  810MOL0     H 9312   4.586   2.939   5.417  0.6604 -1.5202  0.7132
  810MOL0     H 9313   4.612   2.811   5.295  0.6033 -2.1127  2.6605
  810MOL0     H 9314   4.339   3.289   5.614  0.3967  0.1066  0.5346
  810MOL0     H 9315   4.260   3.520   5.554 -0.1469 -0.2573  0.3623
  810MOL0     H 9316   3.877   3.565   5.396  2.1791  3.4269 -1.2601
  810MOL0     H 9317   3.789   3.538   5.553 -1.0219  0.7474 -0.4676
  810MOL0     H 9318   3.824   3.786   5.606 -0.3270  0.5264 -0.4184
  810MOL0     H 9319   3.901   3.810   5.449 -1.2854  2.8163  1.0714
  810MOL0     H 9320   3.668   3.886   5.436  2.8411  0.1705 -1.7799
  810MOL0     H 9321   3.621   3.729   5.502  2.5755 -3.0175  0.4903
  810MOL0     H 9322   3.756   3.765   5.237  0.9402  0.8025 -0.0615
  810MOL0     H 9323   3.660   3.621   5.287  1.0710 -0.2505  0.2072
  810MOL0     H 9324   3.543   3.762   5.126  1.9640 -0.5937  0.0699
  810MOL0     H 9325   3.572   3.903   5.244 -0.6238  0.5590  2.7275
  810MOL0     H 9326   3.399   3.655   5.302 -1.7222 -0.5206 -0.0920
  810MOL0     H 9327   3.396   3.809   5.378 -0.4015 -1.4868  0.5225
  810MOL0     H 9328   3.198   3.787   5.233 -1.3678  0.6852 -0.3211
  810MOL0     H 9329   3.308   3.759   5.091  1.6406  0.5856  0.9933
  810MOL0     H 9330   3.390   4.004   5.136  1.0742 -0.2876  2.5133
  810MOL0     H 9331   3.261   4.011   5.262 -0.1608 -2.2231  0.5330
  810MOL0     H 9332   3.850   3.347   5.582 -0.2378 -3.9217 -0.4280
  810MOL0     H 9333   3.934   3.135   5.550 -1.3935  0.9892 -0.3708
  810MOL0     H 9334   4.169   2.815   5.649 -0.7986 -0.5833 -0.9995
  810MOL0     H 9335   4.171   2.570   5.598  1.9502 -2.3090  2.3022
  810MOL0     H 9336   2.740   2.010   5.541  1.1351  1.1545 -0.4504
  810MOL0     H 9337   2.677   1.807   5.398  0.8191 -1.4160 -1.1599
  810MOL0     H 9338   2.379   1.708   5.088  0.4643  0.3006  1.4350
  810MOL0     H 9339   2.294   1.534   4.921 -0.0939  0.4862  1.6479
  810MOL0     H 9340   2.245   1.492   4.713  1.3107  0.8054  2.8085
  810MOL0     H 9341   2.303   1.378   4.596 -0.4989  0.0026  0.7943
  810MOL0     H 9342   2.274   1.268   4.871 -0.4311 -4.3339 -0.0117
  810MOL0     H 9343   2.283   1.196   4.707 -2.5308 -0.5362 -0.2641
  810MOL0     H 9344   2.071   1.315   4.644  0.4798  4.8345  0.6847
  810MOL0     H 9345   2.047   1.367   4.812 -1.2670  0.2743 -0.5601
  810MOL0     H 9346   2.073   1.065   4.741  0.2868  0.7241 -0.4897
  810MOL0     H 9347   1.921   1.154   4.776 -0.6888  0.6195  1.7010
  810MOL0     H 9348   2.009   1.092   5.157  0.3048  0.2530 -0.1243
  810MOL0     H 9349   2.689   1.482   4.783 -0.1796 -1.4348  1.7173
  810MOL0     H 9350   2.784   1.648   4.923  0.3072  0.0925  1.9895
  811MOL0     O 9351   8.798   1.926  10.294 -0.4921  0.7091 -0.2780
  811MOL0     C 9352   8.703   1.939  10.219  0.6967 -0.4355  0.5121
  811MOL0     O 9353   8.693   2.008  10.102 -0.4792 -0.3799 -0.0180
  811MOL0     C 9354   8.806   2.072  10.051  0.5247  0.0028 -0.2126
  811MOL0     C 9355   8.769   2.157   9.938 -0.4758 -0.0584  0.0642
  811MOL0     C 9356   8.876   2.238   9.888 -0.4449 -0.0347 -0.1823
  811MOL0     C 9357   9.000   2.244   9.940 -0.7971  0.0909  0.2640
  811MOL0     O 9358   9.095   2.320   9.887  0.3290 -0.0699 -0.0078
  811MOL0     C 9359   9.082   2.469   9.906 -0.6582  0.0335  0.4072
  811MOL0     C 9360   9.083   2.495  10.059 -0.1289 -0.1593  0.6486
  811MOL0     C 9361   9.226   2.486  10.125 -0.3094  0.2568  0.0850
  811MOL0     C 9362   9.211   2.474  10.275 -0.2624 -0.0896 -0.0678
  811MOL0     C 9363   9.342   2.434  10.343  0.4342 -0.3801  0.6498
  811MOL0     C 9364   9.343   2.280  10.360  0.0589 -0.3592  0.8478
  811MOL0     C 9365   9.232   2.245  10.460  0.3938 -0.3482 -0.1010
  811MOL0     C 9366   9.255   2.114  10.539  0.0242 -0.3362 -1.0678
  811MOL0     N 9367   9.356   2.131  10.645  0.1282  0.5344  0.0107
  811MOL0     C 9368   9.338   2.195  10.755 -0.5169 -0.7508 -0.4543
  811MOL0     C 9369   9.447   2.185  10.833 -0.8632 -0.1028 -0.5555
  811MOL0     C 9370   9.463   2.222  10.978  0.8287 -0.0246 -0.8273
  811MOL0     C 9371   9.615   2.228  11.023 -0.7106 -0.4701  0.0970
  811MOL0     C 9372   9.641   2.261  11.179 -0.0230 -1.5369  0.0937
  811MOL0     C 9373   9.638   2.143  11.271  0.0466  0.2468 -0.5682
  811MOL0     O 9374   9.661   2.180  11.404  0.3709  0.6136 -0.2420
  811MOL0     C 9375   9.643   2.083  11.506 -0.3956 -0.5932  0.5541
  811MOL0     C 9376   9.647   2.140  11.629  0.6326  0.7370 -0.5721
  811MOL0     C 9377   9.640   2.062  11.751  1.0132 -0.8321  0.5049
  811MOL0     C 9378   9.638   2.143  11.873  0.0006 -0.3736  0.2392
  811MOL0     C 9379   9.632   1.923  11.741 -0.2327  0.5084  0.2353
  811MOL0     C 9380   9.611   1.830  11.859  0.4919 -0.5989 -0.5571
  811MOL0     O 9381   9.606   1.886  11.988  0.4117 -0.0269 -0.7680
  811MOL0     C 9382   9.603   1.814  12.099  0.7114  0.3198 -0.3703
  811MOL0     C 9383   9.702   1.851  12.187 -0.2290 -0.0316 -0.6462
  811MOL0     C 9384   9.716   1.781  12.308  1.1296 -0.3407 -1.7573
  811MOL0     C 9385   9.631   1.671  12.343  0.4509  0.1311  0.1862
  811MOL0     O 9386   9.657   1.612  12.465 -0.1062  0.5077  0.4358
  811MOL0     C 9387   9.548   1.528  12.513  0.0443  0.1748 -0.3515
  811MOL0     C 9388   9.429   1.617  12.564 -0.1651  0.0245 -0.9061
  811MOL0     C 9389   9.288   1.552  12.566  1.0068 -0.8243  0.4375
  811MOL0     C 9390   9.169   1.649  12.539 -0.8617 -0.6860 -0.2281
  811MOL0     C 9391   9.040   1.580  12.558 -0.2265  0.1744 -0.8672
  811MOL0     C 9392   9.017   1.511  12.690  0.2517 -0.0231 -0.3991
  811MOL0     C 9393   8.867   1.487  12.697 -1.1825 -0.4748 -0.1700
  811MOL0     C 9394   8.834   1.414  12.823 -0.8845  0.5140 -0.2592
  811MOL0    Cl 9395   8.870   1.508  12.975 -0.1498  0.2817 -0.0259
  811MOL0     C 9396   9.513   1.641  12.259 -0.5885 -0.0052 -0.0121
  811MOL0     C 9397   9.507   1.710  12.136 -0.3214  0.1259  0.2131
  811MOL0     O 9398   9.609   1.709  11.836  0.3645  0.0747  0.7933
  811MOL0     C 9399   9.633   1.866  11.610 -0.1739 -0.2106  0.7587
  811MOL0     C 9400   9.632   1.945  11.491 -0.2902  0.5629  0.0378
  811MOL0     N 9401   9.535   2.118  10.755  0.1979  0.3802  0.1117
  811MOL0     N 9402   9.482   2.089  10.643 -0.3712 -1.2957  0.5279
  811MOL0     C 9403   9.033   2.160  10.044  0.9679 -0.1650 -0.0612
  811MOL0     C 9404   8.939   2.076  10.098 -0.6925  0.7321  0.5430
  811MOL0     C 9405   8.574   1.880  10.270 -1.1770  0.0912  0.2506
  811MOL0     C 9406   8.453   1.939  10.233 -0.9413 -0.6294  0.2202
  811MOL0     C 9407   8.330   1.876  10.271  0.4596  0.2792  0.4199
  811MOL0     C 9408   8.323   1.760  10.341 -0.1143  0.3741  0.8534
  811MOL0     O 9409   8.204   1.700  10.386 -0.4855  0.3377  0.1047
  811MOL0     C 9410   8.080   1.754  10.336  0.3360  0.0600 -0.3860
  811MOL0     C 9411   7.966   1.679  10.407 -0.0417 -0.3368  0.1939
  811MOL0     C 9412   7.822   1.715  10.366 -0.6773 -0.0923 -0.3667
  811MOL0     C 9413   7.713   1.616  10.426  0.1097 -0.3474  0.1049
  811MOL0     C 9414   7.731   1.587  10.571 -0.2887 -0.2990  0.7890
  811MOL0     C 9415   7.740   1.558  10.694 -0.4364 -0.5556  0.1005
  811MOL0     C 9416   8.442   1.711  10.386 -0.2241 -0.7385  0.0205
  811MOL0     C 9417   8.570   1.765  10.341 -0.1926  0.8460 -0.6809
  811MOL0     H 9418   8.672   2.158   9.889 -0.1502  1.9450 -0.6266
  811MOL0     H 9419   8.844   2.302   9.806  5.6501  0.5825 -2.6348
  811MOL0     H 9420   9.166   2.521   9.860 -1.3121  0.3322 -0.4828
  811MOL0     H 9421   8.994   2.501   9.849 -0.0124  0.8635 -0.1477
  811MOL0     H 9422   9.058   2.599  10.082  2.4631 -0.0102  3.3976
  811MOL0     H 9423   9.003   2.431  10.098 -1.5362  0.7774 -0.5932
  811MOL0     H 9424   9.257   2.387  10.093 -1.0472 -0.2370  0.8423
  811MOL0     H 9425   9.290   2.572  10.102 -0.6653  0.0959 -1.6413
  811MOL0     H 9426   9.178   2.568  10.321  1.4587  0.2763  0.5060
  811MOL0     H 9427   9.135   2.397  10.293  0.0374 -0.9429 -2.2309
  811MOL0     H 9428   9.427   2.473  10.286  1.0748  1.4923  2.7139
  811MOL0     H 9429   9.348   2.476  10.444 -1.6323 -0.6359  0.9359
  811MOL0     H 9430   9.321   2.233  10.263  2.6023 -0.6239  0.3412
  811MOL0     H 9431   9.438   2.247  10.401  0.6566  1.5035  1.0782
  811MOL0     H 9432   9.218   2.331  10.526  3.2925 -0.3080  0.6210
  811MOL0     H 9433   9.145   2.236  10.394  2.1830  1.6987 -3.0221
  811MOL0     H 9434   9.286   2.034  10.472 -2.1152 -2.7028  0.5634
  811MOL0     H 9435   9.170   2.069  10.591 -0.1838  0.1224 -1.0104
  811MOL0     H 9436   9.250   2.251  10.784 -0.1117  0.2206 -1.0656
  811MOL0     H 9437   9.403   2.311  11.000 -0.9749 -1.4007  0.1035
  811MOL0     H 9438   9.415   2.152  11.046  1.3717  0.4143  0.0178
  811MOL0     H 9439   9.663   2.310  10.968  4.5759 -1.5328  2.4545
  811MOL0     H 9440   9.647   2.128  10.989  0.3650  0.1931 -0.9199
  811MOL0     H 9441   9.565   2.339  11.198  1.2930  0.2945 -1.7361
  811MOL0     H 9442   9.741   2.305  11.177 -1.5672  2.4234 -0.3752
  811MOL0     H 9443   9.713   2.069  11.241 -2.0595 -2.1138 -0.3753
  811MOL0     H 9444   9.545   2.085  11.271  0.8867 -1.1525 -1.3707
  811MOL0     H 9445   9.646   2.248  11.633  0.7700  0.7763 -1.3813
  811MOL0     H 9446   9.717   2.125  11.947  0.9114  2.1354 -0.0469
  811MOL0     H 9447   9.677   2.243  11.850  0.6173 -0.7553 -0.4304
  811MOL0     H 9448   9.539   2.141  11.919  0.9514  0.0407  2.4110
  811MOL0     H 9449   9.763   1.937  12.161 -0.3522 -0.1343 -1.2985
  811MOL0     H 9450   9.805   1.793  12.369 -0.1716  0.1627  0.1335
  811MOL0     H 9451   9.526   1.455  12.434  0.5807 -0.1602 -0.1945
  811MOL0     H 9452   9.584   1.468  12.596 -3.0793  0.8156  1.6083
  811MOL0     H 9453   9.456   1.644  12.667  0.5253  1.6462 -1.4821
  811MOL0     H 9454   9.426   1.717  12.520 -0.9563  2.3353  3.7651
  811MOL0     H 9455   9.277   1.497  12.660  0.6564  0.3777  1.1187
  811MOL0     H 9456   9.287   1.489  12.476 -0.3163  2.3376 -1.9553
  811MOL0     H 9457   9.170   1.725  12.618 -0.5711 -0.3253 -0.5808
  811MOL0     H 9458   9.199   1.685  12.440  1.5628 -2.4684 -0.2274
  811MOL0     H 9459   9.032   1.500  12.484  1.8849  0.3894 -1.3900
  811MOL0     H 9460   8.958   1.649  12.534 -0.7566 -0.6857 -1.5898
  811MOL0     H 9461   9.056   1.410  12.702 -0.1706  0.0858  2.4151
  811MOL0     H 9462   9.053   1.572  12.773  3.4251 -3.2956  0.9373
  811MOL0     H 9463   8.834   1.440  12.604  0.5439 -0.0458 -1.0359
  811MOL0     H 9464   8.828   1.588  12.710 -4.3118 -1.6813  0.7517
  811MOL0     H 9465   8.902   1.328  12.828 -0.0594  1.2132  2.2832
  811MOL0     H 9466   8.728   1.386  12.831 -1.0562  1.0818 -0.4771
  811MOL0     H 9467   9.442   1.562  12.280  0.9030 -1.2740  0.4082
  811MOL0     H 9468   9.423   1.704  12.068  1.9665 -0.4479 -2.8371
  811MOL0     H 9469   9.639   1.757  11.605  1.6098 -0.1902  1.6732
  811MOL0     H 9470   9.633   1.901  11.391  1.5942  1.8233 -0.5552
  811MOL0     H 9471   9.132   2.161  10.089 -0.2034 -4.7106  3.3765
  811MOL0     H 9472   8.970   2.035  10.193 -1.8045 -2.8527 -0.4927
  811MOL0     H 9473   8.448   2.034  10.180 -1.1637 -0.2118  0.9767
  811MOL0     H 9474   8.242   1.917  10.223  0.1689 -2.0505 -1.1406
  811MOL0     H 9475   8.068   1.862  10.342 -0.6316 -0.0823  1.0078
  811MOL0     H 9476   8.055   1.749  10.230 -1.5408  5.0762 -0.4454
  811MOL0     H 9477   7.974   1.688  10.516 -3.6353  2.8678  0.4265
  811MOL0     H 9478   7.987   1.575  10.382 -1.9266 -0.9610  1.0003
  811MOL0     H 9479   7.806   1.721  10.257  1.2534  0.7830 -0.6351
  811MOL0     H 9480   7.803   1.814  10.408 -0.6031 -1.3649  2.9231
  811MOL0     H 9481   7.721   1.517  10.381  1.8867 -0.6444  0.9663
  811MOL0     H 9482   7.619   1.665  10.402  0.4639  1.4446  2.0078
  811MOL0     H 9483   7.748   1.525  10.795  0.7653 -2.9935 -0.6945
  811MOL0     H 9484   8.429   1.614  10.433 -0.2535 -0.3901  0.7448
  811MOL0     H 9485   8.661   1.715  10.375 -0.5420  0.8234  0.2506
  812MOL0     O 9486   9.907   1.324   6.305  0.9846 -0.5226 -0.4626
  812MOL0     C 9487   9.992   1.273   6.237  0.4477 -0.5616 -0.4261
  812MOL0     O 9488  10.098   1.344   6.180 -0.2275  0.0376 -0.0188
  812MOL0     C 9489  10.108   1.478   6.203  0.3768 -0.2251 -0.4080
  812MOL0     C 9490  10.105   1.573   6.097 -0.6186  1.0752  0.3458
  812MOL0     C 9491  10.123   1.705   6.122  0.0418 -0.3006 -0.8100
  812MOL0     C 9492  10.148   1.754   6.253 -0.9990 -0.3199  0.5064
  812MOL0     O 9493  10.186   1.889   6.277  0.0918  0.5013  0.6878
  812MOL0     C 9494  10.083   1.979   6.245 -0.7430 -0.2704  0.3488
  812MOL0     C 9495  10.080   2.086   6.354 -0.7660 -0.1387 -0.4396
  812MOL0     C 9496  10.225   2.158   6.343  0.6675  0.3171  0.4881
  812MOL0     C 9497  10.228   2.287   6.423 -0.4553  0.4591  0.3110
  812MOL0     C 9498  10.357   2.360   6.426 -0.0364 -0.8499  0.1397
  812MOL0     C 9499  10.403   2.432   6.298 -0.3334  0.4252  0.0690
  812MOL0     C 9500  10.545   2.504   6.321  0.2001  0.0078  0.3832
  812MOL0     C 9501  10.524   2.660   6.321 -0.0458 -1.2475  0.7171
  812MOL0     N 9502  10.446   2.728   6.427 -0.2101 -0.1847 -0.0877
  812MOL0     C 9503  10.471   2.709   6.556  0.3304 -0.0452 -0.3039
  812MOL0     C 9504  10.408   2.808   6.629 -0.1460 -0.8767 -0.1885
  812MOL0     C 9505  10.378   2.820   6.778 -0.6380  0.1395 -0.5544
  812MOL0     C 9506  10.451   2.940   6.840  0.3781  0.5078 -0.5662
  812MOL0     C 9507  10.474   2.929   6.991 -0.2607  0.1007 -0.2595
  812MOL0     C 9508  10.596   2.842   7.026 -0.3647  0.6977 -0.7227
  812MOL0     O 9509  10.597   2.716   6.963  0.0699 -0.5525 -0.0467
  812MOL0     C 9510  10.706   2.639   6.975 -0.6243  0.5995 -0.5390
  812MOL0     C 9511  10.810   2.643   7.062 -1.2429 -0.6751 -1.3306
  812MOL0     C 9512  10.925   2.572   7.074  0.5382  0.0801  0.4728
  812MOL0     C 9513  11.020   2.609   7.190  0.1022  0.2330  0.4725
  812MOL0     C 9514  10.934   2.457   6.997  0.0184 -0.8537  0.5387
  812MOL0     C 9515  11.047   2.349   6.995  0.2211 -0.2519  1.0919
  812MOL0     O 9516  11.077   2.300   6.875  0.0249  0.6119  0.2237
  812MOL0     C 9517  11.184   2.216   6.862 -0.5934  0.4252 -0.4627
  812MOL0     C 9518  11.316   2.248   6.866  0.1360  0.8785  0.0573
  812MOL0     C 9519  11.417   2.159   6.861 -0.7930  0.4228  0.1063
  812MOL0     C 9520  11.393   2.022   6.861  0.1497 -0.4894 -0.0935
  812MOL0     O 9521  11.482   1.922   6.849  0.3003  1.2013  0.1034
  812MOL0     C 9522  11.613   1.919   6.908 -0.0579 -0.1705  0.7370
  812MOL0     C 9523  11.692   1.787   6.874  0.7165 -0.3654 -0.7304
  812MOL0     C 9524  11.698   1.739   6.726  0.1895  0.4125  0.2075
  812MOL0     C 9525  11.734   1.832   6.611 -0.0357  0.1515 -0.5425
  812MOL0     C 9526  11.716   1.755   6.474  0.0629 -0.2823  0.1878
  812MOL0     C 9527  11.727   1.844   6.352 -0.5646 -0.0538 -0.6540
  812MOL0     C 9528  11.878   1.895   6.350  0.2575 -0.2604  0.2667
  812MOL0     C 9529  11.896   1.991   6.231  0.3761  0.5772  0.3999
  812MOL0    Cl 9530  12.075   2.009   6.202  0.0201 -0.1176 -0.1773
  812MOL0     C 9531  11.254   1.982   6.857 -0.6451 -0.7006 -0.6234
  812MOL0     C 9532  11.154   2.081   6.862  0.0493 -0.2133 -0.2246
  812MOL0     O 9533  11.103   2.325   7.099  0.2855  0.5237 -0.9444
  812MOL0     C 9534  10.837   2.442   6.890 -0.0714 -0.5775 -0.6098
  812MOL0     C 9535  10.729   2.534   6.884 -0.0278 -0.0704 -0.4259
  812MOL0     N 9536  10.344   2.892   6.532 -0.7006 -0.9306 -0.9057
  812MOL0     N 9537  10.369   2.840   6.415  1.1142  0.4150 -0.2970
  812MOL0     C 9538  10.171   1.663   6.350 -0.4884 -0.1384 -1.2887
  812MOL0     C 9539  10.140   1.523   6.327  0.5763 -0.1627 -0.1025
  812MOL0     C 9540   9.980   1.127   6.225 -0.4717  0.6003 -0.0034
  812MOL0     C 9541  10.048   1.052   6.125 -0.3267 -0.2422  0.5678
  812MOL0     C 9542  10.029   0.918   6.109 -0.4511 -0.0582  0.0054
  812MOL0     C 9543   9.943   0.846   6.188 -0.3827 -0.0937 -0.5743
  812MOL0     O 9544   9.934   0.700   6.161 -0.3329 -0.5640 -0.6860
  812MOL0     C 9545   9.850   0.612   6.247  0.2460 -0.4989  0.5332
  812MOL0     C 9546   9.856   0.466   6.204 -1.0398 -0.2111 -0.2273
  812MOL0     C 9547   9.770   0.386   6.304 -0.2981  0.9198  0.3209
  812MOL0     C 9548   9.750   0.239   6.256 -0.0895  0.4673  0.0973
  812MOL0     C 9549   9.690   0.225   6.127  0.3683  0.6066  0.1115
  812MOL0     C 9550   9.633   0.217   6.022  0.0782  0.8545 -0.2721
  812MOL0     C 9551   9.875   0.911   6.295  0.2201 -0.4258  0.2330
  812MOL0     C 9552   9.892   1.051   6.301  0.9966 -0.4726  0.4556
  812MOL0     H 9553  10.075   1.544   5.996  1.9640  2.0963 -0.8096
  812MOL0     H 9554  10.127   1.771   6.035 -2.1814 -0.7844 -1.3517
  812MOL0     H 9555  10.110   2.030   6.152  0.5897  1.4186  1.5971
  812MOL0     H 9556   9.986   1.930   6.258 -0.2825 -1.7432 -1.3943
  812MOL0     H 9557   9.997   2.154   6.333 -1.3385 -0.3690  1.0074
  812MOL0     H 9558  10.059   2.039   6.450  3.6061  0.2435  0.9476
  812MOL0     H 9559  10.308   2.093   6.371  0.8059  1.4265  2.8575
  812MOL0     H 9560  10.218   2.187   6.238 -2.3307 -0.4597  0.3829
  812MOL0     H 9561  10.154   2.359   6.387 -0.4076 -1.2231 -3.5658
  812MOL0     H 9562  10.215   2.255   6.527  2.6896 -0.1676  0.6000
  812MOL0     H 9563  10.342   2.434   6.505  0.0701  0.4103 -0.9952
  812MOL0     H 9564  10.439   2.300   6.467 -1.5878 -0.9284  3.4891
  812MOL0     H 9565  10.421   2.350   6.227 -2.2902 -1.2220  1.3892
  812MOL0     H 9566  10.327   2.501   6.261  1.8421  0.7365 -4.5665
  812MOL0     H 9567  10.589   2.476   6.417 -2.0398 -0.7715  1.2536
  812MOL0     H 9568  10.613   2.481   6.239  1.2032  0.6113  1.0207
  812MOL0     H 9569  10.474   2.684   6.227  1.4385  0.0078  0.1946
  812MOL0     H 9570  10.618   2.716   6.316 -1.3620  1.2331  2.2005
  812MOL0     H 9571  10.520   2.619   6.592 -3.4355 -1.4832  1.6835
  812MOL0     H 9572  10.269   2.831   6.785 -0.5692  0.0648  0.7964
  812MOL0     H 9573  10.399   2.731   6.838  1.1366  1.9172  1.6256
  812MOL0     H 9574  10.401   3.033   6.812 -0.6848 -0.2595 -1.2782
  812MOL0     H 9575  10.547   2.946   6.786  0.5186 -2.3183 -0.7976
  812MOL0     H 9576  10.384   2.909   7.050  0.0018  1.8328  0.7970
  812MOL0     H 9577  10.511   3.027   7.023 -0.0506  0.0774 -0.4217
  812MOL0     H 9578  10.598   2.837   7.136  0.7187  2.0948 -0.6650
  812MOL0     H 9579  10.687   2.897   7.004  0.8087 -1.0511 -0.4224
  812MOL0     H 9580  10.789   2.722   7.134 -1.1093 -1.2410 -0.6523
  812MOL0     H 9581  11.058   2.522   7.244 -0.4799 -0.2012  0.1808
  812MOL0     H 9582  11.101   2.661   7.137 -0.4337 -1.2259 -1.9213
  812MOL0     H 9583  10.967   2.667   7.267 -1.8193 -0.0845 -0.5593
  812MOL0     H 9584  11.352   2.351   6.869  3.9991 -0.2366 -1.7863
  812MOL0     H 9585  11.518   2.197   6.851 -0.7519 -0.1146 -1.7970
  812MOL0     H 9586  11.685   1.992   6.869  1.1784 -2.7930 -2.2997
  812MOL0     H 9587  11.598   1.936   7.016  2.5789  3.2284  0.7384
  812MOL0     H 9588  11.792   1.796   6.918  0.3669 -2.3967  0.6162
  812MOL0     H 9589  11.641   1.708   6.930  1.3226 -0.8823 -0.8963
  812MOL0     H 9590  11.594   1.704   6.719  0.2584 -0.2671  1.9555
  812MOL0     H 9591  11.765   1.654   6.711  0.9366  1.0099  0.1031
  812MOL0     H 9592  11.661   1.914   6.617 -1.9446 -1.5193  0.2705
  812MOL0     H 9593  11.834   1.870   6.634 -0.1401 -0.2025  0.5596
  812MOL0     H 9594  11.624   1.697   6.471  0.8042 -1.4539 -2.4388
  812MOL0     H 9595  11.794   1.679   6.463 -0.4138 -0.4087 -3.3483
  812MOL0     H 9596  11.705   1.795   6.257 -2.3704  0.9600 -0.8081
  812MOL0     H 9597  11.663   1.928   6.379 -1.4029 -1.4827  2.2381
  812MOL0     H 9598  11.952   1.816   6.340 -0.1889 -1.2451  3.5529
  812MOL0     H 9599  11.900   1.948   6.443 -1.5162  1.2953 -0.1160
  812MOL0     H 9600  11.853   2.090   6.249  1.3071  1.0133  0.3103
  812MOL0     H 9601  11.849   1.960   6.138  0.3069  0.6561  0.4089
  812MOL0     H 9602  11.235   1.876   6.869  0.8950 -0.7217  2.8162
  812MOL0     H 9603  11.051   2.047   6.861  0.5401 -1.8119  0.0814
  812MOL0     H 9604  10.822   2.353   6.830  1.2009 -0.0482 -1.7775
  812MOL0     H 9605  10.652   2.541   6.808 -0.0468  1.0236 -0.3114
  812MOL0     H 9606  10.207   1.711   6.440  1.0443  2.6386 -3.2274
  812MOL0     H 9607  10.150   1.456   6.411 -0.7207  0.0967  0.2784
  812MOL0     H 9608  10.124   1.101   6.066 -0.6468  2.0263  1.9176
  812MOL0     H 9609  10.085   0.863   6.033 -0.3366  0.9938 -0.6830
  812MOL0     H 9610   9.898   0.623   6.345  3.8801  1.6614 -1.2507
  812MOL0     H 9611   9.746   0.646   6.247  0.1458 -0.6390  3.0580
  812MOL0     H 9612   9.961   0.436   6.196 -1.2864 -1.5465  1.1221
  812MOL0     H 9613   9.794   0.460   6.113 -2.0920 -3.0192  0.5599
  812MOL0     H 9614   9.668   0.425   6.310 -1.2073 -1.4157  1.3110
  812MOL0     H 9615   9.819   0.386   6.402  2.1717  1.7636 -0.8427
  812MOL0     H 9616   9.676   0.194   6.324 -1.1430  1.1954 -0.5347
  812MOL0     H 9617   9.842   0.181   6.262  0.8857  1.6771 -2.1763
  812MOL0     H 9618   9.583   0.207   5.928  0.3317 -2.0698 -0.2175
  812MOL0     H 9619   9.826   0.843   6.363 -1.9833  2.2964  1.5393
  812MOL0     H 9620   9.832   1.104   6.374 -1.6796 -0.8967 -1.2673
  813MOL0     O 9621   4.573   9.863   6.470  0.1321 -0.4954  0.8648
  813MOL0     C 9622   4.500   9.776   6.428  0.5026  0.7677 -0.0542
  813MOL0     O 9623   4.509   9.648   6.470 -0.2495  0.3805  0.5632
  813MOL0     C 9624   4.628   9.595   6.510  0.5826  0.1975 -0.1135
  813MOL0     C 9625   4.674   9.614   6.642 -0.4317  0.2572 -0.2573
  813MOL0     C 9626   4.798   9.562   6.687 -0.5863  0.3401  0.1444
  813MOL0     C 9627   4.873   9.475   6.602 -0.2257  0.1775 -0.1111
  813MOL0     O 9628   4.985   9.415   6.649  0.1599 -0.2315 -0.1751
  813MOL0     C 9629   5.102   9.382   6.565 -0.1403 -0.6126 -0.4198
  813MOL0     C 9630   5.156   9.505   6.498 -0.0372  0.5177 -0.5705
  813MOL0     C 9631   5.216   9.606   6.607 -0.2895  0.2235  1.0122
  813MOL0     C 9632   5.331   9.693   6.534  0.7937  0.4530  0.4783
  813MOL0     C 9633   5.412   9.785   6.618 -0.2261  0.0309 -0.9119
  813MOL0     C 9634   5.513   9.865   6.537  0.1371 -0.4555  0.1710
  813MOL0     C 9635   5.466   9.975   6.437  0.1810 -0.5349 -0.7551
  813MOL0     C 9636   5.445  10.110   6.506  0.0472 -1.3644 -0.6601
  813MOL0     N 9637   5.459  10.224   6.415 -0.0844  0.1281  0.0707
  813MOL0     C 9638   5.575  10.262   6.348  0.1350 -0.3454 -1.0493
  813MOL0     C 9639   5.542  10.365   6.264 -0.2903 -0.0301 -0.7558
  813MOL0     C 9640   5.630  10.465   6.173  0.5219 -0.1753 -0.1979
  813MOL0     C 9641   5.757  10.399   6.123  0.5680 -0.5259  0.1056
  813MOL0     C 9642   5.853  10.473   6.027 -0.5851 -0.4439  0.4618
  813MOL0     C 9643   5.908  10.603   6.093  0.4973  0.0318 -1.3722
  813MOL0     O 9644   5.821  10.702   6.052  0.3615 -0.2128  0.0091
  813MOL0     C 9645   5.835  10.827   6.101 -0.1377 -0.2135  0.5212
  813MOL0     C 9646   5.951  10.886   6.155 -0.0041 -0.2801  0.8716
  813MOL0     C 9647   5.945  11.017   6.206 -0.1655  0.0694 -0.4333
  813MOL0     C 9648   6.077  11.067   6.268 -0.2968 -0.1983 -0.6545
  813MOL0     C 9649   5.821  11.089   6.207 -0.0629  0.0675  0.6103
  813MOL0     C 9650   5.812  11.239   6.247 -1.1325 -0.4830 -0.4875
  813MOL0     O 9651   5.926  11.307   6.258 -0.4693  0.6680 -0.1394
  813MOL0     C 9652   5.916  11.422   6.329 -0.1762  0.0101 -0.2932
  813MOL0     C 9653   5.945  11.544   6.255  0.3646 -0.6969  0.1678
  813MOL0     C 9654   5.952  11.667   6.311 -0.0122 -0.2062 -0.1629
  813MOL0     C 9655   5.939  11.668   6.446  0.6157 -0.2195 -0.7795
  813MOL0     O 9656   5.961  11.783   6.519  0.1918  0.6852  0.2870
  813MOL0     C 9657   5.880  11.893   6.500  0.0682 -1.1339  0.6068
  813MOL0     C 9658   5.955  12.027   6.479  0.2111 -0.1532  0.4120
  813MOL0     C 9659   6.050  12.033   6.359  0.0238 -0.1088  0.4957
  813MOL0     C 9660   6.134  12.163   6.355  0.3136  0.0822  0.3552
  813MOL0     C 9661   6.269  12.144   6.271  0.7655  0.6750  0.8651
  813MOL0     C 9662   6.348  12.274   6.275  0.3916 -0.8506  0.8157
  813MOL0     C 9663   6.485  12.267   6.215 -0.8075 -0.0589  0.3512
  813MOL0     C 9664   6.491  12.220   6.066 -0.0506 -0.3541 -0.5072
  813MOL0    Cl 9665   6.649  12.248   5.983  0.2247 -0.2356  0.1489
  813MOL0     C 9666   5.922  11.552   6.526  0.6491  0.3341 -0.0251
  813MOL0     C 9667   5.910  11.426   6.468 -0.4865 -0.5008  0.8171
  813MOL0     O 9668   5.698  11.292   6.252 -0.4011  0.1245 -0.2536
  813MOL0     C 9669   5.706  11.017   6.158 -0.0168  0.1434 -0.2353
  813MOL0     C 9670   5.717  10.892   6.097 -0.3148  0.5378 -0.2999
  813MOL0     N 9671   5.403  10.372   6.274  0.6168  0.7325  0.2581
  813MOL0     N 9672   5.356  10.294   6.362  0.1695  1.1410 -0.3036
  813MOL0     C 9673   4.825   9.450   6.469 -0.3661 -0.5567 -0.3073
  813MOL0     C 9674   4.701   9.514   6.424 -0.0875  0.3037 -0.6715
  813MOL0     C 9675   4.383   9.815   6.343  0.2552  0.0708 -0.1062
  813MOL0     C 9676   4.329   9.708   6.261 -0.7574 -0.3953 -0.5477
  813MOL0     C 9677   4.242   9.750   6.165  0.3194  0.7171  0.6642
  813MOL0     C 9678   4.179   9.874   6.158  0.0917 -0.6246 -0.2087
  813MOL0     O 9679   4.071   9.908   6.085  0.1506  0.5646 -0.3392
  813MOL0     C 9680   3.997   9.794   6.035  0.3556  0.5418  0.0851
  813MOL0     C 9681   3.862   9.859   6.006 -0.3506 -0.3162  0.6894
  813MOL0     C 9682   3.781   9.791   5.907 -0.2018 -0.1655 -0.3266
  813MOL0     C 9683   3.745   9.658   5.948  0.0822  0.5884 -0.6301
  813MOL0     C 9684   3.688   9.592   5.831 -0.0245  0.3776  0.7270
  813MOL0     C 9685   3.644   9.552   5.723  0.9073  0.1601 -1.1261
  813MOL0     C 9686   4.243   9.976   6.237 -0.5005  0.3811 -0.5462
  813MOL0     C 9687   4.344   9.947   6.329 -0.1008  0.2857  0.2066
  813MOL0     H 9688   4.603   9.662   6.709 -1.7272 -2.2335  0.2810
  813MOL0     H 9689   4.828   9.563   6.791  3.4814  2.9115 -0.8068
  813MOL0     H 9690   5.179   9.351   6.637  0.1060 -2.3553 -1.3735
  813MOL0     H 9691   5.080   9.289   6.512  0.9866 -1.5308  0.6588
  813MOL0     H 9692   5.238   9.465   6.438 -1.9098  0.2694 -3.1454
  813MOL0     H 9693   5.095   9.560   6.425 -1.9213 -1.9362 -0.9936
  813MOL0     H 9694   5.150   9.681   6.652  0.9512  1.9558  0.0721
  813MOL0     H 9695   5.264   9.543   6.682 -1.2554 -1.3618  0.3510
  813MOL0     H 9696   5.398   9.620   6.488  0.4423  0.0847  0.5435
  813MOL0     H 9697   5.279   9.749   6.455 -2.0125 -1.5348  0.7739
  813MOL0     H 9698   5.342   9.855   6.665  1.0651  0.6352  0.1837
  813MOL0     H 9699   5.461   9.733   6.701 -0.1954  3.8003  1.7020
  813MOL0     H 9700   5.582   9.913   6.607  0.0922  1.5384 -1.0598
  813MOL0     H 9701   5.559   9.786   6.476  0.7641  0.7799 -1.0062
  813MOL0     H 9702   5.536   9.979   6.354 -1.1875 -1.9119 -2.0383
  813MOL0     H 9703   5.374   9.946   6.387  1.1360 -0.8057 -2.4062
  813MOL0     H 9704   5.512  10.136   6.588 -4.0495  0.8792  2.3460
  813MOL0     H 9705   5.345  10.097   6.549  1.1548  0.4458  2.8577
  813MOL0     H 9706   5.676  10.233   6.377  0.1196  1.5736  1.2220
  813MOL0     H 9707   5.574  10.505   6.088  1.3657 -1.0462 -1.1935
  813MOL0     H 9708   5.659  10.549   6.237  1.4404  0.7997 -1.8286
  813MOL0     H 9709   5.724  10.312   6.065 -2.9620 -1.1105  2.6685
  813MOL0     H 9710   5.815  10.358   6.206 -0.8463  2.2385  2.6822
  813MOL0     H 9711   5.795  10.495   5.937  1.5313  0.3761 -0.7727
  813MOL0     H 9712   5.942  10.417   5.997 -1.3694 -1.5494  0.1278
  813MOL0     H 9713   6.010  10.625   6.061  0.1664  0.2360 -2.3100
  813MOL0     H 9714   5.901  10.605   6.202 -2.6574  0.7883 -1.5108
  813MOL0     H 9715   6.042  10.827   6.159 -0.4665 -1.0348  0.5168
  813MOL0     H 9716   6.125  11.141   6.203  0.6764 -2.5045 -2.6757
  813MOL0     H 9717   6.047  11.106   6.366 -0.2949 -1.3780 -0.1689
  813MOL0     H 9718   6.157  10.993   6.273  1.3248  1.3705 -2.0185
  813MOL0     H 9719   5.982  11.528   6.155  1.2468  2.5864 -0.1749
  813MOL0     H 9720   6.003  11.747   6.259  0.4155 -1.1443 -1.2502
  813MOL0     H 9721   5.813  11.892   6.414 -1.3738 -1.5538  1.7054
  813MOL0     H 9722   5.814  11.900   6.586  1.1284 -3.7046  1.7474
  813MOL0     H 9723   5.901  12.121   6.469  3.8196  2.1150  0.4475
  813MOL0     H 9724   6.007  12.047   6.574 -2.2861  0.5952  1.7051
  813MOL0     H 9725   6.002  12.007   6.264  0.1910 -1.4378  0.7577
  813MOL0     H 9726   6.125  11.954   6.364 -0.1309 -0.6228 -2.7358
  813MOL0     H 9727   6.071  12.239   6.309  1.2764 -0.0231 -1.2368
  813MOL0     H 9728   6.161  12.194   6.456 -3.2322 -1.1746  1.8535
  813MOL0     H 9729   6.232  12.120   6.171  0.4104  1.0915  0.8947
  813MOL0     H 9730   6.332  12.058   6.297 -2.5999 -2.8239 -1.5224
  813MOL0     H 9731   6.288  12.356   6.234 -0.2379 -1.8617 -0.4029
  813MOL0     H 9732   6.372  12.303   6.377 -4.2943 -0.3619  2.0304
  813MOL0     H 9733   6.560  12.208   6.270  1.2830  3.9040  2.2136
  813MOL0     H 9734   6.521  12.371   6.209  3.1074 -1.2137  0.7589
  813MOL0     H 9735   6.421  12.279   6.005  3.3059  1.3621 -2.9835
  813MOL0     H 9736   6.466  12.114   6.054 -2.7075  0.4159 -2.9583
  813MOL0     H 9737   5.914  11.574   6.632 -0.2097  2.1006 -0.4105
  813MOL0     H 9738   5.879  11.334   6.515  0.7795 -0.6708  1.3676
  813MOL0     H 9739   5.612  11.071   6.159  0.8632  1.9006 -2.4300
  813MOL0     H 9740   5.628  10.841   6.061 -0.3986  1.6904 -1.8334
  813MOL0     H 9741   4.887   9.394   6.399  0.0373 -1.4784  0.7486
  813MOL0     H 9742   4.666   9.492   6.324 -0.6218 -0.9986 -0.2209
  813MOL0     H 9743   4.353   9.602   6.267  1.2209 -0.0689 -1.8047
  813MOL0     H 9744   4.207   9.673   6.096  2.4872  1.7186 -1.7425
  813MOL0     H 9745   4.058   9.761   5.951  1.3906  2.5824 -0.0273
  813MOL0     H 9746   3.996   9.716   6.111  1.3534  0.0678 -0.3729
  813MOL0     H 9747   3.889   9.955   5.960  2.8980  0.0221  2.9579
  813MOL0     H 9748   3.800   9.882   6.092 -2.2613  0.2967 -0.7722
  813MOL0     H 9749   3.842   9.791   5.816  1.9491  1.8511  1.0071
  813MOL0     H 9750   3.690   9.843   5.876  0.1205  1.1078  0.7779
  813MOL0     H 9751   3.673   9.658   6.030  1.7929 -2.0379  1.0237
  813MOL0     H 9752   3.824   9.598   5.993  0.9968  0.3655 -2.4355
  813MOL0     H 9753   3.606   9.529   5.626  0.3617 -1.4046 -0.5850
  813MOL0     H 9754   4.211  10.080   6.228 -0.1782  0.3182 -3.1137
  813MOL0     H 9755   4.384  10.029   6.388 -1.3608  2.4994 -1.8391
  814MOL0     O 9756   5.476  10.483   5.580  0.3382  0.5054  0.5519
  814MOL0     C 9757   5.486  10.477   5.698 -0.3662 -0.1687 -0.1378
  814MOL0     O 9758   5.478  10.573   5.783 -0.1462 -0.1553  0.7644
  814MOL0     C 9759   5.490  10.701   5.735 -0.0575 -0.0081 -0.3983
  814MOL0     C 9760   5.595  10.748   5.650  0.9603 -0.3532 -0.5056
  814MOL0     C 9761   5.605  10.885   5.604  0.6053  0.0469  0.7212
  814MOL0     C 9762   5.510  10.975   5.638 -0.5484  0.4374 -0.0191
  814MOL0     O 9763   5.521  11.108   5.585  0.2428  0.9321 -0.0744
  814MOL0     C 9764   5.462  11.209   5.669 -0.4012 -0.1212 -0.2239
  814MOL0     C 9765   5.475  11.347   5.605  1.2305 -0.7707 -0.1936
  814MOL0     C 9766   5.608  11.410   5.650  0.0364  1.4896  1.2861
  814MOL0     C 9767   5.584  11.470   5.788  0.0354  1.0267 -0.4936
  814MOL0     C 9768   5.714  11.506   5.855  0.4274 -0.7514 -0.2621
  814MOL0     C 9769   5.795  11.627   5.785  0.6811 -0.1360  1.1429
  814MOL0     C 9770   5.905  11.674   5.883  0.5199 -0.2691 -0.0784
  814MOL0     C 9771   5.988  11.780   5.818 -0.6044 -0.7324 -0.0073
  814MOL0     N 9772   6.108  11.822   5.896 -0.5951  0.3979 -0.0245
  814MOL0     C 9773   6.240  11.803   5.857 -0.1423 -0.3421  0.0499
  814MOL0     C 9774   6.328  11.857   5.949  0.4141 -0.0129  0.1914
  814MOL0     C 9775   6.473  11.827   5.948  0.4356 -0.4601 -0.5108
  814MOL0     C 9776   6.540  11.904   5.830  0.6278  0.0656 -0.2853
  814MOL0     C 9777   6.676  11.873   5.801 -0.5150  0.3045  0.5225
  814MOL0     C 9778   6.758  11.971   5.718  0.0744  0.1963  0.2634
  814MOL0     O 9779   6.687  12.033   5.602  0.3749  1.9550  0.2744
  814MOL0     C 9780   6.655  11.962   5.485  0.6131 -0.3935 -1.0536
  814MOL0     C 9781   6.603  12.045   5.382 -0.5432 -0.7443 -0.6345
  814MOL0     C 9782   6.570  11.997   5.254 -0.0762 -0.1240  0.0566
  814MOL0     C 9783   6.526  12.106   5.148  0.2868 -0.0569 -0.7789
  814MOL0     C 9784   6.600  11.864   5.226 -0.4345  0.9683  0.2370
  814MOL0     C 9785   6.579  11.801   5.093  0.0123 -1.0655 -0.3202
  814MOL0     O 9786   6.539  11.670   5.091  0.0931 -0.3037  0.3904
  814MOL0     C 9787   6.495  11.629   4.974 -0.7864 -0.2759  0.6597
  814MOL0     C 9788   6.586  11.586   4.871  0.4487  0.2149 -0.3629
  814MOL0     C 9789   6.542  11.515   4.760 -0.0893 -0.3326 -0.3723
  814MOL0     C 9790   6.406  11.486   4.751 -0.2648  1.3132  0.8663
  814MOL0     O 9791   6.357  11.423   4.639 -0.3274 -0.2545 -0.1583
  814MOL0     C 9792   6.441  11.332   4.566 -0.2944  0.3112  0.7461
  814MOL0     C 9793   6.351  11.284   4.454  0.0794  0.0792  0.0094
  814MOL0     C 9794   6.449  11.212   4.354 -0.5121 -0.3917 -0.0199
  814MOL0     C 9795   6.391  11.147   4.229  0.1106 -0.0033 -0.1677
  814MOL0     C 9796   6.489  11.064   4.143 -0.1581 -0.5541 -0.1551
  814MOL0     C 9797   6.550  10.952   4.226  0.1979  0.2721  0.8523
  814MOL0     C 9798   6.632  10.847   4.149 -0.2277  0.2082 -0.3963
  814MOL0     C 9799   6.541  10.751   4.077 -0.5360  0.0411  0.1079
  814MOL0    Cl 9800   6.628  10.627   3.986  0.0708  0.0808 -0.6012
  814MOL0     C 9801   6.324  11.506   4.858 -0.0844 -1.1598 -0.9824
  814MOL0     C 9802   6.365  11.582   4.963 -0.1951  1.0208 -0.9143
  814MOL0     O 9803   6.593  11.873   4.995  0.1375 -1.0756  0.2648
  814MOL0     C 9804   6.671  11.784   5.322  0.6447  0.4409 -0.0169
  814MOL0     C 9805   6.694  11.832   5.451  0.2473 -0.8190 -0.4978
  814MOL0     N 9806   6.240  11.887   6.057  0.3920 -0.0221 -0.5593
  814MOL0     N 9807   6.117  11.868   6.017  0.4963  0.2254 -0.7497
  814MOL0     C 9808   5.401  10.933   5.726  0.2420 -0.4850  0.3386
  814MOL0     C 9809   5.396  10.802   5.773  0.6793 -0.2414 -0.1268
  814MOL0     C 9810   5.505  10.337   5.755  0.1596  0.5076  0.0904
  814MOL0     C 9811   5.472  10.299   5.893 -0.5183 -0.7877  0.1235
  814MOL0     C 9812   5.488  10.169   5.942 -0.2933 -0.5788  0.5074
  814MOL0     C 9813   5.562  10.069   5.870 -0.5250 -0.1853 -1.3479
  814MOL0     O 9814   5.596   9.946   5.915  0.1976  1.1301 -0.1095
  814MOL0     C 9815   5.503   9.884   6.007  0.6937  0.5698  0.2693
  814MOL0     C 9816   5.542   9.747   6.052  0.0675  1.2987  0.5873
  814MOL0     C 9817   5.422   9.651   6.063 -0.5229 -0.1206  0.4789
  814MOL0     C 9818   5.449   9.519   6.125 -0.6769 -0.1601 -0.3876
  814MOL0     C 9819   5.524   9.518   6.251  0.0086 -0.2879 -0.0045
  814MOL0     C 9820   5.604   9.514   6.346 -0.1379 -0.2251 -0.6147
  814MOL0     C 9821   5.606  10.112   5.748 -1.4117  1.0013 -1.0713
  814MOL0     C 9822   5.576  10.232   5.691 -0.5917 -0.6033  0.7482
  814MOL0     H 9823   5.658  10.669   5.611  1.8564 -2.1893  4.0371
  814MOL0     H 9824   5.674  10.928   5.532  1.1405 -1.4194  0.3154
  814MOL0     H 9825   5.354  11.190   5.668 -0.5368  0.4072  1.7213
  814MOL0     H 9826   5.500  11.203   5.771  1.4085 -0.2991 -0.8638
  814MOL0     H 9827   5.462  11.343   5.496 -0.2644 -3.1207 -0.0042
  814MOL0     H 9828   5.390  11.401   5.649 -1.5183 -2.9081 -2.4417
  814MOL0     H 9829   5.682  11.330   5.642  0.3749  1.9333 -0.5436
  814MOL0     H 9830   5.647  11.482   5.578 -0.2584 -0.0557 -0.5073
  814MOL0     H 9831   5.523  11.561   5.783  0.6101  1.3895 -1.0667
  814MOL0     H 9832   5.543  11.392   5.853  3.8089 -1.6923 -1.0596
  814MOL0     H 9833   5.681  11.536   5.955  2.0480 -0.5315  0.2283
  814MOL0     H 9834   5.772  11.413   5.862 -0.5807 -1.6263 -2.5683
  814MOL0     H 9835   5.826  11.596   5.684 -5.5046  1.6605 -1.7717
  814MOL0     H 9836   5.716  11.701   5.774  0.4038 -0.5675  0.0439
  814MOL0     H 9837   5.845  11.704   5.970 -1.5839 -1.5840 -0.9771
  814MOL0     H 9838   5.975  11.591   5.896  1.6822  0.6952  0.0100
  814MOL0     H 9839   5.927  11.869   5.799  0.7050 -0.1954 -1.9605
  814MOL0     H 9840   6.021  11.753   5.718  0.1300 -0.5224  0.1716
  814MOL0     H 9841   6.274  11.765   5.761 -3.2790 -2.1728 -0.4938
  814MOL0     H 9842   6.511  11.860   6.045 -1.8384 -1.9665  1.0015
  814MOL0     H 9843   6.489  11.719   5.960  1.5290 -0.1250  1.5046
  814MOL0     H 9844   6.546  12.010   5.859  0.8091  0.3226 -1.2367
  814MOL0     H 9845   6.480  11.893   5.739  1.3168 -1.5166 -0.5729
  814MOL0     H 9846   6.678  11.773   5.756  2.4414  0.9967 -1.1809
  814MOL0     H 9847   6.727  11.868   5.897  3.6642  1.5016 -1.3938
  814MOL0     H 9848   6.857  11.930   5.694 -1.3996 -3.6029 -0.0803
  814MOL0     H 9849   6.775  12.058   5.782 -2.8797  0.5065  0.7944
  814MOL0     H 9850   6.600  12.149   5.412  0.0819 -0.9196  0.0776
  814MOL0     H 9851   6.443  12.075   5.084 -2.4350  0.3690  2.3014
  814MOL0     H 9852   6.502  12.199   5.202 -0.3436 -1.3189  1.2014
  814MOL0     H 9853   6.605  12.138   5.080 -0.6526  0.0678 -1.8510
  814MOL0     H 9854   6.689  11.616   4.888  0.1064 -0.4827  3.8527
  814MOL0     H 9855   6.595  11.484   4.671 -0.9852  0.9158 -1.3958
  814MOL0     H 9856   6.530  11.375   4.518  1.5436 -0.5492  3.1490
  814MOL0     H 9857   6.476  11.258   4.638 -1.9827  0.0207  1.3130
  814MOL0     H 9858   6.283  11.213   4.504  0.7608 -0.9936 -0.5538
  814MOL0     H 9859   6.299  11.369   4.408 -0.8330 -0.3430  0.2263
  814MOL0     H 9860   6.516  11.146   4.409  0.8765  0.8459 -0.1841
  814MOL0     H 9861   6.518  11.284   4.311 -1.4688  0.1179 -0.7306
  814MOL0     H 9862   6.313  11.079   4.261  0.6241  0.8156  3.1926
  814MOL0     H 9863   6.346  11.221   4.162 -1.2661  0.5916  1.3638
  814MOL0     H 9864   6.567  11.127   4.100 -0.3090  0.5303  1.1107
  814MOL0     H 9865   6.430  11.019   4.062  3.9801 -0.2011 -3.7493
  814MOL0     H 9866   6.615  10.990   4.305  2.5119  2.8296 -2.0175
  814MOL0     H 9867   6.466  10.899   4.272 -1.7204 -0.6382 -3.2592
  814MOL0     H 9868   6.704  10.795   4.213 -0.5695  0.7292  0.4362
  814MOL0     H 9869   6.685  10.906   4.073  2.5992 -1.4977  0.1074
  814MOL0     H 9870   6.473  10.813   4.017 -1.5512  0.1719  1.3569
  814MOL0     H 9871   6.488  10.703   4.160  2.1289  0.5925  2.2658
  814MOL0     H 9872   6.220  11.478   4.854  0.1263 -2.6710  1.7322
  814MOL0     H 9873   6.298  11.588   5.048  0.2429  0.4428 -0.5235
  814MOL0     H 9874   6.717  11.687   5.302  0.5299 -0.0369  1.8272
  814MOL0     H 9875   6.745  11.765   5.519  3.9552 -1.3393 -3.4146
  814MOL0     H 9876   5.322  11.000   5.757 -0.0934  0.3042 -2.0073
  814MOL0     H 9877   5.310  10.776   5.834  0.9727  0.3953  0.5744
  814MOL0     H 9878   5.428  10.376   5.954 -0.8740 -0.3121 -0.7132
  814MOL0     H 9879   5.429  10.144   6.030 -2.2303  1.5440 -0.0693
  814MOL0     H 9880   5.484   9.940   6.099  0.0288  2.1382 -0.7798
  814MOL0     H 9881   5.407   9.891   5.955  0.9951 -1.7047 -0.7167
  814MOL0     H 9882   5.592   9.743   6.149  3.1345 -3.9150 -0.7677
  814MOL0     H 9883   5.604   9.704   5.972 -1.0850 -2.0823  1.3144
  814MOL0     H 9884   5.379   9.635   5.964  0.5758 -2.3039  0.2725
  814MOL0     H 9885   5.345   9.704   6.120  0.9968  0.7624  1.8003
  814MOL0     H 9886   5.504   9.457   6.054 -1.7841 -1.3115 -0.3019
  814MOL0     H 9887   5.346   9.482   6.138 -0.7851  0.8400  2.3281
  814MOL0     H 9888   5.653   9.501   6.441  1.4724 -1.8955 -1.6025
  814MOL0     H 9889   5.671  10.045   5.693  0.8707  0.4952  1.9608
  814MOL0     H 9890   5.627  10.254   5.597 -0.5141 -1.7358  0.5089
  815MOL0     O 9891   9.224   2.184   3.925 -0.1125 -0.4284 -0.0301
  815MOL0     C 9892   9.182   2.115   4.020  0.5970  0.4801 -0.3066
  815MOL0     O 9893   9.054   2.112   4.070 -0.1210  0.2389 -0.2071
  815MOL0     C 9894   8.961   2.201   4.025  0.2696  0.2291 -0.6557
  815MOL0     C 9895   8.973   2.329   3.966 -0.8589 -1.5368 -0.1704
  815MOL0     C 9896   8.868   2.404   3.940 -0.3916 -0.7201 -0.3991
  815MOL0     C 9897   8.740   2.364   3.970  0.2168 -1.1978 -0.6759
  815MOL0     O 9898   8.627   2.441   3.941  0.1183 -0.4996 -0.1268
  815MOL0     C 9899   8.646   2.573   3.883  1.2835 -0.4901  0.3123
  815MOL0     C 9900   8.501   2.618   3.852  0.4742 -0.4578 -0.4477
  815MOL0     C 9901   8.457   2.756   3.897 -0.6266  0.3421 -1.4577
  815MOL0     C 9902   8.298   2.754   3.881 -0.1711  0.8889 -1.4329
  815MOL0     C 9903   8.240   2.892   3.933  0.9510  0.2642  0.3566
  815MOL0     C 9904   8.084   2.892   3.931 -0.9318  0.4044 -0.1563
  815MOL0     C 9905   8.033   3.016   4.009 -0.1323  0.2687  0.3489
  815MOL0     C 9906   8.083   3.164   3.980  0.8784  0.3028  0.4621
  815MOL0     N 9907   8.059   3.202   3.836  0.8162 -0.1437 -0.2225
  815MOL0     C 9908   7.943   3.241   3.785  0.8153 -1.3458  0.0707
  815MOL0     C 9909   7.954   3.265   3.651 -0.6171  0.1024  0.1291
  815MOL0     C 9910   7.844   3.305   3.550  0.1850  0.5108  0.2081
  815MOL0     C 9911   7.794   3.451   3.565  0.2120  0.4850 -0.2136
  815MOL0     C 9912   7.858   3.558   3.476  0.2907  0.3628  0.4115
  815MOL0     C 9913   7.817   3.707   3.499 -0.0237  0.3385 -0.8150
  815MOL0     O 9914   7.678   3.714   3.501 -0.9900  0.1546 -0.2577
  815MOL0     C 9915   7.603   3.827   3.467 -0.3418  1.0536  0.2941
  815MOL0     C 9916   7.652   3.956   3.478  0.1117  0.7012 -0.1968
  815MOL0     C 9917   7.574   4.058   3.432  1.1022 -0.3086 -0.1334
  815MOL0     C 9918   7.643   4.196   3.429 -1.0014 -0.5602 -0.5003
  815MOL0     C 9919   7.436   4.048   3.383 -0.1567  0.5555  0.5691
  815MOL0     C 9920   7.352   4.162   3.318  0.7626  0.2911 -0.6867
  815MOL0     O 9921   7.234   4.122   3.272  0.5222  0.2322 -0.7176
  815MOL0     C 9922   7.144   4.217   3.219  0.8374 -0.2453  0.8036
  815MOL0     C 9923   7.020   4.249   3.283 -0.1557  0.4682  0.3032
  815MOL0     C 9924   6.934   4.348   3.239  0.6731 -1.0031  0.4541
  815MOL0     C 9925   6.976   4.423   3.130  0.6629  0.4437 -0.4660
  815MOL0     O 9926   6.891   4.537   3.109 -0.4470  0.4458  0.2893
  815MOL0     C 9927   6.771   4.511   3.025 -0.4294 -0.4153 -0.3290
  815MOL0     C 9928   6.651   4.593   3.065  0.8181  0.6715 -0.8653
  815MOL0     C 9929   6.678   4.743   3.063  0.6481 -0.3745  0.2444
  815MOL0     C 9930   6.566   4.833   3.123  0.0541  0.1083 -0.4430
  815MOL0     C 9931   6.593   4.982   3.111 -0.7573 -0.3079  0.2250
  815MOL0     C 9932   6.725   5.012   3.192  0.1045  0.0538 -0.1528
  815MOL0     C 9933   6.753   5.156   3.212  0.7807 -0.9307  0.0266
  815MOL0     C 9934   6.873   5.185   3.304  1.2228  0.7009  1.0934
  815MOL0    Cl 9935   6.845   5.114   3.484 -0.3645 -0.4317 -0.2451
  815MOL0     C 9936   7.085   4.397   3.061 -0.5841  0.9513 -0.1260
  815MOL0     C 9937   7.176   4.294   3.111  0.1996 -0.5327 -0.0535
  815MOL0     O 9938   7.388   4.280   3.318 -0.4003 -0.0558 -0.6932
  815MOL0     C 9939   7.393   3.916   3.381  0.2180 -0.0808 -0.6490
  815MOL0     C 9940   7.471   3.809   3.435  0.9855 -0.0690  0.7911
  815MOL0     N 9941   8.087   3.242   3.625 -0.7051  0.1772 -0.0262
  815MOL0     N 9942   8.146   3.193   3.725  0.0166 -0.4417 -0.1451
  815MOL0     C 9943   8.714   2.242   4.022 -0.3689 -0.7157 -0.4205
  815MOL0     C 9944   8.829   2.159   4.054  0.7497 -0.4770 -0.4228
  815MOL0     C 9945   9.271   2.012   4.079  0.5239  0.2113 -0.1381
  815MOL0     C 9946   9.253   1.961   4.210 -0.0969 -0.7394  0.7088
  815MOL0     C 9947   9.343   1.877   4.272  0.8972  0.5483  0.1048
  815MOL0     C 9948   9.460   1.844   4.214  0.6171 -0.5364  0.4884
  815MOL0     O 9949   9.535   1.749   4.276 -0.9450  0.4295  0.1391
  815MOL0     C 9950   9.670   1.777   4.321 -0.7627 -0.4103  1.3251
  815MOL0     C 9951   9.773   1.693   4.235  0.1472  0.0768  0.0538
  815MOL0     C 9952   9.929   1.676   4.280  0.4466  0.0842 -0.1274
  815MOL0     C 9953  10.011   1.777   4.201 -0.4148 -0.5943 -0.6083
  815MOL0     C 9954   9.986   1.908   4.266 -1.3845  0.3253  0.5490
  815MOL0     C 9955   9.982   2.026   4.294 -0.7857  0.2788 -0.2452
  815MOL0     C 9956   9.483   1.891   4.087 -0.5387 -0.4312  0.3005
  815MOL0     C 9957   9.395   1.980   4.025  0.5797  0.4384 -0.8923
  815MOL0     H 9958   9.069   2.366   3.932  0.3941 -3.1237  1.4166
  815MOL0     H 9959   8.876   2.505   3.902 -0.3448  0.3232  2.1605
  815MOL0     H 9960   8.697   2.644   3.949 -1.1685 -2.1890  4.4438
  815MOL0     H 9961   8.698   2.567   3.787  1.1083  3.0004 -0.1455
  815MOL0     H 9962   8.490   2.620   3.744 -0.7079 -0.1901 -0.3336
  815MOL0     H 9963   8.435   2.545   3.901  1.0144 -0.8619 -0.3048
  815MOL0     H 9964   8.485   2.773   4.001 -1.0640 -1.6079 -0.9764
  815MOL0     H 9965   8.509   2.827   3.831 -0.6194 -0.5652 -2.4648
  815MOL0     H 9966   8.277   2.736   3.776  1.7692  2.4640 -2.1375
  815MOL0     H 9967   8.246   2.674   3.935 -0.8071 -0.0621 -3.3564
  815MOL0     H 9968   8.282   2.927   4.027  1.7212  0.7185 -0.1474
  815MOL0     H 9969   8.278   2.961   3.856  0.7178  0.0526  0.0505
  815MOL0     H 9970   8.047   2.898   3.828 -1.8896  0.8982  0.1977
  815MOL0     H 9971   8.047   2.804   3.984 -1.8790  0.4346 -0.7424
  815MOL0     H 9972   7.924   3.006   4.002  0.0933 -2.4986 -0.6554
  815MOL0     H 9973   8.058   2.996   4.113  0.5185 -0.5110  0.0590
  815MOL0     H 9974   8.187   3.167   4.014  0.8816 -3.8523  1.3740
  815MOL0     H 9975   8.022   3.231   4.040  1.2627 -0.9999  2.4005
  815MOL0     H 9976   7.860   3.248   3.853  0.7064 -0.1937 -0.1705
  815MOL0     H 9977   7.874   3.297   3.445  0.1246  3.5094 -0.1099
  815MOL0     H 9978   7.764   3.229   3.552  1.0397 -0.4157  2.6142
  815MOL0     H 9979   7.806   3.485   3.668  0.7348 -0.5125  0.0724
  815MOL0     H 9980   7.686   3.454   3.548 -0.4908 -2.6636  2.6127
  815MOL0     H 9981   7.827   3.543   3.372 -1.5863 -1.8907  1.2093
  815MOL0     H 9982   7.967   3.550   3.477  0.4976  2.5364  1.2197
  815MOL0     H 9983   7.854   3.766   3.415  1.2375  1.0082  0.1690
  815MOL0     H 9984   7.851   3.757   3.590  1.2233 -0.5354 -0.7651
  815MOL0     H 9985   7.751   3.975   3.517 -0.2090  0.7470  0.6178
  815MOL0     H 9986   7.752   4.190   3.436 -1.0353 -3.2347 -1.1366
  815MOL0     H 9987   7.625   4.247   3.334 -1.5731 -0.1253 -0.1620
  815MOL0     H 9988   7.595   4.259   3.504 -2.3760 -1.5775 -0.4872
  815MOL0     H 9989   6.981   4.177   3.355 -2.7829 -0.3214 -1.7768
  815MOL0     H 9990   6.841   4.368   3.291 -0.7036  1.7682 -2.7079
  815MOL0     H 9991   6.798   4.538   2.922  2.3031  2.1284  0.9291
  815MOL0     H 9992   6.750   4.403   3.028 -0.7698 -0.3235  1.9136
  815MOL0     H 9993   6.561   4.577   3.006 -1.3096 -1.2697  2.5905
  815MOL0     H 9994   6.618   4.571   3.167 -0.1361  2.7479 -0.6628
  815MOL0     H 9995   6.706   4.774   2.962 -0.0828 -3.4782 -0.9936
  815MOL0     H 9996   6.771   4.751   3.120 -0.3466  2.0731  1.6841
  815MOL0     H 9997   6.472   4.813   3.070 -0.4523  0.6870  0.2193
  815MOL0     H 9998   6.552   4.787   3.221  1.0054 -4.1832 -2.1119
  815MOL0     H 9999   6.510   5.044   3.147 -1.3244 -0.4675 -0.7715
  815MOL0     H10000   6.603   4.993   3.003 -0.5962 -1.4906  0.1127
  815MOL0     H10001   6.704   4.982   3.295 -0.6308  0.7929 -0.0811
  815MOL0     H10002   6.809   4.956   3.151  0.2506  1.5787 -2.0587
  815MOL0     H10003   6.666   5.210   3.252 -0.7508 -2.4513 -1.0807
  815MOL0     H10004   6.775   5.201   3.115  0.1888 -0.0316  0.3003
  815MOL0     H10005   6.869   5.294   3.316  0.0424  0.6956  0.9035
  815MOL0     H10006   6.964   5.156   3.251  0.3081  0.3067 -0.3239
  815MOL0     H10007   7.105   4.458   2.973  0.6437 -2.0272 -2.0737
  815MOL0     H10008   7.267   4.280   3.053  0.1065 -0.5504 -0.1957
  815MOL0     H10009   7.289   3.903   3.352 -0.8202  1.6604  1.8874
  815MOL0     H10010   7.428   3.710   3.440  1.0734 -0.4633 -3.0978
  815MOL0     H10011   8.617   2.213   4.060 -1.4784  2.0456 -0.8493
  815MOL0     H10012   8.812   2.067   4.109  3.3833  0.5616  2.3755
  815MOL0     H10013   9.158   1.986   4.257 -0.0019  0.5547  0.2603
  815MOL0     H10014   9.320   1.823   4.364  0.5261  0.0954 -0.2472
  815MOL0     H10015   9.697   1.883   4.312 -0.8890 -0.4278  0.6847
  815MOL0     H10016   9.688   1.752   4.426 -0.9666 -1.4434  1.1248
  815MOL0     H10017   9.768   1.723   4.130 -0.0696 -0.3757 -0.0695
  815MOL0     H10018   9.739   1.589   4.228 -2.4738  0.9684 -2.4421
  815MOL0     H10019   9.954   1.574   4.248 -0.9825 -0.6518  0.9999
  815MOL0     H10020   9.936   1.685   4.388  1.5513  1.4180 -0.2825
  815MOL0     H10021   9.995   1.781   4.093 -0.7324 -0.6944 -0.5645
  815MOL0     H10022  10.114   1.748   4.224 -0.2411  1.9676  2.7567
  815MOL0     H10023   9.969   2.126   4.328 -0.4025  0.4074 -0.4697
  815MOL0     H10024   9.576   1.866   4.037 -1.5203  1.0988 -2.5178
  815MOL0     H10025   9.427   2.025   3.932 -0.7805 -1.1099 -2.1774
  816MOL0     O10026   8.701   7.637   2.987 -0.2802 -0.0991 -0.3621
  816MOL0     C10027   8.791   7.712   2.987  0.3691  0.0149  0.8123
  816MOL0     O10028   8.792   7.850   2.984  0.3169  0.3179 -1.0109
  816MOL0     C10029   8.672   7.911   3.029  0.0530 -0.2878  0.2904
  816MOL0     C10030   8.541   7.896   2.968  0.0513  0.2051 -0.1170
  816MOL0     C10031   8.427   7.969   2.997  0.4533 -0.9778 -0.6461
  816MOL0     C10032   8.436   8.061   3.101  0.1399 -0.0212  0.1957
  816MOL0     O10033   8.333   8.126   3.153  0.8837 -0.2939  0.7707
  816MOL0     C10034   8.200   8.067   3.137  0.2634 -0.2289 -0.2598
  816MOL0     C10035   8.103   8.118   3.251  0.3559  0.2280 -0.4953
  816MOL0     C10036   8.146   8.078   3.395  0.1494  0.6568 -0.3757
  816MOL0     C10037   8.096   7.934   3.426 -0.2028  0.5688 -0.3398
  816MOL0     C10038   8.129   7.875   3.568  0.5428 -0.2792  0.4692
  816MOL0     C10039   8.124   7.724   3.559  0.1744 -0.7110  0.1073
  816MOL0     C10040   7.982   7.672   3.556  0.0122 -0.5006 -0.3907
  816MOL0     C10041   7.955   7.568   3.441 -0.1711 -0.4049 -0.1148
  816MOL0     N10042   7.949   7.633   3.303  0.2332 -0.0679 -0.1105
  816MOL0     C10043   7.830   7.661   3.258  0.1809  1.2294 -0.3449
  816MOL0     C10044   7.856   7.705   3.130 -0.5009  0.6110  0.2348
  816MOL0     C10045   7.750   7.752   3.035 -0.2182  1.1507 -0.5579
  816MOL0     C10046   7.672   7.874   3.094  0.4985 -0.1196  0.4519
  816MOL0     C10047   7.768   7.991   3.132  0.2465 -0.6941 -0.3061
  816MOL0     C10048   7.681   8.122   3.153  0.0773 -0.6215 -0.0140
  816MOL0     O10049   7.607   8.101   3.275 -0.0998  1.5621  0.4391
  816MOL0     C10050   7.673   8.149   3.390  0.8598 -0.6037 -0.1116
  816MOL0     C10051   7.693   8.296   3.405  0.5635 -0.0901 -0.3528
  816MOL0     C10052   7.772   8.337   3.514  0.5503  0.1964 -0.3594
  816MOL0     C10053   7.813   8.482   3.513 -0.7350 -0.2963  0.9485
  816MOL0     C10054   7.822   8.250   3.618 -0.0995  0.1426 -0.1205
  816MOL0     C10055   7.913   8.304   3.720 -0.6949  0.2249  0.6839
  816MOL0     O10056   8.047   8.256   3.708  0.1217 -0.7879 -0.5191
  816MOL0     C10057   8.146   8.256   3.804 -0.3390 -0.0602  0.3791
  816MOL0     C10058   8.138   8.304   3.939 -0.2592  0.3178 -0.7294
  816MOL0     C10059   8.244   8.283   4.031 -0.5043  0.4454 -0.6321
  816MOL0     C10060   8.352   8.214   3.983 -0.4367  0.4102  0.2616
  816MOL0     O10061   8.448   8.187   4.080 -0.5282 -0.2908 -0.0508
  816MOL0     C10062   8.584   8.189   4.025 -0.2592 -0.2083  0.3573
  816MOL0     C10063   8.687   8.151   4.142  0.2631  0.2413  0.5605
  816MOL0     C10064   8.707   8.282   4.240 -0.6829  1.0276  0.9595
  816MOL0     C10065   8.813   8.245   4.346  0.0875 -0.3168  0.6389
  816MOL0     C10066   8.867   8.373   4.413  0.5318 -0.6883 -0.3472
  816MOL0     C10067   8.774   8.447   4.511  0.1208 -0.3884  0.0013
  816MOL0     C10068   8.764   8.377   4.647  0.5432  0.3935 -0.3298
  816MOL0     C10069   8.665   8.441   4.737 -0.3283  0.4011  0.6063
  816MOL0    Cl10070   8.494   8.390   4.696  0.0033  0.3201  0.0198
  816MOL0     C10071   8.368   8.174   3.847  0.4040 -0.1264 -0.3642
  816MOL0     C10072   8.264   8.192   3.761 -0.0843 -0.0623 -0.2910
  816MOL0     O10073   7.882   8.384   3.810  0.2935 -0.0596  0.2210
  816MOL0     C10074   7.795   8.109   3.610 -0.3901 -0.0096  0.4852
  816MOL0     C10075   7.720   8.060   3.493  0.2244 -0.2802 -0.0215
  816MOL0     N10076   7.993   7.720   3.113  0.0257  0.2148 -0.3913
  816MOL0     N10077   8.051   7.664   3.219 -0.6948  0.2188 -0.2625
  816MOL0     C10078   8.566   8.076   3.160  0.3346  0.2264  0.0699
  816MOL0     C10079   8.675   7.998   3.132  0.5696  1.1121 -0.7082
  816MOL0     C10080   8.923   7.648   2.963 -0.4758  0.4644 -0.5531
  816MOL0     C10081   8.934   7.517   2.991 -0.4282 -0.1357 -0.2190
  816MOL0     C10082   9.048   7.446   2.969 -0.1849 -0.8009  1.0899
  816MOL0     C10083   9.164   7.509   2.917  0.3251 -0.3843 -0.2350
  816MOL0     O10084   9.277   7.432   2.896  0.0266  0.3436 -0.2550
  816MOL0     C10085   9.271   7.353   2.772 -1.1330 -0.5515  0.0129
  816MOL0     C10086   9.410   7.288   2.735  0.2914 -0.3363  0.4033
  816MOL0     C10087   9.457   7.165   2.810 -0.1628 -0.4835 -0.8830
  816MOL0     C10088   9.458   7.186   2.966 -0.3268  0.1320  0.6857
  816MOL0     C10089   9.483   7.068   3.047 -0.1441  0.4044 -0.1692
  816MOL0     C10090   9.507   6.959   3.090  0.1517 -0.1221  0.5142
  816MOL0     C10091   9.160   7.647   2.893 -1.9133 -0.4258 -0.2605
  816MOL0     C10092   9.042   7.720   2.921 -0.1469 -0.1100 -0.0450
  816MOL0     H10093   8.539   7.833   2.880 -0.9693 -1.5386  1.0837
  816MOL0     H10094   8.333   7.936   2.956  0.0920 -0.3915 -0.3035
  816MOL0     H10095   8.160   8.097   3.040  1.4064 -1.9751 -1.3251
  816MOL0     H10096   8.209   7.958   3.137 -1.1449 -0.4664 -3.9149
  816MOL0     H10097   8.117   8.226   3.255 -1.2872  0.4778 -0.9666
  816MOL0     H10098   8.001   8.083   3.235  0.7925 -2.1205  1.2324
  816MOL0     H10099   8.255   8.078   3.397  0.1785 -1.5945 -0.4114
  816MOL0     H10100   8.098   8.142   3.470 -0.5933  0.1128 -0.3800
  816MOL0     H10101   7.988   7.946   3.413 -0.2905 -1.3634 -1.7091
  816MOL0     H10102   8.134   7.871   3.345 -0.9618  1.8017 -1.7115
  816MOL0     H10103   8.222   7.907   3.617  0.1781  2.1546 -0.2830
  816MOL0     H10104   8.051   7.905   3.638 -0.8122 -3.3440  0.4399
  816MOL0     H10105   8.187   7.683   3.479  0.6006  1.7305 -0.9046
  816MOL0     H10106   8.164   7.680   3.651 -1.9890 -4.1883 -0.4336
  816MOL0     H10107   7.954   7.633   3.655  1.7391 -1.0140 -0.0747
  816MOL0     H10108   7.917   7.759   3.539  0.0291 -0.2083  0.9092
  816MOL0     H10109   7.864   7.511   3.460 -1.2898  1.0722 -0.7973
  816MOL0     H10110   8.042   7.502   3.433  1.2277  1.2594  0.8065
  816MOL0     H10111   7.732   7.629   3.292  0.0411 -2.8778 -3.7609
  816MOL0     H10112   7.781   7.782   2.934  0.5184 -1.5713 -1.2234
  816MOL0     H10113   7.689   7.663   3.020  0.3574  0.6513  0.0091
  816MOL0     H10114   7.632   7.832   3.187  3.2662 -1.4926  1.1549
  816MOL0     H10115   7.595   7.897   3.021 -2.7372 -2.6912  2.7626
  816MOL0     H10116   7.832   8.017   3.047 -1.9116  3.8959 -0.8277
  816MOL0     H10117   7.830   7.954   3.214 -1.0777  0.2914  1.1909
  816MOL0     H10118   7.618   8.135   3.065  1.8298 -0.3803 -1.2783
  816MOL0     H10119   7.749   8.206   3.168 -0.0019 -0.7502  1.1979
  816MOL0     H10120   7.649   8.342   3.317 -1.3523 -1.4554 -0.1957
  816MOL0     H10121   7.764   8.542   3.436 -1.9035 -0.8139  1.2693
  816MOL0     H10122   7.771   8.525   3.604 -2.7085  1.1168 -0.5715
  816MOL0     H10123   7.920   8.506   3.516 -0.7112 -0.2702 -0.0270
  816MOL0     H10124   8.057   8.368   3.974 -0.1225 -0.9049  2.0696
  816MOL0     H10125   8.249   8.310   4.136  0.4192  0.8671 -0.7772
  816MOL0     H10126   8.605   8.107   3.955 -1.4416 -2.8859  2.9324
  816MOL0     H10127   8.605   8.289   3.986 -2.5486  0.9651  1.9084
  816MOL0     H10128   8.648   8.067   4.201 -1.8132 -0.3240 -1.4697
  816MOL0     H10129   8.786   8.134   4.098 -0.6648 -0.5446 -1.3318
  816MOL0     H10130   8.609   8.303   4.285 -2.1239  1.4977 -2.1034
  816MOL0     H10131   8.724   8.376   4.186 -1.0791 -0.5440 -2.0848
  816MOL0     H10132   8.774   8.177   4.422  1.0205 -2.2577 -0.5670
  816MOL0     H10133   8.899   8.195   4.301 -0.9725 -1.1334 -0.5337
  816MOL0     H10134   8.896   8.446   4.338 -1.8476  1.0245  0.2925
  816MOL0     H10135   8.954   8.339   4.471 -0.1826  1.8127  2.4522
  816MOL0     H10136   8.822   8.542   4.536 -3.1080  1.3107  0.2482
  816MOL0     H10137   8.680   8.464   4.458 -0.3561  1.8831  1.4283
  816MOL0     H10138   8.862   8.390   4.694  0.6628 -1.0902 -0.1210
  816MOL0     H10139   8.739   8.270   4.640 -0.3811  0.5847 -0.0822
  816MOL0     H10140   8.681   8.547   4.760  2.5705 -0.0889  1.1489
  816MOL0     H10141   8.680   8.389   4.832  1.7917 -0.0073  0.1042
  816MOL0     H10142   8.461   8.126   3.818  1.7104  1.3002  1.3180
  816MOL0     H10143   8.278   8.138   3.668  2.5216  0.7224 -0.4199
  816MOL0     H10144   7.834   8.038   3.682  2.7971 -0.6473 -1.6264
  816MOL0     H10145   7.710   7.952   3.498  0.3497 -0.2431  1.8347
  816MOL0     H10146   8.562   8.144   3.245 -0.0774  0.1279  0.1308
  816MOL0     H10147   8.764   8.009   3.193  0.4546 -1.8595  0.1406
  816MOL0     H10148   8.849   7.474   3.041  0.0154 -1.0451 -0.2267
  816MOL0     H10149   9.058   7.342   2.996 -0.5155 -1.1649 -0.1277
  816MOL0     H10150   9.201   7.270   2.782 -0.5665 -0.9852  0.4246
  816MOL0     H10151   9.253   7.423   2.690  0.5825  0.5711  0.5289
  816MOL0     H10152   9.479   7.372   2.740 -1.0631  1.2030 -3.2157
  816MOL0     H10153   9.415   7.254   2.631 -0.9788  0.7068 -0.0186
  816MOL0     H10154   9.560   7.142   2.784  0.2744  2.5177 -2.2314
  816MOL0     H10155   9.389   7.083   2.785 -0.3984 -0.1204 -1.4740
  816MOL0     H10156   9.364   7.227   3.003 -1.2003 -2.4702  1.5555
  816MOL0     H10157   9.538   7.259   2.984 -1.1610  1.1922  0.2498
  816MOL0     H10158   9.530   6.861   3.126 -0.2841 -0.8473 -1.0599
  816MOL0     H10159   9.249   7.699   2.857 -1.1140  0.7069  3.0202
  816MOL0     H10160   9.040   7.828   2.908 -1.2229 -0.0665  0.3996
  817MOL0     O10161   1.315  11.213   9.557  0.2431 -0.0008 -0.7680
  817MOL0     C10162   1.274  11.103   9.512  0.0447 -0.2259 -0.8957
  817MOL0     O10163   1.350  10.997   9.471 -0.0940  0.3023  0.3871
  817MOL0     C10164   1.483  11.003   9.475 -0.8417 -0.8717 -0.5181
  817MOL0     C10165   1.563  11.044   9.584  0.4930 -0.1749 -0.0822
  817MOL0     C10166   1.702  11.052   9.584  0.3554  0.1897 -0.1614
  817MOL0     C10167   1.773  11.003   9.482 -0.3677 -0.2969  0.5279
  817MOL0     O10168   1.910  11.004   9.487 -0.0137 -0.4584 -0.4061
  817MOL0     C10169   1.987  11.018   9.374  1.6013  0.4651 -0.4015
  817MOL0     C10170   2.138  11.053   9.408  0.5859 -0.0439  0.3714
  817MOL0     C10171   2.213  11.117   9.293 -0.3111  0.4980  0.2836
  817MOL0     C10172   2.359  11.152   9.324  0.3769  0.3046 -0.5058
  817MOL0     C10173   2.414  11.260   9.238 -0.0831 -0.3203 -0.3306
  817MOL0     C10174   2.444  11.239   9.089 -0.4993 -0.2164 -0.2403
  817MOL0     C10175   2.572  11.156   9.065 -0.4057 -0.5235  0.0608
  817MOL0     C10176   2.626  11.146   8.919  0.0280  0.5221  0.6947
  817MOL0     N10177   2.520  11.079   8.837 -0.9222  0.2747 -0.2618
  817MOL0     C10178   2.456  10.956   8.877 -0.6791 -0.9942 -0.2485
  817MOL0     C10179   2.382  10.937   8.767 -0.0713  0.2943  0.5510
  817MOL0     C10180   2.301  10.806   8.757 -0.5163 -0.3764  0.5533
  817MOL0     C10181   2.366  10.687   8.682  0.3380 -1.1649  0.7415
  817MOL0     C10182   2.251  10.591   8.655 -0.9758  0.4708 -0.3542
  817MOL0     C10183   2.310  10.464   8.607  0.6783 -0.2228  0.3883
  817MOL0     O10184   2.360  10.470   8.469 -0.6928  0.1431  0.2195
  817MOL0     C10185   2.438  10.363   8.421 -0.8082  0.1328 -0.1916
  817MOL0     C10186   2.485  10.265   8.506  0.5300  0.6361  0.0408
  817MOL0     C10187   2.571  10.160   8.459 -0.0662 -0.2070  0.1754
  817MOL0     C10188   2.609  10.058   8.563 -0.1667 -0.7626  0.0415
  817MOL0     C10189   2.619  10.164   8.324  0.2990 -0.7109 -0.7644
  817MOL0     C10190   2.686  10.052   8.259  0.3894  0.0657 -0.0019
  817MOL0     O10191   2.772  10.080   8.151 -0.1265 -0.0637  0.2201
  817MOL0     C10192   2.852   9.977   8.099 -0.4296 -0.2294 -0.0577
  817MOL0     C10193   2.988  10.000   8.104  0.0279 -1.2645  0.5479
  817MOL0     C10194   3.082   9.910   8.054  0.2810 -0.1372  0.2860
  817MOL0     C10195   3.037   9.796   7.988  0.1945  0.6375  0.1098
  817MOL0     O10196   3.121   9.696   7.943 -0.2339  0.6438 -0.1480
  817MOL0     C10197   3.089   9.621   7.827 -0.2536 -0.2601  0.3330
  817MOL0     C10198   3.210   9.591   7.745 -0.1609 -0.0550  0.2527
  817MOL0     C10199   3.307   9.493   7.820 -0.3736  0.5085 -0.4201
  817MOL0     C10200   3.265   9.346   7.807  0.3371  0.9688 -0.0080
  817MOL0     C10201   3.351   9.235   7.874 -0.3752 -0.1873 -0.6626
  817MOL0     C10202   3.497   9.270   7.836  0.9537 -0.3043 -0.6609
  817MOL0     C10203   3.599   9.158   7.882 -0.1793  0.1369 -0.1251
  817MOL0     C10204   3.676   9.117   7.764  0.3737 -0.2949  0.0121
  817MOL0    Cl10205   3.816   9.029   7.851 -0.3504  0.1973 -0.4773
  817MOL0     C10206   2.905   9.773   7.984 -0.4830  0.1562  0.5447
  817MOL0     C10207   2.809   9.860   8.040 -0.2997  0.5388  1.2973
  817MOL0     O10208   2.647   9.940   8.292  0.1437 -0.3771 -0.7854
  817MOL0     C10209   2.583  10.273   8.246  1.1566 -0.6281  0.7292
  817MOL0     C10210   2.499  10.372   8.290  0.6268  0.4424 -1.2834
  817MOL0     N10211   2.416  11.028   8.675  0.5053  0.1340  0.0309
  817MOL0     N10212   2.497  11.116   8.712 -0.2059  0.0235  0.3756
  817MOL0     C10213   1.696  10.965   9.369 -1.0502 -0.2335 -0.5154
  817MOL0     C10214   1.561  10.964   9.367 -0.7186  0.6427  1.6898
  817MOL0     C10215   1.119  11.079   9.509 -0.9805  0.1542  0.0097
  817MOL0     C10216   1.029  11.171   9.559  0.6930 -0.0766  0.6857
  817MOL0     C10217   0.889  11.154   9.547  0.3755 -0.7230  0.2444
  817MOL0     C10218   0.835  11.034   9.502  0.2445  0.2361  0.2476
  817MOL0     O10219   0.704  11.002   9.493  0.5864 -0.3333  0.7954
  817MOL0     C10220   0.612  11.107   9.466 -0.3841 -0.2307  0.6408
  817MOL0     C10221   0.483  11.047   9.502 -0.4055  0.0547 -0.2477
  817MOL0     C10222   0.470  11.041   9.661  1.1191 -0.2181 -0.7593
  817MOL0     C10223   0.381  10.913   9.689 -0.5871 -0.4516  0.4630
  817MOL0     C10224   0.312  10.937   9.824 -0.0521  0.6985  0.7301
  817MOL0     C10225   0.254  10.938   9.930 -0.5183 -0.3531 -0.0901
  817MOL0     C10226   0.927  10.941   9.446  0.5076  0.9097 -0.4856
  817MOL0     C10227   1.065  10.962   9.459  0.1796 -1.7545  0.1925
  817MOL0     H10228   1.521  11.101   9.666 -0.6042  0.2042 -0.8944
  817MOL0     H10229   1.747  11.089   9.676  1.2982 -2.6539  0.6054
  817MOL0     H10230   1.975  10.919   9.329 -4.1324  0.2164  0.9894
  817MOL0     H10231   1.960  11.102   9.308  0.1487  0.4783  0.1904
  817MOL0     H10232   2.136  11.115   9.498 -0.0233 -1.2505  1.2154
  817MOL0     H10233   2.190  10.958   9.421 -0.6933 -1.4961 -3.5672
  817MOL0     H10234   2.214  11.049   9.207 -0.5392 -1.9945  2.1094
  817MOL0     H10235   2.165  11.206   9.252  0.8441 -0.3971 -3.3757
  817MOL0     H10236   2.368  11.186   9.428  0.7756 -1.8296  0.2112
  817MOL0     H10237   2.425  11.069   9.297  0.9004  1.3752 -2.7193
  817MOL0     H10238   2.345  11.345   9.239 -0.9121 -0.7682 -3.8067
  817MOL0     H10239   2.496  11.296   9.301  0.3097 -1.9875  0.1446
  817MOL0     H10240   2.365  11.182   9.039  0.6541 -1.2122 -1.0097
  817MOL0     H10241   2.452  11.340   9.047 -2.0403  0.0353  0.0081
  817MOL0     H10242   2.655  11.209   9.112  0.6794 -1.1045 -1.1335
  817MOL0     H10243   2.562  11.066   9.127 -0.2321 -1.9221 -1.8291
  817MOL0     H10244   2.722  11.094   8.912 -0.1561  0.1790  0.7345
  817MOL0     H10245   2.645  11.249   8.887 -0.9957  0.6173  0.3708
  817MOL0     H10246   2.480  10.883   8.954  4.1709  1.0854  0.5578
  817MOL0     H10247   2.265  10.785   8.859 -0.4958  0.7357  0.8074
  817MOL0     H10248   2.219  10.839   8.692  1.0257  1.7447 -0.4153
  817MOL0     H10249   2.443  10.649   8.749  1.8014  2.6283  1.4641
  817MOL0     H10250   2.404  10.722   8.585 -0.4035 -3.2205 -0.3385
  817MOL0     H10251   2.168  10.633   8.598 -1.8323 -1.7556 -0.8341
  817MOL0     H10252   2.218  10.571   8.757 -1.8176  1.9150 -0.3214
  817MOL0     H10253   2.236  10.384   8.619  0.1432  0.1728 -0.1721
  817MOL0     H10254   2.394  10.446   8.674  1.1162  1.9789  0.5178
  817MOL0     H10255   2.444  10.258   8.606 -0.7941  3.4302 -0.2155
  817MOL0     H10256   2.559   9.962   8.546 -4.0485  1.0366  0.2605
  817MOL0     H10257   2.717  10.044   8.559 -0.1671 -0.6361 -3.1539
  817MOL0     H10258   2.582  10.090   8.664  4.7129  0.5950  1.1405
  817MOL0     H10259   3.027  10.095   8.138  0.4204 -0.5044 -1.8493
  817MOL0     H10260   3.187   9.933   8.041 -0.2266  0.3231 -4.9819
  817MOL0     H10261   3.037   9.527   7.849  0.5838 -1.4205 -2.2505
  817MOL0     H10262   3.020   9.686   7.772 -0.5411  1.1790  2.2830
  817MOL0     H10263   3.183   9.544   7.650  1.9468  0.5200 -0.6997
  817MOL0     H10264   3.258   9.689   7.735  1.1430 -0.6448  0.4185
  817MOL0     H10265   3.296   9.521   7.925  1.3768  0.1354 -0.0976
  817MOL0     H10266   3.409   9.515   7.788  1.3111 -5.4456 -0.3255
  817MOL0     H10267   3.159   9.343   7.833 -0.2730  2.5270 -2.0900
  817MOL0     H10268   3.261   9.326   7.700 -0.9838 -1.4036  0.4018
  817MOL0     H10269   3.325   9.134   7.841 -2.6110 -0.1817  0.9222
  817MOL0     H10270   3.333   9.248   7.981  1.8689 -0.0600 -0.2506
  817MOL0     H10271   3.501   9.277   7.727  0.9834  3.4409 -0.5373
  817MOL0     H10272   3.529   9.355   7.896 -2.6566  0.8808 -0.1616
  817MOL0     H10273   3.547   9.074   7.928 -1.4909  0.4487 -0.9561
  817MOL0     H10274   3.673   9.188   7.956  1.2397 -4.6220  0.7076
  817MOL0     H10275   3.722   9.205   7.718 -1.2792  0.4634 -0.2375
  817MOL0     H10276   3.645   9.040   7.693  1.3048  0.7212 -1.5701
  817MOL0     H10277   2.862   9.683   7.941 -1.3329 -0.0552  1.7990
  817MOL0     H10278   2.705   9.831   8.043 -0.5254  0.2616 -2.9480
  817MOL0     H10279   2.597  10.283   8.139 -2.9791  1.9703  0.2065
  817MOL0     H10280   2.478  10.463   8.234 -0.1805  0.1359 -1.4925
  817MOL0     H10281   1.750  10.926   9.284  2.9535 -0.0406  1.6730
  817MOL0     H10282   1.508  10.948   9.273 -0.7533 -0.8740  1.9397
  817MOL0     H10283   1.074  11.254   9.612  1.0347  0.2804 -0.1505
  817MOL0     H10284   0.823  11.232   9.582  0.6453  0.2126 -1.2583
  817MOL0     H10285   0.625  11.188   9.538 -0.9252  1.2405 -0.8688
  817MOL0     H10286   0.624  11.165   9.375 -1.3341  1.3207  1.4754
  817MOL0     H10287   0.483  10.946   9.461  0.6950 -1.1488  2.4243
  817MOL0     H10288   0.392  11.095   9.468 -0.1998  2.9393  2.7741
  817MOL0     H10289   0.420  11.135   9.686  1.0861 -0.0574 -1.4212
  817MOL0     H10290   0.564  11.037   9.717  1.4160  2.3279 -0.9427
  817MOL0     H10291   0.436  10.818   9.692 -1.3446 -1.1178 -2.7998
  817MOL0     H10292   0.295  10.916   9.621 -2.8912 -0.5942  3.1821
  817MOL0     H10293   0.202  10.922  10.022  1.6922 -1.4309  1.0341
  817MOL0     H10294   0.887  10.848   9.409 -0.0389 -0.2192  2.6670
  817MOL0     H10295   1.128  10.884   9.416  1.1191 -0.1985 -1.3672
  818MOL0     O10296   5.786   3.344   3.529 -0.4724  0.3951  0.0195
  818MOL0     C10297   5.850   3.290   3.613  0.2625 -0.1671 -0.5813
  818MOL0     O10298   5.825   3.165   3.663  0.1093 -0.0646 -0.5392
  818MOL0     C10299   5.717   3.090   3.619 -0.1106  0.0610  0.6311
  818MOL0     C10300   5.717   3.040   3.488  0.8581 -0.1864  0.7907
  818MOL0     C10301   5.596   2.970   3.449  0.2488  0.0652 -0.2724
  818MOL0     C10302   5.495   2.932   3.550 -0.1876  0.2915 -0.4593
  818MOL0     O10303   5.382   2.868   3.509 -0.6330  0.8241 -0.4738
  818MOL0     C10304   5.277   2.829   3.598 -0.3451  0.6066 -0.8439
  818MOL0     C10305   5.157   2.762   3.535 -0.3835  0.1959  0.7283
  818MOL0     C10306   5.203   2.651   3.446  1.0845 -0.6953  0.3626
  818MOL0     C10307   5.085   2.579   3.395 -0.6329  0.4975 -0.0040
  818MOL0     C10308   5.116   2.484   3.283 -0.6042 -0.3687 -0.2520
  818MOL0     C10309   5.104   2.556   3.142 -0.1527  0.5634  0.9460
  818MOL0     C10310   5.202   2.495   3.042 -0.6522  1.0843  0.2276
  818MOL0     C10311   5.157   2.517   2.894  0.7829 -0.6890  0.2194
  818MOL0     N10312   5.227   2.441   2.793 -0.7147 -0.5368  0.4965
  818MOL0     C10313   5.214   2.309   2.756  0.0695  1.4434 -0.6273
  818MOL0     C10314   5.287   2.299   2.638 -0.3467 -0.4537 -0.1981
  818MOL0     C10315   5.303   2.167   2.551  0.9738  0.3104 -0.5948
  818MOL0     C10316   5.181   2.069   2.552  0.3837 -0.6930  0.5803
  818MOL0     C10317   5.056   2.129   2.481  0.3112 -0.0795  0.5991
  818MOL0     C10318   5.084   2.178   2.338 -0.1606 -0.4168 -0.3090
  818MOL0     O10319   4.965   2.235   2.275  0.0309  0.6980  0.0341
  818MOL0     C10320   4.918   2.360   2.312  0.3117 -0.2081 -0.0615
  818MOL0     C10321   4.978   2.444   2.415  0.0187  0.5170 -0.3153
  818MOL0     C10322   4.936   2.575   2.441  0.1342 -0.1752 -1.3649
  818MOL0     C10323   5.028   2.667   2.525  0.0092  0.4734  0.6650
  818MOL0     C10324   4.827   2.624   2.361  0.3884 -0.1150  0.0275
  818MOL0     C10325   4.782   2.764   2.358 -0.1756 -0.6457 -0.4664
  818MOL0     O10326   4.699   2.815   2.256 -0.1085  0.2504 -0.6986
  818MOL0     C10327   4.660   2.943   2.256 -0.8663  0.3735  0.4493
  818MOL0     C10328   4.540   2.972   2.327 -0.0244  1.3406  0.0528
  818MOL0     C10329   4.504   3.103   2.337 -0.3617  0.1640  0.6192
  818MOL0     C10330   4.556   3.203   2.242 -0.2893 -0.2533 -0.3905
  818MOL0     O10331   4.516   3.328   2.242 -0.0868  0.1270 -0.2529
  818MOL0     C10332   4.380   3.340   2.208 -0.4910  0.2425 -0.1974
  818MOL0     C10333   4.348   3.493   2.234 -0.5498  0.2203 -0.4599
  818MOL0     C10334   4.207   3.528   2.204 -0.6107  0.1893  0.2794
  818MOL0     C10335   4.199   3.617   2.071 -0.3243 -0.7777 -0.0369
  818MOL0     C10336   4.056   3.679   2.051  0.4756  0.2413  0.0190
  818MOL0     C10337   4.039   3.698   1.898  0.1039 -0.4114 -1.0638
  818MOL0     C10338   3.905   3.759   1.854 -0.3185 -0.2416 -0.5478
  818MOL0     C10339   3.875   3.897   1.896  0.0159  0.1690 -0.2829
  818MOL0    Cl10340   4.011   3.996   1.827 -0.5154 -0.5644  0.0073
  818MOL0     C10341   4.656   3.164   2.159  0.0611  0.0618 -0.4867
  818MOL0     C10342   4.720   3.036   2.163  0.4864  0.6519  1.0470
  818MOL0     O10343   4.832   2.846   2.440  0.3576  0.0988  0.2409
  818MOL0     C10344   4.749   2.534   2.285 -0.0899  1.3366 -0.5553
  818MOL0     C10345   4.799   2.404   2.260  0.0782 -1.3282 -0.6900
  818MOL0     N10346   5.339   2.420   2.612 -0.0835 -0.0337  0.5865
  818MOL0     N10347   5.301   2.508   2.700 -0.2462 -0.0937  0.7589
  818MOL0     C10348   5.511   2.970   3.682 -0.8211  0.7506 -0.3429
  818MOL0     C10349   5.616   3.049   3.717 -0.7651  0.4120  1.0336
  818MOL0     C10350   5.981   3.353   3.648 -0.2163 -0.5118 -0.6408
  818MOL0     C10351   6.087   3.269   3.690  0.7144  0.6789  0.5624
  818MOL0     C10352   6.211   3.321   3.721  0.2951 -0.3512  0.1050
  818MOL0     C10353   6.235   3.458   3.703 -0.3796 -1.0660 -0.5504
  818MOL0     O10354   6.367   3.489   3.724 -0.0525  0.0397  0.1777
  818MOL0     C10355   6.427   3.602   3.648  0.5815  0.7209  0.4415
  818MOL0     C10356   6.430   3.585   3.487  0.4262 -0.3768  0.6805
  818MOL0     C10357   6.535   3.481   3.427 -0.1882  0.5011  0.0983
  818MOL0     C10358   6.572   3.487   3.272  0.1386  0.1632  0.2735
  818MOL0     C10359   6.624   3.612   3.230  0.1292  0.6007 -0.3964
  818MOL0     C10360   6.672   3.725   3.216 -0.0357  0.2777  0.5963
  818MOL0     C10361   6.130   3.546   3.659  0.3046 -0.9947  0.7809
  818MOL0     C10362   6.007   3.491   3.638  1.4914 -0.2748  0.6474
  818MOL0     H10363   5.788   3.075   3.414  2.7261 -2.9899  1.0932
  818MOL0     H10364   5.575   2.941   3.346  1.3619 -0.7258 -0.2969
  818MOL0     H10365   5.317   2.753   3.666  2.2095 -0.5295 -3.4030
  818MOL0     H10366   5.247   2.915   3.659 -0.8726  0.5304 -0.9890
  818MOL0     H10367   5.088   2.729   3.613  0.9702 -3.7496  0.4628
  818MOL0     H10368   5.104   2.837   3.476  0.8738  3.2191  3.2031
  818MOL0     H10369   5.240   2.699   3.354 -2.0032  0.1304 -0.5543
  818MOL0     H10370   5.266   2.576   3.495 -2.1779 -4.0206 -0.0794
  818MOL0     H10371   5.070   2.517   3.483  1.4494  2.7442  2.0704
  818MOL0     H10372   5.000   2.645   3.379  0.0097  1.6161  1.0717
  818MOL0     H10373   5.222   2.464   3.298 -0.6714  0.6282  1.9772
  818MOL0     H10374   5.046   2.400   3.286 -1.1144  0.0680  0.9277
  818MOL0     H10375   5.002   2.534   3.109  0.1398 -1.3367  1.2218
  818MOL0     H10376   5.125   2.663   3.138 -0.0701  0.5200 -1.7106
  818MOL0     H10377   5.306   2.529   3.044 -0.2979  0.3877 -2.2783
  818MOL0     H10378   5.212   2.391   3.074 -0.3056  1.0489  0.0039
  818MOL0     H10379   5.162   2.623   2.868 -1.0843  0.0515  2.4706
  818MOL0     H10380   5.054   2.479   2.894 -0.5158  2.4248 -1.6345
  818MOL0     H10381   5.173   2.218   2.799  4.1735  0.0538  0.8209
  818MOL0     H10382   5.327   2.205   2.451  3.9027  2.0770  0.6254
  818MOL0     H10383   5.382   2.103   2.591  0.5901 -1.3721 -2.3443
  818MOL0     H10384   5.143   2.055   2.654 -3.1480  1.0001 -0.3595
  818MOL0     H10385   5.193   1.972   2.502 -1.9155 -0.2360 -0.9958
  818MOL0     H10386   5.016   2.219   2.529 -2.6360 -0.6907 -0.4987
  818MOL0     H10387   4.975   2.055   2.473 -0.1534  0.3130  1.5199
  818MOL0     H10388   5.109   2.091   2.276  2.2017 -0.6390  0.8112
  818MOL0     H10389   5.165   2.251   2.338 -1.0158  0.5827 -1.8183
  818MOL0     H10390   5.067   2.402   2.461 -2.1991 -4.9440 -0.1948
  818MOL0     H10391   5.079   2.755   2.484  0.7718  1.3251  3.2825
  818MOL0     H10392   4.963   2.702   2.605 -2.1835 -1.1834 -0.3015
  818MOL0     H10393   5.106   2.601   2.563  0.0810 -0.5650 -1.1530
  818MOL0     H10394   4.491   2.892   2.382  1.2258  0.3921 -0.1580
  818MOL0     H10395   4.449   3.132   2.426  1.9242  0.5627  1.9756
  818MOL0     H10396   4.366   3.302   2.106  1.1074  1.0551 -0.7504
  818MOL0     H10397   4.312   3.284   2.273 -0.3303 -1.3347 -1.3301
  818MOL0     H10398   4.358   3.508   2.342  4.3103  0.5427 -0.7252
  818MOL0     H10399   4.421   3.561   2.189  3.1109  0.5235  4.9572
  818MOL0     H10400   4.164   3.591   2.283  1.7449  0.1795  1.6592
  818MOL0     H10401   4.146   3.441   2.178  0.1453  0.3015 -2.1333
  818MOL0     H10402   4.278   3.691   2.078 -0.2163 -0.9135  0.2236
  818MOL0     H10403   4.213   3.552   1.984 -2.4970 -0.3178 -0.7900
  818MOL0     H10404   4.042   3.778   2.095 -1.9450  0.9212 -2.0513
  818MOL0     H10405   3.966   3.621   2.072  0.9947 -0.3139  0.7523
  818MOL0     H10406   4.124   3.756   1.861  1.3834  0.4628  2.8064
  818MOL0     H10407   4.045   3.600   1.849  0.8379 -0.8890 -0.0532
  818MOL0     H10408   3.823   3.699   1.895 -1.7048  2.8836  1.6542
  818MOL0     H10409   3.924   3.745   1.747 -1.0428  0.7501 -0.8181
  818MOL0     H10410   3.861   3.907   2.004  2.9494  2.1006  0.0221
  818MOL0     H10411   3.782   3.935   1.853  0.3361  2.0875  0.5977
  818MOL0     H10412   4.698   3.231   2.086  0.9961 -2.3666 -2.3043
  818MOL0     H10413   4.795   2.990   2.100 -0.6744  0.3231 -0.1283
  818MOL0     H10414   4.655   2.561   2.239 -0.2732 -2.2349 -2.6876
  818MOL0     H10415   4.733   2.347   2.196 -1.9193 -0.5622  0.5716
  818MOL0     H10416   5.443   2.943   3.762  2.1087 -0.3621  1.9683
  818MOL0     H10417   5.634   3.062   3.823  1.6988 -2.1186  1.0665
  818MOL0     H10418   6.076   3.161   3.698 -2.0106  0.7673 -1.0326
  818MOL0     H10419   6.292   3.263   3.763  0.5941  0.9363  1.3991
  818MOL0     H10420   6.376   3.696   3.669 -0.1685  2.0026 -5.3665
  818MOL0     H10421   6.529   3.618   3.683  0.6087 -0.7643  1.1412
  818MOL0     H10422   6.455   3.685   3.450 -1.2963 -0.2747 -0.3037
  818MOL0     H10423   6.330   3.555   3.455 -0.5676  2.2983  0.9960
  818MOL0     H10424   6.507   3.382   3.463 -0.0787  0.3688 -0.1753
  818MOL0     H10425   6.625   3.510   3.482  2.2842 -0.4722 -3.1217
  818MOL0     H10426   6.481   3.473   3.212  2.9514 -1.7411 -4.0380
  818MOL0     H10427   6.655   3.417   3.260 -2.3400 -2.6200 -2.2464
  818MOL0     H10428   6.718   3.822   3.208  1.9476 -0.5930  0.9761
  818MOL0     H10429   6.138   3.650   3.631 -1.2332 -0.3953  2.4136
  818MOL0     H10430   5.923   3.548   3.598 -0.9538 -2.4534  2.3193
  819MOL0     O10431   6.558   4.147  10.987  0.0782 -0.5516  0.0067
  819MOL0     C10432   6.645   4.082  11.029 -0.4420 -0.4290  0.4681
  819MOL0     O10433   6.750   4.133  11.093  0.8095  0.2032  0.0848
  819MOL0     C10434   6.743   4.257  11.144  0.2996 -0.0814 -0.6557
  819MOL0     C10435   6.657   4.279  11.252  1.2165  0.0310 -0.6176
  819MOL0     C10436   6.645   4.411  11.299 -0.1716  0.4510  0.1176
  819MOL0     C10437   6.734   4.515  11.251  0.5235  1.1156  0.4182
  819MOL0     O10438   6.752   4.628  11.323  0.4930  0.1971  0.4950
  819MOL0     C10439   6.728   4.750  11.254  0.6620  0.0211 -0.2217
  819MOL0     C10440   6.751   4.878  11.345  0.5384 -0.8987 -0.2738
  819MOL0     C10441   6.885   4.941  11.301 -0.8460 -0.1142  0.2860
  819MOL0     C10442   6.928   5.034  11.411 -0.0969  0.0371  0.5010
  819MOL0     C10443   6.985   5.155  11.351 -0.0489 -0.9793 -0.1077
  819MOL0     C10444   7.046   5.261  11.448  0.3017  1.0862 -0.6491
  819MOL0     C10445   6.968   5.299  11.581 -0.4865 -0.0655  0.5296
  819MOL0     C10446   6.989   5.204  11.702  0.3978 -0.4541 -1.1041
  819MOL0     N10447   7.125   5.190  11.753 -1.1109 -0.2090 -0.0499
  819MOL0     C10448   7.193   5.273  11.841 -0.6733 -0.4219 -0.1577
  819MOL0     C10449   7.264   5.205  11.929  0.5423 -0.0294 -0.0742
  819MOL0     C10450   7.321   5.261  12.060 -0.1739  0.1650 -0.2440
  819MOL0     C10451   7.458   5.318  12.032  0.5851  0.2512  0.1927
  819MOL0     C10452   7.448   5.468  12.024 -0.4590  0.0041  0.0185
  819MOL0     C10453   7.578   5.539  11.978 -0.0492 -1.1622 -0.2430
  819MOL0     O10454   7.557   5.684  11.970 -0.4189  0.3645  0.0965
  819MOL0     C10455   7.669   5.757  11.987 -0.3910 -0.0018  0.3274
  819MOL0     C10456   7.653   5.898  12.023  0.7547  0.0239  0.0869
  819MOL0     C10457   7.762   5.987  12.024  0.0977  0.5774  1.4536
  819MOL0     C10458   7.744   6.130  12.068  0.2418  0.1800 -0.2898
  819MOL0     C10459   7.886   5.945  11.973 -0.0772 -0.2452  0.1920
  819MOL0     C10460   8.007   6.022  11.947 -0.4204  0.0413 -1.5880
  819MOL0     O10461   8.121   5.963  11.979 -0.0496 -0.3812  0.0973
  819MOL0     C10462   8.242   6.024  11.943 -0.1240 -0.6423  0.4554
  819MOL0     C10463   8.301   6.141  11.996  0.4794  0.3707 -0.9959
  819MOL0     C10464   8.440   6.160  11.974 -0.4225  0.2740 -1.1625
  819MOL0     C10465   8.515   6.070  11.896 -0.3788 -0.7287 -0.0760
  819MOL0     O10466   8.649   6.092  11.860  0.4369  0.7391  0.1977
  819MOL0     C10467   8.728   5.974  11.814  0.2567 -0.0668 -0.5456
  819MOL0     C10468   8.875   6.024  11.788 -0.2516 -0.3728 -0.4809
  819MOL0     C10469   8.989   5.919  11.790  0.1474  0.4486  0.0949
  819MOL0     C10470   9.116   5.964  11.714 -0.5216  0.4905 -0.5741
  819MOL0     C10471   9.215   5.852  11.729 -0.3719 -0.3429 -0.4675
  819MOL0     C10472   9.362   5.872  11.670  0.3299  0.9469 -0.4482
  819MOL0     C10473   9.460   5.759  11.690 -0.0195  0.0575  0.1324
  819MOL0     C10474   9.441   5.632  11.600  0.1704  0.5888 -0.6646
  819MOL0    Cl10475   9.534   5.486  11.660  0.2482 -0.2886  0.1825
  819MOL0     C10476   8.451   5.964  11.835 -0.7236  0.0136 -0.2998
  819MOL0     C10477   8.313   5.941  11.861 -1.0468  0.9749  0.2628
  819MOL0     O10478   7.999   6.136  11.909 -0.4173 -0.0278 -0.1782
  819MOL0     C10479   7.900   5.805  11.947  0.4056 -0.7419  0.2012
  819MOL0     C10480   7.802   5.717  11.965 -0.2230 -0.1660 -0.3371
  819MOL0     N10481   7.262   5.077  11.885  0.1544  1.3367  0.4387
  819MOL0     N10482   7.179   5.072  11.783 -0.0484  0.2958 -0.4060
  819MOL0     C10483   6.808   4.490  11.131  0.0967 -0.1597 -0.3042
  819MOL0     C10484   6.809   4.356  11.076 -0.9764  0.4440 -0.1251
  819MOL0     C10485   6.668   3.946  10.987  0.1548 -0.1842  0.2775
  819MOL0     C10486   6.803   3.899  10.969  0.3061  0.1676  0.6426
  819MOL0     C10487   6.812   3.760  10.939  0.2644 -0.4841 -0.0892
  819MOL0     C10488   6.696   3.691  10.898  0.4356 -0.1784 -0.4015
  819MOL0     O10489   6.716   3.563  10.860  0.3784 -0.1472  0.1646
  819MOL0     C10490   6.600   3.484  10.814  0.3417  0.3148  1.4038
  819MOL0     C10491   6.645   3.354  10.755  0.2719  0.6715  0.2660
  819MOL0     C10492   6.520   3.286  10.684  0.2097 -1.0416  0.0705
  819MOL0     C10493   6.538   3.134  10.672 -0.7172 -0.6291 -0.2955
  819MOL0     C10494   6.405   3.075  10.637  1.1204  0.7084 -1.3151
  819MOL0     C10495   6.293   3.040  10.612 -0.5232 -0.3837 -0.1279
  819MOL0     C10496   6.573   3.740  10.917  1.1040 -0.6562 -0.0985
  819MOL0     C10497   6.555   3.868  10.960  0.3236 -0.3098  0.1791
  819MOL0     H10498   6.611   4.206  11.318  1.1028  0.7086  0.0605
  819MOL0     H10499   6.592   4.441  11.389  0.1607  2.1685 -0.2290
  819MOL0     H10500   6.795   4.762  11.169 -2.1824  1.3917 -2.4374
  819MOL0     H10501   6.624   4.742  11.222  0.6406  0.4225 -0.2645
  819MOL0     H10502   6.676   4.950  11.311  1.1248  0.4313  1.0967
  819MOL0     H10503   6.751   4.851  11.451  0.4194 -0.4218 -0.1486
  819MOL0     H10504   6.964   4.870  11.273 -2.3435 -2.2524  1.2696
  819MOL0     H10505   6.866   4.999  11.210 -0.2862  1.3108  1.0408
  819MOL0     H10506   6.831   5.054  11.458  0.0081  1.1585  0.2476
  819MOL0     H10507   6.996   4.983  11.480  1.6004  0.1445 -1.0205
  819MOL0     H10508   7.058   5.117  11.279 -1.4117 -3.9459 -0.1071
  819MOL0     H10509   6.907   5.212  11.301  0.6880 -0.7170 -0.9877
  819MOL0     H10510   7.138   5.212  11.480  0.4190  1.9479  0.3827
  819MOL0     H10511   7.068   5.350  11.389 -0.6546  2.6922  1.3156
  819MOL0     H10512   6.999   5.398  11.617  0.4941 -0.3842  0.5885
  819MOL0     H10513   6.863   5.310  11.553 -0.1432 -0.0991 -0.8444
  819MOL0     H10514   6.946   5.104  11.687 -0.0666 -0.3155 -0.7389
  819MOL0     H10515   6.931   5.245  11.785 -0.9034 -1.7889 -1.3106
  819MOL0     H10516   7.175   5.379  11.858  0.8251 -0.4153  1.7076
  819MOL0     H10517   7.252   5.339  12.094  0.2463  0.9299 -1.1144
  819MOL0     H10518   7.331   5.177  12.129  0.3311  0.7122  0.3560
  819MOL0     H10519   7.498   5.293  11.934 -1.6195  0.3896 -0.8150
  819MOL0     H10520   7.525   5.279  12.109 -0.4344 -1.3953  0.3016
  819MOL0     H10521   7.423   5.512  12.120 -1.1909  2.7924 -1.3414
  819MOL0     H10522   7.360   5.479  11.960 -1.4413 -3.0723  0.6518
  819MOL0     H10523   7.616   5.493  11.886 -0.0440  0.7456 -1.2270
  819MOL0     H10524   7.651   5.517  12.057  3.0117 -1.8387 -3.0226
  819MOL0     H10525   7.554   5.920  12.061  1.7968 -0.3657  3.3254
  819MOL0     H10526   7.734   6.195  11.981  2.3414  0.2383 -0.5363
  819MOL0     H10527   7.656   6.135  12.133  1.5334 -0.4861  1.5923
  819MOL0     H10528   7.831   6.159  12.128 -0.7292 -0.6185  1.5864
  819MOL0     H10529   8.251   6.217  12.055 -1.3124 -2.7797  1.9770
  819MOL0     H10530   8.495   6.238  12.024 -1.1830 -0.1598  0.4222
  819MOL0     H10531   8.737   5.901  11.894 -0.8920  0.1090 -0.2465
  819MOL0     H10532   8.693   5.921  11.724 -0.5653  3.4522 -2.4726
  819MOL0     H10533   8.881   6.094  11.704 -0.3543  0.9105  0.5508
  819MOL0     H10534   8.884   6.087  11.877 -2.6917  0.7191 -0.9186
  819MOL0     H10535   8.944   5.828  11.750  1.5734  0.2307 -1.1023
  819MOL0     H10536   9.015   5.901  11.895 -1.4898  1.1968  0.6723
  819MOL0     H10537   9.087   5.992  11.613 -1.4749  1.8113  0.0293
  819MOL0     H10538   9.163   6.057  11.748  0.1931  0.2165 -0.8110
  819MOL0     H10539   9.169   5.760  11.692  0.0836  0.5175 -3.4611
  819MOL0     H10540   9.236   5.835  11.835  1.5723 -3.1374 -1.1527
  819MOL0     H10541   9.338   5.883  11.564 -0.4457  2.1540 -0.1711
  819MOL0     H10542   9.400   5.964  11.717  2.5110  0.2709 -0.8074
  819MOL0     H10543   9.446   5.722  11.791  1.6256  0.2881  0.4794
  819MOL0     H10544   9.562   5.798  11.680  0.1221 -0.4551 -0.4977
  819MOL0     H10545   9.478   5.659  11.501  1.2043 -0.1256 -0.4863
  819MOL0     H10546   9.333   5.620  11.584  0.4211 -1.1918 -1.3385
  819MOL0     H10547   8.515   5.897  11.778  2.8448  1.2460  1.9049
  819MOL0     H10548   8.273   5.842  11.842  0.7185  0.6185 -2.0263
  819MOL0     H10549   7.992   5.766  11.906  1.2062  0.4106  0.8433
  819MOL0     H10550   7.825   5.614  11.940 -1.6819 -1.5903  3.5188
  819MOL0     H10551   6.852   4.568  11.070  1.2020 -1.6482 -1.4990
  819MOL0     H10552   6.844   4.337  10.975 -4.8101 -0.7181 -1.4350
  819MOL0     H10553   6.893   3.955  10.991 -0.2049  1.0917  0.4656
  819MOL0     H10554   6.915   3.727  10.927  0.7299  0.9821 -0.2677
  819MOL0     H10555   6.538   3.459  10.901  1.4100  0.3354  2.1895
  819MOL0     H10556   6.545   3.536  10.736 -0.7829 -1.4722  0.9345
  819MOL0     H10557   6.680   3.280  10.828  2.6869  0.0070 -1.4506
  819MOL0     H10558   6.716   3.364  10.673 -2.5842 -1.5028 -2.7501
  819MOL0     H10559   6.513   3.326  10.582 -0.5347 -0.6810  0.2573
  819MOL0     H10560   6.425   3.306  10.733 -0.0378  1.3584 -1.1955
  819MOL0     H10561   6.570   3.087  10.765  0.4353  0.3227 -0.1851
  819MOL0     H10562   6.610   3.112  10.592 -0.1686 -2.7747  0.7126
  819MOL0     H10563   6.189   3.016  10.602 -1.5531  2.8427  1.4193
  819MOL0     H10564   6.485   3.679  10.900 -0.5306  2.0686 -2.2769
  819MOL0     H10565   6.461   3.903  11.001  0.6895 -1.2348  1.9022
  820MOL0     O10566   0.130   7.780   7.905 -0.5183  1.1698 -0.3774
  820MOL0     C10567   0.213   7.695   7.889 -0.8376 -0.3917  0.3342
  820MOL0     O10568   0.191   7.569   7.840 -0.7951 -0.0345 -0.2289
  820MOL0     C10569   0.065   7.516   7.828 -0.0938  0.0698 -0.3416
  820MOL0     C10570  -0.044   7.545   7.916  0.6571 -1.0102 -1.0270
  820MOL0     C10571  -0.172   7.501   7.894 -0.1431 -0.2104 -0.2427
  820MOL0     C10572  -0.204   7.436   7.779  0.1182 -0.0057  0.5398
  820MOL0     O10573  -0.333   7.416   7.758  0.2404 -0.2336  0.8406
  820MOL0     C10574  -0.380   7.334   7.646 -1.0345  0.3770  0.6761
  820MOL0     C10575  -0.527   7.326   7.659  0.0527 -0.7477  0.0903
  820MOL0     C10576  -0.602   7.456   7.607 -0.4600 -0.4221  0.3507
  820MOL0     C10577  -0.746   7.450   7.608  0.3076 -0.7680  0.0499
  820MOL0     C10578  -0.809   7.587   7.568 -0.1312 -0.2309  0.2364
  820MOL0     C10579  -0.957   7.563   7.555  0.9396 -0.2878  0.5899
  820MOL0     C10580  -1.040   7.683   7.497  0.0538  0.2305 -0.3868
  820MOL0     C10581  -1.064   7.787   7.606  0.2213 -0.2041  0.4730
  820MOL0     N10582  -1.131   7.892   7.529  0.0541 -0.0424 -1.0610
  820MOL0     C10583  -1.270   7.917   7.525  0.4992  0.0206 -0.2955
  820MOL0     C10584  -1.288   8.027   7.453 -0.5464  0.5514 -0.3072
  820MOL0     C10585  -1.416   8.111   7.416  0.5798  0.8501  0.4086
  820MOL0     C10586  -1.472   8.073   7.278  0.1942 -0.0283  0.8610
  820MOL0     C10587  -1.445   8.165   7.164 -0.4084 -0.0193  0.4188
  820MOL0     C10588  -1.310   8.237   7.157  0.0683 -0.1207  0.4710
  820MOL0     O10589  -1.310   8.329   7.041 -0.0905  0.4434 -0.2395
  820MOL0     C10590  -1.306   8.465   7.067  1.2475  0.6855 -0.2046
  820MOL0     C10591  -1.376   8.515   7.176  0.2423  0.5178  0.8261
  820MOL0     C10592  -1.389   8.651   7.199 -0.1548 -0.4722 -0.8711
  820MOL0     C10593  -1.456   8.690   7.328 -0.3346 -0.5882 -0.3705
  820MOL0     C10594  -1.342   8.745   7.101 -0.2230 -0.0526  0.4769
  820MOL0     C10595  -1.362   8.894   7.114  1.1226  0.8533  0.1876
  820MOL0     O10596  -1.476   8.933   7.191 -0.0260  0.1642  0.9028
  820MOL0     C10597  -1.522   9.065   7.214 -0.3104 -0.2052 -0.0908
  820MOL0     C10598  -1.648   9.077   7.283 -0.4228  0.6659  0.7593
  820MOL0     C10599  -1.701   9.203   7.301  0.7590 -0.2848  0.4829
  820MOL0     C10600  -1.641   9.315   7.245 -0.6071 -0.3675 -0.4646
  820MOL0     O10601  -1.698   9.435   7.253 -0.2949 -0.4354 -0.6801
  820MOL0     C10602  -1.660   9.542   7.172 -0.6627  1.1593 -0.1738
  820MOL0     C10603  -1.775   9.636   7.141  0.2563  0.5843 -0.4988
  820MOL0     C10604  -1.746   9.711   7.004  0.2545  0.3025  0.4286
  820MOL0     C10605  -1.834   9.833   6.976  0.5417 -0.8013  0.0829
  820MOL0     C10606  -1.842   9.930   7.089 -0.3958 -0.0282 -0.4441
  820MOL0     C10607  -1.698   9.975   7.112 -0.4621  0.4454 -0.2428
  820MOL0     C10608  -1.713  10.094   7.206 -0.7405  1.0632  0.2477
  820MOL0     C10609  -1.577  10.158   7.231  0.4641 -0.4108  0.1840
  820MOL0    Cl10610  -1.597  10.273   7.370  0.1794  0.2960 -0.8215
  820MOL0     C10611  -1.513   9.302   7.188  0.4013 -0.6075 -1.0236
  820MOL0     C10612  -1.452   9.181   7.177 -1.0421 -0.5742  0.4766
  820MOL0     O10613  -1.292   8.973   7.053  0.0774  0.3927 -0.0203
  820MOL0     C10614  -1.283   8.695   6.983  0.0748  0.5422  0.8804
  820MOL0     C10615  -1.263   8.555   6.968  0.5041 -0.5689 -0.4270
  820MOL0     N10616  -1.157   8.069   7.421  0.2558 -1.2063 -0.5346
  820MOL0     N10617  -1.074   7.993   7.463 -0.9257 -0.0689  0.0322
  820MOL0     C10618  -0.101   7.391   7.701  1.0565 -0.5457 -0.1787
  820MOL0     C10619   0.028   7.438   7.721 -0.2011 -1.0788 -0.1744
  820MOL0     C10620   0.357   7.726   7.906  0.3491  0.0381 -0.0589
  820MOL0     C10621   0.397   7.810   8.011  0.0565 -0.6321  0.4162
  820MOL0     C10622   0.526   7.854   8.011  0.0274  0.2109  0.4832
  820MOL0     C10623   0.622   7.822   7.919 -0.6849  0.1591 -0.4153
  820MOL0     O10624   0.745   7.874   7.933 -0.0063  0.4406 -0.2141
  820MOL0     C10625   0.847   7.836   7.839 -0.7792  0.6464  0.0073
  820MOL0     C10626   0.897   7.686   7.864 -0.4170 -0.4517 -0.0186
  820MOL0     C10627   1.007   7.674   7.963 -0.2568 -1.0517 -0.2824
  820MOL0     C10628   0.983   7.732   8.097  0.8119  0.0415 -1.0253
  820MOL0     C10629   1.096   7.732   8.182 -0.0788  0.5958  0.3016
  820MOL0     C10630   1.180   7.738   8.268  0.5298 -0.2106 -0.1466
  820MOL0     C10631   0.583   7.748   7.815  0.6366  0.6143  0.6506
  820MOL0     C10632   0.453   7.701   7.811 -0.2670 -0.2179 -0.5215
  820MOL0     H10633  -0.039   7.621   7.994 -1.5592 -2.4822  0.6755
  820MOL0     H10634  -0.258   7.545   7.945  0.2284 -0.0989  0.2872
  820MOL0     H10635  -0.352   7.374   7.548 -2.1916 -1.4030 -0.4481
  820MOL0     H10636  -0.331   7.237   7.653 -1.4632  0.2593  2.5506
  820MOL0     H10637  -0.549   7.235   7.603 -4.4014 -0.4656  1.0024
  820MOL0     H10638  -0.555   7.309   7.763 -1.5499  1.0902  0.0344
  820MOL0     H10639  -0.577   7.544   7.666  0.3344  0.9778 -1.9323
  820MOL0     H10640  -0.570   7.484   7.506 -0.3332  1.2190  0.8221
  820MOL0     H10641  -0.797   7.377   7.545 -4.1236  0.8308  1.4191
  820MOL0     H10642  -0.773   7.422   7.710  1.2585  0.1849  0.5942
  820MOL0     H10643  -0.777   7.673   7.628  2.2465 -1.2626  0.5692
  820MOL0     H10644  -0.781   7.621   7.468  0.8129  0.2011  0.6355
  820MOL0     H10645  -0.982   7.472   7.499  0.3881  1.9465 -3.1678
  820MOL0     H10646  -0.996   7.548   7.656 -0.2492  0.3803  0.2553
  820MOL0     H10647  -0.975   7.730   7.423  0.0663  1.5538  0.4205
  820MOL0     H10648  -1.131   7.642   7.453 -0.9461  0.7777  1.0887
  820MOL0     H10649  -0.965   7.814   7.645  0.5645  3.4193 -2.3046
  820MOL0     H10650  -1.112   7.742   7.694 -0.9181 -0.7221 -0.3932
  820MOL0     H10651  -1.347   7.863   7.579  2.8735 -1.0952  2.2352
  820MOL0     H10652  -1.498   8.086   7.484  0.1392 -1.1684 -0.7556
  820MOL0     H10653  -1.404   8.219   7.416  2.1227  0.6959  0.6031
  820MOL0     H10654  -1.580   8.065   7.296  0.3035 -0.0527  1.5229
  820MOL0     H10655  -1.427   7.978   7.246  0.3107 -0.2704  1.7171
  820MOL0     H10656  -1.519   8.246   7.162  1.1229  1.7706  4.6295
  820MOL0     H10657  -1.441   8.112   7.069 -0.6386 -0.7233  0.7862
  820MOL0     H10658  -1.239   8.154   7.154 -1.9168 -2.0562  2.6415
  820MOL0     H10659  -1.282   8.298   7.243  1.8864 -0.1246 -0.0720
  820MOL0     H10660  -1.428   8.447   7.242  0.4933 -3.0491 -2.2614
  820MOL0     H10661  -1.554   8.725   7.296 -1.3055 -4.2782 -1.9937
  820MOL0     H10662  -1.454   8.606   7.399  0.6477  0.1865  0.5645
  820MOL0     H10663  -1.393   8.773   7.361 -5.1491  4.8287 -3.2018
  820MOL0     H10664  -1.709   8.996   7.321 -1.1489  0.6387 -0.4305
  820MOL0     H10665  -1.800   9.222   7.341  0.1820 -1.0330 -0.5289
  820MOL0     H10666  -1.588   9.596   7.234 -0.1150 -1.0877  1.2737
  820MOL0     H10667  -1.616   9.503   7.080  1.1963  0.2942  1.0142
  820MOL0     H10668  -1.863   9.570   7.134  2.0065 -2.1030  0.9480
  820MOL0     H10669  -1.792   9.706   7.223  2.6375  3.2640 -2.1046
  820MOL0     H10670  -1.745   9.628   6.932  0.8846 -1.0024  1.8735
  820MOL0     H10671  -1.639   9.734   7.001  0.3748 -0.1905  0.7062
  820MOL0     H10672  -1.802   9.881   6.884  0.1869 -1.5217 -0.4277
  820MOL0     H10673  -1.936   9.806   6.947  1.1718 -1.7594 -1.3474
  820MOL0     H10674  -1.895   9.909   7.183 -1.4717 -2.0435 -1.4569
  820MOL0     H10675  -1.899  10.014   7.049  0.6805 -0.2844 -2.6272
  820MOL0     H10676  -1.649   9.893   7.165  2.0609  1.4256 -0.9549
  820MOL0     H10677  -1.647   9.997   7.018 -0.8595 -4.1371 -1.8157
  820MOL0     H10678  -1.765  10.070   7.299  0.1753 -0.8192  0.3243
  820MOL0     H10679  -1.786  10.163   7.163 -3.2515 -2.2293 -1.1397
  820MOL0     H10680  -1.550  10.207   7.137 -1.0354 -3.9459 -2.3003
  820MOL0     H10681  -1.501  10.083   7.254 -0.8750 -1.7492  0.4363
  820MOL0     H10682  -1.454   9.387   7.156  1.8052 -1.8262 -1.8179
  820MOL0     H10683  -1.353   9.176   7.133 -1.8033 -2.2730 -1.1805
  820MOL0     H10684  -1.249   8.757   6.900  0.1565 -1.3045 -0.5233
  820MOL0     H10685  -1.218   8.507   6.881  1.5870  1.3456 -0.9857
  820MOL0     H10686  -0.112   7.350   7.601 -1.6775  4.5872 -2.3332
  820MOL0     H10687   0.107   7.424   7.647  0.1940 -2.7471  0.5309
  820MOL0     H10688   0.335   7.857   8.087 -0.1452 -1.0790  0.5352
  820MOL0     H10689   0.563   7.900   8.101  6.4978 -2.7493 -0.0819
  820MOL0     H10690   0.814   7.821   7.736  0.1991 -4.1596  0.1445
  820MOL0     H10691   0.932   7.904   7.835 -0.8388  0.7633  0.5700
  820MOL0     H10692   0.934   7.656   7.766 -0.0793  0.7179 -0.2682
  820MOL0     H10693   0.823   7.618   7.907  1.3269 -0.7620  2.7839
  820MOL0     H10694   1.102   7.717   7.929 -0.5391  1.8842  2.2409
  820MOL0     H10695   1.027   7.566   7.968  2.7199 -0.7752 -2.7502
  820MOL0     H10696   0.910   7.666   8.146  2.3596 -1.4976 -0.6797
  820MOL0     H10697   0.937   7.831   8.086 -0.8105 -0.8451 -2.7968
  820MOL0     H10698   1.255   7.751   8.343  0.1729  3.5007 -0.2377
  820MOL0     H10699   0.639   7.711   7.730 -1.6623  2.6586 -1.9420
  820MOL0     H10700   0.430   7.646   7.721  1.6584 -2.5054  0.2843
  821MOL0     O10701   2.341   7.545  10.186 -0.1803 -0.0907  0.0543
  821MOL0     C10702   2.264   7.590  10.101  0.0454  0.7131 -0.1138
  821MOL0     O10703   2.230   7.721  10.086 -0.6399 -0.4191  0.3188
  821MOL0     C10704   2.328   7.808  10.136  0.4277  0.1332  0.0657
  821MOL0     C10705   2.281   7.916  10.213 -0.1835 -1.1158 -0.7072
  821MOL0     C10706   2.366   8.022  10.240 -0.4191 -0.0710  0.0507
  821MOL0     C10707   2.509   8.012  10.224  0.4041 -0.6932  0.1149
  821MOL0     O10708   2.599   8.106  10.257 -0.4832 -0.3217  0.5935
  821MOL0     C10709   2.562   8.241  10.282 -1.1066  0.6525  1.4112
  821MOL0     C10710   2.500   8.316  10.161  0.2022  0.4519 -0.3230
  821MOL0     C10711   2.457   8.458  10.210  0.1701  0.3313  0.4402
  821MOL0     C10712   2.370   8.531  10.099  0.5382 -0.2493 -0.0387
  821MOL0     C10713   2.436   8.584   9.967 -0.1275 -0.0904 -0.0659
  821MOL0     C10714   2.537   8.690   9.995 -0.2992 -0.6242  0.0541
  821MOL0     C10715   2.562   8.784   9.872 -0.2749  0.5487 -0.8707
  821MOL0     C10716   2.437   8.864   9.812  0.5072  0.4427  0.2918
  821MOL0     N10717   2.360   8.931   9.917  0.6817  0.0804 -0.7972
  821MOL0     C10718   2.408   9.037   9.990 -0.0943  0.0614  0.3244
  821MOL0     C10719   2.297   9.078  10.070 -0.6169 -0.0655 -0.0829
  821MOL0     C10720   2.303   9.196  10.172 -0.3375 -0.3388  0.4223
  821MOL0     C10721   2.175   9.228  10.248 -0.1652  0.3823  0.5155
  821MOL0     C10722   2.135   9.131  10.352 -0.2170 -0.7526 -0.4690
  821MOL0     C10723   2.234   9.118  10.468 -0.2350 -0.5531  0.6958
  821MOL0     O10724   2.249   9.244  10.533 -0.5864  0.5939  0.2911
  821MOL0     C10725   2.301   9.261  10.662 -1.3834  0.1538 -0.9033
  821MOL0     C10726   2.395   9.182  10.729 -0.3144 -0.4332  0.5314
  821MOL0     C10727   2.456   9.216  10.848  0.7122 -0.4490 -0.3461
  821MOL0     C10728   2.572   9.127  10.892 -0.2604 -0.8462  0.0947
  821MOL0     C10729   2.416   9.332  10.915 -0.0832 -0.3837  0.7227
  821MOL0     C10730   2.481   9.397  11.033 -0.0590  0.7287 -0.4437
  821MOL0     O10731   2.432   9.508  11.086 -0.6397 -0.5286 -0.0648
  821MOL0     C10732   2.481   9.556  11.204  0.6284  0.4879 -0.3060
  821MOL0     C10733   2.417   9.518  11.328  0.3069 -0.0830  0.0131
  821MOL0     C10734   2.458   9.583  11.441  0.0104  0.4260 -0.5187
  821MOL0     C10735   2.558   9.686  11.442 -0.5911  0.9285 -0.1644
  821MOL0     O10736   2.605   9.727  11.565 -0.4713  0.3602 -0.4714
  821MOL0     C10737   2.672   9.854  11.572  0.0012 -0.2114  0.2360
  821MOL0     C10738   2.706   9.895  11.714  0.7697 -0.3695 -0.0253
  821MOL0     C10739   2.787  10.014  11.738  0.1212  0.3731 -0.7160
  821MOL0     C10740   2.804  10.034  11.889 -0.0378 -0.2440 -0.3772
  821MOL0     C10741   2.835  10.179  11.931 -0.1544 -0.1303  0.1638
  821MOL0     C10742   2.974  10.244  11.900 -0.6526  0.4761  0.9281
  821MOL0     C10743   3.093  10.152  11.917  0.0381  0.2338  0.2631
  821MOL0     C10744   3.218  10.221  11.857  0.1888  0.2932 -0.5710
  821MOL0    Cl10745   3.216  10.255  11.695 -0.4698  0.0064 -0.0096
  821MOL0     C10746   2.622   9.721  11.318 -0.4175  0.1446  0.0043
  821MOL0     C10747   2.586   9.652  11.204  1.5356  0.9102  0.2062
  821MOL0     O10748   2.571   9.326  11.088 -0.1189 -0.2553 -0.1932
  821MOL0     C10749   2.320   9.415  10.842 -0.5299 -0.1333 -0.7363
  821MOL0     C10750   2.261   9.377  10.726  0.3305 -0.6969 -0.2961
  821MOL0     N10751   2.189   8.996  10.036 -0.5602  0.7112  0.3299
  821MOL0     N10752   2.230   8.912   9.953  0.2389  0.7073  0.0289
  821MOL0     C10753   2.554   7.890  10.169 -0.3596  0.0024  0.8783
  821MOL0     C10754   2.464   7.793  10.110  0.3480 -0.1539  0.1998
  821MOL0     C10755   2.188   7.494  10.009  0.3077  0.3670  0.0033
  821MOL0     C10756   2.105   7.528   9.903  0.6954 -0.9245 -0.4855
  821MOL0     C10757   2.048   7.446   9.808  0.4374  0.2571 -0.0136
  821MOL0     C10758   2.066   7.306   9.836  0.1784 -0.4563  1.1516
  821MOL0     O10759   2.006   7.213   9.752 -0.9228 -0.2033 -0.1830
  821MOL0     C10760   1.904   7.248   9.661  0.7240 -0.3715  0.2590
  821MOL0     C10761   1.823   7.125   9.604 -0.3717 -1.2917 -0.0285
  821MOL0     C10762   1.893   7.083   9.476  0.5724 -0.1526 -0.1886
  821MOL0     C10763   2.023   7.004   9.492  0.5289 -0.2450 -0.5569
  821MOL0     C10764   2.009   6.861   9.539 -0.7848 -0.2423 -0.2911
  821MOL0     C10765   1.998   6.750   9.589  0.1690  0.2121  0.4156
  821MOL0     C10766   2.130   7.266   9.942 -1.1512 -0.3146  0.0879
  821MOL0     C10767   2.201   7.356  10.030 -0.1869 -0.2925  0.5475
  821MOL0     H10768   2.181   7.919  10.255  0.9212  0.2904  2.1075
  821MOL0     H10769   2.329   8.114  10.284 -0.9396  0.3244 -1.1816
  821MOL0     H10770   2.494   8.243  10.368 -0.5576  0.5038  1.8504
  821MOL0     H10771   2.651   8.287  10.325 -1.9386  1.9382  1.8071
  821MOL0     H10772   2.565   8.326  10.074  0.4421  0.5859 -0.1285
  821MOL0     H10773   2.407   8.269  10.126 -0.0551 -0.8683  1.9442
  821MOL0     H10774   2.394   8.439  10.297 -2.0568 -3.2551 -1.6620
  821MOL0     H10775   2.533   8.531  10.239  0.4280  0.4228 -0.4238
  821MOL0     H10776   2.290   8.461  10.073  0.2917 -0.3503  0.9382
  821MOL0     H10777   2.318   8.615  10.146 -0.8291  0.2110 -2.2583
  821MOL0     H10778   2.481   8.503   9.908 -1.6691 -0.6855 -0.4651
  821MOL0     H10779   2.358   8.614   9.897 -0.5257  1.0847  0.8507
  821MOL0     H10780   2.489   8.749  10.074 -1.2912 -2.9292  1.2795
  821MOL0     H10781   2.630   8.644  10.029  0.3784 -1.2883 -2.5117
  821MOL0     H10782   2.623   8.868   9.906  1.6232 -1.5976  1.3512
  821MOL0     H10783   2.609   8.737   9.785  1.9523 -1.5432  1.3016
  821MOL0     H10784   2.361   8.808   9.757 -1.9123  0.7694  3.0485
  821MOL0     H10785   2.472   8.938   9.739  0.5485 -3.0101 -3.5899
  821MOL0     H10786   2.507   9.081   9.979 -0.4971  0.8833 -0.1206
  821MOL0     H10787   2.389   9.192  10.239  1.5161 -0.1715 -1.8025
  821MOL0     H10788   2.338   9.287  10.122  1.8093 -0.2387  2.0027
  821MOL0     H10789   2.093   9.245  10.178  0.1510 -0.3764 -0.0497
  821MOL0     H10790   2.194   9.323  10.299  3.3230 -0.0971  0.3237
  821MOL0     H10791   2.127   9.032  10.306  0.6069 -0.0128 -2.3109
  821MOL0     H10792   2.044   9.179  10.389  1.5190  1.1778  1.6039
  821MOL0     H10793   2.332   9.086  10.431  1.1530  4.1508 -0.3971
  821MOL0     H10794   2.197   9.046  10.542  0.9553 -1.7038  0.2071
  821MOL0     H10795   2.411   9.090  10.673 -0.6003  1.0034 -2.0560
  821MOL0     H10796   2.573   9.044  10.820 -0.3578  1.0354 -2.1677
  821MOL0     H10797   2.666   9.180  10.878 -0.6066 -0.5808 -1.3374
  821MOL0     H10798   2.557   9.080  10.990  0.6831  1.9091  1.6519
  821MOL0     H10799   2.340   9.442  11.325 -0.5732  0.7503  0.8316
  821MOL0     H10800   2.423   9.558  11.540 -0.6354 -1.0394 -1.0868
  821MOL0     H10801   2.773   9.849  11.530  0.2278 -0.9409  0.8573
  821MOL0     H10802   2.626   9.936  11.514  2.3931 -0.1246 -1.6895
  821MOL0     H10803   2.608   9.909  11.761  0.6975 -0.2401 -0.2103
  821MOL0     H10804   2.765   9.818  11.765  3.1713  1.4585  0.1531
  821MOL0     H10805   2.728  10.101  11.707 -0.6759 -0.5709 -1.9496
  821MOL0     H10806   2.886  10.013  11.692 -0.1204  1.0291 -1.2737
  821MOL0     H10807   2.712  10.019  11.945 -0.3283 -1.9214 -1.2207
  821MOL0     H10808   2.866   9.955  11.932  1.8265  1.2931 -0.1068
  821MOL0     H10809   2.811  10.185  12.038  0.7753  0.2811  0.3629
  821MOL0     H10810   2.762  10.247  11.885 -0.3386  1.6970  2.9061
  821MOL0     H10811   2.967  10.286  11.799 -4.2578  0.0420  0.8656
  821MOL0     H10812   2.989  10.333  11.961  1.9161  1.5370 -1.1043
  821MOL0     H10813   3.075  10.056  11.868 -0.2177  0.4109  0.0078
  821MOL0     H10814   3.106  10.138  12.025 -4.0942  2.0404  1.1945
  821MOL0     H10815   3.295  10.149  11.886  0.1655  0.8571  0.9428
  821MOL0     H10816   3.230  10.320  11.900  0.0155  1.0545 -2.1885
  821MOL0     H10817   2.701   9.795  11.309 -2.6188  2.6824  0.2352
  821MOL0     H10818   2.638   9.673  11.111  0.9523  3.3677  0.3598
  821MOL0     H10819   2.292   9.507  10.892  1.4783  1.0164 -1.5913
  821MOL0     H10820   2.191   9.450  10.687  1.9673 -0.2897 -2.6569
  821MOL0     H10821   2.661   7.883  10.151 -0.5773  1.4248 -1.3649
  821MOL0     H10822   2.501   7.711  10.050  2.1787  2.5051 -2.5768
  821MOL0     H10823   2.078   7.633   9.899  1.5438 -0.6755  0.1338
  821MOL0     H10824   2.007   7.475   9.712  1.6443 -0.0871 -0.6479
  821MOL0     H10825   1.830   7.313   9.710 -0.9153 -0.3847 -2.0047
  821MOL0     H10826   1.944   7.314   9.583 -1.3301  2.1944  1.2018
  821MOL0     H10827   1.723   7.169   9.594  1.1049  2.6603  0.7965
  821MOL0     H10828   1.825   7.040   9.672 -0.1941 -0.8913  0.4698
  821MOL0     H10829   1.908   7.169   9.411  0.8628 -1.5619 -2.0965
  821MOL0     H10830   1.826   7.014   9.424  0.8849  1.3788 -2.8409
  821MOL0     H10831   2.090   7.062   9.557 -1.6422  1.5588  0.2134
  821MOL0     H10832   2.057   7.008   9.388  3.1519  1.1158  0.2515
  821MOL0     H10833   1.993   6.646   9.616  0.1529 -0.2078 -1.0857
  821MOL0     H10834   2.139   7.162   9.969  0.4754 -0.3619 -0.5349
  821MOL0     H10835   2.266   7.321  10.110 -1.2273 -1.7623  0.7955
  822MOL0     O10836   5.967   9.850   0.443  0.1299  0.6132 -0.7360
  822MOL0     C10837   5.957   9.756   0.365  0.5379 -0.7348  0.7819
  822MOL0     O10838   6.013   9.625   0.381 -0.1119  0.1904 -0.2401
  822MOL0     C10839   6.064   9.600   0.505  0.4815  1.0923  0.0213
  822MOL0     C10840   6.203   9.580   0.538 -0.4494 -0.0848  0.0376
  822MOL0     C10841   6.241   9.548   0.675  0.7091 -0.1263 -0.3450
  822MOL0     C10842   6.156   9.552   0.784  0.1617  0.9464  0.1285
  822MOL0     O10843   6.194   9.526   0.912 -0.3364 -0.1721  0.2947
  822MOL0     C10844   6.209   9.653   0.982  0.3161 -0.7099 -0.4703
  822MOL0     C10845   6.152   9.645   1.120  0.6085 -0.2440  0.6935
  822MOL0     C10846   6.221   9.549   1.209 -0.8421  0.5870  0.4494
  822MOL0     C10847   6.147   9.550   1.350 -0.1522 -0.9623 -0.2823
  822MOL0     C10848   6.188   9.433   1.453 -0.3877  0.7655 -0.1739
  822MOL0     C10849   6.327   9.471   1.502 -0.6380  0.4476  0.7117
  822MOL0     C10850   6.368   9.396   1.632  0.4284  0.5845  0.2078
  822MOL0     C10851   6.515   9.401   1.641 -0.4022  0.9074 -0.2153
  822MOL0     N10852   6.568   9.313   1.746  0.5372  0.3663  0.0712
  822MOL0     C10853   6.700   9.298   1.744 -0.7748 -0.7198  0.1506
  822MOL0     C10854   6.729   9.254   1.871  0.6271 -1.2113  0.8132
  822MOL0     C10855   6.859   9.205   1.930  0.1328  1.1333  0.2349
  822MOL0     C10856   6.852   9.058   1.974 -0.7059  0.0505  0.1662
  822MOL0     C10857   6.878   8.943   1.874 -0.1222 -0.2294 -0.5333
  822MOL0     C10858   6.754   8.939   1.783 -0.1540  0.0357 -0.3878
  822MOL0     O10859   6.759   8.829   1.688  0.0764 -0.1443  0.0753
  822MOL0     C10860   6.744   8.696   1.733 -0.5019 -0.6659  0.9543
  822MOL0     C10861   6.780   8.589   1.648 -0.8261 -0.2342 -0.6394
  822MOL0     C10862   6.735   8.459   1.669  0.4373 -0.2313 -0.7028
  822MOL0     C10863   6.750   8.369   1.553  0.1130 -0.2232 -0.2403
  822MOL0     C10864   6.675   8.435   1.792  0.6369  0.4407 -0.1098
  822MOL0     C10865   6.643   8.300   1.846  0.0764 -0.1900  0.3154
  822MOL0     O10866   6.652   8.196   1.757  0.4298  0.5838 -0.1518
  822MOL0     C10867   6.585   8.074   1.767  0.5321  0.1007  0.0428
  822MOL0     C10868   6.655   7.955   1.739  0.5166 -0.3862 -0.4803
  822MOL0     C10869   6.596   7.826   1.773  0.1044  0.0743 -0.6072
  822MOL0     C10870   6.464   7.821   1.823  0.6131 -0.2794  0.3185
  822MOL0     O10871   6.387   7.705   1.824 -0.2562 -0.4287 -0.7781
  822MOL0     C10872   6.443   7.587   1.783 -0.7008 -0.1767 -0.4504
  822MOL0     C10873   6.344   7.479   1.823  0.0563 -0.0868 -0.4234
  822MOL0     C10874   6.391   7.344   1.770 -0.4812  0.2624 -0.0426
  822MOL0     C10875   6.288   7.277   1.678 -0.0018  0.0710 -0.0651
  822MOL0     C10876   6.303   7.126   1.686  1.2959 -0.5762  0.8252
  822MOL0     C10877   6.433   7.085   1.627 -0.8730 -0.8103  0.2463
  822MOL0     C10878   6.425   6.953   1.554  0.3814 -0.2964 -0.0769
  822MOL0     C10879   6.384   6.835   1.640 -0.1967 -0.2253  0.1100
  822MOL0    Cl10880   6.336   6.689   1.544 -0.0237 -0.0631 -0.4474
  822MOL0     C10881   6.396   7.942   1.843  0.1516  0.4461 -0.0869
  822MOL0     C10882   6.460   8.057   1.826  0.0728  0.0503 -0.5686
  822MOL0     O10883   6.602   8.293   1.960  0.4355  1.1480  0.0881
  822MOL0     C10884   6.642   8.537   1.873  0.6471  0.0697  0.0447
  822MOL0     C10885   6.686   8.669   1.848  0.0792 -0.5077 -0.1927
  822MOL0     N10886   6.615   9.260   1.947 -1.2009  0.0711 -0.2966
  822MOL0     N10887   6.523   9.297   1.868 -0.4187  0.4672 -0.4499
  822MOL0     C10888   6.020   9.574   0.750  0.1577 -0.1134  0.3521
  822MOL0     C10889   5.972   9.587   0.619  0.1813  0.3590 -0.2079
  822MOL0     C10890   5.875   9.770   0.238 -0.0508  0.6133  0.0073
  822MOL0     C10891   5.877   9.673   0.131 -1.1328  0.2451 -0.4367
  822MOL0     C10892   5.809   9.699   0.013  0.1533  0.0966 -0.1462
  822MOL0     C10893   5.742   9.816  -0.005  1.4034  0.6083 -0.1484
  822MOL0     O10894   5.669   9.839  -0.115  0.2238  0.0463  0.0030
  822MOL0     C10895   5.642   9.744  -0.218 -1.1165 -0.4195  0.4321
  822MOL0     C10896   5.566   9.807  -0.328 -0.1565  0.7507  0.2725
  822MOL0     C10897   5.651   9.911  -0.386  0.1761  0.6386  0.5911
  822MOL0     C10898   5.574   9.986  -0.490 -1.2272 -0.5967  0.1457
  822MOL0     C10899   5.648  10.057  -0.592 -1.0310  0.6018 -0.0285
  822MOL0     C10900   5.703  10.107  -0.685  0.0166 -0.1807 -0.4823
  822MOL0     C10901   5.728   9.912   0.096 -0.6943 -0.1989  0.2540
  822MOL0     C10902   5.804   9.895   0.215 -1.0056  0.8172  0.6417
  822MOL0     H10903   6.280   9.579   0.461  0.6841  0.3062  1.1351
  822MOL0     H10904   6.344   9.520   0.696  0.7870  1.6087  1.8186
  822MOL0     H10905   6.316   9.676   0.981 -0.2162  2.6611  2.0797
  822MOL0     H10906   6.160   9.738   0.934 -0.4536 -0.0079  1.4569
  822MOL0     H10907   6.148   9.741   1.172 -1.1736  0.8949 -1.3635
  822MOL0     H10908   6.048   9.614   1.104  1.0843 -0.8657 -1.4512
  822MOL0     H10909   6.228   9.454   1.154 -1.6168  1.5407 -1.4103
  822MOL0     H10910   6.328   9.571   1.221 -1.2026  2.1309  1.0448
  822MOL0     H10911   6.148   9.650   1.396 -1.2438 -1.3553  0.6549
  822MOL0     H10912   6.043   9.532   1.321  0.5561 -3.5023 -1.4825
  822MOL0     H10913   6.115   9.427   1.534  0.1395 -0.7286  0.2164
  822MOL0     H10914   6.177   9.338   1.401 -3.2570 -1.0390  3.2837
  822MOL0     H10915   6.403   9.467   1.423 -0.6864 -1.6976  0.6998
  822MOL0     H10916   6.332   9.575   1.535  0.0678  0.7126 -0.1774
  822MOL0     H10917   6.322   9.430   1.725  2.0437  1.7861  0.6179
  822MOL0     H10918   6.335   9.293   1.621  2.2415  0.0978 -1.3177
  822MOL0     H10919   6.559   9.500   1.654  1.1781 -0.0687  3.0056
  822MOL0     H10920   6.544   9.356   1.545 -1.7931  2.6912 -1.5369
  822MOL0     H10921   6.770   9.318   1.663 -0.8603 -1.0630 -0.0065
  822MOL0     H10922   6.937   9.222   1.856 -0.1006  2.3554  0.2362
  822MOL0     H10923   6.889   9.267   2.015  3.2308  1.7078 -1.1390
  822MOL0     H10924   6.761   9.037   2.031 -1.6291  1.1509 -0.8449
  822MOL0     H10925   6.932   9.055   2.049 -2.0442  0.8324  1.7116
  822MOL0     H10926   6.901   8.850   1.928 -0.3959  0.1498  0.2588
  822MOL0     H10927   6.964   8.964   1.810  0.7424 -0.7569  0.4097
  822MOL0     H10928   6.737   9.032   1.727 -0.5130 -0.7077 -1.5671
  822MOL0     H10929   6.662   8.938   1.842  0.8845 -2.1203  1.3311
  822MOL0     H10930   6.829   8.620   1.556 -0.7702 -0.1990 -0.5968
  822MOL0     H10931   6.649   8.330   1.540  0.2436 -0.7846  0.3925
  822MOL0     H10932   6.779   8.429   1.466 -1.2287  0.4328 -0.2556
  822MOL0     H10933   6.813   8.281   1.567 -2.8877 -2.2916  1.4005
  822MOL0     H10934   6.758   7.957   1.707  0.6235 -1.5860 -0.2628
  822MOL0     H10935   6.662   7.743   1.749  0.8610  1.4799 -4.0286
  822MOL0     H10936   6.459   7.583   1.675 -2.6959  0.4797 -0.8049
  822MOL0     H10937   6.540   7.569   1.831 -1.3175 -0.5145  0.7229
  822MOL0     H10938   6.331   7.475   1.931 -0.1039 -1.1837 -0.4680
  822MOL0     H10939   6.247   7.507   1.781 -0.7256 -2.3515 -0.2543
  822MOL0     H10940   6.426   7.285   1.855  0.9109  0.4880 -0.4230
  822MOL0     H10941   6.482   7.351   1.710 -2.1638 -2.5117 -3.2227
  822MOL0     H10942   6.184   7.292   1.709 -0.8709  2.0662 -3.4101
  822MOL0     H10943   6.293   7.317   1.576  1.7793 -1.3513 -0.5800
  822MOL0     H10944   6.224   7.091   1.620  2.2552  0.6682 -1.0829
  822MOL0     H10945   6.278   7.091   1.787 -0.9970 -3.3221 -0.5840
  822MOL0     H10946   6.458   7.165   1.557 -1.2709  1.1474  2.2325
  822MOL0     H10947   6.510   7.075   1.704  0.9546  1.0264 -1.2220
  822MOL0     H10948   6.519   6.933   1.501  0.0925 -1.5130 -0.1580
  822MOL0     H10949   6.340   6.955   1.485 -1.0233 -0.5418  1.5863
  822MOL0     H10950   6.306   6.858   1.712 -0.6228  0.4641 -0.5486
  822MOL0     H10951   6.476   6.805   1.691 -0.0674  0.4334  0.2775
  822MOL0     H10952   6.293   7.940   1.877  0.4373 -0.8070  0.7527
  822MOL0     H10953   6.408   8.146   1.860  0.1596  1.2679 -3.3186
  822MOL0     H10954   6.577   8.532   1.960 -0.9899 -0.2812 -1.1438
  822MOL0     H10955   6.653   8.746   1.918 -0.6343 -0.4322 -0.6081
  822MOL0     H10956   5.966   9.585   0.844  0.2466 -0.4163  0.4387
  822MOL0     H10957   5.872   9.626   0.600 -0.3551 -0.2838  1.1774
  822MOL0     H10958   5.941   9.586   0.147  1.0804  0.9035 -4.2989
  822MOL0     H10959   5.807   9.619  -0.061 -1.4609  1.2659 -1.4419
  822MOL0     H10960   5.734   9.700  -0.257 -1.5918  0.1241 -1.3850
  822MOL0     H10961   5.586   9.661  -0.174 -1.4267 -1.3874 -1.6665
  822MOL0     H10962   5.479   9.858  -0.287 -1.4684 -1.8700  1.0192
  822MOL0     H10963   5.535   9.725  -0.394 -1.4711  0.0261  1.7188
  822MOL0     H10964   5.743   9.864  -0.422 -0.7294 -1.6549  1.1157
  822MOL0     H10965   5.688   9.982  -0.312  1.8616 -0.0814  0.4900
  822MOL0     H10966   5.532  10.073  -0.440  1.6860  0.8300  0.3127
  822MOL0     H10967   5.491   9.925  -0.526 -1.8707 -0.9404  2.0639
  822MOL0     H10968   5.740  10.162  -0.769 -0.8074 -2.5814 -2.5509
  822MOL0     H10969   5.651   9.986   0.081 -2.3844 -1.5643  1.6588
  822MOL0     H10970   5.788   9.958   0.302  0.4015  2.4979 -0.2532
  823MOL0     O10971   6.146   5.425   8.379 -0.2110  0.9503 -0.5331
  823MOL0     C10972   6.260   5.399   8.400 -0.1599 -0.4031  0.3112
  823MOL0     O10973   6.341   5.331   8.317  0.1396  0.4190  0.6962
  823MOL0     C10974   6.291   5.275   8.201 -0.0139  0.2901 -0.9669
  823MOL0     C10975   6.223   5.354   8.100  0.9441  0.4393 -0.1400
  823MOL0     C10976   6.186   5.295   7.976 -0.5970  0.6971  0.6974
  823MOL0     C10977   6.235   5.169   7.933 -0.2952 -0.2873 -0.1872
  823MOL0     O10978   6.208   5.138   7.799  0.0978  0.4445  0.2290
  823MOL0     C10979   6.170   5.001   7.791 -0.9916  0.8918  0.2299
  823MOL0     C10980   6.127   4.965   7.645 -0.4280 -0.1710  0.1662
  823MOL0     C10981   6.076   4.822   7.624 -0.2476  0.2877  0.9268
  823MOL0     C10982   6.119   4.781   7.476 -0.2819 -0.3062 -0.5678
  823MOL0     C10983   6.051   4.659   7.418  0.6079 -0.9333 -0.0494
  823MOL0     C10984   6.133   4.615   7.289 -0.2838  0.0797 -1.2694
  823MOL0     C10985   6.075   4.477   7.271 -0.8080  0.1571 -0.1411
  823MOL0     C10986   6.106   4.423   7.131  0.2756 -0.2727  0.9034
  823MOL0     N10987   6.007   4.490   7.039 -0.5082  1.2529 -0.1757
  823MOL0     C10988   6.025   4.593   6.958 -0.0279 -0.7607 -0.1132
  823MOL0     C10989   5.908   4.617   6.906 -0.2232 -0.1715  0.5206
  823MOL0     C10990   5.883   4.739   6.821  0.0333  0.1305  0.9101
  823MOL0     C10991   5.889   4.864   6.914  1.3055  0.1387  0.1134
  823MOL0     C10992   5.855   4.993   6.833  0.7841  0.2284 -0.5519
  823MOL0     C10993   5.832   5.112   6.926 -0.2742 -0.1549  0.5181
  823MOL0     O10994   5.915   5.222   6.889  0.5550  0.1490  0.4726
  823MOL0     C10995   5.924   5.321   6.982 -0.7224 -0.0943 -0.2386
  823MOL0     C10996   6.024   5.417   6.960 -0.6153 -0.1531 -0.8508
  823MOL0     C10997   6.025   5.540   7.027 -0.1579  0.2531  0.4942
  823MOL0     C10998   6.151   5.624   7.008  0.6497 -0.1003  0.9105
  823MOL0     C10999   5.927   5.566   7.129  0.0208  0.0771  0.4036
  823MOL0     C11000   5.910   5.692   7.199 -0.5713  0.6174 -0.1849
  823MOL0     O11001   5.787   5.706   7.255  0.2212 -0.3723 -0.8237
  823MOL0     C11002   5.752   5.830   7.292 -0.8942 -0.5450  0.6381
  823MOL0     C11003   5.703   5.926   7.203  0.5197 -0.5988 -0.2645
  823MOL0     C11004   5.676   6.055   7.264  0.7277 -0.1294  0.4341
  823MOL0     C11005   5.686   6.081   7.401 -0.7515 -0.6805  0.2825
  823MOL0     O11006   5.638   6.198   7.450 -0.5193 -0.3440  0.5712
  823MOL0     C11007   5.487   6.201   7.448 -0.8400 -1.0579 -1.5939
  823MOL0     C11008   5.439   6.320   7.533  0.9011  0.6909 -0.3688
  823MOL0     C11009   5.467   6.460   7.468 -0.0376  0.2989  0.2769
  823MOL0     C11010   5.432   6.586   7.545  0.4118  0.7857 -0.0547
  823MOL0     C11011   5.443   6.710   7.461 -0.3987  0.6805 -0.1488
  823MOL0     C11012   5.355   6.817   7.511 -0.2754 -0.2966  0.5441
  823MOL0     C11013   5.376   6.867   7.652 -0.5233  0.9530  0.4160
  823MOL0     C11014   5.265   6.962   7.688 -0.9497  0.3775  0.6557
  823MOL0    Cl11015   5.117   6.891   7.763  0.5546  0.1653 -0.2372
  823MOL0     C11016   5.720   5.982   7.487  0.6937  0.1431  0.4959
  823MOL0     C11017   5.754   5.854   7.435 -0.6514 -0.8857  0.0313
  823MOL0     O11018   6.007   5.766   7.210  0.4885  0.5136 -0.1339
  823MOL0     C11019   5.824   5.462   7.146 -0.6689 -0.2059  0.7764
  823MOL0     C11020   5.828   5.343   7.078 -0.3535 -0.3533 -0.3826
  823MOL0     N11021   5.819   4.535   6.967 -0.6254  0.4467  0.3789
  823MOL0     N11022   5.877   4.448   7.038  0.3682 -0.2647 -0.8395
  823MOL0     C11023   6.311   5.097   8.029  0.6759  1.0416  0.3556
  823MOL0     C11024   6.338   5.151   8.156 -0.3597  0.5908 -1.0772
  823MOL0     C11025   6.308   5.430   8.536  0.1407 -0.3570  0.0217
  823MOL0     C11026   6.247   5.531   8.618 -0.2668  0.0415  0.2715
  823MOL0     C11027   6.302   5.559   8.745 -0.6106  0.9460 -0.7264
  823MOL0     C11028   6.405   5.476   8.802 -0.5624 -0.4927  0.4132
  823MOL0     O11029   6.438   5.506   8.934 -0.4029 -0.4183  0.7982
  823MOL0     C11030   6.498   5.408   9.026  0.3852  0.4907  0.9636
  823MOL0     C11031   6.647   5.402   9.005 -0.0544  0.4582  0.7959
  823MOL0     C11032   6.714   5.543   9.030  0.8105 -0.0431 -0.3469
  823MOL0     C11033   6.859   5.534   9.077  0.6734 -0.5115 -0.6929
  823MOL0     C11034   6.932   5.461   8.976 -0.8665 -0.1940 -0.6720
  823MOL0     C11035   6.982   5.387   8.892 -0.0465 -0.3886 -0.2356
  823MOL0     C11036   6.465   5.377   8.727 -0.1202 -0.0855  0.0851
  823MOL0     C11037   6.412   5.353   8.599  0.3218  0.1667  0.1385
  823MOL0     H11038   6.195   5.455   8.130 -0.5954 -0.4378  1.6674
  823MOL0     H11039   6.118   5.353   7.914 -4.2181  0.1082  3.7371
  823MOL0     H11040   6.247   4.928   7.817 -1.3398  0.5876  0.4230
  823MOL0     H11041   6.082   4.975   7.850 -0.4837 -3.2743 -0.5420
  823MOL0     H11042   6.051   5.032   7.605 -1.1265 -1.0018  0.0632
  823MOL0     H11043   6.210   4.969   7.574 -1.0222  2.0730 -0.4794
  823MOL0     H11044   6.113   4.746   7.693 -0.8110 -1.1769 -0.3155
  823MOL0     H11045   5.967   4.827   7.618 -0.2722  3.3891  2.2190
  823MOL0     H11046   6.082   4.862   7.413 -1.3140 -0.0160  0.3655
  823MOL0     H11047   6.227   4.769   7.466 -0.4440 -1.1539 -1.3814
  823MOL0     H11048   6.031   4.582   7.492 -3.0746  0.6411  0.8099
  823MOL0     H11049   5.952   4.697   7.391  0.9740  1.3500  1.5541
  823MOL0     H11050   6.111   4.672   7.199 -1.7115 -0.9147 -1.5843
  823MOL0     H11051   6.240   4.610   7.311 -0.3129  2.0336 -0.4617
  823MOL0     H11052   6.099   4.402   7.347  1.7161  1.6507  0.6510
  823MOL0     H11053   5.967   4.495   7.281 -1.0820 -0.1528 -2.1466
  823MOL0     H11054   6.087   4.317   7.110  0.0543 -0.1023  0.2233
  823MOL0     H11055   6.210   4.447   7.104 -0.0993  0.5896  0.1990
  823MOL0     H11056   6.119   4.643   6.940 -1.9696  2.2259 -3.1640
  823MOL0     H11057   5.956   4.750   6.740 -0.5487  1.6262  0.5524
  823MOL0     H11058   5.784   4.732   6.776 -0.2744 -0.5138  1.6719
  823MOL0     H11059   5.994   4.888   6.933  0.3591  1.9152  4.1831
  823MOL0     H11060   5.826   4.854   7.003  0.1390  1.2444 -0.5554
  823MOL0     H11061   5.761   4.979   6.779  1.3125 -1.6472 -1.0610
  823MOL0     H11062   5.937   5.016   6.765  3.2493 -1.9849  1.4614
  823MOL0     H11063   5.853   5.088   7.031  0.3702 -0.7756  0.2649
  823MOL0     H11064   5.728   5.141   6.915 -0.2005 -0.6558 -2.1648
  823MOL0     H11065   6.088   5.391   6.877  0.9342  2.2157 -0.4920
  823MOL0     H11066   6.215   5.576   6.933 -1.9302  2.0216 -2.9714
  823MOL0     H11067   6.115   5.722   6.974 -1.4789  0.2195  3.6661
  823MOL0     H11068   6.205   5.634   7.103  1.8443 -1.5106  0.4227
  823MOL0     H11069   5.716   5.923   7.095  0.1124 -0.7340 -0.3134
  823MOL0     H11070   5.653   6.142   7.203  2.9971  0.7496  0.7505
  823MOL0     H11071   5.440   6.206   7.349 -3.5497  0.5379 -0.3277
  823MOL0     H11072   5.445   6.115   7.502 -0.6069  0.0022  0.3634
  823MOL0     H11073   5.333   6.294   7.542  1.9332 -4.2536  0.5300
  823MOL0     H11074   5.466   6.326   7.638 -0.4571  2.3037 -0.0677
  823MOL0     H11075   5.407   6.459   7.377  0.9793 -2.1509 -0.4401
  823MOL0     H11076   5.572   6.469   7.436  0.3167 -0.2047  1.2654
  823MOL0     H11077   5.330   6.586   7.586 -1.9510  0.1936 -5.0878
  823MOL0     H11078   5.506   6.590   7.625  1.5594  2.0186 -1.1314
  823MOL0     H11079   5.410   6.687   7.359  1.3450  0.7176 -0.7553
  823MOL0     H11080   5.548   6.738   7.473 -0.4428  0.3400  1.2263
  823MOL0     H11081   5.355   6.899   7.438  3.3372 -1.2698 -0.7563
  823MOL0     H11082   5.253   6.779   7.522  0.5877 -3.0473 -0.1963
  823MOL0     H11083   5.473   6.916   7.664  0.0878 -0.2740  0.6928
  823MOL0     H11084   5.386   6.782   7.721  0.8520 -1.8073 -2.8733
  823MOL0     H11085   5.246   7.024   7.600 -0.2129 -0.5437 -0.1801
  823MOL0     H11086   5.309   7.030   7.762 -2.7214  0.8128  1.3691
  823MOL0     H11087   5.720   6.007   7.593 -2.5026  0.3751  0.5380
  823MOL0     H11088   5.801   5.783   7.502  0.8592 -0.2023 -0.2601
  823MOL0     H11089   5.732   5.490   7.197 -1.1529  0.7112 -0.5461
  823MOL0     H11090   5.733   5.292   7.084 -0.7706  0.2954 -1.1993
  823MOL0     H11091   6.346   4.999   7.998 -2.4948  0.6225 -2.5603
  823MOL0     H11092   6.391   5.079   8.219 -1.6189  1.2172  0.7819
  823MOL0     H11093   6.174   5.601   8.578  0.3979  0.8162  0.3878
  823MOL0     H11094   6.279   5.642   8.811  2.8492 -0.5478  2.7718
  823MOL0     H11095   6.479   5.445   9.127  1.6755  1.1825  0.9782
  823MOL0     H11096   6.453   5.309   9.012 -2.6590  1.9783 -0.4326
  823MOL0     H11097   6.675   5.362   8.907 -2.2857 -2.6368  1.2910
  823MOL0     H11098   6.683   5.322   9.071 -2.4095 -2.4836 -1.2394
  823MOL0     H11099   6.648   5.595   9.100  0.7356 -0.2489 -0.2653
  823MOL0     H11100   6.708   5.601   8.937 -2.2371  1.0018  0.4104
  823MOL0     H11101   6.865   5.494   9.178  1.5577  0.7505 -0.2171
  823MOL0     H11102   6.894   5.637   9.090  0.7551 -0.4333 -1.4725
  823MOL0     H11103   7.013   5.322   8.812 -1.3641  2.1680 -3.0600
  823MOL0     H11104   6.543   5.311   8.764  1.2251  0.5053 -1.5450
  823MOL0     H11105   6.457   5.265   8.554  3.3067  0.7517  1.7415
  824MOL0     O11106   4.573   3.631   7.668 -0.0589  0.0766 -0.0760
  824MOL0     C11107   4.488   3.629   7.580 -0.0587  0.8544 -0.2135
  824MOL0     O11108   4.512   3.593   7.452 -0.4258  0.2666  0.6088
  824MOL0     C11109   4.643   3.563   7.398  0.8523 -0.1790 -0.9826
  824MOL0     C11110   4.660   3.468   7.297 -0.2060  0.2866 -0.2062
  824MOL0     C11111   4.785   3.461   7.235  0.3920 -0.1831  0.1377
  824MOL0     C11112   4.898   3.536   7.266  0.2197  0.0570  0.2102
  824MOL0     O11113   5.009   3.509   7.191  0.6407  0.1090  0.2631
  824MOL0     C11114   5.125   3.581   7.233  0.1147 -0.6485 -0.4325
  824MOL0     C11115   5.235   3.562   7.129  0.7245 -0.0008 -0.0395
  824MOL0     C11116   5.184   3.627   6.996  0.9588  0.6593  0.1548
  824MOL0     C11117   5.293   3.633   6.895  0.5374  0.3110  0.6015
  824MOL0     C11118   5.248   3.679   6.762  0.6598  1.1483 -0.0610
  824MOL0     C11119   5.232   3.827   6.747  0.0165 -0.3439 -0.0184
  824MOL0     C11120   5.172   3.870   6.614  0.1444 -0.0166  0.8413
  824MOL0     C11121   5.029   3.924   6.613  0.3290  0.8416 -0.2149
  824MOL0     N11122   4.942   3.820   6.674 -0.1994  0.3898 -0.0861
  824MOL0     C11123   4.877   3.831   6.793 -0.4929  0.6864 -0.4725
  824MOL0     C11124   4.798   3.722   6.787 -0.1107 -0.0407  0.2464
  824MOL0     C11125   4.720   3.682   6.900  0.1740  0.6089 -0.0741
  824MOL0     C11126   4.578   3.739   6.885  0.4817  1.2485  0.0974
  824MOL0     C11127   4.479   3.694   6.992 -0.0044  0.6413  0.6151
  824MOL0     C11128   4.362   3.796   6.996  0.3223  0.7911  0.5200
  824MOL0     O11129   4.234   3.728   7.002  0.1108 -0.4240  0.2941
  824MOL0     C11130   4.124   3.768   7.076  0.4323 -0.5544 -0.3194
  824MOL0     C11131   4.124   3.854   7.186  0.5302  0.7165 -0.1371
  824MOL0     C11132   4.006   3.893   7.247  0.0215 -0.1054 -0.5998
  824MOL0     C11133   4.033   3.963   7.377 -0.1490 -0.3908  0.9788
  824MOL0     C11134   3.884   3.839   7.195 -0.0672 -0.0749 -0.4737
  824MOL0     C11135   3.759   3.871   7.263 -0.1958 -0.5838  0.8811
  824MOL0     O11136   3.756   3.838   7.394 -0.6071  0.8104  0.4422
  824MOL0     C11137   3.662   3.894   7.473  0.2411  0.4796 -0.7878
  824MOL0     C11138   3.654   4.038   7.492  0.6834 -0.8154 -1.2629
  824MOL0     C11139   3.570   4.089   7.596  0.3099  0.5503 -0.2038
  824MOL0     C11140   3.492   4.001   7.678 -0.5632  0.1311  0.5244
  824MOL0     O11141   3.413   4.061   7.778  0.0489  0.3223  1.1266
  824MOL0     C11142   3.320   3.981   7.856 -0.0997  0.4507  0.2690
  824MOL0     C11143   3.179   3.992   7.804 -0.2033  0.0499  0.4425
  824MOL0     C11144   3.147   3.887   7.695  0.6299  0.9038 -0.3115
  824MOL0     C11145   3.001   3.883   7.650  0.0240  0.6608  0.2981
  824MOL0     C11146   2.900   3.888   7.775  0.1858 -0.6516 -0.3140
  824MOL0     C11147   2.749   3.923   7.728 -0.5883 -0.6960  0.2123
  824MOL0     C11148   2.662   3.960   7.849 -0.4623 -0.5990  0.4588
  824MOL0     C11149   2.519   3.980   7.802  0.3013 -0.3282  0.4550
  824MOL0    Cl11150   2.471   3.815   7.769  0.4811  0.2169  0.0383
  824MOL0     C11151   3.499   3.860   7.655 -0.3844 -0.3623 -0.0342
  824MOL0     C11152   3.585   3.808   7.551  0.7087 -0.6274 -0.3549
  824MOL0     O11153   3.685   3.957   7.208  0.5535 -0.1018 -0.3256
  824MOL0     C11154   3.882   3.759   7.081 -0.5130  0.4815  0.0520
  824MOL0     C11155   4.004   3.724   7.020  0.2669  0.1153  0.0107
  824MOL0     N11156   4.814   3.648   6.676  0.2760 -0.4212  0.5535
  824MOL0     N11157   4.903   3.709   6.606  0.8026  0.3267  0.2352
  824MOL0     C11158   4.885   3.628   7.374 -0.3571  0.6612 -0.1567
  824MOL0     C11159   4.762   3.642   7.435 -0.1725  0.9047  0.2551
  824MOL0     C11160   4.348   3.668   7.609 -0.0729  0.2641 -0.0891
  824MOL0     C11161   4.319   3.705   7.741 -0.8000 -0.0635 -0.1379
  824MOL0     C11162   4.181   3.717   7.779 -0.5481  0.1091  0.1976
  824MOL0     C11163   4.078   3.699   7.690  0.3221  0.1313  0.4505
  824MOL0     O11164   3.946   3.689   7.715 -0.7422  0.6732 -0.0282
  824MOL0     C11165   3.889   3.807   7.767 -0.2125  0.1579 -0.3890
  824MOL0     C11166   3.866   3.793   7.919  0.8039  0.7834  0.3501
  824MOL0     C11167   3.851   3.931   7.983  0.5674  0.2385 -0.5074
  824MOL0     C11168   3.715   3.987   7.965  0.4856 -0.4775 -0.4629
  824MOL0     C11169   3.708   4.118   8.034 -0.2267  0.6055 -1.1764
  824MOL0     C11170   3.690   4.232   8.076  0.1691 -1.0245 -0.5563
  824MOL0     C11171   4.109   3.666   7.563 -0.2357 -0.1195  0.1016
  824MOL0     C11172   4.241   3.654   7.520 -0.3950 -0.3931 -0.3568
  824MOL0     H11173   4.581   3.407   7.254  1.4919 -2.6908  0.6448
  824MOL0     H11174   4.784   3.387   7.156 -0.1091  0.8373 -0.8416
  824MOL0     H11175   5.113   3.690   7.236  3.1486 -0.2223  1.3154
  824MOL0     H11176   5.158   3.541   7.330 -1.4597 -0.6262  0.1410
  824MOL0     H11177   5.327   3.609   7.165 -0.6501  0.3016  3.4542
  824MOL0     H11178   5.268   3.458   7.119 -0.9528 -0.5129 -0.4730
  824MOL0     H11179   5.098   3.569   6.962 -2.4304  1.6821  5.8165
  824MOL0     H11180   5.139   3.724   7.018  2.1895  0.8204  2.3092
  824MOL0     H11181   5.380   3.694   6.922  0.7308  0.4661 -0.3385
  824MOL0     H11182   5.343   3.537   6.877  1.3417  0.3276  2.4926
  824MOL0     H11183   5.327   3.638   6.697  0.5704 -0.4102  0.7761
  824MOL0     H11184   5.159   3.630   6.723 -0.9957  4.9579 -1.5960
  824MOL0     H11185   5.174   3.883   6.821  2.1904  2.4332 -0.2189
  824MOL0     H11186   5.335   3.862   6.754 -0.6202  2.7153 -3.1266
  824MOL0     H11187   5.231   3.960   6.593  3.1404 -0.9987  4.0488
  824MOL0     H11188   5.171   3.789   6.541 -0.7328  1.3481 -0.7340
  824MOL0     H11189   4.998   3.945   6.510  0.6328 -0.6875 -0.6418
  824MOL0     H11190   5.036   4.019   6.666  1.9235  0.1154  0.9230
  824MOL0     H11191   4.893   3.905   6.871 -0.0620  2.0375 -1.7851
  824MOL0     H11192   4.709   3.574   6.894 -0.8846  0.7714 -1.5596
  824MOL0     H11193   4.761   3.695   7.001 -0.4268 -2.1922  0.6103
  824MOL0     H11194   4.532   3.716   6.788  0.2757  0.2426  0.4258
  824MOL0     H11195   4.589   3.848   6.884  0.4841  1.2546 -1.1372
  824MOL0     H11196   4.532   3.683   7.087 -0.3859  2.4432  1.0759
  824MOL0     H11197   4.441   3.593   6.971  0.6155  0.3803  0.7304
  824MOL0     H11198   4.362   3.850   6.901 -1.4292 -0.1455 -0.0621
  824MOL0     H11199   4.380   3.862   7.082  2.5841  0.8922  0.0223
  824MOL0     H11200   4.215   3.886   7.236 -1.3832  0.3089  4.0534
  824MOL0     H11201   3.988   3.913   7.463  1.9835  3.3641  4.6868
  824MOL0     H11202   4.140   3.971   7.402  0.1349 -0.5875 -0.1331
  824MOL0     H11203   3.995   4.066   7.380 -0.4962 -0.5092  0.6756
  824MOL0     H11204   3.722   4.112   7.449  0.8935  0.3191  0.9151
  824MOL0     H11205   3.559   4.195   7.618 -0.3855  0.3999  0.2207
  824MOL0     H11206   3.351   3.876   7.852  0.4422  0.4723  2.3831
  824MOL0     H11207   3.334   4.000   7.963  2.1407 -0.7869  0.2583
  824MOL0     H11208   3.118   3.987   7.894  3.3283  0.1426  3.0696
  824MOL0     H11209   3.161   4.092   7.762  2.7431  0.0415 -1.1122
  824MOL0     H11210   3.161   3.788   7.739  2.2866  0.3652 -1.9358
  824MOL0     H11211   3.212   3.890   7.607  3.2318  1.6451  1.5147
  824MOL0     H11212   2.980   3.967   7.583 -3.4671  1.2440  1.8943
  824MOL0     H11213   2.980   3.788   7.600 -1.0569  0.8081  0.4294
  824MOL0     H11214   2.917   3.964   7.852 -1.2445 -0.7911  0.1762
  824MOL0     H11215   2.892   3.796   7.834  0.9320 -0.9869 -0.7153
  824MOL0     H11216   2.755   4.014   7.667  1.5021 -0.4432  0.7251
  824MOL0     H11217   2.702   3.856   7.656 -0.8478 -0.1439 -0.1416
  824MOL0     H11218   2.696   4.055   7.892  0.5775 -0.5282 -0.4977
  824MOL0     H11219   2.661   3.895   7.937 -1.3541  0.4778  1.2863
  824MOL0     H11220   2.515   4.045   7.714 -2.4119  1.5999  1.8568
  824MOL0     H11221   2.456   4.035   7.872 -1.8316  1.3129 -2.5181
  824MOL0     H11222   3.473   3.775   7.718  2.0227 -1.1878 -0.0488
  824MOL0     H11223   3.596   3.700   7.555  3.0865 -0.4104  0.3693
  824MOL0     H11224   3.788   3.732   7.034 -1.2938  3.7219 -0.5288
  824MOL0     H11225   4.003   3.662   6.931 -1.7991  0.6607 -0.4151
  824MOL0     H11226   4.968   3.687   7.411  0.0303  0.1840 -0.2704
  824MOL0     H11227   4.765   3.717   7.513  2.5700  0.9091  0.2301
  824MOL0     H11228   4.389   3.718   7.823 -0.2863 -0.2661 -0.5420
  824MOL0     H11229   4.161   3.746   7.882  0.5171 -2.1156  1.1191
  824MOL0     H11230   3.951   3.894   7.745  1.8292 -1.6998 -2.5123
  824MOL0     H11231   3.805   3.841   7.707  0.2186  1.7348 -0.1548
  824MOL0     H11232   3.950   3.753   7.977  1.9003  1.2261 -0.8820
  824MOL0     H11233   3.777   3.735   7.943  1.3960  0.7237  2.5665
  824MOL0     H11234   3.923   4.001   7.939  0.1361  2.0836  1.5227
  824MOL0     H11235   3.883   3.921   8.087  0.9351 -2.5354 -0.8050
  824MOL0     H11236   3.640   3.915   8.001 -1.1095 -0.1813 -2.9890
  824MOL0     H11237   3.704   4.015   7.860  3.1902 -1.0320 -0.9681
  824MOL0     H11238   3.662   4.332   8.104 -1.4183 -1.8231  0.9565
  824MOL0     H11239   4.028   3.644   7.494 -0.0865  0.2654 -0.2021
  824MOL0     H11240   4.260   3.602   7.427 -4.1064 -2.1431 -0.3096
  825MOL0     O11241   8.069   0.942   4.074 -0.3585 -0.6520  0.0138
  825MOL0     C11242   8.111   1.050   4.108 -0.2893 -0.1135 -0.1052
  825MOL0     O11243   8.045   1.164   4.122 -0.6231 -0.5309  0.2469
  825MOL0     C11244   7.914   1.174   4.081 -0.1780  0.9145  0.1199
  825MOL0     C11245   7.881   1.293   4.035  0.5588 -0.4933 -0.0621
  825MOL0     C11246   7.755   1.325   3.984  0.7177  0.1901  0.9057
  825MOL0     C11247   7.652   1.236   3.981 -0.1113  0.9354 -0.5082
  825MOL0     O11248   7.542   1.275   3.909  0.5302  0.0082  0.3189
  825MOL0     C11249   7.426   1.206   3.948  0.4903 -0.3971  0.3380
  825MOL0     C11250   7.305   1.258   3.876 -0.7322  0.8664  0.8600
  825MOL0     C11251   7.191   1.182   3.913  0.0232  0.7552 -0.5354
  825MOL0     C11252   7.065   1.210   3.833  0.4583 -0.6013 -0.5376
  825MOL0     C11253   6.933   1.144   3.879 -0.9281  0.2260 -0.3394
  825MOL0     C11254   6.849   1.107   3.761 -0.8899  0.3330 -0.2399
  825MOL0     C11255   6.783   1.223   3.702 -0.4762  0.9609 -0.0233
  825MOL0     C11256   6.699   1.179   3.575  0.5704 -0.3213 -0.3208
  825MOL0     N11257   6.619   1.292   3.516 -1.0833  0.3303  0.2821
  825MOL0     C11258   6.574   1.402   3.586 -0.5305  0.5429 -0.9582
  825MOL0     C11259   6.504   1.478   3.498 -0.1291  0.1991 -1.2336
  825MOL0     C11260   6.432   1.595   3.551 -0.9908 -1.2725 -0.4843
  825MOL0     C11261   6.490   1.724   3.500  0.2016  0.2223 -0.4017
  825MOL0     C11262   6.409   1.854   3.531  0.4710 -0.5046  1.0033
  825MOL0     C11263   6.416   1.965   3.424 -0.0872 -0.6475  1.0627
  825MOL0     O11264   6.345   2.086   3.465  0.8966  0.1414  0.3892
  825MOL0     C11265   6.354   2.205   3.398 -0.4373  1.0323 -0.0634
  825MOL0     C11266   6.320   2.315   3.467 -0.7694 -0.4202 -0.7014
  825MOL0     C11267   6.351   2.438   3.423 -0.1035 -1.3366  0.2888
  825MOL0     C11268   6.296   2.547   3.507 -0.2153  0.0685  0.1060
  825MOL0     C11269   6.426   2.457   3.299  0.5748  0.2444 -0.0511
  825MOL0     C11270   6.454   2.581   3.246  0.6577  0.3141 -0.4335
  825MOL0     O11271   6.435   2.593   3.112 -0.3706  0.7026 -0.2153
  825MOL0     C11272   6.488   2.694   3.041  0.0429  0.3886 -0.6241
  825MOL0     C11273   6.405   2.734   2.939  0.4837 -0.3556 -0.2458
  825MOL0     C11274   6.446   2.833   2.842  1.3762  0.7167 -0.5629
  825MOL0     C11275   6.579   2.895   2.851  0.1719  0.5964 -0.6015
  825MOL0     O11276   6.612   2.992   2.760  0.1342 -0.4327 -0.4379
  825MOL0     C11277   6.727   3.071   2.791 -0.4185 -0.9212 -0.0809
  825MOL0     C11278   6.725   3.165   2.905 -0.3165 -0.1298 -0.5657
  825MOL0     C11279   6.865   3.238   2.915  0.1249  0.0179 -0.8191
  825MOL0     C11280   6.866   3.355   3.022 -0.2124  0.0309  0.4508
  825MOL0     C11281   7.006   3.415   3.012 -0.0941  0.6897 -0.4787
  825MOL0     C11282   7.017   3.556   3.070  0.1117  0.6475  0.4665
  825MOL0     C11283   7.161   3.607   3.060 -0.5430  0.1623  0.1868
  825MOL0     C11284   7.175   3.763   3.048  0.2386  0.7865 -0.2231
  825MOL0    Cl11285   7.060   3.846   3.163  0.1851  0.2830 -0.5841
  825MOL0     C11286   6.654   2.852   2.974 -0.1481  0.1149 -1.2736
  825MOL0     C11287   6.611   2.752   3.055 -0.7222  0.2023  0.3848
  825MOL0     O11288   6.501   2.660   3.317 -0.5424  0.9875  0.1297
  825MOL0     C11289   6.451   2.339   3.221  0.1108 -0.5242 -0.9277
  825MOL0     C11290   6.420   2.215   3.277  0.3271  0.0929 -0.0843
  825MOL0     N11291   6.503   1.411   3.379  0.8157 -0.3259  0.0366
  825MOL0     N11292   6.565   1.304   3.396  0.3306 -0.4033  0.0035
  825MOL0     C11293   7.670   1.116   4.049  0.0794 -0.5609  0.4482
  825MOL0     C11294   7.797   1.082   4.099  0.0706  0.0833 -0.8219
  825MOL0     C11295   8.254   1.064   4.125  0.1504  0.2544  0.0292
  825MOL0     C11296   8.309   1.171   4.195  0.5817 -1.7234 -1.3751
  825MOL0     C11297   8.446   1.194   4.215  0.8816 -0.4012  0.9118
  825MOL0     C11298   8.535   1.109   4.157 -0.8974 -0.5164 -0.0894
  825MOL0     O11299   8.673   1.111   4.170  0.3462 -0.4588 -0.7787
  825MOL0     C11300   8.731   1.209   4.246 -0.2371 -0.1670 -0.5650
  825MOL0     C11301   8.882   1.216   4.227 -1.2648  0.1402 -0.0576
  825MOL0     C11302   8.953   1.089   4.285  0.3582 -0.6260  0.1792
  825MOL0     C11303   9.094   1.124   4.319  0.0230  0.5227  0.4716
  825MOL0     C11304   9.174   1.002   4.321  0.3927  0.8232  0.4851
  825MOL0     C11305   9.241   0.909   4.320 -0.4169 -0.3126 -0.6306
  825MOL0     C11306   8.488   1.002   4.086  0.3423  0.1901 -0.5498
  825MOL0     C11307   8.352   0.977   4.070 -0.3091 -0.8652  0.5733
  825MOL0     H11308   7.964   1.361   4.025 -1.1555  1.8018  0.3876
  825MOL0     H11309   7.735   1.424   3.944  0.6299 -0.0233  0.4233
  825MOL0     H11310   7.430   1.100   3.921  0.3352  0.1369 -2.0030
  825MOL0     H11311   7.400   1.220   4.054 -3.4312 -2.2149 -0.2013
  825MOL0     H11312   7.288   1.364   3.896 -0.6912  0.7434  1.5618
  825MOL0     H11313   7.321   1.247   3.768 -2.9947 -0.1464  0.5805
  825MOL0     H11314   7.219   1.077   3.914  4.5457  1.7581  0.0631
  825MOL0     H11315   7.164   1.208   4.016 -0.3278 -0.0295 -0.4281
  825MOL0     H11316   7.043   1.317   3.839 -1.8963 -1.0895  1.3849
  825MOL0     H11317   7.082   1.191   3.727  1.3890 -1.1698 -0.3038
  825MOL0     H11318   6.946   1.047   3.928 -1.0864  0.2402 -0.2674
  825MOL0     H11319   6.872   1.212   3.938 -1.4088  0.5118 -1.1440
  825MOL0     H11320   6.905   1.044   3.691 -0.8535  0.0736  0.0216
  825MOL0     H11321   6.775   1.044   3.812  0.1261 -0.4480  0.3151
  825MOL0     H11322   6.710   1.260   3.775 -1.0691 -1.3835  0.6431
  825MOL0     H11323   6.848   1.310   3.688  2.2266 -1.0747 -0.8526
  825MOL0     H11324   6.635   1.096   3.605  1.6687 -0.5346  1.6048
  825MOL0     H11325   6.779   1.143   3.509  0.2193  0.4557 -1.1846
  825MOL0     H11326   6.578   1.427   3.691 -2.9474  0.0313 -0.6694
  825MOL0     H11327   6.327   1.579   3.526 -0.7902  0.4094 -2.6871
  825MOL0     H11328   6.445   1.603   3.659 -0.1427  2.5732 -0.7076
  825MOL0     H11329   6.503   1.715   3.391  0.9059 -0.6222 -0.2594
  825MOL0     H11330   6.590   1.728   3.543  0.5263 -0.2437 -1.0943
  825MOL0     H11331   6.457   1.904   3.616 -0.5607  0.3482  1.1100
  825MOL0     H11332   6.303   1.830   3.543 -0.0305  0.6067 -0.7651
  825MOL0     H11333   6.371   1.942   3.327 -0.8690 -2.1241  1.7385
  825MOL0     H11334   6.522   1.989   3.423  0.2011 -1.7212  2.4776
  825MOL0     H11335   6.263   2.303   3.558 -4.0174 -3.8648 -2.9097
  825MOL0     H11336   6.209   2.520   3.567 -1.8806  1.8104 -1.3916
  825MOL0     H11337   6.379   2.576   3.573  0.6376 -2.7528  0.4194
  825MOL0     H11338   6.267   2.634   3.448  2.7877  0.1223 -1.5065
  825MOL0     H11339   6.314   2.676   2.927  0.9725 -1.6303  1.7940
  825MOL0     H11340   6.380   2.870   2.765 -2.0706  0.1561  1.8780
  825MOL0     H11341   6.806   3.000   2.819 -0.4836 -1.2821 -0.7964
  825MOL0     H11342   6.757   3.107   2.692  0.8786 -0.3226  0.4981
  825MOL0     H11343   6.637   3.229   2.910  0.3570  0.7678  0.3741
  825MOL0     H11344   6.705   3.104   2.994  2.8401 -3.2576 -1.7848
  825MOL0     H11345   6.888   3.275   2.815 -0.3524 -0.7938 -1.2384
  825MOL0     H11346   6.931   3.157   2.947 -0.8529  0.4801  2.8957
  825MOL0     H11347   6.794   3.429   2.983  0.2653 -0.3106 -1.1661
  825MOL0     H11348   6.845   3.318   3.123 -4.4530  1.2072  0.2243
  825MOL0     H11349   7.031   3.423   2.905  0.8665  0.6525 -0.2616
  825MOL0     H11350   7.075   3.350   3.065 -2.8021 -0.2008  2.2768
  825MOL0     H11351   6.964   3.618   2.997  0.0756 -1.4679 -1.4006
  825MOL0     H11352   6.968   3.546   3.167 -0.6919  0.5320  0.0567
  825MOL0     H11353   7.207   3.568   2.969 -2.2176  1.5047 -1.2915
  825MOL0     H11354   7.213   3.579   3.152 -0.0127 -0.8532 -0.3996
  825MOL0     H11355   7.143   3.781   2.945 -2.1650 -2.1096 -0.1302
  825MOL0     H11356   7.278   3.795   3.061  0.8654 -0.6255 -1.4207
  825MOL0     H11357   6.758   2.882   2.981 -0.0345 -0.5063 -0.0136
  825MOL0     H11358   6.669   2.722   3.142 -0.1185  2.2411  0.7433
  825MOL0     H11359   6.517   2.333   3.136  1.8810 -1.4914  0.4542
  825MOL0     H11360   6.449   2.125   3.224 -0.1973 -1.6463  2.3468
  825MOL0     H11361   7.593   1.040   4.040 -0.4878  0.2342 -2.3663
  825MOL0     H11362   7.813   0.983   4.140  1.6343  0.9084  0.7221
  825MOL0     H11363   8.236   1.246   4.225  0.7958 -1.2058 -2.1088
  825MOL0     H11364   8.485   1.263   4.289  2.0101 -0.4342  0.3684
  825MOL0     H11365   8.691   1.310   4.231 -0.5016 -0.2861 -0.6704
  825MOL0     H11366   8.724   1.191   4.354  0.9355 -1.3838 -0.6690
  825MOL0     H11367   8.924   1.295   4.290  1.4198 -1.0483 -0.2157
  825MOL0     H11368   8.916   1.234   4.125  2.5680 -0.3085  0.9906
  825MOL0     H11369   8.951   1.019   4.201  4.6621 -1.2232  0.3488
  825MOL0     H11370   8.900   1.039   4.367  2.4224 -0.1047  1.9500
  825MOL0     H11371   9.083   1.165   4.419 -1.3803 -0.3002  0.6927
  825MOL0     H11372   9.129   1.193   4.241  0.7040  0.6906  0.9207
  825MOL0     H11373   9.310   0.828   4.308  0.1654  0.2358 -1.1231
  825MOL0     H11374   8.546   0.921   4.045 -3.1902 -3.3933  0.8572
  825MOL0     H11375   8.334   0.888   4.010  1.4449 -1.1739  0.4386
  826MOL0     O11376   1.969   0.649   2.788  0.1573  0.4037 -0.4683
  826MOL0     C11377   1.844   0.646   2.823  0.1234  0.2424  0.3687
  826MOL0     O11378   1.749   0.650   2.737  0.2994  0.4673 -0.5112
  826MOL0     C11379   1.768   0.690   2.610 -0.7321 -0.6695  0.5906
  826MOL0     C11380   1.842   0.809   2.557 -1.4590  0.7928  0.3969
  826MOL0     C11381   1.847   0.843   2.418 -0.4964  0.0358 -0.2686
  826MOL0     C11382   1.775   0.767   2.325 -1.0294  0.7762  1.1500
  826MOL0     O11383   1.780   0.799   2.191  0.2712 -0.1692  0.5731
  826MOL0     C11384   1.815   0.702   2.100  0.4095  0.2846 -0.2248
  826MOL0     C11385   1.819   0.739   1.951  0.6075 -0.2263  0.2171
  826MOL0     C11386   1.830   0.611   1.864 -0.0745  0.4886  0.0721
  826MOL0     C11387   1.919   0.640   1.746  1.1440  0.0387 -0.1855
  826MOL0     C11388   1.880   0.549   1.636 -0.0622  0.4097  0.3779
  826MOL0     C11389   1.928   0.413   1.671  0.4308  0.7381 -0.0010
  826MOL0     C11390   1.895   0.306   1.564 -0.2777 -0.9102  0.2577
  826MOL0     C11391   1.756   0.280   1.526  0.5374 -0.1776 -0.4286
  826MOL0     N11392   1.660   0.303   1.628 -0.7473  0.4315  0.0370
  826MOL0     C11393   1.639   0.237   1.753 -0.3356 -0.8624 -0.4580
  826MOL0     C11394   1.533   0.298   1.812 -0.0949 -0.6414  0.7109
  826MOL0     C11395   1.473   0.273   1.949 -0.2194 -0.6852 -0.2132
  826MOL0     C11396   1.528   0.371   2.057 -0.4677  0.0593 -0.2888
  826MOL0     C11397   1.488   0.335   2.201  0.6667 -0.6431 -0.0324
  826MOL0     C11398   1.520   0.197   2.249 -0.0008  0.2210 -0.6704
  826MOL0     O11399   1.657   0.169   2.296  0.9920  1.0129 -0.1753
  826MOL0     C11400   1.742   0.147   2.190 -1.0736  0.6872 -0.0889
  826MOL0     C11401   1.854   0.224   2.172  0.8325  0.3569  0.4879
  826MOL0     C11402   1.942   0.198   2.070 -0.4054 -0.0862 -1.3184
  826MOL0     C11403   2.055   0.303   2.052  0.6721  0.0755  0.2366
  826MOL0     C11404   1.937   0.080   1.996  0.8064 -0.5498  0.6469
  826MOL0     C11405   2.022   0.044   1.878  0.0336  0.5328  0.8712
  826MOL0     O11406   1.999  -0.081   1.826  0.1764  0.3675  0.4855
  826MOL0     C11407   2.063  -0.121   1.712 -0.3549 -0.0265 -0.0938
  826MOL0     C11408   2.165  -0.205   1.718 -0.3258 -0.4393  0.2970
  826MOL0     C11409   2.239  -0.231   1.602 -0.2366  1.0344 -1.3976
  826MOL0     C11410   2.209  -0.180   1.483 -0.9228  0.1540 -0.2007
  826MOL0     O11411   2.272  -0.210   1.368 -0.5226 -0.3712 -0.4029
  826MOL0     C11412   2.407  -0.170   1.356 -0.6012 -0.1574 -1.0661
  826MOL0     C11413   2.445  -0.177   1.208 -0.2379 -0.1013  0.0562
  826MOL0     C11414   2.599  -0.175   1.182 -0.1500  0.4839 -0.4077
  826MOL0     C11415   2.665  -0.301   1.239 -0.3827 -0.0709 -0.4523
  826MOL0     C11416   2.819  -0.322   1.238 -1.0164  0.0494  0.4886
  826MOL0     C11417   2.898  -0.270   1.358 -0.5535  0.3204 -0.9005
  826MOL0     C11418   2.860  -0.118   1.394 -0.4478  0.2932 -0.5135
  826MOL0     C11419   2.945  -0.037   1.496 -1.2235  0.6762  0.4091
  826MOL0    Cl11420   2.961  -0.110   1.662 -0.1149 -0.1661  0.2727
  826MOL0     C11421   2.099  -0.092   1.471  0.7630  0.2653 -0.3146
  826MOL0     C11422   2.026  -0.063   1.590 -0.2315  0.3486 -0.0395
  826MOL0     O11423   2.107   0.114   1.828  0.0543 -0.4067 -0.1582
  826MOL0     C11424   1.826  -0.006   2.027 -0.8282  0.1905  0.8895
  826MOL0     C11425   1.728   0.028   2.117 -0.5746  0.7975 -0.3220
  826MOL0     N11426   1.483   0.392   1.723  0.4749  0.7076  0.2784
  826MOL0     N11427   1.558   0.394   1.615  0.3482  0.5393  0.2753
  826MOL0     C11428   1.702   0.652   2.376  0.0525  0.0567  0.7240
  826MOL0     C11429   1.705   0.616   2.506 -0.4656  0.1824 -1.5379
  826MOL0     C11430   1.819   0.616   2.963  0.0810  0.0490 -0.9775
  826MOL0     C11431   1.919   0.551   3.042  0.0966  0.1485  0.1237
  826MOL0     C11432   1.900   0.538   3.183  0.1388  0.3225 -0.0004
  826MOL0     C11433   1.774   0.571   3.244  0.5553  0.2725  1.2491
  826MOL0     O11434   1.752   0.584   3.377  0.4875  0.9181 -0.1775
  826MOL0     C11435   1.863   0.565   3.462 -0.4773  0.3082  0.3251
  826MOL0     C11436   1.823   0.608   3.597  0.5512 -0.4423  0.4575
  826MOL0     C11437   1.685   0.555   3.638 -0.0702 -0.0916 -0.7941
  826MOL0     C11438   1.676   0.554   3.797 -0.0737 -0.1444 -0.4394
  826MOL0     C11439   1.645   0.696   3.817 -0.1463 -0.7674 -0.3827
  826MOL0     C11440   1.630   0.814   3.797  0.5556  0.3108 -0.3218
  826MOL0     C11441   1.674   0.633   3.162  0.5862  0.0607 -0.2680
  826MOL0     C11442   1.696   0.654   3.030  1.2433  0.6212 -0.1423
  826MOL0     H11443   1.903   0.874   2.618 -1.5140  1.3236 -0.1047
  826MOL0     H11444   1.908   0.930   2.393  0.9853 -0.8118  0.2657
  826MOL0     H11445   1.915   0.672   2.129  1.9979  3.0921 -2.2316
  826MOL0     H11446   1.745   0.618   2.110  0.3687  0.3856  0.3869
  826MOL0     H11447   1.739   0.805   1.917  2.1151  1.4687 -0.1829
  826MOL0     H11448   1.910   0.796   1.929 -1.2053  2.6044 -0.4063
  826MOL0     H11449   1.860   0.525   1.924  0.3061 -1.3454 -2.6004
  826MOL0     H11450   1.729   0.582   1.832 -1.3951 -1.5867  5.1169
  826MOL0     H11451   1.910   0.744   1.712  0.8814 -0.2757 -1.1161
  826MOL0     H11452   2.027   0.630   1.761  1.3916 -1.9525 -2.5874
  826MOL0     H11453   1.776   0.549   1.604  0.4006 -2.1433 -1.4656
  826MOL0     H11454   1.928   0.583   1.543 -1.2508  2.4948  0.4679
  826MOL0     H11455   2.037   0.409   1.680  0.2849  0.0424  1.7464
  826MOL0     H11456   1.883   0.388   1.767  1.0278  0.4482  0.2067
  826MOL0     H11457   1.943   0.335   1.469  0.2928  1.2128  1.1270
  826MOL0     H11458   1.946   0.216   1.598  4.5477  1.1436 -0.6007
  826MOL0     H11459   1.744   0.176   1.492 -0.8282 -1.1407  2.6031
  826MOL0     H11460   1.723   0.334   1.437  0.7297  1.8913  0.6901
  826MOL0     H11461   1.698   0.161   1.805  0.3807 -0.6394 -0.9276
  826MOL0     H11462   1.364   0.270   1.938 -0.4920 -2.0859  2.1798
  826MOL0     H11463   1.494   0.168   1.970  0.6519 -0.1879  1.6302
  826MOL0     H11464   1.482   0.467   2.034 -1.9197 -1.2617 -3.6175
  826MOL0     H11465   1.634   0.398   2.050 -0.1464 -0.9478  0.4412
  826MOL0     H11466   1.379   0.348   2.208  0.6238  0.4229 -2.0965
  826MOL0     H11467   1.537   0.400   2.275 -0.3900 -1.4793  1.4622
  826MOL0     H11468   1.477   0.128   2.176 -1.4908 -0.6720  0.9630
  826MOL0     H11469   1.452   0.198   2.335  1.1213  0.5155  0.2433
  826MOL0     H11470   1.856   0.315   2.232 -1.9334  0.5514  0.4280
  826MOL0     H11471   2.080   0.356   2.145  1.3235 -1.7718  1.1710
  826MOL0     H11472   2.153   0.256   2.036  0.7986  0.7588 -1.1907
  826MOL0     H11473   2.043   0.373   1.969 -0.0761  0.5531  0.7466
  826MOL0     H11474   2.195  -0.264   1.804 -1.4929  1.0880  1.8214
  826MOL0     H11475   2.327  -0.293   1.615  0.6128  2.8293  4.3608
  826MOL0     H11476   2.417  -0.067   1.391 -0.4932 -0.6524  0.4399
  826MOL0     H11477   2.475  -0.224   1.423 -2.6720  1.5539  2.7180
  826MOL0     H11478   2.396  -0.263   1.162  2.2210 -4.9906  5.4453
  826MOL0     H11479   2.407  -0.081   1.170 -0.2292 -0.6920 -1.5422
  826MOL0     H11480   2.641  -0.086   1.230 -0.4972  0.2421  0.3615
  826MOL0     H11481   2.616  -0.172   1.074  1.8699  3.9683 -0.1621
  826MOL0     H11482   2.616  -0.326   1.334  1.6508 -2.3030  0.1312
  826MOL0     H11483   2.625  -0.384   1.180 -3.2445  0.4852  0.5335
  826MOL0     H11484   2.862  -0.281   1.146 -2.4757  1.9012  0.5635
  826MOL0     H11485   2.839  -0.429   1.243 -0.7579  0.1535  2.2947
  826MOL0     H11486   2.882  -0.336   1.443  3.3405  0.8916  0.4510
  826MOL0     H11487   3.006  -0.269   1.345 -0.2095 -0.7827  1.4643
  826MOL0     H11488   2.761  -0.124   1.441  1.4198 -4.5012  3.7533
  826MOL0     H11489   2.854  -0.059   1.302  0.0876 -1.6243 -1.8564
  826MOL0     H11490   2.907   0.066   1.505 -0.7904  1.1915 -2.5389
  826MOL0     H11491   3.037  -0.040   1.438 -0.9408  1.2631  0.8209
  826MOL0     H11492   2.067  -0.053   1.375 -0.9827  1.2398  0.6279
  826MOL0     H11493   1.943   0.007   1.598 -1.3160 -1.0041  0.9748
  826MOL0     H11494   1.812  -0.099   1.974 -1.9463  0.1770  1.1844
  826MOL0     H11495   1.653  -0.046   2.144 -2.2883  2.8187  0.7035
  826MOL0     H11496   1.667   0.582   2.300 -0.4231  1.3281 -0.2564
  826MOL0     H11497   1.640   0.538   2.545  1.1557 -0.2724  0.3739
  826MOL0     H11498   2.015   0.522   3.000  2.9126  3.3931  3.5120
  826MOL0     H11499   1.982   0.494   3.240  0.5549  1.2256  0.1124
  826MOL0     H11500   1.888   0.459   3.455  0.9573  0.6314  0.1388
  826MOL0     H11501   1.948   0.622   3.424 -1.2187  1.5534  0.4691
  826MOL0     H11502   1.828   0.717   3.593 -1.6997 -0.3182 -0.6548
  826MOL0     H11503   1.900   0.585   3.671 -1.9978  0.4588  3.6348
  826MOL0     H11504   1.674   0.454   3.598  2.8490 -0.3212 -1.2442
  826MOL0     H11505   1.616   0.626   3.592  0.0450  0.8398  0.4241
  826MOL0     H11506   1.773   0.525   3.840 -0.5285  0.9031  1.4265
  826MOL0     H11507   1.593   0.498   3.841 -1.2769  2.0813  0.2947
  826MOL0     H11508   1.611   0.918   3.778 -1.8668  0.9028  4.0509
  826MOL0     H11509   1.584   0.670   3.210 -0.3289 -1.2612 -0.8916
  826MOL0     H11510   1.619   0.704   2.971  1.6997 -0.8406 -2.0632
  827MOL0     O11511   6.261   2.302   7.873 -0.9448  0.5402 -0.2370
  827MOL0     C11512   6.330   2.324   7.975  0.3762 -0.5842  0.1386
  827MOL0     O11513   6.296   2.386   8.087  0.6757  0.3256 -0.8118
  827MOL0     C11514   6.167   2.420   8.136 -0.0926 -0.4206 -0.1593
  827MOL0     C11515   6.149   2.485   8.263 -0.1809 -0.1363 -0.0605
  827MOL0     C11516   6.026   2.512   8.313  0.9920  0.3336 -0.2488
  827MOL0     C11517   5.914   2.479   8.247  0.2230  0.7413  0.5027
  827MOL0     O11518   5.797   2.505   8.310  0.3409  0.3127 -0.6458
  827MOL0     C11519   5.682   2.413   8.295 -0.5708 -0.2953 -0.1762
  827MOL0     C11520   5.711   2.287   8.374 -0.4255  0.2723  0.2271
  827MOL0     C11521   5.777   2.311   8.509  0.3729 -0.5153  0.3714
  827MOL0     C11522   5.726   2.209   8.620  0.4810 -0.6841 -0.0082
  827MOL0     C11523   5.774   2.241   8.757 -0.3804 -0.8996 -0.1654
  827MOL0     C11524   5.926   2.234   8.775 -1.2224 -0.2980  1.0558
  827MOL0     C11525   5.969   2.290   8.909  0.2195 -0.0414  0.3083
  827MOL0     C11526   6.037   2.423   8.904 -0.0689  0.3607 -0.1300
  827MOL0     N11527   5.937   2.530   8.873 -0.3661  0.0054  0.0058
  827MOL0     C11528   5.967   2.640   8.790  0.0786  0.9529  0.4594
  827MOL0     C11529   5.864   2.721   8.803 -0.4166 -0.2368  0.3974
  827MOL0     C11530   5.859   2.851   8.735 -0.8736  0.2501 -0.4208
  827MOL0     C11531   5.968   2.944   8.782  0.3143 -0.8392  0.5116
  827MOL0     C11532   5.959   2.983   8.929 -0.5523 -0.0092  0.2047
  827MOL0     C11533   5.833   3.060   8.969  0.3668 -0.3623  0.9284
  827MOL0     O11534   5.847   3.191   8.916  0.5558  0.2871 -0.0112
  827MOL0     C11535   5.736   3.268   8.905 -0.4558  0.2690 -1.2005
  827MOL0     C11536   5.740   3.383   8.825 -0.5722  0.3319 -0.7529
  827MOL0     C11537   5.645   3.481   8.818  0.7748  0.0498  0.7448
  827MOL0     C11538   5.659   3.588   8.716  0.4942  0.3056 -0.8795
  827MOL0     C11539   5.517   3.453   8.877 -0.0770 -0.5745 -1.0692
  827MOL0     C11540   5.394   3.535   8.857 -0.1250  0.8019  0.4335
  827MOL0     O11541   5.271   3.468   8.875  0.0768 -0.5670 -0.0882
  827MOL0     C11542   5.154   3.534   8.897 -0.6584  0.7253  1.1818
  827MOL0     C11543   5.032   3.495   8.843  1.2943  0.2135 -0.4397
  827MOL0     C11544   4.911   3.569   8.865 -0.8279  0.2071 -0.0985
  827MOL0     C11545   4.914   3.686   8.940  0.1594 -0.0136 -0.0105
  827MOL0     O11546   4.810   3.765   8.956 -0.0477  0.3289  0.2784
  827MOL0     C11547   4.681   3.735   8.891  0.0321  0.2929 -0.5664
  827MOL0     C11548   4.601   3.638   8.974  0.5784 -0.5450  0.1844
  827MOL0     C11549   4.463   3.636   8.907 -0.5587 -0.4048  0.8154
  827MOL0     C11550   4.472   3.514   8.801  0.3665 -0.8448  0.1836
  827MOL0     C11551   4.327   3.463   8.776 -0.4410  0.8917 -0.5592
  827MOL0     C11552   4.310   3.362   8.665 -0.5579  0.1963 -0.2744
  827MOL0     C11553   4.174   3.282   8.673 -0.4112  0.1855  0.8445
  827MOL0     C11554   4.157   3.213   8.536  0.2938 -0.1709 -0.4657
  827MOL0    Cl11555   3.984   3.163   8.546 -0.5541  0.1071  0.4424
  827MOL0     C11556   5.045   3.722   8.999  0.1902 -0.9001  0.5887
  827MOL0     C11557   5.158   3.649   8.974  0.0299  0.0169  0.4657
  827MOL0     O11558   5.404   3.655   8.835  0.6203  1.0747 -0.4004
  827MOL0     C11559   5.499   3.331   8.958  0.3672 -0.1353  0.2895
  827MOL0     C11560   5.607   3.248   8.966  0.2078  0.7408 -0.1593
  827MOL0     N11561   5.771   2.668   8.875  0.2453  0.5696  0.3571
  827MOL0     N11562   5.809   2.549   8.921 -0.4693 -0.0259 -0.2173
  827MOL0     C11563   5.924   2.414   8.119 -0.2691 -0.0839  0.3794
  827MOL0     C11564   6.048   2.384   8.060 -0.1229 -0.4630  0.0138
  827MOL0     C11565   6.469   2.291   7.956 -0.7751 -0.2316 -0.9039
  827MOL0     C11566   6.525   2.207   7.851  0.2046  0.0715  0.1882
  827MOL0     C11567   6.659   2.199   7.828 -0.0158 -0.1552 -0.7626
  827MOL0     C11568   6.755   2.247   7.911 -0.0750 -0.0026  0.1725
  827MOL0     O11569   6.884   2.203   7.895 -0.3986 -0.0131 -0.0956
  827MOL0     C11570   6.950   2.143   8.000  0.0992 -0.9484 -0.6694
  827MOL0     C11571   7.058   2.229   8.055  1.3014 -1.0313 -0.3349
  827MOL0     C11572   7.145   2.269   7.937 -0.3916 -0.6672 -0.0474
  827MOL0     C11573   7.283   2.306   7.983 -0.3418 -0.6629  0.2588
  827MOL0     C11574   7.276   2.391   8.098  0.5919 -0.2869 -1.0643
  827MOL0     C11575   7.265   2.457   8.202 -0.2088 -0.4246 -0.1909
  827MOL0     C11576   6.706   2.318   8.024  0.2755  0.2627  0.2914
  827MOL0     C11577   6.567   2.337   8.041 -0.0678  0.0473  0.3501
  827MOL0     H11578   6.238   2.508   8.321 -0.8579 -1.3020  1.5092
  827MOL0     H11579   6.004   2.561   8.407 -0.2001  0.6326 -0.6706
  827MOL0     H11580   5.599   2.469   8.339 -2.2329 -1.7160 -1.3179
  827MOL0     H11581   5.646   2.384   8.195 -1.6500 -0.1219  0.1425
  827MOL0     H11582   5.621   2.227   8.393  0.2884 -1.0828 -0.5331
  827MOL0     H11583   5.776   2.229   8.308 -0.6758 -0.8169  0.9060
  827MOL0     H11584   5.886   2.316   8.502  0.4858 -1.1752  1.4498
  827MOL0     H11585   5.760   2.413   8.546  2.3702  0.3188 -0.8960
  827MOL0     H11586   5.617   2.205   8.620  0.4888 -1.0065  0.8515
  827MOL0     H11587   5.769   2.116   8.584  0.7291 -1.3879  1.9981
  827MOL0     H11588   5.751   2.347   8.772  0.5974 -0.5506 -1.0307
  827MOL0     H11589   5.736   2.168   8.830  1.7063 -0.7038  1.1719
  827MOL0     H11590   5.956   2.128   8.775 -1.5764 -0.4166  2.2582
  827MOL0     H11591   5.981   2.280   8.693 -0.6798  1.1444  2.1978
  827MOL0     H11592   5.893   2.285   8.987 -0.8809 -3.6020 -0.8328
  827MOL0     H11593   6.041   2.213   8.938  1.5469 -0.1274 -2.8024
  827MOL0     H11594   6.113   2.413   8.826  0.0644  0.8933 -0.0725
  827MOL0     H11595   6.095   2.448   8.993 -1.2995  0.0217  0.7917
  827MOL0     H11596   6.058   2.658   8.734 -0.3737 -1.4075 -1.1607
  827MOL0     H11597   5.873   2.845   8.627  2.8135  0.5507 -0.0932
  827MOL0     H11598   5.758   2.891   8.749  0.3561  3.9803 -1.1908
  827MOL0     H11599   5.966   3.035   8.721  1.9828 -1.5738 -0.6973
  827MOL0     H11600   6.066   2.899   8.765  0.1316 -2.1714  2.6101
  827MOL0     H11601   6.052   3.033   8.957  0.8200 -1.3357 -1.7144
  827MOL0     H11602   5.944   2.890   8.984 -2.9004  0.6338  0.7736
  827MOL0     H11603   5.829   3.073   9.077 -1.6579  4.1017  0.5543
  827MOL0     H11604   5.745   3.011   8.927  0.6957  1.7786 -2.7363
  827MOL0     H11605   5.834   3.390   8.772  2.2205 -2.6847  3.1914
  827MOL0     H11606   5.744   3.560   8.652  0.7682  1.2632 -0.9478
  827MOL0     H11607   5.569   3.590   8.654 -0.7299  2.0544  0.8789
  827MOL0     H11608   5.674   3.689   8.754 -1.8531  0.6579 -0.7581
  827MOL0     H11609   5.028   3.398   8.795 -0.7434  0.5652 -1.0715
  827MOL0     H11610   4.819   3.534   8.820 -0.4136 -1.1935  0.1114
  827MOL0     H11611   4.627   3.830   8.896 -0.6066 -0.1152  2.8903
  827MOL0     H11612   4.686   3.698   8.788  1.5580 -0.0385 -0.3978
  827MOL0     H11613   4.639   3.536   8.989 -0.3467 -0.8703  0.4487
  827MOL0     H11614   4.611   3.679   9.075 -0.2297  1.8533 -0.6476
  827MOL0     H11615   4.432   3.730   8.861 -1.2879 -0.5117  1.0653
  827MOL0     H11616   4.401   3.619   8.995  1.0786 -1.6243  1.7743
  827MOL0     H11617   4.513   3.566   8.715  0.5076 -1.4159 -0.1018
  827MOL0     H11618   4.530   3.428   8.837 -1.1446 -2.8610 -1.9114
  827MOL0     H11619   4.271   3.549   8.735 -1.4574  0.2789 -0.4860
  827MOL0     H11620   4.289   3.432   8.873  0.6615  0.0933 -0.3731
  827MOL0     H11621   4.320   3.407   8.566  1.9520 -1.1903 -0.7272
  827MOL0     H11622   4.393   3.291   8.661 -0.7129  0.0324 -4.6379
  827MOL0     H11623   4.084   3.340   8.694 -0.3942  0.0055  1.4366
  827MOL0     H11624   4.177   3.213   8.758 -1.0349  1.0222  1.5632
  827MOL0     H11625   4.219   3.124   8.520  1.2391  0.9300 -3.9203
  827MOL0     H11626   4.181   3.269   8.445  0.3016 -2.6403 -2.0974
  827MOL0     H11627   5.053   3.812   9.059 -1.8885  1.6934 -2.6150
  827MOL0     H11628   5.249   3.692   9.015 -0.2802  0.0298  1.1385
  827MOL0     H11629   5.404   3.296   8.998 -0.3206  1.0225 -0.2621
  827MOL0     H11630   5.595   3.161   9.030 -0.1302  1.7260  1.1651
  827MOL0     H11631   5.829   2.396   8.070 -1.3287  0.5767  2.0639
  827MOL0     H11632   6.054   2.336   7.963  0.2394 -4.0933  1.6759
  827MOL0     H11633   6.456   2.165   7.778 -0.2750  1.1418  0.0025
  827MOL0     H11634   6.689   2.141   7.741  0.4478 -1.2854  0.1149
  827MOL0     H11635   6.883   2.127   8.085  1.0039 -1.1447  0.0288
  827MOL0     H11636   6.993   2.045   7.976 -0.1785 -1.2757  0.1480
  827MOL0     H11637   7.108   2.173   8.135  1.6593  0.6369  0.6578
  827MOL0     H11638   7.008   2.321   8.086  2.3037  0.3777 -2.6635
  827MOL0     H11639   7.103   2.359   7.892  1.3571  1.0591  1.6262
  827MOL0     H11640   7.158   2.180   7.875 -1.5123 -1.1305  0.3587
  827MOL0     H11641   7.332   2.361   7.902 -0.8152 -1.5791 -0.6697
  827MOL0     H11642   7.349   2.220   7.998 -0.8208 -1.5848 -2.4302
  827MOL0     H11643   7.265   2.520   8.289  2.7636 -0.6114  0.0375
  827MOL0     H11644   6.774   2.360   8.097 -0.5917 -0.4916  1.5677
  827MOL0     H11645   6.537   2.394   8.129 -0.5567  0.0299  0.2001
  828MOL0     O11646   6.858   6.011  10.213  0.1306  0.4584  0.7757
  828MOL0     C11647   6.939   6.054  10.285 -0.3672 -0.1300  0.4445
  828MOL0     O11648   6.962   6.002  10.409 -0.0300 -0.7547  0.0801
  828MOL0     C11649   6.876   5.923  10.475  0.1295  1.1723 -0.6638
  828MOL0     C11650   6.920   5.794  10.523 -0.0406 -1.1668 -0.1604
  828MOL0     C11651   6.843   5.716  10.607  0.1315  0.3468  0.7318
  828MOL0     C11652   6.712   5.764  10.632  0.6414  0.9052 -0.2259
  828MOL0     O11653   6.629   5.690  10.723 -0.6230  0.6100 -0.5436
  828MOL0     C11654   6.509   5.748  10.765 -0.4002 -0.9227  1.0213
  828MOL0     C11655   6.443   5.655  10.874  0.4385  0.6491 -0.5340
  828MOL0     C11656   6.305   5.696  10.913 -0.5939  0.4376 -0.5576
  828MOL0     C11657   6.297   5.837  10.976 -0.6750 -0.1412  0.1786
  828MOL0     C11658   6.171   5.873  11.063  0.7799  0.1495 -0.4915
  828MOL0     C11659   6.055   5.837  10.991  0.6843  0.3291 -0.7211
  828MOL0     C11660   5.919   5.909  11.034 -0.2153  0.6934 -0.6539
  828MOL0     C11661   5.880   5.877  11.176 -0.3047 -0.2452 -0.0059
  828MOL0     N11662   5.818   5.748  11.190 -1.4666  0.2094 -0.4656
  828MOL0     C11663   5.686   5.730  11.157  0.2490 -0.3704  0.4123
  828MOL0     C11664   5.656   5.611  11.181  0.1284  0.9238 -1.3024
  828MOL0     C11665   5.518   5.557  11.191 -0.7807 -0.7313  0.0104
  828MOL0     C11666   5.417   5.656  11.263  0.9914 -0.0198 -0.1751
  828MOL0     C11667   5.445   5.682  11.413  1.2798 -0.3196  0.1850
  828MOL0     C11668   5.327   5.721  11.493 -0.5482 -0.0861 -0.0400
  828MOL0     O11669   5.235   5.622  11.497 -0.1916  0.0505 -0.3819
  828MOL0     C11670   5.143   5.623  11.596 -0.1214  0.7804  0.3380
  828MOL0     C11671   5.128   5.725  11.688  1.0099  0.1448  0.9284
  828MOL0     C11672   5.032   5.711  11.790 -0.2694 -0.3580  0.6739
  828MOL0     C11673   5.022   5.840  11.871  0.1331  0.2904 -0.5675
  828MOL0     C11674   4.949   5.600  11.796  1.3295 -0.1640  0.1237
  828MOL0     C11675   4.846   5.581  11.901 -0.4213 -0.1560 -0.1294
  828MOL0     O11676   4.781   5.466  11.892  0.0667 -0.6336 -0.4324
  828MOL0     C11677   4.702   5.430  11.999 -0.1116  0.5726 -0.1860
  828MOL0     C11678   4.586   5.498  12.036 -0.4299 -0.9056 -0.2963
  828MOL0     C11679   4.542   5.483  12.165  0.2376 -0.3411  0.0243
  828MOL0     C11680   4.602   5.386  12.261  0.8748 -0.1548  0.1471
  828MOL0     O11681   4.552   5.364  12.389 -0.1746 -0.1774 -0.4263
  828MOL0     C11682   4.420   5.403  12.398  0.5716 -1.4179  0.2632
  828MOL0     C11683   4.334   5.331  12.503 -0.4933  0.0430 -0.1314
  828MOL0     C11684   4.340   5.181  12.519 -0.9783  0.6480  0.2915
  828MOL0     C11685   4.470   5.128  12.599  0.4682  0.0869  0.4907
  828MOL0     C11686   4.485   4.973  12.589  0.4704  0.2728 -0.3542
  828MOL0     C11687   4.381   4.907  12.664 -0.2877 -0.3120  0.2113
  828MOL0     C11688   4.363   4.752  12.631  0.2243  0.0278  1.0841
  828MOL0     C11689   4.410   4.654  12.736 -0.8435 -0.0356 -0.1704
  828MOL0    Cl11690   4.304   4.669  12.879  0.0400 -0.0133  0.0123
  828MOL0     C11691   4.712   5.313  12.224  0.1314  0.8683  0.5888
  828MOL0     C11692   4.763   5.334  12.094  0.1028  0.4373  0.9594
  828MOL0     O11693   4.842   5.657  11.996 -0.1561  0.5894 -0.5725
  828MOL0     C11694   4.979   5.491  11.711 -0.1333 -0.0259 -0.1966
  828MOL0     C11695   5.074   5.506  11.610  0.3859 -0.2784  0.2274
  828MOL0     N11696   5.769   5.548  11.239  0.5105 -0.1068  0.1272
  828MOL0     N11697   5.871   5.629  11.236 -0.1887 -0.2237 -0.2443
  828MOL0     C11698   6.659   5.881  10.570  0.3669 -0.2182 -0.5856
  828MOL0     C11699   6.740   5.963  10.496 -0.4012  0.3966  0.4129
  828MOL0     C11700   7.032   6.165  10.233  0.9455  0.4345  0.2820
  828MOL0     C11701   7.099   6.252  10.332 -0.0394  0.5124  0.3588
  828MOL0     C11702   7.180   6.349  10.281  0.0732 -0.9921  0.2393
  828MOL0     C11703   7.192   6.382  10.143  0.1245  1.2304 -0.1638
  828MOL0     O11704   7.279   6.486  10.095  0.8054 -0.0688 -0.9754
  828MOL0     C11705   7.280   6.513   9.956  0.4780  0.9030  0.2409
  828MOL0     C11706   7.361   6.645   9.932 -1.0546  0.1546  0.3026
  828MOL0     C11707   7.507   6.610   9.972 -0.3638 -1.3343  0.5724
  828MOL0     C11708   7.602   6.736   9.950  0.4049 -0.5874 -0.1325
  828MOL0     C11709   7.566   6.848  10.044 -0.3517 -1.2326 -0.2498
  828MOL0     C11710   7.538   6.950  10.095 -0.3070 -0.3628 -0.0743
  828MOL0     C11711   7.109   6.306  10.058  1.0902 -0.2810 -0.5185
  828MOL0     C11712   7.043   6.193  10.098  0.3083  0.8447 -0.6533
  828MOL0     H11713   7.021   5.768  10.494 -0.5025 -1.6604 -1.3860
  828MOL0     H11714   6.893   5.625  10.639 -1.8967 -1.2910 -0.5072
  828MOL0     H11715   6.520   5.847  10.810  0.6730 -0.9521  0.8350
  828MOL0     H11716   6.447   5.762  10.676  1.7633 -1.6298 -0.6969
  828MOL0     H11717   6.440   5.558  10.823  1.3365  0.2833  0.0870
  828MOL0     H11718   6.498   5.653  10.969 -5.0378  0.6718  3.0989
  828MOL0     H11719   6.251   5.693  10.818  1.8420  1.2585 -2.0709
  828MOL0     H11720   6.265   5.634  10.994  1.1775  0.6132  0.5082
  828MOL0     H11721   6.382   5.854  11.042 -2.0551  0.4633  1.8934
  828MOL0     H11722   6.297   5.915  10.899  0.8738 -0.8583 -0.5808
  828MOL0     H11723   6.179   5.825  11.161 -0.5539  1.4232  0.2765
  828MOL0     H11724   6.169   5.982  11.072 -2.1232  0.3924 -2.7961
  828MOL0     H11725   6.075   5.860  10.886  0.7847  0.9084 -0.5780
  828MOL0     H11726   6.040   5.729  11.001  0.8422  0.3946  0.2965
  828MOL0     H11727   5.935   6.016  11.014 -0.5280  0.2054 -4.1634
  828MOL0     H11728   5.842   5.874  10.965  0.6660 -3.1459  0.0611
  828MOL0     H11729   5.808   5.952  11.206  0.0272  0.6376 -1.3021
  828MOL0     H11730   5.973   5.881  11.233 -0.3950 -1.2463  0.2418
  828MOL0     H11731   5.617   5.799  11.109 -0.8342 -1.7978 -0.1594
  828MOL0     H11732   5.477   5.542  11.090  1.6358  0.9919 -1.3346
  828MOL0     H11733   5.517   5.459  11.240  1.7843  0.0287  1.8240
  828MOL0     H11734   5.319   5.608  11.253  1.5831 -0.9007 -2.4049
  828MOL0     H11735   5.423   5.747  11.203  1.5329 -0.3927 -0.6958
  828MOL0     H11736   5.519   5.762  11.422 -1.0438  2.0830 -0.5469
  828MOL0     H11737   5.490   5.588  11.445  1.0111 -0.5096  0.0130
  828MOL0     H11738   5.274   5.806  11.449 -2.3197 -2.1106 -2.0960
  828MOL0     H11739   5.364   5.756  11.590 -1.2943 -0.9142  0.5513
  828MOL0     H11740   5.181   5.820  11.681 -1.0177  1.3550  1.1103
  828MOL0     H11741   4.937   5.903  11.841 -1.0521  0.3343  2.5153
  828MOL0     H11742   5.024   5.836  11.980 -0.3971  1.2537 -0.5094
  828MOL0     H11743   5.101   5.913  11.848 -1.0419  1.0898 -2.3112
  828MOL0     H11744   4.552   5.576  11.969  2.9409 -1.2034 -2.6246
  828MOL0     H11745   4.460   5.546  12.198 -0.1803 -0.1236 -1.3845
  828MOL0     H11746   4.425   5.511  12.414 -0.0415 -0.6502 -3.7148
  828MOL0     H11747   4.366   5.374  12.307 -3.5623  3.9693  0.4548
  828MOL0     H11748   4.375   5.357  12.601  1.8035 -2.7450 -0.2082
  828MOL0     H11749   4.230   5.359  12.484 -1.4172 -3.8787 -2.0369
  828MOL0     H11750   4.356   5.139  12.419 -1.6829 -1.7143  1.0961
  828MOL0     H11751   4.244   5.156  12.565 -1.6026  0.8417 -0.8417
  828MOL0     H11752   4.556   5.173  12.548 -2.2647  2.6349 -2.3207
  828MOL0     H11753   4.464   5.159  12.704 -0.8240  0.0364  0.4506
  828MOL0     H11754   4.582   4.938  12.626  1.1167  1.1214 -1.1924
  828MOL0     H11755   4.478   4.952  12.481  1.5419  0.0572 -0.3944
  828MOL0     H11756   4.388   4.915  12.773 -0.9754  0.9219  0.1764
  828MOL0     H11757   4.298   4.958  12.613  1.5517 -1.3785 -4.2966
  828MOL0     H11758   4.420   4.729  12.541 -0.0458  0.2437  0.8554
  828MOL0     H11759   4.259   4.740  12.599  0.7898  1.6761 -1.7260
  828MOL0     H11760   4.504   4.697  12.774 -2.8539  1.6149  3.6141
  828MOL0     H11761   4.427   4.553  12.699  1.1419  0.8190 -1.7697
  828MOL0     H11762   4.750   5.243  12.298  2.5420  1.7634  0.2837
  828MOL0     H11763   4.844   5.273  12.056 -1.3217 -1.4830  0.8321
  828MOL0     H11764   4.937   5.391  11.718  1.7667 -0.8125  0.9181
  828MOL0     H11765   5.104   5.421  11.550 -0.2528  0.8625 -1.7996
  828MOL0     H11766   6.557   5.913  10.590  0.1108  0.0851 -2.1933
  828MOL0     H11767   6.700   6.055  10.455  1.9668  1.5987  0.6376
  828MOL0     H11768   7.097   6.241  10.440  3.2706  1.6472  0.6368
  828MOL0     H11769   7.231   6.417  10.349  1.5294 -2.6692  0.9092
  828MOL0     H11770   7.329   6.425   9.913  4.7809  0.6934  4.6267
  828MOL0     H11771   7.185   6.536   9.908  1.2384  0.7784 -1.3903
  828MOL0     H11772   7.324   6.733   9.986  2.7799  2.6539 -0.7568
  828MOL0     H11773   7.358   6.673   9.826  0.1037 -1.1345 -0.0963
  828MOL0     H11774   7.548   6.540   9.898 -0.8083  0.0956 -1.0883
  828MOL0     H11775   7.517   6.556  10.067  2.1192  0.7769  1.6323
  828MOL0     H11776   7.581   6.768   9.848  1.7814  0.5955 -0.0770
  828MOL0     H11777   7.701   6.696   9.975  0.1386 -0.7468  0.7058
  828MOL0     H11778   7.495   7.036  10.141 -0.2364 -1.0439  1.3319
  828MOL0     H11779   7.092   6.325   9.953  0.9959 -0.8449 -0.6104
  828MOL0     H11780   6.964   6.140  10.047 -1.1044  3.0341 -0.8782
  829MOL0     O11781   0.255   0.428   9.594  0.7819 -0.2025  0.3289
  829MOL0     C11782   0.188   0.477   9.687 -0.7173  0.2461  0.5533
  829MOL0     O11783   0.120   0.598   9.678 -0.4198 -0.6585 -0.0614
  829MOL0     C11784   0.123   0.667   9.563  0.2674 -0.5147  0.0286
  829MOL0     C11785   0.089   0.616   9.440 -0.6750 -1.0825 -0.6617
  829MOL0     C11786   0.065   0.703   9.334 -0.5492 -0.1651  0.7278
  829MOL0     C11787   0.101   0.834   9.338 -0.0503  0.0248  0.4345
  829MOL0     O11788   0.070   0.909   9.219  0.3261  0.5521 -0.6522
  829MOL0     C11789  -0.005   1.027   9.245  1.3373 -0.0424  0.5315
  829MOL0     C11790   0.064   1.142   9.159 -0.9066  0.3556  0.3731
  829MOL0     C11791  -0.010   1.276   9.168 -0.2181  0.7812 -0.7230
  829MOL0     C11792  -0.146   1.260   9.099 -0.2182 -0.2401  0.3240
  829MOL0     C11793  -0.221   1.392   9.079  0.8783  0.6874  0.8228
  829MOL0     C11794  -0.309   1.392   8.958 -0.2372  0.1262  1.0098
  829MOL0     C11795  -0.368   1.532   8.917 -0.5499  0.3832 -0.5605
  829MOL0     C11796  -0.261   1.634   8.880 -0.1716  0.3749  0.3779
  829MOL0     N11797  -0.174   1.598   8.763 -0.4139 -0.4910  1.0053
  829MOL0     C11798  -0.054   1.534   8.753 -0.4250  0.1073 -0.3957
  829MOL0     C11799  -0.017   1.533   8.621 -0.2702 -0.1555 -0.3012
  829MOL0     C11800   0.116   1.483   8.567  0.9442 -0.1854  0.7109
  829MOL0     C11801   0.160   1.551   8.437  1.1889 -0.0685 -0.0735
  829MOL0     C11802   0.067   1.521   8.319  0.1418  0.0495  0.0925
  829MOL0     C11803   0.103   1.590   8.183 -0.7403 -1.1312 -0.2405
  829MOL0     O11804   0.102   1.732   8.212  0.2196 -0.7571  0.2501
  829MOL0     C11805  -0.017   1.804   8.224  0.9439  1.1886  0.5603
  829MOL0     C11806  -0.010   1.939   8.257 -0.9941 -0.0799 -0.8318
  829MOL0     C11807  -0.123   2.025   8.266 -0.3087 -0.0946  0.7476
  829MOL0     C11808  -0.080   2.175   8.290 -0.2740  0.7671 -0.1676
  829MOL0     C11809  -0.249   1.966   8.227 -0.4920 -0.2529 -0.0339
  829MOL0     C11810  -0.371   2.048   8.222 -1.1881  0.5239 -0.2018
  829MOL0     O11811  -0.490   1.980   8.229 -0.5338  0.4459  0.4083
  829MOL0     C11812  -0.594   2.064   8.205  0.1413 -0.5212 -0.4546
  829MOL0     C11813  -0.588   2.152   8.091 -0.7198 -0.3327 -0.2939
  829MOL0     C11814  -0.705   2.220   8.046  0.4228  0.4207 -0.4893
  829MOL0     C11815  -0.831   2.219   8.121  0.6578 -0.9961 -0.6452
  829MOL0     O11816  -0.945   2.292   8.079  0.8402  1.1398  0.4335
  829MOL0     C11817  -1.040   2.330   8.179 -0.2164  0.8127  0.3998
  829MOL0     C11818  -1.139   2.216   8.197  0.7350  0.9854  0.4329
  829MOL0     C11819  -1.275   2.275   8.246 -0.4164  0.1025 -0.2923
  829MOL0     C11820  -1.279   2.373   8.366 -0.5950  0.2520 -0.0859
  829MOL0     C11821  -1.416   2.376   8.432  0.0223 -0.6080  0.1968
  829MOL0     C11822  -1.517   2.440   8.333  0.1656 -0.1802  0.6475
  829MOL0     C11823  -1.488   2.591   8.293 -0.1665  0.1592 -0.0971
  829MOL0     C11824  -1.609   2.637   8.198 -0.6424 -0.5758  0.1075
  829MOL0    Cl11825  -1.769   2.609   8.249 -0.3980 -0.3781 -0.1794
  829MOL0     C11826  -0.825   2.137   8.239 -0.5290 -0.2687  0.3521
  829MOL0     C11827  -0.716   2.051   8.270  0.2061  0.5593 -0.5379
  829MOL0     O11828  -0.355   2.169   8.221  0.4766  1.2226 -0.3591
  829MOL0     C11829  -0.256   1.837   8.187  0.4350  0.3002 -0.2163
  829MOL0     C11830  -0.148   1.751   8.187  0.5798 -0.5344 -0.2393
  829MOL0     N11831  -0.114   1.597   8.559  0.0959 -0.1956  0.1265
  829MOL0     N11832  -0.201   1.650   8.638  0.5876 -0.3731  0.2975
  829MOL0     C11833   0.147   0.878   9.455 -0.3234 -0.2008 -0.4233
  829MOL0     C11834   0.154   0.805   9.561 -0.0652 -1.2947  0.5670
  829MOL0     C11835   0.190   0.426   9.819  0.1628 -1.1566 -0.3068
  829MOL0     C11836   0.299   0.345   9.866  0.4058 -0.8887  0.9370
  829MOL0     C11837   0.282   0.276   9.984 -0.0078 -0.8884  0.4468
  829MOL0     C11838   0.155   0.282  10.053  0.3573  0.7632  0.1252
  829MOL0     O11839   0.136   0.198  10.169  0.5454 -0.0887  0.3772
  829MOL0     C11840   0.124   0.061  10.133  0.2906 -0.0998 -0.3729
  829MOL0     C11841   0.258  -0.010  10.139  0.3304 -0.7242  0.4202
  829MOL0     C11842   0.244  -0.139  10.208 -0.5112 -0.2909  0.1758
  829MOL0     C11843   0.335  -0.245  10.158 -0.1903  0.7669  0.3083
  829MOL0     C11844   0.480  -0.211  10.174 -0.3567 -0.4315  0.1045
  829MOL0     C11845   0.597  -0.187  10.185 -0.8568 -0.2799 -0.4703
  829MOL0     C11846   0.045   0.359  10.005  0.0972 -0.3651 -0.2127
  829MOL0     C11847   0.072   0.441   9.903 -0.0840 -0.1906 -0.4792
  829MOL0     H11848   0.055   0.513   9.441 -1.8854 -0.7020  0.3141
  829MOL0     H11849   0.015   0.674   9.242 -1.0968 -0.8071  1.2198
  829MOL0     H11850  -0.111   1.007   9.224  1.8288 -3.0093  0.4116
  829MOL0     H11851   0.000   1.056   9.351  2.3474 -2.6450  1.2750
  829MOL0     H11852   0.159   1.160   9.211 -1.4966  0.8322  1.3172
  829MOL0     H11853   0.098   1.128   9.056  1.4659  0.3578  1.0888
  829MOL0     H11854  -0.022   1.312   9.270 -2.7858  0.6536 -0.9072
  829MOL0     H11855   0.053   1.342   9.107  0.8913 -0.9134 -1.4864
  829MOL0     H11856  -0.129   1.209   9.004 -0.1729  0.2286  0.0806
  829MOL0     H11857  -0.214   1.199   9.159 -0.3364  0.1619  0.6037
  829MOL0     H11858  -0.281   1.423   9.165  2.3311  4.7566  0.6038
  829MOL0     H11859  -0.147   1.469   9.054 -1.0582  2.9629  1.6535
  829MOL0     H11860  -0.246   1.352   8.878  0.8048  2.5291  0.5538
  829MOL0     H11861  -0.393   1.324   8.974 -0.2785 -0.0704 -0.0349
  829MOL0     H11862  -0.442   1.506   8.841 -0.0343 -2.8280 -0.0914
  829MOL0     H11863  -0.417   1.576   9.004 -0.6297 -3.2526  1.4103
  829MOL0     H11864  -0.195   1.648   8.966 -0.9687 -0.7013  1.1844
  829MOL0     H11865  -0.303   1.734   8.865  0.6303  0.5319 -1.0006
  829MOL0     H11866   0.006   1.500   8.837 -1.4442 -0.6654  0.0477
  829MOL0     H11867   0.194   1.520   8.635  2.3737 -3.2777  0.9085
  829MOL0     H11868   0.121   1.374   8.561  0.1729 -0.1596 -1.5644
  829MOL0     H11869   0.263   1.518   8.419  0.8536 -1.6508  0.6985
  829MOL0     H11870   0.170   1.657   8.460 -1.2747  0.0998  0.4509
  829MOL0     H11871  -0.028   1.566   8.348  0.4640  0.1361  1.0713
  829MOL0     H11872   0.053   1.413   8.312  1.3076 -0.2018  1.1798
  829MOL0     H11873   0.032   1.573   8.102 -0.8798  0.9303 -0.5918
  829MOL0     H11874   0.204   1.562   8.154 -0.3312  1.9653 -2.2908
  829MOL0     H11875   0.083   1.977   8.299 -1.3076 -1.9855  1.7934
  829MOL0     H11876   0.015   2.179   8.346  0.1924 -2.7070 -0.4648
  829MOL0     H11877  -0.071   2.236   8.200 -1.7231  0.7163 -0.3706
  829MOL0     H11878  -0.151   2.227   8.355 -1.4200 -1.6517  0.6276
  829MOL0     H11879  -0.498   2.160   8.031 -0.7517  1.9022 -0.1329
  829MOL0     H11880  -0.705   2.274   7.952  4.6931  0.3315 -0.7187
  829MOL0     H11881  -1.002   2.349   8.280 -3.9059 -0.7515  2.2629
  829MOL0     H11882  -1.088   2.424   8.148 -0.8986 -0.0281 -1.1774
  829MOL0     H11883  -1.149   2.179   8.095  0.4681  2.2177 -0.0039
  829MOL0     H11884  -1.112   2.135   8.266 -0.6533  0.6877  0.6608
  829MOL0     H11885  -1.334   2.189   8.280 -0.2201 -0.8932 -2.3333
  829MOL0     H11886  -1.332   2.327   8.170 -1.0003  2.2546  1.5077
  829MOL0     H11887  -1.212   2.322   8.436 -3.6570 -2.3771  1.2170
  829MOL0     H11888  -1.237   2.472   8.349  1.5325 -0.1688  2.0245
  829MOL0     H11889  -1.416   2.429   8.528 -1.7645 -4.5473  2.6771
  829MOL0     H11890  -1.444   2.276   8.468  2.2927 -0.9150  1.2684
  829MOL0     H11891  -1.511   2.391   8.235  0.6968  1.9906 -0.4941
  829MOL0     H11892  -1.621   2.428   8.364 -1.3051  0.0859 -3.4801
  829MOL0     H11893  -1.394   2.615   8.242 -0.7404  1.0324 -0.7769
  829MOL0     H11894  -1.504   2.654   8.380  0.0026 -0.2436  0.2286
  829MOL0     H11895  -1.599   2.583   8.103  1.4489 -1.2581  0.6621
  829MOL0     H11896  -1.604   2.746   8.190  0.2337 -0.5691  0.6517
  829MOL0     H11897  -0.909   2.134   8.309  0.3917 -0.8256  1.4732
  829MOL0     H11898  -0.728   1.982   8.353  0.8184 -0.7027 -1.4618
  829MOL0     H11899  -0.344   1.780   8.162  0.3593 -1.1754  2.9975
  829MOL0     H11900  -0.163   1.648   8.156  2.0557 -0.7657 -0.2843
  829MOL0     H11901   0.187   0.977   9.475  1.9778 -1.0388 -0.6140
  829MOL0     H11902   0.181   0.846   9.658 -0.1583 -1.0545  0.4904
  829MOL0     H11903   0.377   0.335   9.791 -0.4520 -0.6822 -0.0059
  829MOL0     H11904   0.362   0.208  10.010 -0.4493 -1.4820  0.2788
  829MOL0     H11905   0.054   0.035  10.213 -0.2016  2.6373  0.1776
  829MOL0     H11906   0.076   0.046  10.036  1.8141  1.9342 -1.5414
  829MOL0     H11907   0.333   0.055  10.184  0.8784 -1.1101  0.0756
  829MOL0     H11908   0.283  -0.034  10.035 -0.6960  0.4781 -0.1273
  829MOL0     H11909   0.139  -0.171  10.203 -0.6611  0.0936  0.7641
  829MOL0     H11910   0.268  -0.128  10.314  1.6593 -0.6866 -0.2265
  829MOL0     H11911   0.320  -0.266  10.051  3.0773  1.0396 -0.3092
  829MOL0     H11912   0.311  -0.337  10.211 -1.9358  0.1556 -1.4032
  829MOL0     H11913   0.698  -0.151  10.182 -1.0828  0.2910 -2.1153
  829MOL0     H11914  -0.053   0.359  10.050  0.3950 -0.1707  0.4557
  829MOL0     H11915  -0.006   0.509   9.873 -1.5440 -2.7390 -2.9769
  830MOL0     O11916   0.655   3.881   6.992  0.1344 -0.9846  0.3437
  830MOL0     C11917   0.540   3.919   6.986 -0.2840  0.3293  0.3518
  830MOL0     O11918   0.428   3.856   7.035  0.3449 -0.5695  0.3699
  830MOL0     C11919   0.458   3.745   7.108 -1.1127 -0.1234 -0.0186
  830MOL0     C11920   0.449   3.606   7.060 -0.6622 -0.1361 -0.4481
  830MOL0     C11921   0.480   3.503   7.151 -0.8530 -0.1082 -0.2014
  830MOL0     C11922   0.519   3.529   7.281  0.4980 -0.2693  0.8014
  830MOL0     O11923   0.562   3.429   7.370  0.5125 -0.1773  0.1994
  830MOL0     C11924   0.448   3.357   7.423 -0.3429 -0.6571  0.4213
  830MOL0     C11925   0.506   3.249   7.515 -0.6393  0.2053 -0.2660
  830MOL0     C11926   0.589   3.279   7.643  0.2000  0.3043 -0.3759
  830MOL0     C11927   0.531   3.375   7.746  0.2840  0.0609  0.5048
  830MOL0     C11928   0.567   3.528   7.713  0.0364  0.0406  0.0637
  830MOL0     C11929   0.522   3.631   7.824 -0.3202 -0.0799 -0.4715
  830MOL0     C11930   0.568   3.772   7.794 -0.2940  0.3079  0.5588
  830MOL0     C11931   0.528   3.882   7.890 -0.7863  0.4521 -1.5811
  830MOL0     N11932   0.601   3.867   8.020  0.0728 -0.2518 -0.3904
  830MOL0     C11933   0.549   3.802   8.137  0.0265 -0.6469  0.4426
  830MOL0     C11934   0.651   3.807   8.227  0.2563  0.8174 -0.7092
  830MOL0     C11935   0.641   3.751   8.364 -0.1978  0.6692 -0.4911
  830MOL0     C11936   0.663   3.849   8.476  0.9482  0.4092 -0.7928
  830MOL0     C11937   0.679   3.784   8.614  0.1838  0.6372  0.5299
  830MOL0     C11938   0.549   3.745   8.688 -0.1483  0.2114  0.4391
  830MOL0     O11939   0.579   3.674   8.804  1.2527  1.0923 -0.0730
  830MOL0     C11940   0.633   3.746   8.903 -0.3482  0.4269 -0.1629
  830MOL0     C11941   0.665   3.882   8.912  0.4229  0.7427  1.1348
  830MOL0     C11942   0.741   3.934   9.025  0.4374  0.3227 -0.1001
  830MOL0     C11943   0.788   4.082   9.013 -0.1461  1.0286  0.8570
  830MOL0     C11944   0.789   3.850   9.125 -0.1820 -1.3310 -0.7473
  830MOL0     C11945   0.875   3.879   9.248  0.1333 -0.5583  0.2861
  830MOL0     O11946   0.948   3.995   9.227 -0.1232  0.5083  0.4117
  830MOL0     C11947   1.023   4.047   9.335 -0.2813  1.3491 -0.5264
  830MOL0     C11948   1.123   3.974   9.403  0.1869 -0.5237  0.1173
  830MOL0     C11949   1.181   4.015   9.521  0.5569  0.0638 -0.7686
  830MOL0     C11950   1.149   4.138   9.578 -0.3020  0.6679 -0.3125
  830MOL0     O11951   1.224   4.180   9.687 -0.0056 -0.5162  0.0051
  830MOL0     C11952   1.152   4.264   9.783  0.2543  0.0846  0.5780
  830MOL0     C11953   1.253   4.352   9.852 -0.1034  0.1494  0.2848
  830MOL0     C11954   1.338   4.437   9.758 -0.3326  0.0846 -0.4365
  830MOL0     C11955   1.262   4.554   9.690 -0.1315  0.0290  0.6724
  830MOL0     C11956   1.349   4.683   9.660  0.1002  0.4945  0.7721
  830MOL0     C11957   1.267   4.796   9.576  0.3020 -0.0548 -0.4750
  830MOL0     C11958   1.312   4.943   9.587 -0.0934 -0.7371 -0.6909
  830MOL0     C11959   1.398   4.999   9.466  0.0411  0.1851 -0.9961
  830MOL0    Cl11960   1.558   4.939   9.473  0.3746  0.0538 -0.3453
  830MOL0     C11961   1.056   4.225   9.505  0.2489  0.2284  0.1273
  830MOL0     C11962   0.988   4.167   9.394  0.5634  0.3752 -1.5238
  830MOL0     O11963   0.886   3.792   9.338  0.1438 -0.3820 -0.2373
  830MOL0     C11964   0.743   3.723   9.128  0.6297 -0.6958 -0.0054
  830MOL0     C11965   0.676   3.667   9.017  0.2466  0.1237  0.1315
  830MOL0     N11966   0.760   3.865   8.169  0.4617 -0.5381  0.9103
  830MOL0     N11967   0.733   3.896   8.051 -0.3064 -0.1653 -0.2395
  830MOL0     C11968   0.539   3.662   7.328  0.1260 -1.0743 -0.4770
  830MOL0     C11969   0.506   3.771   7.240 -0.2432 -0.9237  0.3923
  830MOL0     C11970   0.523   4.053   6.934 -0.6560 -0.0377 -0.2059
  830MOL0     C11971   0.423   4.143   6.989 -0.2124 -0.1918  0.5343
  830MOL0     C11972   0.409   4.269   6.919  1.0000 -0.2102 -0.7294
  830MOL0     C11973   0.467   4.303   6.796 -0.1724  0.2272  1.0051
  830MOL0     O11974   0.435   4.407   6.719 -1.0875 -0.8303  0.5555
  830MOL0     C11975   0.302   4.423   6.672  0.4975 -0.2620 -0.6554
  830MOL0     C11976   0.282   4.334   6.552  0.1817  0.2580  0.6205
  830MOL0     C11977   0.173   4.383   6.456 -0.5645 -1.3042  0.2074
  830MOL0     C11978   0.100   4.271   6.367  0.6501 -0.0250 -0.5122
  830MOL0     C11979  -0.026   4.332   6.327  0.3629 -0.2558  0.7011
  830MOL0     C11980  -0.135   4.373   6.284 -0.3698  0.3337 -0.2908
  830MOL0     C11981   0.565   4.214   6.750 -1.1984 -0.2093 -0.0640
  830MOL0     C11982   0.600   4.100   6.826  0.1971  0.1384  0.1784
  830MOL0     H11983   0.403   3.580   6.965 -3.1024 -2.3192  1.1846
  830MOL0     H11984   0.467   3.403   7.111 -2.2040 -0.6956  1.5931
  830MOL0     H11985   0.390   3.427   7.484 -0.2928 -1.0721  0.9447
  830MOL0     H11986   0.381   3.319   7.346 -0.5819  0.8679 -0.1669
  830MOL0     H11987   0.417   3.192   7.542 -2.2335  2.3274 -0.7778
  830MOL0     H11988   0.571   3.186   7.453  0.4247 -0.9757  1.9174
  830MOL0     H11989   0.618   3.183   7.687  1.8309  0.2229 -1.5432
  830MOL0     H11990   0.682   3.322   7.605  0.5093 -0.8768 -0.9869
  830MOL0     H11991   0.422   3.362   7.749  0.3991 -1.5813 -0.8732
  830MOL0     H11992   0.566   3.355   7.847 -0.3198  1.3401  0.9887
  830MOL0     H11993   0.676   3.534   7.703  0.3088 -0.0930  2.4391
  830MOL0     H11994   0.517   3.542   7.617 -0.9973 -2.1104  0.2234
  830MOL0     H11995   0.414   3.629   7.845  0.0541 -0.5250  1.6323
  830MOL0     H11996   0.565   3.607   7.922 -2.0753 -0.0235  0.3571
  830MOL0     H11997   0.677   3.773   7.806 -0.1437  1.0096 -0.6745
  830MOL0     H11998   0.539   3.802   7.693  0.2521  0.0668  0.3273
  830MOL0     H11999   0.419   3.894   7.899 -0.5661  1.2417  0.7223
  830MOL0     H12000   0.571   3.975   7.852 -0.8317  0.9560 -0.4337
  830MOL0     H12001   0.449   3.764   8.153  0.1678 -0.9175  0.6937
  830MOL0     H12002   0.548   3.697   8.381 -0.8747  2.2334  1.0470
  830MOL0     H12003   0.719   3.676   8.378 -1.5017 -0.5952  0.2165
  830MOL0     H12004   0.587   3.927   8.487 -1.3287 -1.7799 -0.0312
  830MOL0     H12005   0.760   3.893   8.454  3.0096 -3.1990  0.2649
  830MOL0     H12006   0.737   3.850   8.678 -0.3557  0.0544  1.6517
  830MOL0     H12007   0.726   3.686   8.603 -3.7594 -1.2812 -1.5100
  830MOL0     H12008   0.500   3.666   8.631 -1.6004  0.6477  1.0322
  830MOL0     H12009   0.475   3.825   8.700 -0.4707 -0.1177  0.6613
  830MOL0     H12010   0.623   3.948   8.837  0.0396 -1.1633 -0.4152
  830MOL0     H12011   0.767   4.141   9.102  1.2354  0.3516  1.6645
  830MOL0     H12012   0.896   4.092   9.002  0.1897  0.2415  2.8932
  830MOL0     H12013   0.730   4.128   8.932  2.9023 -0.0352 -2.1606
  830MOL0     H12014   1.164   3.882   9.363  0.3845  0.0365 -1.0082
  830MOL0     H12015   1.244   3.951   9.581  0.6256  2.9704  2.5979
  830MOL0     H12016   1.076   4.331   9.743  0.8752  1.6894  1.9375
  830MOL0     H12017   1.101   4.195   9.852 -1.1005  0.0664 -0.4090
  830MOL0     H12018   1.206   4.430   9.912  1.7864  0.1087  1.9219
  830MOL0     H12019   1.325   4.289   9.905  4.5947  2.1023 -3.0877
  830MOL0     H12020   1.390   4.385   9.677  0.9063  0.0337  0.3584
  830MOL0     H12021   1.416   4.487   9.817 -2.0614  3.5238 -0.8242
  830MOL0     H12022   1.208   4.531   9.598 -1.1480  0.1224  1.2396
  830MOL0     H12023   1.193   4.600   9.761 -2.6537  1.8943 -2.6850
  830MOL0     H12024   1.445   4.662   9.611 -0.8700  1.2616 -1.5993
  830MOL0     H12025   1.367   4.720   9.761 -1.5123 -0.5105  1.4582
  830MOL0     H12026   1.252   4.767   9.472  1.0504 -1.5364 -0.1964
  830MOL0     H12027   1.168   4.791   9.624  0.7786 -3.1514  0.4251
  830MOL0     H12028   1.383   4.946   9.670 -0.2376 -0.0230 -0.5899
  830MOL0     H12029   1.228   5.010   9.608  0.4369 -0.7078  1.5957
  830MOL0     H12030   1.398   5.108   9.472  3.6803  0.2285  1.7516
  830MOL0     H12031   1.357   4.982   9.366 -3.9027 -1.3467  0.6804
  830MOL0     H12032   1.040   4.325   9.542 -1.1940 -0.3807  1.2631
  830MOL0     H12033   0.914   4.233   9.351 -0.0609  0.5202 -0.2692
  830MOL0     H12034   0.767   3.659   9.212 -1.1325 -1.8906 -0.3639
  830MOL0     H12035   0.661   3.560   9.032  2.0130  0.0481  1.7400
  830MOL0     H12036   0.578   3.685   7.426 -1.7985 -1.9548  0.5522
  830MOL0     H12037   0.524   3.876   7.259 -0.2009 -0.7164 -0.7431
  830MOL0     H12038   0.356   4.137   7.075 -0.8226  0.1121  0.0966
  830MOL0     H12039   0.328   4.333   6.954  1.6299  1.2644 -1.8673
  830MOL0     H12040   0.235   4.389   6.752  0.6268 -1.9946 -1.2410
  830MOL0     H12041   0.284   4.528   6.644  0.6919  0.7854  2.7089
  830MOL0     H12042   0.258   4.240   6.603 -2.7048  1.6178  1.9922
  830MOL0     H12043   0.369   4.332   6.486 -2.1455  0.8411 -2.7148
  830MOL0     H12044   0.211   4.463   6.392 -2.3354 -0.6288 -0.0322
  830MOL0     H12045   0.098   4.428   6.521  1.4355  0.4166  1.4533
  830MOL0     H12046   0.085   4.185   6.433 -3.3665 -0.7046 -2.0405
  830MOL0     H12047   0.167   4.233   6.290 -1.2684 -2.1021 -1.2476
  830MOL0     H12048  -0.229   4.413   6.252  0.5167  2.2945 -0.5964
  830MOL0     H12049   0.618   4.228   6.657 -0.5981 -2.0869 -0.0285
  830MOL0     H12050   0.658   4.022   6.777 -3.0038 -1.0729 -2.0268
  831MOL0     O12051   6.588   1.231   0.394 -0.5058 -0.8011 -0.1800
  831MOL0     C12052   6.581   1.109   0.394 -0.3648  0.5823  0.7452
  831MOL0     O12053   6.489   1.033   0.471  0.1106  0.3731  0.8453
  831MOL0     C12054   6.389   1.083   0.542 -0.4547 -1.0056  0.3115
  831MOL0     C12055   6.328   1.209   0.518  0.4953 -0.9655 -0.6154
  831MOL0     C12056   6.241   1.248   0.617  0.3572  0.5345 -0.0315
  831MOL0     C12057   6.192   1.166   0.720  0.3908 -0.4641  0.5484
  831MOL0     O12058   6.095   1.221   0.805 -0.6178  0.3459 -0.1821
  831MOL0     C12059   5.975   1.152   0.808  0.8688 -0.1117 -0.7763
  831MOL0     C12060   5.854   1.217   0.888  0.1717 -0.7633 -0.5841
  831MOL0     C12061   5.754   1.291   0.789 -0.0441 -0.1093 -0.3182
  831MOL0     C12062   5.626   1.345   0.853  0.0490  1.1725  0.5718
  831MOL0     C12063   5.551   1.446   0.765 -0.6629  0.0537  0.0965
  831MOL0     C12064   5.415   1.463   0.819  0.2429 -0.4962  0.0764
  831MOL0     C12065   5.313   1.367   0.760 -0.7374  0.1405  0.3321
  831MOL0     C12066   5.176   1.395   0.801  0.2146 -0.0382 -0.3514
  831MOL0     N12067   5.094   1.288   0.731 -0.1206  0.7448  0.1453
  831MOL0     C12068   5.014   1.325   0.632 -0.5580  0.1734  0.2768
  831MOL0     C12069   4.993   1.217   0.561  0.2673  0.2677  0.3385
  831MOL0     C12070   4.889   1.212   0.450  0.4299 -1.5352 -0.1895
  831MOL0     C12071   4.761   1.152   0.485  0.6294  0.6130  0.5526
  831MOL0     C12072   4.692   1.197   0.615  0.9438 -0.0009  0.7526
  831MOL0     C12073   4.584   1.089   0.657  0.5689  0.5970  0.0231
  831MOL0     O12074   4.458   1.116   0.592  0.1620 -0.1270  0.0860
  831MOL0     C12075   4.368   1.169   0.671 -0.1833 -0.5894 -0.3474
  831MOL0     C12076   4.327   1.114   0.792  0.0045 -0.2935  0.9250
  831MOL0     C12077   4.249   1.182   0.889  1.1299 -0.3686 -0.5390
  831MOL0     C12078   4.222   1.125   1.021  0.1668 -0.0284  0.0447
  831MOL0     C12079   4.193   1.309   0.847 -0.1146 -0.0365  0.0080
  831MOL0     C12080   4.094   1.383   0.920 -0.6325 -0.6374 -0.7299
  831MOL0     O12081   4.064   1.515   0.873  0.1940 -0.1777  0.1037
  831MOL0     C12082   3.987   1.594   0.954  1.0969 -0.5915 -0.5384
  831MOL0     C12083   4.036   1.723   0.987  0.8997 -0.0965 -0.1954
  831MOL0     C12084   3.972   1.803   1.080  0.3940  1.4873 -0.5082
  831MOL0     C12085   3.870   1.744   1.164  0.7903  0.4879  0.3227
  831MOL0     O12086   3.800   1.817   1.259  0.1771 -0.1678 -0.8450
  831MOL0     C12087   3.799   1.758   1.395 -0.0907 -0.1296  0.7798
  831MOL0     C12088   3.915   1.814   1.479 -0.9749  0.0088  0.8662
  831MOL0     C12089   3.890   1.963   1.486  0.3907  0.0654 -0.2424
  831MOL0     C12090   4.006   2.022   1.571 -0.1551  0.1885  0.2349
  831MOL0     C12091   4.143   2.016   1.511  0.3263  0.3596 -0.5592
  831MOL0     C12092   4.238   2.111   1.585  0.8628  0.7116 -0.0380
  831MOL0     C12093   4.381   2.125   1.521 -0.3773  0.0370  0.7779
  831MOL0     C12094   4.456   2.000   1.558 -0.6332 -0.8429 -0.6002
  831MOL0    Cl12095   4.627   2.029   1.524 -0.6370 -0.0532 -0.0435
  831MOL0     C12096   3.817   1.621   1.125  0.6374 -0.4300  0.4463
  831MOL0     C12097   3.865   1.551   1.011  0.6574  0.1258 -0.2096
  831MOL0     O12098   4.031   1.324   1.007  0.3096 -0.3561 -0.5113
  831MOL0     C12099   4.234   1.362   0.726  0.6813 -0.7245 -0.4805
  831MOL0     C12100   4.315   1.290   0.633  0.3476 -0.6915 -0.5052
  831MOL0     N12101   5.053   1.108   0.632 -0.1371  0.4634  0.2570
  831MOL0     N12102   5.118   1.153   0.727 -0.2684 -0.4585  0.4074
  831MOL0     C12103   6.235   1.028   0.724 -0.2164 -0.7165 -0.1490
  831MOL0     C12104   6.333   0.991   0.633  0.1491 -0.3994  0.2508
  831MOL0     C12105   6.666   1.040   0.298 -0.0312 -0.0756 -0.2504
  831MOL0     C12106   6.698   0.900   0.315  0.4799  0.2906 -0.3480
  831MOL0     C12107   6.781   0.822   0.223  0.2768 -0.7125  0.2022
  831MOL0     C12108   6.844   0.894   0.115 -0.3096  0.1915 -0.0445
  831MOL0     O12109   6.923   0.840   0.013 -0.5051 -0.4578  0.2380
  831MOL0     C12110   6.937   0.699   0.007 -0.1799  0.3907  0.9646
  831MOL0     C12111   7.045   0.651   0.105 -0.5602 -0.1189  0.8092
  831MOL0     C12112   7.184   0.619   0.038 -0.2471  0.2475 -1.0167
  831MOL0     C12113   7.240   0.732  -0.065  1.1400  0.4996 -0.1667
  831MOL0     C12114   7.383   0.715  -0.074 -0.2923 -0.4024 -0.9749
  831MOL0     C12115   7.506   0.706  -0.076 -0.1731  0.7753  0.6503
  831MOL0     C12116   6.824   1.037   0.100  0.0370 -0.6887 -0.2998
  831MOL0     C12117   6.732   1.103   0.192  0.2423 -0.3214  0.3564
  831MOL0     H12118   6.359   1.275   0.438 -1.0837 -0.5685 -0.9447
  831MOL0     H12119   6.196   1.347   0.611  0.1785  0.4288 -0.4627
  831MOL0     H12120   5.948   1.135   0.703 -0.2572  0.6251 -0.6178
  831MOL0     H12121   5.992   1.061   0.866  1.9136 -0.6789 -1.9204
  831MOL0     H12122   5.811   1.138   0.950 -2.5364 -0.6741 -2.1898
  831MOL0     H12123   5.900   1.290   0.955  0.3980 -0.6607 -0.8508
  831MOL0     H12124   5.803   1.361   0.720  1.3468 -0.1477  0.6045
  831MOL0     H12125   5.713   1.207   0.732 -0.8760 -0.6039  0.9537
  831MOL0     H12126   5.566   1.256   0.871  1.0573 -0.0569 -1.7606
  831MOL0     H12127   5.643   1.389   0.952 -0.5708  1.9711  0.3334
  831MOL0     H12128   5.598   1.544   0.754 -2.5529  0.7578 -2.4340
  831MOL0     H12129   5.546   1.408   0.663  1.5772 -2.5864  0.8392
  831MOL0     H12130   5.422   1.465   0.928  0.2061  0.5238  0.0787
  831MOL0     H12131   5.379   1.564   0.793 -0.2828 -0.6167  0.3189
  831MOL0     H12132   5.322   1.371   0.651 -2.0658  0.1347  0.2020
  831MOL0     H12133   5.348   1.268   0.789 -0.1368  0.1355 -0.3718
  831MOL0     H12134   5.149   1.494   0.763 -3.7777 -1.6553 -2.3389
  831MOL0     H12135   5.165   1.387   0.910  0.0899 -0.2302 -0.3764
  831MOL0     H12136   4.975   1.424   0.611  1.0218  0.4522 -1.5873
  831MOL0     H12137   4.872   1.313   0.413  0.2630 -1.4631  0.0847
  831MOL0     H12138   4.927   1.153   0.366  0.9757 -1.8629  0.2739
  831MOL0     H12139   4.776   1.044   0.492  3.6006  0.9137  0.1641
  831MOL0     H12140   4.695   1.159   0.398 -0.2510  2.0850  1.3091
  831MOL0     H12141   4.649   1.296   0.603  0.2721 -0.2328  1.1927
  831MOL0     H12142   4.765   1.210   0.695  0.7327  0.5314  0.8575
  831MOL0     H12143   4.579   1.077   0.766  0.6928 -3.3287 -0.2290
  831MOL0     H12144   4.622   0.996   0.614  0.5744  2.0553 -3.4562
  831MOL0     H12145   4.368   1.015   0.811  1.1496 -0.4543 -2.0229
  831MOL0     H12146   4.120   1.094   1.041 -0.6764  2.4519 -0.0820
  831MOL0     H12147   4.293   1.042   1.030  2.1180  1.1889 -2.5361
  831MOL0     H12148   4.241   1.203   1.095 -0.3089  1.1495 -1.0293
  831MOL0     H12149   4.118   1.750   0.921  0.4281 -0.3657 -0.9136
  831MOL0     H12150   4.010   1.903   1.102 -0.5243  1.5754  0.8419
  831MOL0     H12151   3.705   1.791   1.438 -0.7183 -2.2642  1.1623
  831MOL0     H12152   3.796   1.649   1.388  0.6694 -0.0581 -2.7288
  831MOL0     H12153   3.931   1.775   1.579  0.2485  0.8204  1.0140
  831MOL0     H12154   4.016   1.801   1.439 -1.0342  0.5187  0.5468
  831MOL0     H12155   3.796   1.995   1.531  0.1656 -0.1147 -0.5813
  831MOL0     H12156   3.885   2.002   1.384  3.2419 -1.0348 -0.8892
  831MOL0     H12157   3.982   2.124   1.600  0.6230 -0.3792  3.2520
  831MOL0     H12158   4.004   1.967   1.666 -0.5262 -0.3224 -0.0604
  831MOL0     H12159   4.144   2.048   1.407 -0.3161  2.5982  0.0582
  831MOL0     H12160   4.181   1.913   1.508 -0.6260 -0.0639  0.8200
  831MOL0     H12161   4.194   2.210   1.598 -3.9555 -1.3338  1.5037
  831MOL0     H12162   4.251   2.093   1.692  2.3635  1.1134 -0.1337
  831MOL0     H12163   4.439   2.213   1.552  0.3564 -0.1916  0.0838
  831MOL0     H12164   4.373   2.126   1.412  5.1431  2.4216  0.0692
  831MOL0     H12165   4.412   1.914   1.507  0.4322 -4.2211  3.5994
  831MOL0     H12166   4.443   1.980   1.665  2.7612  0.2570  0.1216
  831MOL0     H12167   3.742   1.577   1.191 -0.6642  0.8551 -0.1331
  831MOL0     H12168   3.821   1.460   0.971 -2.3572  1.2745  0.2251
  831MOL0     H12169   4.206   1.460   0.688  0.3408 -1.4721 -2.2942
  831MOL0     H12170   4.360   1.328   0.541 -1.7664 -0.2339 -1.4123
  831MOL0     H12171   6.176   0.957   0.780 -1.7461  0.9476  0.4389
  831MOL0     H12172   6.341   0.883   0.624 -0.9751 -0.4310 -0.4926
  831MOL0     H12173   6.641   0.838   0.384 -0.9569  0.9914 -0.8699
  831MOL0     H12174   6.781   0.715   0.241 -1.3607 -0.4450  2.2976
  831MOL0     H12175   6.842   0.648   0.023 -0.4502  0.7929  0.6396
  831MOL0     H12176   6.972   0.678  -0.095 -1.0687 -0.2203  0.7717
  831MOL0     H12177   7.021   0.559   0.159 -2.1250 -0.6380 -0.6620
  831MOL0     H12178   7.062   0.728   0.180  6.0388 -0.1461 -0.1007
  831MOL0     H12179   7.170   0.525  -0.015 -0.1319 -0.2903 -0.1051
  831MOL0     H12180   7.257   0.609   0.119 -0.4415 -2.2489 -1.0897
  831MOL0     H12181   7.199   0.822  -0.018 -0.8314 -1.0889  1.3633
  831MOL0     H12182   7.203   0.735  -0.167  1.8396  0.8303 -0.4174
  831MOL0     H12183   7.613   0.704  -0.078  0.0526  3.6223 -3.1419
  831MOL0     H12184   6.882   1.084   0.022  0.0135 -2.3167 -1.3370
  831MOL0     H12185   6.727   1.211   0.197  1.2781 -0.2960  1.1667
  832MOL0     O12186   3.091   8.086   0.096 -0.4433  0.2992 -0.2004
  832MOL0     C12187   3.065   8.165   0.009 -0.2231 -0.3055 -1.2321
  832MOL0     O12188   3.059   8.148  -0.128 -0.0385  0.4106 -0.4404
  832MOL0     C12189   3.121   8.045  -0.198  0.5840  0.7053  0.3501
  832MOL0     C12190   3.119   7.915  -0.166  0.5819 -0.3348 -0.4338
  832MOL0     C12191   3.194   7.825  -0.237 -0.3886 -0.5714  0.4908
  832MOL0     C12192   3.285   7.870  -0.337 -0.4465 -0.5505 -0.3950
  832MOL0     O12193   3.371   7.793  -0.417 -0.0346  0.1988 -0.1381
  832MOL0     C12194   3.324   7.674  -0.475 -0.7552  0.6325  0.8309
  832MOL0     C12195   3.235   7.690  -0.595  0.4283 -0.6341  0.2746
  832MOL0     C12196   3.300   7.768  -0.712 -0.4770  0.2195 -0.4752
  832MOL0     C12197   3.390   7.673  -0.792  0.0680  0.3336 -0.3713
  832MOL0     C12198   3.502   7.738  -0.866 -0.1431  1.2561 -0.0880
  832MOL0     C12199   3.556   7.654  -0.980 -0.5361  0.5220  0.0321
  832MOL0     C12200   3.687   7.705  -1.037 -0.1148  1.5013 -0.9381
  832MOL0     C12201   3.690   7.855  -1.078  0.2389 -0.9493  0.0040
  832MOL0     N12202   3.593   7.877  -1.188 -0.9954  0.3948  0.2455
  832MOL0     C12203   3.552   8.003  -1.212  0.0604  0.0939  0.1443
  832MOL0     C12204   3.497   7.994  -1.332  0.4601 -0.5786 -0.0045
  832MOL0     C12205   3.439   8.109  -1.401  0.0537  0.8000 -0.2510
  832MOL0     C12206   3.307   8.151  -1.340  0.0994  0.4233 -0.6118
  832MOL0     C12207   3.206   8.038  -1.312 -0.1438  0.5405  0.7491
  832MOL0     C12208   3.076   8.058  -1.369  0.0401 -0.2706  0.4344
  832MOL0     O12209   3.084   8.060  -1.517 -0.5492  0.1274  0.0108
  832MOL0     C12210   3.027   7.958  -1.589  1.0322 -0.5729  0.8425
  832MOL0     C12211   2.976   7.977  -1.725  0.6496 -0.3696 -0.2845
  832MOL0     C12212   2.892   7.882  -1.794 -0.7041  0.4915  0.3264
  832MOL0     C12213   2.837   7.933  -1.934 -0.5189  0.7069 -0.5361
  832MOL0     C12214   2.865   7.754  -1.732 -0.5281  0.4808  0.0432
  832MOL0     C12215   2.775   7.657  -1.787 -0.4430 -0.0851 -0.2215
  832MOL0     O12216   2.759   7.544  -1.703 -0.3041 -0.0971  0.0364
  832MOL0     C12217   2.686   7.442  -1.751 -0.1042 -0.0271 -0.8340
  832MOL0     C12218   2.755   7.327  -1.787  0.0173  0.3985  0.6113
  832MOL0     C12219   2.678   7.209  -1.813  0.6693 -0.1511 -0.0979
  832MOL0     C12220   2.533   7.214  -1.803  0.4574  0.9425 -0.5610
  832MOL0     O12221   2.475   7.103  -1.856  0.2541 -0.0311  0.2848
  832MOL0     C12222   2.376   7.042  -1.764 -0.7657  0.6104 -0.1927
  832MOL0     C12223   2.392   6.886  -1.743  0.1597 -0.3513 -0.7593
  832MOL0     C12224   2.447   6.820  -1.868 -0.3865  0.6201 -0.1019
  832MOL0     C12225   2.436   6.671  -1.844 -0.0899  0.1186  0.1518
  832MOL0     C12226   2.458   6.592  -1.977 -0.4399 -0.3781  0.4448
  832MOL0     C12227   2.335   6.561  -2.059 -0.4724 -0.7496  0.2624
  832MOL0     C12228   2.246   6.464  -1.990  0.1338  0.4188 -0.0179
  832MOL0     C12229   2.257   6.324  -2.055 -0.1500  0.7403 -0.9579
  832MOL0    Cl12230   2.418   6.268  -2.000 -0.4555 -0.0365 -0.0336
  832MOL0     C12231   2.475   7.336  -1.774  0.2255  0.2240  0.3972
  832MOL0     C12232   2.549   7.442  -1.729 -0.8154 -0.1073  0.6962
  832MOL0     O12233   2.733   7.673  -1.896  1.0704 -0.0749 -0.1269
  832MOL0     C12234   2.928   7.735  -1.603  0.2173 -0.2349  0.6832
  832MOL0     C12235   3.007   7.835  -1.541 -0.5329  0.1655 -0.8848
  832MOL0     N12236   3.514   7.862  -1.380 -0.5624  0.5601  0.2806
  832MOL0     N12237   3.555   7.788  -1.287  0.4231 -0.0782  0.9751
  832MOL0     C12238   3.282   8.010  -0.367 -0.8423  0.0939 -0.7157
  832MOL0     C12239   3.198   8.098  -0.297  0.4049  0.5923 -0.5733
  832MOL0     C12240   3.012   8.292   0.059 -0.1728 -0.1333  0.1788
  832MOL0     C12241   3.050   8.337   0.184  0.1324 -0.5947 -0.4883
  832MOL0     C12242   2.990   8.462   0.224  0.5297  0.0561  0.1351
  832MOL0     C12243   2.904   8.538   0.149  0.7075 -0.2742  0.5001
  832MOL0     O12244   2.844   8.648   0.200  0.4783 -0.2274  0.3956
  832MOL0     C12245   2.904   8.747   0.286  1.1278 -0.4400  0.0978
  832MOL0     C12246   2.799   8.861   0.294  0.2788  0.0309 -0.1283
  832MOL0     C12247   2.694   8.814   0.387  1.2239  0.0651  0.8547
  832MOL0     C12248   2.597   8.924   0.439  0.5125  0.1261 -0.6080
  832MOL0     C12249   2.662   8.992   0.552  1.0737 -0.4137  0.2824
  832MOL0     C12250   2.706   9.026   0.657  0.8704  0.7471 -0.0186
  832MOL0     C12251   2.863   8.485   0.033 -0.5935  0.2842  0.4889
  832MOL0     C12252   2.918   8.364  -0.010  0.5794  0.9578 -0.1280
  832MOL0     H12253   3.060   7.881  -0.081 -1.6453  0.0884 -1.7195
  832MOL0     H12254   3.178   7.722  -0.209 -1.2999 -0.3153  0.9519
  832MOL0     H12255   3.414   7.622  -0.510 -2.2500 -0.9476 -0.8648
  832MOL0     H12256   3.284   7.608  -0.397 -2.3565  2.0420  1.2713
  832MOL0     H12257   3.213   7.587  -0.623 -2.3661  0.0339 -0.2704
  832MOL0     H12258   3.142   7.742  -0.567 -1.1945 -3.2923  0.1919
  832MOL0     H12259   3.227   7.818  -0.776 -1.1117 -1.4139 -1.0651
  832MOL0     H12260   3.350   7.853  -0.664 -0.1606  0.8433 -1.8723
  832MOL0     H12261   3.426   7.590  -0.730 -0.1038  0.7720  0.3307
  832MOL0     H12262   3.321   7.619  -0.857  0.7555 -0.7374 -0.2270
  832MOL0     H12263   3.462   7.830  -0.911 -0.9989  1.5295  1.1781
  832MOL0     H12264   3.584   7.756  -0.797  1.0547 -0.3624 -1.0193
  832MOL0     H12265   3.576   7.556  -0.937  2.8388  0.9004 -0.3587
  832MOL0     H12266   3.485   7.640  -1.061  0.4220 -0.4779 -0.6626
  832MOL0     H12267   3.774   7.688  -0.973  0.5473 -2.3425 -2.6037
  832MOL0     H12268   3.717   7.646  -1.125  3.7102  1.6334  0.0950
  832MOL0     H12269   3.787   7.894  -1.110 -1.0576  2.0680 -0.5983
  832MOL0     H12270   3.650   7.911  -0.993  0.8305  0.5383 -0.6725
  832MOL0     H12271   3.546   8.095  -1.154  2.6524  2.0621 -2.3831
  832MOL0     H12272   3.508   8.192  -1.388  0.8686  0.0864  0.1379
  832MOL0     H12273   3.442   8.088  -1.508  2.0573 -0.1517 -0.0637
  832MOL0     H12274   3.270   8.225  -1.412  2.1176  2.0989 -0.0139
  832MOL0     H12275   3.323   8.202  -1.245  0.8923 -0.9960  0.0444
  832MOL0     H12276   3.205   8.028  -1.203 -1.3071 -3.1565  0.5172
  832MOL0     H12277   3.234   7.940  -1.351 -2.1876 -1.7670  4.5485
  832MOL0     H12278   3.018   8.146  -1.339  0.5047  0.6349 -1.1652
  832MOL0     H12279   3.014   7.975  -1.334 -1.6171  1.0626  0.8264
  832MOL0     H12280   3.001   8.070  -1.775  0.3115 -0.4055 -0.5248
  832MOL0     H12281   2.870   8.035  -1.955  2.2243 -0.0987 -0.4374
  832MOL0     H12282   2.890   7.879  -2.013  2.6406  2.3240  0.3108
  832MOL0     H12283   2.728   7.923  -1.932 -0.6508  2.0540  1.0849
  832MOL0     H12284   2.862   7.314  -1.780 -0.0548  0.5754  2.5045
  832MOL0     H12285   2.727   7.113  -1.826  1.8566 -0.1799  3.3747
  832MOL0     H12286   2.391   7.086  -1.664 -2.6902  1.2016 -0.1384
  832MOL0     H12287   2.274   7.056  -1.801 -1.1350 -1.0130  0.1357
  832MOL0     H12288   2.463   6.893  -1.661 -1.7377  0.8381  0.8735
  832MOL0     H12289   2.298   6.847  -1.701 -1.1675  2.6156 -0.7304
  832MOL0     H12290   2.552   6.847  -1.880  0.1818 -1.2879  0.2307
  832MOL0     H12291   2.387   6.844  -1.957  0.5519 -3.1146 -1.9874
  832MOL0     H12292   2.517   6.644  -1.775  0.1356  0.4077 -0.0007
  832MOL0     H12293   2.338   6.643  -1.805  0.4498 -0.2861  1.2869
  832MOL0     H12294   2.505   6.497  -1.949 -0.8281 -0.1754  1.8726
  832MOL0     H12295   2.533   6.652  -2.029 -0.3226 -0.6700  0.2778
  832MOL0     H12296   2.282   6.655  -2.078 -1.9917 -1.7620 -0.6731
  832MOL0     H12297   2.361   6.533  -2.161 -2.1363 -0.7963 -0.1738
  832MOL0     H12298   2.137   6.476  -1.999 -0.3999 -0.1229  3.9963
  832MOL0     H12299   2.266   6.456  -1.883 -0.2851  0.2172  0.0470
  832MOL0     H12300   2.243   6.326  -2.164 -0.8545 -4.0425 -1.1795
  832MOL0     H12301   2.177   6.260  -2.016 -0.1012  0.0050 -2.0120
  832MOL0     H12302   2.367   7.340  -1.778  0.1608 -1.5993 -2.2310
  832MOL0     H12303   2.498   7.530  -1.693 -0.9729 -0.9442  2.6273
  832MOL0     H12304   2.915   7.645  -1.543  2.1958  0.1586  1.7899
  832MOL0     H12305   3.039   7.810  -1.440 -1.7047 -0.9087 -0.7520
  832MOL0     H12306   3.344   8.051  -0.446 -1.9283 -1.6608 -2.5670
  832MOL0     H12307   3.200   8.205  -0.317 -2.5716  1.1153  1.1846
  832MOL0     H12308   3.112   8.286   0.257 -2.0811  1.4809  3.1281
  832MOL0     H12309   3.018   8.494   0.324 -2.8092  2.1541  0.5438
  832MOL0     H12310   2.908   8.721   0.392 -2.5589  3.7008  1.5518
  832MOL0     H12311   3.001   8.783   0.250  0.4779  2.3122  0.9281
  832MOL0     H12312   2.756   8.890   0.198 -1.2808  1.4135  0.9368
  832MOL0     H12313   2.851   8.946   0.339 -1.8444  1.7624 -0.7797
  832MOL0     H12314   2.736   8.763   0.474  3.0773  1.8977  1.1248
  832MOL0     H12315   2.627   8.748   0.331  1.6695 -1.0455  1.5981
  832MOL0     H12316   2.507   8.882   0.485  1.1029 -2.6007 -1.7402
  832MOL0     H12317   2.581   9.001   0.363 -0.1945 -0.6263 -1.2426
  832MOL0     H12318   2.739   9.068   0.750 -0.9868  3.4454 -0.4807
  832MOL0     H12319   2.775   8.527  -0.015 -1.0790 -1.6809 -0.4111
  832MOL0     H12320   2.866   8.326  -0.097 -0.9271 -0.1997  1.1914
  833MOL0     O12321   3.556   6.854  11.048 -0.3424  0.4780  0.6807
  833MOL0     C12322   3.532   6.750  11.104 -0.1043  0.4696  0.1936
  833MOL0     O12323   3.427   6.666  11.081 -0.1748  0.1376  0.8940
  833MOL0     C12324   3.320   6.695  11.002  0.4139  0.4202 -0.2013
  833MOL0     C12325   3.247   6.590  10.956 -0.1644  0.3991 -0.9366
  833MOL0     C12326   3.130   6.609  10.880 -0.4011  0.0058 -0.1524
  833MOL0     C12327   3.076   6.740  10.852  0.0607 -0.2066  0.1691
  833MOL0     O12328   2.963   6.739  10.778  0.4615 -0.6603 -0.6227
  833MOL0     C12329   2.883   6.858  10.755  0.2497  0.5056  0.3317
  833MOL0     C12330   2.936   6.942  10.643 -0.1570 -0.0264 -0.4737
  833MOL0     C12331   2.827   6.952  10.531  0.3018  1.2884 -0.1820
  833MOL0     C12332   2.693   7.020  10.552 -0.5450 -0.4954  0.2900
  833MOL0     C12333   2.560   6.940  10.612  0.2348 -0.6778  0.5979
  833MOL0     C12334   2.522   6.833  10.511 -1.3017 -0.7706 -0.2171
  833MOL0     C12335   2.404   6.753  10.557  1.2842  0.0097 -0.9346
  833MOL0     C12336   2.370   6.636  10.458  0.1915  0.3527 -0.0370
  833MOL0     N12337   2.251   6.562  10.505  0.2180 -0.5273 -0.4353
  833MOL0     C12338   2.265   6.448  10.576 -0.8537 -0.3218  0.5514
  833MOL0     C12339   2.146   6.414  10.624 -0.5964 -0.5809  0.2280
  833MOL0     C12340   2.083   6.288  10.691 -0.0779 -0.6952  0.0376
  833MOL0     C12341   2.120   6.279  10.828 -0.2051 -0.2546  0.1109
  833MOL0     C12342   2.076   6.155  10.907  0.5290  0.3713 -0.5444
  833MOL0     C12343   2.132   6.170  11.050 -0.2432  0.6387  0.1576
  833MOL0     O12344   2.133   6.043  11.111 -1.1446  0.2654 -0.4343
  833MOL0     C12345   2.130   6.027  11.254  0.2112  0.4866  0.3491
  833MOL0     C12346   2.097   5.908  11.307 -0.4940 -0.1004  0.0053
  833MOL0     C12347   2.068   5.889  11.441 -0.1636 -0.2609 -0.0010
  833MOL0     C12348   2.025   5.744  11.488  0.4377 -1.4695 -0.9084
  833MOL0     C12349   2.073   6.006  11.523  1.0424 -0.2293 -0.8706
  833MOL0     C12350   2.044   5.991  11.673 -0.7430  0.4450  0.2366
  833MOL0     O12351   2.066   6.117  11.729  1.1562 -0.1221  0.5355
  833MOL0     C12352   2.081   6.126  11.860  0.0773 -0.4502  0.5184
  833MOL0     C12353   1.972   6.160  11.934  0.7675  0.0831 -0.2210
  833MOL0     C12354   1.993   6.164  12.071  0.8264  0.7761  0.1935
  833MOL0     C12355   2.115   6.159  12.136  0.0566  0.6164  0.1939
  833MOL0     O12356   2.133   6.197  12.270 -0.6401  0.3887  0.2355
  833MOL0     C12357   2.018   6.260  12.324 -0.5760  0.2126 -0.3943
  833MOL0     C12358   2.057   6.314  12.459 -0.5222  0.0259 -1.2690
  833MOL0     C12359   1.928   6.345  12.538 -1.1951 -0.2411  0.2672
  833MOL0     C12360   1.968   6.397  12.684  0.4109  0.8117  0.9111
  833MOL0     C12361   1.839   6.463  12.742 -0.1087  0.3261 -0.6813
  833MOL0     C12362   1.866   6.523  12.882  0.1389  0.4336  0.2563
  833MOL0     C12363   1.736   6.556  12.963 -0.0105 -0.6937  0.7055
  833MOL0     C12364   1.643   6.665  12.884  0.1877  0.0969 -0.5805
  833MOL0    Cl12365   1.712   6.829  12.901 -0.5943  0.4481 -0.1308
  833MOL0     C12366   2.222   6.135  12.063  0.0543  0.3263  0.6401
  833MOL0     C12367   2.211   6.115  11.920  0.3230 -0.4126  0.6192
  833MOL0     O12368   2.021   5.888  11.735 -0.8373 -0.2220  0.5425
  833MOL0     C12369   2.111   6.138  11.472  0.0191  1.6141  1.0088
  833MOL0     C12370   2.133   6.139  11.334 -0.2139 -0.1471 -0.0250
  833MOL0     N12371   2.060   6.515  10.591  0.4727 -0.2022  0.5989
  833MOL0     N12372   2.125   6.614  10.540 -0.3211  0.9651  0.1281
  833MOL0     C12373   3.151   6.851  10.897 -0.6162 -0.2142 -0.3787
  833MOL0     C12374   3.276   6.823  10.963 -0.0757 -0.9611  0.7751
  833MOL0     C12375   3.652   6.684  11.165  0.5492  0.7150 -0.3442
  833MOL0     C12376   3.773   6.755  11.193 -0.6862 -0.4240 -0.8967
  833MOL0     C12377   3.886   6.684  11.241  0.4796  0.7014 -0.4951
  833MOL0     C12378   3.883   6.545  11.257  0.6278  0.1392  0.5492
  833MOL0     O12379   3.985   6.486  11.330 -0.3618  0.2924  0.5468
  833MOL0     C12380   3.976   6.349  11.375  0.5433  0.3886 -0.0211
  833MOL0     C12381   4.091   6.311  11.462 -0.1657 -0.8100 -0.4563
  833MOL0     C12382   4.145   6.420  11.551  0.8703  0.9735  0.8366
  833MOL0     C12383   4.244   6.362  11.663  0.1365 -0.0705  0.4965
  833MOL0     C12384   4.380   6.393  11.617  0.2855 -0.5989 -0.4000
  833MOL0     C12385   4.492   6.416  11.569 -0.1256  0.5065  0.1802
  833MOL0     C12386   3.771   6.482  11.209  0.1228  0.2969 -0.4324
  833MOL0     C12387   3.660   6.549  11.157 -0.0990 -0.1025  0.2525
  833MOL0     H12388   3.268   6.488  10.985 -1.9616  0.0032 -0.8917
  833MOL0     H12389   3.079   6.522  10.839 -1.9994  0.7630  0.1592
  833MOL0     H12390   2.786   6.817  10.726  0.2727  1.3115 -0.9615
  833MOL0     H12391   2.864   6.915  10.846  0.6060 -0.2817  0.9126
  833MOL0     H12392   2.960   7.040  10.686  1.6191 -0.9917  0.9029
  833MOL0     H12393   3.028   6.892  10.611  0.7290  1.0769  0.2492
  833MOL0     H12394   2.878   6.995  10.445  1.8843  1.0325  0.6027
  833MOL0     H12395   2.802   6.850  10.497  0.6103  0.2967  2.3599
  833MOL0     H12396   2.718   7.106  10.616  1.2625 -2.4908  2.4566
  833MOL0     H12397   2.663   7.054  10.453  0.5340  0.7914  0.3732
  833MOL0     H12398   2.574   6.894  10.710  1.8986 -0.7359  0.3753
  833MOL0     H12399   2.481   7.015  10.618  1.0189  0.0178  3.1328
  833MOL0     H12400   2.504   6.871  10.410  0.9103 -0.5773 -0.5920
  833MOL0     H12401   2.607   6.765  10.513 -2.3187 -2.0982 -0.4005
  833MOL0     H12402   2.412   6.712  10.658 -0.4753 -1.6434 -1.4037
  833MOL0     H12403   2.324   6.828  10.568 -0.5592 -1.3862 -3.6490
  833MOL0     H12404   2.458   6.572  10.465  0.9769  1.3868 -0.2437
  833MOL0     H12405   2.351   6.669  10.356 -0.7222  0.7391  0.2404
  833MOL0     H12406   2.348   6.378  10.577  0.0559  0.6350 -1.7633
  833MOL0     H12407   1.974   6.292  10.686 -0.0222 -0.1167 -1.2140
  833MOL0     H12408   2.113   6.197  10.638  1.6281  0.4074 -0.9865
  833MOL0     H12409   2.077   6.367  10.876  1.2972  1.7296 -1.9576
  833MOL0     H12410   2.229   6.281  10.841 -0.2891  0.8417  0.7872
  833MOL0     H12411   2.116   6.072  10.849  2.1330  1.5237 -1.1639
  833MOL0     H12412   1.967   6.149  10.913  0.4580  2.1856  4.1605
  833MOL0     H12413   2.073   6.247  11.099 -0.9837  0.4067 -0.3497
  833MOL0     H12414   2.235   6.205  11.057  0.3979 -0.7291 -1.6724
  833MOL0     H12415   2.093   5.824  11.238 -3.3179  0.9742 -1.3005
  833MOL0     H12416   2.092   5.703  11.564 -1.3543  0.4052  1.8889
  833MOL0     H12417   1.930   5.757  11.540  0.3239  1.2449 -1.6326
  833MOL0     H12418   2.023   5.686  11.395 -1.2658 -0.8672 -1.2810
  833MOL0     H12419   1.872   6.175  11.892  0.9133  1.7922 -0.0010
  833MOL0     H12420   1.906   6.188  12.131  0.5762  0.7349 -0.1539
  833MOL0     H12421   1.998   6.350  12.264  4.7596  2.9472  1.2725
  833MOL0     H12422   1.936   6.189  12.334  0.4334 -0.9028  0.1553
  833MOL0     H12423   2.108   6.243  12.524  0.6581  2.1856  0.2663
  833MOL0     H12424   2.113   6.407  12.449 -0.7201  0.2352 -0.5095
  833MOL0     H12425   1.885   6.245  12.553  0.4537 -0.8620  1.1593
  833MOL0     H12426   1.859   6.414  12.490 -0.0036 -0.3198 -1.6598
  833MOL0     H12427   1.999   6.308  12.741  2.6002  1.1340  0.2952
  833MOL0     H12428   2.055   6.463  12.689  1.9640 -1.1589  1.2019
  833MOL0     H12429   1.758   6.390  12.740 -0.3479  0.4143  2.1085
  833MOL0     H12430   1.799   6.540  12.676 -4.2515  1.0975  2.3888
  833MOL0     H12431   1.929   6.460  12.946  0.0119  0.5050  0.4506
  833MOL0     H12432   1.923   6.615  12.868  0.1501  0.3407 -0.3267
  833MOL0     H12433   1.751   6.584  13.068  0.7995  0.9920  0.1628
  833MOL0     H12434   1.688   6.458  12.977 -0.1576 -0.6892  0.2342
  833MOL0     H12435   1.548   6.664  12.939  0.8292 -1.0238  0.5738
  833MOL0     H12436   1.634   6.632  12.780  3.6402 -1.1204 -0.6081
  833MOL0     H12437   2.320   6.156  12.106  0.5152  2.2385 -1.1695
  833MOL0     H12438   2.299   6.110  11.856  0.4395 -1.1093  0.8254
  833MOL0     H12439   2.117   6.236  11.519  0.7499  0.8478  2.6017
  833MOL0     H12440   2.163   6.232  11.287 -0.0567 -0.7275 -1.1085
  833MOL0     H12441   3.128   6.956  10.891  3.2809  0.8689  0.4752
  833MOL0     H12442   3.320   6.921  10.979 -2.9111  0.6614 -0.5042
  833MOL0     H12443   3.770   6.862  11.176 -2.5568  0.0252  1.6869
  833MOL0     H12444   3.983   6.726  11.263  1.2221 -1.0285 -0.3176
  833MOL0     H12445   3.886   6.345  11.436 -0.5935  0.1883 -1.6625
  833MOL0     H12446   3.971   6.278  11.292  3.6610 -3.1749  2.5001
  833MOL0     H12447   4.175   6.284  11.398 -1.9475 -1.6094 -2.6040
  833MOL0     H12448   4.062   6.222  11.519 -0.0836  0.7545  2.2168
  833MOL0     H12449   4.056   6.464  11.596  2.1272  2.9861  1.4885
  833MOL0     H12450   4.193   6.486  11.478 -1.0864  0.4377 -1.0334
  833MOL0     H12451   4.240   6.254  11.683  1.5650 -0.0127  1.1915
  833MOL0     H12452   4.235   6.422  11.753  1.1398  2.5661 -1.0526
  833MOL0     H12453   4.586   6.429  11.519  0.3599  0.0198  0.9451
  833MOL0     H12454   3.756   6.375  11.225 -0.0521  0.2842 -0.6769
  833MOL0     H12455   3.567   6.496  11.137 -1.7086  2.9918 -1.1984
  834MOL0     O12456   2.674   0.154  10.521 -0.5701  0.4698  0.0805
  834MOL0     C12457   2.785   0.189  10.503 -0.8965  0.4903  0.4734
  834MOL0     O12458   2.892   0.115  10.528 -0.2655  0.6338  0.9278
  834MOL0     C12459   2.890  -0.008  10.589 -0.1185  0.5065 -0.0598
  834MOL0     C12460   3.008  -0.083  10.574 -0.6301 -0.1123 -0.6886
  834MOL0     C12461   3.019  -0.219  10.627 -0.6521  0.3216  0.7202
  834MOL0     C12462   2.906  -0.262  10.701 -0.6262  0.7420  1.5727
  834MOL0     O12463   2.882  -0.397  10.743  0.0550  0.0803  0.2084
  834MOL0     C12464   2.865  -0.497  10.648  1.3824  0.1770 -0.2004
  834MOL0     C12465   2.874  -0.634  10.733 -0.8701  0.1586  0.4138
  834MOL0     C12466   2.837  -0.751  10.635 -0.3846 -0.2450 -0.1719
  834MOL0     C12467   2.835  -0.890  10.707  0.2847  0.1545  0.2595
  834MOL0     C12468   2.802  -1.000  10.601 -0.6295 -0.7311  0.1185
  834MOL0     C12469   2.807  -1.137  10.666  0.0533 -0.0426 -0.3353
  834MOL0     C12470   2.764  -1.239  10.558 -1.0007  0.2668  0.0260
  834MOL0     C12471   2.795  -1.379  10.608 -0.3967  1.0181 -0.6905
  834MOL0     N12472   2.936  -1.418  10.653 -0.1941  0.9337 -0.4330
  834MOL0     C12473   2.990  -1.415  10.776  0.5087  0.8308  0.7149
  834MOL0     C12474   3.124  -1.437  10.766  0.2794  0.2638 -0.6981
  834MOL0     C12475   3.237  -1.447  10.872  0.8475  0.2683 -0.0442
  834MOL0     C12476   3.378  -1.491  10.834  0.2983  0.2474  0.2477
  834MOL0     C12477   3.379  -1.640  10.798  0.3811  0.0535 -0.1205
  834MOL0     C12478   3.513  -1.675  10.748  0.3549 -0.0425  0.8926
  834MOL0     O12479   3.600  -1.631  10.851 -0.5513 -0.7111 -0.0689
  834MOL0     C12480   3.729  -1.616  10.830 -0.3744  0.6235  0.2982
  834MOL0     C12481   3.820  -1.640  10.930 -0.2466 -0.4436  0.3715
  834MOL0     C12482   3.964  -1.630  10.906  1.1783 -0.2425  0.7271
  834MOL0     C12483   4.045  -1.678  11.031  0.1267  0.1324  0.4117
  834MOL0     C12484   4.023  -1.601  10.783 -0.8663  0.1625 -0.3952
  834MOL0     C12485   4.167  -1.577  10.763  1.7048  0.1215 -0.7327
  834MOL0     O12486   4.195  -1.511  10.649 -0.3255 -0.1775  0.8135
  834MOL0     C12487   4.315  -1.462  10.615 -0.3107  0.6979 -0.4725
  834MOL0     C12488   4.398  -1.401  10.704 -1.2152 -0.6047  0.8446
  834MOL0     C12489   4.509  -1.321  10.667  0.1709  0.4343 -0.8025
  834MOL0     C12490   4.555  -1.330  10.539 -0.1590 -0.7594  0.7340
  834MOL0     O12491   4.635  -1.236  10.480 -0.1970  0.2649  0.1433
  834MOL0     C12492   4.627  -1.103  10.536 -0.4222 -0.1635 -0.3098
  834MOL0     C12493   4.766  -1.086  10.604  0.9592  0.8145 -0.9115
  834MOL0     C12494   4.779  -0.944  10.658 -0.2648 -0.3424 -0.5403
  834MOL0     C12495   4.808  -0.842  10.540 -0.5501  0.2604  0.2258
  834MOL0     C12496   4.852  -0.706  10.583 -0.5950 -0.8978  0.2750
  834MOL0     C12497   4.979  -0.708  10.666  0.1667 -0.0943 -0.1545
  834MOL0     C12498   5.048  -0.571  10.690  0.2960  0.0549 -0.9224
  834MOL0     C12499   4.966  -0.489  10.788  0.3859 -0.5671  0.3694
  834MOL0    Cl12500   5.063  -0.337  10.793 -0.1854 -0.3589  0.2562
  834MOL0     C12501   4.483  -1.409  10.448 -0.0432  0.9312 -0.8061
  834MOL0     C12502   4.359  -1.471  10.486 -0.1040  0.0086  0.3463
  834MOL0     O12503   4.247  -1.635  10.834  0.9103  0.1045  0.1614
  834MOL0     C12504   3.928  -1.586  10.679 -0.7143  0.4936 -0.9627
  834MOL0     C12505   3.787  -1.587  10.708  0.2674 -0.7366  0.3016
  834MOL0     N12506   3.151  -1.461  10.629  0.2046 -0.3251 -0.4812
  834MOL0     N12507   3.035  -1.449  10.567 -1.4088 -0.0278 -0.0738
  834MOL0     C12508   2.799  -0.192  10.729 -0.3850  0.0912 -1.0965
  834MOL0     C12509   2.785  -0.064  10.672 -0.2562 -0.0585  0.5318
  834MOL0     C12510   2.824   0.316  10.438  2.0076 -0.1928 -0.6653
  834MOL0     C12511   2.956   0.358  10.420 -0.2046 -0.7518 -0.0508
  834MOL0     C12512   3.000   0.468  10.350  0.4809  0.1963  0.3097
  834MOL0     C12513   2.900   0.528  10.280 -0.4931 -0.2268  0.3580
  834MOL0     O12514   2.927   0.645  10.214  0.1296 -0.3070  0.4502
  834MOL0     C12515   2.967   0.632  10.073 -0.3158 -0.3721  0.0366
  834MOL0     C12516   3.096   0.705  10.054  0.4973  0.3820 -0.4788
  834MOL0     C12517   3.213   0.680  10.152 -0.1073 -0.3162 -0.3103
  834MOL0     C12518   3.291   0.551  10.129  0.0161 -0.3600 -0.5290
  834MOL0     C12519   3.213   0.431  10.107 -0.2359 -1.1625 -0.2282
  834MOL0     C12520   3.145   0.333  10.107  0.4304 -0.9626 -0.2171
  834MOL0     C12521   2.766   0.495  10.301 -1.0703 -0.5293  0.3322
  834MOL0     C12522   2.728   0.393  10.381  0.3019 -0.0220  0.3607
  834MOL0     H12523   3.096  -0.039  10.526  1.7667 -2.6324  1.0684
  834MOL0     H12524   3.098  -0.291  10.605 -1.0817 -0.2384  0.9648
  834MOL0     H12525   2.769  -0.481  10.598  0.5583  1.6351  1.7273
  834MOL0     H12526   2.938  -0.486  10.568  2.9764  0.9563  1.2927
  834MOL0     H12527   2.970  -0.648  10.782 -0.0889  2.4457 -0.3651
  834MOL0     H12528   2.810  -0.632  10.821  0.0972  2.9703  1.1205
  834MOL0     H12529   2.734  -0.741  10.603 -0.0161  0.2540 -1.2254
  834MOL0     H12530   2.898  -0.747  10.544 -0.9485  0.9444 -0.5014
  834MOL0     H12531   2.930  -0.909  10.757 -0.1757  1.9729  1.9407
  834MOL0     H12532   2.762  -0.881  10.788  0.3601  0.4812  0.2922
  834MOL0     H12533   2.701  -0.980  10.567 -0.1864  0.3149 -0.6392
  834MOL0     H12534   2.883  -1.007  10.528  1.4722  0.0273  2.2270
  834MOL0     H12535   2.905  -1.152  10.713 -0.1659  0.8600  0.4626
  834MOL0     H12536   2.738  -1.142  10.751  0.6597  3.0594  0.4785
  834MOL0     H12537   2.657  -1.240  10.533 -1.5751 -2.6783  2.1116
  834MOL0     H12538   2.815  -1.231  10.462 -0.5138  3.0786  0.4086
  834MOL0     H12539   2.768  -1.437  10.519  1.7612  1.1597 -1.5102
  834MOL0     H12540   2.722  -1.411  10.683 -0.2249 -4.3584 -2.4172
  834MOL0     H12541   2.952  -1.388  10.874 -0.2355  3.6710 -0.2598
  834MOL0     H12542   3.253  -1.341  10.893 -0.9298  0.6270 -0.3425
  834MOL0     H12543   3.202  -1.485  10.969 -2.3986  6.1193  1.5582
  834MOL0     H12544   3.442  -1.462  10.918  0.4095 -0.6630  0.4856
  834MOL0     H12545   3.415  -1.434  10.748  3.9621 -2.5798 -0.3174
  834MOL0     H12546   3.319  -1.669  10.711  1.6111  1.7511 -1.6258
  834MOL0     H12547   3.362  -1.704  10.885  1.0099 -2.6709 -1.8758
  834MOL0     H12548   3.527  -1.618  10.656  0.8530  0.6298  1.3647
  834MOL0     H12549   3.527  -1.780  10.722  4.1384  0.7207 -0.7713
  834MOL0     H12550   3.785  -1.666  11.030  0.4239 -0.3544  0.6318
  834MOL0     H12551   4.071  -1.784  11.019  1.1567  0.4200  0.0106
  834MOL0     H12552   4.133  -1.618  11.054 -0.5130  1.0502  0.5190
  834MOL0     H12553   3.972  -1.683  11.113 -1.3913 -1.1796 -0.9393
  834MOL0     H12554   4.366  -1.398  10.807  2.0387  1.0874  1.9611
  834MOL0     H12555   4.553  -1.271  10.752  1.1776 -0.7500 -0.5893
  834MOL0     H12556   4.611  -1.024  10.461 -0.8729 -0.7413 -0.8292
  834MOL0     H12557   4.540  -1.099  10.601 -2.9837 -1.0634 -3.4001
  834MOL0     H12558   4.766  -1.156  10.687  0.5457  0.0925 -1.5128
  834MOL0     H12559   4.858  -1.105  10.547  0.8134 -1.5623 -0.4513
  834MOL0     H12560   4.862  -0.944  10.729 -0.4304  0.2467 -0.3446
  834MOL0     H12561   4.696  -0.907  10.719  0.4484 -0.4044  0.5142
  834MOL0     H12562   4.890  -0.877  10.478  0.0264 -0.0861  1.1611
  834MOL0     H12563   4.716  -0.832  10.482 -0.3221 -0.1953 -0.2191
  834MOL0     H12564   4.767  -0.662  10.637 -2.2069 -1.2692 -1.8550
  834MOL0     H12565   4.875  -0.649  10.493 -0.4250  0.6879  1.2895
  834MOL0     H12566   4.960  -0.751  10.765 -1.8499 -2.8755 -1.6057
  834MOL0     H12567   5.045  -0.777  10.614  1.6146  0.9766  0.2069
  834MOL0     H12568   5.062  -0.507  10.602 -1.0117  0.8309 -0.5929
  834MOL0     H12569   5.143  -0.582  10.744 -1.6203 -1.1684  2.4467
  834MOL0     H12570   4.964  -0.541  10.884 -0.0249 -1.5134 -0.1354
  834MOL0     H12571   4.862  -0.479  10.754  0.8953  0.8640 -0.8885
  834MOL0     H12572   4.499  -1.385  10.343 -1.0209 -1.9719 -1.7028
  834MOL0     H12573   4.299  -1.537  10.425 -0.0884  1.0596 -0.8589
  834MOL0     H12574   3.966  -1.568  10.579  2.5952 -2.5198 -0.4534
  834MOL0     H12575   3.714  -1.566  10.630  0.9252  0.4581 -0.0235
  834MOL0     H12576   2.713  -0.233  10.780 -1.5023  1.7470 -1.5677
  834MOL0     H12577   2.698  -0.003  10.694 -0.8532 -1.1371  1.2398
  834MOL0     H12578   3.030   0.298  10.472 -1.1283 -0.8890  1.1456
  834MOL0     H12579   3.108   0.476  10.343  0.9017 -4.0543 -0.7842
  834MOL0     H12580   2.980   0.529  10.036 -0.5079 -0.9062  1.4128
  834MOL0     H12581   2.883   0.666  10.013 -0.4816  1.4977  1.2489
  834MOL0     H12582   3.073   0.811  10.070 -1.7291  0.0092 -0.8655
  834MOL0     H12583   3.140   0.694   9.954  1.0881  2.2952 -0.4722
  834MOL0     H12584   3.185   0.673  10.258 -0.3217 -3.3059 -0.4608
  834MOL0     H12585   3.279   0.765  10.135  0.1000 -1.0360 -3.9203
  834MOL0     H12586   3.364   0.540  10.209  2.0574  0.0172 -2.2486
  834MOL0     H12587   3.351   0.572  10.040  0.7637 -0.8524 -0.1530
  834MOL0     H12588   3.091   0.241  10.106  1.7366 -1.7760 -2.4091
  834MOL0     H12589   2.693   0.553  10.246  0.2462  2.2672  1.3362
  834MOL0     H12590   2.622   0.371  10.389  0.1195 -1.3339 -3.4151
  835MOL0     O12591   4.172   0.172   4.767 -0.6019 -0.0090 -0.4517
  835MOL0     C12592   4.063   0.225   4.752 -0.3642  0.4313 -0.1963
  835MOL0     O12593   4.030   0.349   4.775  0.7591 -0.2052 -0.1157
  835MOL0     C12594   4.121   0.444   4.806  0.0513  0.3270  0.1753
  835MOL0     C12595   4.238   0.478   4.732  0.0656  0.5179 -0.5852
  835MOL0     C12596   4.292   0.602   4.747  0.0925 -0.2883  0.7696
  835MOL0     C12597   4.253   0.694   4.849  0.7839 -0.9115  0.2882
  835MOL0     O12598   4.305   0.822   4.859  0.5706  0.1412 -0.0824
  835MOL0     C12599   4.369   0.889   4.749  0.2110 -0.3598 -0.1500
  835MOL0     C12600   4.253   0.931   4.648  0.0452  0.6645 -0.7863
  835MOL0     C12601   4.313   1.016   4.538  0.2709 -0.4493  0.1842
  835MOL0     C12602   4.195   1.085   4.472  0.0040  0.1992 -0.8059
  835MOL0     C12603   4.238   1.170   4.350  0.2329 -0.2041 -0.2704
  835MOL0     C12604   4.253   1.089   4.218 -0.8588 -0.0427 -0.0019
  835MOL0     C12605   4.123   1.037   4.150  0.6728 -0.2331  0.6766
  835MOL0     C12606   4.077   0.901   4.192 -1.1363 -0.1765  0.0301
  835MOL0     N12607   4.174   0.799   4.192 -0.5838  0.1399  0.5258
  835MOL0     C12608   4.262   0.779   4.086 -0.1499  0.2502  0.7652
  835MOL0     C12609   4.358   0.695   4.137  0.1002  0.5776  0.3506
  835MOL0     C12610   4.491   0.674   4.077 -0.0535 -0.8881  0.4373
  835MOL0     C12611   4.601   0.766   4.142  0.8668  0.4979  0.2559
  835MOL0     C12612   4.620   0.898   4.053 -1.1172  0.8924 -0.3624
  835MOL0     C12613   4.708   0.872   3.929  0.7615 -0.4276 -0.5886
  835MOL0     O12614   4.831   0.806   3.973 -0.0921  0.3296  0.2862
  835MOL0     C12615   4.935   0.794   3.887  0.7484  1.1495 -0.1809
  835MOL0     C12616   5.055   0.762   3.950  0.8399 -0.9576 -0.1484
  835MOL0     C12617   5.167   0.767   3.864  0.5672 -0.9199  0.2752
  835MOL0     C12618   5.295   0.770   3.935  0.2224 -0.3337  0.4392
  835MOL0     C12619   5.155   0.777   3.722 -0.1537 -0.2854 -0.3857
  835MOL0     C12620   5.276   0.783   3.632  0.2459 -0.2821  0.2270
  835MOL0     O12621   5.376   0.833   3.690 -0.9176 -0.0579 -0.7230
  835MOL0     C12622   5.500   0.817   3.635 -0.6709 -0.7242 -0.1487
  835MOL0     C12623   5.586   0.705   3.650  0.6181  0.4134  0.2753
  835MOL0     C12624   5.722   0.722   3.615  0.3345 -0.2816 -0.4952
  835MOL0     C12625   5.767   0.840   3.549  0.7820 -0.1086  0.0737
  835MOL0     O12626   5.897   0.861   3.508  0.1233 -0.7518  0.5344
  835MOL0     C12627   5.995   0.756   3.505  0.4918  0.9686 -0.2794
  835MOL0     C12628   6.136   0.816   3.523 -0.3486 -0.0305 -0.6678
  835MOL0     C12629   6.167   0.839   3.672  0.3815  0.3015 -0.4728
  835MOL0     C12630   6.316   0.865   3.689 -0.2140 -0.4860 -0.1817
  835MOL0     C12631   6.352   0.888   3.839  0.7799  0.4082  0.4133
  835MOL0     C12632   6.354   0.752   3.924 -0.1640  0.0497  0.1469
  835MOL0     C12633   6.386   0.778   4.073 -0.0762  0.2481  0.4977
  835MOL0     C12634   6.527   0.833   4.099  0.1617  0.2874 -0.1237
  835MOL0    Cl12635   6.653   0.706   4.074 -0.3471  0.2698 -0.1535
  835MOL0     C12636   5.680   0.950   3.531 -0.6291  0.0177  0.8293
  835MOL0     C12637   5.551   0.935   3.573  0.0806  0.3131 -0.9092
  835MOL0     O12638   5.272   0.752   3.513  0.1787  0.1951 -1.3266
  835MOL0     C12639   5.025   0.797   3.675  0.2438 -0.2371  0.4649
  835MOL0     C12640   4.911   0.813   3.747 -0.5647  0.5772 -0.1751
  835MOL0     N12641   4.334   0.680   4.270 -0.3798  0.8002 -1.2082
  835MOL0     N12642   4.225   0.738   4.305 -0.2747  0.2183  0.8581
  835MOL0     C12643   4.138   0.656   4.922 -0.9506 -0.0945  0.8769
  835MOL0     C12644   4.068   0.543   4.894 -0.1479  0.8038  0.3034
  835MOL0     C12645   3.952   0.125   4.742 -0.2942 -0.0066  0.2678
  835MOL0     C12646   3.977   0.009   4.672 -0.2090 -0.3419  0.6549
  835MOL0     C12647   3.866  -0.077   4.645 -0.4276  0.5504  0.9513
  835MOL0     C12648   3.735  -0.040   4.682 -0.5780 -0.1010  0.3302
  835MOL0     O12649   3.641  -0.129   4.656  0.0336 -0.7006  0.0187
  835MOL0     C12650   3.501  -0.108   4.660  0.1531 -0.0654 -0.2017
  835MOL0     C12651   3.413  -0.229   4.632 -0.7299  0.0179  0.0337
  835MOL0     C12652   3.432  -0.292   4.489  0.3412  0.3143  1.2426
  835MOL0     C12653   3.388  -0.434   4.461  0.1014  0.1273 -0.1689
  835MOL0     C12654   3.238  -0.442   4.479 -0.5893  0.2351 -0.7852
  835MOL0     C12655   3.121  -0.471   4.475 -0.3541 -0.4043  0.2021
  835MOL0     C12656   3.715   0.082   4.753 -0.7508  0.1689 -0.2922
  835MOL0     C12657   3.826   0.163   4.786 -0.3335 -0.5474  0.5307
  835MOL0     H12658   4.281   0.410   4.659  0.1994 -0.2547  0.2027
  835MOL0     H12659   4.375   0.627   4.681 -1.2267  1.2842 -0.3876
  835MOL0     H12660   4.417   0.983   4.777  0.0665  0.5864 -2.7546
  835MOL0     H12661   4.441   0.823   4.700  1.4309  2.4726 -2.4349
  835MOL0     H12662   4.214   0.836   4.610 -0.7955 -0.1007  1.7699
  835MOL0     H12663   4.170   0.979   4.702  1.0654 -1.6105  3.1737
  835MOL0     H12664   4.395   1.085   4.562  2.0526 -2.3195 -0.1698
  835MOL0     H12665   4.360   0.941   4.474  1.6904  0.8115 -0.3141
  835MOL0     H12666   4.109   1.019   4.453 -0.9226  1.1178  0.0966
  835MOL0     H12667   4.156   1.148   4.552  1.4441 -0.9787  0.8740
  835MOL0     H12668   4.159   1.240   4.323 -0.0062  0.2226  1.4705
  835MOL0     H12669   4.328   1.223   4.381  1.5624 -1.7403 -1.3031
  835MOL0     H12670   4.301   1.155   4.145  0.2955 -1.1791 -0.3085
  835MOL0     H12671   4.324   1.008   4.235 -0.2443  0.3682 -0.5870
  835MOL0     H12672   4.042   1.108   4.166  1.5331  0.6943  1.0508
  835MOL0     H12673   4.152   1.043   4.045 -2.1514 -0.8152 -0.2016
  835MOL0     H12674   4.006   0.872   4.114 -2.2727  2.5305 -0.0762
  835MOL0     H12675   4.030   0.901   4.291  1.4621 -3.0413  1.4294
  835MOL0     H12676   4.273   0.820   3.987  0.4219 -2.4838 -0.3955
  835MOL0     H12677   4.533   0.574   4.096 -0.1059 -0.9202  0.3850
  835MOL0     H12678   4.478   0.682   3.969  2.3491  0.1652  0.1713
  835MOL0     H12679   4.692   0.707   4.160 -1.0358 -2.2785  1.3827
  835MOL0     H12680   4.569   0.805   4.239 -0.0542  1.4013 -0.3869
  835MOL0     H12681   4.680   0.969   4.110 -1.6374  2.9252 -2.1860
  835MOL0     H12682   4.522   0.941   4.030 -0.8989  0.9999 -1.1253
  835MOL0     H12683   4.730   0.974   3.896 -2.3659  0.6180  0.2484
  835MOL0     H12684   4.643   0.825   3.855 -0.1336  3.5535 -2.5938
  835MOL0     H12685   5.061   0.762   4.059  0.7458  2.3159 -0.0406
  835MOL0     H12686   5.266   0.751   4.039 -0.9960  1.8739  0.5519
  835MOL0     H12687   5.367   0.698   3.895 -3.5493 -3.5904 -1.1812
  835MOL0     H12688   5.326   0.874   3.941 -1.3526  0.1105  1.6048
  835MOL0     H12689   5.552   0.617   3.704 -0.5331  1.9005  2.0858
  835MOL0     H12690   5.785   0.641   3.650  1.0013  0.2994 -0.3283
  835MOL0     H12691   5.975   0.691   3.591 -0.0745  2.8641  1.0991
  835MOL0     H12692   5.988   0.694   3.415  0.9485  1.1143 -0.4182
  835MOL0     H12693   6.210   0.745   3.486 -0.7710 -1.1204  0.5306
  835MOL0     H12694   6.150   0.910   3.467  0.8509 -1.5048 -3.0204
  835MOL0     H12695   6.141   0.754   3.736  0.1900  2.7695  3.0323
  835MOL0     H12696   6.105   0.919   3.713 -1.6122 -2.0080  1.3187
  835MOL0     H12697   6.378   0.789   3.641  1.8959  1.2867 -0.4375
  835MOL0     H12698   6.342   0.955   3.634  0.7696 -1.1638 -0.8564
  835MOL0     H12699   6.278   0.957   3.881  0.5362  0.4296 -0.0390
  835MOL0     H12700   6.453   0.928   3.827  0.3622  1.4563  0.2695
  835MOL0     H12701   6.252   0.713   3.912 -0.2304  0.2155  0.1865
  835MOL0     H12702   6.419   0.677   3.878 -3.2421 -1.4445 -2.1944
  835MOL0     H12703   6.373   0.681   4.122 -1.0342 -0.8260 -1.7359
  835MOL0     H12704   6.311   0.837   4.124 -0.6309 -1.8347  2.2512
  835MOL0     H12705   6.542   0.874   4.199 -1.3331 -0.3560  0.3960
  835MOL0     H12706   6.543   0.922   4.037  1.9176 -1.0477 -1.7283
  835MOL0     H12707   5.711   1.042   3.483 -2.3361 -0.3181 -0.9948
  835MOL0     H12708   5.482   1.018   3.562 -1.6118 -1.1076 -1.5119
  835MOL0     H12709   5.008   0.809   3.569  0.2641  0.1964  0.5097
  835MOL0     H12710   4.810   0.826   3.710 -0.2585  0.8935 -0.9353
  835MOL0     H12711   4.120   0.733   4.997  1.2571 -0.1044  1.4910
  835MOL0     H12712   3.969   0.533   4.937 -0.1423  2.5236  0.7967
  835MOL0     H12713   4.067  -0.018   4.618 -0.8617 -1.5573  0.1404
  835MOL0     H12714   3.867  -0.167   4.583  1.0862 -0.7174  2.6966
  835MOL0     H12715   3.489  -0.072   4.763 -0.4051  3.5153 -1.3682
  835MOL0     H12716   3.465  -0.023   4.600 -0.2585  1.9472  2.6821
  835MOL0     H12717   3.310  -0.196   4.647 -0.3512  1.1709  0.1465
  835MOL0     H12718   3.430  -0.305   4.709 -1.6360  0.8954  1.1392
  835MOL0     H12719   3.537  -0.280   4.461  0.1152 -1.1392 -0.4075
  835MOL0     H12720   3.373  -0.233   4.419  1.2579 -2.9771 -2.6904
  835MOL0     H12721   3.444  -0.507   4.519  3.7659  2.6182 -0.2358
  835MOL0     H12722   3.426  -0.444   4.359  1.5071  0.5718  0.2959
  835MOL0     H12723   3.020  -0.505   4.477 -0.3076 -0.5676 -0.1316
  835MOL0     H12724   3.620   0.118   4.791  1.2359 -0.3697  6.3749
  835MOL0     H12725   3.805   0.255   4.841 -0.3854  0.4564 -1.0916
  836MOL0     O12726   6.790   7.246  11.098 -0.2600  0.2042 -0.8481
  836MOL0     C12727   6.702   7.338  11.088 -0.1575 -0.4821  0.4437
  836MOL0     O12728   6.715   7.460  11.133  0.2886  0.1640  0.2584
  836MOL0     C12729   6.834   7.515  11.157 -0.3594  0.1645  0.4631
  836MOL0     C12730   6.924   7.533  11.055  0.6794  0.4130  0.3874
  836MOL0     C12731   7.048   7.581  11.081  0.3103  0.2910  0.4216
  836MOL0     C12732   7.091   7.606  11.211 -0.1946  0.4826  0.6899
  836MOL0     O12733   7.223   7.627  11.223 -0.1449  0.0436  0.8122
  836MOL0     C12734   7.257   7.769  11.212 -1.3624 -0.9641  0.9369
  836MOL0     C12735   7.411   7.790  11.233 -0.0842  0.2186 -0.1827
  836MOL0     C12736   7.458   7.934  11.268 -0.7646  0.5307  0.9124
  836MOL0     C12737   7.609   7.957  11.248  0.3566  0.9643  0.4224
  836MOL0     C12738   7.653   8.091  11.267  0.9241 -0.4392  1.3009
  836MOL0     C12739   7.807   8.099  11.243  1.2012  0.1930  0.3334
  836MOL0     C12740   7.880   8.221  11.306  0.5915  0.3224  0.2527
  836MOL0     C12741   7.862   8.346  11.213 -0.5129 -0.7047 -0.3389
  836MOL0     N12742   7.894   8.475  11.280  0.0534 -0.0236 -0.1980
  836MOL0     C12743   7.849   8.599  11.235 -0.5140 -0.8057 -0.0261
  836MOL0     C12744   7.904   8.684  11.322  0.9486  0.3071 -0.5141
  836MOL0     C12745   7.904   8.832  11.311 -0.9121 -0.1645 -0.0020
  836MOL0     C12746   7.977   8.890  11.192 -0.2872  0.4778 -0.2006
  836MOL0     C12747   8.127   8.851  11.205  0.2729 -0.5167 -0.4806
  836MOL0     C12748   8.201   8.936  11.092 -0.7257  0.8785 -0.2012
  836MOL0     O12749   8.343   8.942  11.101 -0.5397  0.4064 -0.0531
  836MOL0     C12750   8.413   9.015  11.011 -0.6083 -0.0877 -0.1719
  836MOL0     C12751   8.551   9.016  11.030 -0.0986  0.1774  0.1816
  836MOL0     C12752   8.634   9.079  10.931  0.0925 -0.6552 -0.6146
  836MOL0     C12753   8.778   9.072  10.955  0.2997 -1.2218  0.2108
  836MOL0     C12754   8.583   9.137  10.812  0.8409 -0.5740 -0.0922
  836MOL0     C12755   8.660   9.178  10.692  0.5314 -0.1922 -0.4843
  836MOL0     O12756   8.595   9.251  10.601  0.3153 -0.3071  0.1184
  836MOL0     C12757   8.636   9.309  10.485 -0.3884 -0.5981 -0.9752
  836MOL0     C12758   8.547   9.382  10.411  0.0315 -0.3062 -0.1498
  836MOL0     C12759   8.575   9.420  10.281  0.1483 -0.9168 -0.6567
  836MOL0     C12760   8.696   9.381  10.222 -0.7695 -0.1098  0.1827
  836MOL0     O12761   8.746   9.418  10.098  0.6637 -0.6550 -0.4386
  836MOL0     C12762   8.667   9.488  10.010  0.9899 -0.0302  0.5095
  836MOL0     C12763   8.732   9.515   9.872 -0.4769 -0.0239 -0.4419
  836MOL0     C12764   8.637   9.563   9.761 -0.0058 -0.6067 -1.1205
  836MOL0     C12765   8.723   9.632   9.652  0.1065  1.0951 -1.0140
  836MOL0     C12766   8.643   9.660   9.531  0.1396  0.0185 -0.2396
  836MOL0     C12767   8.522   9.757   9.548  0.0051  0.0200  1.0040
  836MOL0     C12768   8.433   9.775   9.420 -0.8765 -0.9584 -0.2128
  836MOL0     C12769   8.336   9.893   9.447 -0.6617  0.0263 -0.2521
  836MOL0    Cl12770   8.441  10.035   9.440  0.1708 -0.2893 -0.1181
  836MOL0     C12771   8.799   9.327  10.306 -0.2062  0.6001 -0.0424
  836MOL0     C12772   8.773   9.294  10.437 -0.9367 -0.1456 -0.3367
  836MOL0     O12773   8.780   9.148  10.692  0.1435 -0.0747  0.0502
  836MOL0     C12774   8.439   9.141  10.799  0.2684 -0.0143  0.7921
  836MOL0     C12775   8.361   9.082  10.897 -0.5164  0.3706 -0.6901
  836MOL0     N12776   7.969   8.611  11.421  0.4764  0.3210 -0.2337
  836MOL0     N12777   7.969   8.482  11.391  0.2042 -0.4619  0.1234
  836MOL0     C12778   7.006   7.569  11.317  0.2736 -0.8525 -0.3343
  836MOL0     C12779   6.873   7.534  11.291 -0.5005 -0.2075  0.5283
  836MOL0     C12780   6.574   7.290  11.032 -1.0009 -0.2141  0.8374
  836MOL0     C12781   6.468   7.380  11.019  0.4964 -1.3505 -0.3946
  836MOL0     C12782   6.344   7.345  10.980 -0.0472 -0.0637 -0.0589
  836MOL0     C12783   6.324   7.211  10.933 -1.2705  0.2327 -0.5906
  836MOL0     O12784   6.206   7.169  10.891  0.5201  0.0212 -0.2467
  836MOL0     C12785   6.105   7.266  10.858  0.6771  0.7203  0.6174
  836MOL0     C12786   5.975   7.190  10.812 -0.5103 -0.7181  0.4421
  836MOL0     C12787   5.912   7.134  10.938  0.7490  0.4215 -0.4395
  836MOL0     C12788   5.774   7.069  10.911  0.6764 -0.6434 -0.2851
  836MOL0     C12789   5.675   7.139  10.833 -0.8755  0.0853 -0.0978
  836MOL0     C12790   5.610   7.210  10.762  0.4204  1.0440  0.3135
  836MOL0     C12791   6.433   7.122  10.931 -0.0494 -0.4787  0.0279
  836MOL0     C12792   6.559   7.156  10.984  0.5776  0.4388  0.0079
  836MOL0     H12793   6.892   7.503  10.956  0.0199  4.1910 -0.7317
  836MOL0     H12794   7.113   7.608  10.998 -1.0614  0.9526 -0.4914
  836MOL0     H12795   7.228   7.807  11.114 -0.8655 -0.3923  1.0048
  836MOL0     H12796   7.193   7.822  11.284 -1.3282 -0.3589  0.5266
  836MOL0     H12797   7.451   7.714  11.299 -1.3858 -2.0711 -1.8918
  836MOL0     H12798   7.458   7.773  11.136 -0.3500  0.7662 -0.4153
  836MOL0     H12799   7.403   8.006  11.207  1.2342  1.1242 -0.2637
  836MOL0     H12800   7.439   7.945  11.375 -0.5506  0.7342  0.9303
  836MOL0     H12801   7.663   7.891  11.317 -0.0864 -1.2308 -1.2262
  836MOL0     H12802   7.642   7.930  11.147 -1.7584  2.8712 -0.8508
  836MOL0     H12803   7.593   8.153  11.200 -1.0278 -2.7058  0.8125
  836MOL0     H12804   7.642   8.124  11.371  1.6552  2.6911  0.4871
  836MOL0     H12805   7.838   8.004  11.288 -3.1502 -1.6254 -0.0386
  836MOL0     H12806   7.816   8.084  11.135 -3.3937  0.0228 -0.2280
  836MOL0     H12807   7.847   8.229  11.409  3.2843 -0.5008  1.2695
  836MOL0     H12808   7.986   8.193  11.299  0.0008 -1.7694 -2.9886
  836MOL0     H12809   7.754   8.353  11.194 -0.7041 -0.7400  0.6847
  836MOL0     H12810   7.913   8.321  11.119 -1.2130 -0.6987 -0.7283
  836MOL0     H12811   7.803   8.621  11.139  0.2817  0.8356 -0.0603
  836MOL0     H12812   7.800   8.864  11.307 -0.7478  1.4559  4.1861
  836MOL0     H12813   7.943   8.866  11.407 -0.6287 -0.5901  0.0372
  836MOL0     H12814   7.973   9.000  11.197  0.3667  0.5792 -1.4663
  836MOL0     H12815   7.935   8.860  11.096  2.6187  1.8695 -2.0457
  836MOL0     H12816   8.143   8.745  11.182 -0.0823 -0.4463 -1.1021
  836MOL0     H12817   8.157   8.892  11.301 -0.5114  2.5690 -1.4339
  836MOL0     H12818   8.158   9.036  11.083 -1.6670  0.3347 -2.0035
  836MOL0     H12819   8.177   8.877  11.004  2.1115 -1.4853  0.4470
  836MOL0     H12820   8.589   8.966  11.119 -0.5577  2.3620  1.6999
  836MOL0     H12821   8.812   9.066  11.059  0.0404 -0.8057  0.3204
  836MOL0     H12822   8.823   8.981  10.914  2.1381  0.0100 -0.6473
  836MOL0     H12823   8.826   9.164  10.921 -2.0776 -0.8711 -2.6129
  836MOL0     H12824   8.444   9.378  10.445  0.7508  0.7359  2.4369
  836MOL0     H12825   8.500   9.483  10.234  2.0461  2.4163  0.4685
  836MOL0     H12826   8.575   9.431  10.001  2.5433 -2.8458  1.2774
  836MOL0     H12827   8.647   9.587  10.051  2.5400  0.9676 -1.0029
  836MOL0     H12828   8.804   9.595   9.889 -0.6328 -0.2233  1.4091
  836MOL0     H12829   8.783   9.422   9.844 -3.7435 -2.4557  1.0019
  836MOL0     H12830   8.574   9.643   9.800 -0.9693 -2.4631  1.3664
  836MOL0     H12831   8.572   9.490   9.712 -0.7733  1.1356 -2.8173
  836MOL0     H12832   8.754   9.733   9.683 -0.1101  1.4243 -1.8520
  836MOL0     H12833   8.816   9.577   9.633 -0.7840 -1.2155  0.8186
  836MOL0     H12834   8.593   9.568   9.498 -0.8877 -0.5129  2.5667
  836MOL0     H12835   8.708   9.689   9.448 -0.2982 -1.2330 -1.0446
  836MOL0     H12836   8.446   9.712   9.613 -4.4661  1.8204 -2.3909
  836MOL0     H12837   8.555   9.857   9.576 -1.8793  2.6479 -4.5519
  836MOL0     H12838   8.387   9.682   9.388 -2.3256  0.0107 -1.0789
  836MOL0     H12839   8.487   9.796   9.327 -0.8559  1.7532  0.3041
  836MOL0     H12840   8.294   9.889   9.548 -0.0257  1.4360  0.0913
  836MOL0     H12841   8.259   9.903   9.370 -4.1424  0.3701  2.9644
  836MOL0     H12842   8.893   9.306  10.256  1.1883  1.6941  1.9896
  836MOL0     H12843   8.854   9.252  10.495 -0.4699 -0.1133 -0.9555
  836MOL0     H12844   8.398   9.186  10.709 -1.5459 -2.5644  0.2320
  836MOL0     H12845   8.254   9.086  10.878 -0.9210  3.7761  1.4231
  836MOL0     H12846   7.026   7.579  11.423  0.5602 -0.0962 -0.4488
  836MOL0     H12847   6.816   7.510  11.380  2.4834  0.4192  2.7644
  836MOL0     H12848   6.490   7.485  11.038 -2.2642 -0.6765 -0.3474
  836MOL0     H12849   6.268   7.422  10.983  0.5097  0.5223 -0.8195
  836MOL0     H12850   6.072   7.338  10.934 -1.1114  1.0098 -0.3746
  836MOL0     H12851   6.142   7.331  10.778  1.9132 -1.5298 -0.7465
  836MOL0     H12852   6.004   7.126  10.728 -0.5148 -0.1643  0.0114
  836MOL0     H12853   5.902   7.265  10.779 -1.3279 -1.3644  0.7343
  836MOL0     H12854   5.884   7.217  11.003  0.1668  1.0519 -1.4701
  836MOL0     H12855   5.981   7.066  10.988 -1.2617 -1.4799 -0.0684
  836MOL0     H12856   5.727   7.069  11.009 -3.1520 -0.3290 -1.9589
  836MOL0     H12857   5.803   6.968  10.879  2.1624 -0.5305  0.6200
  836MOL0     H12858   5.562   7.256  10.677 -3.6011 -0.0356  1.7964
  836MOL0     H12859   6.426   7.020  10.893  1.3778 -0.3254 -0.7256
  836MOL0     H12860   6.649   7.095  10.974  0.2396 -0.1083  0.2687
  837MOL0     O12861   8.909   9.942   5.042 -0.2107  0.6196 -0.3521
  837MOL0     C12862   8.838   9.913   4.951  0.4427 -0.4616 -0.2879
  837MOL0     O12863   8.841   9.796   4.881 -0.3589 -0.4665 -0.4794
  837MOL0     C12864   8.918   9.687   4.919 -0.4016  1.1703 -0.3920
  837MOL0     C12865   8.998   9.668   5.038  0.6294  0.0734 -0.6857
  837MOL0     C12866   9.080   9.554   5.050  0.1957 -0.1382  0.1083
  837MOL0     C12867   9.088   9.462   4.947 -0.2239  0.6572  0.0065
  837MOL0     O12868   9.175   9.365   4.958 -0.1571  0.3993 -0.1668
  837MOL0     C12869   9.287   9.378   4.859 -0.6650  0.2468 -0.8346
  837MOL0     C12870   9.364   9.250   4.842 -0.0532  0.5258  0.5413
  837MOL0     C12871   9.432   9.214   4.973  0.7971 -0.3513  0.0657
  837MOL0     C12872   9.565   9.144   4.942 -0.1134  0.4668 -0.4888
  837MOL0     C12873   9.623   9.092   5.076 -0.3252 -1.0001 -0.4906
  837MOL0     C12874   9.659   9.201   5.184  0.4350 -0.0008 -0.1545
  837MOL0     C12875   9.758   9.165   5.301 -1.5230 -0.8413 -0.1231
  837MOL0     C12876   9.715   9.041   5.378  0.1195 -0.5126  0.3328
  837MOL0     N12877   9.797   9.001   5.486  0.6998  0.8471 -0.0669
  837MOL0     C12878   9.750   8.977   5.618 -0.6545 -0.2882  0.7460
  837MOL0     C12879   9.856   8.916   5.669  0.1083 -0.3672  0.2161
  837MOL0     C12880   9.877   8.877   5.807  0.1182 -0.3051 -0.1060
  837MOL0     C12881  10.015   8.927   5.864 -0.8565 -0.3666  0.3381
  837MOL0     C12882  10.020   8.973   6.014  0.2666  1.1018  0.0206
  837MOL0     C12883  10.164   8.994   6.052  0.0815  0.6013  0.1344
  837MOL0     O12884  10.183   8.970   6.191  0.6653 -0.2075 -0.6167
  837MOL0     C12885  10.311   9.013   6.245 -0.0667  1.6799 -0.2035
  837MOL0     C12886  10.290   9.104   6.350  0.1291 -0.4891  0.9871
  837MOL0     C12887  10.403   9.181   6.393 -0.3164 -0.1218  0.1470
  837MOL0     C12888  10.374   9.281   6.496 -0.1468 -0.0555  0.8482
  837MOL0     C12889  10.534   9.154   6.348  0.2733 -1.2163  0.4629
  837MOL0     C12890  10.663   9.209   6.402  0.2560  0.5205 -0.4476
  837MOL0     O12891  10.780   9.158   6.358 -0.5890 -0.6584 -0.5729
  837MOL0     C12892  10.892   9.219   6.409 -1.2348  0.0775 -0.3503
  837MOL0     C12893  10.984   9.278   6.315  0.4313 -0.0483  1.1579
  837MOL0     C12894  11.099   9.341   6.362 -0.2600 -0.3924  0.2632
  837MOL0     C12895  11.138   9.341   6.497 -1.0368  0.5646 -0.3810
  837MOL0     O12896  11.255   9.403   6.530 -0.7137 -0.8761  0.0010
  837MOL0     C12897  11.319   9.358   6.639 -0.2458  0.2799 -0.4794
  837MOL0     C12898  11.288   9.401   6.791 -0.2663 -0.5643  0.8725
  837MOL0     C12899  11.299   9.554   6.802 -0.0803  0.6184  0.2680
  837MOL0     C12900  11.302   9.594   6.947 -0.3294 -0.3329  0.3658
  837MOL0     C12901  11.299   9.748   6.967 -1.2302  1.0483 -1.1282
  837MOL0     C12902  11.439   9.816   6.944 -1.0295 -0.3544 -0.5486
  837MOL0     C12903  11.422   9.973   6.962 -0.4020 -1.0577 -0.8534
  837MOL0     C12904  11.526  10.046   6.877 -0.5479 -0.2616  0.0480
  837MOL0    Cl12905  11.695  10.004   6.923 -0.1756  0.1332  0.5422
  837MOL0     C12906  11.057   9.276   6.589  0.2597 -0.1350  0.5353
  837MOL0     C12907  10.936   9.208   6.551  0.1158  0.3962  0.6215
  837MOL0     O12908  10.652   9.315   6.474 -0.6265  0.6958  0.5167
  837MOL0     C12909  10.548   9.052   6.251 -0.5080 -0.0236 -0.3842
  837MOL0     C12910  10.435   8.988   6.195  0.8555  0.8555  0.1220
  837MOL0     N12911   9.962   8.908   5.578  0.6159  0.3951 -0.0160
  837MOL0     N12912   9.928   8.968   5.470 -0.0695  0.1098 -0.3714
  837MOL0     C12913   8.997   9.469   4.843 -0.2230  0.1854 -0.3649
  837MOL0     C12914   8.918   9.581   4.824 -1.2830 -0.7919  0.8181
  837MOL0     C12915   8.738  10.015   4.916  0.0993 -0.1541  1.1202
  837MOL0     C12916   8.730  10.140   4.965 -0.3049 -1.1158  0.0442
  837MOL0     C12917   8.621  10.222   4.939 -0.2095  0.2332  0.1310
  837MOL0     C12918   8.540  10.187   4.836  1.4411 -0.4487  0.3543
  837MOL0     O12919   8.435  10.281   4.818  0.3064 -0.1396 -0.1725
  837MOL0     C12920   8.312  10.222   4.777  0.4773 -0.0045 -1.7249
  837MOL0     C12921   8.204  10.319   4.814 -0.3424  0.6130  0.4317
  837MOL0     C12922   8.069  10.271   4.752 -0.7609 -0.1716  1.1170
  837MOL0     C12923   8.006  10.140   4.811  0.0453 -0.5011  0.2935
  837MOL0     C12924   7.974  10.164   4.947 -0.0038  0.1730  0.3685
  837MOL0     C12925   7.969  10.201   5.057 -0.2623  0.1599  1.0251
  837MOL0     C12926   8.548  10.074   4.765  0.2872  0.1589 -0.1218
  837MOL0     C12927   8.648   9.983   4.804 -0.3842  0.5409  0.9924
  837MOL0     H12928   9.003   9.732   5.126  2.0051 -1.4040  0.3618
  837MOL0     H12929   9.132   9.538   5.144 -1.7458  1.5497  1.5686
  837MOL0     H12930   9.246   9.404   4.760 -1.7989 -2.8560 -1.3012
  837MOL0     H12931   9.346   9.459   4.902 -2.1771 -0.0030  1.9173
  837MOL0     H12932   9.297   9.171   4.806 -0.1053  1.5319 -1.7651
  837MOL0     H12933   9.432   9.274   4.760 -1.5015  1.5438 -0.4117
  837MOL0     H12934   9.451   9.300   5.038  3.4479  0.4883 -1.6730
  837MOL0     H12935   9.368   9.140   5.023  0.6361  0.4972  1.1577
  837MOL0     H12936   9.542   9.059   4.878 -0.1080 -0.0373  0.1595
  837MOL0     H12937   9.641   9.212   4.901  1.5096  0.4710  2.2572
  837MOL0     H12938   9.542   9.031   5.118 -0.7265 -0.9105 -1.1323
  837MOL0     H12939   9.707   9.028   5.048 -0.5390 -1.4313 -0.1719
  837MOL0     H12940   9.710   9.285   5.136 -0.9268  1.2115  0.4274
  837MOL0     H12941   9.563   9.231   5.226 -0.8480 -3.6469 -0.1688
  837MOL0     H12942   9.858   9.163   5.256 -1.4610  1.5650 -0.2105
  837MOL0     H12943   9.759   9.249   5.371 -0.1396 -1.7746  1.0257
  837MOL0     H12944   9.709   8.964   5.301  2.8085  1.1780 -1.7825
  837MOL0     H12945   9.614   9.055   5.418 -0.2337  1.2085 -1.0134
  837MOL0     H12946   9.651   8.977   5.663 -0.4243 -1.5778  1.3012
  837MOL0     H12947   9.802   8.927   5.869  2.1181  1.1071  1.2870
  837MOL0     H12948   9.864   8.768   5.811 -1.7810 -0.1157 -0.2981
  837MOL0     H12949  10.041   9.018   5.808  0.2149 -2.5497 -3.0242
  837MOL0     H12950  10.098   8.858   5.847  1.8128  2.7533 -0.5196
  837MOL0     H12951   9.970   8.901   6.079 -0.3569  0.7891 -0.7770
  837MOL0     H12952   9.970   9.069   6.030 -0.3590  0.6431  0.8962
  837MOL0     H12953  10.197   9.097   6.034  2.8614 -0.4969 -1.7697
  837MOL0     H12954  10.223   8.921   5.997 -2.2297 -2.5969  1.6069
  837MOL0     H12955  10.183   9.122   6.353  0.0198 -1.0094  0.4891
  837MOL0     H12956  10.439   9.247   6.577  1.6424  0.3256 -0.3696
  837MOL0     H12957  10.404   9.382   6.465 -0.6705 -0.3454 -0.6769
  837MOL0     H12958  10.271   9.267   6.529  0.1316 -0.6445  1.4867
  837MOL0     H12959  10.940   9.275   6.216 -2.5636  0.1255  2.3770
  837MOL0     H12960  11.166   9.392   6.294  2.1408 -2.0444  1.2786
  837MOL0     H12961  11.313   9.249   6.641  2.6935  0.0416  0.3179
  837MOL0     H12962  11.425   9.380   6.619  0.2712 -0.8121  0.8508
  837MOL0     H12963  11.190   9.365   6.822 -1.1940 -1.7878 -2.9733
  837MOL0     H12964  11.363   9.363   6.861 -0.7806  0.2347  1.8880
  837MOL0     H12965  11.207   9.588   6.753 -0.7738 -1.4962 -0.0136
  837MOL0     H12966  11.380   9.587   6.735  2.8610  1.0384  3.7500
  837MOL0     H12967  11.209   9.551   6.985 -1.3053 -0.3002 -1.7889
  837MOL0     H12968  11.386   9.552   7.004 -0.8685 -1.0430  0.6475
  837MOL0     H12969  11.270   9.752   7.072  1.7899 -0.5051 -0.0958
  837MOL0     H12970  11.217   9.776   6.900 -2.3947  3.7015  1.2384
  837MOL0     H12971  11.511   9.780   7.019 -0.3300  0.9392 -0.5690
  837MOL0     H12972  11.478   9.791   6.845  0.7579 -0.6162  0.1813
  837MOL0     H12973  11.436   9.999   7.067 -1.2480  0.9316 -1.1856
  837MOL0     H12974  11.319  10.007   6.951  0.1692  2.6307  2.7992
  837MOL0     H12975  11.502  10.153   6.884 -1.0422 -0.3765  0.1008
  837MOL0     H12976  11.526  10.016   6.772 -1.8199  1.4731 -0.4967
  837MOL0     H12977  11.087   9.264   6.693  1.3666  2.1816  0.5424
  837MOL0     H12978  10.872   9.155   6.621 -0.9556  0.2951 -0.4060
  837MOL0     H12979  10.648   9.036   6.212 -1.1722  1.4623 -2.9150
  837MOL0     H12980  10.444   8.909   6.122  4.3520  1.1912  0.0013
  837MOL0     H12981   8.994   9.381   4.779  1.5633 -0.7119  0.6808
  837MOL0     H12982   8.860   9.579   4.732 -1.3507 -1.7772  0.8654
  837MOL0     H12983   8.806  10.172   5.036 -0.1474 -1.9458  0.2556
  837MOL0     H12984   8.612  10.320   4.983 -0.0449  0.4329 -0.2723
  837MOL0     H12985   8.316  10.197   4.670  4.3144  0.3303 -1.8117
  837MOL0     H12986   8.303  10.130   4.835 -1.0475  1.1594 -0.0289
  837MOL0     H12987   8.226  10.417   4.771 -1.3818 -0.8471 -3.9228
  837MOL0     H12988   8.211  10.326   4.923  3.6171 -0.9560  0.4628
  837MOL0     H12989   8.092  10.235   4.651  0.0612 -2.0522  1.9327
  837MOL0     H12990   7.998  10.353   4.742  1.0619  1.5112  1.5198
  837MOL0     H12991   8.072  10.054   4.796  0.7037 -0.9092  4.3671
  837MOL0     H12992   7.914  10.118   4.756 -0.4174 -0.8077  1.1789
  837MOL0     H12993   7.969  10.246   5.154  2.0564 -1.0213  1.6500
  837MOL0     H12994   8.490  10.041   4.680  0.5304 -0.8253  0.0780
  837MOL0     H12995   8.649   9.888   4.751  0.7869  1.0959 -0.0293
  838MOL0     O12996   3.308   2.813   2.674 -0.2277 -0.2506 -0.2292
  838MOL0     C12997   3.343   2.931   2.699 -0.5927 -0.2162 -1.1350
  838MOL0     O12998   3.414   3.018   2.613 -0.2074  0.6743  0.6305
  838MOL0     C12999   3.479   2.956   2.508  0.1961  0.1242  0.1676
  838MOL0     C13000   3.420   2.965   2.378  0.4061 -0.8284 -0.3826
  838MOL0     C13001   3.487   2.911   2.270  0.0062  0.0401 -0.1278
  838MOL0     C13002   3.606   2.841   2.281  0.1522  0.7003 -0.8008
  838MOL0     O13003   3.664   2.784   2.169  0.0565 -0.1204 -0.1398
  838MOL0     C13004   3.807   2.757   2.162 -0.2773 -1.1351 -0.6487
  838MOL0     C13005   3.835   2.642   2.067  0.0806  0.2539  0.0137
  838MOL0     C13006   3.845   2.682   1.916  0.4897  0.9901  0.0538
  838MOL0     C13007   3.838   2.543   1.834  0.0108  0.3624 -1.5184
  838MOL0     C13008   3.807   2.565   1.685 -0.5978 -0.3259 -0.2608
  838MOL0     C13009   3.915   2.639   1.615 -0.5798 -0.8638  0.2274
  838MOL0     C13010   4.021   2.537   1.575  0.1165  0.0966  0.4621
  838MOL0     C13011   4.143   2.604   1.518  0.8316 -0.1488  0.1652
  838MOL0     N13012   4.107   2.674   1.386 -0.0445 -0.1107 -0.5371
  838MOL0     C13013   4.070   2.802   1.370  0.5703 -0.7395 -0.9298
  838MOL0     C13014   4.053   2.820   1.239  0.1722  0.4996 -0.4691
  838MOL0     C13015   4.010   2.953   1.168  0.0452  0.0845 -0.5008
  838MOL0     C13016   3.865   2.952   1.123 -0.0797  0.2936 -0.4248
  838MOL0     C13017   3.842   3.075   1.030  0.7460 -0.6700  0.8386
  838MOL0     C13018   3.693   3.116   1.015 -0.7935  0.3439 -0.1517
  838MOL0     O13019   3.655   3.156   1.151  0.4326  0.0764 -0.7100
  838MOL0     C13020   3.518   3.169   1.170  0.2940 -0.0454 -0.3249
  838MOL0     C13021   3.418   3.215   1.077 -0.4619  0.3745  0.6957
  838MOL0     C13022   3.283   3.249   1.112 -0.5600  0.0170  0.7120
  838MOL0     C13023   3.204   3.304   0.996 -0.1850 -0.5100  0.8778
  838MOL0     C13024   3.248   3.250   1.251 -0.2551  0.2411 -0.1129
  838MOL0     C13025   3.110   3.277   1.301 -0.2799  0.0558 -0.0485
  838MOL0     O13026   3.098   3.264   1.437 -0.6913 -0.3275 -0.4334
  838MOL0     C13027   2.985   3.275   1.507 -1.1176 -0.0436  0.0112
  838MOL0     C13028   2.952   3.167   1.593  1.0451  0.3949  0.5281
  838MOL0     C13029   2.823   3.162   1.653  0.2994 -0.0528  0.5320
  838MOL0     C13030   2.731   3.268   1.633 -0.4235 -0.6290 -0.6774
  838MOL0     O13031   2.602   3.281   1.687 -0.4477 -0.3728  0.9346
  838MOL0     C13032   2.576   3.268   1.825 -0.4465  0.0515 -0.0572
  838MOL0     C13033   2.579   3.409   1.893 -0.5839  0.1884  0.0579
  838MOL0     C13034   2.471   3.503   1.815 -0.1115  0.5653 -0.3742
  838MOL0     C13035   2.335   3.439   1.766 -0.5689  0.0677 -0.1984
  838MOL0     C13036   2.246   3.557   1.716  0.2279 -0.1948 -0.1956
  838MOL0     C13037   2.094   3.532   1.705 -0.5878  0.2739 -0.3978
  838MOL0     C13038   1.999   3.643   1.645  1.1461 -0.5747  0.1448
  838MOL0     C13039   2.026   3.701   1.508 -0.2114  0.5786  0.1769
  838MOL0    Cl13040   1.926   3.843   1.475  0.0482 -0.3314  0.3854
  838MOL0     C13041   2.774   3.374   1.555  0.0328  0.0780 -0.8243
  838MOL0     C13042   2.896   3.373   1.493  0.1110 -0.6626  0.1063
  838MOL0     O13043   3.011   3.310   1.231 -0.3889 -0.0215 -0.0875
  838MOL0     C13044   3.348   3.200   1.343  0.5379 -0.4379  0.7603
  838MOL0     C13045   3.478   3.162   1.301  0.9506  0.0116  0.2468
  838MOL0     N13046   4.077   2.696   1.174 -0.3203 -0.2973  0.7058
  838MOL0     N13047   4.103   2.608   1.265 -0.8755 -0.3875  0.7270
  838MOL0     C13048   3.669   2.847   2.402  0.1976 -0.7073 -0.2344
  838MOL0     C13049   3.609   2.904   2.515  0.4634  0.3487 -0.3506
  838MOL0     C13050   3.303   2.995   2.833 -0.0867 -0.2116  0.6855
  838MOL0     C13051   3.264   2.915   2.943  0.2745 -0.3841  0.3318
  838MOL0     C13052   3.231   2.975   3.064 -0.3537  0.4979 -0.0383
  838MOL0     C13053   3.232   3.112   3.085  0.3846 -1.2784  0.1693
  838MOL0     O13054   3.181   3.169   3.199  0.2839 -0.1123  0.5885
  838MOL0     C13055   3.115   3.089   3.300  0.2020 -0.0983  0.4106
  838MOL0     C13056   2.983   3.030   3.258  0.2235 -0.9279  0.3194
  838MOL0     C13057   2.919   2.937   3.355 -0.4199 -0.2523 -0.1446
  838MOL0     C13058   2.805   3.001   3.450 -0.1030  0.0841  0.3224
  838MOL0     C13059   2.755   2.888   3.521  0.4412 -0.0413 -0.8341
  838MOL0     C13060   2.711   2.785   3.561  0.2452  0.1853  0.2845
  838MOL0     C13061   3.274   3.195   2.977 -0.4959  0.0667  0.3210
  838MOL0     C13062   3.318   3.135   2.855 -0.5257 -0.1730 -1.2853
  838MOL0     H13063   3.324   3.016   2.370  0.6474 -0.6239 -2.5548
  838MOL0     H13064   3.442   2.927   2.172 -2.0815  2.1057  1.0812
  838MOL0     H13065   3.876   2.838   2.136 -0.7493  0.3114  2.1610
  838MOL0     H13066   3.848   2.719   2.257 -1.9358 -1.4417 -0.0293
  838MOL0     H13067   3.933   2.595   2.084 -0.4676 -0.5656  1.0855
  838MOL0     H13068   3.755   2.568   2.077 -0.1142  0.4263 -0.2671
  838MOL0     H13069   3.763   2.749   1.887  1.9063  2.0277 -1.7837
  838MOL0     H13070   3.935   2.740   1.892 -0.7668  2.4071 -1.5727
  838MOL0     H13071   3.932   2.488   1.852 -0.0094  0.1015 -2.1899
  838MOL0     H13072   3.754   2.483   1.869 -1.1967  2.3810 -0.8180
  838MOL0     H13073   3.767   2.474   1.639 -1.5955 -0.6161  1.1329
  838MOL0     H13074   3.725   2.637   1.677 -1.2706 -0.7211  2.1778
  838MOL0     H13075   3.884   2.695   1.526  3.7554  2.1326  0.2769
  838MOL0     H13076   3.963   2.718   1.674  2.5148 -0.2228 -2.8054
  838MOL0     H13077   4.048   2.472   1.658 -0.4937  2.0225  2.2674
  838MOL0     H13078   3.976   2.484   1.490  1.3686  2.5738 -1.9327
  838MOL0     H13079   4.235   2.546   1.519  0.8418 -0.1480 -0.4619
  838MOL0     H13080   4.176   2.686   1.583 -1.4899  1.1730 -0.2159
  838MOL0     H13081   4.041   2.875   1.446 -1.5948 -2.0677 -0.3876
  838MOL0     H13082   4.029   3.030   1.243  0.1183  0.9309 -1.3719
  838MOL0     H13083   4.080   2.976   1.087  1.3646 -1.7980  0.0226
  838MOL0     H13084   3.805   2.951   1.215 -2.2103  0.6857 -1.7493
  838MOL0     H13085   3.836   2.860   1.071  1.3979  1.0900 -2.8030
  838MOL0     H13086   3.880   3.051   0.931  0.3645  0.3158  0.4336
  838MOL0     H13087   3.893   3.166   1.063  0.0690 -0.8474  2.4896
  838MOL0     H13088   3.640   3.021   1.000  1.5657 -1.7955  3.3883
  838MOL0     H13089   3.672   3.193   0.941 -0.9056 -1.0754 -1.6612
  838MOL0     H13090   3.444   3.232   0.973 -1.3518  1.1985  0.5902
  838MOL0     H13091   3.135   3.384   1.027  1.5789  0.9626  1.1991
  838MOL0     H13092   3.267   3.356   0.923  0.1219 -0.7780  0.9503
  838MOL0     H13093   3.140   3.236   0.938  0.3120  0.2121 -0.5812
  838MOL0     H13094   3.016   3.080   1.602 -1.8853 -2.0497 -0.3115
  838MOL0     H13095   2.784   3.074   1.704 -2.5000  0.2535 -0.9300
  838MOL0     H13096   2.474   3.234   1.843 -0.2754 -0.3587  0.1319
  838MOL0     H13097   2.639   3.194   1.875 -0.8728 -1.3899 -1.5600
  838MOL0     H13098   2.549   3.383   1.994  1.1792 -1.7323  0.1596
  838MOL0     H13099   2.674   3.463   1.899 -0.9834  1.2495 -2.1510
  838MOL0     H13100   2.513   3.549   1.725 -0.6802 -0.7477 -1.3467
  838MOL0     H13101   2.450   3.591   1.876 -1.5442 -0.8612  1.3106
  838MOL0     H13102   2.350   3.374   1.680 -2.5309 -1.8155  0.7882
  838MOL0     H13103   2.293   3.375   1.845 -0.2429 -1.3978 -1.1810
  838MOL0     H13104   2.276   3.591   1.616  3.8298 -3.3826 -0.4233
  838MOL0     H13105   2.269   3.640   1.784 -1.9527 -2.2884  3.3856
  838MOL0     H13106   2.091   3.437   1.652  2.3406 -0.2732  0.2548
  838MOL0     H13107   2.064   3.505   1.807  1.5799  1.4112  0.6027
  838MOL0     H13108   1.997   3.720   1.723  1.6964  2.9981 -3.0592
  838MOL0     H13109   1.899   3.604   1.624  0.6165  0.4765  0.6328
  838MOL0     H13110   2.020   3.628   1.426  0.5642 -1.3102  1.7243
  838MOL0     H13111   2.134   3.716   1.520 -0.0015 -1.0777  0.6975
  838MOL0     H13112   2.709   3.458   1.531 -0.4328 -0.3244 -0.9938
  838MOL0     H13113   2.905   3.453   1.421  0.0458  1.2651  2.1574
  838MOL0     H13114   3.339   3.203   1.451 -3.2044 -1.5370  0.5912
  838MOL0     H13115   3.553   3.125   1.371  2.5067  1.8165 -0.3748
  838MOL0     H13116   3.762   2.797   2.429  0.3263 -0.6266 -0.5178
  838MOL0     H13117   3.671   2.883   2.601  2.2676 -3.1290 -2.2927
  838MOL0     H13118   3.262   2.808   2.930 -0.9088 -0.2497 -0.7877
  838MOL0     H13119   3.198   2.897   3.132 -1.5050 -0.9141 -2.0787
  838MOL0     H13120   3.183   3.009   3.330  0.4557 -0.2925 -0.6612
  838MOL0     H13121   3.094   3.152   3.387 -0.9561  2.8744 -1.8278
  838MOL0     H13122   2.999   2.978   3.163  2.3273 -1.7832  1.0964
  838MOL0     H13123   2.912   3.112   3.243  0.9422 -0.5990 -1.4827
  838MOL0     H13124   2.994   2.888   3.418  0.1345  2.1727  1.2056
  838MOL0     H13125   2.867   2.859   3.299 -1.3219  1.4802 -1.8387
  838MOL0     H13126   2.725   3.052   3.396 -1.0170 -1.0455  0.5623
  838MOL0     H13127   2.853   3.076   3.513 -0.3611  1.4698 -1.0802
  838MOL0     H13128   2.663   2.693   3.587 -1.5741  1.4746  1.7181
  838MOL0     H13129   3.282   3.302   2.992 -0.4555  0.2688 -0.9927
  838MOL0     H13130   3.351   3.206   2.780  0.5290 -0.4946 -1.1483
  839MOL0     O13131   4.420   6.980  10.533  0.6061  0.4248 -0.9349
  839MOL0     C13132   4.405   6.961  10.651 -0.2676 -0.0534 -1.1198
  839MOL0     O13133   4.486   7.000  10.751  0.0252 -0.5250 -0.2252
  839MOL0     C13134   4.613   7.029  10.719  0.0149 -0.4291  0.1547
  839MOL0     C13135   4.675   7.117  10.815  0.3328  1.0491 -1.0082
  839MOL0     C13136   4.801   7.156  10.790 -0.1289 -0.3262 -0.4711
  839MOL0     C13137   4.873   7.131  10.672  0.0806  0.1034  0.6153
  839MOL0     O13138   5.003   7.186  10.663  0.0086 -0.1190 -0.4350
  839MOL0     C13139   5.028   7.286  10.560 -0.6770  1.0356  0.2532
  839MOL0     C13140   5.147   7.372  10.591 -0.8677  0.0313 -0.0326
  839MOL0     C13141   5.168   7.500  10.496  0.4988  0.5941  0.3147
  839MOL0     C13142   5.313   7.559  10.494  0.2405  0.0866 -0.1757
  839MOL0     C13143   5.299   7.701  10.428 -0.4054 -0.3736 -0.5394
  839MOL0     C13144   5.271   7.813  10.540  0.1866  0.3638  0.0844
  839MOL0     C13145   5.250   7.957  10.490  0.0197 -0.0322  0.2401
  839MOL0     C13146   5.381   8.038  10.494  0.8855  0.3634 -0.0311
  839MOL0     N13147   5.404   8.084  10.627 -0.2802  0.3837  0.0322
  839MOL0     C13148   5.369   8.207  10.670 -0.4752  0.2114 -0.1492
  839MOL0     C13149   5.422   8.209  10.798 -0.8930 -0.7210  1.1749
  839MOL0     C13150   5.403   8.327  10.886 -0.5574 -0.3861 -0.1567
  839MOL0     C13151   5.489   8.324  11.012 -0.9624 -0.4369 -0.6305
  839MOL0     C13152   5.458   8.428  11.118  0.1618  0.8326 -0.0856
  839MOL0     C13153   5.556   8.428  11.237  0.0878 -0.0936 -0.3610
  839MOL0     O13154   5.527   8.551  11.300 -0.9240  0.0734 -0.6841
  839MOL0     C13155   5.621   8.580  11.395 -0.5613 -1.5834 -0.5534
  839MOL0     C13156   5.743   8.632  11.355  0.3494 -0.4514  0.7788
  839MOL0     C13157   5.858   8.659  11.441  0.0700 -0.5126 -0.0377
  839MOL0     C13158   5.983   8.709  11.386  0.2416 -0.1334 -0.6629
  839MOL0     C13159   5.838   8.642  11.584 -0.2917  0.7194 -0.3130
  839MOL0     C13160   5.947   8.672  11.680 -0.8380 -0.9523 -0.4441
  839MOL0     O13161   5.924   8.625  11.805 -0.3236 -0.3449 -0.4895
  839MOL0     C13162   6.003   8.661  11.910 -0.4203 -0.1608  0.3117
  839MOL0     C13163   5.977   8.775  11.985 -0.0615 -0.0714 -0.6960
  839MOL0     C13164   6.056   8.811  12.095 -0.5018  0.2154  0.1642
  839MOL0     C13165   6.158   8.730  12.135 -1.5212 -0.3448 -0.4457
  839MOL0     O13166   6.232   8.771  12.243  0.5586  0.2697  0.1001
  839MOL0     C13167   6.277   8.664  12.328 -1.0490  0.2086  0.2218
  839MOL0     C13168   6.303   8.719  12.464  0.2295 -0.7908  0.8712
  839MOL0     C13169   6.379   8.624  12.550  0.1930  1.0117  0.7797
  839MOL0     C13170   6.398   8.678  12.690  0.1695  0.1265 -0.4534
  839MOL0     C13171   6.465   8.576  12.779 -0.7604  1.0210  0.8403
  839MOL0     C13172   6.462   8.620  12.927  0.6162  0.7276  0.4381
  839MOL0     C13173   6.320   8.652  12.972  1.3971  0.2510 -0.1294
  839MOL0     C13174   6.296   8.666  13.128  0.3490  0.3345  0.2145
  839MOL0    Cl13175   6.352   8.826  13.180  0.4362 -0.1605  0.4097
  839MOL0     C13176   6.184   8.620  12.056 -0.6319  0.1786  0.1370
  839MOL0     C13177   6.099   8.580  11.951  0.0857 -0.7531 -0.8008
  839MOL0     O13178   6.045   8.751  11.656  0.7988  0.4919  0.1531
  839MOL0     C13179   5.716   8.594  11.632 -0.3615  0.0390 -0.3113
  839MOL0     C13180   5.607   8.572  11.535 -0.3405 -0.1953 -0.7955
  839MOL0     N13181   5.463   8.088  10.837 -0.6611 -0.5818 -0.0436
  839MOL0     N13182   5.448   8.013  10.736  0.3042  0.0697  0.4718
  839MOL0     C13183   4.810   7.056  10.580  0.5626 -0.4170 -0.3801
  839MOL0     C13184   4.690   6.990  10.607  0.8867 -0.6379 -0.1552
  839MOL0     C13185   4.281   6.892  10.693  0.1876  0.7723  0.3610
  839MOL0     C13186   4.230   6.910  10.824 -1.3029 -0.8771 -0.6603
  839MOL0     C13187   4.117   6.849  10.875 -0.2608 -0.9811  0.1148
  839MOL0     C13188   4.037   6.772  10.782 -0.5835  0.3870 -0.1346
  839MOL0     O13189   3.926   6.698  10.825 -0.0904 -0.3284  0.4625
  839MOL0     C13190   3.800   6.763  10.793  0.4758  0.4809 -0.2370
  839MOL0     C13191   3.701   6.672  10.711 -0.0283  0.1269 -0.0810
  839MOL0     C13192   3.561   6.730  10.708 -0.0521  0.0137  0.7884
  839MOL0     C13193   3.449   6.637  10.665  0.2939  0.4973  0.5778
  839MOL0     C13194   3.476   6.592  10.523 -0.0709 -0.0366 -0.4455
  839MOL0     C13195   3.498   6.564  10.409  0.0318  0.3544  0.3968
  839MOL0     C13196   4.091   6.744  10.656  0.2787  0.1063 -0.4349
  839MOL0     C13197   4.205   6.815  10.614  0.5259 -0.4243  0.6843
  839MOL0     H13198   4.617   7.134  10.905 -2.0197 -0.1446 -2.2048
  839MOL0     H13199   4.849   7.204  10.875  0.2159  0.1794 -0.9444
  839MOL0     H13200   5.051   7.236  10.465 -1.5098  1.0590  0.0395
  839MOL0     H13201   4.939   7.349  10.549 -0.7452  0.8423 -0.3155
  839MOL0     H13202   5.132   7.420  10.689 -1.0137  0.8433 -0.4423
  839MOL0     H13203   5.239   7.313  10.582 -1.2976 -0.5821 -0.4460
  839MOL0     H13204   5.153   7.472  10.392  4.0099  0.0807 -0.1900
  839MOL0     H13205   5.094   7.577  10.519  0.2916  2.1262 -4.3939
  839MOL0     H13206   5.360   7.560  10.593  0.6854  0.0135 -0.3827
  839MOL0     H13207   5.373   7.494  10.429 -1.7704  0.5936 -2.6707
  839MOL0     H13208   5.399   7.718  10.387 -0.3772 -1.1842 -0.8209
  839MOL0     H13209   5.227   7.709  10.347 -1.0633  2.9144  0.2029
  839MOL0     H13210   5.181   7.774  10.587 -0.9119  0.5914 -1.7310
  839MOL0     H13211   5.349   7.806  10.617  0.0005  2.4812  0.5143
  839MOL0     H13212   5.228   7.958  10.383 -1.3064  1.9602  0.4712
  839MOL0     H13213   5.162   8.000  10.540 -0.8079 -2.9103  1.4327
  839MOL0     H13214   5.390   8.120  10.423  0.2497 -0.1868 -0.7709
  839MOL0     H13215   5.455   7.963  10.465  1.1004  0.9848 -1.1340
  839MOL0     H13216   5.329   8.293  10.617  1.3317  0.5832 -0.9562
  839MOL0     H13217   5.441   8.421  10.845  1.1730 -0.1784  1.7553
  839MOL0     H13218   5.297   8.324  10.913 -0.4952 -3.2973  0.0152
  839MOL0     H13219   5.595   8.341  10.987 -1.2568  0.7860 -1.1460
  839MOL0     H13220   5.483   8.234  11.073 -0.4465  0.7295  1.2512
  839MOL0     H13221   5.350   8.427  11.135  0.5430  2.7752  3.2850
  839MOL0     H13222   5.469   8.523  11.064  0.3518  0.8929  0.0613
  839MOL0     H13223   5.655   8.424  11.192  0.5888  4.9356 -0.3236
  839MOL0     H13224   5.555   8.352  11.315  1.8422  0.3640  0.1346
  839MOL0     H13225   5.745   8.666  11.252 -2.7463 -1.6079  0.2204
  839MOL0     H13226   6.062   8.645  11.428 -0.9321 -0.8876  0.4626
  839MOL0     H13227   5.988   8.697  11.278  1.1126 -1.0719 -0.5352
  839MOL0     H13228   5.984   8.813  11.422  2.9275 -1.0968  2.6363
  839MOL0     H13229   5.900   8.847  11.959  0.1622 -0.0921 -1.4454
  839MOL0     H13230   6.043   8.904  12.150  0.1242 -0.0526  0.7807
  839MOL0     H13231   6.206   8.580  12.332  0.9403 -1.5216  0.9563
  839MOL0     H13232   6.370   8.622  12.291 -0.6662  0.4264  0.9249
  839MOL0     H13233   6.358   8.813  12.465 -1.4441  0.2576  0.1154
  839MOL0     H13234   6.203   8.732  12.507 -0.9342 -0.1564 -1.7919
  839MOL0     H13235   6.478   8.599  12.510 -1.2787  0.0741 -2.6365
  839MOL0     H13236   6.330   8.527  12.547  0.9898  0.5893  1.1460
  839MOL0     H13237   6.448   8.774  12.673 -2.2834  1.5248 -0.3285
  839MOL0     H13238   6.296   8.696  12.727  1.3349  1.4401  2.4999
  839MOL0     H13239   6.569   8.571  12.745 -1.5875  1.3963 -2.0028
  839MOL0     H13240   6.409   8.487  12.749 -2.0540  1.8093  0.8323
  839MOL0     H13241   6.500   8.534  12.983  0.4204  0.8087  0.7032
  839MOL0     H13242   6.522   8.711  12.936  0.6584  0.8143 -0.6011
  839MOL0     H13243   6.256   8.565  12.950  2.4949 -0.6044 -0.0223
  839MOL0     H13244   6.278   8.744  12.931  0.6685 -1.0378 -2.4822
  839MOL0     H13245   6.362   8.589  13.167 -2.2479 -2.5643 -0.7264
  839MOL0     H13246   6.194   8.642  13.161 -1.6913  3.5921 -2.9724
  839MOL0     H13247   6.257   8.551  12.097  0.4304  1.5615  0.6186
  839MOL0     H13248   6.125   8.482  11.912  2.4100 -0.4268 -0.2351
  839MOL0     H13249   5.687   8.611  11.736 -2.0724  2.0013 -1.0358
  839MOL0     H13250   5.512   8.530  11.569  0.0134  0.0670  0.5540
  839MOL0     H13251   4.848   7.041  10.479 -0.5675  1.7054 -1.1717
  839MOL0     H13252   4.642   6.924  10.535  0.6454  0.2854 -0.8630
  839MOL0     H13253   4.277   6.978  10.895  0.6096 -1.6866 -1.0866
  839MOL0     H13254   4.089   6.863  10.979 -1.0051 -0.1149 -0.1975
  839MOL0     H13255   3.753   6.786  10.888  1.6851  4.0348 -0.3473
  839MOL0     H13256   3.819   6.862  10.749 -0.1608  0.2730 -1.0065
  839MOL0     H13257   3.701   6.575  10.761 -0.4401  0.5404  0.7489
  839MOL0     H13258   3.753   6.655  10.616  1.6787 -3.6071  1.3273
  839MOL0     H13259   3.561   6.826  10.656 -0.8379  0.2293  1.1619
  839MOL0     H13260   3.538   6.746  10.814  4.2557 -0.1442  1.9516
  839MOL0     H13261   3.347   6.677  10.670 -0.5137 -1.5531  3.6071
  839MOL0     H13262   3.448   6.556  10.739 -1.0010  1.3087  1.4993
  839MOL0     H13263   3.509   6.517  10.313 -2.7716  1.1380 -0.4286
  839MOL0     H13264   4.023   6.696  10.587  1.5117  3.8684 -4.8072
  839MOL0     H13265   4.240   6.804  10.511  1.5628 -0.1269  0.9954
  840MOL0     O13266   6.916   6.413   1.012  0.2069 -0.1785 -0.5263
  840MOL0     C13267   6.862   6.519   1.040 -0.4734  0.1502  0.2661
  840MOL0     O13268   6.740   6.540   1.096 -0.4962 -0.2958  0.1522
  840MOL0     C13269   6.651   6.433   1.088 -0.5619 -0.3197 -0.5753
  840MOL0     C13270   6.659   6.314   1.170 -0.4751 -1.2750  0.8950
  840MOL0     C13271   6.577   6.212   1.149  0.3515 -0.0439  0.3665
  840MOL0     C13272   6.463   6.217   1.067  0.7341 -0.9886 -0.0100
  840MOL0     O13273   6.378   6.111   1.059 -0.7421  0.7753 -0.3535
  840MOL0     C13274   6.236   6.137   1.087  0.2973 -0.2591 -0.8473
  840MOL0     C13275   6.163   6.000   1.044 -0.2005 -0.0501 -0.1786
  840MOL0     C13276   6.180   5.878   1.144 -0.2211  0.0297 -0.3533
  840MOL0     C13277   6.075   5.761   1.134  0.4165 -0.4356  0.4471
  840MOL0     C13278   6.127   5.649   1.224  0.0370 -0.4126  0.1083
  840MOL0     C13279   6.025   5.528   1.207  0.1309  0.0398 -0.3985
  840MOL0     C13280   6.087   5.401   1.272 -0.2512 -0.0032 -0.2700
  840MOL0     C13281   5.976   5.317   1.327  1.1601  0.0408  1.0189
  840MOL0     N13282   5.891   5.374   1.430  0.1429  0.3454 -0.4918
  840MOL0     C13283   5.928   5.399   1.566 -0.0661  0.8831  0.3754
  840MOL0     C13284   5.831   5.463   1.621 -0.0466  0.4006  0.4795
  840MOL0     C13285   5.817   5.499   1.762 -0.2100 -0.1803  0.6575
  840MOL0     C13286   5.726   5.618   1.788  0.3138 -0.2555  0.4790
  840MOL0     C13287   5.778   5.735   1.706 -0.4778 -0.7829  0.2338
  840MOL0     C13288   5.767   5.872   1.784  0.8280  0.1763 -0.4535
  840MOL0     O13289   5.831   5.963   1.699  0.1093 -0.1339  0.7773
  840MOL0     C13290   5.817   6.099   1.739 -0.4284  0.0082  0.2816
  840MOL0     C13291   5.731   6.149   1.843  0.5741  0.2209 -0.0739
  840MOL0     C13292   5.724   6.282   1.873 -0.3989  0.7151  0.1393
  840MOL0     C13293   5.605   6.316   1.963  0.1345  0.9810 -0.7115
  840MOL0     C13294   5.817   6.368   1.812 -0.3100 -0.7302 -0.1215
  840MOL0     C13295   5.834   6.510   1.847  0.2028  0.5590  0.1503
  840MOL0     O13296   5.948   6.578   1.810  0.3170  1.1640 -0.0916
  840MOL0     C13297   5.957   6.708   1.834 -0.2347 -0.1817 -0.1286
  840MOL0     C13298   6.011   6.784   1.733 -0.5850 -0.3575  0.7068
  840MOL0     C13299   6.024   6.922   1.745 -0.4230 -0.6446  0.4019
  840MOL0     C13300   5.975   6.990   1.865 -0.7660 -0.1013 -0.4593
  840MOL0     O13301   5.993   7.124   1.873 -0.1729  0.3432 -0.0257
  840MOL0     C13302   5.936   7.187   1.992 -1.0597  0.2819 -0.2814
  840MOL0     C13303   5.993   7.330   1.999  1.0840  0.1956  0.6729
  840MOL0     C13304   5.956   7.423   1.889  0.3393 -0.0766  0.0630
  840MOL0     C13305   5.976   7.569   1.937 -0.1327 -0.1080 -0.1187
  840MOL0     C13306   5.877   7.661   1.863  0.5211  0.9088 -0.9825
  840MOL0     C13307   5.921   7.697   1.722  1.1232 -0.5830  0.2353
  840MOL0     C13308   5.817   7.759   1.626 -0.7417 -0.5460  0.4673
  840MOL0     C13309   5.740   7.878   1.695 -0.0485  0.1484  0.4250
  840MOL0    Cl13310   5.868   7.998   1.731 -0.1404 -0.0627  0.0019
  840MOL0     C13311   5.929   6.905   1.968 -0.3619 -0.1934 -0.3952
  840MOL0     C13312   5.923   6.766   1.954 -0.2033  0.4463  0.1613
  840MOL0     O13313   5.725   6.562   1.883 -0.2891 -0.7991 -0.7005
  840MOL0     C13314   5.918   6.312   1.722 -1.4770  0.0333  1.0333
  840MOL0     C13315   5.909   6.186   1.684  0.6749  1.1227  0.0446
  840MOL0     N13316   5.735   5.495   1.524 -0.6169 -0.3918  0.0200
  840MOL0     N13317   5.773   5.440   1.409 -0.5467 -0.6102 -0.3441
  840MOL0     C13318   6.446   6.343   0.998 -0.2928  0.7626 -0.4872
  840MOL0     C13319   6.535   6.452   1.014 -0.2559  0.5554  0.1970
  840MOL0     C13320   6.933   6.643   1.020 -0.7671  0.7906  0.3564
  840MOL0     C13321   6.881   6.764   1.052 -0.2576 -0.5028 -0.8201
  840MOL0     C13322   6.937   6.893   1.018  0.5105 -0.8889  0.1588
  840MOL0     C13323   7.062   6.890   0.951  1.0490 -0.9416  0.3336
  840MOL0     O13324   7.130   7.004   0.913 -0.3762 -0.1898  0.1382
  840MOL0     C13325   7.066   7.134   0.928 -0.2986  0.0960  0.1585
  840MOL0     C13326   7.085   7.195   1.077 -0.3140  0.2691 -0.8510
  840MOL0     C13327   7.243   7.231   1.085 -0.1198  0.5341  0.1588
  840MOL0     C13328   7.257   7.281   1.229 -0.5354 -0.1109  0.7611
  840MOL0     C13329   7.405   7.291   1.236  0.3814  0.0959 -0.8928
  840MOL0     C13330   7.523   7.309   1.249  1.2798  0.1655  0.5664
  840MOL0     C13331   7.128   6.770   0.933 -0.0355  0.0147  0.2274
  840MOL0     C13332   7.057   6.648   0.952  0.3705 -0.0472 -0.7228
  840MOL0     H13333   6.744   6.297   1.235  1.1974  0.2479 -0.7721
  840MOL0     H13334   6.583   6.115   1.197 -1.4637 -0.8061 -0.8455
  840MOL0     H13335   6.213   6.167   1.190 -1.9474 -1.7580 -0.8240
  840MOL0     H13336   6.194   6.213   1.020 -1.3290 -2.8618 -2.9823
  840MOL0     H13337   6.057   6.022   1.023 -0.2956 -0.7469 -0.4420
  840MOL0     H13338   6.209   5.973   0.949 -2.1134  2.1964 -1.8638
  840MOL0     H13339   6.278   5.830   1.132  1.1866  2.6625 -0.0659
  840MOL0     H13340   6.175   5.917   1.246  1.7835 -0.1161 -0.1669
  840MOL0     H13341   5.976   5.788   1.173 -0.3715 -1.2532 -0.9120
  840MOL0     H13342   6.058   5.738   1.028 -2.3309  2.0061  0.2180
  840MOL0     H13343   6.231   5.621   1.204 -0.1149 -2.3955  1.8299
  840MOL0     H13344   6.125   5.686   1.327  0.3917  2.1540 -0.7225
  840MOL0     H13345   5.934   5.555   1.261  1.4600  1.9884  1.0143
  840MOL0     H13346   6.001   5.502   1.104  0.2968 -0.4265 -0.3188
  840MOL0     H13347   6.151   5.338   1.209 -2.0983 -1.0897 -1.1660
  840MOL0     H13348   6.150   5.416   1.359  0.6804 -0.0104 -0.9315
  840MOL0     H13349   6.013   5.223   1.370 -0.2120 -0.6142  0.8182
  840MOL0     H13350   5.918   5.293   1.238  0.7967  1.3334  0.9007
  840MOL0     H13351   6.014   5.354   1.616  0.0961 -0.0196 -0.6740
  840MOL0     H13352   5.757   5.415   1.798 -3.5758  2.6968  2.3048
  840MOL0     H13353   5.911   5.510   1.818 -0.2677  3.9613  0.2426
  840MOL0     H13354   5.727   5.629   1.897  0.1754 -1.0267  0.5675
  840MOL0     H13355   5.625   5.592   1.757  0.7224 -1.1563 -0.1409
  840MOL0     H13356   5.710   5.738   1.620 -0.5138 -3.4168  0.0942
  840MOL0     H13357   5.878   5.730   1.662 -1.0864  2.8081 -2.0019
  840MOL0     H13358   5.807   5.869   1.885 -1.5215  0.0033  0.5481
  840MOL0     H13359   5.659   5.887   1.778 -0.4765 -6.0274 -0.0012
  840MOL0     H13360   5.665   6.081   1.895 -2.1389  0.7153 -2.6127
  840MOL0     H13361   5.571   6.234   2.027 -0.0203  3.1740  2.2076
  840MOL0     H13362   5.629   6.389   2.040  1.0319 -3.3259  3.5752
  840MOL0     H13363   5.516   6.345   1.907 -0.8701 -0.7651 -0.0925
  840MOL0     H13364   6.033   6.731   1.640 -2.7208 -4.9935  2.4901
  840MOL0     H13365   6.059   6.981   1.661  0.5274 -3.0771 -1.0107
  840MOL0     H13366   5.828   7.169   1.982 -0.7171 -1.8007 -0.6851
  840MOL0     H13367   5.977   7.139   2.081  3.1966 -0.0980 -2.2161
  840MOL0     H13368   5.954   7.372   2.092 -1.3717  3.7108 -1.6971
  840MOL0     H13369   6.102   7.320   2.005  1.2688  1.0842 -0.7600
  840MOL0     H13370   5.852   7.408   1.858 -0.8462  2.8194  2.2456
  840MOL0     H13371   6.020   7.406   1.801 -0.2918  2.0987 -0.8736
  840MOL0     H13372   5.959   7.570   2.045 -1.7024 -1.1594 -0.3216
  840MOL0     H13373   6.077   7.603   1.914 -0.7150  2.0069  0.2913
  840MOL0     H13374   5.878   7.750   1.927  2.6445 -0.8210  1.5937
  840MOL0     H13375   5.774   7.626   1.862  1.1466 -1.1947  0.7353
  840MOL0     H13376   6.006   7.764   1.739 -0.3319  1.1677  0.9720
  840MOL0     H13377   5.967   7.609   1.677 -0.4507 -2.2182  1.6651
  840MOL0     H13378   5.746   7.679   1.603  0.2661 -1.3921  0.2507
  840MOL0     H13379   5.861   7.800   1.534 -1.0065  0.3593  0.7297
  840MOL0     H13380   5.693   7.848   1.789  1.1764 -3.5588  0.0167
  840MOL0     H13381   5.660   7.917   1.632  1.0615 -0.1477 -1.2379
  840MOL0     H13382   5.891   6.952   2.059 -0.7241  1.0713 -1.1739
  840MOL0     H13383   5.877   6.714   2.038  2.9795 -1.6941  0.7707
  840MOL0     H13384   6.002   6.361   1.675  0.3374 -4.2579 -0.6983
  840MOL0     H13385   5.968   6.144   1.603 -1.4676 -1.0295 -0.5439
  840MOL0     H13386   6.365   6.362   0.928 -0.6764  1.8729  0.2458
  840MOL0     H13387   6.518   6.542   0.957 -0.8775  0.9001  0.9159
  840MOL0     H13388   6.785   6.782   1.100  0.4476  1.9140 -0.1336
  840MOL0     H13389   6.875   6.978   1.042 -2.1375 -1.9717 -2.3008
  840MOL0     H13390   7.093   7.195   0.841 -0.8953 -0.6809 -0.5844
  840MOL0     H13391   6.961   7.124   0.899 -0.1262 -0.5834 -0.2399
  840MOL0     H13392   7.071   7.115   1.150  1.2661  1.2916  0.6497
  840MOL0     H13393   7.011   7.271   1.100  0.0497  0.7247 -1.1772
  840MOL0     H13394   7.266   7.307   1.010  1.1008 -0.1789 -0.2160
  840MOL0     H13395   7.304   7.145   1.058 -0.8257  0.7986 -2.6107
  840MOL0     H13396   7.212   7.216   1.305 -1.4224 -1.2579 -0.6807
  840MOL0     H13397   7.205   7.377   1.233 -0.1949  0.1848 -1.1521
  840MOL0     H13398   7.628   7.313   1.269  0.8449  0.6472  3.1144
  840MOL0     H13399   7.225   6.781   0.884 -0.3271  1.0376 -0.1507
  840MOL0     H13400   7.102   6.559   0.910  1.0486  1.6019 -3.7518
  841MOL0     O13401   2.227   9.782   2.689 -0.3636 -0.7291  0.6260
  841MOL0     C13402   2.285   9.890   2.700  0.7724  0.5187  0.7351
  841MOL0     O13403   2.363   9.951   2.602  0.5704  0.2356  0.5177
  841MOL0     C13404   2.356   9.885   2.478 -1.5675 -0.5690 -0.0823
  841MOL0     C13405   2.238   9.881   2.412  0.0612 -0.2960 -0.5000
  841MOL0     C13406   2.224   9.809   2.296 -0.3557 -0.4476  0.7111
  841MOL0     C13407   2.331   9.730   2.248 -0.2130 -0.2860  0.5576
  841MOL0     O13408   2.319   9.648   2.146  0.6922 -0.2766 -0.4297
  841MOL0     C13409   2.273   9.718   2.026 -0.2033 -0.6019  0.0365
  841MOL0     C13410   2.281   9.627   1.911  0.2829  0.3096  0.6417
  841MOL0     C13411   2.269   9.694   1.775 -0.2691  0.9891  0.3179
  841MOL0     C13412   2.278   9.592   1.671  0.5050  0.6146  0.6653
  841MOL0     C13413   2.193   9.621   1.534 -0.5091 -0.2852  0.4589
  841MOL0     C13414   2.196   9.504   1.442  0.2629  0.7668 -0.0556
  841MOL0     C13415   2.137   9.373   1.485 -0.3086  0.7640 -0.4666
  841MOL0     C13416   1.998   9.382   1.547 -1.2504 -1.0418  0.0147
  841MOL0     N13417   1.944   9.252   1.580  0.5029 -1.2494  0.6180
  841MOL0     C13418   1.979   9.179   1.691 -0.2270  0.3169  0.4870
  841MOL0     C13419   1.885   9.077   1.693 -1.2445 -0.2492  0.5182
  841MOL0     C13420   1.862   8.965   1.785  0.1598 -0.2074 -0.2776
  841MOL0     C13421   1.711   8.974   1.842  0.9013  1.2794 -0.6304
  841MOL0     C13422   1.676   8.848   1.929 -0.1981  0.0810  0.9265
  841MOL0     C13423   1.643   8.719   1.844 -0.2436 -0.0178  0.1611
  841MOL0     O13424   1.627   8.606   1.933 -0.3227  0.0050  0.3704
  841MOL0     C13425   1.622   8.489   1.868  0.8847  0.0477  0.0574
  841MOL0     C13426   1.529   8.464   1.768 -0.3122 -0.2690 -0.3679
  841MOL0     C13427   1.521   8.338   1.699  0.4403  0.1098 -0.7522
  841MOL0     C13428   1.430   8.335   1.575  0.1359  0.9008 -1.4093
  841MOL0     C13429   1.605   8.231   1.747  0.4581  0.9200 -0.6354
  841MOL0     C13430   1.612   8.097   1.683 -0.4330 -0.1422 -0.7158
  841MOL0     O13431   1.694   8.000   1.739  0.7804  0.8241 -0.1958
  841MOL0     C13432   1.750   7.908   1.657  0.4810 -0.2709  0.9405
  841MOL0     C13433   1.894   7.917   1.647 -0.3575  0.9806 -0.4888
  841MOL0     C13434   1.960   7.845   1.538  0.8096  0.2533 -0.2402
  841MOL0     C13435   1.889   7.754   1.466 -1.1200  0.7582 -0.3428
  841MOL0     O13436   1.944   7.666   1.377 -0.4917 -0.7941 -0.3679
  841MOL0     C13437   2.069   7.603   1.413 -0.3789 -0.4946 -0.1185
  841MOL0     C13438   2.071   7.553   1.559  1.5382  0.9212 -1.2891
  841MOL0     C13439   1.956   7.458   1.602  0.3720  0.7659  0.7537
  841MOL0     C13440   2.004   7.377   1.721  0.0945 -0.0055 -0.1954
  841MOL0     C13441   1.903   7.281   1.775  1.5436  1.4488 -0.3724
  841MOL0     C13442   1.936   7.199   1.897 -0.3849  0.8534  0.0646
  841MOL0     C13443   1.970   7.279   2.022  0.5130 -0.6621  1.3280
  841MOL0     C13444   1.853   7.365   2.048 -0.0392  0.2006 -0.6985
  841MOL0    Cl13445   1.880   7.442   2.207 -0.2275 -0.3200 -0.0657
  841MOL0     C13446   1.753   7.739   1.487  0.1176 -0.4319  0.2569
  841MOL0     C13447   1.680   7.810   1.582  0.2407  0.2994 -0.5818
  841MOL0     O13448   1.556   8.078   1.579 -0.4537 -0.0262 -0.2950
  841MOL0     C13449   1.689   8.261   1.858 -0.4233  0.2007  0.3248
  841MOL0     C13450   1.684   8.382   1.920 -0.5001  0.2836 -0.7273
  841MOL0     N13451   1.788   9.096   1.595 -0.3595 -0.9187 -0.4106
  841MOL0     N13452   1.836   9.195   1.524 -0.4520  0.0110 -0.1999
  841MOL0     C13453   2.451   9.746   2.314 -0.0286 -0.9865 -0.7259
  841MOL0     C13454   2.463   9.808   2.435 -0.8695  0.5864 -0.1602
  841MOL0     C13455   2.264   9.967   2.826 -0.9281  0.1888 -0.4379
  841MOL0     C13456   2.154   9.962   2.892  0.2798 -0.7283 -0.0311
  841MOL0     C13457   2.127  10.037   3.006 -0.4384  0.1079 -0.3614
  841MOL0     C13458   2.225  10.123   3.044  0.3497 -0.0454 -0.4066
  841MOL0     O13459   2.193  10.181   3.173 -0.2485 -0.0836 -0.5815
  841MOL0     C13460   2.216  10.320   3.200 -0.2607 -0.4738  0.1698
  841MOL0     C13461   2.088  10.392   3.219  0.4913  1.2042 -0.3288
  841MOL0     C13462   2.127  10.528   3.279  0.5312 -1.0179  0.7466
  841MOL0     C13463   2.227  10.609   3.197  0.1358  0.2055 -0.1034
  841MOL0     C13464   2.197  10.617   3.053 -0.2481  0.2846 -0.6800
  841MOL0     C13465   2.169  10.628   2.933 -0.1990  0.6770  0.7011
  841MOL0     C13466   2.344  10.141   2.977 -0.4279  0.3825  0.3799
  841MOL0     C13467   2.370  10.054   2.868  0.8842 -0.1780  0.6389
  841MOL0     H13468   2.153   9.937   2.450  1.1072 -0.5628  2.5090
  841MOL0     H13469   2.140   9.817   2.229  0.9253  0.9925 -0.8246
  841MOL0     H13470   2.168   9.743   2.043 -0.0575 -0.2761  0.4797
  841MOL0     H13471   2.336   9.808   2.026 -0.4539 -0.4040 -1.3240
  841MOL0     H13472   2.377   9.575   1.911 -0.1268 -0.4874 -0.4136
  841MOL0     H13473   2.189   9.568   1.919 -0.3401  1.2200  0.3915
  841MOL0     H13474   2.172   9.744   1.772 -2.3074 -2.6567 -0.2360
  841MOL0     H13475   2.346   9.770   1.754  0.4482 -0.6297 -4.1496
  841MOL0     H13476   2.385   9.576   1.653  1.2118  3.4289  1.9507
  841MOL0     H13477   2.233   9.498   1.706  0.0937  0.7454  0.4883
  841MOL0     H13478   2.093   9.646   1.569 -0.2906 -1.1040  1.7370
  841MOL0     H13479   2.228   9.717   1.495 -0.4222 -0.3948  0.2602
  841MOL0     H13480   2.140   9.543   1.357 -0.5951  3.2392  1.5424
  841MOL0     H13481   2.301   9.489   1.414 -0.2453 -3.0710 -0.4327
  841MOL0     H13482   2.119   9.321   1.390  3.2533  2.3082 -2.1819
  841MOL0     H13483   2.208   9.312   1.542 -0.8553 -0.9234 -1.5205
  841MOL0     H13484   1.926   9.445   1.495 -0.8115  0.8312  1.5683
  841MOL0     H13485   2.003   9.436   1.642  1.0823  0.2813 -0.7984
  841MOL0     H13486   2.056   9.204   1.763  0.5234 -0.3798 -0.0574
  841MOL0     H13487   1.877   8.864   1.747 -1.7526 -0.7351  0.2370
  841MOL0     H13488   1.933   8.977   1.867 -0.1396  0.1417 -0.0635
  841MOL0     H13489   1.631   8.984   1.768  1.5376  0.5508 -1.4437
  841MOL0     H13490   1.692   9.057   1.910 -1.3058 -1.0847  1.8664
  841MOL0     H13491   1.584   8.869   1.984 -2.0925 -3.4017 -0.5986
  841MOL0     H13492   1.758   8.822   1.997  0.9513  2.2721  0.4941
  841MOL0     H13493   1.720   8.706   1.767 -0.1340 -2.9882  0.6491
  841MOL0     H13494   1.555   8.741   1.782  1.9298  2.1143 -2.4171
  841MOL0     H13495   1.451   8.537   1.747  1.5004  1.2228 -2.3641
  841MOL0     H13496   1.372   8.427   1.588  0.4797  1.1747 -1.7661
  841MOL0     H13497   1.479   8.336   1.478  1.4075  0.2923 -0.8050
  841MOL0     H13498   1.372   8.243   1.570  0.3748  0.7335 -1.1400
  841MOL0     H13499   1.940   8.000   1.699 -0.0882 -0.2158  1.2629
  841MOL0     H13500   2.066   7.867   1.527  0.5142  0.7900 -2.5081
  841MOL0     H13501   2.081   7.515   1.349  3.0411  0.3048 -0.7543
  841MOL0     H13502   2.154   7.667   1.389 -0.0878 -1.4354 -1.7778
  841MOL0     H13503   2.167   7.502   1.568  0.6159 -0.8626 -1.0323
  841MOL0     H13504   2.088   7.638   1.625 -1.0584  0.7537 -0.2832
  841MOL0     H13505   1.930   7.389   1.522 -3.1545 -1.7185  3.7082
  841MOL0     H13506   1.863   7.510   1.626 -0.2193  0.4101 -0.6979
  841MOL0     H13507   2.092   7.324   1.686  1.3572  1.2900  0.8884
  841MOL0     H13508   2.041   7.457   1.786 -1.7535 -0.1451  1.0956
  841MOL0     H13509   1.880   7.200   1.705  1.5746 -1.3195  2.5876
  841MOL0     H13510   1.807   7.329   1.795  0.4545 -1.6538  2.8664
  841MOL0     H13511   1.859   7.124   1.921 -0.1607  1.2991  2.3896
  841MOL0     H13512   2.020   7.135   1.870 -0.9383  0.7873 -1.6708
  841MOL0     H13513   2.056   7.346   2.013  0.8065 -1.0669  1.1027
  841MOL0     H13514   1.981   7.200   2.096 -3.8270 -5.3661 -2.3049
  841MOL0     H13515   1.760   7.308   2.040  0.3753 -0.5791 -0.1040
  841MOL0     H13516   1.847   7.447   1.976 -2.0442  1.2450  0.5696
  841MOL0     H13517   1.695   7.686   1.412 -0.2267  0.8678 -0.4391
  841MOL0     H13518   1.575   7.793   1.599 -0.1499 -0.3811 -3.2484
  841MOL0     H13519   1.748   8.182   1.904  1.8502  1.6593  0.0359
  841MOL0     H13520   1.745   8.392   2.009 -1.8684  0.3276  0.2327
  841MOL0     H13521   2.536   9.687   2.281  0.3719 -1.6462  1.3512
  841MOL0     H13522   2.549   9.791   2.499 -0.0048 -1.1997 -1.7276
  841MOL0     H13523   2.072   9.898   2.858 -0.1369  0.2265 -0.8839
  841MOL0     H13524   2.037  10.046   3.066 -1.2820 -0.1912 -1.5507
  841MOL0     H13525   2.280  10.319   3.288  0.1845 -3.4704 -0.0704
  841MOL0     H13526   2.269  10.361   3.113  0.6658  1.9145  1.7626
  841MOL0     H13527   2.030  10.343   3.297  0.5158  0.3845 -0.8223
  841MOL0     H13528   2.038  10.405   3.123 -0.7047  0.8923  0.2321
  841MOL0     H13529   2.150  10.510   3.384 -1.9544  0.4274  1.6070
  841MOL0     H13530   2.039  10.593   3.280 -0.1849 -1.9216 -0.1810
  841MOL0     H13531   2.329  10.570   3.190  1.0830  2.6193 -0.5248
  841MOL0     H13532   2.237  10.705   3.249  2.0150  0.8563 -1.5475
  841MOL0     H13533   2.132  10.643   2.834  0.0908  0.6811  0.5899
  841MOL0     H13534   2.411  10.216   3.017 -0.9565  1.6870 -1.0796
  841MOL0     H13535   2.463  10.038   2.813  1.2883 -2.7828  1.9399
  842MOL0     O13536   3.498   9.793   7.296 -0.4901  0.6852 -0.0360
  842MOL0     C13537   3.415   9.784   7.381  0.7680  0.2656  0.4494
  842MOL0     O13538   3.429   9.720   7.497  0.3557  0.3029 -0.2168
  842MOL0     C13539   3.527   9.629   7.512  0.8064 -0.5359  0.1656
  842MOL0     C13540   3.484   9.509   7.481  0.1002  0.7095  0.7086
  842MOL0     C13541   3.582   9.410   7.464 -0.1232 -1.2390 -0.5344
  842MOL0     C13542   3.712   9.423   7.507  0.0812 -0.2583  0.1454
  842MOL0     O13543   3.803   9.327   7.500  0.4515 -0.4860 -0.6899
  842MOL0     C13544   3.810   9.234   7.397  0.3302 -0.3263  0.3252
  842MOL0     C13545   3.941   9.154   7.382 -0.4500 -0.4624 -0.5960
  842MOL0     C13546   3.992   9.105   7.519 -0.4654  0.5978 -0.4736
  842MOL0     C13547   4.119   9.171   7.572 -0.2474 -0.8113  0.0621
  842MOL0     C13548   4.191   9.101   7.687 -0.3679  0.4093 -0.0312
  842MOL0     C13549   4.339   9.140   7.712  0.3552  0.7598 -0.7882
  842MOL0     C13550   4.348   9.290   7.734 -0.3408  0.4073 -0.7948
  842MOL0     C13551   4.477   9.347   7.785  0.4539 -0.5194  0.2601
  842MOL0     N13552   4.578   9.332   7.679 -0.2538  0.5610  0.0278
  842MOL0     C13553   4.609   9.419   7.575 -0.2356  0.0043 -0.0407
  842MOL0     C13554   4.689   9.338   7.489  0.5542 -0.1563 -0.3803
  842MOL0     C13555   4.727   9.371   7.345  0.8093  0.5648 -0.3926
  842MOL0     C13556   4.708   9.521   7.302 -0.9792 -0.0548  0.0624
  842MOL0     C13557   4.720   9.554   7.157  0.5196  0.6779 -0.5949
  842MOL0     C13558   4.632   9.469   7.058 -1.4178 -0.0463  0.3453
  842MOL0     O13559   4.508   9.544   7.043 -0.2739 -0.4436 -0.6686
  842MOL0     C13560   4.434   9.534   6.923  0.0790  1.5636  0.3813
  842MOL0     C13561   4.452   9.433   6.827  0.1048  0.2745  0.6218
  842MOL0     C13562   4.380   9.419   6.705 -0.8148 -0.0876 -0.6720
  842MOL0     C13563   4.435   9.318   6.608 -1.3580 -0.0462 -0.1438
  842MOL0     C13564   4.271   9.505   6.689  0.4549 -0.0469 -0.0698
  842MOL0     C13565   4.176   9.496   6.576  0.6432  0.5024  0.0251
  842MOL0     O13566   4.123   9.616   6.528 -0.0968  0.3081  0.0482
  842MOL0     C13567   4.003   9.635   6.460 -0.2422  0.7469  0.6692
  842MOL0     C13568   3.884   9.549   6.461 -0.7300  0.3571 -0.1438
  842MOL0     C13569   3.765   9.587   6.408 -0.6537  0.1632  0.4124
  842MOL0     C13570   3.749   9.719   6.358 -1.5137 -0.3518 -0.1565
  842MOL0     O13571   3.630   9.780   6.336  0.5596  0.4047 -0.1327
  842MOL0     C13572   3.534   9.757   6.443  0.5673  0.9684  0.2004
  842MOL0     C13573   3.553   9.848   6.574  0.3684 -0.2199 -0.0781
  842MOL0     C13574   3.659   9.781   6.661  0.7504 -1.1091 -0.5279
  842MOL0     C13575   3.640   9.832   6.791 -0.3412  0.4152 -0.0363
  842MOL0     C13576   3.684   9.742   6.906  0.0066 -0.1665  0.4499
  842MOL0     C13577   3.835   9.710   6.909 -0.8432  1.2643 -0.6899
  842MOL0     C13578   3.902   9.593   6.822 -0.6106 -0.0044 -0.9461
  842MOL0     C13579   3.969   9.485   6.919  0.2220 -0.2930 -0.5594
  842MOL0    Cl13580   3.830   9.412   7.016  0.2192  0.3114  0.3481
  842MOL0     C13581   3.857   9.803   6.361  0.0868 -0.0649 -0.2133
  842MOL0     C13582   3.987   9.763   6.407  0.3813  0.3605  0.0085
  842MOL0     O13583   4.143   9.386   6.529  0.4493 -0.8188  0.0196
  842MOL0     C13584   4.261   9.609   6.784 -0.0276 -0.4106  0.0867
  842MOL0     C13585   4.342   9.630   6.894 -0.4404  0.5041  1.3388
  842MOL0     N13586   4.723   9.224   7.546  0.6642  0.2803 -0.5155
  842MOL0     N13587   4.661   9.226   7.657  0.0843  0.1000 -0.3979
  842MOL0     C13588   3.754   9.552   7.543 -0.1143  0.7105  0.5792
  842MOL0     C13589   3.663   9.663   7.546  0.5861  0.1713  0.3378
  842MOL0     C13590   3.284   9.866   7.357 -0.1103  0.0011 -0.1904
  842MOL0     C13591   3.177   9.833   7.423  0.2660  0.4415 -0.1675
  842MOL0     C13592   3.056   9.896   7.408 -0.0811  0.9898 -0.1643
  842MOL0     C13593   3.044  10.003   7.321 -0.2573  0.3311  0.4056
  842MOL0     O13594   2.934  10.075   7.291  0.5815  0.1928  0.6425
  842MOL0     C13595   2.814  10.017   7.335  0.6795  0.2422  0.3151
  842MOL0     C13596   2.691  10.103   7.287 -0.5002  0.4604 -0.2126
  842MOL0     C13597   2.707  10.129   7.133 -0.4266 -0.1838 -0.3649
  842MOL0     C13598   2.572  10.181   7.076  0.7227  0.1696  0.5466
  842MOL0     C13599   2.607  10.238   6.946 -0.2794 -0.0868  0.7507
  842MOL0     C13600   2.635  10.278   6.829  0.5270  0.0277 -0.1311
  842MOL0     C13601   3.162  10.043   7.251 -0.2381 -0.3289  0.9408
  842MOL0     C13602   3.274   9.966   7.260 -0.0161  0.3111  0.9000
  842MOL0     H13603   3.381   9.484   7.458  0.6216 -0.3581 -0.6113
  842MOL0     H13604   3.561   9.308   7.435 -2.7929 -1.2353  1.0467
  842MOL0     H13605   3.724   9.167   7.402 -1.3314  1.7387  1.1946
  842MOL0     H13606   3.818   9.287   7.302  0.4619  2.8209  1.9438
  842MOL0     H13607   3.938   9.061   7.324  1.4417 -1.8874  1.3809
  842MOL0     H13608   4.017   9.221   7.341 -2.3765  3.8263  2.1159
  842MOL0     H13609   3.905   9.098   7.584 -0.9542  1.8270 -0.9696
  842MOL0     H13610   4.022   9.001   7.502  0.8897  1.1280 -1.6071
  842MOL0     H13611   4.192   9.182   7.492  0.4989  0.1003  0.8505
  842MOL0     H13612   4.085   9.270   7.603  0.9226 -0.6229  0.8224
  842MOL0     H13613   4.149   9.116   7.787 -1.8573 -2.8071 -0.0205
  842MOL0     H13614   4.183   8.994   7.667  0.9612  0.3405 -0.2846
  842MOL0     H13615   4.363   9.080   7.800  1.4589 -1.2755 -2.3857
  842MOL0     H13616   4.407   9.101   7.636  1.0053  2.9305 -1.4003
  842MOL0     H13617   4.324   9.318   7.631  2.0471 -0.6350 -1.7021
  842MOL0     H13618   4.272   9.316   7.808  1.3195 -0.9533  1.5387
  842MOL0     H13619   4.501   9.306   7.884  0.8494 -1.1988 -0.1113
  842MOL0     H13620   4.454   9.451   7.810 -4.3495 -0.7858 -1.8652
  842MOL0     H13621   4.568   9.520   7.571 -0.4431 -0.1091 -1.2390
  842MOL0     H13622   4.830   9.335   7.346  1.4892  2.1004  3.4095
  842MOL0     H13623   4.676   9.315   7.266  3.2292 -0.7510 -1.1513
  842MOL0     H13624   4.782   9.581   7.355 -0.2478 -0.6243 -0.2912
  842MOL0     H13625   4.609   9.559   7.331 -0.3766  2.5828 -1.0676
  842MOL0     H13626   4.825   9.541   7.130 -0.2610  0.3144 -3.9674
  842MOL0     H13627   4.693   9.658   7.136 -0.9427  0.5061  0.2866
  842MOL0     H13628   4.618   9.363   7.079  0.0886 -0.4098 -0.3211
  842MOL0     H13629   4.680   9.472   6.960 -1.7011  2.3525  0.2226
  842MOL0     H13630   4.531   9.362   6.849  1.8069  0.7765 -3.2148
  842MOL0     H13631   4.404   9.342   6.506 -0.0183 -0.2786 -0.6242
  842MOL0     H13632   4.544   9.304   6.609 -1.5259 -1.5748 -0.7079
  842MOL0     H13633   4.388   9.220   6.620 -1.0236  0.0250  2.5862
  842MOL0     H13634   3.893   9.456   6.516  1.5976 -0.4352 -1.6862
  842MOL0     H13635   3.680   9.522   6.428 -0.1535 -0.3477  0.8953
  842MOL0     H13636   3.434   9.776   6.403  1.0045 -1.0321 -2.0792
  842MOL0     H13637   3.524   9.653   6.476 -2.5408  1.4276  1.0144
  842MOL0     H13638   3.582   9.948   6.539  0.0882  0.2116  0.8917
  842MOL0     H13639   3.456   9.873   6.619 -0.2839  2.2371 -2.5362
  842MOL0     H13640   3.756   9.813   6.622 -0.4721  2.6581 -0.8215
  842MOL0     H13641   3.654   9.672   6.669 -2.2197 -1.2152 -2.4082
  842MOL0     H13642   3.685   9.928   6.819  0.5719  0.3660 -1.2665
  842MOL0     H13643   3.537   9.840   6.826  0.3359  2.7133  1.7378
  842MOL0     H13644   3.623   9.651   6.897  1.8075 -1.2163 -3.7161
  842MOL0     H13645   3.659   9.794   6.998  0.5197  0.8974  0.0008
  842MOL0     H13646   3.902   9.791   6.880  0.9459 -0.5531 -1.8979
  842MOL0     H13647   3.863   9.677   7.010  0.9343 -1.0510 -1.8587
  842MOL0     H13648   3.981   9.624   6.753 -0.7810  1.8943 -0.3554
  842MOL0     H13649   3.825   9.544   6.762 -0.1638 -0.6012 -1.0325
  842MOL0     H13650   4.035   9.536   6.991 -0.1961  1.1364 -1.1574
  842MOL0     H13651   4.025   9.409   6.864 -0.2923 -0.9180 -0.2274
  842MOL0     H13652   3.859   9.905   6.325 -0.9072 -0.0735 -0.3251
  842MOL0     H13653   4.063   9.841   6.397 -1.9833  2.9636  0.9402
  842MOL0     H13654   4.186   9.687   6.780  3.1071  3.0268  1.8297
  842MOL0     H13655   4.330   9.722   6.951  0.4151  0.7472  1.1456
  842MOL0     H13656   3.852   9.580   7.581 -0.7992 -0.2503  3.2721
  842MOL0     H13657   3.690   9.768   7.558 -3.0571  1.2633  0.2856
  842MOL0     H13658   3.179   9.760   7.503 -2.5864 -1.3619 -1.5665
  842MOL0     H13659   2.967   9.864   7.461 -0.0295 -2.0933 -1.6803
  842MOL0     H13660   2.807   9.925   7.276  2.4708 -0.3055  0.9064
  842MOL0     H13661   2.812   9.999   7.443  0.3565 -1.4218  0.0610
  842MOL0     H13662   2.702  10.200   7.335 -0.8201 -0.2744  1.3899
  842MOL0     H13663   2.590  10.069   7.311 -0.0127 -1.6265 -0.8946
  842MOL0     H13664   2.741  10.042   7.077 -2.4855  0.1071 -2.2047
  842MOL0     H13665   2.792  10.194   7.109  0.6661 -1.5205 -0.1917
  842MOL0     H13666   2.543  10.265   7.140  1.4589  0.7021  0.2028
  842MOL0     H13667   2.492  10.107   7.070 -0.3484  1.3894 -2.4225
  842MOL0     H13668   2.643  10.313   6.728 -1.3507  2.1430  0.3528
  842MOL0     H13669   3.158  10.133   7.190 -0.1737 -0.1041  1.2686
  842MOL0     H13670   3.359   9.993   7.198 -1.2665  2.0244 -0.1873
  843MOL0     O13671   0.202  10.255   0.515  0.2618  0.4545 -0.0048
  843MOL0     C13672   0.211  10.304   0.626  0.8350  0.4796 -0.5423
  843MOL0     O13673   0.141  10.421   0.663  0.9035  0.9287 -0.5066
  843MOL0     C13674   0.018  10.445   0.607  0.3110 -0.3789  0.9038
  843MOL0     C13675  -0.026  10.576   0.585  0.1361 -0.2950  0.2775
  843MOL0     C13676  -0.160  10.594   0.532  0.0401 -0.1181 -0.8356
  843MOL0     C13677  -0.242  10.493   0.505 -0.0116  0.1657 -0.2272
  843MOL0     O13678  -0.364  10.526   0.464 -0.0093 -0.6262 -0.3644
  843MOL0     C13679  -0.475  10.456   0.520 -0.0208  0.1020  0.2851
  843MOL0     C13680  -0.592  10.559   0.509  0.2841 -1.1778 -0.6538
  843MOL0     C13681  -0.733  10.511   0.537 -0.2404  0.1697 -0.2906
  843MOL0     C13682  -0.856  10.590   0.490 -0.7052 -0.2327 -0.1160
  843MOL0     C13683  -0.988  10.524   0.521  0.7547  1.0005 -1.6065
  843MOL0     C13684  -1.110  10.587   0.461  0.4605 -1.1312 -0.2366
  843MOL0     C13685  -1.171  10.707   0.543 -0.3497  0.0909  0.4937
  843MOL0     C13686  -1.235  10.811   0.453  0.7504  0.1425  0.5484
  843MOL0     N13687  -1.325  10.760   0.339 -0.1669 -0.7813  0.0525
  843MOL0     C13688  -1.284  10.724   0.216 -0.2000 -0.3006  0.1803
  843MOL0     C13689  -1.393  10.664   0.164  1.0148 -0.1310  0.1302
  843MOL0     C13690  -1.404  10.587   0.036 -0.1796 -0.4702  0.9035
  843MOL0     C13691  -1.384  10.662  -0.103 -0.1333 -0.9061  0.7222
  843MOL0     C13692  -1.299  10.788  -0.100 -0.1037 -0.8031 -0.4005
  843MOL0     C13693  -1.152  10.756  -0.122  0.0313  1.0502 -1.1086
  843MOL0     O13694  -1.104  10.638  -0.041 -0.2201  0.3327  0.5571
  843MOL0     C13695  -0.968  10.613  -0.034  0.4361 -0.4116 -0.5393
  843MOL0     C13696  -0.938  10.520   0.053 -0.5884  0.4820  0.6205
  843MOL0     C13697  -0.811  10.485   0.070 -0.6869 -0.7290  0.3180
  843MOL0     C13698  -0.772  10.380   0.178 -0.8677 -0.1076 -0.3589
  843MOL0     C13699  -0.712  10.530  -0.020  0.0978 -1.1533 -0.1744
  843MOL0     C13700  -0.571  10.472  -0.022 -0.4203 -0.2683 -0.1690
  843MOL0     O13701  -0.462  10.551  -0.008  0.8998  0.2510  0.5620
  843MOL0     C13702  -0.343  10.485  -0.005 -0.0254 -1.9081 -0.2616
  843MOL0     C13703  -0.264  10.492   0.118 -0.7046 -0.2487  0.0655
  843MOL0     C13704  -0.139  10.435   0.137 -0.4239  0.0805 -0.3606
  843MOL0     C13705  -0.084  10.364   0.023  0.5828 -0.4732 -0.3230
  843MOL0     O13706   0.040  10.299   0.011 -1.0663  0.5720  0.3499
  843MOL0     C13707   0.114  10.311   0.135 -0.4838 -0.4977 -0.6729
  843MOL0     C13708   0.236  10.230   0.152 -0.5254  0.2191 -0.1771
  843MOL0     C13709   0.212  10.079   0.121 -1.1111 -0.2860  0.0533
  843MOL0     C13710   0.116  10.014   0.226 -0.1796  0.0935 -0.0498
  843MOL0     C13711   0.089   9.864   0.205  0.9963 -0.2234 -0.0138
  843MOL0     C13712  -0.021   9.809   0.300 -0.4609  0.3379  0.1402
  843MOL0     C13713   0.005   9.830   0.446 -0.0665 -0.0341  0.1937
  843MOL0     C13714  -0.067   9.736   0.543 -0.2683  0.2981  0.5534
  843MOL0    Cl13715  -0.077   9.799   0.708 -0.2775  0.0067 -0.0627
  843MOL0     C13716  -0.157  10.367  -0.092 -0.5689  0.5945  0.4993
  843MOL0     C13717  -0.290  10.422  -0.116 -0.6259  0.2251  0.4103
  843MOL0     O13718  -0.569  10.352  -0.048 -0.3368 -0.1125  0.4836
  843MOL0     C13719  -0.741  10.630  -0.111  0.1663 -0.2562 -0.3823
  843MOL0     C13720  -0.875  10.669  -0.117  0.0943 -0.3494  0.4272
  843MOL0     N13721  -1.486  10.658   0.266 -0.3592  0.2035  0.6827
  843MOL0     N13722  -1.455  10.727   0.369  0.2585  0.3921  0.8437
  843MOL0     C13723  -0.199  10.363   0.508 -0.4953  0.6413 -0.9072
  843MOL0     C13724  -0.075  10.346   0.573 -0.3199 -0.0581 -0.7281
  843MOL0     C13725   0.298  10.250   0.740  0.6517 -0.6469 -0.2338
  843MOL0     C13726   0.410  10.176   0.705  0.3476 -0.0410  0.7382
  843MOL0     C13727   0.499  10.127   0.802  0.5183 -0.6346 -0.0055
  843MOL0     C13728   0.477  10.171   0.933  0.0801  0.0759 -0.2156
  843MOL0     O13729   0.577  10.137   1.024  0.4968  0.3102  1.1963
  843MOL0     C13730   0.568  10.020   1.100  0.6031 -0.7618  0.2575
  843MOL0     C13731   0.672  10.017   1.217 -0.3821  0.3562  0.6280
  843MOL0     C13732   0.817   9.978   1.174 -0.5908  0.3791  0.3424
  843MOL0     C13733   0.902  10.107   1.170  0.3582 -0.3519 -0.2842
  843MOL0     C13734   1.044  10.082   1.180 -0.3080  0.3187 -0.0090
  843MOL0     C13735   1.161  10.067   1.217  0.0767  0.2310 -0.0075
  843MOL0     C13736   0.365  10.248   0.965  0.2126  0.2828  0.1675
  843MOL0     C13737   0.274  10.295   0.870 -0.9479  0.5939  0.5522
  843MOL0     H13738   0.032  10.664   0.608  0.7191  0.1129 -2.4496
  843MOL0     H13739  -0.199  10.696   0.532 -1.1191 -0.5256 -2.6970
  843MOL0     H13740  -0.502  10.376   0.450 -0.2775  0.4978 -0.0686
  843MOL0     H13741  -0.461  10.417   0.622 -3.8651 -1.8772  0.2824
  843MOL0     H13742  -0.581  10.637   0.585 -1.1249 -0.2503 -1.3561
  843MOL0     H13743  -0.590  10.606   0.411 -0.2660  3.2851  1.2386
  843MOL0     H13744  -0.727  10.408   0.502  5.3903 -0.3435  1.2680
  843MOL0     H13745  -0.737  10.501   0.646  2.2571 -3.8332 -0.3989
  843MOL0     H13746  -0.855  10.696   0.517  1.5081 -0.5633  1.4956
  843MOL0     H13747  -0.835  10.598   0.383  0.8195 -0.4607  0.1312
  843MOL0     H13748  -0.981  10.424   0.478  1.2144 -0.6004  1.8955
  843MOL0     H13749  -1.008  10.513   0.628  2.2120  1.1009 -1.3094
  843MOL0     H13750  -1.093  10.627   0.361  3.0837 -1.0740  0.1712
  843MOL0     H13751  -1.177  10.501   0.452  1.5576 -2.0907  0.4106
  843MOL0     H13752  -1.248  10.665   0.609 -1.4179 -1.1364 -1.4398
  843MOL0     H13753  -1.086  10.754   0.594  1.3870 -4.0722  1.8236
  843MOL0     H13754  -1.149  10.871   0.419  2.0534 -0.3728  2.7610
  843MOL0     H13755  -1.291  10.883   0.513  0.4382  0.9554 -0.6618
  843MOL0     H13756  -1.186  10.727   0.170  0.2679 -2.9761  0.8766
  843MOL0     H13757  -1.317  10.522   0.027  1.8423  2.3434 -2.9133
  843MOL0     H13758  -1.496  10.528   0.037 -0.4393 -0.0636  1.6640
  843MOL0     H13759  -1.479  10.688  -0.152  1.6593  1.8419 -1.6595
  843MOL0     H13760  -1.346  10.598  -0.183 -1.5389 -0.2060 -0.5640
  843MOL0     H13761  -1.304  10.846  -0.008 -1.6488  2.1754 -2.2031
  843MOL0     H13762  -1.331  10.848  -0.186 -1.6509 -2.2770 -0.9338
  843MOL0     H13763  -1.104  10.848  -0.091 -3.7605  2.9080 -0.1489
  843MOL0     H13764  -1.122  10.737  -0.226  2.1749 -0.1776 -0.3235
  843MOL0     H13765  -1.011  10.466   0.113 -1.0964  0.8796  0.3645
  843MOL0     H13766  -0.850  10.380   0.255  0.4883  0.3628  1.0439
  843MOL0     H13767  -0.772  10.285   0.123 -2.3877 -1.8712  2.4400
  843MOL0     H13768  -0.676  10.399   0.226 -0.7450 -3.3917  0.9791
  843MOL0     H13769  -0.313  10.544   0.200  0.4114  2.0939 -0.6524
  843MOL0     H13770  -0.101  10.440   0.238 -1.4288 -3.2611  0.3182
  843MOL0     H13771   0.145  10.412   0.161  0.7336 -2.0726  5.4956
  843MOL0     H13772   0.048  10.276   0.215  0.4564 -2.0514 -0.5212
  843MOL0     H13773   0.298  10.285   0.081  0.0301 -0.6871 -0.4010
  843MOL0     H13774   0.290  10.258   0.243  3.1031  3.3194 -2.9278
  843MOL0     H13775   0.309  10.029   0.121  0.3454  2.3251  0.0146
  843MOL0     H13776   0.174  10.066   0.019  0.4454 -0.3137 -0.5459
  843MOL0     H13777   0.152  10.032   0.327  2.9746  1.4375 -1.2642
  843MOL0     H13778   0.014  10.050   0.208 -0.1487 -1.5531 -5.2338
  843MOL0     H13779   0.183   9.809   0.220  1.5591  0.8997  0.7873
  843MOL0     H13780   0.042   9.834   0.111  0.0382  2.3472 -0.4194
  843MOL0     H13781  -0.120   9.845   0.270 -0.6865 -0.0842  0.3688
  843MOL0     H13782  -0.033   9.701   0.294  3.0278 -0.4163  3.4309
  843MOL0     H13783  -0.042   9.925   0.473 -0.5995 -0.4898  0.9335
  843MOL0     H13784   0.112   9.840   0.465  0.6809 -1.4487 -2.7907
  843MOL0     H13785  -0.013   9.641   0.536  2.5995  1.9146 -1.8869
  843MOL0     H13786  -0.171   9.727   0.510 -1.2573 -0.6101  3.6261
  843MOL0     H13787  -0.106  10.328  -0.179  0.2083  2.4973  0.0535
  843MOL0     H13788  -0.341  10.412  -0.212 -1.4008  0.9929  0.7326
  843MOL0     H13789  -0.662  10.666  -0.176  1.0209 -0.3499  0.5743
  843MOL0     H13790  -0.911  10.732  -0.198 -1.1249 -2.5009 -0.8051
  843MOL0     H13791  -0.262  10.284   0.469  0.1539  0.9276 -2.6109
  843MOL0     H13792  -0.045  10.243   0.592  0.2333  0.2984  0.4038
  843MOL0     H13793   0.417  10.144   0.601 -0.3148  0.5012  0.5141
  843MOL0     H13794   0.583  10.071   0.764  1.4502  1.9202 -2.0516
  843MOL0     H13795   0.468  10.027   1.145 -0.1940  1.4414 -1.6482
  843MOL0     H13796   0.563   9.932   1.034 -1.2062 -1.6655  1.5025
  843MOL0     H13797   0.644   9.939   1.288  2.6831 -0.8463  0.6906
  843MOL0     H13798   0.671  10.120   1.252  0.7943  2.1972 -4.0060
  843MOL0     H13799   0.799   9.924   1.081 -0.0213 -3.6673  2.3562
  843MOL0     H13800   0.855   9.897   1.237 -1.6391 -1.1817 -0.9531
  843MOL0     H13801   0.873  10.181   1.245 -0.9271  1.6900 -2.6834
  843MOL0     H13802   0.897  10.159   1.074  1.4598 -1.7130 -1.1075
  843MOL0     H13803   1.263  10.054   1.248 -1.5613 -2.9857  5.5044
  843MOL0     H13804   0.347  10.262   1.071 -0.2941 -2.0641  0.4363
  843MOL0     H13805   0.193  10.363   0.895  1.1921  2.9489  1.4502
  844MOL0     O13806   4.930   1.761   9.933  0.3276  0.0554 -0.1113
  844MOL0     C13807   4.931   1.747  10.051  0.2806  0.4259  0.9420
  844MOL0     O13808   4.958   1.627  10.115 -0.4069  0.7660  1.0638
  844MOL0     C13809   4.981   1.518  10.038 -0.4384  0.5065  0.1370
  844MOL0     C13810   5.101   1.500   9.963 -0.4138 -0.7460  0.3669
  844MOL0     C13811   5.126   1.378   9.893 -0.2248 -0.4126  0.4849
  844MOL0     C13812   5.026   1.286   9.892 -0.1058 -0.4660 -0.0078
  844MOL0     O13813   5.029   1.175   9.802  0.1993  0.2135 -0.1993
  844MOL0     C13814   5.025   1.049   9.868  0.0028  0.7313 -0.2745
  844MOL0     C13815   5.012   0.951   9.749 -0.8816 -0.6392 -1.0959
  844MOL0     C13816   4.993   0.803   9.793 -0.0134 -0.1600  0.3766
  844MOL0     C13817   5.120   0.728   9.841 -0.2126  0.7288  0.5875
  844MOL0     C13818   5.109   0.570   9.844 -0.1097  0.5993  0.5347
  844MOL0     C13819   5.155   0.502   9.715  0.5487 -0.4607  0.4991
  844MOL0     C13820   5.228   0.382   9.748 -0.3654  0.5734 -0.0753
  844MOL0     C13821   5.148   0.268   9.796  0.7782  0.6646 -1.4594
  844MOL0     N13822   5.234   0.149   9.779  0.1647 -0.0667  0.0518
  844MOL0     C13823   5.241   0.072   9.665  0.4442 -0.1008 -0.1111
  844MOL0     C13824   5.313  -0.037   9.699  0.2498 -0.3968 -0.9018
  844MOL0     C13825   5.344  -0.165   9.627 -0.4160  0.3914  0.5963
  844MOL0     C13826   5.429  -0.129   9.512  0.5145 -0.0888 -0.7061
  844MOL0     C13827   5.443  -0.250   9.411 -0.3852  1.1955  0.2954
  844MOL0     C13828   5.542  -0.220   9.300  0.4756 -0.4744  0.4356
  844MOL0     O13829   5.658  -0.156   9.345 -0.5414 -0.5550  0.6601
  844MOL0     C13830   5.740  -0.096   9.251  0.7759  0.1146  0.1850
  844MOL0     C13831   5.749  -0.116   9.113 -0.2993 -0.2445 -0.2448
  844MOL0     C13832   5.858  -0.080   9.042  0.6600 -0.7158  0.5072
  844MOL0     C13833   5.861  -0.123   8.893  0.0919 -0.4871 -0.0571
  844MOL0     C13834   5.959  -0.004   9.107 -0.1716 -0.5747  0.1657
  844MOL0     C13835   6.079   0.050   9.036 -0.2336  0.4517  0.1724
  844MOL0     O13836   6.124  -0.011   8.926 -0.1338  0.7042 -0.6163
  844MOL0     C13837   6.204   0.053   8.835 -0.0050  0.6199 -0.4133
  844MOL0     C13838   6.156   0.133   8.736  0.0329  1.0631  1.0662
  844MOL0     C13839   6.242   0.178   8.642 -0.3723 -0.0105  0.3580
  844MOL0     C13840   6.372   0.125   8.630  0.5432 -0.8340 -0.8057
  844MOL0     O13841   6.471   0.151   8.543  0.8613  0.2954  0.3029
  844MOL0     C13842   6.443   0.224   8.422  0.2089 -0.0461 -0.0496
  844MOL0     C13843   6.558   0.214   8.328  0.5144  0.0604  0.6600
  844MOL0     C13844   6.525   0.282   8.194 -0.9797 -0.5817  0.1664
  844MOL0     C13845   6.659   0.340   8.135 -0.6281  0.1315  0.1065
  844MOL0     C13846   6.643   0.404   7.998 -0.0442  0.4706  0.1768
  844MOL0     C13847   6.542   0.521   7.977 -0.0537 -0.2560  0.7186
  844MOL0     C13848   6.546   0.593   7.836  0.1521 -0.1495 -0.8912
  844MOL0     C13849   6.673   0.683   7.833 -0.2606 -0.7234  0.5889
  844MOL0    Cl13850   6.814   0.591   7.763  0.4711  0.1104  0.2226
  844MOL0     C13851   6.414   0.036   8.730 -0.4778  0.3769  0.7779
  844MOL0     C13852   6.328  -0.005   8.830 -0.7467  0.8111 -0.6130
  844MOL0     O13853   6.138   0.148   9.087  0.8627 -0.2203 -0.3195
  844MOL0     C13854   5.948   0.020   9.244 -0.2220  0.4551 -0.5629
  844MOL0     C13855   5.835  -0.034   9.315 -0.8701 -0.3204  0.3271
  844MOL0     N13856   5.348  -0.024   9.830 -0.3614 -0.2680  0.8939
  844MOL0     N13857   5.301   0.085   9.880 -0.2361  0.0093 -0.5431
  844MOL0     C13858   4.912   1.304   9.972 -0.9775 -0.3977 -0.4989
  844MOL0     C13859   4.887   1.417  10.041 -0.5096  1.1073 -1.2326
  844MOL0     C13860   4.893   1.859  10.145  0.5645  0.0193  0.0738
  844MOL0     C13861   4.909   1.829  10.284  0.0486  0.2265  0.0240
  844MOL0     C13862   4.850   1.913  10.377 -0.5106  0.0036 -0.3128
  844MOL0     C13863   4.808   2.048  10.340  0.7108 -0.1887  0.1779
  844MOL0     O13864   4.773   2.145  10.428 -0.0131  0.7667 -0.1522
  844MOL0     C13865   4.720   2.094  10.550  0.3737  1.1473 -0.5756
  844MOL0     C13866   4.648   2.196  10.639 -0.6668 -0.6212  0.9087
  844MOL0     C13867   4.628   2.132  10.774  0.9347  0.7706 -0.2550
  844MOL0     C13868   4.529   2.214  10.864 -0.8380  0.3408 -0.3675
  844MOL0     C13869   4.590   2.337  10.916 -0.1933 -0.4115  0.0565
  844MOL0     C13870   4.626   2.446  10.964  0.3644 -0.7740  0.1417
  844MOL0     C13871   4.806   2.084  10.204  0.0054 -0.2291  0.1073
  844MOL0     C13872   4.844   1.988  10.107  0.7777  0.2520 -0.1810
  844MOL0     H13873   5.158   1.593   9.962 -2.0924  0.3462 -1.4895
  844MOL0     H13874   5.208   1.369   9.822 -2.7756 -6.2489 -2.3832
  844MOL0     H13875   5.120   1.038   9.921  0.5752  0.2667 -1.3514
  844MOL0     H13876   4.939   1.017   9.928 -0.6929 -0.2147 -1.6900
  844MOL0     H13877   4.911   0.974   9.712 -2.0546  0.7847  2.5091
  844MOL0     H13878   5.097   0.970   9.684  2.8655  0.7093  3.6579
  844MOL0     H13879   4.923   0.789   9.875  0.2491  0.0828  0.6441
  844MOL0     H13880   4.954   0.761   9.700  0.6458 -1.8117  0.8209
  844MOL0     H13881   5.208   0.764   9.787  0.7031 -0.1265  1.4701
  844MOL0     H13882   5.143   0.769   9.940  0.5699  1.8610 -0.0389
  844MOL0     H13883   5.157   0.535   9.936  1.7801 -0.0257 -0.6242
  844MOL0     H13884   5.007   0.534   9.862  0.8200 -2.8653 -0.2762
  844MOL0     H13885   5.073   0.488   9.645 -1.2162 -0.7636  2.5062
  844MOL0     H13886   5.227   0.564   9.661  0.8776 -1.7783 -0.6138
  844MOL0     H13887   5.274   0.343   9.657  2.2331  0.0088  1.3709
  844MOL0     H13888   5.306   0.408   9.820  1.0247  0.1563 -1.3852
  844MOL0     H13889   5.057   0.251   9.739 -0.1646  4.7871 -1.4682
  844MOL0     H13890   5.108   0.273   9.897 -3.7741 -0.2879 -3.0015
  844MOL0     H13891   5.202   0.094   9.566  0.3522 -0.5022 -0.1670
  844MOL0     H13892   5.375  -0.243   9.698 -0.1223  0.7062  0.8145
  844MOL0     H13893   5.262  -0.211   9.571  0.8109 -3.6599  1.7831
  844MOL0     H13894   5.523  -0.106   9.565 -0.1247 -1.3003  1.0354
  844MOL0     H13895   5.385  -0.045   9.458  1.8731  1.4364  0.4211
  844MOL0     H13896   5.343  -0.275   9.375  0.3797 -0.6690 -0.7125
  844MOL0     H13897   5.480  -0.336   9.468  2.4448  0.6607 -2.0735
  844MOL0     H13898   5.494  -0.146   9.236 -1.2865 -1.5203  0.4736
  844MOL0     H13899   5.575  -0.294   9.226 -1.2182  1.7511 -2.7423
  844MOL0     H13900   5.666  -0.166   9.065 -1.2939  1.2047 -0.1201
  844MOL0     H13901   5.774  -0.184   8.867  0.1394 -0.2677 -0.7591
  844MOL0     H13902   5.869  -0.038   8.825 -1.6190  1.2089  1.7404
  844MOL0     H13903   5.955  -0.179   8.880  1.1327  0.7451  1.6951
  844MOL0     H13904   6.053   0.166   8.744 -0.1666  1.7487 -2.5017
  844MOL0     H13905   6.212   0.240   8.557  2.9862 -0.6427 -1.4527
  844MOL0     H13906   6.350   0.191   8.375  0.0140 -0.9570  0.9243
  844MOL0     H13907   6.438   0.324   8.466  0.1439  0.5456 -1.3577
  844MOL0     H13908   6.642   0.255   8.386  0.5179 -0.5323  1.0755
  844MOL0     H13909   6.582   0.109   8.310 -1.1120 -0.1841 -0.2593
  844MOL0     H13910   6.451   0.363   8.203 -0.7681 -0.1857 -1.3113
  844MOL0     H13911   6.485   0.202   8.131 -2.8303 -0.8586  1.5828
  844MOL0     H13912   6.695   0.421   8.198 -1.8821  1.7199 -1.1216
  844MOL0     H13913   6.731   0.258   8.136  0.2731  0.9081  0.3230
  844MOL0     H13914   6.614   0.326   7.928  2.6036  0.3064 -0.8390
  844MOL0     H13915   6.742   0.437   7.965  1.3261 -1.8556  1.6551
  844MOL0     H13916   6.439   0.488   7.987 -2.0764  3.8971 -2.9344
  844MOL0     H13917   6.565   0.596   8.054 -0.1625  0.3039  0.2183
  844MOL0     H13918   6.457   0.656   7.827  0.8877  0.9649 -0.5297
  844MOL0     H13919   6.551   0.526   7.750  3.0597  0.9650 -1.6970
  844MOL0     H13920   6.707   0.707   7.934 -1.5851  0.8116  0.7209
  844MOL0     H13921   6.654   0.769   7.767  2.9063 -0.9060 -0.7222
  844MOL0     H13922   6.510  -0.014   8.720 -0.5671  0.1275  1.1511
  844MOL0     H13923   6.348  -0.082   8.904 -0.9749  0.3523 -1.0192
  844MOL0     H13924   6.031   0.062   9.300  1.2584 -0.6492 -1.8448
  844MOL0     H13925   5.833  -0.032   9.423  3.8504  0.0855  0.6261
  844MOL0     H13926   4.839   1.224   9.966  1.8377 -3.3452  1.2508
  844MOL0     H13927   4.803   1.424  10.109  0.6046 -1.7131  0.5964
  844MOL0     H13928   4.954   1.739  10.325 -2.0808  0.0055  2.1198
  844MOL0     H13929   4.866   1.887  10.482  0.6460  1.3114 -0.1280
  844MOL0     H13930   4.648   2.013  10.535  0.9151  0.4018  0.7555
  844MOL0     H13931   4.797   2.049  10.613 -1.3761  1.6843  2.0928
  844MOL0     H13932   4.557   2.233  10.591  0.6832 -0.4592 -1.7182
  844MOL0     H13933   4.707   2.288  10.653 -1.6567  0.0797  0.5938
  844MOL0     H13934   4.720   2.125  10.832 -0.8620 -1.5138  2.6680
  844MOL0     H13935   4.592   2.028  10.773  0.3057  0.9831 -0.0633
  844MOL0     H13936   4.516   2.150  10.952  2.1913  1.7105  1.2147
  844MOL0     H13937   4.431   2.238  10.820 -0.5300  1.5040 -0.4629
  844MOL0     H13938   4.657   2.543  10.997  0.1690 -0.8230  0.4742
  844MOL0     H13939   4.756   2.177  10.178 -0.0009 -0.3049 -0.1534
  844MOL0     H13940   4.815   2.003  10.003  0.2464 -1.1305 -0.2468
  845MOL0     O13941   7.762   2.829   2.913  0.4153  0.0413  0.1479
  845MOL0     C13942   7.818   2.726   2.964  0.6111  0.4636 -0.7210
  845MOL0     O13943   7.751   2.613   3.021 -0.3495 -0.5235 -0.3814
  845MOL0     C13944   7.614   2.595   3.012  0.0109 -0.7242 -0.6033
  845MOL0     C13945   7.515   2.698   3.040  0.7620 -0.1355 -0.8547
  845MOL0     C13946   7.382   2.687   2.996  0.2009  0.3748  0.3881
  845MOL0     C13947   7.336   2.577   2.930  0.4886 -0.5190 -0.1290
  845MOL0     O13948   7.205   2.554   2.887 -0.1047  0.5330 -0.6230
  845MOL0     C13949   7.098   2.621   2.953 -0.3351  0.0521 -0.0840
  845MOL0     C13950   6.990   2.626   2.857 -0.8748 -0.7501 -0.0405
  845MOL0     C13951   6.985   2.757   2.775  0.4478  0.3058 -0.0166
  845MOL0     C13952   7.103   2.758   2.676 -0.2407  0.1059 -1.0440
  845MOL0     C13953   7.114   2.874   2.593 -0.2675 -0.0831  1.1799
  845MOL0     C13954   7.010   2.884   2.479 -0.0397  0.5907  0.3278
  845MOL0     C13955   7.014   3.016   2.412  0.3474 -1.0202  0.3590
  845MOL0     C13956   6.899   3.036   2.319  0.4005  0.3134  0.2781
  845MOL0     N13957   6.765   3.043   2.376  0.4572 -0.2637 -0.2262
  845MOL0     C13958   6.714   3.149   2.441  0.4151  0.6509 -0.5283
  845MOL0     C13959   6.586   3.124   2.458  0.5975  0.2660  0.6165
  845MOL0     C13960   6.496   3.211   2.541  0.3033  0.6309 -0.3465
  845MOL0     C13961   6.349   3.169   2.523  0.9197 -0.7848  0.7737
  845MOL0     C13962   6.291   3.209   2.384 -0.0482 -0.1709 -0.6779
  845MOL0     C13963   6.221   3.337   2.373  0.6116 -0.4354 -0.0891
  845MOL0     O13964   6.190   3.366   2.224 -0.5249  0.7018 -0.1793
  845MOL0     C13965   6.152   3.488   2.172  0.4222 -1.1237 -0.6351
  845MOL0     C13966   6.125   3.497   2.032 -0.9275 -0.4796 -0.2082
  845MOL0     C13967   6.076   3.621   1.982 -0.0952  0.5688  0.9377
  845MOL0     C13968   6.056   3.611   1.840  1.5982  0.2367 -0.0702
  845MOL0     C13969   6.046   3.734   2.067 -0.0535  0.1259  0.2263
  845MOL0     C13970   5.999   3.865   2.011 -0.1258 -0.1522 -1.0426
  845MOL0     O13971   5.997   3.973   2.102 -0.5365 -0.1068 -0.0831
  845MOL0     C13972   5.969   4.096   2.055  0.6621  0.3089 -0.3112
  845MOL0     C13973   6.020   4.142   1.932  0.2579  0.3282 -0.1266
  845MOL0     C13974   5.981   4.267   1.879 -0.1372 -0.6896 -0.1223
  845MOL0     C13975   5.895   4.341   1.954 -0.3744  0.0844 -0.5582
  845MOL0     O13976   5.855   4.464   1.890  0.4432 -0.7180  0.0121
  845MOL0     C13977   5.715   4.502   1.888  0.1678 -0.0498  1.1581
  845MOL0     C13978   5.684   4.599   1.770 -1.1493 -0.3068  0.2874
  845MOL0     C13979   5.746   4.569   1.632 -0.9744 -0.3834  0.5354
  845MOL0     C13980   5.652   4.615   1.518  1.2375 -0.6816  0.4235
  845MOL0     C13981   5.698   4.563   1.384  0.3494  0.7698  0.4429
  845MOL0     C13982   5.824   4.627   1.308  0.9527  0.5890  0.3743
  845MOL0     C13983   5.916   4.519   1.243 -0.5350 -0.7154  0.3591
  845MOL0     C13984   5.987   4.411   1.339 -0.2389 -0.6018 -0.9093
  845MOL0    Cl13985   6.057   4.519   1.463  0.0706 -0.1655  0.1822
  845MOL0     C13986   5.844   4.305   2.078  0.4455 -0.9555 -0.4345
  845MOL0     C13987   5.881   4.175   2.128  0.4099  0.9177  0.0322
  845MOL0     O13988   5.953   3.872   1.891 -0.0254 -0.3960 -0.1443
  845MOL0     C13989   6.080   3.723   2.202  0.0941 -0.1731 -0.7894
  845MOL0     C13990   6.129   3.602   2.255 -0.3998  0.3758  0.6089
  845MOL0     N13991   6.555   3.010   2.391  0.1373 -0.7612  0.7448
  845MOL0     N13992   6.668   2.950   2.351  0.1417 -0.0636  0.5097
  845MOL0     C13993   7.430   2.473   2.902 -0.4816 -0.8398  0.2497
  845MOL0     C13994   7.565   2.485   2.944 -1.6167 -0.0531  0.2356
  845MOL0     C13995   7.966   2.741   2.979 -0.0957  0.6533 -0.3158
  845MOL0     C13996   8.040   2.636   3.037  1.0264 -0.0998  0.0271
  845MOL0     C13997   8.181   2.644   3.046 -0.6626 -0.0020  0.3107
  845MOL0     C13998   8.253   2.753   2.996  0.0073 -0.3484 -0.1679
  845MOL0     O13999   8.385   2.759   3.030  0.4885  0.0506  0.8702
  845MOL0     C14000   8.477   2.812   2.931 -0.1684 -0.0173 -0.4382
  845MOL0     C14001   8.600   2.878   3.006  0.2256 -0.5156  0.9648
  845MOL0     C14002   8.724   2.878   2.917 -0.6846 -0.3653  0.2380
  845MOL0     C14003   8.840   2.938   3.003 -0.1867  0.6843  0.1396
  845MOL0     C14004   8.956   2.961   2.916 -0.7416 -0.6941  0.6448
  845MOL0     C14005   9.041   2.979   2.836 -0.4554  0.3085  0.6412
  845MOL0     C14006   8.182   2.859   2.940  0.6337  0.3536 -0.5677
  845MOL0     C14007   8.037   2.851   2.931  0.2620  0.6860 -0.0713
  845MOL0     H14008   7.541   2.797   3.076 -1.2984 -0.1332  0.8148
  845MOL0     H14009   7.311   2.767   3.009 -3.2734 -2.3973  0.0053
  845MOL0     H14010   7.067   2.570   3.044 -2.0941  1.7523  0.3403
  845MOL0     H14011   7.116   2.727   2.976  2.8876 -0.2747 -0.6514
  845MOL0     H14012   7.000   2.537   2.796  1.0438  0.1382 -1.1014
  845MOL0     H14013   6.888   2.612   2.895 -0.9316  1.8397  1.0000
  845MOL0     H14014   6.890   2.743   2.722  0.7938  1.3814 -0.9823
  845MOL0     H14015   6.981   2.847   2.837 -1.0218  0.3250 -0.0979
  845MOL0     H14016   7.186   2.756   2.747 -2.1317  1.1749  1.3570
  845MOL0     H14017   7.122   2.668   2.617 -0.7487 -0.3304 -0.5543
  845MOL0     H14018   7.113   2.960   2.661 -0.7207 -0.6996  1.9689
  845MOL0     H14019   7.215   2.880   2.551 -0.6129 -1.7496  0.0221
  845MOL0     H14020   7.022   2.795   2.416  0.8949 -1.0571  2.6950
  845MOL0     H14021   6.909   2.870   2.520  1.5008  0.3423  4.5000
  845MOL0     H14022   7.005   3.096   2.486  1.9008  1.4116 -1.8894
  845MOL0     H14023   7.101   3.031   2.347 -2.0952  1.9742 -2.5756
  845MOL0     H14024   6.915   2.961   2.241  4.0705  4.0587 -3.0257
  845MOL0     H14025   6.923   3.133   2.275 -1.9876  1.7745  1.9824
  845MOL0     H14026   6.769   3.230   2.488  0.4494 -0.2552  1.0500
  845MOL0     H14027   6.530   3.181   2.640 -2.0848  1.1571  0.6910
  845MOL0     H14028   6.517   3.316   2.519 -0.9171  0.7294 -1.1094
  845MOL0     H14029   6.285   3.199   2.606  1.8907 -3.7247  2.7623
  845MOL0     H14030   6.328   3.063   2.543  1.4343 -0.4936  3.1882
  845MOL0     H14031   6.233   3.121   2.355  1.8526 -1.2129 -1.5398
  845MOL0     H14032   6.368   3.212   2.306 -0.0042 -1.5915 -0.7193
  845MOL0     H14033   6.286   3.421   2.400 -0.9558  0.1353  2.2008
  845MOL0     H14034   6.130   3.341   2.433 -1.1457 -4.5649 -2.1026
  845MOL0     H14035   6.155   3.408   1.977  2.6993 -0.1903  1.0219
  845MOL0     H14036   5.947   3.603   1.828  1.6599 -1.9376  0.2912
  845MOL0     H14037   6.083   3.699   1.781  0.0609  0.3405 -0.6715
  845MOL0     H14038   6.098   3.521   1.794 -1.0609 -0.8059 -0.6933
  845MOL0     H14039   6.093   4.081   1.880  1.5560  0.8356  1.0336
  845MOL0     H14040   6.016   4.287   1.779 -0.7855  1.2987  0.0160
  845MOL0     H14041   5.656   4.410   1.881 -0.9475  0.6590  0.9179
  845MOL0     H14042   5.709   4.565   1.978  6.7294  2.2284  0.5400
  845MOL0     H14043   5.575   4.615   1.776 -0.7536  2.5162  2.1348
  845MOL0     H14044   5.728   4.698   1.784  1.1211 -0.6426 -3.3789
  845MOL0     H14045   5.756   4.460   1.623 -0.6792 -0.3350  0.2636
  845MOL0     H14046   5.846   4.611   1.620 -0.9986  0.0227  1.6132
  845MOL0     H14047   5.559   4.559   1.531 -0.6766  1.6278 -2.2425
  845MOL0     H14048   5.643   4.724   1.511  0.3411 -0.8921 -3.7115
  845MOL0     H14049   5.617   4.570   1.311  1.0649  1.2928 -0.3336
  845MOL0     H14050   5.714   4.456   1.401  5.5622  1.3693  1.1458
  845MOL0     H14051   5.779   4.684   1.225  0.7938 -0.9524 -0.6323
  845MOL0     H14052   5.887   4.691   1.371  1.5346 -0.3167  0.7158
  845MOL0     H14053   5.982   4.577   1.179 -2.1182  0.5064 -0.2072
  845MOL0     H14054   5.852   4.467   1.171  1.0698  0.5869 -2.1539
  845MOL0     H14055   6.059   4.355   1.279  0.3536 -1.0142  0.1683
  845MOL0     H14056   5.915   4.344   1.386  1.3903 -1.0725  1.0542
  845MOL0     H14057   5.773   4.370   2.130 -1.6697 -1.6322 -2.3290
  845MOL0     H14058   5.832   4.123   2.210  0.6418  1.1582  0.3285
  845MOL0     H14059   6.050   3.796   2.277 -0.0109 -0.8316 -0.1773
  845MOL0     H14060   6.150   3.598   2.361 -1.4528 -5.1122  0.9028
  845MOL0     H14061   7.396   2.386   2.847 -3.0967 -0.5970  1.3017
  845MOL0     H14062   7.646   2.430   2.899 -1.6475  1.6839 -2.1473
  845MOL0     H14063   7.990   2.549   3.079 -2.7015  0.4906 -2.6151
  845MOL0     H14064   8.236   2.567   3.100 -2.9119 -0.1943  2.5020
  845MOL0     H14065   8.523   2.732   2.873 -0.0958 -0.6671  0.4908
  845MOL0     H14066   8.434   2.896   2.875 -1.3744 -0.0506  0.3876
  845MOL0     H14067   8.631   2.830   3.099 -1.2424 -3.3966  0.0734
  845MOL0     H14068   8.569   2.982   3.025 -0.7288 -0.0961 -2.3140
  845MOL0     H14069   8.712   2.935   2.825 -0.6524 -0.8439 -0.0694
  845MOL0     H14070   8.755   2.779   2.882  3.9542  1.2989 -1.1750
  845MOL0     H14071   8.855   2.854   3.072  0.5712  0.7609  0.0682
  845MOL0     H14072   8.816   3.027   3.062 -1.4047 -0.5296  1.5996
  845MOL0     H14073   9.125   2.998   2.773 -0.8583 -0.1051 -0.0269
  845MOL0     H14074   8.240   2.946   2.911  2.8938 -0.7870  0.3080
  845MOL0     H14075   7.980   2.929   2.880  1.3516 -0.3381 -3.0550
  846MOL0     O14076   7.653  11.074   4.518 -0.7061 -0.2126  1.3510
  846MOL0     C14077   7.544  11.082   4.577 -0.4765  0.6159 -0.1442
  846MOL0     O14078   7.447  10.987   4.570  0.2565  0.1795 -0.3341
  846MOL0     C14079   7.473  10.878   4.493  0.7757  0.6019  0.6798
  846MOL0     C14080   7.559  10.787   4.541 -0.5778 -0.5249  0.0402
  846MOL0     C14081   7.573  10.668   4.474 -0.5068  0.5808 -0.4888
  846MOL0     C14082   7.513  10.641   4.354  0.6007  0.2736 -0.2432
  846MOL0     O14083   7.518  10.511   4.307 -0.3377 -0.0453  0.5473
  846MOL0     C14084   7.495  10.490   4.169 -0.0003 -0.1169  0.1726
  846MOL0     C14085   7.540  10.348   4.112 -0.5717  0.5276 -0.1102
  846MOL0     C14086   7.682  10.348   4.050  0.1844 -0.2368  0.6620
  846MOL0     C14087   7.729  10.196   4.025  0.3291 -0.4090 -0.7107
  846MOL0     C14088   7.858  10.187   3.943 -0.3636  0.8543  0.0482
  846MOL0     C14089   7.976  10.206   4.032 -0.4726 -0.5133 -0.1948
  846MOL0     C14090   8.091  10.278   3.964 -0.4105 -0.1648 -0.2065
  846MOL0     C14091   8.147  10.222   3.830  0.2237 -0.5615  0.1720
  846MOL0     N14092   8.183  10.077   3.829 -1.7914 -0.8324  0.5815
  846MOL0     C14093   8.275  10.036   3.915 -0.5979  1.2233 -0.1651
  846MOL0     C14094   8.259   9.898   3.917  0.6284 -0.0189 -0.7839
  846MOL0     C14095   8.342   9.803   3.993 -0.5288  0.3185  0.0413
  846MOL0     C14096   8.485   9.793   3.947  0.3138 -0.4342 -0.5301
  846MOL0     C14097   8.509   9.833   3.803 -0.4320 -0.4299 -0.7550
  846MOL0     C14098   8.437   9.739   3.700 -0.2199  0.6702 -0.0212
  846MOL0     O14099   8.509   9.607   3.697  0.9018 -0.1606  0.2292
  846MOL0     C14100   8.490   9.522   3.584 -0.4674 -0.5451  1.0006
  846MOL0     C14101   8.517   9.381   3.594  0.8390 -0.0237 -0.2326
  846MOL0     C14102   8.496   9.290   3.485  0.8854  1.0537  0.2249
  846MOL0     C14103   8.515   9.142   3.492 -0.2921  0.0632 -0.2392
  846MOL0     C14104   8.439   9.339   3.365  0.7699 -0.3306 -0.8420
  846MOL0     C14105   8.382   9.261   3.253 -0.4551  0.1566 -0.2245
  846MOL0     O14106   8.460   9.265   3.146  0.4193  0.4338  0.0164
  846MOL0     C14107   8.456   9.155   3.056 -0.0967  0.5072 -0.4783
  846MOL0     C14108   8.480   9.025   3.097 -0.7474 -1.0329  0.2410
  846MOL0     C14109   8.507   8.925   2.997  0.2603  0.1661 -1.0237
  846MOL0     C14110   8.487   8.956   2.859 -0.3001  0.4300  0.9303
  846MOL0     O14111   8.509   8.844   2.777 -0.2717  0.1164  0.5536
  846MOL0     C14112   8.393   8.810   2.699  0.5336  0.2348  0.4850
  846MOL0     C14113   8.379   8.659   2.687  0.7834 -1.0258 -0.6866
  846MOL0     C14114   8.363   8.583   2.825 -0.9833  0.5386 -0.7482
  846MOL0     C14115   8.234   8.619   2.903  0.0976  1.3833  0.0413
  846MOL0     C14116   8.107   8.569   2.827 -0.0866  0.3457  0.6137
  846MOL0     C14117   7.996   8.527   2.922  0.0010  0.0082  1.1038
  846MOL0     C14118   7.883   8.449   2.847  0.8208  0.8406 -0.1573
  846MOL0     C14119   7.742   8.462   2.912  0.2063 -0.2679 -0.5181
  846MOL0    Cl14120   7.757   8.472   3.095 -0.2128 -0.0977  0.0362
  846MOL0     C14121   8.461   9.087   2.821 -0.0764  0.2976  0.2129
  846MOL0     C14122   8.457   9.186   2.920 -0.3033 -0.2378 -0.2440
  846MOL0     O14123   8.285   9.186   3.268 -0.0208 -0.5290  0.1102
  846MOL0     C14124   8.411   9.479   3.367 -0.0230  0.1018  0.3139
  846MOL0     C14125   8.441   9.569   3.466 -0.8406  1.0164  0.3537
  846MOL0     N14126   8.151   9.865   3.838  0.5585  0.0162 -0.1769
  846MOL0     N14127   8.105   9.975   3.787 -1.0095  0.2254 -0.7011
  846MOL0     C14128   7.428  10.743   4.305  0.4176  0.2863  0.6364
  846MOL0     C14129   7.408  10.861   4.372  0.0077 -0.8077 -0.0677
  846MOL0     C14130   7.517  11.208   4.671 -0.6537 -0.0629 -0.1525
  846MOL0     C14131   7.590  11.330   4.643  0.2799  0.5639  0.3406
  846MOL0     C14132   7.590  11.444   4.720 -0.4652 -0.5419 -0.4251
  846MOL0     C14133   7.516  11.436   4.839  0.5499  0.4048  1.0683
  846MOL0     O14134   7.521  11.541   4.921  0.0344  0.5177  0.8397
  846MOL0     C14135   7.426  11.555   5.025 -0.6369  1.2064 -0.4245
  846MOL0     C14136   7.441  11.684   5.115 -0.2461  0.0808  0.9509
  846MOL0     C14137   7.417  11.801   5.023  0.8111  0.0176  0.6676
  846MOL0     C14138   7.422  11.928   5.106 -0.2471 -0.0753  0.0613
  846MOL0     C14139   7.441  12.042   5.020  0.6436 -0.1963  0.6263
  846MOL0     C14140   7.460  12.142   4.941  0.5844  0.4363 -0.3738
  846MOL0     C14141   7.440  11.318   4.869  0.0102  0.2063 -0.0631
  846MOL0     C14142   7.442  11.206   4.785 -0.6041 -1.5874  0.1411
  846MOL0     H14143   7.603  10.796   4.639 -2.4380  1.7961  0.7833
  846MOL0     H14144   7.649  10.610   4.525  3.6262  5.3980 -0.3772
  846MOL0     H14145   7.387  10.482   4.159 -0.2092  0.8310  1.4733
  846MOL0     H14146   7.536  10.572   4.109 -0.3997  0.1984  0.3270
  846MOL0     H14147   7.527  10.271   4.190 -1.2383  1.5882  0.8510
  846MOL0     H14148   7.472  10.314   4.034 -1.1694 -1.9031  1.3669
  846MOL0     H14149   7.675  10.400   3.954  1.1330  0.8941  1.1863
  846MOL0     H14150   7.757  10.392   4.116  3.8775  1.6896 -4.2055
  846MOL0     H14151   7.741  10.130   4.111 -1.9087 -2.9644 -2.1889
  846MOL0     H14152   7.647  10.145   3.973  2.3019 -3.4366 -1.1013
  846MOL0     H14153   7.859  10.087   3.898 -1.5592 -0.3845  2.5257
  846MOL0     H14154   7.862  10.259   3.861 -1.6257  0.8109 -0.0781
  846MOL0     H14155   7.952  10.268   4.120  0.1587  1.1163 -1.1327
  846MOL0     H14156   8.001  10.109   4.076  1.8188 -0.4429 -1.2165
  846MOL0     H14157   8.053  10.379   3.948 -0.1152  0.0467  0.3836
  846MOL0     H14158   8.176  10.284   4.033  0.1222 -0.8710 -0.7822
  846MOL0     H14159   8.238  10.280   3.808 -0.1719  0.2397  0.5886
  846MOL0     H14160   8.073  10.244   3.753 -0.1153 -2.4654 -0.0792
  846MOL0     H14161   8.354  10.091   3.965  1.2544 -0.2993 -1.2736
  846MOL0     H14162   8.333   9.806   4.102  0.4732 -1.5393  0.2000
  846MOL0     H14163   8.300   9.703   3.978  1.2504 -0.4322 -0.0825
  846MOL0     H14164   8.497   9.687   3.970  0.3671 -0.5254 -0.9657
  846MOL0     H14165   8.555   9.850   4.009 -0.3040  0.4958 -0.6772
  846MOL0     H14166   8.616   9.827   3.780 -0.1539  2.9818 -0.8660
  846MOL0     H14167   8.495   9.938   3.778  2.7122  0.0576 -0.8964
  846MOL0     H14168   8.451   9.793   3.606 -3.5422 -1.7762 -2.1751
  846MOL0     H14169   8.328   9.729   3.709 -0.7192  2.0115 -3.1847
  846MOL0     H14170   8.550   9.338   3.688  1.1865  3.0101  1.1766
  846MOL0     H14171   8.536   9.118   3.597 -2.0249 -0.3271  0.0572
  846MOL0     H14172   8.418   9.095   3.471 -1.1745  2.3200 -1.5370
  846MOL0     H14173   8.592   9.104   3.424  0.9775  1.8051  0.1711
  846MOL0     H14174   8.498   9.013   3.204 -1.1261  0.9848  0.5788
  846MOL0     H14175   8.536   8.824   3.022  3.3558  0.3705 -3.2547
  846MOL0     H14176   8.297   8.851   2.731  0.3254  0.6885 -0.6370
  846MOL0     H14177   8.404   8.850   2.597  0.5102 -4.8504 -1.8274
  846MOL0     H14178   8.291   8.636   2.626 -0.3388 -0.5164  0.6884
  846MOL0     H14179   8.471   8.630   2.634  1.4802  0.9478 -0.6184
  846MOL0     H14180   8.453   8.603   2.884  0.0388 -2.9625 -0.8809
  846MOL0     H14181   8.371   8.476   2.805 -0.1434  0.0445  1.8433
  846MOL0     H14182   8.237   8.561   2.996 -1.5783  1.1448 -0.0241
  846MOL0     H14183   8.229   8.724   2.933  0.4933  1.0883  1.2287
  846MOL0     H14184   8.134   8.476   2.775 -0.4555 -0.9227  2.5806
  846MOL0     H14185   8.069   8.655   2.773 -0.1416  0.6483  1.1336
  846MOL0     H14186   8.025   8.467   3.009  1.5101 -1.7914 -0.5864
  846MOL0     H14187   7.948   8.614   2.969 -1.7432 -1.4821  2.1807
  846MOL0     H14188   7.910   8.343   2.844  2.6411  1.2781 -1.0155
  846MOL0     H14189   7.876   8.482   2.743 -0.9608  0.2775 -0.2505
  846MOL0     H14190   7.670   8.385   2.882  1.0406 -0.5490 -1.8703
  846MOL0     H14191   7.695   8.556   2.881  0.1618  0.1242  0.6925
  846MOL0     H14192   8.450   9.108   2.715  3.4975 -2.0152 -0.7699
  846MOL0     H14193   8.438   9.289   2.890 -2.4738 -0.5542 -0.1076
  846MOL0     H14194   8.357   9.505   3.277 -3.2149 -0.4116  1.9324
  846MOL0     H14195   8.396   9.667   3.452 -0.8964  0.6120 -2.8238
  846MOL0     H14196   7.365  10.717   4.221  0.4176  1.7590  0.1495
  846MOL0     H14197   7.339  10.930   4.327  0.0952 -1.1841 -0.7979
  846MOL0     H14198   7.648  11.322   4.552 -1.9148 -0.0051 -1.0722
  846MOL0     H14199   7.634  11.541   4.697  0.5808 -0.4014  1.9245
  846MOL0     H14200   7.331  11.538   4.974 -0.7361  0.3791  0.0262
  846MOL0     H14201   7.443  11.474   5.096 -2.4604 -0.6505 -1.9810
  846MOL0     H14202   7.543  11.697   5.152  0.1362 -0.9181  0.2979
  846MOL0     H14203   7.366  11.682   5.195 -1.1583 -1.1599  0.1061
  846MOL0     H14204   7.322  11.786   4.973  1.3941 -3.7325  0.4309
  846MOL0     H14205   7.505  11.796   4.958  0.1598 -2.4539 -0.1248
  846MOL0     H14206   7.493  11.913   5.187 -0.5834  0.2540  0.4169
  846MOL0     H14207   7.328  11.946   5.159  1.2289  1.9669  2.1499
  846MOL0     H14208   7.474  12.222   4.870 -3.3170 -0.8438 -2.8803
  846MOL0     H14209   7.379  11.301   4.957  1.0849 -0.1593  0.6324
  846MOL0     H14210   7.390  11.122   4.831 -2.0513 -0.3091  0.9187
  847MOL0     O14211   7.331   9.108   1.686 -0.1136  0.2721  0.6074
  847MOL0     C14212   7.423   9.189   1.707  0.1328 -0.2694 -0.6702
  847MOL0     O14213   7.400   9.328   1.733  0.0178  0.0574 -0.0059
  847MOL0     C14214   7.289   9.388   1.699  0.4519 -0.0439 -0.9022
  847MOL0     C14215   7.212   9.352   1.585 -0.8995  0.8390 -0.3897
  847MOL0     C14216   7.083   9.412   1.567  0.4052  1.0723 -0.0540
  847MOL0     C14217   7.029   9.499   1.663  0.3666 -0.9859  0.0412
  847MOL0     O14218   6.902   9.545   1.663 -0.1100  0.1228  0.0441
  847MOL0     C14219   6.896   9.687   1.684 -0.4444  0.2337  0.5070
  847MOL0     C14220   6.772   9.738   1.624  0.6982  0.0478 -0.4507
  847MOL0     C14221   6.743   9.672   1.483 -0.1455 -0.3440  0.3519
  847MOL0     C14222   6.861   9.691   1.383  0.3644 -0.4972 -0.1708
  847MOL0     C14223   6.815   9.619   1.258  0.4342  0.1732  0.1265
  847MOL0     C14224   6.908   9.624   1.135 -1.1982 -0.0321  0.0303
  847MOL0     C14225   7.012   9.516   1.138 -0.3770  0.2198 -0.0864
  847MOL0     C14226   7.130   9.551   1.036  0.5753 -0.1991 -0.1593
  847MOL0     N14227   7.243   9.462   1.058 -0.1264  0.0047 -0.3742
  847MOL0     C14228   7.299   9.422   1.175 -0.1185 -0.2632  0.4095
  847MOL0     C14229   7.411   9.354   1.146 -0.1456 -0.4256 -0.9029
  847MOL0     C14230   7.503   9.284   1.231  0.2001  0.3569 -0.4348
  847MOL0     C14231   7.575   9.384   1.326 -0.3763  0.3196 -0.1029
  847MOL0     C14232   7.642   9.511   1.262  0.4579 -0.0605 -0.6300
  847MOL0     C14233   7.761   9.475   1.168  0.1930 -0.3002 -0.3230
  847MOL0     O14234   7.810   9.591   1.109 -0.2781  0.2080 -0.0053
  847MOL0     C14235   7.739   9.667   1.022  0.6672 -0.1084  0.4264
  847MOL0     C14236   7.648   9.610   0.929 -0.5161  0.4777  0.5916
  847MOL0     C14237   7.604   9.690   0.829 -0.2636 -0.0877 -0.2099
  847MOL0     C14238   7.531   9.626   0.710 -0.3991 -0.3806  0.5865
  847MOL0     C14239   7.642   9.829   0.822 -0.2435  0.5165 -0.2477
  847MOL0     C14240   7.601   9.915   0.707 -0.3189 -1.0688  0.8723
  847MOL0     O14241   7.492   9.995   0.716 -0.6731  0.9237  1.1536
  847MOL0     C14242   7.447  10.038   0.591  0.0054  0.0110 -1.3824
  847MOL0     C14243   7.524  10.133   0.521  0.2252 -0.1075  0.3954
  847MOL0     C14244   7.471  10.194   0.405 -0.0319 -1.2610  0.0407
  847MOL0     C14245   7.341  10.159   0.363  0.2645 -1.0675  0.3909
  847MOL0     O14246   7.303  10.207   0.235 -0.1273  0.2032 -0.7601
  847MOL0     C14247   7.159  10.225   0.224 -0.1876 -0.5480  0.6553
  847MOL0     C14248   7.144  10.367   0.162 -0.6648 -0.5280  1.5225
  847MOL0     C14249   7.000  10.408   0.186 -0.7290 -0.1524  0.7006
  847MOL0     C14250   6.934  10.513   0.086  0.1194 -0.1988  0.7249
  847MOL0     C14251   6.930  10.465  -0.065  0.0549  0.4715  0.3147
  847MOL0     C14252   6.870  10.569  -0.160  0.5605  0.5257 -0.6535
  847MOL0     C14253   6.872  10.557  -0.315 -0.0159  0.7126  1.3782
  847MOL0     C14254   6.769  10.638  -0.399  0.0533 -0.4147 -0.2266
  847MOL0    Cl14255   6.600  10.619  -0.348 -0.2248 -0.2498  0.3350
  847MOL0     C14256   7.261  10.077   0.446 -0.1807  0.5578  0.2879
  847MOL0     C14257   7.311  10.008   0.559 -0.7680  0.3073  0.0278
  847MOL0     O14258   7.659   9.893   0.606 -0.1682 -0.3913  0.4922
  847MOL0     C14259   7.727   9.883   0.924  0.4458 -0.6041  0.7986
  847MOL0     C14260   7.776   9.795   1.022  0.1785 -0.0306  0.7704
  847MOL0     N14261   7.408   9.339   1.011 -0.0385 -0.2953 -0.1149
  847MOL0     N14262   7.304   9.399   0.956  0.2510 -0.3212  0.4225
  847MOL0     C14263   7.115   9.530   1.784 -0.3129 -0.1244 -0.3041
  847MOL0     C14264   7.241   9.477   1.799 -0.0849  0.4128 -0.5191
  847MOL0     C14265   7.564   9.154   1.683  0.0095 -0.1217  0.0327
  847MOL0     C14266   7.664   9.209   1.766 -0.4073 -0.5487 -0.3419
  847MOL0     C14267   7.798   9.177   1.743  0.1584 -0.6611  0.3540
  847MOL0     C14268   7.834   9.093   1.639 -0.1086  0.7176 -0.6096
  847MOL0     O14269   7.955   9.034   1.599  0.1068 -0.2080 -0.5485
  847MOL0     C14270   8.074   9.045   1.678  0.8525 -0.0506 -0.8907
  847MOL0     C14271   8.072   8.956   1.801  0.0874 -0.6365 -0.0157
  847MOL0     C14272   8.047   8.813   1.784 -0.0473 -0.4162 -0.0755
  847MOL0     C14273   8.169   8.745   1.712 -0.0704  0.0470  0.6180
  847MOL0     C14274   8.287   8.735   1.801 -0.2288 -0.3943 -0.2086
  847MOL0     C14275   8.388   8.725   1.866  0.2970  1.6553  0.2247
  847MOL0     C14276   7.735   9.046   1.551  0.2216 -0.2252 -0.0448
  847MOL0     C14277   7.599   9.080   1.574 -0.8272 -0.0564  0.0161
  847MOL0     H14278   7.249   9.285   1.509 -3.1812 -0.2908 -0.5841
  847MOL0     H14279   7.025   9.396   1.477  0.4430 -3.4136  0.4814
  847MOL0     H14280   6.896   9.703   1.792 -2.4159 -1.5986  0.8523
  847MOL0     H14281   6.978   9.736   1.630 -0.0637 -1.6537 -0.7348
  847MOL0     H14282   6.693   9.697   1.687  0.7898 -0.0197 -0.3801
  847MOL0     H14283   6.770   9.848   1.626  0.4659  0.0872  3.0182
  847MOL0     H14284   6.735   9.563   1.492 -1.4425 -0.3346 -0.3149
  847MOL0     H14285   6.649   9.714   1.445 -0.6620 -0.7512  1.1565
  847MOL0     H14286   6.884   9.796   1.366  2.1635 -0.9133 -0.5855
  847MOL0     H14287   6.947   9.633   1.419 -1.7769 -4.1041 -0.4015
  847MOL0     H14288   6.789   9.514   1.271 -0.9836  0.3667 -0.8594
  847MOL0     H14289   6.726   9.674   1.228  0.8627 -0.1176 -1.8650
  847MOL0     H14290   6.851   9.613   1.042 -0.4119  1.3395 -0.6498
  847MOL0     H14291   6.962   9.718   1.119 -0.5756 -0.3922 -0.0387
  847MOL0     H14292   7.050   9.512   1.240 -1.0392  2.0878  0.2816
  847MOL0     H14293   6.967   9.423   1.102 -0.6660  0.2516  0.1999
  847MOL0     H14294   7.161   9.648   1.075  3.2483 -1.8269  2.1746
  847MOL0     H14295   7.099   9.548   0.932  2.3301  1.5742 -0.7950
  847MOL0     H14296   7.261   9.416   1.276 -2.3834  0.8730 -0.2920
  847MOL0     H14297   7.445   9.205   1.280  0.3148  1.0916  0.9357
  847MOL0     H14298   7.585   9.235   1.177 -0.5437  0.3867 -1.6219
  847MOL0     H14299   7.646   9.315   1.371 -1.5460 -2.2784 -1.9257
  847MOL0     H14300   7.514   9.416   1.411 -1.5337  0.2702 -0.8934
  847MOL0     H14301   7.674   9.572   1.347 -0.8125  1.2485 -1.0532
  847MOL0     H14302   7.574   9.573   1.203  0.4431 -0.7211 -1.3268
  847MOL0     H14303   7.732   9.402   1.092  0.7299  1.3517 -2.1823
  847MOL0     H14304   7.833   9.441   1.244 -2.6518 -0.3900  2.5847
  847MOL0     H14305   7.623   9.505   0.936 -1.3522  0.5869 -0.4675
  847MOL0     H14306   7.486   9.528   0.729  1.5468 -1.2423  1.0415
  847MOL0     H14307   7.445   9.688   0.682 -0.3177  1.7207  4.3712
  847MOL0     H14308   7.607   9.627   0.631 -1.0253  1.2304 -0.0342
  847MOL0     H14309   7.623  10.159   0.557  0.5580 -1.9603  0.9147
  847MOL0     H14310   7.528  10.266   0.348  1.8673  0.1272  3.3914
  847MOL0     H14311   7.113  10.158   0.150 -1.9539  1.7087 -0.4495
  847MOL0     H14312   7.110  10.236   0.321  0.3879  4.2468  0.6545
  847MOL0     H14313   7.206  10.447   0.205  0.1956 -0.3230 -0.0226
  847MOL0     H14314   7.159  10.354   0.055 -0.7991 -1.7394  1.6363
  847MOL0     H14315   6.973  10.440   0.287 -1.5056 -2.2671  1.2112
  847MOL0     H14316   6.934  10.322   0.169 -0.2923 -0.0695 -1.6280
  847MOL0     H14317   6.826  10.525   0.100 -0.1774 -0.7927 -0.8648
  847MOL0     H14318   6.977  10.612   0.100  1.6016 -1.0313  2.4057
  847MOL0     H14319   6.874  10.372  -0.075 -1.5921  1.2757  1.5936
  847MOL0     H14320   7.030  10.450  -0.106 -0.5171 -1.7317 -0.4128
  847MOL0     H14321   6.763  10.565  -0.142 -0.2580  0.7022 -4.4699
  847MOL0     H14322   6.903  10.669  -0.130 -2.1655  0.5017  2.9866
  847MOL0     H14323   6.869  10.450  -0.338  1.4865  0.8844  0.2468
  847MOL0     H14324   6.969  10.588  -0.354 -0.6712  0.0142 -0.9910
  847MOL0     H14325   6.785  10.608  -0.503  2.6749  1.9790 -0.6367
  847MOL0     H14326   6.789  10.743  -0.378 -1.4898  0.0079 -0.7092
  847MOL0     H14327   7.155  10.060   0.426 -0.7536  2.9751  0.9790
  847MOL0     H14328   7.254   9.951   0.632  1.9096 -3.6664 -0.7201
  847MOL0     H14329   7.761   9.985   0.905  0.5504 -0.5861  1.0761
  847MOL0     H14330   7.859   9.836   1.078 -0.0023  5.8183 -2.4801
  847MOL0     H14331   7.084   9.607   1.854 -1.4042  0.0912 -1.0044
  847MOL0     H14332   7.312   9.509   1.874 -1.3097 -0.4276  1.0720
  847MOL0     H14333   7.654   9.287   1.841  1.7496 -0.7366  0.2005
  847MOL0     H14334   7.874   9.219   1.808  0.4464 -1.8342  0.7943
  847MOL0     H14335   8.161   9.015   1.619 -1.6148 -0.0442 -4.8605
  847MOL0     H14336   8.078   9.147   1.718 -2.9925 -0.4373  0.8857
  847MOL0     H14337   8.004   9.005   1.871  1.1222 -0.6118  1.0033
  847MOL0     H14338   8.173   8.962   1.844  0.5389  2.5210 -1.2481
  847MOL0     H14339   7.945   8.801   1.745 -0.5101 -1.1039  1.2656
  847MOL0     H14340   8.048   8.763   1.881 -0.1907 -2.8777 -1.2627
  847MOL0     H14341   8.207   8.802   1.627  4.3579  1.1877  3.0670
  847MOL0     H14342   8.145   8.647   1.667  0.4110  0.8715 -1.5671
  847MOL0     H14343   8.473   8.702   1.928 -1.5315 -2.1060  1.6524
  847MOL0     H14344   7.755   8.974   1.473 -1.2687 -0.2984 -0.3981
  847MOL0     H14345   7.525   9.035   1.508 -0.5777  0.3348 -0.5404
  848MOL0     O14346   1.518   4.248   1.406  0.2061 -0.3030 -0.0312
  848MOL0     C14347   1.481   4.322   1.497  0.0729  0.6024  0.3767
  848MOL0     O14348   1.554   4.350   1.611  0.6641 -0.7593 -0.3425
  848MOL0     C14349   1.679   4.312   1.647 -1.4797 -0.6694  0.6388
  848MOL0     C14350   1.768   4.251   1.553 -0.6948 -1.1615 -0.7877
  848MOL0     C14351   1.902   4.224   1.602  0.1230 -0.4078  0.1846
  848MOL0     C14352   1.935   4.252   1.730 -0.3210 -0.4582 -0.8065
  848MOL0     O14353   2.066   4.218   1.770  0.0284  0.6553 -0.1259
  848MOL0     C14354   2.089   4.147   1.892  0.6390 -0.7201  0.2852
  848MOL0     C14355   2.245   4.128   1.907  0.6789 -0.3498  0.4789
  848MOL0     C14356   2.306   4.269   1.911 -0.2005  0.9785  1.1839
  848MOL0     C14357   2.458   4.269   1.925  0.1869 -0.1795 -0.4006
  848MOL0     C14358   2.520   4.410   1.905  0.0357 -0.7072 -0.1568
  848MOL0     C14359   2.617   4.411   1.788  0.1053 -0.4271 -0.3945
  848MOL0     C14360   2.697   4.541   1.781  0.6030 -0.2421  0.8412
  848MOL0     C14361   2.605   4.655   1.719 -0.6847  0.5837 -0.8431
  848MOL0     N14362   2.679   4.780   1.696 -0.0066  0.0153 -0.7690
  848MOL0     C14363   2.661   4.902   1.761  0.2291  0.2979 -0.0976
  848MOL0     C14364   2.769   4.972   1.729  0.1381 -0.2472 -0.6713
  848MOL0     C14365   2.799   5.114   1.767 -0.3221  1.1926 -0.5809
  848MOL0     C14366   2.810   5.133   1.920 -0.3159 -0.0711  0.5376
  848MOL0     C14367   2.929   5.222   1.945  0.3974  0.0203  0.3742
  848MOL0     C14368   2.931   5.248   2.095  0.4841  0.0504 -0.5277
  848MOL0     O14369   3.056   5.284   2.155  0.1653  0.2041  0.0774
  848MOL0     C14370   3.128   5.370   2.074 -0.1691  0.9046  0.3114
  848MOL0     C14371   3.090   5.500   2.058  0.0102 -0.4108 -0.3827
  848MOL0     C14372   3.172   5.595   1.991  0.4607 -0.7664 -0.4671
  848MOL0     C14373   3.099   5.720   1.967 -0.5719 -0.0327  0.0237
  848MOL0     C14374   3.298   5.561   1.939 -0.2521  0.0040  1.1485
  848MOL0     C14375   3.402   5.659   1.883  0.5225  0.3039 -0.4089
  848MOL0     O14376   3.506   5.595   1.823 -0.2479 -0.0871  0.1475
  848MOL0     C14377   3.604   5.679   1.775  0.0200 -0.3671 -0.5054
  848MOL0     C14378   3.589   5.735   1.649 -0.7771 -0.0887 -0.3837
  848MOL0     C14379   3.668   5.840   1.607 -0.1819  0.0449  1.0203
  848MOL0     C14380   3.784   5.870   1.677  0.3255  0.3050 -0.1267
  848MOL0     O14381   3.851   5.973   1.618  0.1542  0.4483  0.0715
  848MOL0     C14382   3.990   5.999   1.643  0.2622 -1.2553  0.0901
  848MOL0     C14383   4.023   6.142   1.591  0.1120 -0.2266 -0.1095
  848MOL0     C14384   4.173   6.178   1.614  0.0980  0.8153 -0.7100
  848MOL0     C14385   4.220   6.278   1.509 -0.6593 -0.6082  0.4755
  848MOL0     C14386   4.192   6.422   1.545  0.1524  0.1621  0.2063
  848MOL0     C14387   4.041   6.474   1.551 -0.1328  0.9619 -0.0537
  848MOL0     C14388   4.015   6.623   1.567  0.0897  0.1682  0.5573
  848MOL0     C14389   3.962   6.671   1.437  1.0111 -0.2957 -0.4307
  848MOL0    Cl14390   3.787   6.653   1.420  0.2935  0.4739 -0.3058
  848MOL0     C14391   3.811   5.798   1.800  1.2383 -0.5109  0.2619
  848MOL0     C14392   3.719   5.712   1.849 -0.8293 -0.4018  0.3031
  848MOL0     O14393   3.377   5.774   1.882 -0.3233  0.4193  0.7330
  848MOL0     C14394   3.338   5.424   1.950  0.5974 -1.0496  0.3116
  848MOL0     C14395   3.244   5.331   2.004  0.6620  0.3153 -0.4046
  848MOL0     N14396   2.854   4.894   1.653  0.0232 -0.4776  1.2437
  848MOL0     N14397   2.798   4.784   1.631 -0.4412 -0.0600 -0.2053
  848MOL0     C14398   1.848   4.299   1.827  0.5294  0.6847  0.0059
  848MOL0     C14399   1.723   4.334   1.782 -0.1826 -0.5439  0.5028
  848MOL0     C14400   1.336   4.364   1.487 -0.5211  0.0604 -0.2335
  848MOL0     C14401   1.288   4.445   1.588  0.1712 -0.3519 -0.0450
  848MOL0     C14402   1.149   4.483   1.594  0.4214 -0.3288  0.0618
  848MOL0     C14403   1.064   4.439   1.492  0.2691  0.3809  0.5779
  848MOL0     O14404   0.933   4.484   1.508  0.5724 -0.6059  1.0125
  848MOL0     C14405   0.837   4.453   1.407  0.7817 -0.2550 -0.6204
  848MOL0     C14406   0.709   4.543   1.429  0.6784  0.4935  0.2155
  848MOL0     C14407   0.596   4.490   1.334  0.4292  0.0414 -0.5998
  848MOL0     C14408   0.455   4.538   1.357  0.8147 -1.2097  0.9300
  848MOL0     C14409   0.423   4.519   1.498 -0.1416 -0.1879 -0.5585
  848MOL0     C14410   0.376   4.507   1.607  0.8315 -0.1503  0.1446
  848MOL0     C14411   1.108   4.352   1.389 -0.1256  0.7451 -0.8179
  848MOL0     C14412   1.244   4.320   1.391 -0.4316 -1.4189  0.1702
  848MOL0     H14413   1.744   4.222   1.452 -0.0079  0.1472 -1.3524
  848MOL0     H14414   1.980   4.172   1.547  1.6101  1.5155  0.3585
  848MOL0     H14415   2.044   4.194   1.979  0.2405 -5.2466  2.8515
  848MOL0     H14416   2.048   4.046   1.883 -0.6562 -0.0164 -3.0886
  848MOL0     H14417   2.267   4.083   2.004 -0.0391 -1.4588  0.1489
  848MOL0     H14418   2.278   4.068   1.822  0.5511 -0.1928  0.3165
  848MOL0     H14419   2.293   4.317   1.813  0.5524  0.4668  0.8196
  848MOL0     H14420   2.268   4.342   1.983  1.6713  2.5777  0.6326
  848MOL0     H14421   2.476   4.225   2.023 -1.2531  3.2358  1.5308
  848MOL0     H14422   2.491   4.202   1.844 -1.7588 -0.9558 -0.6141
  848MOL0     H14423   2.437   4.480   1.888 -0.7692 -1.6713 -0.3189
  848MOL0     H14424   2.560   4.435   2.004 -1.8925  2.2202  0.0321
  848MOL0     H14425   2.682   4.324   1.804 -0.3305 -0.8544 -0.9027
  848MOL0     H14426   2.564   4.410   1.692  1.8986  1.0732 -1.4778
  848MOL0     H14427   2.728   4.571   1.881 -0.1220  1.1868  0.6691
  848MOL0     H14428   2.781   4.529   1.713  0.2715 -1.2576  0.5987
  848MOL0     H14429   2.517   4.661   1.785  0.0454 -0.7768  0.3126
  848MOL0     H14430   2.565   4.624   1.622 -0.4436  0.0174 -0.7650
  848MOL0     H14431   2.582   4.930   1.830  0.8859  0.3868  0.6310
  848MOL0     H14432   2.890   5.144   1.715  1.2557 -0.5100  1.0402
  848MOL0     H14433   2.734   5.181   1.711  1.2683  1.3861 -2.2701
  848MOL0     H14434   2.813   5.038   1.974 -0.8793 -0.2495  0.2638
  848MOL0     H14435   2.719   5.190   1.943  0.6676  1.1860  1.4460
  848MOL0     H14436   2.919   5.320   1.898  3.1632 -0.6317 -1.8305
  848MOL0     H14437   3.017   5.174   1.902 -0.2990 -0.9495  0.0084
  848MOL0     H14438   2.900   5.158   2.148 -1.8446  2.0188  1.7817
  848MOL0     H14439   2.853   5.323   2.117  1.3911  1.0024 -0.4800
  848MOL0     H14440   2.999   5.543   2.099  0.5813  2.0865 -1.5425
  848MOL0     H14441   3.004   5.726   2.020 -0.5736  0.3557 -0.0173
  848MOL0     H14442   3.155   5.812   1.989 -0.9379  0.0646  0.5532
  848MOL0     H14443   3.081   5.724   1.859 -0.3025 -1.5570 -0.1026
  848MOL0     H14444   3.502   5.706   1.592 -0.4168 -0.2042 -0.8812
  848MOL0     H14445   3.647   5.887   1.511  0.5155  2.7239  2.0823
  848MOL0     H14446   4.012   5.997   1.751 -1.5664 -1.9787  0.4828
  848MOL0     H14447   4.057   5.928   1.594 -0.9219 -0.0739 -3.5103
  848MOL0     H14448   3.992   6.136   1.486 -3.8082 -1.5520  0.9504
  848MOL0     H14449   3.960   6.220   1.636 -2.2043 -1.5328 -0.8963
  848MOL0     H14450   4.236   6.090   1.599  0.1064  0.7853 -0.5040
  848MOL0     H14451   4.194   6.212   1.716 -3.1820 -1.6687  0.9867
  848MOL0     H14452   4.327   6.274   1.490 -0.7299 -1.0056  0.1508
  848MOL0     H14453   4.184   6.252   1.409  2.0079 -3.4358  0.1169
  848MOL0     H14454   4.241   6.477   1.464  1.4326 -0.7197  0.3557
  848MOL0     H14455   4.249   6.441   1.636  2.3888  2.2143 -1.4599
  848MOL0     H14456   3.993   6.442   1.458 -0.5568 -0.9084  0.7647
  848MOL0     H14457   3.983   6.419   1.625  0.9220 -0.8546 -0.5180
  848MOL0     H14458   4.107   6.680   1.584  1.4576 -1.6105 -0.4810
  848MOL0     H14459   3.947   6.647   1.649  1.2010 -0.8623  1.8484
  848MOL0     H14460   4.012   6.632   1.348 -2.6015 -1.9118 -1.9212
  848MOL0     H14461   3.981   6.779   1.440  1.5561 -0.3474 -1.4431
  848MOL0     H14462   3.904   5.820   1.852  2.1312  3.5967 -2.5391
  848MOL0     H14463   3.751   5.669   1.944 -0.0682 -0.2473  0.1207
  848MOL0     H14464   3.433   5.390   1.911 -0.8135 -1.9757 -2.6515
  848MOL0     H14465   3.277   5.228   2.012 -1.4074 -0.4119 -0.7418
  848MOL0     H14466   1.873   4.309   1.932 -0.4531  0.0214  0.3226
  848MOL0     H14467   1.641   4.375   1.840 -0.2736  0.8310 -0.5367
  848MOL0     H14468   1.347   4.495   1.664  1.2626  2.9527 -2.7945
  848MOL0     H14469   1.107   4.554   1.664 -1.6042 -0.1181 -1.2788
  848MOL0     H14470   0.861   4.478   1.303 -2.6703  1.7657 -1.1274
  848MOL0     H14471   0.794   4.353   1.419 -0.2399  0.1200 -0.9765
  848MOL0     H14472   0.744   4.645   1.408  1.1836 -0.4091 -4.6088
  848MOL0     H14473   0.680   4.525   1.533  0.3221  2.2735  0.4619
  848MOL0     H14474   0.603   4.382   1.345 -0.0403 -0.2366 -2.7078
  848MOL0     H14475   0.614   4.516   1.229  1.8112 -1.4432 -0.7688
  848MOL0     H14476   0.383   4.481   1.298 -1.2136  2.2778 -0.3007
  848MOL0     H14477   0.448   4.643   1.328  1.5673 -1.3812  0.1230
  848MOL0     H14478   0.342   4.493   1.708  0.5033 -2.4065 -0.2290
  848MOL0     H14479   1.049   4.318   1.304 -0.9949  2.6917 -1.0329
  848MOL0     H14480   1.277   4.252   1.313  0.7454 -3.4587  2.3306
  849MOL0     O14481   6.807   4.941  10.958  0.4316 -0.5955  0.6324
  849MOL0     C14482   6.933   4.932  10.948  0.3865  0.4298  0.0477
  849MOL0     O14483   7.025   5.034  10.948 -0.7330 -0.4774 -0.3663
  849MOL0     C14484   6.994   5.174  10.949  1.0992  0.2873  0.8522
  849MOL0     C14485   6.875   5.227  10.898  0.2580 -0.8702  0.1625
  849MOL0     C14486   6.857   5.366  10.898  0.1813 -0.0561  0.3161
  849MOL0     C14487   6.959   5.451  10.945  0.0822  0.4158 -0.4290
  849MOL0     O14488   6.952   5.591  10.948  0.2307 -1.1907  0.0063
  849MOL0     C14489   6.842   5.664  11.013  0.4395  0.4104  0.1007
  849MOL0     C14490   6.800   5.613  11.149 -0.2106  0.6974  0.0759
  849MOL0     C14491   6.687   5.692  11.205 -0.4153  0.6653  0.6613
  849MOL0     C14492   6.678   5.667  11.360  0.2180  0.1379  0.2422
  849MOL0     C14493   6.575   5.753  11.431 -1.1572 -0.5989 -0.4076
  849MOL0     C14494   6.430   5.740  11.378  0.3633 -0.4396  0.1168
  849MOL0     C14495   6.338   5.856  11.413 -0.0893  0.4959  1.2388
  849MOL0     C14496   6.182   5.837  11.448  0.2812 -0.0040  0.4604
  849MOL0     N14497   6.158   5.753  11.566  0.4113 -0.0022  0.1696
  849MOL0     C14498   6.192   5.623  11.581 -0.5027 -0.4074 -1.0969
  849MOL0     C14499   6.171   5.591  11.710 -1.3353 -0.3421 -0.8855
  849MOL0     C14500   6.191   5.447  11.762 -0.6004 -0.6775  0.0744
  849MOL0     C14501   6.323   5.444  11.833  0.5868 -0.2003 -0.3508
  849MOL0     C14502   6.325   5.353  11.960  0.0407  0.1734  0.3357
  849MOL0     C14503   6.453   5.334  12.029 -0.2007 -0.0022  0.1216
  849MOL0     O14504   6.541   5.249  11.958 -0.5989  0.1197 -0.0886
  849MOL0     C14505   6.530   5.114  11.961  0.6219 -0.0127 -0.4576
  849MOL0     C14506   6.637   5.044  11.910 -0.2027 -0.0125  0.6260
  849MOL0     C14507   6.645   4.908  11.905  0.6263 -0.0707  0.9162
  849MOL0     C14508   6.772   4.839  11.861  0.7778 -0.2130 -0.0009
  849MOL0     C14509   6.539   4.827  11.953  0.0187  0.3423  0.0987
  849MOL0     C14510   6.540   4.677  11.981 -0.5790 -0.4242  0.5884
  849MOL0     O14511   6.420   4.624  12.029 -0.2845  0.0374  0.0759
  849MOL0     C14512   6.440   4.496  12.062  0.3152 -0.2730  0.3637
  849MOL0     C14513   6.497   4.452  12.188  0.3661 -0.9668  0.7606
  849MOL0     C14514   6.513   4.320  12.211  0.4404  0.4738 -0.6982
  849MOL0     C14515   6.486   4.223  12.105  0.7824 -0.6365  0.2969
  849MOL0     O14516   6.478   4.088  12.125  0.0312  0.1530 -0.1115
  849MOL0     C14517   6.589   4.020  12.168 -0.2843 -0.8013  1.1267
  849MOL0     C14518   6.594   3.877  12.118 -0.4054 -0.6159 -0.3525
  849MOL0     C14519   6.628   3.863  11.965  0.4151 -0.4166 -0.2485
  849MOL0     C14520   6.687   3.729  11.917 -0.0872  0.2109  0.2249
  849MOL0     C14521   6.722   3.735  11.770  0.0137  0.5208  0.0340
  849MOL0     C14522   6.763   3.603  11.706  0.4447 -0.0227  1.0517
  849MOL0     C14523   6.903   3.557  11.755  0.6160 -0.3301 -0.2139
  849MOL0     C14524   6.951   3.435  11.687 -0.4043 -0.0806  0.4285
  849MOL0    Cl14525   6.827   3.334  11.616 -0.2408 -0.0513 -0.2568
  849MOL0     C14526   6.425   4.262  11.989 -0.6260  0.1896 -0.1690
  849MOL0     C14527   6.410   4.400  11.965 -0.0720 -0.8720 -0.8191
  849MOL0     O14528   6.639   4.611  11.943 -0.1862 -0.1236 -0.9094
  849MOL0     C14529   6.427   4.898  12.005 -0.2575 -0.4649 -0.1945
  849MOL0     C14530   6.414   5.035  12.000 -0.0566 -0.3888  0.4163
  849MOL0     N14531   6.146   5.704  11.782 -0.8660 -0.5763  0.0290
  849MOL0     N14532   6.149   5.799  11.689  0.5704  0.2946  0.5604
  849MOL0     C14533   7.087   5.399  10.976 -0.1117 -0.3918  0.0537
  849MOL0     C14534   7.097   5.257  10.993 -0.7942  0.0426 -0.4245
  849MOL0     C14535   6.984   4.794  10.928  0.2515 -0.7913 -0.0714
  849MOL0     C14536   6.926   4.705  10.831  0.5351 -0.4136  0.7802
  849MOL0     C14537   6.984   4.580  10.813  0.2849  0.0438  0.7363
  849MOL0     C14538   7.086   4.530  10.890  0.2776  0.0502 -0.2990
  849MOL0     O14539   7.126   4.405  10.860  0.6191  0.1887 -0.1684
  849MOL0     C14540   7.220   4.348  10.963 -0.4556 -0.4310  0.0405
  849MOL0     C14541   7.241   4.199  10.927  1.1310  0.4533  0.6512
  849MOL0     C14542   7.138   4.101  10.982  0.5560  1.0803 -0.1824
  849MOL0     C14543   7.142   4.075  11.131  0.1368  0.4327 -0.1541
  849MOL0     C14544   7.241   3.971  11.160 -0.5379  0.5005  0.4460
  849MOL0     C14545   7.321   3.883  11.191  0.7823 -0.4691  0.6688
  849MOL0     C14546   7.137   4.615  10.989 -0.4755  0.8014 -0.1889
  849MOL0     C14547   7.086   4.744  11.012  0.0188 -0.6409 -0.4288
  849MOL0     H14548   6.803   5.162  10.849 -0.3299 -0.8501  0.9738
  849MOL0     H14549   6.759   5.403  10.870 -0.4935 -0.1100  2.4213
  849MOL0     H14550   6.875   5.762  11.049 -2.1783  0.0573  4.0487
  849MOL0     H14551   6.760   5.674  10.941  1.9718  3.9658 -1.3928
  849MOL0     H14552   6.779   5.506  11.140  3.2761  0.0450 -2.5686
  849MOL0     H14553   6.887   5.621  11.214 -0.3985 -1.6721  0.7137
  849MOL0     H14554   6.704   5.799  11.192 -1.1377  0.7324  0.1642
  849MOL0     H14555   6.595   5.678  11.147  0.2529  1.9041 -0.7726
  849MOL0     H14556   6.646   5.565  11.382  1.9218 -0.8055 -1.3371
  849MOL0     H14557   6.777   5.683  11.403  0.4571 -0.4286 -0.0952
  849MOL0     H14558   6.585   5.725  11.537 -2.4887 -0.1585 -0.1455
  849MOL0     H14559   6.603   5.856  11.413 -3.8667 -0.1783 -2.9909
  849MOL0     H14560   6.437   5.743  11.269  6.1598  1.4498  0.1709
  849MOL0     H14561   6.384   5.643  11.401 -5.2716  1.5246 -1.2141
  849MOL0     H14562   6.375   5.899  11.507  0.3664 -0.9991  1.7734
  849MOL0     H14563   6.352   5.917  11.323 -2.9405 -1.3231 -0.6309
  849MOL0     H14564   6.133   5.786  11.364 -0.2883  2.1426 -0.5837
  849MOL0     H14565   6.136   5.936  11.458  1.5177  0.5090  1.3087
  849MOL0     H14566   6.219   5.556  11.500  1.6653  0.3451 -1.0730
  849MOL0     H14567   6.102   5.427  11.823 -0.8961  0.5332  0.0781
  849MOL0     H14568   6.191   5.375  11.680  1.5453  1.0009 -1.5439
  849MOL0     H14569   6.343   5.543  11.874 -0.9905  0.7125 -1.6733
  849MOL0     H14570   6.407   5.433  11.764  1.1575 -0.2048  0.3339
  849MOL0     H14571   6.273   5.257  11.958 -0.7880  0.4433  3.3656
  849MOL0     H14572   6.254   5.391  12.035 -2.4220 -1.7897 -0.8566
  849MOL0     H14573   6.444   5.300  12.132 -1.7332 -0.1299 -0.0388
  849MOL0     H14574   6.499   5.434  12.032  1.0786 -0.4849 -1.6358
  849MOL0     H14575   6.718   5.101  11.864 -1.0894 -0.7200 -2.0031
  849MOL0     H14576   6.817   4.799  11.952 -1.0901 -1.5787  0.3932
  849MOL0     H14577   6.763   4.765  11.781 -0.1562  0.7593 -0.8271
  849MOL0     H14578   6.847   4.914  11.835 -0.8331  1.5666  0.2817
  849MOL0     H14579   6.520   4.523  12.266 -0.4963 -2.1072  2.1018
  849MOL0     H14580   6.556   4.287  12.305  0.8827  0.7226 -0.8084
  849MOL0     H14581   6.681   4.073  12.141 -0.6214 -0.0855  1.3706
  849MOL0     H14582   6.574   4.022  12.276 -2.3646 -3.3441  0.9804
  849MOL0     H14583   6.667   3.820  12.177  0.3679  0.2119 -0.4830
  849MOL0     H14584   6.495   3.837  12.139  0.4407 -1.7213  1.9604
  849MOL0     H14585   6.702   3.938  11.934  0.0592 -0.1301 -0.4067
  849MOL0     H14586   6.536   3.884  11.911 -0.4015 -1.1341  0.8205
  849MOL0     H14587   6.777   3.704  11.975 -0.2260 -1.4610 -0.2176
  849MOL0     H14588   6.610   3.653  11.935  1.8409 -1.6510  1.1615
  849MOL0     H14589   6.799   3.809  11.748 -0.1868  0.7771  0.1931
  849MOL0     H14590   6.633   3.779  11.723  0.6761  1.3350 -0.4806
  849MOL0     H14591   6.685   3.531  11.733  0.9122 -1.4242 -1.0769
  849MOL0     H14592   6.772   3.616  11.598 -1.6871  1.3429  0.9944
  849MOL0     H14593   6.892   3.535  11.862  1.4108  0.6370  0.0885
  849MOL0     H14594   6.969   3.644  11.750 -1.9389  1.8100  0.8193
  849MOL0     H14595   7.001   3.385  11.770  0.0235  1.5589  1.1962
  849MOL0     H14596   7.017   3.456  11.602 -0.9337 -0.7370 -0.1584
  849MOL0     H14597   6.387   4.186  11.922  0.0989  0.6932 -1.1783
  849MOL0     H14598   6.358   4.428  11.874  0.6047  0.2109 -0.8955
  849MOL0     H14599   6.351   4.845  12.061  0.5142 -2.0968 -0.6344
  849MOL0     H14600   6.327   5.095  12.024  1.3738  1.1583  2.0222
  849MOL0     H14601   7.179   5.452  10.998 -0.1038  0.4578 -1.7966
  849MOL0     H14602   7.191   5.213  11.024 -0.8261 -0.3159 -0.8258
  849MOL0     H14603   6.852   4.736  10.758  2.6944  3.1009 -0.1415
  849MOL0     H14604   6.939   4.518  10.736 -2.4430  1.9502  0.6313
  849MOL0     H14605   7.316   4.396  10.947 -0.2479 -1.1706 -1.0297
  849MOL0     H14606   7.187   4.360  11.067  1.2645  0.3762  0.5175
  849MOL0     H14607   7.330   4.167  10.982  0.7814 -0.7706  0.5554
  849MOL0     H14608   7.281   4.177  10.827  0.5305 -1.9103  0.8642
  849MOL0     H14609   7.142   4.007  10.927 -0.4180 -2.2060  4.7183
  849MOL0     H14610   7.041   4.149  10.964 -0.3068 -0.3156  0.6026
  849MOL0     H14611   7.041   4.036  11.148 -0.3388  1.6004 -0.2281
  849MOL0     H14612   7.156   4.161  11.197  2.0621  1.8794 -2.3051
  849MOL0     H14613   7.388   3.805  11.222 -0.2065 -1.0914  1.2691
  849MOL0     H14614   7.205   4.587  11.068 -2.5373 -1.7846  0.8110
  849MOL0     H14615   7.139   4.811  11.080  0.4252 -1.5253  0.1495
  850MOL0     O14616   4.932   9.681   3.855 -0.2576 -0.2084 -0.6243
  850MOL0     C14617   4.909   9.744   3.956  1.2096 -0.2851 -0.1752
  850MOL0     O14618   4.817   9.697   4.054  0.1583 -0.0390  0.0473
  850MOL0     C14619   4.800   9.564   4.072 -0.2598  0.1175  0.5661
  850MOL0     C14620   4.900   9.466   4.038 -0.1569 -0.8585 -0.0240
  850MOL0     C14621   4.855   9.335   4.044  0.7646 -0.7370 -0.0507
  850MOL0     C14622   4.740   9.292   4.111  0.4335 -0.0944  0.0890
  850MOL0     O14623   4.702   9.162   4.106  0.3269  0.4734 -0.7192
  850MOL0     C14624   4.676   9.099   4.240 -0.3053 -0.3453 -0.3801
  850MOL0     C14625   4.568   8.991   4.252 -0.1556  0.2387  0.2970
  850MOL0     C14626   4.551   8.921   4.394 -0.3183 -0.3617  1.2242
  850MOL0     C14627   4.483   9.003   4.499 -0.1648  0.5398 -0.7177
  850MOL0     C14628   4.508   8.951   4.638  0.0029  0.0154 -0.5903
  850MOL0     C14629   4.437   8.821   4.668 -0.3029 -0.4993 -1.0287
  850MOL0     C14630   4.515   8.693   4.709 -0.3921 -0.1204 -0.2940
  850MOL0     C14631   4.609   8.640   4.597  0.5252  1.1252  0.8001
  850MOL0     N14632   4.640   8.495   4.626 -0.3102  0.1141  0.4073
  850MOL0     C14633   4.748   8.464   4.707 -0.0232  0.2924  0.1245
  850MOL0     C14634   4.736   8.335   4.737 -0.2371  0.8828  1.0168
  850MOL0     C14635   4.830   8.247   4.807  0.2145 -0.4055  0.8018
  850MOL0     C14636   4.827   8.270   4.963 -0.2119 -0.3946  0.8668
  850MOL0     C14637   4.941   8.190   5.030 -0.4028 -0.4587 -0.0641
  850MOL0     C14638   5.035   8.095   4.946  1.2056  0.2926 -0.9141
  850MOL0     O14639   5.141   8.051   5.035 -0.2430 -0.0514  0.5277
  850MOL0     C14640   5.261   8.015   4.982  0.3349  0.3128  0.3773
  850MOL0     C14641   5.351   7.968   5.078  0.4644 -0.1387  0.0096
  850MOL0     C14642   5.474   7.920   5.044  0.3250 -0.2995  0.3289
  850MOL0     C14643   5.566   7.860   5.155 -0.9538  0.1433 -0.2834
  850MOL0     C14644   5.506   7.906   4.911  0.2343  0.2502  0.0485
  850MOL0     C14645   5.633   7.825   4.867  0.7775 -0.5334  1.5266
  850MOL0     O14646   5.601   7.712   4.793 -1.0051 -0.4916  0.1596
  850MOL0     C14647   5.686   7.605   4.777 -0.0411  0.4159 -0.6877
  850MOL0     C14648   5.675   7.527   4.662 -0.6869 -0.6522 -0.1266
  850MOL0     C14649   5.748   7.409   4.641  1.0752  0.1218 -0.0854
  850MOL0     C14650   5.835   7.366   4.744 -0.1919  0.3213 -0.3681
  850MOL0     O14651   5.907   7.258   4.696 -0.9493 -0.5289  0.5126
  850MOL0     C14652   6.034   7.237   4.760  0.2620 -0.7458 -0.2754
  850MOL0     C14653   6.090   7.114   4.694 -0.2768 -0.4003 -0.2693
  850MOL0     C14654   6.218   7.059   4.754  0.7753  0.6979 -0.1245
  850MOL0     C14655   6.342   7.043   4.655 -0.1870  0.1424 -0.2179
  850MOL0     C14656   6.453   6.968   4.734  0.1494  0.8200  0.1141
  850MOL0     C14657   6.559   6.917   4.632 -0.5823  0.1292 -0.1746
  850MOL0     C14658   6.659   7.029   4.615 -0.6548 -0.0726 -0.1571
  850MOL0     C14659   6.728   7.033   4.476 -0.0169  0.4154  0.1387
  850MOL0    Cl14660   6.596   7.079   4.359 -0.0844 -0.8387 -0.1597
  850MOL0     C14661   5.844   7.443   4.865  0.6991  0.8541  0.1392
  850MOL0     C14662   5.772   7.564   4.877 -0.1908 -0.1711 -0.4953
  850MOL0     O14663   5.747   7.871   4.889  0.0094  0.0384 -0.0690
  850MOL0     C14664   5.424   7.955   4.811  0.1703 -0.0906 -0.1617
  850MOL0     C14665   5.295   8.011   4.840 -0.0699  0.0941  0.1395
  850MOL0     N14666   4.620   8.294   4.680  0.2294 -0.3084  0.1710
  850MOL0     N14667   4.554   8.396   4.622 -0.1257  0.1443  0.9722
  850MOL0     C14668   4.662   9.395   4.173  0.2340  0.1018  0.8670
  850MOL0     C14669   4.694   9.535   4.152  0.1134  0.2639 -0.7394
  850MOL0     C14670   4.969   9.873   3.990  0.5772  0.5300 -0.5890
  850MOL0     C14671   5.094   9.919   3.939 -0.1439  0.5831 -0.7111
  850MOL0     C14672   5.156  10.039   3.983  0.4367 -0.6908 -0.1162
  850MOL0     C14673   5.087  10.121   4.073 -0.0430 -0.2092  0.7261
  850MOL0     O14674   5.123  10.250   4.113  0.7798  0.4453 -0.3497
  850MOL0     C14675   5.256  10.284   4.094  0.6265  0.0374  0.7604
  850MOL0     C14676   5.288  10.433   4.116  0.2080 -0.3145  0.1915
  850MOL0     C14677   5.273  10.478   4.262 -0.1122  0.4099  0.1212
  850MOL0     C14678   5.327  10.382   4.367 -0.2921 -0.8429 -0.4776
  850MOL0     C14679   5.469  10.348   4.355 -0.7014  0.5945  0.4618
  850MOL0     C14680   5.591  10.326   4.341  0.5049 -0.2642  0.2112
  850MOL0     C14681   4.966  10.072   4.123  0.0546 -1.0682 -0.8762
  850MOL0     C14682   4.908   9.949   4.089 -0.3224  0.0608 -0.7593
  850MOL0     H14683   5.002   9.488   4.010  0.4261 -0.5813  2.1190
  850MOL0     H14684   4.921   9.263   3.998  1.1162 -0.5163  0.1007
  850MOL0     H14685   4.760   9.038   4.275  0.5361  0.9493 -0.0506
  850MOL0     H14686   4.654   9.177   4.314  3.2576  1.8503 -1.3558
  850MOL0     H14687   4.478   9.052   4.249 -0.3889 -0.0434  1.3411
  850MOL0     H14688   4.569   8.926   4.164 -1.8682  3.5475 -2.4171
  850MOL0     H14689   4.497   8.828   4.373 -1.9383  0.7882  0.0666
  850MOL0     H14690   4.652   8.903   4.433 -1.4664 -0.7058  4.2631
  850MOL0     H14691   4.519   9.106   4.495  1.1234  0.1709  0.4622
  850MOL0     H14692   4.376   9.001   4.477 -0.6393  1.2266  1.3067
  850MOL0     H14693   4.616   8.948   4.655 -0.3904 -1.1149  2.2905
  850MOL0     H14694   4.481   9.033   4.706  1.5885 -0.4611  0.6677
  850MOL0     H14695   4.373   8.848   4.752  0.1451 -4.3540  0.7111
  850MOL0     H14696   4.380   8.784   4.582  1.0447 -1.4488 -1.5466
  850MOL0     H14697   4.565   8.702   4.806 -1.4739 -1.9362  0.4801
  850MOL0     H14698   4.431   8.624   4.718 -2.2376  1.6225 -2.6896
  850MOL0     H14699   4.697   8.703   4.590  0.9638  0.3141 -2.1950
  850MOL0     H14700   4.555   8.645   4.502  1.1261 -1.6733  0.2067
  850MOL0     H14701   4.826   8.534   4.733  0.1819  1.1350 -2.5067
  850MOL0     H14702   4.808   8.144   4.780  0.8915 -0.2504 -0.4180
  850MOL0     H14703   4.927   8.278   4.767 -0.9325 -0.6698 -2.4989
  850MOL0     H14704   4.728   8.274   5.010 -0.7760  0.2267 -0.3224
  850MOL0     H14705   4.869   8.371   4.971  0.1109 -0.2370 -1.7766
  850MOL0     H14706   4.895   8.141   5.117  1.9773 -1.2611  0.8300
  850MOL0     H14707   5.008   8.264   5.074 -0.3678  0.9524 -2.3488
  850MOL0     H14708   5.070   8.142   4.853  2.5672 -2.6559 -2.0494
  850MOL0     H14709   4.987   8.001   4.916  3.7598 -1.4329 -0.0482
  850MOL0     H14710   5.313   7.975   5.180  0.2881 -1.5666  0.0637
  850MOL0     H14711   5.566   7.751   5.140  3.1000 -0.0313 -0.0403
  850MOL0     H14712   5.669   7.895   5.157 -0.5856 -0.9216  0.9769
  850MOL0     H14713   5.523   7.877   5.254 -2.6746 -2.5633 -0.4600
  850MOL0     H14714   5.617   7.566   4.579 -0.2168 -0.1726 -0.2310
  850MOL0     H14715   5.743   7.360   4.544  2.8923 -1.0713  0.3721
  850MOL0     H14716   6.102   7.313   4.722  0.0091 -0.3719  0.0114
  850MOL0     H14717   6.027   7.235   4.869 -4.0784 -0.4711 -0.3522
  850MOL0     H14718   6.009   7.040   4.698  0.8927 -1.8496 -2.0053
  850MOL0     H14719   6.100   7.129   4.587 -2.2937 -1.7494 -0.7142
  850MOL0     H14720   6.188   6.963   4.796  1.5088  0.0185 -1.1149
  850MOL0     H14721   6.254   7.126   4.833  4.6013  1.2285 -2.0895
  850MOL0     H14722   6.310   7.001   4.559  2.4637  1.1037 -1.6180
  850MOL0     H14723   6.376   7.142   4.624 -0.5674  0.1769 -0.5263
  850MOL0     H14724   6.411   6.878   4.779  1.7291  0.1936  0.4117
  850MOL0     H14725   6.503   7.026   4.813  2.1350  1.2454 -1.3641
  850MOL0     H14726   6.609   6.825   4.664 -2.7928 -1.6481 -1.5031
  850MOL0     H14727   6.505   6.893   4.540  0.9329 -2.2120 -0.5625
  850MOL0     H14728   6.747   7.012   4.678 -0.2611 -3.7891 -1.4742
  850MOL0     H14729   6.606   7.124   4.627 -1.5929 -0.1592 -2.9563
  850MOL0     H14730   6.779   6.938   4.456  3.4851  1.9322  1.1799
  850MOL0     H14731   6.800   7.111   4.452  3.8596 -2.8686  0.0468
  850MOL0     H14732   5.908   7.398   4.940 -1.1942  0.5815  1.6805
  850MOL0     H14733   5.785   7.631   4.961  2.2603 -1.5734  0.3703
  850MOL0     H14734   5.457   7.961   4.708  1.2136 -1.1250  0.0951
  850MOL0     H14735   5.240   8.063   4.763 -2.2309  2.5428  3.0969
  850MOL0     H14736   4.582   9.375   4.244 -1.4092  1.5438 -0.4872
  850MOL0     H14737   4.630   9.606   4.204 -0.7748  0.5191 -2.1316
  850MOL0     H14738   5.149   9.862   3.865 -1.1059  1.0068 -1.8006
  850MOL0     H14739   5.245  10.076   3.934 -0.5184 -0.2961 -1.6403
  850MOL0     H14740   5.322  10.223   4.156  2.4751  2.6625  1.5323
  850MOL0     H14741   5.292  10.264   3.992  0.6853  0.7860  0.6342
  850MOL0     H14742   5.219  10.494   4.056 -0.9144 -0.9268  0.8286
  850MOL0     H14743   5.391  10.458   4.090 -0.4410  3.4863  0.6333
  850MOL0     H14744   5.166  10.495   4.277 -0.5679 -0.6389 -1.6287
  850MOL0     H14745   5.322  10.574   4.283 -1.5452  1.1507  0.1730
  850MOL0     H14746   5.265  10.293   4.354  1.3080 -1.8563 -1.5409
  850MOL0     H14747   5.321  10.426   4.467 -2.1782  2.8655 -2.0187
  850MOL0     H14748   5.691  10.304   4.308 -0.0166 -0.7710 -1.1172
  850MOL0     H14749   4.907  10.133   4.190  2.5597 -3.4311  3.9657
  850MOL0     H14750   4.823   9.924   4.151 -0.8698  0.9101 -1.1464
  851MOL0     O14751   0.261   6.206   3.642  0.1947  0.6399 -0.3506
  851MOL0     C14752   0.141   6.202   3.672  0.5541 -0.6211  0.9140
  851MOL0     O14753   0.066   6.313   3.704  0.3197  0.2553  0.1790
  851MOL0     C14754   0.135   6.432   3.713 -0.3790  0.1903  0.0981
  851MOL0     C14755   0.164   6.499   3.597  0.1239 -0.0382 -0.4694
  851MOL0     C14756   0.229   6.623   3.606 -0.1144  0.2905  0.0134
  851MOL0     C14757   0.306   6.654   3.718  0.3423 -0.2583 -0.1649
  851MOL0     O14758   0.386   6.766   3.731  0.0354 -0.5465 -0.2464
  851MOL0     C14759   0.311   6.890   3.745  0.1383 -0.3805  0.5758
  851MOL0     C14760   0.350   6.975   3.627 -0.0850 -0.1898  0.1367
  851MOL0     C14761   0.256   7.103   3.621  0.0376  0.5371 -0.5496
  851MOL0     C14762   0.299   7.221   3.538 -0.3257  0.4610 -0.8433
  851MOL0     C14763   0.270   7.188   3.387  0.4315  0.3085 -0.9859
  851MOL0     C14764   0.288   7.316   3.307  0.2001 -0.5222 -0.5820
  851MOL0     C14765   0.429   7.379   3.305  0.0820 -0.4368 -0.1703
  851MOL0     C14766   0.526   7.303   3.218 -0.1820  0.7469  0.4702
  851MOL0     N14767   0.501   7.318   3.063 -0.2034 -0.2324 -0.0382
  851MOL0     C14768   0.457   7.219   2.975 -0.3943  0.0031 -0.1775
  851MOL0     C14769   0.419   7.283   2.866 -0.0092  0.4004 -0.1530
  851MOL0     C14770   0.390   7.215   2.740  1.1719 -0.6855  0.1757
  851MOL0     C14771   0.335   7.318   2.625  0.0731  0.1208 -0.6457
  851MOL0     C14772   0.286   7.230   2.511  0.4645  0.6426  0.1290
  851MOL0     C14773   0.205   7.319   2.416 -0.2635  0.0397 -0.0129
  851MOL0     O14774   0.295   7.400   2.326  0.9482  0.1762 -0.2869
  851MOL0     C14775   0.345   7.347   2.209  0.5495  0.2731 -0.6730
  851MOL0     C14776   0.429   7.431   2.136 -0.0824 -0.5608 -0.1689
  851MOL0     C14777   0.495   7.397   2.021  0.0217  0.3795  0.5353
  851MOL0     C14778   0.608   7.483   1.955 -0.2968 -0.1518 -0.2035
  851MOL0     C14779   0.452   7.273   1.970  0.0150  0.0187  0.0153
  851MOL0     C14780   0.492   7.204   1.843 -0.6804 -0.5383 -0.1193
  851MOL0     O14781   0.582   7.099   1.850 -0.4441  0.0811 -0.2274
  851MOL0     C14782   0.658   7.054   1.740 -0.9380 -0.0923  0.1721
  851MOL0     C14783   0.694   6.917   1.730 -0.6405  0.6343  0.9253
  851MOL0     C14784   0.765   6.867   1.625  0.5037  0.1832  0.3487
  851MOL0     C14785   0.811   6.955   1.526  1.3225 -0.5236 -1.3278
  851MOL0     O14786   0.879   6.912   1.417  0.7116 -0.8189 -0.7085
  851MOL0     C14787   0.976   6.819   1.426 -0.7376  1.1033 -0.2604
  851MOL0     C14788   1.023   6.780   1.283  0.2769  0.6272 -0.8000
  851MOL0     C14789   1.110   6.883   1.217 -0.6580  0.2601  0.0239
  851MOL0     C14790   1.248   6.902   1.285  0.2979 -0.4591  0.7413
  851MOL0     C14791   1.252   7.045   1.349  0.2178  0.7446  0.2860
  851MOL0     C14792   1.382   7.084   1.400 -0.0132 -0.4022 -0.0407
  851MOL0     C14793   1.388   7.213   1.482  0.8882 -0.8098 -0.2138
  851MOL0     C14794   1.326   7.333   1.406  0.4817  0.5948  0.3136
  851MOL0    Cl14795   1.402   7.388   1.250  0.0397 -0.1520 -0.2373
  851MOL0     C14796   0.777   7.087   1.533 -0.9893 -1.3417  0.7325
  851MOL0     C14797   0.697   7.137   1.639  0.2838  0.1980 -0.6775
  851MOL0     O14798   0.437   7.237   1.736 -0.1694  0.1834  0.2747
  851MOL0     C14799   0.361   7.192   2.036 -0.2871  0.5466  0.0558
  851MOL0     C14800   0.308   7.225   2.163 -0.0651 -0.2826 -0.2101
  851MOL0     N14801   0.456   7.414   2.877  0.0850 -1.1518  1.2801
  851MOL0     N14802   0.502   7.434   2.996 -0.0601  0.6012  0.0008
  851MOL0     C14803   0.291   6.559   3.829 -0.9056 -0.3607  0.7620
  851MOL0     C14804   0.204   6.457   3.824 -0.1215  0.0709 -0.3539
  851MOL0     C14805   0.071   6.076   3.672 -0.1726  0.4048  0.4230
  851MOL0     C14806   0.122   5.957   3.621  0.3618  0.3228  0.2870
  851MOL0     C14807   0.046   5.838   3.625  0.1114 -0.4444 -0.1919
  851MOL0     C14808  -0.087   5.839   3.680  0.0037 -0.5022 -0.2605
  851MOL0     O14809  -0.140   5.710   3.689 -0.3115 -0.3178  0.1985
  851MOL0     C14810  -0.286   5.697   3.689 -0.0907  0.3450 -0.3303
  851MOL0     C14811  -0.308   5.557   3.749 -0.3683 -0.1247  0.9131
  851MOL0     C14812  -0.451   5.531   3.776 -0.0893  0.3312  0.3708
  851MOL0     C14813  -0.466   5.424   3.880  0.4658  0.1449  0.4050
  851MOL0     C14814  -0.411   5.297   3.839  0.2078  1.1191 -0.1282
  851MOL0     C14815  -0.358   5.202   3.788  0.6039  0.5456  0.6280
  851MOL0     C14816  -0.135   5.959   3.735  0.3817  0.7611 -0.5373
  851MOL0     C14817  -0.053   6.069   3.726  1.3646  0.1672 -0.4799
  851MOL0     H14818   0.122   6.462   3.504  1.5096 -1.9072 -0.4250
  851MOL0     H14819   0.235   6.673   3.510 -2.1978  2.6673  0.9882
  851MOL0     H14820   0.203   6.874   3.748 -0.0323  0.3183 -1.1178
  851MOL0     H14821   0.335   6.939   3.840  0.4457  2.6700 -0.9524
  851MOL0     H14822   0.456   6.999   3.633  0.5792 -2.3258 -1.8486
  851MOL0     H14823   0.332   6.919   3.535 -0.6522  1.8320 -1.0544
  851MOL0     H14824   0.155   7.073   3.592 -0.1814  0.7344 -0.0013
  851MOL0     H14825   0.258   7.140   3.724 -1.3976 -3.2366  0.9824
  851MOL0     H14826   0.242   7.310   3.564 -1.5705  0.0785 -2.1598
  851MOL0     H14827   0.406   7.229   3.558 -0.0248 -0.0490 -2.1345
  851MOL0     H14828   0.327   7.106   3.343  1.6959  1.1470 -0.9520
  851MOL0     H14829   0.164   7.161   3.390  1.3953 -4.6021  3.1680
  851MOL0     H14830   0.237   7.298   3.212  0.7066 -2.9065 -0.4587
  851MOL0     H14831   0.232   7.388   3.368  1.5433 -0.1745  0.2984
  851MOL0     H14832   0.430   7.483   3.271  1.1185 -0.8374 -1.4471
  851MOL0     H14833   0.465   7.383   3.408  0.2625 -3.6153 -0.0179
  851MOL0     H14834   0.522   7.195   3.233  0.2141  0.1698 -2.8307
  851MOL0     H14835   0.630   7.338   3.222  0.1308 -0.2522  1.7205
  851MOL0     H14836   0.462   7.115   3.005 -2.3766 -0.3090 -0.7426
  851MOL0     H14837   0.478   7.163   2.702 -1.0411 -2.7503 -2.5086
  851MOL0     H14838   0.306   7.145   2.751 -1.2172  1.5299 -2.4613
  851MOL0     H14839   0.416   7.387   2.598  0.0328  0.5852  0.3725
  851MOL0     H14840   0.252   7.382   2.654 -0.1856  0.7967 -2.7567
  851MOL0     H14841   0.212   7.161   2.552  0.2874  1.3928  1.1092
  851MOL0     H14842   0.356   7.177   2.446 -0.8794  2.4081 -3.0399
  851MOL0     H14843   0.146   7.383   2.481 -1.9292  0.6585 -2.0030
  851MOL0     H14844   0.126   7.264   2.363 -1.8349 -0.1364  2.3894
  851MOL0     H14845   0.446   7.530   2.177 -1.2433 -0.6848  0.6696
  851MOL0     H14846   0.547   7.556   1.901 -1.0444 -0.5049  0.1557
  851MOL0     H14847   0.670   7.525   2.035 -0.1241 -1.1889  0.2285
  851MOL0     H14848   0.680   7.430   1.891 -1.3648 -0.1015 -1.4655
  851MOL0     H14849   0.691   6.846   1.813  3.5170 -0.8443  0.0579
  851MOL0     H14850   0.779   6.760   1.627  0.8832  0.2417  1.6685
  851MOL0     H14851   1.061   6.854   1.485 -0.7346 -2.4336  2.1576
  851MOL0     H14852   0.940   6.727   1.473  0.6261 -0.9322 -2.9276
  851MOL0     H14853   1.075   6.684   1.293  1.8871  1.2895 -2.2464
  851MOL0     H14854   0.931   6.772   1.224 -0.3953  1.0507  0.1674
  851MOL0     H14855   1.058   6.980   1.209  0.1658  0.9526  2.1938
  851MOL0     H14856   1.142   6.847   1.119 -2.9168 -1.0210 -0.3186
  851MOL0     H14857   1.272   6.823   1.357  0.3642  0.3599  1.6462
  851MOL0     H14858   1.316   6.903   1.200 -0.4804 -3.4767 -0.0512
  851MOL0     H14859   1.190   7.048   1.439 -1.1067 -0.7148 -0.5176
  851MOL0     H14860   1.208   7.114   1.276  0.0217 -0.7138 -1.0315
  851MOL0     H14861   1.419   7.002   1.462  0.5926 -1.4539 -1.6977
  851MOL0     H14862   1.455   7.100   1.319  2.1209  0.7890  1.9971
  851MOL0     H14863   1.485   7.246   1.520  0.4387  1.3710 -0.8006
  851MOL0     H14864   1.323   7.196   1.568 -1.0516  0.9108 -1.2329
  851MOL0     H14865   1.306   7.411   1.481 -0.2117 -0.5534  1.3590
  851MOL0     H14866   1.222   7.311   1.380  0.9491 -0.2789 -0.9002
  851MOL0     H14867   0.816   7.160   1.462  2.0297 -1.6323  1.9476
  851MOL0     H14868   0.677   7.243   1.656  0.0921 -0.3412  3.4723
  851MOL0     H14869   0.306   7.113   1.986 -1.2669  1.8559 -0.9998
  851MOL0     H14870   0.240   7.156   2.211  0.9124 -0.5344  0.8578
  851MOL0     H14871   0.339   6.576   3.925 -3.8444  2.3296  1.9535
  851MOL0     H14872   0.184   6.393   3.909 -1.3162  0.2540 -0.4817
  851MOL0     H14873   0.226   5.959   3.589  0.9460 -1.6870  1.8646
  851MOL0     H14874   0.101   5.750   3.594 -0.9681 -1.0893 -0.3265
  851MOL0     H14875  -0.333   5.777   3.746 -0.6347 -0.8464  0.9547
  851MOL0     H14876  -0.320   5.701   3.585  2.1760  4.0902 -1.1203
  851MOL0     H14877  -0.260   5.555   3.847 -2.6193  1.3066  2.1294
  851MOL0     H14878  -0.282   5.489   3.668 -3.6301 -0.3363 -0.0831
  851MOL0     H14879  -0.487   5.480   3.686 -0.5171 -0.5163  0.9990
  851MOL0     H14880  -0.506   5.624   3.794  1.1370  1.5734 -1.9336
  851MOL0     H14881  -0.574   5.418   3.895  0.0232  2.4266 -1.3335
  851MOL0     H14882  -0.433   5.453   3.980 -0.8412 -2.7126  1.7937
  851MOL0     H14883  -0.305   5.125   3.737 -1.2454  0.0711 -0.6598
  851MOL0     H14884  -0.228   5.960   3.790  2.3250  1.3175  3.0816
  851MOL0     H14885  -0.095   6.162   3.764  1.5011 -0.6213  1.7651
  852MOL0     O14886   8.120   2.597   7.292  0.6005  0.6135  0.2081
  852MOL0     C14887   8.229   2.617   7.342 -1.3474  0.4274 -0.1710
  852MOL0     O14888   8.262   2.711   7.435 -0.2665  0.4938 -0.7317
  852MOL0     C14889   8.166   2.797   7.480  0.3041 -0.0903  0.6397
  852MOL0     C14890   8.147   2.923   7.419 -0.6302 -0.0279 -0.7351
  852MOL0     C14891   8.052   3.007   7.476 -0.7248  0.8204 -0.7123
  852MOL0     C14892   7.975   2.972   7.580  0.0366 -0.5675 -0.8390
  852MOL0     O14893   7.875   3.052   7.630 -0.1672  0.0008  0.2640
  852MOL0     C14894   7.819   3.155   7.546  0.0131  0.3192 -0.3796
  852MOL0     C14895   7.671   3.185   7.596 -0.9215 -0.1898 -0.6130
  852MOL0     C14896   7.652   3.192   7.749 -0.3481  0.1672 -1.4427
  852MOL0     C14897   7.526   3.268   7.797  0.6924  1.0815  0.9716
  852MOL0     C14898   7.401   3.192   7.747 -0.1880 -0.1959 -0.2545
  852MOL0     C14899   7.348   3.278   7.625  0.6880 -0.0313  1.1084
  852MOL0     C14900   7.212   3.210   7.574 -0.8708 -0.3426 -0.4459
  852MOL0     C14901   7.086   3.305   7.589 -0.8655 -0.0778 -0.3470
  852MOL0     N14902   6.970   3.220   7.564  0.3449  0.2888 -0.4419
  852MOL0     C14903   6.933   3.180   7.439 -0.1548 -0.2728  0.9419
  852MOL0     C14904   6.859   3.075   7.458 -0.3657  0.7230 -0.8027
  852MOL0     C14905   6.797   2.968   7.375 -0.4898 -0.1843 -0.1288
  852MOL0     C14906   6.877   2.936   7.252 -0.0296  0.3353  0.3064
  852MOL0     C14907   6.852   3.016   7.127  1.2675 -0.4763  0.2968
  852MOL0     C14908   6.931   2.963   6.997 -0.0242 -0.8355  0.6773
  852MOL0     O14909   6.892   3.041   6.878 -0.0357 -0.2217  0.5121
  852MOL0     C14910   6.946   3.009   6.758 -0.3829 -0.0163  0.1008
  852MOL0     C14911   7.057   2.918   6.750 -0.0672  1.1676  0.3348
  852MOL0     C14912   7.104   2.882   6.618 -0.5513 -0.7804 -0.1261
  852MOL0     C14913   7.216   2.785   6.623 -0.7877  0.3982  0.2919
  852MOL0     C14914   7.045   2.946   6.502  0.2779 -2.0876 -0.4295
  852MOL0     C14915   7.096   2.926   6.371  0.6967 -0.9041 -0.8858
  852MOL0     O14916   7.021   2.968   6.262  0.0976 -0.0547 -0.7172
  852MOL0     C14917   7.061   2.913   6.144  1.4563 -0.2121 -0.5514
  852MOL0     C14918   7.170   2.958   6.079  0.7586  0.2194  0.9779
  852MOL0     C14919   7.197   2.914   5.948 -0.7824  0.3738  0.6810
  852MOL0     C14920   7.117   2.825   5.876  0.5798 -0.6591 -0.2524
  852MOL0     O14921   7.152   2.793   5.748  0.7588 -0.0245 -0.8634
  852MOL0     C14922   7.161   2.645   5.720  1.3540  0.4528  0.1438
  852MOL0     C14923   7.301   2.592   5.778  0.4782  0.5593 -0.1558
  852MOL0     C14924   7.383   2.517   5.660 -0.7262 -0.6272 -0.9807
  852MOL0     C14925   7.363   2.363   5.675  0.1240  0.2900  0.2501
  852MOL0     C14926   7.474   2.297   5.608  0.2198 -0.4977  0.3256
  852MOL0     C14927   7.477   2.311   5.455  0.1320  0.3070 -0.3701
  852MOL0     C14928   7.611   2.247   5.402  0.6180 -0.1971 -0.4385
  852MOL0     C14929   7.725   2.344   5.390 -0.0887 -0.1285  1.0028
  852MOL0    Cl14930   7.875   2.248   5.346 -0.2151  0.2725  0.2495
  852MOL0     C14931   7.003   2.776   5.944 -0.4363  0.4781 -0.4360
  852MOL0     C14932   6.973   2.821   6.080  0.0898  0.0419 -0.1794
  852MOL0     O14933   7.217   2.901   6.363 -0.7262 -0.3330 -0.2273
  852MOL0     C14934   6.934   3.031   6.519  0.4605  0.2301 -0.3527
  852MOL0     C14935   6.886   3.065   6.640  0.7832  0.1049 -0.3075
  852MOL0     N14936   6.849   3.055   7.597 -0.6110  0.2258  0.4606
  852MOL0     N14937   6.906   3.152   7.654 -1.1662  0.9066 -1.0887
  852MOL0     C14938   7.989   2.840   7.634  0.3675  0.5102 -0.6302
  852MOL0     C14939   8.097   2.753   7.592  0.8295 -0.4419 -0.1433
  852MOL0     C14940   8.343   2.538   7.287  0.0495 -0.7806 -0.1031
  852MOL0     C14941   8.441   2.479   7.360  0.0090 -0.2278 -0.1471
  852MOL0     C14942   8.551   2.412   7.307 -0.9272  0.2510 -0.1275
  852MOL0     C14943   8.560   2.389   7.169  0.5174  0.8183  0.0002
  852MOL0     O14944   8.668   2.320   7.110  0.1028  0.2676  0.0860
  852MOL0     C14945   8.683   2.307   6.968 -0.4390  0.3803 -0.1657
  852MOL0     C14946   8.762   2.186   6.925 -0.2469  1.1663  0.0185
  852MOL0     C14947   8.906   2.188   6.964  0.6138 -0.0747 -0.2722
  852MOL0     C14948   8.988   2.262   6.860  0.4097  0.4464 -0.2533
  852MOL0     C14949   9.129   2.237   6.895  0.4494 -1.0712  0.4397
  852MOL0     C14950   9.247   2.249   6.919  0.3204  0.2258 -0.2474
  852MOL0     C14951   8.456   2.446   7.087 -0.1437  0.4426 -0.3405
  852MOL0     C14952   8.355   2.528   7.146 -0.2225  0.8656 -0.6001
  852MOL0     H14953   8.208   2.956   7.336 -0.7367  1.4799 -0.2334
  852MOL0     H14954   8.034   3.102   7.427  0.1775  2.1281  1.3843
  852MOL0     H14955   7.884   3.242   7.559  3.5768 -2.2329  0.5808
  852MOL0     H14956   7.821   3.122   7.442 -0.5624  3.0586 -1.3275
  852MOL0     H14957   7.649   3.285   7.557  2.1544  0.5950 -0.5772
  852MOL0     H14958   7.616   3.106   7.545 -1.6832  0.1876 -0.3870
  852MOL0     H14959   7.645   3.087   7.781 -1.7785  0.6304 -0.1189
  852MOL0     H14960   7.728   3.241   7.810 -1.9846  1.5255 -0.4432
  852MOL0     H14961   7.523   3.259   7.905  0.3227 -2.5754  0.7696
  852MOL0     H14962   7.525   3.373   7.766  0.8738  0.8419  0.1212
  852MOL0     H14963   7.418   3.089   7.712  2.3010  0.4542 -1.1913
  852MOL0     H14964   7.330   3.190   7.830  2.1761 -0.2999  1.8778
  852MOL0     H14965   7.324   3.382   7.648 -3.3465 -0.0156 -2.1416
  852MOL0     H14966   7.418   3.281   7.542 -1.8522  0.9464 -1.1279
  852MOL0     H14967   7.219   3.189   7.467  1.4064  0.1308 -0.4298
  852MOL0     H14968   7.199   3.118   7.631 -2.5246  0.3982  0.4733
  852MOL0     H14969   7.095   3.388   7.517 -0.0790 -1.2825 -1.6955
  852MOL0     H14970   7.095   3.345   7.690  1.8850 -0.6884 -0.2838
  852MOL0     H14971   6.971   3.217   7.344 -0.4834  0.2567  1.0092
  852MOL0     H14972   6.779   2.877   7.433  1.1862  0.9519  2.3585
  852MOL0     H14973   6.703   3.011   7.340 -0.3014  0.7716  0.4927
  852MOL0     H14974   6.855   2.830   7.233 -2.9843  0.8061  0.5995
  852MOL0     H14975   6.982   2.955   7.274  0.5281 -0.4814 -1.4407
  852MOL0     H14976   6.866   3.122   7.149  0.9938 -0.3609 -0.0768
  852MOL0     H14977   6.744   3.004   7.120  1.1628 -0.4521  1.5721
  852MOL0     H14978   6.913   2.856   6.985  0.2515 -0.5558 -3.5342
  852MOL0     H14979   7.038   2.969   7.017  0.3756 -1.8680 -0.9920
  852MOL0     H14980   7.088   2.870   6.841 -0.8923 -0.6062 -0.2777
  852MOL0     H14981   7.183   2.685   6.593  1.3826  0.1890 -1.7169
  852MOL0     H14982   7.297   2.825   6.562  0.5054  0.4541  1.9464
  852MOL0     H14983   7.247   2.780   6.728  0.8165 -0.0459 -0.1718
  852MOL0     H14984   7.225   3.036   6.129  1.9166 -0.9065  1.5215
  852MOL0     H14985   7.278   2.966   5.898 -1.8890 -0.6030 -2.4207
  852MOL0     H14986   7.081   2.584   5.764  0.6669 -1.4082 -3.3580
  852MOL0     H14987   7.149   2.623   5.614 -0.0577  1.4930  0.0522
  852MOL0     H14988   7.355   2.683   5.805 -1.8796  2.7089 -2.1816
  852MOL0     H14989   7.291   2.536   5.871  0.5981  1.7524  0.5909
  852MOL0     H14990   7.489   2.544   5.658 -0.2642 -2.3285 -3.7248
  852MOL0     H14991   7.344   2.540   5.561 -1.3266  0.9432 -0.4175
  852MOL0     H14992   7.350   2.328   5.778 -1.8936  1.7084  0.5415
  852MOL0     H14993   7.267   2.329   5.633  1.0213 -0.3436 -1.3889
  852MOL0     H14994   7.447   2.195   5.638 -0.7116 -0.1344  0.7802
  852MOL0     H14995   7.566   2.320   5.661 -0.2333  3.0584 -0.1663
  852MOL0     H14996   7.393   2.263   5.404 -0.9968  0.0471  1.5994
  852MOL0     H14997   7.467   2.418   5.436  1.0009  0.0467 -2.5349
  852MOL0     H14998   7.594   2.214   5.299  0.7449  1.0830 -0.8841
  852MOL0     H14999   7.660   2.178   5.471  1.3305  0.8789  0.1425
  852MOL0     H15000   7.731   2.408   5.479 -0.1987  1.3085  0.0084
  852MOL0     H15001   7.694   2.411   5.309 -1.9404  0.7293  2.3467
  852MOL0     H15002   6.955   2.696   5.888  2.4848 -1.5926 -0.2191
  852MOL0     H15003   6.888   2.776   6.130 -1.0554 -0.1506 -2.1849
  852MOL0     H15004   6.900   3.084   6.431 -2.1799 -0.3168  0.2554
  852MOL0     H15005   6.805   3.136   6.655 -0.2256 -1.1391  0.2824
  852MOL0     H15006   7.921   2.815   7.715 -1.5137  0.7698 -2.0534
  852MOL0     H15007   8.125   2.662   7.643  3.2050  0.5811  0.4761
  852MOL0     H15008   8.447   2.494   7.467  0.8470 -2.3797  0.1608
  852MOL0     H15009   8.619   2.358   7.372 -2.0428 -0.2323  0.6737
  852MOL0     H15010   8.591   2.287   6.913  0.1226 -0.6115 -0.7709
  852MOL0     H15011   8.720   2.397   6.918  0.0619  0.3496  0.1432
  852MOL0     H15012   8.765   2.165   6.818 -2.3038 -1.2661  0.3437
  852MOL0     H15013   8.713   2.101   6.974  0.4845  1.7297  1.8196
  852MOL0     H15014   8.948   2.087   6.969  1.9587  0.4570 -0.2694
  852MOL0     H15015   8.923   2.235   7.061 -0.6520 -0.2178  0.0313
  852MOL0     H15016   8.964   2.368   6.848 -0.1916  0.1546 -1.7770
  852MOL0     H15017   8.970   2.223   6.760  3.0478 -1.4858 -0.0909
  852MOL0     H15018   9.351   2.252   6.943 -0.0054  1.2436  1.1850
  852MOL0     H15019   8.446   2.431   6.980 -1.8549 -1.6267  0.0444
  852MOL0     H15020   8.282   2.580   7.084  0.2824  0.9276 -1.1492
  853MOL0     O15021   4.197  10.820   1.184 -0.1494  0.2571 -0.9575
  853MOL0     C15022   4.259  10.899   1.265  0.0377 -0.4278  0.4829
  853MOL0     O15023   4.351  10.862   1.352 -0.2349 -0.1466 -0.2863
  853MOL0     C15024   4.351  10.744   1.417  0.4411 -0.3335 -0.0795
  853MOL0     C15025   4.226  10.690   1.459  0.5573 -0.2633  0.3028
  853MOL0     C15026   4.225  10.575   1.542  0.0250 -0.5628  0.1923
  853MOL0     C15027   4.345  10.511   1.570  0.1892 -0.1812 -0.5602
  853MOL0     O15028   4.335  10.396   1.654 -0.0791  0.2195 -0.4022
  853MOL0     C15029   4.442  10.309   1.687 -0.4161 -0.2638 -0.1015
  853MOL0     C15030   4.467  10.205   1.579 -0.3916 -0.7400 -0.9410
  853MOL0     C15031   4.542  10.084   1.631  0.2921  0.4571 -0.0140
  853MOL0     C15032   4.534   9.961   1.539 -0.2850  0.2057  1.1751
  853MOL0     C15033   4.397   9.910   1.480 -0.1409  0.5257 -0.2091
  853MOL0     C15034   4.283   9.896   1.576 -0.2099  1.0406 -0.0018
  853MOL0     C15035   4.284   9.776   1.663  0.1935 -0.1979  0.1934
  853MOL0     C15036   4.167   9.771   1.761 -0.7608  0.0929 -0.1736
  853MOL0     N15037   4.164   9.676   1.862  0.2697  1.3333 -0.1686
  853MOL0     C15038   4.250   9.573   1.880  0.2265  0.1707  0.0499
  853MOL0     C15039   4.215   9.497   1.984 -0.1096 -0.4296 -0.6046
  853MOL0     C15040   4.304   9.398   2.054  0.0363  0.1138  0.5210
  853MOL0     C15041   4.227   9.266   2.090 -0.2806  0.5468 -0.8459
  853MOL0     C15042   4.321   9.159   2.137 -0.0325  0.2880  0.4532
  853MOL0     C15043   4.255   9.027   2.117 -0.3418 -0.3588  0.1513
  853MOL0     O15044   4.350   8.921   2.152 -0.2865  0.3083 -0.0441
  853MOL0     C15045   4.339   8.845   2.259 -0.0038  0.9516 -0.8390
  853MOL0     C15046   4.214   8.805   2.313  0.5496 -0.2830  0.1522
  853MOL0     C15047   4.212   8.706   2.417  0.4110  0.2347 -0.1383
  853MOL0     C15048   4.075   8.672   2.460  0.4439  0.1695 -0.4698
  853MOL0     C15049   4.328   8.662   2.485  0.2556 -0.1491  0.5116
  853MOL0     C15050   4.335   8.586   2.613 -0.9899 -0.6292 -0.2089
  853MOL0     O15051   4.455   8.536   2.653  0.0567  0.0390  0.5186
  853MOL0     C15052   4.499   8.522   2.782 -0.1926  0.3455 -0.1499
  853MOL0     C15053   4.621   8.443   2.802  0.2716  0.5152 -0.3894
  853MOL0     C15054   4.670   8.430   2.935 -0.7116  1.1849  0.0836
  853MOL0     C15055   4.602   8.495   3.043 -0.4937 -0.1289  0.5691
  853MOL0     O15056   4.654   8.475   3.164  0.3023 -0.3518  0.4660
  853MOL0     C15057   4.634   8.584   3.255 -0.0607 -0.3615  0.1967
  853MOL0     C15058   4.743   8.683   3.252 -0.1549 -0.4514 -0.3898
  853MOL0     C15059   4.841   8.648   3.370 -0.3507  0.4730  0.4267
  853MOL0     C15060   4.944   8.524   3.343 -1.1333  0.1272  0.6004
  853MOL0     C15061   5.021   8.493   3.474 -0.0006 -1.0101 -1.0233
  853MOL0     C15062   5.141   8.395   3.446  0.7226  0.9969 -0.3571
  853MOL0     C15063   5.225   8.363   3.562 -0.3027  0.5745 -0.9324
  853MOL0     C15064   5.312   8.234   3.530  0.8216 -0.9787  0.2443
  853MOL0    Cl15065   5.429   8.204   3.654 -0.0741 -0.6184 -0.1247
  853MOL0     C15066   4.485   8.567   3.012 -0.5910 -0.7438 -0.4223
  853MOL0     C15067   4.431   8.575   2.883 -0.3108 -0.4826 -0.5757
  853MOL0     O15068   4.234   8.569   2.670  1.3768  0.3826 -0.1955
  853MOL0     C15069   4.445   8.698   2.418  0.1123 -0.4578  0.2493
  853MOL0     C15070   4.455   8.786   2.306 -0.0262 -1.6310 -0.1529
  853MOL0     N15071   4.114   9.561   2.049  0.0881  1.0322  1.0399
  853MOL0     N15072   4.083   9.665   1.973 -0.1988  0.1061  0.3802
  853MOL0     C15073   4.466  10.574   1.539 -0.1619 -0.2128  0.3077
  853MOL0     C15074   4.466  10.695   1.473  0.0079 -1.1171 -0.4633
  853MOL0     C15075   4.270  11.046   1.221 -0.8448  0.3113 -0.1097
  853MOL0     C15076   4.365  11.130   1.287 -1.1549 -0.4039 -0.4245
  853MOL0     C15077   4.381  11.261   1.252  0.4954  0.8061  0.3960
  853MOL0     C15078   4.306  11.303   1.140 -2.1396  0.0313 -0.7514
  853MOL0     O15079   4.332  11.424   1.090  0.0705  0.3363 -0.0096
  853MOL0     C15080   4.221  11.511   1.070 -0.0615  0.9317 -0.3977
  853MOL0     C15081   4.262  11.622   0.978  0.0428 -0.6536  0.0412
  853MOL0     C15082   4.155  11.728   0.959 -0.7987  0.0268  0.0442
  853MOL0     C15083   4.227  11.849   0.910  0.7704  1.0461  0.2636
  853MOL0     C15084   4.306  11.908   1.013 -0.9527 -0.5439 -0.8140
  853MOL0     C15085   4.382  11.958   1.101 -0.3084  0.3655  0.1258
  853MOL0     C15086   4.212  11.226   1.084  0.3649  0.1271 -0.1531
  853MOL0     C15087   4.185  11.101   1.125 -0.1200 -0.6802  0.4729
  853MOL0     H15088   4.132  10.740   1.435  2.0390  1.3429 -2.6792
  853MOL0     H15089   4.143  10.528   1.594  1.0166 -0.5875  1.8116
  853MOL0     H15090   4.534  10.367   1.704 -1.9283  3.2720 -2.6415
  853MOL0     H15091   4.413  10.267   1.783 -1.1255  2.9984  1.2497
  853MOL0     H15092   4.369  10.171   1.543 -1.4486  0.1577  0.9120
  853MOL0     H15093   4.506  10.253   1.489  1.5076 -3.2664 -1.5725
  853MOL0     H15094   4.643  10.119   1.656 -0.0587  2.5258 -1.2450
  853MOL0     H15095   4.498  10.056   1.728 -1.9848 -0.0700 -1.1318
  853MOL0     H15096   4.584  10.000   1.450 -0.3121 -2.1162  0.0717
  853MOL0     H15097   4.612   9.890   1.570 -0.0639 -0.0604  0.0542
  853MOL0     H15098   4.360   9.983   1.407 -2.9796 -1.9304 -1.4503
  853MOL0     H15099   4.413   9.814   1.430 -0.4604 -1.3686  3.0625
  853MOL0     H15100   4.268   9.984   1.639 -0.3463  0.4821  0.7508
  853MOL0     H15101   4.192   9.894   1.514  0.8427 -0.6760 -1.6172
  853MOL0     H15102   4.297   9.684   1.605  3.2987 -0.5545  1.2493
  853MOL0     H15103   4.376   9.772   1.722  1.1732  0.0200 -1.2732
  853MOL0     H15104   4.072   9.744   1.714 -0.9923  0.5214  0.0417
  853MOL0     H15105   4.158   9.872   1.801  0.4466 -0.3660  1.3578
  853MOL0     H15106   4.341   9.566   1.822 -0.3031 -3.3051 -0.5540
  853MOL0     H15107   4.385   9.366   1.989  0.2839 -0.8948  1.3011
  853MOL0     H15108   4.342   9.450   2.143 -0.1879  0.7102  0.2718
  853MOL0     H15109   4.169   9.228   2.005 -2.5147  0.2015  0.7413
  853MOL0     H15110   4.165   9.305   2.171  0.9309  1.2658 -0.2312
  853MOL0     H15111   4.327   9.169   2.246 -0.5237 -4.1951  1.0435
  853MOL0     H15112   4.423   9.153   2.098 -0.4140  0.1841 -0.5697
  853MOL0     H15113   4.221   9.020   2.014 -1.4236 -2.7625  0.6132
  853MOL0     H15114   4.164   9.026   2.178 -0.2329 -2.1564  0.3407
  853MOL0     H15115   4.122   8.834   2.264  0.6348  0.5747  0.4832
  853MOL0     H15116   4.050   8.712   2.559 -4.2310 -0.4624 -1.1438
  853MOL0     H15117   4.004   8.703   2.382 -1.4178 -0.6941  0.7958
  853MOL0     H15118   4.066   8.563   2.473 -0.9975  0.4997  1.8781
  853MOL0     H15119   4.660   8.401   2.710 -4.3120 -1.8111 -1.6225
  853MOL0     H15120   4.753   8.366   2.965 -2.1651 -1.2172 -0.7172
  853MOL0     H15121   4.540   8.639   3.242 -1.1232 -0.9449  4.2524
  853MOL0     H15122   4.621   8.548   3.357 -0.1745 -1.1817 -0.0990
  853MOL0     H15123   4.797   8.684   3.157  0.2764 -4.5852 -0.3436
  853MOL0     H15124   4.704   8.784   3.267  0.6788 -0.1082 -0.4484
  853MOL0     H15125   4.798   8.632   3.469 -2.5852 -0.6654 -0.6492
  853MOL0     H15126   4.913   8.730   3.363 -1.3160  1.4138  1.2388
  853MOL0     H15127   4.888   8.435   3.311 -3.1786  1.5082  0.1340
  853MOL0     H15128   5.006   8.557   3.259  0.4481 -0.0421  1.6586
  853MOL0     H15129   4.949   8.448   3.543  0.6518  0.9819  1.0788
  853MOL0     H15130   5.048   8.588   3.520 -3.7455 -0.7347  1.0077
  853MOL0     H15131   5.098   8.305   3.402 -2.4198  1.6934  0.9853
  853MOL0     H15132   5.205   8.449   3.376 -1.7787  1.7670 -2.1980
  853MOL0     H15133   5.156   8.353   3.646  0.2434  2.8895 -0.1319
  853MOL0     H15134   5.294   8.446   3.579 -0.2343  0.1736  0.9906
  853MOL0     H15135   5.362   8.258   3.436 -0.7480 -1.1670 -0.6783
  853MOL0     H15136   5.249   8.146   3.509  0.5566 -0.7567  0.0991
  853MOL0     H15137   4.419   8.609   3.087  0.5120 -1.6606  1.1266
  853MOL0     H15138   4.335   8.625   2.875  1.1370  2.1048 -3.9113
  853MOL0     H15139   4.534   8.663   2.469 -1.6218 -2.3723  2.2105
  853MOL0     H15140   4.547   8.809   2.254  0.1843 -0.7657  0.5805
  853MOL0     H15141   4.556  10.522   1.572 -1.3293 -2.3125  0.3459
  853MOL0     H15142   4.554  10.748   1.438 -1.5299  0.4328 -2.2200
  853MOL0     H15143   4.413  11.098   1.379  2.2689  0.9657 -1.5785
  853MOL0     H15144   4.440  11.329   1.314 -2.1149  2.1363  1.5640
  853MOL0     H15145   4.127  11.471   1.031 -1.2728  3.4707 -0.3003
  853MOL0     H15146   4.202  11.556   1.168  3.5985  0.5044  0.6614
  853MOL0     H15147   4.286  11.569   0.885 -0.0752 -3.5581  1.5719
  853MOL0     H15148   4.353  11.666   1.020 -1.4911  2.4446  0.4317
  853MOL0     H15149   4.110  11.762   1.053  1.3866  0.9404  0.8185
  853MOL0     H15150   4.076  11.684   0.897 -0.4054 -1.9347  0.8313
  853MOL0     H15151   4.156  11.923   0.873 -1.4498 -1.7668 -1.4858
  853MOL0     H15152   4.276  11.830   0.814 -1.1293  0.1245 -0.5773
  853MOL0     H15153   4.442  12.001   1.179 -0.9986 -0.9270  1.4327
  853MOL0     H15154   4.144  11.270   1.012 -2.9828 -2.2011  1.3621
  853MOL0     H15155   4.116  11.031   1.079  0.6100  0.4411 -2.6429
  854MOL0     O15156   6.642   2.916   8.077 -0.1629  0.1952 -0.2855
  854MOL0     C15157   6.714   2.835   8.017  0.1562 -0.3941 -0.1763
  854MOL0     O15158   6.669   2.747   7.928  0.0250  0.4544  0.4831
  854MOL0     C15159   6.541   2.760   7.881  0.5027 -0.7472  0.3024
  854MOL0     C15160   6.458   2.656   7.899  0.1390  0.2786  0.2088
  854MOL0     C15161   6.326   2.661   7.853 -0.2491 -0.8133 -0.4375
  854MOL0     C15162   6.286   2.763   7.766 -0.1269 -0.3047 -0.1396
  854MOL0     O15163   6.155   2.771   7.708 -0.6486  0.3656  0.3572
  854MOL0     C15164   6.060   2.663   7.724  0.5426  0.5861 -0.2601
  854MOL0     C15165   5.922   2.683   7.656 -0.6195 -0.0245  0.3193
  854MOL0     C15166   5.828   2.563   7.690  0.1569  0.6800 -0.5738
  854MOL0     C15167   5.734   2.551   7.569 -0.1601 -0.0555  0.3879
  854MOL0     C15168   5.644   2.431   7.569 -0.5027 -0.1117 -0.6873
  854MOL0     C15169   5.550   2.426   7.698 -0.0372  0.0462 -0.5447
  854MOL0     C15170   5.432   2.325   7.681 -0.3439  0.0564 -0.2992
  854MOL0     C15171   5.380   2.277   7.825  0.2871 -0.5708  0.4570
  854MOL0     N15172   5.478   2.196   7.894  0.1191  0.0895 -0.4263
  854MOL0     C15173   5.524   2.072   7.866  0.0252  1.2058  0.7076
  854MOL0     C15174   5.626   2.043   7.952  0.1288  0.4969  0.1345
  854MOL0     C15175   5.709   1.911   7.962  0.1752  0.5583 -0.4495
  854MOL0     C15176   5.825   1.901   7.864 -0.4795  0.0775  0.7336
  854MOL0     C15177   5.892   2.042   7.859  0.1898  0.4439  0.0691
  854MOL0     C15178   6.024   2.004   7.792  0.4016  0.1490 -0.3840
  854MOL0     O15179   5.993   1.971   7.657  0.0167  0.1919  0.7437
  854MOL0     C15180   6.099   1.994   7.559 -0.6398  0.9010 -0.4215
  854MOL0     C15181   6.067   1.967   7.428  0.0915 -0.7701  1.0240
  854MOL0     C15182   6.161   1.983   7.323 -0.1902  0.1852  0.0665
  854MOL0     C15183   6.104   1.947   7.186  0.1543 -1.0390  0.7120
  854MOL0     C15184   6.295   2.016   7.353 -0.2338  0.4786  0.9970
  854MOL0     C15185   6.397   2.040   7.247  0.3600  0.4282 -0.0632
  854MOL0     O15186   6.523   2.045   7.289 -0.1532  0.4132 -0.1683
  854MOL0     C15187   6.611   2.118   7.226 -0.4758 -1.3404 -0.0636
  854MOL0     C15188   6.617   2.263   7.228 -0.6200 -0.6216  0.1021
  854MOL0     C15189   6.717   2.332   7.152 -0.7811  0.1037 -1.0855
  854MOL0     C15190   6.829   2.259   7.103 -0.2686 -0.4623 -1.2128
  854MOL0     O15191   6.934   2.320   7.042 -0.3373 -0.7372  0.1863
  854MOL0     C15192   6.949   2.464   7.040 -0.0293 -0.8662  0.5753
  854MOL0     C15193   7.099   2.488   6.997 -0.4824  0.0116 -0.7189
  854MOL0     C15194   7.151   2.420   6.872 -1.0101 -0.5295  0.1053
  854MOL0     C15195   7.298   2.491   6.827  0.2616  0.5733  0.2952
  854MOL0     C15196   7.365   2.410   6.717  0.3188  0.6196  0.2070
  854MOL0     C15197   7.420   2.282   6.795 -0.3049  0.1893 -0.6084
  854MOL0     C15198   7.476   2.185   6.697  0.3915 -0.5404 -0.1089
  854MOL0     C15199   7.606   2.138   6.742 -0.1247  0.2961  0.0344
  854MOL0    Cl15200   7.597   2.043   6.894 -0.0697 -0.2039  0.0847
  854MOL0     C15201   6.837   2.122   7.106 -0.4697 -0.8190 -0.5842
  854MOL0     C15202   6.727   2.056   7.170 -0.1941  0.1310 -0.1160
  854MOL0     O15203   6.359   2.075   7.133 -0.0551 -1.1283  0.4355
  854MOL0     C15204   6.329   2.022   7.492 -0.1519  0.9010  0.8807
  854MOL0     C15205   6.234   2.007   7.592  0.0836  0.5263  0.6279
  854MOL0     N15206   5.642   2.149   8.039 -0.1642  0.1731  0.3538
  854MOL0     N15207   5.548   2.238   8.009 -0.2249 -0.2568  0.6463
  854MOL0     C15208   6.379   2.866   7.738 -0.0953 -0.1800 -0.7341
  854MOL0     C15209   6.505   2.868   7.804  0.0466  0.0197  0.0613
  854MOL0     C15210   6.857   2.823   8.067  0.5348  0.6026 -0.7958
  854MOL0     C15211   6.913   2.920   8.152 -0.2760 -0.3346 -0.9597
  854MOL0     C15212   7.047   2.914   8.191  0.2482 -0.3527  0.1267
  854MOL0     C15213   7.130   2.814   8.139 -0.4680 -0.2055 -0.0772
  854MOL0     O15214   7.268   2.804   8.165  0.4164  0.2874 -0.5719
  854MOL0     C15215   7.338   2.901   8.253 -0.0260  0.1177 -0.2085
  854MOL0     C15216   7.409   3.003   8.163  0.5086 -0.9456  0.5256
  854MOL0     C15217   7.508   3.080   8.256  1.2332 -0.3145  0.0657
  854MOL0     C15218   7.629   2.993   8.294 -0.3797 -0.8826 -0.0132
  854MOL0     C15219   7.706   2.959   8.170  0.6071 -0.4486 -0.6824
  854MOL0     C15220   7.773   2.960   8.070 -0.5778  0.5475 -0.1462
  854MOL0     C15221   7.075   2.724   8.046  0.2968 -0.0376 -0.1388
  854MOL0     C15222   6.937   2.724   8.014  0.2376 -0.3188 -0.9702
  854MOL0     H15223   6.487   2.569   7.957  2.2061  1.3531  0.8767
  854MOL0     H15224   6.256   2.583   7.882  0.9874 -1.9642 -0.4402
  854MOL0     H15225   6.108   2.571   7.690  2.2199  1.5825 -0.7022
  854MOL0     H15226   6.028   2.648   7.828 -1.3802 -2.7064 -1.1921
  854MOL0     H15227   5.873   2.775   7.692  1.0951  1.3118 -0.5856
  854MOL0     H15228   5.931   2.678   7.547  1.3442  2.0053  0.3066
  854MOL0     H15229   5.887   2.471   7.697  1.2357  1.1989 -2.1344
  854MOL0     H15230   5.766   2.592   7.775  4.1754  2.1132  2.1502
  854MOL0     H15231   5.658   2.630   7.567 -3.2385 -2.7254 -3.9776
  854MOL0     H15232   5.794   2.554   7.478  1.1709  3.2211  1.2186
  854MOL0     H15233   5.595   2.429   7.472 -1.6872  1.3994 -0.1513
  854MOL0     H15234   5.710   2.343   7.578 -0.2635  0.1849  0.7847
  854MOL0     H15235   5.618   2.394   7.779 -2.3347 -0.2322  1.3777
  854MOL0     H15236   5.517   2.524   7.732 -1.8470 -0.7185  0.0115
  854MOL0     H15237   5.347   2.364   7.625  0.5910  0.8095 -1.2524
  854MOL0     H15238   5.462   2.231   7.632  0.5522 -1.0490  2.1922
  854MOL0     H15239   5.282   2.233   7.801  1.0886 -1.5372 -1.2220
  854MOL0     H15240   5.357   2.364   7.888 -1.4917 -0.7799  0.1611
  854MOL0     H15241   5.496   1.998   7.792  1.2363  1.2839  0.1623
  854MOL0     H15242   5.759   1.898   8.059  1.7350 -2.0787 -1.4939
  854MOL0     H15243   5.639   1.826   7.965 -1.0787  1.5794  0.4326
  854MOL0     H15244   5.786   1.869   7.766  2.3615 -2.0648  0.1693
  854MOL0     H15245   5.891   1.825   7.906 -0.2950  1.1824  2.5053
  854MOL0     H15246   5.919   2.082   7.957  2.5060 -0.4373 -0.1581
  854MOL0     H15247   5.836   2.128   7.822 -0.4162  1.1949  2.5371
  854MOL0     H15248   6.077   1.915   7.826 -1.9023 -1.3918 -0.6083
  854MOL0     H15249   6.075   2.100   7.800  0.9434  0.1383 -2.7454
  854MOL0     H15250   5.964   1.938   7.408  0.2715 -1.4507  1.0631
  854MOL0     H15251   6.171   1.885   7.125 -1.5310 -0.5025 -1.8687
  854MOL0     H15252   5.998   1.920   7.194  0.0866 -1.2537 -0.6856
  854MOL0     H15253   6.093   2.041   7.131 -2.1595 -1.8634 -0.3938
  854MOL0     H15254   6.540   2.320   7.278  0.8173 -0.5711  2.3669
  854MOL0     H15255   6.715   2.441   7.149  1.1554  0.2162  0.0489
  854MOL0     H15256   6.878   2.501   6.966 -3.1519 -4.2923  1.5825
  854MOL0     H15257   6.929   2.524   7.129  1.3747 -0.3222  0.5643
  854MOL0     H15258   7.093   2.597   6.989 -0.6412  0.0213 -0.4727
  854MOL0     H15259   7.155   2.456   7.085  0.4900 -0.9406 -1.6453
  854MOL0     H15260   7.074   2.432   6.795 -0.8206 -3.5874 -0.6978
  854MOL0     H15261   7.149   2.313   6.895 -2.1840 -0.9791 -1.8618
  854MOL0     H15262   7.285   2.590   6.782 -1.0448  0.7986  1.1312
  854MOL0     H15263   7.358   2.515   6.915 -0.6913  1.2774  0.7600
  854MOL0     H15264   7.454   2.470   6.696  0.9971 -0.7197 -0.9017
  854MOL0     H15265   7.308   2.378   6.629  2.5155 -0.5390 -0.8894
  854MOL0     H15266   7.497   2.326   6.858 -2.8100  0.7459  2.2835
  854MOL0     H15267   7.351   2.231   6.863 -2.0034  4.6734  1.4888
  854MOL0     H15268   7.493   2.224   6.596 -1.0348 -1.7403 -0.8540
  854MOL0     H15269   7.404   2.103   6.688  3.6188 -3.6047 -0.1245
  854MOL0     H15270   7.681   2.217   6.754 -1.5955  1.3727  3.1082
  854MOL0     H15271   7.649   2.070   6.667 -1.4227 -1.7096  1.0203
  854MOL0     H15272   6.908   2.059   7.053  1.2338 -0.3852  1.0996
  854MOL0     H15273   6.722   1.949   7.187 -0.2126 -0.0001 -0.9189
  854MOL0     H15274   6.430   2.041   7.527 -0.9545  4.3860  1.6604
  854MOL0     H15275   6.255   2.011   7.698 -0.3432 -4.1487  1.1026
  854MOL0     H15276   6.357   2.931   7.654 -2.4351  0.7296  0.4962
  854MOL0     H15277   6.580   2.944   7.785  0.2001 -0.7086 -2.5864
  854MOL0     H15278   6.863   3.013   8.179 -0.5757 -1.2075  1.7668
  854MOL0     H15279   7.092   2.991   8.252  1.0686  1.3174 -2.4503
  854MOL0     H15280   7.276   2.962   8.319 -0.8629 -1.5011  0.5674
  854MOL0     H15281   7.396   2.841   8.323 -0.6811 -0.2989 -0.0179
  854MOL0     H15282   7.331   3.072   8.127 -0.6573 -1.9483  1.0581
  854MOL0     H15283   7.453   2.967   8.070 -1.3689 -0.5454 -0.5765
  854MOL0     H15284   7.457   3.118   8.345  0.1068  0.4426 -0.8740
  854MOL0     H15285   7.536   3.165   8.193 -2.3254  1.2103  0.3266
  854MOL0     H15286   7.612   2.919   8.373 -2.8496 -0.9167 -0.5057
  854MOL0     H15287   7.695   3.067   8.341 -1.8454 -0.0270  0.7492
  854MOL0     H15288   7.848   2.961   7.994  1.1910  3.1012  1.4578
  854MOL0     H15289   7.140   2.652   7.996  0.5456 -0.3155  0.5645
  854MOL0     H15290   6.888   2.668   7.936 -2.6743  0.0671  0.4230
  855MOL0     O15291   0.970   0.415   5.330 -0.1682  0.4880 -0.3130
  855MOL0     C15292   1.025   0.480   5.249 -0.3142 -0.4048  0.3877
  855MOL0     O15293   1.069   0.432   5.132  0.6394  0.3835  0.5187
  855MOL0     C15294   1.063   0.294   5.092 -0.6307 -1.1271 -0.3870
  855MOL0     C15295   1.175   0.256   5.019  0.2387  0.1076 -0.3374
  855MOL0     C15296   1.185   0.120   4.970 -0.0537 -0.8431 -0.1545
  855MOL0     C15297   1.083   0.035   5.000  0.3305  0.3200 -0.0621
  855MOL0     O15298   1.090  -0.102   4.975 -0.5418  0.1647  0.2823
  855MOL0     C15299   1.136  -0.154   4.843  0.6658  0.6922  0.6511
  855MOL0     C15300   1.100  -0.309   4.814  0.4575  0.0546 -0.1449
  855MOL0     C15301   1.172  -0.418   4.891  0.2479 -0.9894  0.5067
  855MOL0     C15302   1.114  -0.439   5.033 -0.1175  0.5062  0.1849
  855MOL0     C15303   1.203  -0.542   5.114  0.1755  0.5287 -0.3220
  855MOL0     C15304   1.342  -0.479   5.149 -0.5350 -0.2378 -0.3004
  855MOL0     C15305   1.425  -0.542   5.264 -0.2949 -0.3574 -1.3637
  855MOL0     C15306   1.355  -0.523   5.396 -0.9158  0.7476  0.2993
  855MOL0     N15307   1.343  -0.379   5.431  0.0626 -0.5238 -0.7951
  855MOL0     C15308   1.239  -0.313   5.391  0.1773 -1.2836 -0.5954
  855MOL0     C15309   1.239  -0.202   5.477  0.2692  0.8306  0.6467
  855MOL0     C15310   1.156  -0.087   5.465  0.5157 -1.2478 -1.2439
  855MOL0     C15311   1.012  -0.136   5.504 -0.2870 -0.8537  0.8684
  855MOL0     C15312   0.894  -0.055   5.443 -0.4519 -0.5115  0.0977
  855MOL0     C15313   0.882   0.091   5.497 -0.4255 -0.1758 -0.0289
  855MOL0     O15314   0.829   0.084   5.630  0.4741 -0.0337  0.0935
  855MOL0     C15315   0.861   0.181   5.727 -0.9335 -0.3437 -0.1628
  855MOL0     C15316   0.912   0.308   5.696 -0.4707  0.2860  0.3635
  855MOL0     C15317   0.952   0.400   5.799  0.3136  0.6265 -0.3677
  855MOL0     C15318   1.008   0.532   5.749  0.9151  0.3568  0.1937
  855MOL0     C15319   0.928   0.365   5.936  0.2233 -0.0344 -0.9502
  855MOL0     C15320   0.929   0.467   6.044 -0.0861  1.0717  0.7836
  855MOL0     O15321   0.892   0.597   6.008 -0.1892  0.0870 -0.2926
  855MOL0     C15322   0.900   0.692   6.104  0.0415  0.0020  0.0458
  855MOL0     C15323   0.928   0.824   6.057  0.9598  0.3242 -0.0474
  855MOL0     C15324   0.956   0.923   6.152 -0.0157  0.4204  0.1033
  855MOL0     C15325   0.932   0.915   6.291 -0.3249  1.2500  0.4069
  855MOL0     O15326   0.961   1.004   6.387 -0.0990 -0.2870  0.6101
  855MOL0     C15327   0.851   1.068   6.441 -0.7300  0.4874  0.1392
  855MOL0     C15328   0.807   1.021   6.579  0.4856  0.3589  0.1034
  855MOL0     C15329   0.916   0.978   6.668 -0.5165  0.1633  0.3323
  855MOL0     C15330   0.875   0.971   6.820 -0.4204 -0.1300  0.6739
  855MOL0     C15331   0.961   0.858   6.887  0.3467 -0.0685  0.6187
  855MOL0     C15332   0.973   0.842   7.043 -0.6337 -0.2217  0.2567
  855MOL0     C15333   1.029   0.967   7.105  0.3578  0.0322 -0.5798
  855MOL0     C15334   1.033   0.953   7.253 -0.0307  0.1687 -0.3308
  855MOL0    Cl15335   1.163   0.834   7.301 -0.3601  0.7425 -0.3933
  855MOL0     C15336   0.895   0.785   6.334  0.3210 -0.5627  0.4136
  855MOL0     C15337   0.870   0.676   6.246  0.2872 -0.7024  0.1223
  855MOL0     O15338   0.960   0.423   6.157  0.0558 -0.3851 -0.2043
  855MOL0     C15339   0.873   0.241   5.963  0.5675 -0.2619 -0.1517
  855MOL0     C15340   0.846   0.155   5.864 -0.2054 -0.7240 -0.0455
  855MOL0     N15341   1.348  -0.217   5.563 -0.1005 -0.1130  0.9081
  855MOL0     N15342   1.402  -0.325   5.539  0.7662 -0.0118 -0.5740
  855MOL0     C15343   0.970   0.077   5.072 -0.5005  1.1811  0.7851
  855MOL0     C15344   0.965   0.202   5.125  0.5716 -0.0111  0.2838
  855MOL0     C15345   1.015   0.624   5.269  0.3410 -0.6405  0.2047
  855MOL0     C15346   0.931   0.678   5.365  0.4136 -0.2327 -0.3107
  855MOL0     C15347   0.902   0.812   5.373  0.4677  0.2451  1.0063
  855MOL0     C15348   0.954   0.910   5.283 -0.5801  0.5190 -0.4946
  855MOL0     O15349   0.943   1.044   5.280  0.0291 -0.4490 -0.2905
  855MOL0     C15350   0.936   1.112   5.412 -0.5719  0.1576  0.1469
  855MOL0     C15351   0.900   1.248   5.380  0.4708  0.3836 -0.2129
  855MOL0     C15352   1.014   1.326   5.329  0.2286  0.5917 -0.0693
  855MOL0     C15353   0.986   1.470   5.292 -0.2577 -0.2603 -0.3417
  855MOL0     C15354   0.993   1.554   5.415 -0.7062 -0.3918  0.1356
  855MOL0     C15355   0.999   1.640   5.499  0.0290  0.1540  0.1550
  855MOL0     C15356   1.041   0.849   5.183 -0.5109 -0.7576 -0.1321
  855MOL0     C15357   1.079   0.719   5.189  0.3848 -0.7876  0.0287
  855MOL0     H15358   1.253   0.327   4.998 -1.9553  2.7586 -0.0894
  855MOL0     H15359   1.268   0.078   4.914 -0.3494 -0.1023 -1.1734
  855MOL0     H15360   1.077  -0.101   4.769 -1.7064 -0.8409  1.3452
  855MOL0     H15361   1.243  -0.149   4.819  0.5741 -2.7561 -0.9932
  855MOL0     H15362   0.991  -0.324   4.817  0.3065  1.0732 -0.1964
  855MOL0     H15363   1.140  -0.329   4.715 -1.0978 -0.8732 -0.6222
  855MOL0     H15364   1.152  -0.508   4.834  1.2270  0.7007 -2.7981
  855MOL0     H15365   1.279  -0.396   4.903  0.0557 -0.8538  2.2245
  855MOL0     H15366   1.110  -0.343   5.085 -0.9601  1.1274 -0.9845
  855MOL0     H15367   1.012  -0.471   5.006 -0.8517  3.5306 -0.9956
  855MOL0     H15368   1.153  -0.562   5.209  0.0783 -0.2510 -0.5296
  855MOL0     H15369   1.223  -0.636   5.061  1.0948  0.4609  0.1293
  855MOL0     H15370   1.407  -0.490   5.061  2.2875 -0.2545  1.6428
  855MOL0     H15371   1.322  -0.375   5.176  2.0458  0.1103  0.5750
  855MOL0     H15372   1.449  -0.646   5.240 -0.0182 -0.1498 -1.9962
  855MOL0     H15373   1.515  -0.481   5.280 -1.3007  0.5973  1.2608
  855MOL0     H15374   1.416  -0.576   5.469 -0.0202  0.9334 -0.2999
  855MOL0     H15375   1.254  -0.563   5.389 -0.8372  0.5954  0.0448
  855MOL0     H15376   1.166  -0.321   5.311  0.1871  1.4935 -0.9649
  855MOL0     H15377   1.187  -0.009   5.535  1.9915  0.9045 -4.1098
  855MOL0     H15378   1.164  -0.035   5.369  0.3428  1.2639  0.0168
  855MOL0     H15379   0.994  -0.116   5.610 -4.7440  1.5609 -0.1032
  855MOL0     H15380   0.994  -0.244   5.498 -1.3530 -0.7507  1.7802
  855MOL0     H15381   0.804  -0.116   5.444 -1.4115  0.8592  0.1193
  855MOL0     H15382   0.903  -0.035   5.336 -1.7245  2.1685  0.4108
  855MOL0     H15383   0.804   0.149   5.446  0.0262 -0.0214 -0.5552
  855MOL0     H15384   0.979   0.140   5.487 -1.2379  1.6467  0.7787
  855MOL0     H15385   0.928   0.346   5.595 -0.3838  1.3965  0.7842
  855MOL0     H15386   1.088   0.507   5.678 -1.0405 -4.3759 -0.7202
  855MOL0     H15387   0.923   0.592   5.714  0.9742  0.9345  1.0259
  855MOL0     H15388   1.053   0.586   5.833 -1.7479  2.6251  0.3298
  855MOL0     H15389   0.919   0.839   5.950 -4.0676 -0.3193  0.0537
  855MOL0     H15390   0.974   1.016   6.100 -1.1033 -0.4806 -2.0026
  855MOL0     H15391   0.886   1.171   6.450 -2.3065  1.2473 -1.6230
  855MOL0     H15392   0.765   1.086   6.376 -0.6837 -1.2676 -0.4607
  855MOL0     H15393   0.744   1.099   6.624 -1.7301 -1.8462  1.0626
  855MOL0     H15394   0.730   0.944   6.579 -0.7731  1.5267  1.7307
  855MOL0     H15395   1.008   1.034   6.649  0.7767 -1.5061  1.3824
  855MOL0     H15396   0.948   0.878   6.639 -0.8042 -0.9967  3.5944
  855MOL0     H15397   0.909   1.064   6.867  0.6504 -1.4715  2.6932
  855MOL0     H15398   0.769   0.952   6.836 -0.1971 -1.6423  0.5631
  855MOL0     H15399   1.065   0.862   6.851  0.6690  2.1965  1.6240
  855MOL0     H15400   0.919   0.767   6.843 -3.0908  1.9831 -0.7757
  855MOL0     H15401   0.874   0.824   7.086  0.4558  2.0274  4.2210
  855MOL0     H15402   1.042   0.761   7.070  1.6395  1.9059  1.1671
  855MOL0     H15403   0.973   1.055   7.071 -1.8323 -0.2686  1.9219
  855MOL0     H15404   1.131   0.974   7.067  0.3937 -0.2685 -0.5438
  855MOL0     H15405   0.935   0.917   7.285 -1.3456  1.2640 -2.8308
  855MOL0     H15406   1.071   1.044   7.301 -0.2824  0.3444 -0.4633
  855MOL0     H15407   0.882   0.758   6.438  0.3080 -1.9225  0.0848
  855MOL0     H15408   0.832   0.579   6.277 -1.4787 -2.0844 -5.2263
  855MOL0     H15409   0.863   0.216   6.068  0.3379 -0.7603 -0.2927
  855MOL0     H15410   0.794   0.065   5.896  1.5204 -2.5307 -2.0602
  855MOL0     H15411   0.889   0.008   5.093 -0.6232  1.2017  0.3748
  855MOL0     H15412   0.880   0.222   5.190  2.0284 -3.6502  3.7130
  855MOL0     H15413   0.875   0.622   5.439  0.6117  1.8046  1.4799
  855MOL0     H15414   0.839   0.829   5.460  0.0390  1.9178  0.3926
  855MOL0     H15415   0.870   1.064   5.484 -1.7407 -0.3240 -1.2096
  855MOL0     H15416   1.032   1.102   5.463 -0.5007 -2.1847 -0.3276
  855MOL0     H15417   0.875   1.298   5.474 -3.0767  1.8077 -1.7350
  855MOL0     H15418   0.823   1.247   5.302  0.3327 -1.3913 -0.0930
  855MOL0     H15419   1.038   1.266   5.241 -2.0967 -2.0579  0.9502
  855MOL0     H15420   1.094   1.311   5.402  2.4651 -0.5154 -2.5656
  855MOL0     H15421   0.891   1.477   5.239  1.1611 -2.6620 -3.5005
  855MOL0     H15422   1.067   1.504   5.227 -0.8726  0.1847 -0.8781
  855MOL0     H15423   0.995   1.721   5.568  1.0088 -0.5435  1.0509
  855MOL0     H15424   1.063   0.918   5.103 -0.3798 -2.9441 -2.1103
  855MOL0     H15425   1.147   0.669   5.120 -0.0380  2.2210 -2.8650
  856MOL0     O15426   5.448  10.217   5.104  1.0914 -0.5439 -0.2574
  856MOL0     C15427   5.380  10.285   5.026 -1.2218 -0.0863  0.1786
  856MOL0     O15428   5.381  10.275   4.889 -0.5324  0.5706  0.0816
  856MOL0     C15429   5.431  10.158   4.834 -0.6881 -0.6208  0.8826
  856MOL0     C15430   5.407  10.029   4.889  0.0197 -0.3815  0.0596
  856MOL0     C15431   5.453   9.911   4.823 -0.1098 -0.7478 -0.4680
  856MOL0     C15432   5.526   9.928   4.701 -0.1495  0.7961  0.4187
  856MOL0     O15433   5.587   9.823   4.634 -0.0170  0.1464 -0.1026
  856MOL0     C15434   5.562   9.682   4.676  0.7214  0.1259  0.4847
  856MOL0     C15435   5.639   9.563   4.619  0.6929 -0.4362 -0.2173
  856MOL0     C15436   5.669   9.575   4.465  0.0597 -0.1620  0.2959
  856MOL0     C15437   5.735   9.452   4.407  0.6159 -0.4491 -1.0909
  856MOL0     C15438   5.716   9.443   4.253  0.4486  0.4569 -0.0351
  856MOL0     C15439   5.767   9.322   4.193  0.5781 -0.0252  0.6638
  856MOL0     C15440   5.708   9.287   4.050 -0.3212  0.2359 -0.9958
  856MOL0     C15441   5.648   9.148   4.034 -0.8456 -0.7458 -0.1334
  856MOL0     N15442   5.737   9.049   4.091  0.1834  0.7134 -0.2766
  856MOL0     C15443   5.850   9.007   4.037 -0.7075  0.7069 -0.0478
  856MOL0     C15444   5.909   8.920   4.124  0.2314 -0.1688  0.1062
  856MOL0     C15445   6.033   8.845   4.117  1.4139 -0.0895 -0.9204
  856MOL0     C15446   6.148   8.948   4.128  0.7064  0.4973 -0.5277
  856MOL0     C15447   6.187   9.023   3.999 -0.5985  0.0277  0.0703
  856MOL0     C15448   6.329   9.077   4.004 -0.2136  0.8215  0.0399
  856MOL0     O15449   6.358   9.163   4.122 -0.4542 -0.1707  0.2754
  856MOL0     C15450   6.294   9.286   4.136 -0.2575  0.6178  0.5797
  856MOL0     C15451   6.294   9.330   4.263  0.0049  0.4166  0.2725
  856MOL0     C15452   6.243   9.454   4.298  0.4881  0.2291  0.4788
  856MOL0     C15453   6.250   9.500   4.439  0.4043 -0.7535 -0.8910
  856MOL0     C15454   6.181   9.529   4.195  0.1861  0.8780  0.3208
  856MOL0     C15455   6.128   9.665   4.222  0.5882  0.0110  0.0113
  856MOL0     O15456   6.122   9.721   4.349  1.0455 -0.4973  0.4101
  856MOL0     C15457   6.074   9.852   4.357  0.5106 -1.3508  0.6346
  856MOL0     C15458   6.166   9.949   4.382 -0.1290 -0.9270  0.3758
  856MOL0     C15459   6.125  10.083   4.411 -0.5301 -1.0013  0.2368
  856MOL0     C15460   5.990  10.116   4.407  0.7232  1.2973  0.1349
  856MOL0     O15461   5.942  10.235   4.434 -0.2089 -0.0899 -0.2382
  856MOL0     C15462   6.029  10.310   4.519  0.2950 -0.1180 -0.2737
  856MOL0     C15463   5.965  10.451   4.549  0.1662  0.7985 -0.4547
  856MOL0     C15464   5.845  10.444   4.641 -0.2431  0.7126  0.1042
  856MOL0     C15465   5.775  10.568   4.646 -0.6245 -0.6299  0.6658
  856MOL0     C15466   5.650  10.568   4.724  0.6660 -1.1190 -0.1764
  856MOL0     C15467   5.664  10.537   4.877  0.7697  0.2044  0.5450
  856MOL0     C15468   5.747  10.637   4.940  0.2095 -0.9309 -0.1714
  856MOL0     C15469   5.770  10.619   5.091  0.0357 -0.1673 -0.5386
  856MOL0    Cl15470   5.610  10.648   5.174 -0.1288  0.0510  0.0900
  856MOL0     C15471   5.897  10.018   4.383  0.2350  0.0479  1.0341
  856MOL0     C15472   5.937   9.889   4.358 -0.1748 -0.2491 -0.1419
  856MOL0     O15473   6.076   9.720   4.124 -1.5272  0.2170  1.3108
  856MOL0     C15474   6.182   9.482   4.064 -0.0314 -0.3446  0.0302
  856MOL0     C15475   6.236   9.362   4.030  0.5086 -0.2441 -0.1593
  856MOL0     N15476   5.813   8.891   4.218  0.4568  0.0942 -0.1932
  856MOL0     N15477   5.719   8.983   4.209  0.3528  0.4682  0.4543
  856MOL0     C15478   5.552  10.045   4.655  0.7660 -1.3071  0.0924
  856MOL0     C15479   5.502  10.170   4.716 -0.2486  0.3626  0.2598
  856MOL0     C15480   5.320  10.415   5.069 -0.5523  0.3847 -0.2152
  856MOL0     C15481   5.327  10.466   5.203 -0.1541 -0.1913 -0.3882
  856MOL0     C15482   5.266  10.592   5.245  0.5767  0.2441  0.4913
  856MOL0     C15483   5.197  10.661   5.149  0.3032  0.7479  0.2505
  856MOL0     O15484   5.125  10.780   5.176  0.8335 -0.0488 -0.8320
  856MOL0     C15485   5.135  10.849   5.308  1.1717 -0.6815 -0.0747
  856MOL0     C15486   5.255  10.952   5.313 -0.4350 -0.3251  0.1944
  856MOL0     C15487   5.228  11.079   5.223  0.2636  0.0253 -1.2852
  856MOL0     C15488   5.295  11.205   5.291  0.6120  0.7232 -0.7564
  856MOL0     C15489   5.306  11.303   5.179  0.3080  1.0421 -0.2043
  856MOL0     C15490   5.297  11.405   5.112  0.0789 -0.1105  1.9763
  856MOL0     C15491   5.183  10.607   5.020  0.5176 -0.6237 -0.4983
  856MOL0     C15492   5.245  10.490   4.977  0.6647 -0.0032  0.2552
  856MOL0     H15493   5.342  10.006   4.973  0.9409 -1.9138  0.4057
  856MOL0     H15494   5.432   9.810   4.858 -1.9408 -1.0655 -2.3064
  856MOL0     H15495   5.590   9.684   4.782  1.2320 -1.3291  0.4078
  856MOL0     H15496   5.456   9.658   4.661  0.2400  1.2626  1.8767
  856MOL0     H15497   5.730   9.556   4.679  0.9816  0.2404 -0.5647
  856MOL0     H15498   5.576   9.475   4.637  0.1339  0.0449  0.2369
  856MOL0     H15499   5.568   9.596   4.429  0.3146  2.1841  0.8191
  856MOL0     H15500   5.747   9.648   4.445 -0.6558 -0.2479 -3.5986
  856MOL0     H15501   5.841   9.436   4.427  0.5332  1.6156  1.5905
  856MOL0     H15502   5.677   9.374   4.457 -1.1885  0.5945 -1.4749
  856MOL0     H15503   5.606   9.439   4.248  0.4025  2.0498 -1.0931
  856MOL0     H15504   5.740   9.536   4.201 -0.5112  0.0984 -1.1596
  856MOL0     H15505   5.874   9.333   4.178  1.2892 -1.0352  4.1981
  856MOL0     H15506   5.742   9.234   4.253 -1.3272  0.5118  0.7213
  856MOL0     H15507   5.628   9.360   4.036  0.9352  1.8423 -0.2055
  856MOL0     H15508   5.782   9.305   3.971  0.5960 -0.8466 -0.4138
  856MOL0     H15509   5.628   9.147   3.926 -0.6479  2.3493 -0.3004
  856MOL0     H15510   5.554   9.149   4.089 -1.0086  4.3082 -0.0737
  856MOL0     H15511   5.889   9.041   3.941  5.2548 -0.4202  1.5719
  856MOL0     H15512   6.031   8.789   4.211 -2.3555  0.6180 -0.3974
  856MOL0     H15513   6.041   8.779   4.030  3.5602  1.0657 -1.6620
  856MOL0     H15514   6.234   8.891   4.165 -1.0397 -1.1304  1.1862
  856MOL0     H15515   6.129   9.022   4.206 -2.2563 -0.8610  0.1863
  856MOL0     H15516   6.110   9.101   3.999  1.2340  1.9313  1.8577
  856MOL0     H15517   6.201   8.961   3.910  2.7686  0.2086  0.3604
  856MOL0     H15518   6.356   9.128   3.910  2.7154 -1.2867 -0.3987
  856MOL0     H15519   6.404   8.998   3.997 -0.3317  0.7311 -0.2351
  856MOL0     H15520   6.337   9.269   4.342 -1.8772  0.6903  1.5890
  856MOL0     H15521   6.294   9.424   4.505  1.4860  0.4871 -0.1096
  856MOL0     H15522   6.321   9.583   4.446  1.1387 -1.4678  1.2654
  856MOL0     H15523   6.153   9.518   4.486  0.1047  0.9185 -2.0947
  856MOL0     H15524   6.268   9.916   4.395  0.6151 -0.4834 -3.2875
  856MOL0     H15525   6.209  10.151   4.419 -0.3020 -0.9997 -1.6913
  856MOL0     H15526   6.044  10.261   4.615 -1.2592  0.1862  0.1616
  856MOL0     H15527   6.126  10.335   4.475 -0.4588  0.1152 -1.8771
  856MOL0     H15528   6.046  10.514   4.588  1.9259 -1.4590 -0.2325
  856MOL0     H15529   5.948  10.495   4.450  1.3127 -1.4053 -1.7216
  856MOL0     H15530   5.888  10.421   4.739  0.5063 -1.4594 -0.6769
  856MOL0     H15531   5.779  10.362   4.612 -1.0346  0.4547  2.3744
  856MOL0     H15532   5.835  10.649   4.688 -0.2296  0.6356 -2.1235
  856MOL0     H15533   5.760  10.614   4.548  0.8958 -0.5550  0.4521
  856MOL0     H15534   5.577  10.495   4.689 -3.0391  1.4970  1.3520
  856MOL0     H15535   5.602  10.665   4.710 -0.2564 -1.1831  1.9974
  856MOL0     H15536   5.565  10.527   4.924 -1.0060  0.8562 -2.7351
  856MOL0     H15537   5.719  10.444   4.895  0.0202 -0.0344  1.7652
  856MOL0     H15538   5.719  10.738   4.908  2.1401 -0.7877 -1.6800
  856MOL0     H15539   5.847  10.623   4.896  0.9681 -0.8118  1.4510
  856MOL0     H15540   5.838  10.697   5.127 -1.6684  1.2770 -0.3171
  856MOL0     H15541   5.803  10.518   5.118 -0.9005 -0.3063  0.1499
  856MOL0     H15542   5.791  10.039   4.375 -0.1273 -1.4707  1.5933
  856MOL0     H15543   5.856   9.818   4.341 -0.6618 -1.5503  5.5316
  856MOL0     H15544   6.130   9.536   3.986 -1.4393 -1.1465  0.3776
  856MOL0     H15545   6.236   9.328   3.927  0.3618 -0.0100 -0.2374
  856MOL0     H15546   5.616  10.053   4.568 -0.5558  1.2155 -0.7626
  856MOL0     H15547   5.510  10.267   4.667  0.0012 -1.7580 -4.4575
  856MOL0     H15548   5.378  10.410   5.280 -0.0700 -0.8925 -0.9500
  856MOL0     H15549   5.281  10.613   5.350 -2.1540  1.5149  0.7137
  856MOL0     H15550   5.040  10.898   5.333  1.0921 -0.6429 -0.4523
  856MOL0     H15551   5.152  10.772   5.383  2.2326  2.4525  3.1999
  856MOL0     H15552   5.350  10.907   5.282 -1.4775 -3.0050  0.6530
  856MOL0     H15553   5.253  10.998   5.412  0.6469 -0.0256  0.0875
  856MOL0     H15554   5.120  11.083   5.208 -0.0027  3.4370  0.4438
  856MOL0     H15555   5.280  11.074   5.127 -0.3652  1.5723 -1.7332
  856MOL0     H15556   5.388  11.175   5.340 -1.1940  2.2220  4.1812
  856MOL0     H15557   5.227  11.232   5.372  2.1833 -0.8744  1.1815
  856MOL0     H15558   5.290  11.501   5.064 -0.9038 -0.2420  1.8512
  856MOL0     H15559   5.113  10.652   4.950 -0.5940 -2.2136 -0.4508
  856MOL0     H15560   5.217  10.469   4.874 -0.9356  2.7712  0.0319
  857MOL0     O15561   1.025   2.037   3.790 -0.8346 -0.3061 -0.0400
  857MOL0     C15562   1.114   1.980   3.734 -0.4203  0.1630  0.1255
  857MOL0     O15563   1.241   2.019   3.717  0.0680 -0.2225  0.2638
  857MOL0     C15564   1.278   2.140   3.766  0.5727  0.1241  0.0817
  857MOL0     C15565   1.273   2.166   3.904  0.3192  0.4354 -0.1992
  857MOL0     C15566   1.308   2.284   3.953 -0.5714 -0.4289  0.3478
  857MOL0     C15567   1.349   2.386   3.866 -0.3082  0.6097 -0.2311
  857MOL0     O15568   1.406   2.500   3.921 -0.3952 -0.0065  0.7083
  857MOL0     C15569   1.341   2.624   3.891  0.1664  0.0808 -1.0372
  857MOL0     C15570   1.421   2.749   3.936  0.0221  0.7164  1.3224
  857MOL0     C15571   1.547   2.764   3.845 -0.1335 -0.8019  0.1796
  857MOL0     C15572   1.667   2.712   3.922  0.0388  0.6519  0.6943
  857MOL0     C15573   1.790   2.707   3.836 -0.0678 -0.9579  0.2472
  857MOL0     C15574   1.787   2.589   3.737  0.5445 -0.1015 -0.1944
  857MOL0     C15575   1.894   2.588   3.633 -0.2329 -0.7375  0.2249
  857MOL0     C15576   1.878   2.697   3.522 -0.0615 -0.5310  0.0470
  857MOL0     N15577   1.926   2.641   3.397  0.3621  0.1051 -0.9584
  857MOL0     C15578   1.846   2.578   3.308  1.2146  0.7306  0.3070
  857MOL0     C15579   1.930   2.527   3.207  0.1253 -0.7691  0.0175
  857MOL0     C15580   1.900   2.449   3.084  0.4495  1.0238  0.5102
  857MOL0     C15581   1.934   2.540   2.958 -0.0637 -0.4353 -0.3908
  857MOL0     C15582   1.822   2.630   2.890  0.2157  0.1374  0.2772
  857MOL0     C15583   1.803   2.743   2.987 -0.3120 -0.2653 -0.0166
  857MOL0     O15584   1.697   2.839   2.933  0.3606 -0.6918 -0.8379
  857MOL0     C15585   1.730   2.923   2.824 -0.2719 -0.4299  0.5318
  857MOL0     C15586   1.862   2.969   2.784  0.4085  0.6700  0.9834
  857MOL0     C15587   1.896   3.044   2.665  0.6499  0.3316 -0.6467
  857MOL0     C15588   2.026   3.117   2.667 -0.4725 -0.6313  0.2213
  857MOL0     C15589   1.798   3.060   2.575 -0.6037  0.5657  0.7122
  857MOL0     C15590   1.798   3.134   2.450  0.3173  0.0529 -0.0093
  857MOL0     O15591   1.843   3.267   2.445 -0.7246 -0.3164  0.0665
  857MOL0     C15592   1.842   3.344   2.335 -1.0195 -0.6513 -0.1274
  857MOL0     C15593   1.881   3.480   2.367 -0.3743 -1.4989 -0.0552
  857MOL0     C15594   1.881   3.580   2.273 -0.5861 -0.3307 -0.0289
  857MOL0     C15595   1.854   3.548   2.133 -0.0106  0.8691 -0.6430
  857MOL0     O15596   1.864   3.641   2.036  0.1637 -0.3109  0.0505
  857MOL0     C15597   1.742   3.674   1.958 -0.6329  0.5099  0.1203
  857MOL0     C15598   1.757   3.822   1.927  0.6448 -0.1581  0.2677
  857MOL0     C15599   1.683   3.852   1.783 -0.3929 -0.3948  0.3173
  857MOL0     C15600   1.539   3.906   1.792  0.1124  0.3964  0.2309
  857MOL0     C15601   1.444   3.786   1.807  0.7226 -0.2072 -0.6887
  857MOL0     C15602   1.316   3.829   1.868  0.5037 -0.1499  0.0004
  857MOL0     C15603   1.205   3.720   1.864  0.2676 -1.1181  0.4746
  857MOL0     C15604   1.072   3.782   1.828 -0.4593 -0.1016 -0.3450
  857MOL0    Cl15605   0.992   3.878   1.968  0.2946 -0.0347  0.2668
  857MOL0     C15606   1.815   3.418   2.103 -0.2360  0.0500 -0.0028
  857MOL0     C15607   1.815   3.311   2.195  0.7390  0.1315  0.5707
  857MOL0     O15608   1.753   3.066   2.353  0.5967 -0.1613  0.6701
  857MOL0     C15609   1.662   3.029   2.619 -0.6358  0.4102 -0.3796
  857MOL0     C15610   1.634   2.956   2.736  0.4385 -0.4820  0.1412
  857MOL0     N15611   2.049   2.554   3.249 -0.0993  1.0151  0.2825
  857MOL0     N15612   2.047   2.629   3.348 -0.3614 -0.4857  0.7548
  857MOL0     C15613   1.370   2.361   3.731  0.2133  0.8581  0.3426
  857MOL0     C15614   1.342   2.232   3.684  0.2053  1.2212 -0.1696
  857MOL0     C15615   1.091   1.849   3.681  1.3380 -0.4742  0.3676
  857MOL0     C15616   0.965   1.808   3.626 -0.8934  0.3288 -0.3645
  857MOL0     C15617   0.950   1.682   3.564  0.2319 -0.5281 -0.2248
  857MOL0     C15618   1.058   1.587   3.570 -0.7191 -0.6769  0.2335
  857MOL0     O15619   1.066   1.456   3.511 -0.2645 -0.9194  0.1691
  857MOL0     C15620   0.984   1.439   3.397  0.3256 -0.0823  0.3394
  857MOL0     C15621   0.864   1.368   3.448  0.2519 -0.4288  0.8810
  857MOL0     C15622   0.889   1.220   3.467 -0.2483  0.0997 -0.0760
  857MOL0     C15623   0.753   1.139   3.494 -0.6862  0.4697 -0.2315
  857MOL0     C15624   0.774   0.991   3.492 -0.9063  0.2779  0.4528
  857MOL0     C15625   0.784   0.867   3.508 -0.0766 -0.7505 -0.2551
  857MOL0     C15626   1.163   1.621   3.649 -0.0268 -0.5419  0.3483
  857MOL0     C15627   1.180   1.753   3.702 -0.5026  0.3990  0.0395
  857MOL0     H15628   1.233   2.083   3.961  2.4943 -2.3213 -2.3768
  857MOL0     H15629   1.315   2.292   4.061  0.6845 -0.8797  0.3213
  857MOL0     H15630   1.327   2.624   3.783 -0.8418 -3.5842 -1.0436
  857MOL0     H15631   1.246   2.618   3.944 -1.2723  1.5257 -3.3063
  857MOL0     H15632   1.344   2.825   3.944 -0.8218 -0.0707  0.9151
  857MOL0     H15633   1.450   2.735   4.040 -1.2175 -3.5719  1.2950
  857MOL0     H15634   1.524   2.735   3.743  1.6784 -1.3511 -0.1108
  857MOL0     H15635   1.567   2.872   3.848 -0.5641 -0.7248  0.4719
  857MOL0     H15636   1.693   2.778   4.005 -2.6901  2.1230  0.4869
  857MOL0     H15637   1.665   2.608   3.956 -0.2492  0.2899 -0.3833
  857MOL0     H15638   1.796   2.804   3.787 -0.6108  0.0957  2.1775
  857MOL0     H15639   1.876   2.699   3.903 -0.3825 -0.7831  0.6769
  857MOL0     H15640   1.786   2.502   3.803  2.9780  2.0611  2.9879
  857MOL0     H15641   1.693   2.592   3.681 -1.7086  0.8847  3.3178
  857MOL0     H15642   1.990   2.599   3.683 -0.6359 -0.0499  0.8659
  857MOL0     H15643   1.896   2.490   3.585 -3.0880  0.1910 -2.1197
  857MOL0     H15644   1.930   2.787   3.554  2.4581 -1.0160 -2.2409
  857MOL0     H15645   1.774   2.725   3.501  0.4324 -0.7190 -3.1348
  857MOL0     H15646   1.738   2.562   3.314  0.8056  3.2338  0.6576
  857MOL0     H15647   1.971   2.367   3.073 -1.0421 -0.6698  2.5702
  857MOL0     H15648   1.797   2.413   3.091  0.9171 -0.0587  5.5753
  857MOL0     H15649   1.969   2.473   2.878  1.1941  0.8650 -0.9642
  857MOL0     H15650   2.021   2.603   2.978 -0.5205  0.5839 -1.4774
  857MOL0     H15651   1.733   2.566   2.884 -0.1002  0.4542  1.4084
  857MOL0     H15652   1.858   2.663   2.792  1.0016  1.2505  0.9242
  857MOL0     H15653   1.902   2.787   3.000  0.4364 -1.6025 -0.9592
  857MOL0     H15654   1.755   2.706   3.078 -2.1217 -2.7355 -1.8388
  857MOL0     H15655   1.945   2.945   2.850  0.1054  0.9242  1.4602
  857MOL0     H15656   2.104   3.049   2.702 -0.5625 -0.0693  1.6002
  857MOL0     H15657   2.050   3.143   2.563 -2.7845 -1.7806 -0.6580
  857MOL0     H15658   2.024   3.211   2.724  2.3680 -1.4854  1.9583
  857MOL0     H15659   1.902   3.512   2.468 -1.2709  1.4598 -0.7097
  857MOL0     H15660   1.910   3.681   2.298  0.9068 -1.3416  2.7280
  857MOL0     H15661   1.735   3.619   1.864  0.0409  3.2667 -1.6809
  857MOL0     H15662   1.644   3.659   2.006 -2.0047  3.4539 -1.4371
  857MOL0     H15663   1.713   3.880   2.009 -1.2265  1.5548 -1.8475
  857MOL0     H15664   1.859   3.863   1.924 -0.2699  2.3225  0.7418
  857MOL0     H15665   1.692   3.774   1.708  0.4521  0.2435 -0.2603
  857MOL0     H15666   1.743   3.931   1.737 -0.0391  0.8076  2.6362
  857MOL0     H15667   1.531   3.977   1.875  2.3376 -1.8378  2.5451
  857MOL0     H15668   1.519   3.965   1.702  0.7050  2.5418  1.4350
  857MOL0     H15669   1.492   3.719   1.878 -1.0244 -1.0759 -0.2618
  857MOL0     H15670   1.429   3.736   1.711  0.4002 -1.6551  0.0882
  857MOL0     H15671   1.339   3.860   1.971  0.0066  3.8177 -0.9092
  857MOL0     H15672   1.282   3.927   1.832  1.3814  1.0022  2.0634
  857MOL0     H15673   1.187   3.669   1.958 -1.7467  1.3066  1.5085
  857MOL0     H15674   1.239   3.647   1.789 -2.1018 -0.5839 -1.2358
  857MOL0     H15675   1.009   3.700   1.793  0.7870  0.0316 -3.1337
  857MOL0     H15676   1.079   3.854   1.747 -0.1825  2.0029  1.4614
  857MOL0     H15677   1.787   3.390   2.002  1.7149  2.0800 -1.1777
  857MOL0     H15678   1.774   3.221   2.150  0.8104  1.0971 -1.5524
  857MOL0     H15679   1.577   3.042   2.552 -2.0770  2.5979  1.6828
  857MOL0     H15680   1.528   2.931   2.745  0.5342 -1.1191 -0.4446
  857MOL0     H15681   1.431   2.428   3.670 -0.7594  0.5029 -1.0898
  857MOL0     H15682   1.340   2.201   3.580 -2.1184  2.8205 -0.7050
  857MOL0     H15683   0.893   1.886   3.605 -2.4156 -1.3925 -1.8616
  857MOL0     H15684   0.856   1.649   3.522  1.0534 -2.8885 -0.3673
  857MOL0     H15685   0.958   1.526   3.337  1.7007 -2.0554 -3.4844
  857MOL0     H15686   1.040   1.379   3.324  1.0491  1.8201 -0.7245
  857MOL0     H15687   0.803   1.380   3.358  1.1219  0.6527  0.4110
  857MOL0     H15688   0.814   1.415   3.532 -0.2747 -2.7622  1.9640
  857MOL0     H15689   0.966   1.188   3.539 -0.8183 -2.3679 -0.4545
  857MOL0     H15690   0.929   1.170   3.379 -0.2688  0.2388 -0.1645
  857MOL0     H15691   0.671   1.159   3.424 -2.5135 -1.4499  1.2150
  857MOL0     H15692   0.720   1.169   3.594  2.4998 -0.5127  1.2630
  857MOL0     H15693   0.773   0.761   3.519  1.2799 -1.0759 -1.7363
  857MOL0     H15694   1.233   1.539   3.649  0.5176 -0.1410 -1.9814
  857MOL0     H15695   1.266   1.763   3.768 -0.0150  1.3079 -0.7103
  858MOL0     O15696  10.713  11.207   9.428  0.1853 -0.3339 -0.4462
  858MOL0     C15697  10.783  11.105   9.438  0.0951 -0.6992 -0.0157
  858MOL0     O15698  10.738  10.985   9.467 -0.3397  0.5127 -0.1185
  858MOL0     C15699  10.598  10.966   9.463  0.0091  0.3574 -0.2729
  858MOL0     C15700  10.507  10.985   9.571  0.4606 -0.4600  0.0840
  858MOL0     C15701  10.368  10.955   9.561  0.0447 -0.4395  0.7318
  858MOL0     C15702  10.323  10.914   9.437  0.9013  0.9536  0.3089
  858MOL0     O15703  10.192  10.868   9.417 -1.0692  0.5841 -1.0246
  858MOL0     C15704  10.106  10.950   9.339  0.3427 -0.7357 -0.4686
  858MOL0     C15705   9.994  10.876   9.275 -0.6295 -0.4083 -0.1596
  858MOL0     C15706   9.891  10.975   9.203  0.0172  0.3063 -0.5560
  858MOL0     C15707   9.800  11.049   9.308  0.4238 -0.3262  0.7151
  858MOL0     C15708   9.674  11.112   9.255  0.2362 -1.0489 -0.7336
  858MOL0     C15709   9.581  11.143   9.377  0.3491  0.6137  0.2158
  858MOL0     C15710   9.511  11.022   9.432 -0.1134 -0.2381 -0.1763
  858MOL0     C15711   9.380  11.057   9.512  1.0535  0.5881 -1.0398
  858MOL0     N15712   9.291  10.939   9.530  0.2950 -0.1874  0.6797
  858MOL0     C15713   9.154  10.938   9.499 -1.2732 -0.0453  0.8410
  858MOL0     C15714   9.097  10.861   9.597  0.7547  0.4855  0.4903
  858MOL0     C15715   8.956  10.830   9.608 -0.2286  1.1685  0.6628
  858MOL0     C15716   8.901  10.888   9.742 -0.1844  0.3401 -0.4935
  858MOL0     C15717   8.754  10.854   9.752 -0.4283 -0.5043 -0.2252
  858MOL0     C15718   8.679  10.901   9.876  0.1037  0.0492 -0.3477
  858MOL0     O15719   8.734  10.844   9.998  0.6081  0.7023  0.1876
  858MOL0     C15720   8.655  10.815  10.106  0.2382 -0.3022  0.6342
  858MOL0     C15721   8.524  10.860  10.125  0.9292 -0.2664 -0.2192
  858MOL0     C15722   8.459  10.835  10.252  0.5183  0.1078 -0.1906
  858MOL0     C15723   8.331  10.900  10.267  0.1229 -0.2682 -0.4463
  858MOL0     C15724   8.518  10.751  10.347 -1.1761  0.2672 -0.0551
  858MOL0     C15725   8.457  10.701  10.471 -0.0113 -0.2599 -0.6450
  858MOL0     O15726   8.541  10.620  10.535 -0.6821  0.2715  0.7915
  858MOL0     C15727   8.517  10.587  10.669  0.4553  0.1824  0.3771
  858MOL0     C15728   8.460  10.467  10.697 -0.3112  1.1407 -0.2745
  858MOL0     C15729   8.437  10.423  10.831  0.0188  0.5120 -0.7490
  858MOL0     C15730   8.454  10.518  10.938  1.0328  0.1488  0.6014
  858MOL0     O15731   8.427  10.487  11.072 -0.2033  0.1916 -0.2176
  858MOL0     C15732   8.302  10.410  11.102 -0.0263  1.1188 -0.4312
  858MOL0     C15733   8.265  10.416  11.244  0.2928  0.3201 -0.9765
  858MOL0     C15734   8.108  10.381  11.249  0.4327 -0.0723  0.9444
  858MOL0     C15735   8.053  10.432  11.386 -0.7764  0.1420  0.0453
  858MOL0     C15736   7.903  10.381  11.396  0.3946  0.0946  0.3222
  858MOL0     C15737   7.847  10.352  11.533 -0.5799 -0.3086  0.2817
  858MOL0     C15738   7.843  10.485  11.629  0.1229  0.9049 -0.1360
  858MOL0     C15739   7.740  10.594  11.573 -0.6100 -0.4510 -0.1454
  858MOL0    Cl15740   7.683  10.693  11.701 -0.0416 -0.1418 -0.1538
  858MOL0     C15741   8.505  10.645  10.906  0.7270  0.7427 -0.2946
  858MOL0     C15742   8.541  10.674  10.777 -0.3140 -0.0665 -0.5089
  858MOL0     O15743   8.344  10.724  10.512 -0.3462  0.2773  0.2156
  858MOL0     C15744   8.648  10.721  10.327 -1.0109  0.0227 -0.7118
  858MOL0     C15745   8.713  10.736  10.207  0.4241 -0.1810  1.2515
  858MOL0     N15746   9.196  10.804   9.675 -0.2191 -0.6925 -0.0253
  858MOL0     N15747   9.309  10.855   9.640  0.0867 -0.1482  0.4197
  858MOL0     C15748  10.403  10.912   9.333 -0.2049  0.2069  0.4064
  858MOL0     C15749  10.541  10.940   9.336 -0.9217 -0.1833 -0.2090
  858MOL0     C15750  10.930  11.110   9.405  0.9063 -0.8911 -0.9561
  858MOL0     C15751  11.021  11.001   9.419  0.0939 -0.4619 -0.6614
  858MOL0     C15752  11.155  11.014   9.395  0.2040  0.0459  0.5586
  858MOL0     C15753  11.202  11.132   9.341  0.0634 -0.5267  0.0411
  858MOL0     O15754  11.333  11.140   9.314  0.1371 -0.2777 -0.1683
  858MOL0     C15755  11.400  11.260   9.323  0.1453 -0.8854  0.7653
  858MOL0     C15756  11.533  11.234   9.397  0.4502  0.2702  0.6898
  858MOL0     C15757  11.619  11.137   9.323  0.0778 -0.6425  0.0808
  858MOL0     C15758  11.718  11.226   9.232 -0.7734  0.4743  0.2303
  858MOL0     C15759  11.819  11.292   9.309 -1.1605 -0.4009  0.2162
  858MOL0     C15760  11.912  11.347   9.374  0.3686  1.1563 -0.1481
  858MOL0     C15761  11.119  11.236   9.330  0.6120 -0.7614  1.0704
  858MOL0     C15762  10.980  11.224   9.344  0.3008  0.2107  0.6541
  858MOL0     H15763  10.544  11.004   9.671  1.0107 -3.0731  0.4424
  858MOL0     H15764  10.323  10.957   9.659  0.8860  1.5366  1.1265
  858MOL0     H15765  10.075  11.025   9.412 -0.9613 -1.1216 -0.5978
  858MOL0     H15766  10.150  11.010   9.258 -1.6212 -3.0715 -3.4905
  858MOL0     H15767  10.054  10.816   9.205  2.0146  2.1168 -0.2443
  858MOL0     H15768   9.947  10.811   9.349  1.8179  1.1038  2.9675
  858MOL0     H15769   9.944  11.042   9.135  3.2168 -1.9446 -0.4720
  858MOL0     H15770   9.823  10.912   9.145  0.3021 -0.7169  0.1789
  858MOL0     H15771   9.772  10.982   9.390  0.4559  0.3492  1.2821
  858MOL0     H15772   9.854  11.131   9.354 -0.5881  1.9315 -1.8126
  858MOL0     H15773   9.689  11.200   9.192 -1.2527 -3.1715 -4.3912
  858MOL0     H15774   9.631  11.044   9.180 -0.3555  0.0263 -1.3969
  858MOL0     H15775   9.636  11.192   9.458  0.7195 -0.4757  0.6373
  858MOL0     H15776   9.503  11.212   9.341 -2.6648 -2.1869  0.8853
  858MOL0     H15777   9.480  10.964   9.345 -1.2431 -0.5699  0.4284
  858MOL0     H15778   9.584  10.963   9.487 -0.3572  1.9379  2.7633
  858MOL0     H15779   9.327  11.136   9.458 -0.5743  0.0080 -0.3413
  858MOL0     H15780   9.407  11.100   9.610  0.0217  2.3155 -1.4661
  858MOL0     H15781   9.105  10.988   9.416  1.8488  2.3947  0.3209
  858MOL0     H15782   8.890  10.875   9.532  2.1831  3.4926 -0.2041
  858MOL0     H15783   8.953  10.722   9.588  3.1318  1.5053 -2.8702
  858MOL0     H15784   8.915  10.996   9.732  2.7379  0.0583 -0.2718
  858MOL0     H15785   8.947  10.844   9.831 -0.0369  1.2051 -0.1299
  858MOL0     H15786   8.745  10.745   9.759 -0.1809 -0.4379  2.6240
  858MOL0     H15787   8.699  10.894   9.667 -0.9652 -0.9316 -0.0910
  858MOL0     H15788   8.577  10.867   9.856 -1.4990  2.6944  2.4444
  858MOL0     H15789   8.680  11.010   9.880 -0.8421  0.1255 -1.7675
  858MOL0     H15790   8.477  10.931  10.058  2.3069  0.9370  0.0315
  858MOL0     H15791   8.259  10.820  10.248  1.1755 -1.3697  0.0440
  858MOL0     H15792   8.326  10.946  10.366  2.9188  0.5437 -0.6006
  858MOL0     H15793   8.318  10.983  10.198  0.2673 -0.5791 -0.8540
  858MOL0     H15794   8.449  10.411  10.605  3.8758  1.0357 -0.9059
  858MOL0     H15795   8.399  10.321  10.836  0.4623  0.4197  2.2191
  858MOL0     H15796   8.228  10.454  11.035  1.3624  0.1818 -2.6934
  858MOL0     H15797   8.323  10.311  11.060  3.7316  2.2434 -1.6306
  858MOL0     H15798   8.314  10.340  11.306 -1.0140 -1.3046 -1.8530
  858MOL0     H15799   8.290  10.516  11.281 -0.9676 -0.3721  2.0127
  858MOL0     H15800   8.087  10.274  11.238  0.3072 -0.1397  1.8074
  858MOL0     H15801   8.055  10.436  11.170  2.3721  1.2267  0.4896
  858MOL0     H15802   8.121  10.408  11.469  0.1475  0.5686 -0.5773
  858MOL0     H15803   8.064  10.540  11.376  2.0641  0.1160  1.7200
  858MOL0     H15804   7.882  10.292  11.336 -0.9848  0.2092  0.5882
  858MOL0     H15805   7.842  10.465  11.361 -3.0621 -2.3080 -0.0061
  858MOL0     H15806   7.742  10.322  11.527 -0.4129 -0.9988  0.7322
  858MOL0     H15807   7.893  10.264  11.578 -1.8578 -1.5750 -0.7860
  858MOL0     H15808   7.946  10.519  11.644  0.5672 -0.0206 -0.9746
  858MOL0     H15809   7.818  10.449  11.730 -1.6847 -0.1208 -0.8919
  858MOL0     H15810   7.663  10.531  11.527  0.9345 -1.8208 -0.9389
  858MOL0     H15811   7.783  10.653  11.493  1.9231  0.0678  1.4846
  858MOL0     H15812   8.525  10.713  10.989 -0.2497 -1.5420  1.9330
  858MOL0     H15813   8.565  10.775  10.749 -0.2647  0.7461  2.1371
  858MOL0     H15814   8.712  10.665  10.394 -1.2021  1.8600  1.1219
  858MOL0     H15815   8.808  10.694  10.178 -1.6408 -2.7151 -2.6961
  858MOL0     H15816  10.368  10.884   9.234  0.6231  0.2712  0.0842
  858MOL0     H15817  10.607  10.933   9.250  1.8189  3.6957  1.3116
  858MOL0     H15818  10.973  10.908   9.450  1.8724 -1.5591 -1.0565
  858MOL0     H15819  11.226  10.932   9.398  0.9686  0.6998  0.7379
  858MOL0     H15820  11.420  11.297   9.221 -2.5909 -1.1165  0.0731
  858MOL0     H15821  11.351  11.343   9.375 -2.6797 -2.1520  0.2646
  858MOL0     H15822  11.517  11.194   9.498 -0.5037 -0.0355  0.4331
  858MOL0     H15823  11.579  11.333   9.401 -2.0992  1.8939 -3.4190
  858MOL0     H15824  11.552  11.067   9.273 -0.1417  1.0074 -2.1023
  858MOL0     H15825  11.682  11.081   9.393 -0.1089  1.6150  2.1994
  858MOL0     H15826  11.652  11.297   9.182 -3.5080 -0.4334  2.3148
  858MOL0     H15827  11.765  11.150   9.168 -5.2525 -2.1458 -0.3702
  858MOL0     H15828  11.989  11.388   9.437 -1.9032  1.3409  2.7422
  858MOL0     H15829  11.160  11.329   9.294 -0.0193 -1.4551 -1.6151
  858MOL0     H15830  10.914  11.309   9.329  0.1026 -0.0997 -0.3140
  859MOL0     O15831   7.969   6.337  10.388 -0.2289  0.0403 -0.1608
  859MOL0     C15832   8.038   6.249  10.442 -0.2766 -0.3367  0.7077
  859MOL0     O15833   8.106   6.263  10.565  0.0175  0.5951 -0.3043
  859MOL0     C15834   8.078   6.375  10.641 -0.5479  0.0392  0.2696
  859MOL0     C15835   8.159   6.497  10.640 -0.2618  1.2081 -0.9525
  859MOL0     C15836   8.132   6.600  10.730 -0.0236  0.7972 -0.2241
  859MOL0     C15837   8.021   6.597  10.812 -0.6927 -0.4122 -0.0151
  859MOL0     O15838   8.009   6.715  10.879  0.3196  0.2164 -0.1049
  859MOL0     C15839   7.890   6.725  10.968  0.0480  0.0566 -0.2923
  859MOL0     C15840   7.927   6.645  11.090 -0.0661 -0.2610 -0.4285
  859MOL0     C15841   7.832   6.661  11.203 -0.3969  0.7954 -0.6428
  859MOL0     C15842   7.826   6.541  11.295  0.0515  0.0528  0.2986
  859MOL0     C15843   7.742   6.574  11.429 -0.4835 -0.0012 -0.0283
  859MOL0     C15844   7.773   6.473  11.542  0.0766 -0.0875  0.2370
  859MOL0     C15845   7.782   6.324  11.507  0.3547 -0.4537 -0.5709
  859MOL0     C15846   7.762   6.226  11.638  0.7259  0.0104 -0.2329
  859MOL0     N15847   7.739   6.086  11.598  0.2432  0.7694 -0.0972
  859MOL0     C15848   7.827   5.983  11.622  0.2800  0.2424  0.6100
  859MOL0     C15849   7.768   5.867  11.574 -0.5644  0.8102  0.2776
  859MOL0     C15850   7.817   5.727  11.608  0.1552 -0.2138  0.1062
  859MOL0     C15851   7.971   5.704  11.581 -0.5424  0.5417  1.1435
  859MOL0     C15852   8.004   5.560  11.592  0.0707  0.1280 -0.5525
  859MOL0     C15853   8.141   5.535  11.540  0.1560 -0.1934 -0.1420
  859MOL0     O15854   8.193   5.407  11.582 -0.0704  0.5379  0.0184
  859MOL0     C15855   8.328   5.388  11.570  0.0584 -0.1200 -0.2017
  859MOL0     C15856   8.412   5.483  11.640  0.2143 -0.3573  0.7711
  859MOL0     C15857   8.557   5.485  11.630 -0.0504  1.5912  0.5335
  859MOL0     C15858   8.626   5.590  11.718 -0.9422  0.1384  0.2065
  859MOL0     C15859   8.617   5.387  11.544  0.0158  0.7676 -0.8637
  859MOL0     C15860   8.762   5.397  11.513 -0.2562 -0.6920  0.9931
  859MOL0     O15861   8.810   5.309  11.418  0.2834 -0.0265  0.0227
  859MOL0     C15862   8.944   5.294  11.399  0.2346  0.4776  1.1025
  859MOL0     C15863   9.053   5.380  11.427  0.7996 -0.6312 -0.3147
  859MOL0     C15864   9.184   5.330  11.408  0.2779 -0.1190 -0.0145
  859MOL0     C15865   9.210   5.195  11.382  0.5737  0.3520  0.2336
  859MOL0     O15866   9.333   5.138  11.358 -0.0186 -0.3169 -0.1827
  859MOL0     C15867   9.448   5.217  11.393 -0.3628 -0.0350 -0.2084
  859MOL0     C15868   9.567   5.128  11.374 -1.1747 -0.3753  0.2295
  859MOL0     C15869   9.698   5.220  11.373  0.0017 -0.4798  0.7298
  859MOL0     C15870   9.825   5.139  11.323 -0.5303  0.2137  0.5826
  859MOL0     C15871   9.945   5.213  11.275 -0.7635  0.8592  0.1967
  859MOL0     C15872   9.997   5.311  11.385 -0.5551 -0.4945 -0.2285
  859MOL0     C15873   9.997   5.458  11.338  0.2117 -0.7158  0.0352
  859MOL0     C15874  10.092   5.488  11.225  0.7224  0.5482 -0.8158
  859MOL0    Cl15875  10.046   5.649  11.184  0.2437  0.6645  0.3390
  859MOL0     C15876   9.106   5.113  11.350 -0.0887  0.3823 -1.3606
  859MOL0     C15877   8.975   5.164  11.351 -0.0678 -0.1786  0.5145
  859MOL0     O15878   8.818   5.494  11.560  0.1457  0.8286 -0.1885
  859MOL0     C15879   8.529   5.290  11.480  0.4157  0.6470  0.5453
  859MOL0     C15880   8.389   5.295  11.486  0.3452 -0.2666 -0.4597
  859MOL0     N15881   7.641   5.904  11.524 -0.5890  0.5675  0.2232
  859MOL0     N15882   7.634   6.033  11.534  0.0056  1.1554 -0.9337
  859MOL0     C15883   7.942   6.478  10.810 -0.7744  0.3059 -0.5234
  859MOL0     C15884   7.964   6.374  10.728 -0.5486  0.1503  0.6444
  859MOL0     C15885   8.068   6.121  10.365 -0.1158 -0.1207 -0.4798
  859MOL0     C15886   7.978   6.090  10.259  0.4749 -0.4511  0.1320
  859MOL0     C15887   8.003   5.983  10.178 -0.3824  0.7173  0.7233
  859MOL0     C15888   8.097   5.888  10.213 -0.0679  0.4559  1.2103
  859MOL0     O15889   8.097   5.767  10.151 -0.4255  0.0037  0.4324
  859MOL0     C15890   8.178   5.659  10.207  0.4496 -0.7337 -0.4619
  859MOL0     C15891   8.141   5.524  10.141  0.4251  1.2955 -0.8914
  859MOL0     C15892   8.195   5.524   9.994 -0.2813 -0.0874  0.0180
  859MOL0     C15893   8.171   5.396   9.917  0.0547 -0.1745  0.7842
  859MOL0     C15894   8.032   5.396   9.868 -0.9248 -0.5419  1.2405
  859MOL0     C15895   7.921   5.389   9.825 -0.3101 -0.3690 -0.4176
  859MOL0     C15896   8.179   5.919  10.317 -0.0238  0.4338 -0.6924
  859MOL0     C15897   8.169   6.034  10.395 -0.0753  0.5356 -0.7618
  859MOL0     H15898   8.243   6.515  10.574  0.3498 -0.4147 -0.6588
  859MOL0     H15899   8.200   6.685  10.728  1.6740 -0.4996 -0.0272
  859MOL0     H15900   7.891   6.831  10.995  2.6644  0.4233 -1.4921
  859MOL0     H15901   7.788   6.712  10.930 -0.0916 -0.6609  0.2899
  859MOL0     H15902   7.934   6.538  11.067  0.5350 -0.5039  0.7978
  859MOL0     H15903   8.029   6.667  11.124  0.3361  0.8880 -2.2620
  859MOL0     H15904   7.857   6.756  11.251  2.4664  0.3374 -1.0167
  859MOL0     H15905   7.730   6.669  11.164 -0.4614 -0.2638 -0.7091
  859MOL0     H15906   7.793   6.454  11.237  0.1662  1.5963 -2.2370
  859MOL0     H15907   7.925   6.514  11.332  0.0992 -0.0087  0.1289
  859MOL0     H15908   7.771   6.674  11.463  1.1275 -1.1333  2.1562
  859MOL0     H15909   7.637   6.577  11.396 -0.0913 -5.4071 -2.7971
  859MOL0     H15910   7.868   6.505  11.584 -0.7474  0.0745  2.0592
  859MOL0     H15911   7.700   6.486  11.622 -1.9268 -0.5719 -1.4249
  859MOL0     H15912   7.709   6.296  11.431 -1.3628 -0.7184  1.0979
  859MOL0     H15913   7.884   6.307  11.473  2.2654 -0.0770  4.1176
  859MOL0     H15914   7.673   6.265  11.689  0.8595  1.0204 -0.7277
  859MOL0     H15915   7.845   6.232  11.709  0.1533 -2.4340  0.7302
  859MOL0     H15916   7.923   6.004  11.668  0.3927  1.2838 -0.0590
  859MOL0     H15917   7.802   5.704  11.713  0.7823 -0.5835  0.1219
  859MOL0     H15918   7.762   5.661  11.540  0.7818  0.1326 -0.7582
  859MOL0     H15919   8.031   5.768  11.647  0.7773  0.0861  0.4204
  859MOL0     H15920   7.987   5.722  11.475  2.3591 -3.1385  0.7179
  859MOL0     H15921   7.931   5.493  11.545  0.8372 -0.9509 -0.2590
  859MOL0     H15922   8.002   5.529  11.697 -3.0821 -1.0506 -0.8487
  859MOL0     H15923   8.205   5.621  11.561  1.5827 -0.1002 -4.0107
  859MOL0     H15924   8.125   5.537  11.432 -2.2894 -0.9266  0.1406
  859MOL0     H15925   8.373   5.567  11.697 -1.4598  0.3946 -1.3333
  859MOL0     H15926   8.684   5.663  11.662  1.1068 -0.1424  1.8478
  859MOL0     H15927   8.556   5.635  11.789  1.6858  0.1235  3.0050
  859MOL0     H15928   8.699   5.542  11.784 -1.9409  1.4238  2.3789
  859MOL0     H15929   9.024   5.478  11.464 -0.6157 -1.6944  1.6004
  859MOL0     H15930   9.264   5.398  11.437  1.0712 -0.5671 -1.0614
  859MOL0     H15931   9.461   5.301  11.324  1.4028  2.0053  2.4160
  859MOL0     H15932   9.425   5.241  11.497 -2.0892  0.5779 -0.6824
  859MOL0     H15933   9.583   5.048  11.446  0.8172  1.4600  1.9636
  859MOL0     H15934   9.554   5.085  11.274  1.9222  2.4698 -1.6292
  859MOL0     H15935   9.709   5.259  11.475 -1.0003 -1.5217  1.2671
  859MOL0     H15936   9.674   5.292  11.295 -0.0262 -0.0370  1.1460
  859MOL0     H15937   9.854   5.067  11.401 -1.5883 -2.2384 -1.1782
  859MOL0     H15938   9.798   5.075  11.239  2.6034 -0.1411 -0.2530
  859MOL0     H15939   9.922   5.271  11.185 -0.4809 -0.2276 -0.5995
  859MOL0     H15940  10.016   5.132  11.257 -1.3535  0.5351 -0.7486
  859MOL0     H15941   9.935   5.300  11.474 -1.8047 -3.2958 -1.3244
  859MOL0     H15942  10.096   5.282  11.420 -0.2638 -1.8698 -2.0255
  859MOL0     H15943  10.033   5.510  11.427 -0.1190 -2.5893  1.3122
  859MOL0     H15944   9.895   5.482  11.306 -0.2649 -1.4868  0.9404
  859MOL0     H15945  10.076   5.416  11.145  1.8905 -1.0696  0.3307
  859MOL0     H15946  10.194   5.485  11.264  0.9914  1.5194 -1.4092
  859MOL0     H15947   9.113   5.008  11.326 -5.2687  0.1142 -3.0752
  859MOL0     H15948   8.893   5.102  11.314  1.0451 -0.6917 -1.2379
  859MOL0     H15949   8.568   5.221  11.406  0.9489 -0.1345  1.5310
  859MOL0     H15950   8.324   5.222  11.438 -0.9281  2.1877 -2.7043
  859MOL0     H15951   7.862   6.477  10.884 -0.1487 -1.2120  0.1826
  859MOL0     H15952   7.882   6.305  10.706  0.5034 -0.4276 -1.9488
  859MOL0     H15953   7.891   6.151  10.240  1.3007 -0.1581 -3.3959
  859MOL0     H15954   7.941   5.948  10.097  0.4737 -2.1449  1.2045
  859MOL0     H15955   8.285   5.678  10.200  0.2847  0.8485  0.7929
  859MOL0     H15956   8.153   5.645  10.313  0.2264 -0.7368 -0.5146
  859MOL0     H15957   8.032   5.516  10.148  0.3934  2.2899 -0.0338
  859MOL0     H15958   8.197   5.442  10.187  1.0754  3.2327  2.0431
  859MOL0     H15959   8.302   5.546  10.004 -0.1063 -0.8417 -0.0732
  859MOL0     H15960   8.136   5.600   9.944 -0.5966 -1.4627 -1.7855
  859MOL0     H15961   8.172   5.304   9.976 -1.7446 -0.7432  0.0071
  859MOL0     H15962   8.237   5.396   9.829 -1.8376  1.7152 -0.7297
  859MOL0     H15963   7.827   5.364   9.781  0.3127  0.0440 -2.0598
  859MOL0     H15964   8.260   5.852  10.345  0.8129  1.8290  0.3423
  859MOL0     H15965   8.237   6.064  10.474  0.6812  0.0271 -1.2024
  860MOL0     O15966   5.843   8.972   0.227  0.6165  0.0579  0.1900
  860MOL0     C15967   5.923   9.035   0.157 -1.0012 -1.1203 -0.1465
  860MOL0     O15968   6.053   9.064   0.195 -0.0857 -0.2502 -0.2360
  860MOL0     C15969   6.082   9.099   0.324  0.0326  0.5913  0.0685
  860MOL0     C15970   6.194   9.038   0.369 -1.1857  0.1125  0.1081
  860MOL0     C15971   6.248   9.078   0.499  0.6242 -0.0201 -0.3919
  860MOL0     C15972   6.179   9.169   0.574  0.4698  1.3980 -1.5493
  860MOL0     O15973   6.227   9.193   0.705 -0.6316  1.2280  0.3199
  860MOL0     C15974   6.126   9.170   0.803  0.5278  0.1421 -0.0811
  860MOL0     C15975   6.183   9.107   0.937  0.4835  0.1093 -0.8419
  860MOL0     C15976   6.072   9.131   1.037 -0.5152 -0.1420 -0.4910
  860MOL0     C15977   6.094   9.048   1.170 -0.4773  0.7131 -0.8989
  860MOL0     C15978   6.027   9.103   1.305 -0.3046 -0.3996  0.4567
  860MOL0     C15979   5.902   9.034   1.349 -0.2842  0.1580  0.2485
  860MOL0     C15980   5.874   9.053   1.500  0.2203 -0.4498  0.9169
  860MOL0     C15981   5.864   9.193   1.554  0.6262  0.0586 -0.4406
  860MOL0     N15982   5.783   9.211   1.673 -0.1620 -0.8030 -0.0171
  860MOL0     C15983   5.837   9.201   1.802  1.6358 -0.0798  1.2436
  860MOL0     C15984   5.728   9.224   1.878 -0.2643  0.3761 -0.0436
  860MOL0     C15985   5.723   9.218   2.026 -0.3041  0.0432  0.2963
  860MOL0     C15986   5.823   9.303   2.093 -0.4064 -0.0273 -0.2206
  860MOL0     C15987   5.806   9.287   2.244 -0.6642  0.1256  0.4671
  860MOL0     C15988   5.924   9.349   2.315 -0.1779 -0.7414  1.1890
  860MOL0     O15989   5.915   9.300   2.447  0.4772  0.1079 -0.3253
  860MOL0     C15990   6.041   9.300   2.499  0.1330 -0.5126  1.1895
  860MOL0     C15991   6.114   9.413   2.533  0.3041 -1.1015  0.4695
  860MOL0     C15992   6.243   9.406   2.593  0.7896  0.4735 -0.4759
  860MOL0     C15993   6.309   9.537   2.626 -0.4793  0.6419  0.0240
  860MOL0     C15994   6.292   9.277   2.617 -0.9215  0.7356  0.5288
  860MOL0     C15995   6.418   9.261   2.692  0.3888 -0.2371  0.0989
  860MOL0     O15996   6.418   9.325   2.811  0.9477 -0.4250 -0.4697
  860MOL0     C15997   6.534   9.367   2.881  0.5897  0.2649 -0.0760
  860MOL0     C15998   6.522   9.458   2.988  0.2004  0.0693 -0.4253
  860MOL0     C15999   6.637   9.522   3.034 -0.5217  0.3352  0.6807
  860MOL0     C16000   6.763   9.505   2.981 -0.0681 -0.1748 -0.7403
  860MOL0     O16001   6.868   9.585   3.013 -0.2402  0.1513  0.6192
  860MOL0     C16002   6.900   9.570   3.153 -0.1159 -0.0346 -0.1829
  860MOL0     C16003   7.008   9.679   3.194 -0.0248  0.0614 -0.7931
  860MOL0     C16004   7.140   9.619   3.142 -0.1501  0.5854  0.5471
  860MOL0     C16005   7.271   9.702   3.182  0.7578 -1.1066 -0.1353
  860MOL0     C16006   7.325   9.782   3.066  0.1221 -0.4605  0.1883
  860MOL0     C16007   7.240   9.900   3.021  1.6792 -0.6072  0.2482
  860MOL0     C16008   7.176   9.989   3.130  1.4058  0.1813 -0.4292
  860MOL0     C16009   7.064  10.086   3.071 -0.4416  0.2493  0.2008
  860MOL0    Cl16010   7.022  10.209   3.193  0.3398  0.5241  0.1316
  860MOL0     C16011   6.776   9.403   2.891 -0.5584 -1.2287 -0.5349
  860MOL0     C16012   6.668   9.335   2.841  0.2390 -0.2610  0.3154
  860MOL0     O16013   6.497   9.173   2.662 -0.0295 -0.2476 -0.3365
  860MOL0     C16014   6.226   9.161   2.580  0.3373 -0.2675  0.1676
  860MOL0     C16015   6.103   9.178   2.528 -0.2443  0.2040 -0.3520
  860MOL0     N16016   5.615   9.242   1.796  0.5114  0.2416  0.6325
  860MOL0     N16017   5.654   9.235   1.676  0.3119  0.2681 -0.8816
  860MOL0     C16018   6.054   9.216   0.526 -0.5001 -0.7590 -0.0962
  860MOL0     C16019   6.013   9.200   0.393 -0.4037  0.4829  0.3942
  860MOL0     C16020   5.872   9.070   0.020 -1.2527 -0.5495  1.0802
  860MOL0     C16021   5.943   9.165  -0.062  0.6722 -1.4490 -0.4702
  860MOL0     C16022   5.902   9.182  -0.194  0.2116  0.1829  0.3730
  860MOL0     C16023   5.802   9.111  -0.254  0.0923 -0.1391  0.3867
  860MOL0     O16024   5.786   9.127  -0.388 -0.9782 -0.1612 -0.0175
  860MOL0     C16025   5.685   9.049  -0.443 -0.6296  0.5181 -0.4909
  860MOL0     C16026   5.724   8.900  -0.476  0.3057  0.3047 -0.4598
  860MOL0     C16027   5.827   8.893  -0.594  0.1458  0.5075 -0.8063
  860MOL0     C16028   5.895   8.752  -0.592  0.6094 -0.2890 -0.2143
  860MOL0     C16029   5.808   8.653  -0.639 -0.0177  0.1440 -0.0000
  860MOL0     C16030   5.733   8.581  -0.691 -0.0499  0.3989  0.1353
  860MOL0     C16031   5.736   9.012  -0.172 -0.0385 -0.5890  0.8077
  860MOL0     C16032   5.760   9.001  -0.035 -1.0129 -0.2441  0.3270
  860MOL0     H16033   6.238   8.950   0.324  0.9573  1.0360  0.3101
  860MOL0     H16034   6.327   9.024   0.551 -2.1138 -0.4155  3.9350
  860MOL0     H16035   6.085   9.268   0.830  2.0190  1.1831 -1.4643
  860MOL0     H16036   6.046   9.105   0.767  2.0989 -1.3284 -1.0777
  860MOL0     H16037   6.223   9.006   0.923 -1.2188 -0.3725 -2.8142
  860MOL0     H16038   6.263   9.173   0.971  1.6235 -2.6258  2.2985
  860MOL0     H16039   6.078   9.235   1.073 -2.2541 -0.0500 -0.3992
  860MOL0     H16040   5.976   9.102   0.996 -0.8264 -1.0505  0.8138
  860MOL0     H16041   6.054   8.949   1.145  1.8199 -0.4307 -0.3256
  860MOL0     H16042   6.201   9.055   1.192 -0.4983  1.1621 -0.9376
  860MOL0     H16043   6.094   9.084   1.390  0.4524  1.0473  0.2212
  860MOL0     H16044   6.020   9.211   1.295  1.4864 -0.1819  1.2094
  860MOL0     H16045   5.821   9.075   1.288  1.8836  0.4236 -2.6677
  860MOL0     H16046   5.909   8.928   1.324  1.8219  0.1067  0.8156
  860MOL0     H16047   5.775   9.005   1.498  1.4022 -3.1414 -2.6760
  860MOL0     H16048   5.946   8.986   1.547 -1.6891 -3.1417  0.2133
  860MOL0     H16049   5.813   9.261   1.485  0.0772  0.8654  0.7143
  860MOL0     H16050   5.967   9.228   1.563  1.9127 -3.2900 -1.1517
  860MOL0     H16051   5.940   9.183   1.830  1.7852 -1.9586 -0.2345
  860MOL0     H16052   5.622   9.247   2.058 -0.6167  1.1279 -1.5300
  860MOL0     H16053   5.729   9.114   2.059 -0.7862  0.3245  1.3055
  860MOL0     H16054   5.803   9.403   2.052  1.2530 -0.0131 -1.1126
  860MOL0     H16055   5.923   9.279   2.055 -0.6143 -0.8604 -0.2554
  860MOL0     H16056   5.811   9.183   2.277 -1.9383  0.3774  1.5516
  860MOL0     H16057   5.714   9.334   2.281  1.2165  3.5491  1.2072
  860MOL0     H16058   5.904   9.457   2.318  0.4488 -0.6425  2.1420
  860MOL0     H16059   6.019   9.321   2.268 -1.3505 -3.9228  0.4777
  860MOL0     H16060   6.082   9.513   2.503  1.4287 -1.5205 -2.4515
  860MOL0     H16061   6.247   9.624   2.603 -0.9372  0.5359  0.8355
  860MOL0     H16062   6.324   9.542   2.734  2.8540 -2.7230 -0.0508
  860MOL0     H16063   6.408   9.548   2.579  0.1125 -1.4937  0.6448
  860MOL0     H16064   6.425   9.486   3.029  0.9040 -0.8324  1.9946
  860MOL0     H16065   6.616   9.586   3.119  0.4461 -0.6299  1.6675
  860MOL0     H16066   6.804   9.583   3.203 -1.4307  0.3820 -2.6713
  860MOL0     H16067   6.935   9.471   3.185 -2.8361 -0.7623  0.8229
  860MOL0     H16068   6.973   9.771   3.146  1.4765 -0.1246 -2.3392
  860MOL0     H16069   7.007   9.698   3.301 -3.2722 -2.8774 -0.1160
  860MOL0     H16070   7.142   9.608   3.033 -2.0355 -0.6912  0.5885
  860MOL0     H16071   7.157   9.521   3.187 -0.5464 -0.2177 -0.9855
  860MOL0     H16072   7.246   9.760   3.271  0.1081  0.2250 -1.1336
  860MOL0     H16073   7.351   9.638   3.220  2.6640  1.9401  1.3867
  860MOL0     H16074   7.336   9.717   2.978  0.2117  2.6336 -2.2913
  860MOL0     H16075   7.430   9.802   3.087  0.3402 -2.0732  0.7571
  860MOL0     H16076   7.311   9.964   2.967  1.0288 -1.1894 -1.3743
  860MOL0     H16077   7.170   9.872   2.941  1.2523  1.8075 -0.2852
  860MOL0     H16078   7.246  10.061   3.174  1.5708  0.9565 -1.8716
  860MOL0     H16079   7.137   9.932   3.215  3.9744 -0.1092  0.6554
  860MOL0     H16080   6.975  10.029   3.041 -1.4701  0.8733  1.9236
  860MOL0     H16081   7.120  10.139   2.993  1.3637  0.0232  1.2922
  860MOL0     H16082   6.880   9.387   2.866 -0.0758 -0.2715  0.7757
  860MOL0     H16083   6.694   9.270   2.758 -1.9951 -2.2947  1.0899
  860MOL0     H16084   6.261   9.060   2.601 -1.0561 -0.2150  3.2061
  860MOL0     H16085   6.042   9.093   2.502 -1.2447  1.5308 -2.6724
  860MOL0     H16086   6.010   9.279   0.603  0.5752 -0.1151  0.0117
  860MOL0     H16087   5.926   9.256   0.359  0.1630  0.2555 -1.5619
  860MOL0     H16088   6.023   9.218  -0.011  0.2497 -5.2150  4.8616
  860MOL0     H16089   5.957   9.243  -0.265  1.5953 -0.7638  0.5659
  860MOL0     H16090   5.592   9.058  -0.386 -2.1271  1.2928 -2.8632
  860MOL0     H16091   5.661   9.090  -0.542 -1.7593 -1.5730 -1.1627
  860MOL0     H16092   5.629   8.856  -0.507 -0.2895  2.4961 -2.0114
  860MOL0     H16093   5.762   8.858  -0.383  0.6826 -0.0685 -0.7768
  860MOL0     H16094   5.904   8.970  -0.581 -1.2817  2.5863 -3.6492
  860MOL0     H16095   5.781   8.902  -0.693  0.2592 -5.4197 -1.7868
  860MOL0     H16096   5.931   8.740  -0.489 -2.3898  2.6782  1.3953
  860MOL0     H16097   5.978   8.758  -0.663  0.7672  5.7759 -0.0683
  860MOL0     H16098   5.681   8.500  -0.738  2.2637 -0.8814 -0.3302
  860MOL0     H16099   5.649   8.957  -0.208 -2.2363  1.1392  3.0882
  860MOL0     H16100   5.709   8.919   0.014  0.3025 -0.7050  0.9581
  861MOL0     O16101   1.649   8.257   6.909 -0.5982 -0.5490 -0.3913
  861MOL0     C16102   1.770   8.277   6.916 -0.2104  0.4251  0.2857
  861MOL0     O16103   1.864   8.178   6.946  0.1598 -0.2725  0.0805
  861MOL0     C16104   1.819   8.051   6.981  0.9113  0.3476  0.3736
  861MOL0     C16105   1.747   7.970   6.893 -0.4160  0.8855  1.0103
  861MOL0     C16106   1.707   7.835   6.928 -0.8204 -0.1849  0.0508
  861MOL0     C16107   1.727   7.797   7.062 -1.1385 -0.4028  0.8562
  861MOL0     O16108   1.697   7.673   7.111  0.1393 -0.0536  1.3995
  861MOL0     C16109   1.596   7.594   7.036 -0.6436 -0.2270  0.1705
  861MOL0     C16110   1.664   7.464   7.001 -0.2663 -0.0870  0.0772
  861MOL0     C16111   1.569   7.407   6.893  0.7302  0.5904  0.1182
  861MOL0     C16112   1.623   7.294   6.810 -0.6879  1.5989  0.8299
  861MOL0     C16113   1.526   7.242   6.709 -0.6169 -0.4724  0.0540
  861MOL0     C16114   1.595   7.172   6.589 -0.5350 -0.6389  0.1382
  861MOL0     C16115   1.494   7.133   6.479 -0.4641 -0.1440 -0.5824
  861MOL0     C16116   1.551   7.030   6.375 -0.1625 -0.1974  0.0008
  861MOL0     N16117   1.444   6.981   6.293  0.0493 -0.0354  0.6180
  861MOL0     C16118   1.345   6.894   6.340  0.4290  0.3134 -0.8685
  861MOL0     C16119   1.263   6.883   6.236 -0.4893 -0.7992  1.0606
  861MOL0     C16120   1.128   6.817   6.245  0.2466 -1.3538  1.0339
  861MOL0     C16121   1.011   6.899   6.311 -0.0960  0.6871  0.7927
  861MOL0     C16122   1.027   7.048   6.294  0.1343  0.6839  0.0636
  861MOL0     C16123   0.893   7.115   6.322 -0.4304 -1.1204 -0.6211
  861MOL0     O16124   0.864   7.107   6.468 -0.2500  0.4925  0.0252
  861MOL0     C16125   0.921   7.209   6.539 -0.4998 -0.0892  0.0619
  861MOL0     C16126   0.868   7.334   6.559  0.1719  0.2241  0.0495
  861MOL0     C16127   0.929   7.441   6.634  0.1081 -0.8646 -0.3311
  861MOL0     C16128   0.855   7.575   6.645 -0.1822 -1.1185  0.8918
  861MOL0     C16129   1.057   7.413   6.689 -0.5243  1.0380 -0.0920
  861MOL0     C16130   1.138   7.510   6.758 -0.7823  0.1215 -0.4634
  861MOL0     O16131   1.096   7.637   6.765  0.0019  0.9419 -0.0343
  861MOL0     C16132   1.136   7.708   6.868 -0.5305 -0.4704  0.1083
  861MOL0     C16133   1.046   7.728   6.968 -0.3439 -0.1968  0.3228
  861MOL0     C16134   1.082   7.805   7.079 -1.1500  0.0730 -0.4938
  861MOL0     C16135   1.205   7.875   7.091 -0.2765 -0.3921 -0.7687
  861MOL0     O16136   1.219   7.962   7.197 -0.5384  0.9187 -0.1027
  861MOL0     C16137   1.316   7.952   7.298  0.1233 -0.1130 -0.1025
  861MOL0     C16138   1.347   8.086   7.352 -1.0505 -0.2456  0.4644
  861MOL0     C16139   1.419   8.169   7.246 -0.2509 -0.1159  0.3431
  861MOL0     C16140   1.457   8.299   7.314 -0.0533 -0.1514  0.7479
  861MOL0     C16141   1.532   8.381   7.219 -0.4710 -0.8246  0.2423
  861MOL0     C16142   1.555   8.525   7.286 -0.1939 -0.3111  0.8694
  861MOL0     C16143   1.597   8.637   7.185 -0.2208  0.2085  0.1730
  861MOL0     C16144   1.626   8.781   7.240 -0.3145  0.3430 -0.6958
  861MOL0    Cl16145   1.615   8.901   7.098 -0.3166  0.2146 -0.6910
  861MOL0     C16146   1.298   7.850   6.991 -0.0473  0.0143 -0.1701
  861MOL0     C16147   1.265   7.764   6.879 -0.2428  0.1119  0.0803
  861MOL0     O16148   1.242   7.473   6.821  0.2681  0.2614  1.2279
  861MOL0     C16149   1.111   7.279   6.670  0.1327 -0.6642  0.2669
  861MOL0     C16150   1.042   7.185   6.596 -0.2910 -0.4350 -0.8015
  861MOL0     N16151   1.305   6.960   6.127 -0.4741  0.1753  0.5300
  861MOL0     N16152   1.422   7.017   6.164 -0.4241  0.3568 -0.9093
  861MOL0     C16153   1.809   7.873   7.153  0.3027 -1.1745  0.3594
  861MOL0     C16154   1.858   7.996   7.103 -1.2771  0.0592  0.2068
  861MOL0     C16155   1.820   8.409   6.887  0.4196 -1.1567 -0.5764
  861MOL0     C16156   1.734   8.516   6.855 -0.3564  0.5260 -0.3306
  861MOL0     C16157   1.783   8.640   6.830 -0.2270  0.7980  0.8862
  861MOL0     C16158   1.926   8.660   6.845 -0.0136 -0.0199  0.0181
  861MOL0     O16159   1.986   8.784   6.852 -0.8006  0.7201  0.3083
  861MOL0     C16160   1.924   8.902   6.793  0.6543  0.4422  0.0767
  861MOL0     C16161   1.934   8.900   6.638  0.1182  0.2297  0.6955
  861MOL0     C16162   2.077   8.872   6.581  0.5716  0.6054 -0.2326
  861MOL0     C16163   2.180   8.958   6.638 -0.4470 -0.4540 -0.9847
  861MOL0     C16164   2.276   8.894   6.734 -1.0784  0.3116  0.6436
  861MOL0     C16165   2.358   8.858   6.814  0.5197  0.1247 -0.4075
  861MOL0     C16166   2.005   8.560   6.882 -0.2031 -0.4034  0.2100
  861MOL0     C16167   1.957   8.432   6.897  0.7126  0.2885 -0.2607
  861MOL0     H16168   1.712   7.996   6.793  2.3305 -3.7440 -1.5310
  861MOL0     H16169   1.651   7.775   6.857  0.0930 -0.8887 -0.0890
  861MOL0     H16170   1.516   7.577   7.109 -2.0863 -0.0118 -1.3251
  861MOL0     H16171   1.546   7.649   6.956  1.2194  1.7015  0.2275
  861MOL0     H16172   1.763   7.487   6.961 -2.6913  2.6646 -5.4016
  861MOL0     H16173   1.672   7.391   7.082  3.0986  0.0532  0.0108
  861MOL0     H16174   1.474   7.370   6.933 -2.2638  0.8482 -5.7965
  861MOL0     H16175   1.542   7.488   6.825  0.0754  2.0825  2.0708
  861MOL0     H16176   1.717   7.329   6.766  0.3875 -0.0823  1.7186
  861MOL0     H16177   1.647   7.218   6.885 -2.9445  2.5778  2.6787
  861MOL0     H16178   1.451   7.181   6.760 -0.9993  1.2294  1.6412
  861MOL0     H16179   1.472   7.324   6.662  0.7710  1.6351  1.9266
  861MOL0     H16180   1.670   7.245   6.557 -1.4824  1.6408  2.7447
  861MOL0     H16181   1.653   7.082   6.612  0.3095  0.1716  1.2984
  861MOL0     H16182   1.403   7.097   6.529 -0.2671 -0.8469 -0.7114
  861MOL0     H16183   1.461   7.220   6.422 -4.0624  0.2096  1.7106
  861MOL0     H16184   1.599   6.945   6.425  1.9119 -0.5638 -2.4192
  861MOL0     H16185   1.628   7.076   6.312  0.7591 -1.7596 -0.0747
  861MOL0     H16186   1.335   6.846   6.437 -3.4412 -0.9084 -1.7213
  861MOL0     H16187   1.095   6.796   6.142 -2.6212  1.2247  1.2837
  861MOL0     H16188   1.139   6.734   6.314 -1.6303 -0.2013  2.8271
  861MOL0     H16189   0.996   6.873   6.416  1.2782  3.1223  1.6482
  861MOL0     H16190   0.919   6.877   6.255 -1.0962  1.6241  2.0058
  861MOL0     H16191   1.053   7.071   6.190  1.3670  2.5940  0.7375
  861MOL0     H16192   1.104   7.087   6.362  1.8500 -1.5528 -0.4532
  861MOL0     H16193   0.818   7.069   6.258 -0.7371 -3.7727  1.4621
  861MOL0     H16194   0.895   7.217   6.283  1.7817 -0.5261  0.8328
  861MOL0     H16195   0.768   7.335   6.515  0.6709 -0.0364 -1.1356
  861MOL0     H16196   0.762   7.570   6.587 -0.8873 -0.2927  1.9306
  861MOL0     H16197   0.825   7.608   6.745 -0.5656  0.4059  0.3066
  861MOL0     H16198   0.918   7.656   6.606 -0.1011 -0.7987  1.6805
  861MOL0     H16199   0.957   7.666   6.963  1.0819 -2.2800 -3.5133
  861MOL0     H16200   1.018   7.796   7.166  0.3278 -5.3645  0.3911
  861MOL0     H16201   1.295   7.885   7.382  3.9856  1.2485  2.2460
  861MOL0     H16202   1.402   7.904   7.250 -0.3310  1.6558 -2.9296
  861MOL0     H16203   1.256   8.134   7.389  0.9429  4.4666 -0.0862
  861MOL0     H16204   1.424   8.080   7.429  0.9908  1.0312 -1.3407
  861MOL0     H16205   1.347   8.185   7.165 -1.5882 -1.3873  1.2365
  861MOL0     H16206   1.505   8.120   7.199 -1.9094 -0.1470 -3.0241
  861MOL0     H16207   1.370   8.348   7.360 -1.4490 -3.5023  2.0182
  861MOL0     H16208   1.523   8.276   7.398 -0.9202 -0.2100  1.4353
  861MOL0     H16209   1.461   8.394   7.136  2.5718 -2.2508 -2.8324
  861MOL0     H16210   1.627   8.337   7.187  0.0934  1.5566 -1.7659
  861MOL0     H16211   1.459   8.551   7.331 -1.1085  0.8117 -1.5716
  861MOL0     H16212   1.640   8.517   7.355  2.7746  2.8747 -2.0566
  861MOL0     H16213   1.504   8.657   7.131  1.2529  1.6936 -1.9946
  861MOL0     H16214   1.676   8.598   7.119 -1.1333  1.0256 -1.4802
  861MOL0     H16215   1.726   8.770   7.283  0.3372  3.2064 -1.2761
  861MOL0     H16216   1.560   8.809   7.322 -1.4352 -2.2489 -0.5927
  861MOL0     H16217   1.401   7.885   6.992 -0.5255  1.6749 -1.6411
  861MOL0     H16218   1.340   7.725   6.811 -0.4162  0.1559 -0.1354
  861MOL0     H16219   1.191   7.239   6.731 -1.5979 -3.1147  1.0685
  861MOL0     H16220   1.094   7.090   6.590  4.2446  1.8683 -2.3066
  861MOL0     H16221   1.844   7.840   7.250  2.1919 -1.6810 -0.4582
  861MOL0     H16222   1.945   8.040   7.151  0.0525  0.5679 -2.5012
  861MOL0     H16223   1.631   8.491   6.831 -0.3646  0.3720 -0.1440
  861MOL0     H16224   1.711   8.717   6.803  0.7413  1.4478  0.1121
  861MOL0     H16225   1.819   8.903   6.826  0.9897 -1.4020  1.3157
  861MOL0     H16226   1.958   8.998   6.834 -0.1756 -0.1936  2.4114
  861MOL0     H16227   1.896   8.996   6.602  0.2663  1.1609  2.8237
  861MOL0     H16228   1.865   8.827   6.595  1.8369 -0.0286 -1.7684
  861MOL0     H16229   2.061   8.871   6.473  2.5314 -4.0383 -0.6937
  861MOL0     H16230   2.099   8.767   6.603  2.5469  1.1401  0.5963
  861MOL0     H16231   2.137   9.049   6.680 -1.3036 -0.9239 -0.8175
  861MOL0     H16232   2.240   8.996   6.554  0.9801  1.7833  0.9445
  861MOL0     H16233   2.440   8.824   6.874 -1.0471  2.4369  3.4089
  861MOL0     H16234   2.111   8.581   6.889  0.9098 -4.6128 -0.8227
  861MOL0     H16235   2.028   8.350   6.907  1.1501  0.5931 -0.7751
  862MOL0     O16236   7.234   7.907   6.487 -0.2622  0.5895  0.3770
  862MOL0     C16237   7.168   7.810   6.437 -0.1324 -0.6098 -0.5731
  862MOL0     O16238   7.039   7.791   6.455 -1.1764  0.2112  0.0200
  862MOL0     C16239   6.961   7.870   6.535  0.4320 -0.2790 -0.0818
  862MOL0     C16240   6.988   7.986   6.612  0.3940 -0.1100 -0.0007
  862MOL0     C16241   6.878   8.048   6.676 -0.5484  0.2095  0.0798
  862MOL0     C16242   6.752   7.991   6.680 -0.5451  0.4974 -0.5879
  862MOL0     O16243   6.645   8.038   6.749 -0.5197  0.4304 -0.1904
  862MOL0     C16244   6.646   8.161   6.830  0.4124  0.3655  1.0836
  862MOL0     C16245   6.512   8.174   6.889  0.7801 -0.8476 -0.7855
  862MOL0     C16246   6.501   8.264   7.013  0.1630  0.2592 -0.0404
  862MOL0     C16247   6.388   8.220   7.107  0.7484 -0.2156  0.7880
  862MOL0     C16248   6.386   8.303   7.238 -0.6496  0.5695 -0.3427
  862MOL0     C16249   6.287   8.255   7.344 -0.5145 -0.5113  0.1995
  862MOL0     C16250   6.212   8.365   7.403 -0.4968  0.1920  0.8242
  862MOL0     C16251   6.117   8.439   7.308 -0.3984 -0.1097 -0.0800
  862MOL0     N16252   6.021   8.511   7.384 -0.2836 -0.2101 -0.4412
  862MOL0     C16253   6.047   8.619   7.472 -0.0086 -0.4191 -0.5172
  862MOL0     C16254   5.920   8.653   7.522  0.1095  0.8275  0.9711
  862MOL0     C16255   5.886   8.776   7.608  0.3435 -0.8395  0.5537
  862MOL0     C16256   5.949   8.905   7.535 -0.4618 -1.0604  0.4038
  862MOL0     C16257   5.874   8.935   7.389 -0.6951  0.5742 -0.2499
  862MOL0     C16258   5.935   9.050   7.322 -0.4602 -0.6981 -0.0945
  862MOL0     O16259   6.051   9.004   7.249 -0.2048  0.0274 -0.5973
  862MOL0     C16260   6.085   9.046   7.125  0.2839  0.8039 -0.5362
  862MOL0     C16261   6.100   9.179   7.092 -0.5322 -0.7272  0.0447
  862MOL0     C16262   6.158   9.210   6.969 -0.3945 -1.0050 -0.2825
  862MOL0     C16263   6.208   9.342   6.955 -0.5409 -0.9573 -0.5122
  862MOL0     C16264   6.188   9.113   6.881 -0.5833  0.4536  0.7782
  862MOL0     C16265   6.255   9.132   6.751 -0.2723  0.6697 -1.8105
  862MOL0     O16266   6.193   9.224   6.662 -0.2271  1.0562  0.0794
  862MOL0     C16267   6.259   9.239   6.535  0.0300 -0.5772  0.3778
  862MOL0     C16268   6.279   9.142   6.432 -0.4793 -0.3601  0.7106
  862MOL0     C16269   6.339   9.175   6.312 -0.8056  0.4996 -0.4617
  862MOL0     C16270   6.378   9.307   6.287  0.7893  0.9736 -0.8328
  862MOL0     O16271   6.436   9.334   6.168 -0.1761  1.2119  0.0570
  862MOL0     C16272   6.567   9.393   6.180  0.4207  0.0954 -0.4043
  862MOL0     C16273   6.634   9.372   6.051 -0.0062 -1.0498  0.0195
  862MOL0     C16274   6.780   9.430   6.054 -0.6576  0.5656  0.3308
  862MOL0     C16275   6.885   9.334   6.112 -0.1807  0.6408  0.1059
  862MOL0     C16276   6.892   9.209   6.025 -0.7188  0.7009  0.0557
  862MOL0     C16277   7.028   9.133   6.029  0.0334  0.1566 -0.0178
  862MOL0     C16278   7.069   9.112   6.173 -0.5531 -0.2840 -0.0482
  862MOL0     C16279   7.203   9.029   6.166  0.8940  0.2618  1.4174
  862MOL0    Cl16280   7.282   9.024   6.323  0.3224 -0.5656  0.4905
  862MOL0     C16281   6.363   9.399   6.394  0.9474  0.0203 -1.1085
  862MOL0     C16282   6.314   9.365   6.514 -0.5418  0.0731 -0.0701
  862MOL0     O16283   6.352   9.061   6.724 -0.2349  0.1741 -0.3504
  862MOL0     C16284   6.147   8.983   6.905 -0.0361  0.2611 -0.0845
  862MOL0     C16285   6.094   8.945   7.032 -0.2225  0.0901  0.1246
  862MOL0     N16286   5.825   8.553   7.478 -0.6199  0.0346 -0.4400
  862MOL0     N16287   5.886   8.476   7.399  0.3166 -0.2701 -0.5313
  862MOL0     C16288   6.725   7.872   6.613  0.7615 -0.1442  0.4254
  862MOL0     C16289   6.826   7.812   6.540 -1.0513 -0.9773  0.3727
  862MOL0     C16290   7.242   7.706   6.355 -0.0708 -0.1154 -0.3084
  862MOL0     C16291   7.385   7.716   6.359  0.3255  1.1564  0.6108
  862MOL0     C16292   7.452   7.616   6.297 -0.5306  1.1475  0.1436
  862MOL0     C16293   7.393   7.514   6.217 -0.9200 -0.5156 -0.3304
  862MOL0     O16294   7.483   7.419   6.168  0.0355  0.2180 -0.6137
  862MOL0     C16295   7.442   7.335   6.056 -0.2497 -0.1960 -0.3318
  862MOL0     C16296   7.555   7.246   5.999 -0.6958 -0.2047  0.0807
  862MOL0     C16297   7.577   7.121   6.087  0.3895 -0.1770  0.4885
  862MOL0     C16298   7.616   7.153   6.236  0.0718  0.1809 -0.3081
  862MOL0     C16299   7.679   7.036   6.297 -0.3360 -0.2532 -1.0446
  862MOL0     C16300   7.732   6.942   6.355  0.4204 -0.1571 -0.0033
  862MOL0     C16301   7.257   7.504   6.212 -0.0542  0.0611  0.4369
  862MOL0     C16302   7.178   7.596   6.281 -0.0321 -0.1922  0.0168
  862MOL0     H16303   7.083   8.038   6.613 -0.1576  0.9063  0.2290
  862MOL0     H16304   6.905   8.137   6.731  1.5982  0.0738 -0.6532
  862MOL0     H16305   6.725   8.148   6.905 -0.7839 -2.7715  1.9791
  862MOL0     H16306   6.679   8.245   6.769  2.9950 -2.2710 -1.4755
  862MOL0     H16307   6.439   8.201   6.813  0.2101 -1.9191 -0.6475
  862MOL0     H16308   6.467   8.077   6.914 -2.3605  0.9047  0.9210
  862MOL0     H16309   6.597   8.265   7.066 -0.2243 -0.6373  0.6954
  862MOL0     H16310   6.472   8.367   6.989  0.3159  0.8536  2.0766
  862MOL0     H16311   6.291   8.233   7.059  2.5025  1.8041 -2.5804
  862MOL0     H16312   6.413   8.116   7.133  0.0667 -0.1531  1.7336
  862MOL0     H16313   6.491   8.304   7.270 -0.6694  1.9566 -0.2772
  862MOL0     H16314   6.361   8.401   7.198  0.8318  0.7098 -0.9858
  862MOL0     H16315   6.215   8.179   7.309  1.3506 -2.1085 -0.3369
  862MOL0     H16316   6.349   8.208   7.421  2.8207 -1.1782 -2.6780
  862MOL0     H16317   6.162   8.316   7.487  0.5605 -2.2387  0.1181
  862MOL0     H16318   6.293   8.428   7.443 -0.0383 -0.4478  0.9152
  862MOL0     H16319   6.079   8.371   7.231  1.2107 -0.2263 -0.8198
  862MOL0     H16320   6.192   8.502   7.260  0.0058 -1.0638 -0.7289
  862MOL0     H16321   6.141   8.669   7.493 -0.7987  0.2081  1.8617
  862MOL0     H16322   5.778   8.780   7.627  0.4070 -0.2346  0.7921
  862MOL0     H16323   5.925   8.768   7.710 -0.4105  2.2978  1.1928
  862MOL0     H16324   6.054   8.897   7.503 -0.9648  1.4739 -2.2632
  862MOL0     H16325   5.944   8.986   7.607 -3.6037 -1.5297  0.8471
  862MOL0     H16326   5.769   8.953   7.414 -0.5475 -0.0865  0.9421
  862MOL0     H16327   5.895   8.842   7.336 -1.1045  0.9723 -1.1243
  862MOL0     H16328   5.956   9.128   7.395  2.4304  1.0167 -2.5325
  862MOL0     H16329   5.856   9.092   7.259  0.1518  0.8409  0.1422
  862MOL0     H16330   6.094   9.245   7.178  1.7435  1.0575 -1.0559
  862MOL0     H16331   6.179   9.391   6.862 -1.5935  0.5855  0.5738
  862MOL0     H16332   6.194   9.407   7.042  3.5536  1.0904 -1.1016
  862MOL0     H16333   6.316   9.333   6.938 -0.7336 -2.3594 -1.1477
  862MOL0     H16334   6.240   9.041   6.439  0.5068 -0.8442 -0.4104
  862MOL0     H16335   6.356   9.106   6.230 -3.1188  2.0397 -2.3596
  862MOL0     H16336   6.578   9.501   6.190 -2.0158  0.7538 -3.3273
  862MOL0     H16337   6.618   9.339   6.260 -1.3649 -0.2677  0.5326
  862MOL0     H16338   6.645   9.264   6.035  1.1234 -1.2970  2.1067
  862MOL0     H16339   6.574   9.402   5.964  0.2904 -0.8231 -0.1079
  862MOL0     H16340   6.787   9.522   6.112  2.4538 -0.5858  2.0219
  862MOL0     H16341   6.795   9.456   5.949 -1.2637  2.3531  0.6637
  862MOL0     H16342   6.982   9.385   6.114 -0.4967  1.2892 -0.7411
  862MOL0     H16343   6.860   9.314   6.217 -0.9622  1.1958  0.0358
  862MOL0     H16344   6.874   9.210   5.917  2.7379 -1.4224 -0.7137
  862MOL0     H16345   6.822   9.140   6.073  0.2326  0.1997  0.7748
  862MOL0     H16346   7.030   9.044   5.965  0.2492  1.6530 -2.1948
  862MOL0     H16347   7.100   9.201   5.982 -0.1884  1.0588  0.9159
  862MOL0     H16348   6.997   9.052   6.230  0.5324  0.1277  1.8406
  862MOL0     H16349   7.092   9.208   6.221 -1.1689 -0.3669  0.4314
  862MOL0     H16350   7.272   9.063   6.089 -3.4118  2.3013 -1.9316
  862MOL0     H16351   7.155   8.935   6.137  0.0898  1.1988 -0.3829
  862MOL0     H16352   6.380   9.502   6.365 -0.5321 -0.1370 -2.7111
  862MOL0     H16353   6.297   9.442   6.589 -2.2417 -2.3507  2.2314
  862MOL0     H16354   6.179   8.913   6.829 -2.5582 -1.8188  0.6435
  862MOL0     H16355   6.074   8.841   7.057 -0.1443 -0.6669 -2.7045
  862MOL0     H16356   6.631   7.823   6.638  1.4881 -1.6663  0.3032
  862MOL0     H16357   6.813   7.709   6.505 -1.0025 -0.5523 -0.9727
  862MOL0     H16358   7.437   7.777   6.432  0.9116 -0.6953  1.8085
  862MOL0     H16359   7.560   7.612   6.303 -0.2155 -1.0924 -3.7721
  862MOL0     H16360   7.368   7.264   6.095 -0.2326  0.0038  0.0731
  862MOL0     H16361   7.386   7.394   5.983 -1.1775  0.1784  0.6533
  862MOL0     H16362   7.642   7.296   5.956 -1.4198  0.2169 -0.9344
  862MOL0     H16363   7.509   7.208   5.908  2.4583 -2.0370 -0.9064
  862MOL0     H16364   7.646   7.048   6.043  1.7127  1.2381  0.1341
  862MOL0     H16365   7.488   7.057   6.087  1.8792 -2.4713 -1.8423
  862MOL0     H16366   7.527   7.172   6.298 -0.9215 -1.9703 -0.9765
  862MOL0     H16367   7.692   7.232   6.235  0.9001 -0.5996  0.1005
  862MOL0     H16368   7.774   6.866   6.417 -5.4030 -2.8990  1.3492
  862MOL0     H16369   7.205   7.432   6.150 -1.7187  0.4370  1.3445
  862MOL0     H16370   7.071   7.578   6.293  0.2960 -1.3685  1.3702
  863MOL0     O16371   0.666   5.418   7.643  0.6176  0.7794  0.0009
  863MOL0     C16372   0.592   5.512   7.680 -0.4746  0.8551  0.4143
  863MOL0     O16373   0.500   5.564   7.614  0.6493 -0.6384  0.8215
  863MOL0     C16374   0.455   5.512   7.500 -0.3116  0.3887  0.2600
  863MOL0     C16375   0.343   5.434   7.497  1.1773  0.2033  0.0582
  863MOL0     C16376   0.309   5.358   7.392 -0.4202 -0.1956  0.6124
  863MOL0     C16377   0.376   5.388   7.270 -0.5460  0.2772  1.0512
  863MOL0     O16378   0.344   5.298   7.164  1.0416 -0.1236  0.0237
  863MOL0     C16379   0.380   5.320   7.023 -0.4081  0.4113 -1.5511
  863MOL0     C16380   0.311   5.439   6.970  0.1800  0.2136 -0.7113
  863MOL0     C16381   0.157   5.438   6.976 -0.9501 -0.5067  0.3120
  863MOL0     C16382   0.100   5.574   7.003  0.6541  0.2263 -0.4462
  863MOL0     C16383  -0.053   5.569   7.015  0.3247 -0.1571 -0.1004
  863MOL0     C16384  -0.090   5.703   7.059  0.3543 -0.7891  0.3699
  863MOL0     C16385  -0.240   5.716   7.078 -0.0898 -0.4120 -0.0241
  863MOL0     C16386  -0.285   5.853   7.092  0.5066 -1.0981 -0.1977
  863MOL0     N16387  -0.239   5.930   7.211  0.0121  0.4608 -0.8969
  863MOL0     C16388  -0.134   6.011   7.211  0.7800 -0.6182 -1.3438
  863MOL0     C16389  -0.134   6.088   7.328  0.7694  1.0714  0.6701
  863MOL0     C16390  -0.051   6.211   7.349 -0.5454 -0.0936 -0.5371
  863MOL0     C16391  -0.116   6.324   7.275 -0.4106 -0.3033 -0.5672
  863MOL0     C16392  -0.027   6.450   7.274 -0.3058 -0.7885 -0.8279
  863MOL0     C16393  -0.106   6.568   7.207 -0.1489  0.3149  0.3287
  863MOL0     O16394  -0.160   6.640   7.313  0.4393  0.6202  0.3472
  863MOL0     C16395  -0.263   6.738   7.301 -0.5921 -0.2839  0.8251
  863MOL0     C16396  -0.234   6.871   7.331  0.5021  0.1833  0.9856
  863MOL0     C16397  -0.320   6.981   7.301  0.2986  0.1662 -0.4026
  863MOL0     C16398  -0.267   7.129   7.317  0.1986 -0.1342  0.7675
  863MOL0     C16399  -0.451   6.946   7.257  0.5576 -0.3057  0.0748
  863MOL0     C16400  -0.555   7.050   7.243  0.3026  0.6742 -0.2939
  863MOL0     O16401  -0.528   7.176   7.275 -0.1235  0.2038 -0.1146
  863MOL0     C16402  -0.619   7.281   7.248  0.2446 -0.1655  0.4326
  863MOL0     C16403  -0.557   7.405   7.237 -0.1930 -0.2359 -0.7225
  863MOL0     C16404  -0.638   7.519   7.216 -0.4247  0.6907  0.1279
  863MOL0     C16405  -0.775   7.507   7.199 -0.0243 -0.5304  0.2911
  863MOL0     O16406  -0.849   7.615   7.172 -0.2181 -0.2220  0.0162
  863MOL0     C16407  -0.876   7.638   7.035 -0.7480  0.4142 -0.4584
  863MOL0     C16408  -1.023   7.685   7.020  0.5549 -0.0095  0.4352
  863MOL0     C16409  -1.093   7.793   7.104 -1.1795 -0.5734 -0.0543
  863MOL0     C16410  -0.996   7.911   7.138 -0.3703  0.0121  0.1332
  863MOL0     C16411  -0.946   7.984   7.010 -0.1165  0.5888  1.1844
  863MOL0     C16412  -0.873   8.110   7.052  0.3328  0.1907 -0.3294
  863MOL0     C16413  -0.855   8.228   6.967  0.6409 -0.0716  0.2138
  863MOL0     C16414  -0.970   8.285   6.900  0.5977  0.7620  0.0681
  863MOL0    Cl16415  -0.919   8.430   6.794  0.0772 -0.2848  0.0136
  863MOL0     C16416  -0.832   7.384   7.194  0.4390  0.2841 -0.9063
  863MOL0     C16417  -0.760   7.271   7.230 -0.2636  0.4082  0.1497
  863MOL0     O16418  -0.658   7.003   7.190 -0.7538 -1.2378 -0.7417
  863MOL0     C16419  -0.483   6.812   7.228 -0.0236  0.1303  0.4991
  863MOL0     C16420  -0.392   6.713   7.251 -0.0293  0.0383  0.8237
  863MOL0     N16421  -0.246   6.047   7.398  0.8421  0.1442 -0.4896
  863MOL0     N16422  -0.306   5.960   7.331 -0.2261  0.2377 -0.4131
  863MOL0     C16423   0.492   5.474   7.265  0.1176 -0.6740  0.1905
  863MOL0     C16424   0.533   5.529   7.386 -0.3028  0.1091  0.4612
  863MOL0     C16425   0.623   5.564   7.824 -0.1901 -0.2557  0.3535
  863MOL0     C16426   0.594   5.700   7.855  0.8494 -0.1055 -0.3876
  863MOL0     C16427   0.640   5.747   7.977  0.3080 -0.0395  0.1565
  863MOL0     C16428   0.698   5.653   8.070  1.3818  0.0721 -0.9587
  863MOL0     O16429   0.728   5.710   8.188  0.3181  0.3102 -0.1206
  863MOL0     C16430   0.732   5.620   8.298 -0.6388  0.3977 -0.0439
  863MOL0     C16431   0.713   5.704   8.424  0.3524 -0.0638  0.4696
  863MOL0     C16432   0.571   5.750   8.466 -0.2294 -0.6582 -0.4585
  863MOL0     C16433   0.552   5.898   8.525  0.1430 -0.4030 -0.6200
  863MOL0     C16434   0.608   5.998   8.434 -0.1242 -1.2055  0.0271
  863MOL0     C16435   0.655   6.071   8.346 -0.4388 -0.0161 -0.1988
  863MOL0     C16436   0.720   5.522   8.039  0.9795 -0.9855  0.4289
  863MOL0     C16437   0.688   5.470   7.914 -0.5891 -1.7205 -0.1998
  863MOL0     H16438   0.277   5.422   7.583 -1.7124 -2.7400 -2.3382
  863MOL0     H16439   0.217   5.301   7.392  0.1009 -1.0682 -0.4348
  863MOL0     H16440   0.487   5.315   7.003 -0.0128 -1.3213  0.6172
  863MOL0     H16441   0.332   5.243   6.963 -1.6365  0.2516 -0.4293
  863MOL0     H16442   0.348   5.535   7.009 -1.8479  1.3814 -1.4716
  863MOL0     H16443   0.335   5.442   6.864  3.3498 -2.9268 -0.2560
  863MOL0     H16444   0.112   5.393   6.887 -1.9288 -0.8430  0.9539
  863MOL0     H16445   0.118   5.383   7.063 -1.3531 -1.0826 -0.2203
  863MOL0     H16446   0.155   5.616   7.088  2.7755  0.2577 -1.7603
  863MOL0     H16447   0.120   5.635   6.915  1.2406  0.0020 -0.4725
  863MOL0     H16448  -0.104   5.549   6.920 -1.5357 -0.7704  0.9801
  863MOL0     H16449  -0.086   5.487   7.080  3.5554 -3.7114 -2.4532
  863MOL0     H16450  -0.038   5.725   7.153  2.0628  1.2412 -0.9525
  863MOL0     H16451  -0.049   5.784   6.997  2.9084  2.2480  5.3930
  863MOL0     H16452  -0.292   5.667   6.995 -3.6360  0.4344  1.5208
  863MOL0     H16453  -0.267   5.670   7.173 -1.2213 -1.9293 -1.0338
  863MOL0     H16454  -0.394   5.845   7.101  0.2614  0.6433 -1.1896
  863MOL0     H16455  -0.259   5.914   7.006  0.6867 -0.5315  0.2490
  863MOL0     H16456  -0.053   6.022   7.139  1.8287  0.3898 -0.0428
  863MOL0     H16457  -0.057   6.231   7.456  2.1196 -1.0071 -0.1457
  863MOL0     H16458   0.052   6.182   7.324  0.6386  2.8185  0.5005
  863MOL0     H16459  -0.206   6.360   7.326 -0.6904 -2.1114  0.2782
  863MOL0     H16460  -0.147   6.302   7.173 -0.3206  0.1663 -0.7000
  863MOL0     H16461   0.061   6.426   7.213 -0.7812 -6.0713  0.1158
  863MOL0     H16462  -0.003   6.469   7.379  1.0265  2.6129 -1.6126
  863MOL0     H16463  -0.171   6.524   7.131  1.1059  0.1331 -0.6737
  863MOL0     H16464  -0.031   6.633   7.161  0.2839  0.4889  1.2682
  863MOL0     H16465  -0.136   6.891   7.375  1.7666 -1.0475 -1.0889
  863MOL0     H16466  -0.285   7.191   7.229 -1.7340 -2.6247 -0.7172
  863MOL0     H16467  -0.311   7.177   7.405 -0.3621 -0.1213  0.4813
  863MOL0     H16468  -0.159   7.124   7.336 -0.0311 -3.6683  1.8367
  863MOL0     H16469  -0.450   7.423   7.241 -0.3371  0.9396  4.1080
  863MOL0     H16470  -0.594   7.617   7.202 -0.7830  0.8141 -0.1403
  863MOL0     H16471  -0.806   7.709   6.991 -1.6505  1.0792 -0.8506
  863MOL0     H16472  -0.871   7.546   6.977  1.4700  1.4193 -1.9999
  863MOL0     H16473  -1.040   7.715   6.916  1.1436  3.0051  1.1152
  863MOL0     H16474  -1.075   7.591   7.040  3.5201 -1.6922  0.8600
  863MOL0     H16475  -1.118   7.746   7.200 -1.2774 -0.7495 -0.1660
  863MOL0     H16476  -1.186   7.829   7.061 -1.4352  0.2090  1.0910
  863MOL0     H16477  -1.050   7.986   7.198  0.2053  1.8261 -1.5159
  863MOL0     H16478  -0.920   7.878   7.209  0.2274  0.8109 -0.1273
  863MOL0     H16479  -1.026   8.007   6.938  0.0565 -0.8911  0.4831
  863MOL0     H16480  -0.875   7.921   6.955 -1.5929 -1.0199  1.0063
  863MOL0     H16481  -0.922   8.150   7.140  0.9234  0.5585 -0.1608
  863MOL0     H16482  -0.772   8.082   7.083 -0.8952 -1.7811  2.2721
  863MOL0     H16483  -0.779   8.207   6.892  0.2843  2.3590 -0.9312
  863MOL0     H16484  -0.808   8.308   7.025  0.0073  1.5624 -1.4434
  863MOL0     H16485  -1.040   8.328   6.972  1.3854  3.4157 -0.6134
  863MOL0     H16486  -1.012   8.204   6.841 -2.3910  1.1996  1.4194
  863MOL0     H16487  -0.940   7.383   7.181  0.5257 -0.7752 -1.6095
  863MOL0     H16488  -0.803   7.172   7.240  3.6129 -1.5475 -0.6221
  863MOL0     H16489  -0.582   6.789   7.189  0.0454  2.4269 -1.2246
  863MOL0     H16490  -0.414   6.612   7.218 -1.9174 -0.3943  3.1238
  863MOL0     H16491   0.560   5.462   7.181  0.8500 -4.7143  1.1176
  863MOL0     H16492   0.630   5.576   7.401  0.4923 -0.7598 -1.6282
  863MOL0     H16493   0.548   5.761   7.779  0.4960  2.0320  1.4447
  863MOL0     H16494   0.626   5.850   8.008  4.0413  1.1549 -1.5190
  863MOL0     H16495   0.641   5.559   8.292  0.1112 -0.8555  0.7853
  863MOL0     H16496   0.825   5.562   8.300 -0.1033  1.2524  1.3250
  863MOL0     H16497   0.771   5.795   8.408  0.0280 -0.2221 -1.9629
  863MOL0     H16498   0.754   5.656   8.513 -5.0199  1.5489  4.3331
  863MOL0     H16499   0.529   5.677   8.536 -2.9193  3.5174  2.8203
  863MOL0     H16500   0.515   5.758   8.372  1.2726 -2.8524 -1.6025
  863MOL0     H16501   0.594   5.906   8.626  0.9248  2.4724 -1.1048
  863MOL0     H16502   0.447   5.923   8.538  0.7404  2.1002 -0.1487
  863MOL0     H16503   0.697   6.139   8.275  2.2987 -1.2034  0.1627
  863MOL0     H16504   0.756   5.439   8.099 -4.6348 -5.8759 -2.0296
  863MOL0     H16505   0.705   5.365   7.892 -1.9178 -2.2534  1.1117
  864MOL0     O16506   5.501   5.021   5.491  0.4181 -0.1751 -0.4453
  864MOL0     C16507   5.509   4.901   5.472 -0.1248 -0.0566  0.4079
  864MOL0     O16508   5.497   4.809   5.570 -0.1942  0.1332  0.3409
  864MOL0     C16509   5.455   4.855   5.693  0.3681 -0.1494 -0.7870
  864MOL0     C16510   5.526   4.947   5.768  0.4927 -0.1532 -0.7156
  864MOL0     C16511   5.483   4.982   5.901 -0.1350  0.2760 -0.6197
  864MOL0     C16512   5.374   4.917   5.959 -0.2392 -0.4750  0.2033
  864MOL0     O16513   5.354   4.953   6.085  0.3603 -0.5311  0.3988
  864MOL0     C16514   5.255   4.881   6.151  0.4882 -0.4979 -0.1266
  864MOL0     C16515   5.247   4.912   6.296  0.0327 -0.5453  0.1465
  864MOL0     C16516   5.106   4.902   6.351  0.6073 -1.2509 -0.2458
  864MOL0     C16517   5.101   4.894   6.511  0.8825 -0.1849  0.0589
  864MOL0     C16518   4.965   4.919   6.565 -0.8026 -0.2358 -0.9371
  864MOL0     C16519   4.973   5.030   6.674 -0.3672 -0.3505  0.4951
  864MOL0     C16520   4.839   5.068   6.737  0.6224  0.2376 -0.5425
  864MOL0     C16521   4.745   4.961   6.770  0.8399 -0.0139  0.0220
  864MOL0     N16522   4.789   4.837   6.840 -0.8651 -0.3224  0.0502
  864MOL0     C16523   4.886   4.830   6.945  0.4700  0.4769 -0.1046
  864MOL0     C16524   4.895   4.694   6.966  0.0682  0.0030 -0.1401
  864MOL0     C16525   4.990   4.638   7.072 -0.7784 -0.5241  0.2655
  864MOL0     C16526   4.908   4.619   7.199  0.5749  0.4949  0.2517
  864MOL0     C16527   5.002   4.600   7.316  0.1197  1.1108  0.1029
  864MOL0     C16528   4.933   4.602   7.450 -0.4015  0.0883 -0.3573
  864MOL0     O16529   4.814   4.538   7.446  0.5582  0.1221  0.9067
  864MOL0     C16530   4.745   4.524   7.565 -0.4604 -0.6768  0.5054
  864MOL0     C16531   4.793   4.495   7.695 -0.2826 -0.1336 -0.1943
  864MOL0     C16532   4.714   4.465   7.799 -0.1188  0.4754 -0.8874
  864MOL0     C16533   4.768   4.440   7.936 -1.0689  0.7681 -0.6070
  864MOL0     C16534   4.576   4.470   7.789 -0.1100  0.2993  1.5138
  864MOL0     C16535   4.484   4.434   7.893 -0.8564  0.9694  0.6768
  864MOL0     O16536   4.431   4.306   7.884  0.6369 -0.3541  0.5536
  864MOL0     C16537   4.329   4.269   7.967  0.6350  0.0292 -0.2440
  864MOL0     C16538   4.239   4.354   8.019 -0.0969 -0.0131 -0.7826
  864MOL0     C16539   4.146   4.298   8.110  0.6643 -0.4823  0.6783
  864MOL0     C16540   4.136   4.159   8.137  0.8485 -0.0525  0.4989
  864MOL0     O16541   4.025   4.118   8.214 -0.4744 -0.3046  0.1497
  864MOL0     C16542   4.015   4.178   8.350 -0.1515  0.7074 -0.5019
  864MOL0     C16543   3.873   4.172   8.403  0.2185  0.3494 -0.1831
  864MOL0     C16544   3.838   4.025   8.402  0.6021  0.3889 -0.6233
  864MOL0     C16545   3.687   4.011   8.444  0.2489 -0.0975 -0.3017
  864MOL0     C16546   3.627   3.863   8.447  0.1646 -0.1022  0.4039
  864MOL0     C16547   3.490   3.863   8.519  0.3868  0.1825  0.3879
  864MOL0     C16548   3.420   3.721   8.542  0.0513  0.0234  0.8603
  864MOL0     C16549   3.268   3.727   8.580  0.2095 -0.3102 -0.4828
  864MOL0    Cl16550   3.178   3.828   8.475 -0.2800  0.0074  0.5345
  864MOL0     C16551   4.230   4.074   8.084  1.5066  1.0893  0.9945
  864MOL0     C16552   4.327   4.135   8.004  0.1737  0.2491 -0.1321
  864MOL0     O16553   4.487   4.498   7.996 -0.2555 -0.2668 -0.0016
  864MOL0     C16554   4.528   4.506   7.660  0.1146 -0.0808 -0.6508
  864MOL0     C16555   4.606   4.525   7.562 -0.4280  0.2450  0.9192
  864MOL0     N16556   4.801   4.624   6.885 -0.1990  0.0467 -0.7525
  864MOL0     N16557   4.738   4.708   6.821  1.2109  0.5394  0.5966
  864MOL0     C16558   5.299   4.822   5.890 -0.0486 -0.3014  0.0587
  864MOL0     C16559   5.345   4.792   5.761  0.8482  0.5585 -0.5343
  864MOL0     C16560   5.537   4.851   5.344  0.6495  0.4142  0.5014
  864MOL0     C16561   5.529   4.710   5.321  1.1134  0.5120  0.0363
  864MOL0     C16562   5.539   4.666   5.184  0.0119  0.9547  0.4210
  864MOL0     C16563   5.547   4.754   5.079  0.3356 -0.1992  0.5541
  864MOL0     O16564   5.502   4.711   4.960  0.4067  0.1320 -0.1792
  864MOL0     C16565   5.470   4.572   4.929 -0.3821  0.2568  0.6923
  864MOL0     C16566   5.449   4.562   4.778 -0.2977 -0.0646  0.5391
  864MOL0     C16567   5.555   4.627   4.692 -0.0004  0.0797  0.1065
  864MOL0     C16568   5.700   4.579   4.720  0.5780 -0.0543 -0.8656
  864MOL0     C16569   5.724   4.434   4.712  0.0188 -0.2356  0.2013
  864MOL0     C16570   5.739   4.310   4.700 -0.4031  0.3082  0.1702
  864MOL0     C16571   5.578   4.886   5.105  0.1083  0.1034  0.5201
  864MOL0     C16572   5.563   4.942   5.232  0.3026  0.3671  0.2107
  864MOL0     H16573   5.615   4.977   5.715  2.0992 -4.7328 -1.0447
  864MOL0     H16574   5.521   5.054   5.972 -3.2526 -0.4382  2.0366
  864MOL0     H16575   5.155   4.899   6.111  0.3469  0.8550  0.7865
  864MOL0     H16576   5.287   4.776   6.142 -1.0923 -1.1565  1.3710
  864MOL0     H16577   5.317   4.850   6.351  2.2862  0.9209 -0.8928
  864MOL0     H16578   5.284   5.014   6.314  3.9944 -1.7169 -0.3377
  864MOL0     H16579   5.047   4.983   6.307 -0.0327 -2.4740 -1.7389
  864MOL0     H16580   5.052   4.814   6.313 -1.1762 -0.5854  0.6157
  864MOL0     H16581   5.141   4.798   6.546  0.6956 -0.7209 -1.1627
  864MOL0     H16582   5.167   4.973   6.550  0.6287  1.0556 -1.9071
  864MOL0     H16583   4.896   4.951   6.486 -1.0802  3.7044  0.7240
  864MOL0     H16584   4.950   4.820   6.610  0.1979 -0.8155 -1.8061
  864MOL0     H16585   5.038   4.996   6.755  2.4555  0.0643 -1.4637
  864MOL0     H16586   5.026   5.107   6.617  0.2700 -2.9670 -2.7242
  864MOL0     H16587   4.853   5.138   6.820 -0.3013  0.2361 -0.3778
  864MOL0     H16588   4.780   5.134   6.673 -2.2596 -1.7188 -0.0981
  864MOL0     H16589   4.701   4.937   6.672  0.4212 -1.9264  0.6304
  864MOL0     H16590   4.662   5.007   6.824  0.1544  0.1363 -1.1029
  864MOL0     H16591   4.943   4.910   6.991 -0.3487 -0.0671  1.9635
  864MOL0     H16592   5.026   4.548   7.020 -0.5749  0.8109 -2.0845
  864MOL0     H16593   5.086   4.688   7.084  0.1927 -2.1594 -0.3200
  864MOL0     H16594   4.848   4.528   7.186 -0.8647  1.4053  0.3993
  864MOL0     H16595   4.834   4.698   7.212 -2.0269 -1.9823  1.6815
  864MOL0     H16596   5.077   4.680   7.320 -0.4686  1.6341  0.8887
  864MOL0     H16597   5.048   4.504   7.291 -0.6173  1.2449 -1.9665
  864MOL0     H16598   4.921   4.707   7.477 -1.6001  0.2337 -1.3791
  864MOL0     H16599   5.000   4.556   7.524  1.1152 -1.2040 -2.4249
  864MOL0     H16600   4.901   4.495   7.706 -0.1240 -3.5749 -0.6906
  864MOL0     H16601   4.738   4.508   8.017  0.8312 -0.1882  0.9834
  864MOL0     H16602   4.744   4.342   7.979 -1.2656  0.0686 -2.2443
  864MOL0     H16603   4.875   4.461   7.933 -1.3299  2.3266 -4.7405
  864MOL0     H16604   4.239   4.460   7.993 -0.6592 -0.5302 -3.1544
  864MOL0     H16605   4.075   4.369   8.151  1.0410  2.2353 -2.8647
  864MOL0     H16606   4.074   4.123   8.425 -0.5278  0.9326 -0.0349
  864MOL0     H16607   4.061   4.277   8.346  1.9029 -0.1594  0.5168
  864MOL0     H16608   3.864   4.215   8.503 -0.5862 -0.1016 -0.0545
  864MOL0     H16609   3.800   4.216   8.335 -0.6371 -0.4246  0.2156
  864MOL0     H16610   3.900   3.980   8.480  0.7301  2.5375  0.6223
  864MOL0     H16611   3.857   3.980   8.305  1.6794 -0.8144  0.1254
  864MOL0     H16612   3.675   4.069   8.536  1.9021  0.7077 -0.5471
  864MOL0     H16613   3.629   4.062   8.367 -0.6475  0.7393  0.8872
  864MOL0     H16614   3.704   3.806   8.499  0.7408 -0.8129 -1.1911
  864MOL0     H16615   3.626   3.819   8.347 -0.6411 -0.9768  0.7765
  864MOL0     H16616   3.507   3.906   8.618  0.4197  0.5982  0.2016
  864MOL0     H16617   3.432   3.921   8.447  4.5928  0.6978 -2.9941
  864MOL0     H16618   3.479   3.666   8.616 -1.2078 -2.8155 -0.0941
  864MOL0     H16619   3.417   3.661   8.451  0.4651  1.9810 -0.4988
  864MOL0     H16620   3.245   3.761   8.682 -1.1931  2.3837 -1.6033
  864MOL0     H16621   3.228   3.625   8.585 -0.4161 -0.0749 -0.6388
  864MOL0     H16622   4.231   3.968   8.109  1.2220  0.7150 -0.5262
  864MOL0     H16623   4.418   4.077   7.990  1.9570  2.4112  1.5378
  864MOL0     H16624   4.420   4.495   7.659 -0.0227  0.5003  1.8357
  864MOL0     H16625   4.555   4.548   7.468 -1.6946  2.1379  2.0024
  864MOL0     H16626   5.213   4.769   5.929  0.6796 -1.3687  0.2439
  864MOL0     H16627   5.301   4.705   5.713 -0.1807  1.3080 -0.9895
  864MOL0     H16628   5.506   4.641   5.402  0.5008  0.5859 -0.0722
  864MOL0     H16629   5.518   4.560   5.169  0.6545  0.9491 -0.5080
  864MOL0     H16630   5.553   4.510   4.964 -0.4374  0.0445  0.4469
  864MOL0     H16631   5.376   4.533   4.969  0.3297 -0.2225  1.9792
  864MOL0     H16632   5.361   4.623   4.756  0.1982  1.1132  1.7009
  864MOL0     H16633   5.438   4.457   4.750 -1.6240 -0.0861  1.0403
  864MOL0     H16634   5.552   4.735   4.713  0.0713 -0.1901  1.6576
  864MOL0     H16635   5.540   4.609   4.586  1.4952  1.9563 -0.4742
  864MOL0     H16636   5.734   4.613   4.819  0.2999 -0.0281 -0.7787
  864MOL0     H16637   5.762   4.633   4.648  0.5828  1.0172 -0.0878
  864MOL0     H16638   5.759   4.205   4.706  0.5172  0.5102  0.9242
  864MOL0     H16639   5.590   4.930   5.007 -1.5991 -2.6685 -1.0843
  864MOL0     H16640   5.576   5.049   5.244  1.4291  0.5119 -1.8562
  865MOL0     O16641   1.913   2.868   6.471  0.1273  0.0761  0.8421
  865MOL0     C16642   1.996   2.802   6.415  0.4946  0.1069  0.1708
  865MOL0     O16643   2.121   2.764   6.467 -0.6240 -0.4663  0.3892
  865MOL0     C16644   2.132   2.781   6.605  1.0861 -0.1175 -0.3372
  865MOL0     C16645   2.191   2.904   6.654 -0.0540  0.1278 -0.7416
  865MOL0     C16646   2.190   2.925   6.791  0.4377  0.3206 -1.4860
  865MOL0     C16647   2.145   2.822   6.888 -0.2921 -0.1675  1.4331
  865MOL0     O16648   2.153   2.842   7.025 -0.0182  0.2921 -0.5757
  865MOL0     C16649   2.241   2.942   7.082  0.3725  0.6368  0.8575
  865MOL0     C16650   2.259   2.912   7.229  0.2756 -0.7611  0.6742
  865MOL0     C16651   2.318   3.034   7.301  0.3431  0.6064  0.1391
  865MOL0     C16652   2.352   3.005   7.447  0.8198 -0.2214 -0.2422
  865MOL0     C16653   2.396   3.126   7.517 -0.0665  0.1404 -0.1231
  865MOL0     C16654   2.429   3.095   7.667 -0.2058 -0.3076  0.3323
  865MOL0     C16655   2.470   3.226   7.744  0.6494 -1.1314 -0.1442
  865MOL0     C16656   2.604   3.280   7.711 -1.0953  0.9598  0.1116
  865MOL0     N16657   2.697   3.174   7.712 -0.3232  0.4679 -0.5120
  865MOL0     C16658   2.730   3.100   7.821 -1.1661  0.1672  0.1612
  865MOL0     C16659   2.817   2.998   7.787 -0.3195 -1.3287  0.9704
  865MOL0     C16660   2.879   2.885   7.860  0.2824 -0.4227 -0.4910
  865MOL0     C16661   3.030   2.886   7.852 -0.9876  0.2820 -0.8084
  865MOL0     C16662   3.104   2.752   7.891 -0.1275 -0.6425  0.5449
  865MOL0     C16663   3.247   2.771   7.924 -0.3398  0.5254 -0.1454
  865MOL0     O16664   3.317   2.827   7.810  0.5504 -0.2698 -0.7420
  865MOL0     C16665   3.444   2.855   7.845 -0.2584 -0.0136  0.0755
  865MOL0     C16666   3.517   2.901   7.738 -0.6973  1.0441 -0.3601
  865MOL0     C16667   3.652   2.939   7.750 -0.7850  0.4700  0.4707
  865MOL0     C16668   3.708   2.995   7.627 -0.6006  0.0472 -0.6192
  865MOL0     C16669   3.711   2.921   7.878 -0.5028  0.2403  0.1388
  865MOL0     C16670   3.862   2.944   7.899  0.5629 -0.6599 -0.3104
  865MOL0     O16671   3.904   2.924   8.031 -0.3742  0.1649  0.1284
  865MOL0     C16672   4.017   2.976   8.091  0.2149  0.3568 -0.0090
  865MOL0     C16673   4.116   3.064   8.047 -0.1410 -0.2622  0.8555
  865MOL0     C16674   4.237   3.098   8.124 -0.5915 -0.0229  0.6582
  865MOL0     C16675   4.250   3.049   8.254 -0.2822  0.4124 -1.2475
  865MOL0     O16676   4.349   3.074   8.345 -0.7550  0.0703  0.7645
  865MOL0     C16677   4.461   3.143   8.294  0.9145  0.3237 -0.8380
  865MOL0     C16678   4.561   3.168   8.409 -0.2491  0.4162 -0.3282
  865MOL0     C16679   4.698   3.204   8.340  0.0892 -0.0588 -0.1026
  865MOL0     C16680   4.804   3.234   8.443  0.7771 -0.1029 -0.8683
  865MOL0     C16681   4.933   3.288   8.388 -0.4010 -0.6989  0.5347
  865MOL0     C16682   5.005   3.361   8.502  0.6733 -0.3761  0.3618
  865MOL0     C16683   5.126   3.440   8.452 -0.7986  0.2515  0.4162
  865MOL0     C16684   5.220   3.503   8.560 -0.5157 -0.1022 -0.3163
  865MOL0    Cl16685   5.369   3.566   8.474  0.2769 -0.2272  0.2049
  865MOL0     C16686   4.150   2.953   8.294  0.0014 -0.4914 -0.7504
  865MOL0     C16687   4.043   2.927   8.216 -0.0516 -0.2437  0.4552
  865MOL0     O16688   3.915   3.006   7.812  0.0124  0.0984  1.0071
  865MOL0     C16689   3.640   2.885   7.987 -0.0268 -0.5739 -0.5107
  865MOL0     C16690   3.500   2.859   7.973 -0.9736  1.2680 -0.5651
  865MOL0     N16691   2.850   3.030   7.653  0.3940  0.5638  0.0476
  865MOL0     N16692   2.770   3.124   7.606  0.0866  0.3655  0.0889
  865MOL0     C16693   2.098   2.703   6.835 -0.0697  0.2967  0.1901
  865MOL0     C16694   2.079   2.693   6.699 -0.3539 -0.3261 -0.0135
  865MOL0     C16695   1.965   2.768   6.271 -1.1368  0.4396  0.2585
  865MOL0     C16696   1.849   2.792   6.209 -0.2954 -0.2216 -0.7065
  865MOL0     C16697   1.828   2.747   6.080 -0.0308 -0.7753 -0.2534
  865MOL0     C16698   1.929   2.694   6.003  0.4033 -0.0578 -0.2860
  865MOL0     O16699   1.896   2.675   5.867  0.2932 -0.0243  1.2924
  865MOL0     C16700   1.977   2.595   5.772  0.3310  0.0328 -0.1132
  865MOL0     C16701   1.892   2.502   5.682 -1.1223  0.3664 -0.3600
  865MOL0     C16702   1.937   2.496   5.537 -0.5402 -0.3126  0.7838
  865MOL0     C16703   2.066   2.413   5.524 -0.8202  0.5412  1.0295
  865MOL0     C16704   2.045   2.277   5.575  0.1213 -0.4187 -1.1813
  865MOL0     C16705   2.011   2.165   5.609  0.0406 -0.1728  0.1827
  865MOL0     C16706   2.058   2.687   6.060 -0.3392  0.0677  0.3573
  865MOL0     C16707   2.074   2.718   6.190 -0.1253 -0.5546  0.3685
  865MOL0     H16708   2.238   2.967   6.579  0.6665  0.3604 -0.0998
  865MOL0     H16709   2.233   3.017   6.831  1.4910 -1.6694  2.3591
  865MOL0     H16710   2.339   2.937   7.035  1.7022  1.4217  3.3577
  865MOL0     H16711   2.192   3.038   7.065 -2.0066 -0.2833  2.0050
  865MOL0     H16712   2.161   2.901   7.276 -1.3604 -2.5996 -2.7614
  865MOL0     H16713   2.308   2.815   7.240 -1.1945 -1.4679  1.2339
  865MOL0     H16714   2.409   3.056   7.244 -0.6748 -0.3236 -1.9706
  865MOL0     H16715   2.251   3.118   7.281 -1.7553 -1.0569 -0.1805
  865MOL0     H16716   2.257   2.970   7.489 -0.6354  4.1717  0.7606
  865MOL0     H16717   2.418   2.918   7.453 -2.8429 -3.3281 -1.0772
  865MOL0     H16718   2.489   3.163   7.472  0.9658 -0.1967  1.6687
  865MOL0     H16719   2.327   3.209   7.499  1.1612  0.5565 -3.7478
  865MOL0     H16720   2.330   3.068   7.703 -0.8505 -0.7682 -1.6543
  865MOL0     H16721   2.494   3.007   7.674  2.9272  1.6235 -1.8979
  865MOL0     H16722   2.395   3.304   7.732  1.1610 -0.9886 -3.0914
  865MOL0     H16723   2.468   3.202   7.851 -1.7827  1.4929  0.5072
  865MOL0     H16724   2.647   3.365   7.766  1.3514  0.9637 -1.6289
  865MOL0     H16725   2.587   3.320   7.610 -3.1444  3.2071  1.2388
  865MOL0     H16726   2.676   3.108   7.915 -1.4316  1.1958 -0.0624
  865MOL0     H16727   2.859   2.888   7.967  0.7013 -0.1968 -0.4165
  865MOL0     H16728   2.835   2.793   7.822 -1.1015 -1.6684  3.5845
  865MOL0     H16729   3.067   2.962   7.921 -0.8632 -1.8766  1.6756
  865MOL0     H16730   3.061   2.908   7.750  0.2896 -2.6401 -1.1793
  865MOL0     H16731   3.112   2.675   7.813  1.9592  2.4280 -2.5734
  865MOL0     H16732   3.044   2.710   7.972 -0.5307 -2.1253 -0.4688
  865MOL0     H16733   3.299   2.680   7.955  0.3502  0.9479 -0.0233
  865MOL0     H16734   3.252   2.846   8.004 -1.8668  2.8826 -2.1189
  865MOL0     H16735   3.468   2.890   7.642  1.0905 -3.4392 -0.9701
  865MOL0     H16736   3.639   3.027   7.549 -3.9950 -0.1366  2.0715
  865MOL0     H16737   3.776   3.078   7.647 -1.5395  0.4437  1.1778
  865MOL0     H16738   3.764   2.911   7.584 -0.9147 -0.3023 -0.3473
  865MOL0     H16739   4.117   3.095   7.943 -1.1869 -1.2115  0.5362
  865MOL0     H16740   4.309   3.171   8.088 -1.6104  2.6514  3.5586
  865MOL0     H16741   4.512   3.086   8.216 -0.1580 -0.1944 -1.1822
  865MOL0     H16742   4.433   3.238   8.246  1.1241  0.7264 -0.1766
  865MOL0     H16743   4.523   3.247   8.475 -0.7430 -1.5500  1.8667
  865MOL0     H16744   4.575   3.079   8.471 -1.1138 -0.4488 -1.3461
  865MOL0     H16745   4.680   3.282   8.266 -4.0533  0.4466  1.1614
  865MOL0     H16746   4.743   3.125   8.279 -1.0106  0.7527 -2.0452
  865MOL0     H16747   4.749   3.299   8.512 -1.3956 -5.4062  3.2169
  865MOL0     H16748   4.824   3.147   8.506 -2.8637 -0.4250  0.0951
  865MOL0     H16749   4.904   3.364   8.315  1.1836 -0.5800  0.0142
  865MOL0     H16750   5.003   3.219   8.340  0.7717  0.9422 -0.1767
  865MOL0     H16751   4.945   3.437   8.553  0.5938 -0.0440 -0.2177
  865MOL0     H16752   5.025   3.291   8.583  1.8605 -1.8152 -1.1035
  865MOL0     H16753   5.093   3.525   8.392 -1.3303  1.7761  2.7042
  865MOL0     H16754   5.185   3.376   8.385 -1.6111  0.4941 -0.5427
  865MOL0     H16755   5.252   3.419   8.623 -0.2148 -1.2640 -1.9584
  865MOL0     H16756   5.167   3.568   8.630  1.7061 -2.4022  3.9348
  865MOL0     H16757   4.161   2.906   8.391 -3.2107 -0.0454 -0.0735
  865MOL0     H16758   3.971   2.860   8.261 -1.3099 -0.6803 -2.0560
  865MOL0     H16759   3.684   2.854   8.082 -0.8685  1.7770  0.7447
  865MOL0     H16760   3.451   2.836   8.068 -1.0849  0.9587 -0.6959
  865MOL0     H16761   2.072   2.627   6.908 -0.6093 -0.5761 -0.8852
  865MOL0     H16762   2.032   2.606   6.654  1.0829 -1.1768  0.0604
  865MOL0     H16763   1.770   2.846   6.260 -1.2877 -0.4245 -1.9755
  865MOL0     H16764   1.741   2.773   6.020  0.2611 -0.6654 -0.6387
  865MOL0     H16765   2.030   2.665   5.708 -1.2287  0.1067 -1.3782
  865MOL0     H16766   2.047   2.527   5.822  1.5531  0.8780 -0.6231
  865MOL0     H16767   1.794   2.551   5.674  0.6584  4.1152 -1.2103
  865MOL0     H16768   1.880   2.405   5.731 -3.8838  1.5963  1.6875
  865MOL0     H16769   1.955   2.596   5.497  1.6639 -0.3106  1.6581
  865MOL0     H16770   1.859   2.438   5.485  0.5174 -0.8936 -0.2045
  865MOL0     H16771   2.144   2.467   5.577 -0.1674 -1.2223  1.9510
  865MOL0     H16772   2.111   2.405   5.425 -0.9521 -1.8583  1.0979
  865MOL0     H16773   1.961   2.070   5.605 -1.1008  0.3468  1.3393
  865MOL0     H16774   2.141   2.641   6.005  0.5904 -0.6489  2.2507
  865MOL0     H16775   2.177   2.715   6.226  0.8566  0.5183 -2.1544
  866MOL0     O16776   5.177   1.522   0.465 -0.4007  0.7624 -0.6439
  866MOL0     C16777   5.207   1.545   0.353  0.2077  0.0007  1.2667
  866MOL0     O16778   5.286   1.468   0.277 -0.0016  0.1941 -0.4302
  866MOL0     C16779   5.300   1.338   0.306  0.5227  0.0360 -0.6474
  866MOL0     C16780   5.192   1.239   0.276 -0.6729 -0.1602  0.1069
  866MOL0     C16781   5.213   1.096   0.276 -0.2323 -0.5242 -0.8716
  866MOL0     C16782   5.334   1.056   0.340 -0.2995  0.0993  0.9677
  866MOL0     O16783   5.349   0.916   0.353 -0.3586 -0.2741  0.2373
  866MOL0     C16784   5.478   0.861   0.367  1.0605 -0.1069 -0.0187
  866MOL0     C16785   5.515   0.840   0.506 -1.4109  0.1575  0.0800
  866MOL0     C16786   5.663   0.811   0.535 -0.1292  1.1389 -0.0523
  866MOL0     C16787   5.701   0.810   0.680  0.1632 -0.5860  0.4857
  866MOL0     C16788   5.849   0.764   0.689 -0.3183  0.3331  0.7356
  866MOL0     C16789   5.887   0.741   0.830 -0.0034 -0.3620  0.5040
  866MOL0     C16790   6.020   0.669   0.848 -0.6910  0.2191 -0.2933
  866MOL0     C16791   6.087   0.719   0.984  0.3311 -0.2093  0.1728
  866MOL0     N16792   5.998   0.696   1.092  1.2245  0.7326  0.4728
  866MOL0     C16793   5.918   0.580   1.119  0.2905  0.0427  0.2928
  866MOL0     C16794   5.812   0.619   1.204  0.1857 -0.4423  0.1019
  866MOL0     C16795   5.700   0.533   1.260  0.2586  1.0765  0.1121
  866MOL0     C16796   5.588   0.624   1.317 -1.0643  0.2717 -0.3760
  866MOL0     C16797   5.463   0.540   1.358 -1.1147  0.4966  0.2690
  866MOL0     C16798   5.396   0.617   1.475 -0.0670 -0.2267 -0.2224
  866MOL0     O16799   5.295   0.523   1.531 -0.1799  1.0121 -0.4689
  866MOL0     C16800   5.217   0.560   1.639 -0.8960 -0.0652  0.1635
  866MOL0     C16801   5.165   0.459   1.716 -0.5592  0.1979 -0.0325
  866MOL0     C16802   5.091   0.475   1.829  0.2260 -1.0095  0.2713
  866MOL0     C16803   5.019   0.364   1.894  0.4603 -1.0512  0.6761
  866MOL0     C16804   5.069   0.613   1.873  0.0733  0.3861  0.4692
  866MOL0     C16805   4.994   0.655   1.996  0.4230  0.5255 -1.1905
  866MOL0     O16806   4.944   0.780   1.995 -0.2986  0.0599 -0.4411
  866MOL0     C16807   4.862   0.822   2.093  0.5491  0.4853 -0.3315
  866MOL0     C16808   4.906   0.889   2.208 -0.8170 -0.5302  0.3637
  866MOL0     C16809   4.822   0.922   2.311  0.4285  0.2478  0.4242
  866MOL0     C16810   4.689   0.884   2.301 -0.5325  0.1613 -0.2300
  866MOL0     O16811   4.599   0.909   2.403 -0.5039 -0.4263  0.1632
  866MOL0     C16812   4.574   1.052   2.425  0.1487 -1.2517  0.4065
  866MOL0     C16813   4.430   1.075   2.442 -0.2321 -0.1360 -0.4053
  866MOL0     C16814   4.336   1.022   2.330 -0.3423 -0.7526  0.0809
  866MOL0     C16815   4.203   1.102   2.317  0.2209  0.2305  0.0852
  866MOL0     C16816   4.125   1.033   2.205 -0.3164  0.0516  0.9195
  866MOL0     C16817   3.997   1.116   2.184  0.0041  0.0271  0.3800
  866MOL0     C16818   3.918   1.051   2.072  0.1133 -0.0379  0.8499
  866MOL0     C16819   3.959   1.105   1.934  0.0168  0.0192  0.3197
  866MOL0    Cl16820   3.898   1.002   1.805 -0.0461  0.3935  0.5851
  866MOL0     C16821   4.646   0.826   2.182  0.2274  0.0524  0.5314
  866MOL0     C16822   4.729   0.796   2.075  0.3211  0.1789 -0.0381
  866MOL0     O16823   4.971   0.569   2.085  0.8431 -0.2870 -0.8438
  866MOL0     C16824   5.119   0.719   1.793  0.9233 -0.6205 -0.9980
  866MOL0     C16825   5.187   0.694   1.671 -0.1855 -0.0339  0.7265
  866MOL0     N16826   5.824   0.757   1.226 -0.2299  0.2030 -0.7415
  866MOL0     N16827   5.931   0.799   1.167 -0.3765  0.2684 -0.0240
  866MOL0     C16828   5.429   1.148   0.387 -0.1195  0.7100  0.4926
  866MOL0     C16829   5.412   1.283   0.365 -0.7550 -0.8108  0.0727
  866MOL0     C16830   5.178   1.685   0.300  0.4538  0.3236 -0.4678
  866MOL0     C16831   5.234   1.734   0.181  0.2457  0.5658 -0.0846
  866MOL0     C16832   5.201   1.857   0.130 -0.2982 -0.2515 -0.1581
  866MOL0     C16833   5.108   1.937   0.196 -1.1440 -0.8330  0.2676
  866MOL0     O16834   5.080   2.066   0.140  0.2769 -0.8184 -0.7048
  866MOL0     C16835   5.005   2.159   0.224 -0.1979 -0.2945  0.0798
  866MOL0     C16836   5.006   2.304   0.166  0.2420 -0.6816  0.5427
  866MOL0     C16837   4.922   2.401   0.252  0.0758 -0.8169 -0.9113
  866MOL0     C16838   4.947   2.541   0.184  0.4869 -1.0645 -0.1694
  866MOL0     C16839   4.866   2.570   0.054 -0.2709 -1.2970 -0.2936
  866MOL0     C16840   4.800   2.605  -0.041  0.0160  0.7218  0.5963
  866MOL0     C16841   5.039   1.889   0.307 -0.8560 -0.1999 -1.0459
  866MOL0     C16842   5.072   1.758   0.350  0.0680  0.0046 -0.9911
  866MOL0     H16843   5.110   1.272   0.212  0.9994 -1.4738 -2.9505
  866MOL0     H16844   5.136   1.035   0.229 -1.7770  0.2063  0.6152
  866MOL0     H16845   5.477   0.765   0.314  1.2618 -0.6097  0.8558
  866MOL0     H16846   5.545   0.924   0.309 -0.7432 -1.1299 -3.4692
  866MOL0     H16847   5.477   0.929   0.558  0.7293 -0.5562  3.1769
  866MOL0     H16848   5.452   0.761   0.549 -1.3725 -0.6209 -1.2389
  866MOL0     H16849   5.698   0.730   0.470  0.4527  3.2171 -2.5224
  866MOL0     H16850   5.721   0.895   0.495  2.2050 -1.1603 -1.8945
  866MOL0     H16851   5.688   0.911   0.720 -0.2170 -0.4786  0.0920
  866MOL0     H16852   5.636   0.738   0.732 -1.6035  1.5292  1.3689
  866MOL0     H16853   5.857   0.664   0.645 -2.8650  1.1119 -1.7591
  866MOL0     H16854   5.923   0.812   0.625  0.2925  1.2560  2.0988
  866MOL0     H16855   5.898   0.842   0.869  1.5715 -0.7577  1.1380
  866MOL0     H16856   5.801   0.701   0.885 -0.9871 -0.8348 -1.3034
  866MOL0     H16857   5.994   0.563   0.850 -1.8083  0.4593 -1.2108
  866MOL0     H16858   6.096   0.681   0.770 -1.4986 -1.6057 -1.4255
  866MOL0     H16859   6.134   0.818   0.986 -0.6933  0.2814  1.6714
  866MOL0     H16860   6.169   0.647   0.994 -2.1853 -2.8993  3.7547
  866MOL0     H16861   5.944   0.479   1.088 -1.3142 -0.2814 -0.0763
  866MOL0     H16862   5.640   0.472   1.192 -4.2141  2.5738  2.2944
  866MOL0     H16863   5.736   0.457   1.330  0.2635  1.1462  0.1861
  866MOL0     H16864   5.556   0.677   1.227 -0.5410 -1.3962 -1.5905
  866MOL0     H16865   5.625   0.700   1.386 -1.4309  3.5614 -3.5238
  866MOL0     H16866   5.509   0.451   1.401 -0.2096  0.8277  0.0067
  866MOL0     H16867   5.386   0.510   1.286 -3.7064  4.4032  1.0717
  866MOL0     H16868   5.350   0.713   1.451  1.0126  0.1614 -0.8088
  866MOL0     H16869   5.461   0.642   1.559 -1.1112  4.4417 -0.5369
  866MOL0     H16870   5.183   0.359   1.677 -3.8001  0.0501 -1.5267
  866MOL0     H16871   4.914   0.394   1.901 -0.1377 -1.7427 -3.0341
  866MOL0     H16872   5.022   0.273   1.833 -2.5052  0.0252 -1.3243
  866MOL0     H16873   5.072   0.337   1.986 -0.7027  0.7240  1.9329
  866MOL0     H16874   5.012   0.907   2.220 -0.9647 -0.6708  2.1817
  866MOL0     H16875   4.849   0.974   2.402 -1.0317  2.2825 -0.2238
  866MOL0     H16876   4.636   1.101   2.501  0.4197  1.3867 -1.3867
  866MOL0     H16877   4.598   1.105   2.332  1.0913 -1.1361  0.7036
  866MOL0     H16878   4.401   1.014   2.528  0.4030 -0.3912 -0.3738
  866MOL0     H16879   4.405   1.179   2.467  1.7501  0.0856  0.8476
  866MOL0     H16880   4.321   0.917   2.356  0.5766 -0.5503  1.5961
  866MOL0     H16881   4.391   1.030   2.236 -0.6461  1.8981  0.0505
  866MOL0     H16882   4.144   1.100   2.409  0.4337  0.1466  0.2217
  866MOL0     H16883   4.219   1.204   2.282 -1.2437  0.4027 -0.1497
  866MOL0     H16884   4.090   0.933   2.235 -3.2284 -0.3438 -2.9680
  866MOL0     H16885   4.185   1.031   2.114 -0.2992  0.3757  0.9241
  866MOL0     H16886   3.935   1.111   2.275 -2.0700  2.1486 -0.7868
  866MOL0     H16887   4.017   1.223   2.172  0.3444 -0.1199 -0.3881
  866MOL0     H16888   3.810   1.064   2.067  0.1328 -0.4846 -1.8687
  866MOL0     H16889   3.938   0.944   2.085  4.1570  0.3979 -0.4560
  866MOL0     H16890   4.067   1.125   1.929 -0.0629  0.4247  0.2005
  866MOL0     H16891   3.904   1.197   1.913 -0.9743 -0.2870  1.5242
  866MOL0     H16892   4.543   0.793   2.171  0.3972 -2.3258  4.4800
  866MOL0     H16893   4.688   0.738   1.993 -0.1347 -2.1485  1.7246
  866MOL0     H16894   5.109   0.820   1.831  1.4322 -1.4439  1.4670
  866MOL0     H16895   5.215   0.765   1.594 -0.3625 -0.2280  0.4853
  866MOL0     H16896   5.518   1.111   0.437  1.3884  0.8553 -1.9424
  866MOL0     H16897   5.485   1.353   0.405 -1.3313  1.5539 -2.6600
  866MOL0     H16898   5.315   1.675   0.138 -0.0267 -1.3857  1.8990
  866MOL0     H16899   5.261   1.894   0.047  0.6806 -3.9125 -1.2940
  866MOL0     H16900   4.904   2.117   0.230 -1.2260  1.7882 -1.3154
  866MOL0     H16901   5.044   2.166   0.326  3.2821  1.6158 -1.2136
  866MOL0     H16902   4.979   2.311   0.061  2.8422 -1.5958 -0.2626
  866MOL0     H16903   5.112   2.328   0.180  0.3320 -1.3031  1.0110
  866MOL0     H16904   4.977   2.402   0.346 -0.9055  0.6500 -0.3040
  866MOL0     H16905   4.821   2.360   0.257 -0.2847 -0.6081 -4.0352
  866MOL0     H16906   5.051   2.555   0.152  0.7432  2.2071  1.6662
  866MOL0     H16907   4.920   2.612   0.264  1.9812 -3.2728  2.4833
  866MOL0     H16908   4.737   2.626  -0.126  1.4884 -2.0849 -1.3600
  866MOL0     H16909   4.957   1.948   0.347  1.1007  1.4596  0.8193
  866MOL0     H16910   5.018   1.728   0.440  3.4698  3.6044  2.6985
  867MOL0     O16911   9.316   6.907   9.730  0.3671 -0.1677  0.4148
  867MOL0     C16912   9.399   6.918   9.820 -0.8289  0.3061 -0.1902
  867MOL0     O16913   9.513   6.847   9.833 -0.2523 -0.1727 -0.5324
  867MOL0     C16914   9.570   6.782   9.725 -0.5370  0.6315  0.2841
  867MOL0     C16915   9.626   6.656   9.751 -0.0545  0.0295  0.2149
  867MOL0     C16916   9.654   6.575   9.641 -0.1979 -0.5948  0.1301
  867MOL0     C16917   9.650   6.632   9.508 -0.4826  1.1154 -0.9213
  867MOL0     O16918   9.678   6.549   9.399 -0.8237 -0.0863 -0.1102
  867MOL0     C16919   9.698   6.406   9.410  0.3630  0.2175 -0.4467
  867MOL0     C16920   9.762   6.358   9.282  0.2740  0.4218  0.9478
  867MOL0     C16921   9.676   6.397   9.152 -0.5480 -0.6871 -0.3727
  867MOL0     C16922   9.539   6.341   9.175 -0.0042  0.5263  0.1011
  867MOL0     C16923   9.449   6.321   9.051 -0.0352  0.1629  0.2783
  867MOL0     C16924   9.477   6.194   8.979  0.9435  0.0285 -0.0565
  867MOL0     C16925   9.368   6.188   8.858  0.1117 -0.6753 -0.2614
  867MOL0     C16926   9.360   6.045   8.799 -0.1036 -0.2699 -0.3440
  867MOL0     N16927   9.486   5.996   8.735 -0.9231 -0.6237 -0.0565
  867MOL0     C16928   9.564   6.080   8.655 -0.2342 -0.2187 -0.6476
  867MOL0     C16929   9.663   6.010   8.614 -0.5397  0.4873 -0.1969
  867MOL0     C16930   9.757   6.076   8.505  0.0015 -0.0063 -0.1819
  867MOL0     C16931   9.872   5.985   8.461  0.0836 -0.0026 -0.4977
  867MOL0     C16932   9.965   5.928   8.575 -0.2996  0.1499  0.6419
  867MOL0     C16933  10.077   6.022   8.615  0.7547  0.2920  0.3385
  867MOL0     O16934  10.175   6.016   8.516 -0.0623 -0.8940 -0.0827
  867MOL0     C16935  10.303   6.037   8.544 -0.1652 -0.1201 -0.8509
  867MOL0     C16936  10.334   6.149   8.630 -0.7774 -0.0885 -0.1007
  867MOL0     C16937  10.470   6.191   8.644  0.3143  0.7966 -0.5992
  867MOL0     C16938  10.511   6.317   8.720  0.3182 -0.2493  0.2656
  867MOL0     C16939  10.570   6.119   8.580 -0.4713  0.2982  0.6477
  867MOL0     C16940  10.719   6.138   8.591  0.5498 -0.1164  0.1455
  867MOL0     O16941  10.786   6.106   8.478 -0.4382  0.2133 -0.5495
  867MOL0     C16942  10.926   6.107   8.484 -0.5168 -0.4235 -0.4379
  867MOL0     C16943  10.997   6.035   8.582 -0.6208 -0.3330  0.3072
  867MOL0     C16944  11.135   6.061   8.602  0.4831  1.2782  0.3270
  867MOL0     C16945  11.205   6.142   8.505 -0.4786 -0.0382  0.4774
  867MOL0     O16946  11.338   6.165   8.508 -0.0261  0.0951 -0.5492
  867MOL0     C16947  11.406   6.110   8.623 -0.4749  0.5891 -0.2403
  867MOL0     C16948  11.556   6.151   8.605 -0.2726 -0.1006  0.6486
  867MOL0     C16949  11.630   6.147   8.733 -0.3077 -0.4502  0.7282
  867MOL0     C16950  11.785   6.151   8.710 -0.4946 -0.3045 -0.0025
  867MOL0     C16951  11.852   6.208   8.836 -0.4601 -0.1657 -0.2353
  867MOL0     C16952  12.001   6.234   8.804 -0.1223 -0.0815 -1.4906
  867MOL0     C16953  12.055   6.304   8.927  0.9460 -0.8587  1.0125
  867MOL0     C16954  12.187   6.370   8.899  0.0998  0.2340  0.2185
  867MOL0    Cl16955  12.314   6.244   8.869  0.1012 -0.1873 -0.3222
  867MOL0     C16956  11.141   6.202   8.404 -0.2242 -0.1372 -0.4187
  867MOL0     C16957  11.000   6.190   8.393  0.3132  0.2910  0.0280
  867MOL0     O16958  10.768   6.170   8.701 -0.0924  0.2563  0.6760
  867MOL0     C16959  10.530   6.011   8.499 -0.1544  0.8389 -0.2299
  867MOL0     C16960  10.399   5.969   8.478  0.9919  0.5528 -0.4796
  867MOL0     N16961   9.651   5.883   8.665  0.3203  0.1512  0.9411
  867MOL0     N16962   9.544   5.873   8.731  0.3379 -0.0416 -0.2565
  867MOL0     C16963   9.608   6.770   9.482  0.6029  0.1509 -1.2554
  867MOL0     C16964   9.565   6.839   9.594 -0.4831 -0.2681 -0.2307
  867MOL0     C16965   9.350   7.009   9.935  0.0542 -0.2444 -0.4115
  867MOL0     C16966   9.217   7.048   9.952  0.5504 -1.0092  0.0719
  867MOL0     C16967   9.185   7.139  10.049  0.1643  0.5256  0.2577
  867MOL0     C16968   9.277   7.176  10.142 -0.3634  0.1725 -0.4365
  867MOL0     O16969   9.230   7.266  10.237 -0.2829 -0.7359  0.4542
  867MOL0     C16970   9.304   7.280  10.360 -0.4793  0.1530  0.3357
  867MOL0     C16971   9.225   7.338  10.476 -0.2363 -0.7868  0.5985
  867MOL0     C16972   9.183   7.485  10.461 -0.3916  0.4187  0.1193
  867MOL0     C16973   9.182   7.559  10.594 -0.1310  0.2879  0.3107
  867MOL0     C16974   9.141   7.702  10.599 -0.3378  0.7409  0.1723
  867MOL0     C16975   9.086   7.811  10.578 -0.1098 -0.0710 -0.2160
  867MOL0     C16976   9.411   7.146  10.117 -0.7043  0.0230  0.2043
  867MOL0     C16977   9.451   7.058  10.014  0.3159 -0.6852 -0.6928
  867MOL0     H16978   9.650   6.617   9.849  0.6084 -1.4074 -0.4898
  867MOL0     H16979   9.672   6.470   9.661  0.0223 -0.4675  0.6310
  867MOL0     H16980   9.760   6.364   9.489  2.6532  1.7358 -1.3216
  867MOL0     H16981   9.600   6.363   9.433  0.3031  2.2339  4.0021
  867MOL0     H16982   9.861   6.404   9.274 -0.4284  1.7978 -0.3727
  867MOL0     H16983   9.772   6.250   9.289 -2.1719 -0.9943 -7.1156
  867MOL0     H16984   9.675   6.506   9.143  1.2102 -0.7984 -2.6625
  867MOL0     H16985   9.738   6.372   9.065 -0.1585  1.6671 -0.8274
  867MOL0     H16986   9.541   6.243   9.224 -0.8433  0.2794 -0.3360
  867MOL0     H16987   9.472   6.402   9.236 -0.9301  0.3396 -0.6921
  867MOL0     H16988   9.349   6.313   9.093  0.9164 -1.6345  2.4553
  867MOL0     H16989   9.459   6.406   8.983 -1.1872 -0.4946 -0.7372
  867MOL0     H16990   9.576   6.191   8.933  0.6955 -2.3282 -0.5819
  867MOL0     H16991   9.456   6.109   9.045  2.8371 -0.4092  0.0611
  867MOL0     H16992   9.264   6.213   8.884  0.1778  0.3122 -0.9048
  867MOL0     H16993   9.401   6.265   8.788  1.1865  1.1503  2.1010
  867MOL0     H16994   9.283   6.036   8.722 -0.1142  1.7697 -0.6294
  867MOL0     H16995   9.334   5.979   8.882 -0.5416  0.3447  0.0193
  867MOL0     H16996   9.550   6.186   8.632 -2.5439 -0.7902 -2.3104
  867MOL0     H16997   9.701   6.096   8.414  1.6166 -1.4409 -1.5763
  867MOL0     H16998   9.788   6.175   8.540  1.0604 -0.2368 -0.4217
  867MOL0     H16999   9.934   6.045   8.394 -0.6572 -0.9697 -2.1157
  867MOL0     H17000   9.848   5.904   8.391 -0.1141  1.0559 -1.6980
  867MOL0     H17001  10.007   5.832   8.545 -2.8653 -0.6580 -0.6909
  867MOL0     H17002   9.913   5.904   8.669 -0.6551 -1.9436 -0.0246
  867MOL0     H17003  10.126   5.981   8.703  0.8702 -2.2505 -0.8064
  867MOL0     H17004  10.060   6.129   8.625  5.0917  1.1436  0.3960
  867MOL0     H17005  10.258   6.218   8.667 -2.6640 -1.7288 -0.6987
  867MOL0     H17006  10.582   6.301   8.802 -0.1555  1.4317  1.0668
  867MOL0     H17007  10.546   6.390   8.647  0.9747 -1.4945 -0.6935
  867MOL0     H17008  10.421   6.363   8.760  0.7238  2.6555 -1.8155
  867MOL0     H17009  10.939   5.976   8.653 -2.1401  1.1430  0.3621
  867MOL0     H17010  11.182   6.003   8.681 -2.8106 -1.0518  0.7649
  867MOL0     H17011  11.378   6.171   8.710  1.3164 -0.5903  1.2336
  867MOL0     H17012  11.389   6.006   8.651  5.4860  0.0195  2.9872
  867MOL0     H17013  11.599   6.081   8.532 -0.5733 -0.0190  0.3898
  867MOL0     H17014  11.567   6.247   8.554 -2.3995 -0.6703 -1.0269
  867MOL0     H17015  11.617   6.065   8.805  4.8105 -0.7803  1.6824
  867MOL0     H17016  11.603   6.241   8.780 -1.0214  0.2982 -1.0723
  867MOL0     H17017  11.823   6.051   8.683 -0.8212  0.5545 -4.4536
  867MOL0     H17018  11.815   6.215   8.626  0.5932  3.5754  3.0499
  867MOL0     H17019  11.838   6.140   8.921  0.8797 -0.4644 -0.2254
  867MOL0     H17020  11.802   6.301   8.861  1.2697  0.2271  2.1370
  867MOL0     H17021  12.047   6.135   8.796  1.1829  0.3165  0.4452
  867MOL0     H17022  12.007   6.294   8.713 -0.2836  2.9336  0.3722
  867MOL0     H17023  12.069   6.243   9.017 -0.3087 -0.0248  1.7968
  867MOL0     H17024  11.995   6.391   8.953 -0.1619 -0.3841 -2.5920
  867MOL0     H17025  12.220   6.428   8.986  2.0118  1.6161 -1.3295
  867MOL0     H17026  12.195   6.438   8.815 -0.1138  0.4289  0.3556
  867MOL0     H17027  11.200   6.268   8.341  3.0588 -0.2195  2.3086
  867MOL0     H17028  10.950   6.240   8.311 -0.5482 -2.3270 -1.1416
  867MOL0     H17029  10.589   5.947   8.435 -2.4768 -3.1802  1.2853
  867MOL0     H17030  10.387   5.892   8.402 -2.6990  0.2699  0.1925
  867MOL0     H17031   9.615   6.818   9.385  1.2715  0.2795 -1.1504
  867MOL0     H17032   9.514   6.934   9.581 -0.2505  0.0227  0.8614
  867MOL0     H17033   9.139   6.995   9.897  2.6210 -3.8587 -0.3063
  867MOL0     H17034   9.087   7.176  10.077 -0.1862  0.4041 -0.7940
  867MOL0     H17035   9.336   7.178  10.386 -0.9356  0.1445  0.8889
  867MOL0     H17036   9.394   7.340  10.344 -1.4016  1.0499 -1.7355
  867MOL0     H17037   9.272   7.327  10.575 -1.4569 -1.6420  1.1098
  867MOL0     H17038   9.131   7.282  10.487  0.5885 -2.2460  0.4858
  867MOL0     H17039   9.089   7.490  10.407  0.3967  3.5810 -1.1832
  867MOL0     H17040   9.271   7.528  10.413  0.5645 -3.2776 -1.8771
  867MOL0     H17041   9.284   7.556  10.633 -0.3388  0.1316  0.8490
  867MOL0     H17042   9.128   7.494  10.664  1.8569 -1.4879  0.2772
  867MOL0     H17043   9.049   7.909  10.557  0.6771  0.1167 -0.7957
  867MOL0     H17044   9.494   7.183  10.175 -1.0311  2.7399 -0.8961
  867MOL0     H17045   9.556   7.031   9.999  0.8168 -0.5381  2.0325
  868MOL0     O17046  10.810   4.791   7.329 -0.2375  0.4952 -0.1474
  868MOL0     C17047  10.691   4.825   7.303 -0.8593  0.0041  0.5227
  868MOL0     O17048  10.612   4.921   7.363  0.1343 -0.3055 -0.5848
  868MOL0     C17049  10.647   5.010   7.462  0.8853  0.4216  0.4930
  868MOL0     C17050  10.777   5.028   7.502  0.3723  0.3864 -0.2351
  868MOL0     C17051  10.811   5.127   7.595  0.4682  0.2295  0.4632
  868MOL0     C17052  10.713   5.207   7.651  0.9098 -0.4052  0.4152
  868MOL0     O17053  10.723   5.316   7.740  0.0572 -0.2600 -0.4684
  868MOL0     C17054  10.767   5.436   7.674  0.4715 -0.1644  0.7908
  868MOL0     C17055  10.657   5.517   7.609 -0.1724  1.2084  0.1077
  868MOL0     C17056  10.537   5.549   7.698 -0.1527  0.3546 -0.2511
  868MOL0     C17057  10.570   5.618   7.825 -0.2940  0.4733  0.6190
  868MOL0     C17058  10.453   5.634   7.921 -0.1989 -0.8575 -0.2146
  868MOL0     C17059  10.488   5.737   8.023  0.3630 -0.4448 -0.3215
  868MOL0     C17060  10.400   5.739   8.142  1.0264  0.3211 -0.3545
  868MOL0     C17061  10.260   5.779   8.104  0.4264  0.3873 -0.2957
  868MOL0     N17062  10.253   5.920   8.082 -0.3715  0.3673  0.6204
  868MOL0     C17063  10.253   6.024   8.174  0.2153 -0.4186  0.1246
  868MOL0     C17064  10.199   6.122   8.104  0.6791  0.7165  0.5298
  868MOL0     C17065  10.153   6.260   8.151  0.6263 -0.4068  0.8684
  868MOL0     C17066  10.048   6.244   8.269  0.2573  0.3529  0.8480
  868MOL0     C17067   9.986   6.376   8.322 -0.0298  1.9838  0.5288
  868MOL0     C17068  10.089   6.454   8.393 -0.0585 -0.0233 -0.6862
  868MOL0     O17069  10.072   6.596   8.399 -0.7846 -0.8876 -0.0760
  868MOL0     C17070  10.188   6.672   8.418  0.6337 -1.1895 -0.2724
  868MOL0     C17071  10.268   6.653   8.530 -0.2375  0.4463 -0.4016
  868MOL0     C17072  10.379   6.734   8.569 -0.0383 -0.2406 -0.7759
  868MOL0     C17073  10.435   6.722   8.703  0.2006 -0.3369 -0.0118
  868MOL0     C17074  10.422   6.823   8.475 -0.7505 -0.3333 -0.0426
  868MOL0     C17075  10.555   6.885   8.476  0.0929  0.3213 -0.7655
  868MOL0     O17076  10.630   6.889   8.589 -0.5706  0.4687 -0.0755
  868MOL0     C17077  10.758   6.938   8.573  0.8602  0.4188 -0.0298
  868MOL0     C17078  10.788   7.076   8.580 -0.2797 -0.2456  0.5229
  868MOL0     C17079  10.926   7.122   8.568  0.3933 -0.1728  0.1709
  868MOL0     C17080  11.023   7.025   8.552 -0.0345  1.1674 -1.4369
  868MOL0     O17081  11.145   7.078   8.568 -0.3733  0.4168 -0.2082
  868MOL0     C17082  11.257   6.991   8.568  0.0097  0.4136  0.4869
  868MOL0     C17083  11.377   7.067   8.627 -0.6609 -0.1786  0.0021
  868MOL0     C17084  11.498   6.972   8.628 -0.3100  0.4767 -0.3476
  868MOL0     C17085  11.635   7.022   8.673  0.1586  0.0039  0.1348
  868MOL0     C17086  11.717   6.910   8.735  0.3126  0.2885 -0.2949
  868MOL0     C17087  11.850   6.962   8.808  0.2700  0.2968 -0.1932
  868MOL0     C17088  11.933   6.842   8.856  0.1848 -0.4853 -0.5532
  868MOL0     C17089  12.074   6.898   8.901  0.2088  0.4552 -0.8263
  868MOL0    Cl17090  12.164   6.780   9.004  0.1513 -0.3097  0.4785
  868MOL0     C17091  10.996   6.886   8.534 -0.2843  0.2472 -0.8405
  868MOL0     C17092  10.859   6.844   8.553 -0.5499  0.9455 -0.6431
  868MOL0     O17093  10.580   6.939   8.375 -0.2423 -0.3601  0.4427
  868MOL0     C17094  10.343   6.840   8.354 -0.1512 -0.7204 -0.7285
  868MOL0     C17095  10.224   6.767   8.329  0.4475 -0.0423  0.1140
  868MOL0     N17096  10.190   6.092   7.968 -0.0093  0.6194 -0.7643
  868MOL0     N17097  10.227   5.965   7.961  0.0322 -0.3543 -0.6308
  868MOL0     C17098  10.578   5.186   7.608 -0.3907 -0.5594 -0.6699
  868MOL0     C17099  10.544   5.089   7.516 -0.7966  0.8508  0.6259
  868MOL0     C17100  10.631   4.752   7.185 -0.3040 -0.3077 -0.4093
  868MOL0     C17101  10.722   4.673   7.107 -0.2248 -0.5750  0.1732
  868MOL0     C17102  10.677   4.622   6.983  0.1081  0.1542  0.9560
  868MOL0     C17103  10.550   4.650   6.937 -0.6603  0.2903 -1.3675
  868MOL0     O17104  10.514   4.586   6.817  0.5182  0.0572  0.6767
  868MOL0     C17105  10.374   4.565   6.765 -0.4001  0.8260 -0.9626
  868MOL0     C17106  10.341   4.665   6.656  0.0092  0.0445 -0.4841
  868MOL0     C17107  10.197   4.645   6.608 -0.1028 -0.0711 -0.4721
  868MOL0     C17108  10.158   4.746   6.494  0.2192 -0.3133  0.2080
  868MOL0     C17109  10.230   4.736   6.367 -0.3987 -0.5677  1.4528
  868MOL0     C17110  10.294   4.715   6.271  0.5810  0.6211  1.0583
  868MOL0     C17111  10.459   4.722   7.027  0.1201  0.0436 -0.1584
  868MOL0     C17112  10.505   4.782   7.142  0.1742 -0.1421  0.2676
  868MOL0     H17113  10.860   4.967   7.468  0.3779  0.0321  0.4155
  868MOL0     H17114  10.916   5.136   7.620  0.4809  0.3905  0.3506
  868MOL0     H17115  10.826   5.494   7.745 -1.0995  0.2425  1.8170
  868MOL0     H17116  10.839   5.412   7.595  0.9201  0.9842  0.8409
  868MOL0     H17117  10.690   5.610   7.562 -1.6792  0.2624 -3.1157
  868MOL0     H17118  10.613   5.461   7.526 -3.3941 -0.5486  2.7936
  868MOL0     H17119  10.454   5.605   7.653 -0.9509  0.1516  0.9104
  868MOL0     H17120  10.497   5.453   7.731  4.1655 -1.5931 -0.0111
  868MOL0     H17121  10.650   5.563   7.876 -0.6797  1.1199  1.9764
  868MOL0     H17122  10.603   5.718   7.794 -1.8558  0.4757 -1.2253
  868MOL0     H17123  10.368   5.667   7.861 -1.8574 -1.0104  1.8987
  868MOL0     H17124  10.443   5.538   7.973  2.3089 -0.1594  1.8052
  868MOL0     H17125  10.584   5.706   8.065  0.4432 -0.3459 -0.4318
  868MOL0     H17126  10.497   5.840   7.988 -0.2984 -0.4912 -0.6524
  868MOL0     H17127  10.405   5.638   8.184 -2.2206  0.3544  0.3736
  868MOL0     H17128  10.441   5.804   8.220 -0.4114  0.0217  0.6914
  868MOL0     H17129  10.191   5.767   8.188  1.2128 -1.3215  0.1540
  868MOL0     H17130  10.216   5.727   8.018  0.3315  1.7321 -1.0896
  868MOL0     H17131  10.275   6.023   8.281 -0.3369 -1.1268  0.2374
  868MOL0     H17132  10.244   6.314   8.175  0.8627 -0.4044  0.0111
  868MOL0     H17133  10.091   6.309   8.075  0.1822  1.2764  2.2538
  868MOL0     H17134  10.082   6.197   8.362 -0.9956  0.8405  1.5758
  868MOL0     H17135   9.963   6.189   8.227  2.2856 -0.4495 -2.6223
  868MOL0     H17136   9.901   6.352   8.386 -0.8146  1.4391 -0.6756
  868MOL0     H17137   9.957   6.435   8.235  1.3260 -1.0389 -2.2068
  868MOL0     H17138  10.192   6.443   8.359  0.1208  2.3347 -1.1225
  868MOL0     H17139  10.089   6.417   8.496 -1.6856 -2.9127 -1.6194
  868MOL0     H17140  10.237   6.565   8.586 -0.2059 -0.0911 -1.2085
  868MOL0     H17141  10.541   6.692   8.701 -0.2074 -2.2077  1.9232
  868MOL0     H17142  10.423   6.815   8.760 -1.2977 -0.1544 -0.5920
  868MOL0     H17143  10.386   6.636   8.750  0.5391 -1.2015 -1.1994
  868MOL0     H17144  10.715   7.155   8.593  1.2986  1.4110 -0.2217
  868MOL0     H17145  10.957   7.226   8.565 -1.7995  0.5372 -2.7697
  868MOL0     H17146  11.234   6.900   8.625  1.8581  0.8696  2.1033
  868MOL0     H17147  11.286   6.944   8.474  1.6304 -0.3736  1.3370
  868MOL0     H17148  11.393   7.148   8.556 -1.5350 -0.2690 -0.3041
  868MOL0     H17149  11.340   7.106   8.722  0.2310  0.9462 -0.0930
  868MOL0     H17150  11.508   6.931   8.527  0.8808 -0.5280  0.1546
  868MOL0     H17151  11.481   6.886   8.694  1.7617 -0.0773 -0.4663
  868MOL0     H17152  11.691   7.068   8.591  0.7862  0.4207  0.7873
  868MOL0     H17153  11.629   7.101   8.749  1.1344  0.6940 -0.4876
  868MOL0     H17154  11.745   6.832   8.663  1.4978 -2.0514  2.5141
  868MOL0     H17155  11.658   6.859   8.811 -2.9137  0.8027 -2.2735
  868MOL0     H17156  11.908   7.010   8.729 -0.9449  2.1484 -0.0230
  868MOL0     H17157  11.827   7.033   8.888 -0.3872  0.4777 -0.5348
  868MOL0     H17158  11.945   6.758   8.787 -1.1096 -4.0152  3.1682
  868MOL0     H17159  11.899   6.812   8.955  2.7021 -3.3594 -0.4184
  868MOL0     H17160  12.054   6.985   8.964  2.9108  1.5585 -1.3574
  868MOL0     H17161  12.139   6.942   8.825 -0.9643  4.3601  0.2090
  868MOL0     H17162  11.078   6.819   8.512 -0.1403  0.5818 -1.3317
  868MOL0     H17163  10.839   6.738   8.545  2.9832  0.0894  0.0196
  868MOL0     H17164  10.376   6.904   8.272  3.4910 -1.6712 -0.1813
  868MOL0     H17165  10.170   6.780   8.236 -1.6780  0.1729  1.3267
  868MOL0     H17166  10.516   5.258   7.659 -0.3377  2.1396 -4.0181
  868MOL0     H17167  10.443   5.061   7.488 -0.1647 -1.1520  0.2351
  868MOL0     H17168  10.824   4.654   7.138 -0.2241 -0.0404  0.5232
  868MOL0     H17169  10.729   4.553   6.917 -1.9667  1.1413 -1.9034
  868MOL0     H17170  10.374   4.463   6.726 -0.7623  1.4017 -2.5454
  868MOL0     H17171  10.308   4.578   6.851 -2.8646 -4.0134 -1.7579
  868MOL0     H17172  10.407   4.644   6.571  0.5444 -0.1839 -0.0208
  868MOL0     H17173  10.354   4.761   6.705  1.4468 -2.0147  3.6563
  868MOL0     H17174  10.136   4.674   6.694 -0.8044 -0.4715 -0.8358
  868MOL0     H17175  10.180   4.542   6.575  0.1524  0.5598 -2.7674
  868MOL0     H17176  10.172   4.849   6.529  0.6354  1.1173 -3.6961
  868MOL0     H17177  10.053   4.742   6.465  1.0535  1.4582 -3.5788
  868MOL0     H17178  10.356   4.695   6.186  0.4184  0.7293  0.9136
  868MOL0     H17179  10.353   4.731   7.008  0.3111  0.5833 -0.9848
  868MOL0     H17180  10.429   4.835   7.199 -0.8479 -0.4772 -0.7341
  869MOL0     O17181   6.280   5.825   8.153  0.8953  0.3981 -0.5017
  869MOL0     C17182   6.251   5.925   8.220 -0.0422  0.3051 -0.0090
  869MOL0     O17183   6.319   6.044   8.224 -0.0835  0.4971  0.4323
  869MOL0     C17184   6.420   6.065   8.133  1.0349 -0.5380 -0.5409
  869MOL0     C17185   6.474   6.191   8.146  0.1481 -0.4136  0.1634
  869MOL0     C17186   6.578   6.241   8.068 -0.2066 -0.1674 -0.3010
  869MOL0     C17187   6.631   6.175   7.954 -0.3947 -0.0406 -0.8754
  869MOL0     O17188   6.741   6.228   7.898  0.5625 -0.3852  0.8089
  869MOL0     C17189   6.784   6.156   7.786 -0.6261  0.4705  0.4662
  869MOL0     C17190   6.904   6.226   7.717  0.6702 -0.0714 -0.0818
  869MOL0     C17191   6.839   6.342   7.642 -0.2425  0.6927 -0.3275
  869MOL0     C17192   6.960   6.422   7.590 -0.2453 -1.4092  0.7881
  869MOL0     C17193   6.916   6.526   7.482  0.1492  0.3805 -0.6720
  869MOL0     C17194   7.037   6.565   7.386 -0.0021 -0.6529  0.1778
  869MOL0     C17195   6.973   6.644   7.280  0.0026 -0.3337 -0.1548
  869MOL0     C17196   6.924   6.565   7.154 -0.5587 -1.0325  0.8419
  869MOL0     N17197   6.804   6.621   7.092  0.5675 -0.6460 -0.8454
  869MOL0     C17198   6.795   6.752   7.035  0.0034  0.2482  0.5779
  869MOL0     C17199   6.664   6.780   7.045  1.3769 -0.2659 -0.7105
  869MOL0     C17200   6.595   6.913   7.007  0.3774 -0.0262 -0.0584
  869MOL0     C17201   6.585   6.955   6.855  0.5177  0.2652 -0.5193
  869MOL0     C17202   6.718   6.999   6.792 -0.1209 -0.3951  0.3824
  869MOL0     C17203   6.719   7.007   6.638 -0.1253  0.0508 -0.5525
  869MOL0     O17204   6.847   7.068   6.605 -0.2483 -0.5892  0.2174
  869MOL0     C17205   6.896   7.063   6.473  0.0246  0.1778  0.4702
  869MOL0     C17206   7.035   7.093   6.466 -0.3106 -0.0833  0.4154
  869MOL0     C17207   7.103   7.089   6.336  0.2757 -0.0142  0.1943
  869MOL0     C17208   7.252   7.121   6.321 -0.3361  0.1045  0.4580
  869MOL0     C17209   7.017   7.044   6.229 -0.1246 -0.0345 -0.4959
  869MOL0     C17210   7.079   7.032   6.093 -0.0522  0.1367 -0.9749
  869MOL0     O17211   7.148   7.136   6.043 -0.6462 -0.0436  0.3930
  869MOL0     C17212   7.211   7.124   5.920  0.7209  0.5192  0.2223
  869MOL0     C17213   7.292   7.012   5.874 -0.6982 -0.3739  0.4084
  869MOL0     C17214   7.373   7.027   5.756  0.3247 -0.9286 -0.2678
  869MOL0     C17215   7.373   7.150   5.687 -0.2933  0.1912 -1.6276
  869MOL0     O17216   7.460   7.169   5.580  0.1339  0.3849 -0.1245
  869MOL0     C17217   7.514   7.057   5.506 -0.0944 -0.5290  0.5778
  869MOL0     C17218   7.577   7.114   5.378 -0.1222  0.0553  0.4812
  869MOL0     C17219   7.473   7.178   5.284 -0.0467  0.0245  0.3593
  869MOL0     C17220   7.534   7.278   5.185 -0.7259  0.5212 -0.6160
  869MOL0     C17221   7.439   7.387   5.158  0.8873  0.0889 -0.4329
  869MOL0     C17222   7.494   7.517   5.099  0.1703  1.0167 -0.6645
  869MOL0     C17223   7.380   7.618   5.066  0.2397 -0.2600  0.5331
  869MOL0     C17224   7.310   7.684   5.181  0.6251 -0.2195 -0.9451
  869MOL0    Cl17225   7.175   7.798   5.119  0.3171  0.3386 -0.5604
  869MOL0     C17226   7.284   7.245   5.724 -0.4844 -0.3360  0.2597
  869MOL0     C17227   7.205   7.239   5.838 -0.7835  0.0091 -0.1274
  869MOL0     O17228   7.064   6.918   6.039  1.2654 -1.2326  0.1290
  869MOL0     C17229   6.888   6.994   6.243 -0.5022 -0.9059 -0.6115
  869MOL0     C17230   6.828   7.004   6.361  0.2237 -0.3675  0.5604
  869MOL0     N17231   6.602   6.668   7.097  0.1290  0.1701  0.6335
  869MOL0     N17232   6.684   6.579   7.137 -0.1019 -0.1127  0.2649
  869MOL0     C17233   6.560   6.054   7.928 -0.0214 -0.6877  0.1401
  869MOL0     C17234   6.466   6.004   8.011  0.0178  0.1725  0.0252
  869MOL0     C17235   6.139   5.899   8.314  0.7146 -1.2096  0.0093
  869MOL0     C17236   6.079   5.770   8.305 -0.4478  0.6695 -0.7446
  869MOL0     C17237   5.966   5.748   8.389 -0.6018 -0.3033 -0.4820
  869MOL0     C17238   5.893   5.856   8.456  0.9184 -0.1628  0.0966
  869MOL0     O17239   5.767   5.826   8.513  0.2362 -0.1071  0.1463
  869MOL0     C17240   5.700   5.938   8.566 -0.2398  0.7906 -0.3262
  869MOL0     C17241   5.554   5.890   8.611  0.0162  0.2093 -1.4827
  869MOL0     C17242   5.453   6.004   8.627 -0.8030  0.3610 -0.3372
  869MOL0     C17243   5.494   6.116   8.718  0.2200 -0.4180 -0.6914
  869MOL0     C17244   5.466   6.085   8.864 -0.4683  0.7957 -0.4068
  869MOL0     C17245   5.477   6.053   8.982 -0.8151 -0.4816 -0.5801
  869MOL0     C17246   5.957   5.983   8.457  0.0635 -0.8213 -0.3649
  869MOL0     C17247   6.076   6.007   8.392 -0.8856  0.7635  0.3710
  869MOL0     H17248   6.452   6.245   8.237  0.7156 -3.5833  2.3287
  869MOL0     H17249   6.620   6.335   8.103 -2.7921  0.0927  2.5196
  869MOL0     H17250   6.818   6.059   7.822  1.0477  0.6518 -0.5142
  869MOL0     H17251   6.706   6.143   7.710  0.4190 -1.1841 -0.3832
  869MOL0     H17252   6.974   6.263   7.793  0.5815  2.3428 -1.0804
  869MOL0     H17253   6.965   6.165   7.648  1.5367  0.9283 -0.2215
  869MOL0     H17254   6.770   6.301   7.567 -2.0494 -1.1261  2.1332
  869MOL0     H17255   6.778   6.398   7.713 -1.1357  0.8027 -1.1571
  869MOL0     H17256   7.018   6.466   7.673 -1.8491 -1.1121  1.7846
  869MOL0     H17257   7.015   6.343   7.539 -0.3039 -1.5040  0.8718
  869MOL0     H17258   6.828   6.490   7.427  0.3824  1.3303 -1.6945
  869MOL0     H17259   6.871   6.614   7.528 -1.2156 -0.4035 -0.4536
  869MOL0     H17260   7.100   6.627   7.451  1.4327  0.5962 -2.2711
  869MOL0     H17261   7.095   6.477   7.356  4.2991  2.3626 -1.2219
  869MOL0     H17262   6.885   6.696   7.320  0.3399 -1.1299  1.7583
  869MOL0     H17263   7.051   6.716   7.254  2.0026 -2.3274  0.0173
  869MOL0     H17264   6.922   6.457   7.172 -1.7872 -0.9550  1.2394
  869MOL0     H17265   7.006   6.591   7.086 -1.1263  0.2222  0.6156
  869MOL0     H17266   6.877   6.813   7.000  0.1241  1.1287  2.2815
  869MOL0     H17267   6.502   6.933   7.061  0.1165  2.6873 -1.3362
  869MOL0     H17268   6.656   6.991   7.052  0.0959 -1.2760  2.6909
  869MOL0     H17269   6.511   7.035   6.849  0.3382  0.5615  3.4531
  869MOL0     H17270   6.542   6.867   6.806 -1.3162  0.8673 -0.0698
  869MOL0     H17271   6.802   6.949   6.840  0.3602  1.3758  1.5028
  869MOL0     H17272   6.726   7.106   6.816  3.3273 -0.5410  0.3835
  869MOL0     H17273   6.638   7.069   6.599 -0.0966  0.8657  0.6188
  869MOL0     H17274   6.714   6.912   6.584  0.1246  0.4880 -1.3670
  869MOL0     H17275   7.093   7.123   6.553  1.8443  0.3963 -1.0914
  869MOL0     H17276   7.296   7.100   6.418  0.4765 -0.6655 -0.0607
  869MOL0     H17277   7.301   7.050   6.253  2.8795  2.3649  0.2174
  869MOL0     H17278   7.264   7.220   6.277 -2.2040 -0.2306 -0.9468
  869MOL0     H17279   7.312   6.936   5.949 -0.2087  0.0245  0.6859
  869MOL0     H17280   7.436   6.944   5.725 -0.1890 -1.0302 -1.0831
  869MOL0     H17281   7.594   7.009   5.564  0.5428  1.0223  1.0415
  869MOL0     H17282   7.444   6.975   5.487  0.5082 -0.6056 -1.6115
  869MOL0     H17283   7.648   7.195   5.397 -1.0841  1.0046  0.1198
  869MOL0     H17284   7.629   7.032   5.328  0.4283  0.5920  0.1597
  869MOL0     H17285   7.392   7.218   5.346  0.9555 -0.6361  2.1694
  869MOL0     H17286   7.412   7.098   5.241 -2.0082  1.5326  0.1771
  869MOL0     H17287   7.631   7.316   5.221 -0.4479 -0.5468 -0.2119
  869MOL0     H17288   7.548   7.221   5.092 -2.2683 -0.7704 -0.1019
  869MOL0     H17289   7.382   7.408   5.249  0.1488 -0.8858 -0.6503
  869MOL0     H17290   7.378   7.335   5.083 -4.4855  0.6339  3.0756
  869MOL0     H17291   7.572   7.558   5.165 -0.5155  0.1840  0.6981
  869MOL0     H17292   7.543   7.497   5.003 -0.3521 -0.6200 -0.6080
  869MOL0     H17293   7.311   7.560   5.005 -1.0154  1.0274  0.6868
  869MOL0     H17294   7.440   7.693   5.014  3.7140 -3.8777 -1.1510
  869MOL0     H17295   7.389   7.736   5.236  2.8821 -2.8279 -1.5112
  869MOL0     H17296   7.261   7.610   5.246  0.6531  0.1228 -0.5265
  869MOL0     H17297   7.292   7.335   5.664  1.8472 -0.9635 -0.4882
  869MOL0     H17298   7.143   7.324   5.865  2.6159  4.0550 -3.6352
  869MOL0     H17299   6.837   6.954   6.156 -0.9790  1.1147 -1.3244
  869MOL0     H17300   6.728   6.964   6.379 -1.1821  2.7077  0.2456
  869MOL0     H17301   6.597   5.995   7.845  4.2813  1.5942  0.1355
  869MOL0     H17302   6.429   5.904   7.987 -1.0934  0.4123  0.6826
  869MOL0     H17303   6.118   5.688   8.247  0.8435  0.8583 -0.1841
  869MOL0     H17304   5.917   5.651   8.393 -0.5015 -0.4097 -1.4451
  869MOL0     H17305   5.748   5.981   8.654 -2.1632  1.8852  0.2651
  869MOL0     H17306   5.680   6.014   8.490 -0.4094  0.7983 -0.2750
  869MOL0     H17307   5.589   5.822   8.689 -1.6679 -0.0024 -0.8630
  869MOL0     H17308   5.500   5.817   8.550 -2.2903  0.9810 -0.4795
  869MOL0     H17309   5.356   5.969   8.661 -0.5521 -0.2911 -0.2726
  869MOL0     H17310   5.420   6.048   8.532 -3.7114 -0.3209  0.2821
  869MOL0     H17311   5.429   6.202   8.702 -0.4467 -0.7412  0.1969
  869MOL0     H17312   5.599   6.132   8.693  1.0270 -4.0297 -0.2220
  869MOL0     H17313   5.499   6.031   9.085  0.2807  0.3596 -0.6174
  869MOL0     H17314   5.903   6.069   8.496  1.8779 -0.3350  1.2272
  869MOL0     H17315   6.127   6.103   8.392  0.3290  0.1526 -0.8825
  870MOL0     O17316   2.640   1.138   9.001  0.0929  0.1058  0.4214
  870MOL0     C17317   2.689   1.195   9.103  0.3392 -0.3448  0.0396
  870MOL0     O17318   2.652   1.317   9.152  0.1756 -0.1159  0.0669
  870MOL0     C17319   2.555   1.395   9.092  0.5670 -0.4930 -0.0860
  870MOL0     C17320   2.416   1.356   9.110 -0.4017 -0.2883 -0.4432
  870MOL0     C17321   2.322   1.436   9.056 -0.5701  0.9831 -0.2328
  870MOL0     C17322   2.362   1.555   8.997  0.0008  0.0615 -0.9080
  870MOL0     O17323   2.267   1.635   8.927 -0.4420  0.8213 -0.3976
  870MOL0     C17324   2.285   1.673   8.789  0.5131  0.0482  0.0219
  870MOL0     C17325   2.184   1.590   8.711  0.5866 -0.5677 -0.1717
  870MOL0     C17326   2.182   1.596   8.563  0.1611 -0.7094  0.8365
  870MOL0     C17327   2.089   1.494   8.491 -0.7307 -0.8658 -0.5570
  870MOL0     C17328   1.943   1.523   8.525  0.5857 -1.1971 -0.3202
  870MOL0     C17329   1.895   1.659   8.463 -0.5439  0.1891 -0.3506
  870MOL0     C17330   1.744   1.687   8.463  0.6917  0.1004 -0.3397
  870MOL0     C17331   1.705   1.809   8.387  0.6474 -0.4957 -0.1362
  870MOL0     N17332   1.712   1.797   8.244  0.2257  0.4558 -0.1328
  870MOL0     C17333   1.610   1.753   8.168 -0.9737  0.3988  0.7802
  870MOL0     C17334   1.660   1.763   8.040  0.8073 -0.0293  0.4208
  870MOL0     C17335   1.595   1.695   7.925  1.8036 -0.8643  0.0636
  870MOL0     C17336   1.463   1.758   7.870 -0.2673 -0.2646 -0.2830
  870MOL0     C17337   1.466   1.885   7.783 -0.2919  0.3276 -0.2602
  870MOL0     C17338   1.546   1.868   7.661  0.5293  0.2482  0.1290
  870MOL0     O17339   1.587   2.000   7.616  0.0872 -0.2174 -0.1376
  870MOL0     C17340   1.690   2.062   7.682 -0.3321 -0.4144  0.0576
  870MOL0     C17341   1.710   2.199   7.671 -0.8477  0.3123  0.2681
  870MOL0     C17342   1.798   2.266   7.756 -1.0358 -0.6356  0.1825
  870MOL0     C17343   1.787   2.417   7.768  0.3354 -0.9319 -0.3925
  870MOL0     C17344   1.898   2.199   7.826 -0.9156  0.2224 -0.7513
  870MOL0     C17345   2.020   2.254   7.889  0.0816  0.0001  0.1086
  870MOL0     O17346   2.086   2.178   7.981  0.1685 -0.0750  0.4668
  870MOL0     C17347   2.195   2.228   8.052 -0.7263  0.2927 -1.0708
  870MOL0     C17348   2.197   2.336   8.143  0.6764  1.0407 -0.1009
  870MOL0     C17349   2.313   2.377   8.208  0.1558  0.1147  0.6893
  870MOL0     C17350   2.435   2.328   8.153  0.5293 -0.4516  0.6238
  870MOL0     O17351   2.540   2.403   8.210  0.0656  0.4359 -0.3676
  870MOL0     C17352   2.655   2.323   8.237 -0.3588  1.0029 -0.2304
  870MOL0     C17353   2.753   2.385   8.340  0.3639 -0.2201 -0.0959
  870MOL0     C17354   2.766   2.535   8.314 -0.2373  0.0552  0.4407
  870MOL0     C17355   2.846   2.608   8.428  0.3156 -0.0347  1.0433
  870MOL0     C17356   3.001   2.567   8.452  0.6189  0.1226 -0.8329
  870MOL0     C17357   3.061   2.673   8.545 -0.0701 -0.7232 -0.3471
  870MOL0     C17358   3.216   2.647   8.573 -0.6064  0.6035  0.0957
  870MOL0     C17359   3.294   2.752   8.668 -0.0588  0.6745  0.3093
  870MOL0    Cl17360   3.324   2.901   8.562  0.4512  0.1669 -0.4164
  870MOL0     C17361   2.435   2.215   8.068  0.0276  0.1828 -0.1615
  870MOL0     C17362   2.319   2.163   8.024  0.6557  0.5583  0.0719
  870MOL0     O17363   2.055   2.375   7.865  0.6995 -0.3219  0.2630
  870MOL0     C17364   1.881   2.063   7.834  0.4821 -0.6386  0.1788
  870MOL0     C17365   1.779   2.003   7.764  0.2986  0.5803 -0.2982
  870MOL0     N17366   1.783   1.818   8.044  0.1295  0.5942  0.4179
  870MOL0     N17367   1.814   1.834   8.166 -0.0682  0.4887  0.5357
  870MOL0     C17368   2.497   1.599   8.997 -0.8082 -0.4585  0.8160
  870MOL0     C17369   2.597   1.515   9.032  0.1150 -0.8059 -1.1460
  870MOL0     C17370   2.792   1.124   9.179  0.0799 -0.1782  0.2631
  870MOL0     C17371   2.832   1.154   9.311  0.6625  0.0469  0.4703
  870MOL0     C17372   2.929   1.079   9.375 -0.2732 -0.5711 -0.2413
  870MOL0     C17373   2.992   0.966   9.317 -0.6584 -0.7070  0.4134
  870MOL0     O17374   3.104   0.911   9.380  0.6039  0.4422 -0.2770
  870MOL0     C17375   3.168   0.822   9.292 -1.3184 -0.1132  0.7685
  870MOL0     C17376   3.299   0.760   9.342  0.2603 -0.8613 -0.3060
  870MOL0     C17377   3.388   0.721   9.214 -0.8099  0.1405 -0.2839
  870MOL0     C17378   3.517   0.642   9.249 -0.0741 -0.1954 -0.0564
  870MOL0     C17379   3.586   0.703   9.365  0.5192 -0.6806  0.1378
  870MOL0     C17380   3.649   0.760   9.452  0.4963 -0.6264 -0.1311
  870MOL0     C17381   2.949   0.940   9.182  0.3458  0.2481  0.5234
  870MOL0     C17382   2.855   1.015   9.120  0.0670 -0.7764 -0.6823
  870MOL0     H17383   2.411   1.258   9.156  3.5969 -0.6689 -0.4310
  870MOL0     H17384   2.219   1.402   9.046 -0.2926  0.8186 -4.0385
  870MOL0     H17385   2.265   1.777   8.764  0.5542 -0.6636 -3.5219
  870MOL0     H17386   2.384   1.643   8.753 -0.5434 -3.3234 -0.4705
  870MOL0     H17387   2.201   1.483   8.731  1.4213 -0.6238 -1.1120
  870MOL0     H17388   2.087   1.628   8.742 -0.7049 -1.6144 -2.6451
  870MOL0     H17389   2.160   1.697   8.527  1.6716 -0.0724  1.6163
  870MOL0     H17390   2.284   1.584   8.526  0.2665  2.5981 -0.2663
  870MOL0     H17391   2.108   1.501   8.384  0.2430 -1.7283 -0.4564
  870MOL0     H17392   2.114   1.390   8.514 -0.0385 -0.8142 -1.0718
  870MOL0     H17393   1.887   1.438   8.486  2.0118 -1.7487 -1.2637
  870MOL0     H17394   1.925   1.523   8.633  0.9652  0.2535 -0.2378
  870MOL0     H17395   1.945   1.739   8.519 -0.3682 -0.5278  0.5424
  870MOL0     H17396   1.935   1.673   8.362 -2.7519  1.2180 -1.1507
  870MOL0     H17397   1.688   1.612   8.407 -2.0439  1.2225  0.7096
  870MOL0     H17398   1.712   1.679   8.567 -1.5174  0.0268 -0.9527
  870MOL0     H17399   1.771   1.884   8.431  0.2748 -1.1490  1.5810
  870MOL0     H17400   1.607   1.847   8.415  1.0748  0.3535  0.2426
  870MOL0     H17401   1.522   1.693   8.192  0.2777 -0.8155  2.6240
  870MOL0     H17402   1.659   1.687   7.836  1.9181 -0.1762  0.0759
  870MOL0     H17403   1.558   1.598   7.959  1.0914 -0.3721  0.7271
  870MOL0     H17404   1.417   1.788   7.965  0.0697  0.1974 -0.2619
  870MOL0     H17405   1.401   1.680   7.824 -0.9380  0.1339 -0.0684
  870MOL0     H17406   1.515   1.965   7.840  0.9888  1.0837 -2.3320
  870MOL0     H17407   1.371   1.928   7.751  0.6436  0.9904 -2.3176
  870MOL0     H17408   1.474   1.834   7.586 -1.2071 -1.0546  2.2578
  870MOL0     H17409   1.625   1.792   7.671  3.0561  2.6480 -0.4837
  870MOL0     H17410   1.653   2.256   7.598 -2.6270 -1.0395  0.5323
  870MOL0     H17411   1.695   2.456   7.723 -0.6671  2.6618  3.9533
  870MOL0     H17412   1.783   2.445   7.874 -0.2646  0.4087 -0.7496
  870MOL0     H17413   1.866   2.471   7.715 -1.9452  2.0629 -1.0673
  870MOL0     H17414   2.105   2.387   8.170 -1.0403 -2.1742  0.6206
  870MOL0     H17415   2.315   2.450   8.288  1.1932  2.2164 -1.1289
  870MOL0     H17416   2.615   2.226   8.269  0.4826  0.5871 -0.3898
  870MOL0     H17417   2.717   2.303   8.149  2.0406  2.0712  1.0970
  870MOL0     H17418   2.699   2.378   8.435 -0.7280  0.7117 -0.6049
  870MOL0     H17419   2.852   2.339   8.339  0.5853  0.2228  0.6708
  870MOL0     H17420   2.663   2.572   8.303 -0.4474 -0.6864 -0.1845
  870MOL0     H17421   2.813   2.556   8.217  1.6637 -1.3975  1.0004
  870MOL0     H17422   2.834   2.714   8.402  2.6976  1.0544  3.7375
  870MOL0     H17423   2.796   2.597   8.525 -1.0332 -1.8576  0.1830
  870MOL0     H17424   3.034   2.568   8.348  0.8242  1.6716 -0.7744
  870MOL0     H17425   3.017   2.467   8.494  1.7096  1.0091  0.9935
  870MOL0     H17426   3.035   2.770   8.500 -3.6312 -1.7956 -0.9118
  870MOL0     H17427   3.012   2.661   8.642 -0.7653  2.6379 -0.1643
  870MOL0     H17428   3.264   2.656   8.475  0.9846 -0.6857  0.6994
  870MOL0     H17429   3.227   2.543   8.605 -2.7832  0.2806 -0.0404
  870MOL0     H17430   3.381   2.698   8.708  0.5619  1.5885  0.2300
  870MOL0     H17431   3.239   2.780   8.758  0.0526 -0.5721  0.7856
  870MOL0     H17432   2.530   2.172   8.037  1.7742  2.4762  1.5673
  870MOL0     H17433   2.315   2.068   7.971  0.1340  0.3134  0.5406
  870MOL0     H17434   1.939   1.985   7.884 -1.1360 -2.0921 -0.1332
  870MOL0     H17435   1.778   1.896   7.779 -0.1577  1.0034  3.4577
  870MOL0     H17436   2.533   1.696   8.965  1.9380 -0.6298  3.0049
  870MOL0     H17437   2.696   1.557   9.018  0.1039  0.3691  1.6801
  870MOL0     H17438   2.792   1.232   9.376 -0.1811  0.9862 -1.1053
  870MOL0     H17439   2.956   1.111   9.475 -1.6354  2.4374 -0.7015
  870MOL0     H17440   3.110   0.748   9.237 -1.2288  1.6457 -1.8321
  870MOL0     H17441   3.209   0.885   9.213 -1.3645 -2.2493 -1.0350
  870MOL0     H17442   3.292   0.676   9.412 -0.2748 -1.2725 -0.8368
  870MOL0     H17443   3.349   0.838   9.399 -1.6645  1.1219 -1.2079
  870MOL0     H17444   3.424   0.816   9.172 -0.9809  0.9426  1.2859
  870MOL0     H17445   3.334   0.659   9.143 -1.1337  0.9609 -0.7723
  870MOL0     H17446   3.578   0.653   9.159 -1.2509  1.5540 -0.6982
  870MOL0     H17447   3.492   0.536   9.257 -2.8508  0.5130  2.5702
  870MOL0     H17448   3.711   0.812   9.522 -1.3213  3.3600 -1.1734
  870MOL0     H17449   2.983   0.855   9.124 -2.7983 -1.5328  1.0458
  870MOL0     H17450   2.827   0.999   9.017 -3.3997 -0.7295  0.1438
  871MOL0     O17451  10.123   1.237  11.134  0.9039  0.5804  0.3702
  871MOL0     C17452  10.230   1.276  11.089  0.1065  0.0553 -0.8492
  871MOL0     O17453  10.361   1.238  11.134  0.4709 -0.2432  0.4614
  871MOL0     C17454  10.365   1.128  11.217 -0.2945 -0.1574  0.0446
  871MOL0     C17455  10.415   1.004  11.169 -0.1074  0.6900  0.0395
  871MOL0     C17456  10.417   0.888  11.252  0.5308 -0.2590  0.6726
  871MOL0     C17457  10.391   0.898  11.391 -0.1040  0.3819  0.4366
  871MOL0     O17458  10.406   0.789  11.462 -0.6749  0.0703  0.2577
  871MOL0     C17459  10.394   0.790  11.608 -0.4580  0.5865  0.1591
  871MOL0     C17460  10.520   0.837  11.679  0.2125  0.5008  1.2877
  871MOL0     C17461  10.487   0.860  11.825  0.2178  0.0735  0.6807
  871MOL0     C17462  10.610   0.913  11.897 -1.0399 -0.3197  0.4003
  871MOL0     C17463  10.573   0.948  12.040 -0.0368  0.1197  0.2720
  871MOL0     C17464  10.684   1.002  12.129  0.5042  0.0755  0.0676
  871MOL0     C17465  10.651   0.991  12.269  0.6601  0.1206 -0.4426
  871MOL0     C17466  10.672   0.852  12.328 -0.8494  0.0592  0.9698
  871MOL0     N17467  10.820   0.825  12.355  0.0344  0.0885  0.1075
  871MOL0     C17468  10.929   0.910  12.337  0.2573  0.4282 -0.6899
  871MOL0     C17469  11.035   0.848  12.393 -0.3916  0.9388 -0.7559
  871MOL0     C17470  11.177   0.908  12.413 -1.4904 -0.6771  0.2394
  871MOL0     C17471  11.295   0.805  12.381 -0.2013 -0.0412  0.2848
  871MOL0     C17472  11.317   0.783  12.233  0.5893  0.4835  0.5296
  871MOL0     C17473  11.327   0.919  12.160 -0.5916 -0.6201 -0.7533
  871MOL0     O17474  11.385   0.903  12.029 -0.0523 -0.1919 -0.0384
  871MOL0     C17475  11.283   0.872  11.934 -0.1033 -0.1900 -0.6378
  871MOL0     C17476  11.177   0.965  11.910  0.1004  0.8494  0.5472
  871MOL0     C17477  11.071   0.926  11.822 -0.2653  0.2336 -0.7554
  871MOL0     C17478  10.953   1.017  11.814 -0.0187 -0.2716  0.9448
  871MOL0     C17479  11.087   0.816  11.742 -0.8076 -0.2648  0.1354
  871MOL0     C17480  10.985   0.782  11.646 -0.2646  0.2492 -0.2652
  871MOL0     O17481  10.977   0.824  11.517 -0.0982 -0.6409 -0.1074
  871MOL0     C17482  11.064   0.919  11.467  0.3117 -0.6316 -0.1515
  871MOL0     C17483  11.037   1.065  11.474 -0.6709  0.8940 -1.3896
  871MOL0     C17484  11.119   1.157  11.419  0.7447  0.2244 -0.5310
  871MOL0     C17485  11.231   1.108  11.343  0.5082  0.0239  0.9141
  871MOL0     O17486  11.314   1.208  11.293  1.2213 -0.3430  0.0772
  871MOL0     C17487  11.440   1.161  11.245  0.0841 -0.0196 -0.5558
  871MOL0     C17488  11.531   1.276  11.193  0.1824 -0.8372 -0.8944
  871MOL0     C17489  11.542   1.401  11.286  0.7381  0.0525  0.4369
  871MOL0     C17490  11.610   1.379  11.421 -0.4283 -0.6650 -0.5040
  871MOL0     C17491  11.609   1.517  11.498 -0.2431  0.5135  0.4271
  871MOL0     C17492  11.738   1.586  11.462 -0.2800  0.2872 -0.6368
  871MOL0     C17493  11.733   1.725  11.536  0.1752  0.2662  0.6118
  871MOL0     C17494  11.844   1.826  11.485  0.1760 -0.4673 -0.2354
  871MOL0    Cl17495  11.792   1.990  11.537 -0.4899 -0.0465 -0.0785
  871MOL0     C17496  11.246   0.972  11.318 -0.2092 -0.8027 -0.0199
  871MOL0     C17497  11.168   0.874  11.386  0.2586  0.2048  0.7057
  871MOL0     O17498  10.902   0.706  11.687  0.1651  0.2556 -0.5781
  871MOL0     C17499  11.208   0.736  11.745 -0.1024  0.5427 -0.8146
  871MOL0     C17500  11.302   0.766  11.842  0.3360  0.5754  0.2197
  871MOL0     N17501  10.989   0.729  12.453  0.9101 -0.4060 -0.0461
  871MOL0     N17502  10.856   0.723  12.429 -0.0377  0.8940 -0.0093
  871MOL0     C17503  10.353   1.027  11.441 -0.1541 -0.6324 -0.6309
  871MOL0     C17504  10.334   1.140  11.355  0.1850  0.0804  0.7436
  871MOL0     C17505  10.228   1.380  10.983  0.1049  0.4237  0.2018
  871MOL0     C17506  10.118   1.385  10.889 -0.0927 -0.6234  0.7525
  871MOL0     C17507  10.116   1.500  10.807 -0.1004 -0.4602 -0.1078
  871MOL0     C17508  10.226   1.588  10.801  0.1062 -0.2366  0.5420
  871MOL0     O17509  10.223   1.696  10.721  0.7614 -0.6971  0.4028
  871MOL0     C17510  10.195   1.681  10.580 -0.0428  0.1937 -0.5036
  871MOL0     C17511  10.305   1.601  10.513  1.2616  0.7944 -0.1602
  871MOL0     C17512  10.307   1.605  10.355  0.2435 -0.0936 -0.7788
  871MOL0     C17513  10.351   1.747  10.305  0.2513 -0.3803 -0.0217
  871MOL0     C17514  10.500   1.736  10.281 -0.2578 -0.6837  0.0188
  871MOL0     C17515  10.621   1.745  10.266  0.2255 -0.1164 -0.3147
  871MOL0     C17516  10.333   1.570  10.880  0.7440  0.7589  0.1433
  871MOL0     C17517  10.342   1.471  10.971 -0.3278 -0.1931 -0.7698
  871MOL0     H17518  10.455   0.986  11.070  0.0751 -2.0307  0.5401
  871MOL0     H17519  10.442   0.791  11.209  2.6073  0.1739  0.8060
  871MOL0     H17520  10.292   0.826  11.622 -1.3048  0.2486 -3.9271
  871MOL0     H17521  10.385   0.686  11.638 -0.6747  0.3711 -0.6269
  871MOL0     H17522  10.612   0.781  11.658 -0.2722  0.2793 -0.3866
  871MOL0     H17523  10.538   0.933  11.631 -0.3640 -0.8867 -2.0089
  871MOL0     H17524  10.407   0.934  11.826  0.9497  0.8960  0.1055
  871MOL0     H17525  10.456   0.762  11.861  1.5592 -1.3555 -1.7550
  871MOL0     H17526  10.700   0.852  11.891 -0.9005 -0.3373  1.9935
  871MOL0     H17527  10.640   1.005  11.847  0.6367 -2.1341 -2.1820
  871MOL0     H17528  10.483   1.010  12.029 -0.6437 -0.8142 -0.1508
  871MOL0     H17529  10.520   0.865  12.089 -1.4773 -1.1763 -3.1525
  871MOL0     H17530  10.781   0.955  12.111 -0.3592 -2.2742  1.2173
  871MOL0     H17531  10.705   1.107  12.106 -1.1250  0.3666 -0.2152
  871MOL0     H17532  10.719   1.064  12.315  0.5666  0.7047 -1.2119
  871MOL0     H17533  10.550   1.026  12.292  0.2875 -1.9496  1.3502
  871MOL0     H17534  10.639   0.774  12.259  0.5656 -1.3304  1.7979
  871MOL0     H17535  10.627   0.841  12.428  0.5361 -1.0656  1.5040
  871MOL0     H17536  10.919   1.009  12.296  0.1267 -0.6907 -3.5821
  871MOL0     H17537  11.189   1.004  12.361  1.3218 -1.6315 -1.0634
  871MOL0     H17538  11.189   0.922  12.521  2.9978 -1.6924  0.0641
  871MOL0     H17539  11.280   0.711  12.435 -0.8194 -0.4735 -0.6259
  871MOL0     H17540  11.386   0.852  12.420 -1.1564  2.5106 -0.3371
  871MOL0     H17541  11.246   0.713  12.188  0.7937 -0.9292  2.3144
  871MOL0     H17542  11.409   0.724  12.224 -0.1353 -0.6088  0.1157
  871MOL0     H17543  11.386   0.994  12.213  0.3724 -2.5886  1.1023
  871MOL0     H17544  11.229   0.966  12.149 -1.6198 -3.1856 -4.0135
  871MOL0     H17545  11.181   1.052  11.974 -0.2454  1.2059  0.0869
  871MOL0     H17546  10.979   1.109  11.760 -0.4101 -1.1951 -0.8698
  871MOL0     H17547  10.863   0.976  11.770  0.0789  1.2553 -0.7783
  871MOL0     H17548  10.920   1.039  11.917  0.4646 -3.7500  1.9585
  871MOL0     H17549  10.953   1.099  11.534 -1.8353 -1.3101 -1.6696
  871MOL0     H17550  11.119   1.264  11.439  2.4927  0.1658 -0.0155
  871MOL0     H17551  11.495   1.109  11.325  0.0111  2.3077  1.0985
  871MOL0     H17552  11.438   1.090  11.162  1.2763 -2.7529  1.5612
  871MOL0     H17553  11.633   1.249  11.167  0.8533  1.9394 -1.5004
  871MOL0     H17554  11.484   1.312  11.101  1.5110 -0.9578 -1.6400
  871MOL0     H17555  11.441   1.437  11.306  0.9799  1.0395 -0.0349
  871MOL0     H17556  11.591   1.477  11.224  2.1227 -1.1027  0.0565
  871MOL0     H17557  11.570   1.289  11.468  0.6332 -2.8271 -3.3773
  871MOL0     H17558  11.714   1.350  11.400  0.7661  0.8319  2.7595
  871MOL0     H17559  11.620   1.502  11.606  1.4845  0.4385  0.2688
  871MOL0     H17560  11.527   1.583  11.469 -0.2460  0.8938  1.2858
  871MOL0     H17561  11.832   1.537  11.491 -0.3869  1.4856  2.0037
  871MOL0     H17562  11.739   1.598  11.353 -0.5368  0.5688 -0.6085
  871MOL0     H17563  11.729   1.716  11.645 -1.6734 -0.6516  0.5123
  871MOL0     H17564  11.636   1.768  11.508  0.1779 -1.0133 -1.6732
  871MOL0     H17565  11.855   1.821  11.376 -4.6756 -0.9277 -0.9576
  871MOL0     H17566  11.935   1.808  11.543 -1.6374 -1.6575  2.4590
  871MOL0     H17567  11.331   0.948  11.255  1.6101 -1.5205  2.5212
  871MOL0     H17568  11.182   0.766  11.380  4.8657  0.6644 -0.4341
  871MOL0     H17569  11.240   0.649  11.689 -1.5148 -1.5043  1.3850
  871MOL0     H17570  11.401   0.723  11.855  0.0815 -1.1778 -2.7533
  871MOL0     H17571  10.347   1.040  11.549  3.4767 -4.3274  0.2585
  871MOL0     H17572  10.294   1.233  11.395 -2.4604  1.6314 -4.6028
  871MOL0     H17573  10.034   1.317  10.899 -0.9526  0.0770 -1.1146
  871MOL0     H17574  10.035   1.520  10.738 -0.5757 -0.0478  0.5622
  871MOL0     H17575  10.100   1.627  10.570  0.0634 -0.4863  1.6735
  871MOL0     H17576  10.199   1.782  10.538  0.7962  0.1498 -0.5472
  871MOL0     H17577  10.298   1.495  10.535  2.6697  0.7895  0.3596
  871MOL0     H17578  10.403   1.644  10.539  0.6830  2.2111 -0.2244
  871MOL0     H17579  10.211   1.566  10.321 -0.0608 -0.3246  0.3302
  871MOL0     H17580  10.378   1.525  10.333  0.0388 -1.1197  1.9920
  871MOL0     H17581  10.315   1.821  10.377  0.6195  1.1254 -1.3481
  871MOL0     H17582  10.299   1.779  10.215 -2.2366 -1.9249  0.7506
  871MOL0     H17583  10.726   1.764  10.253  0.7550 -1.3946  1.6416
  871MOL0     H17584  10.433   1.612  10.872  1.3192 -0.4613  0.7017
  871MOL0     H17585  10.428   1.456  11.036 -2.1239 -5.0483  0.9630
  872MOL0     O17586   2.571   6.834   5.047 -0.0385  0.0727  0.7025
  872MOL0     C17587   2.508   6.736   5.083 -0.1197  0.2016  0.0744
  872MOL0     O17588   2.472   6.711   5.216  0.3820 -0.0928 -0.0266
  872MOL0     C17589   2.420   6.814   5.291 -0.1518  0.7786  0.8154
  872MOL0     C17590   2.427   6.802   5.431  0.1091  0.4812  0.4417
  872MOL0     C17591   2.346   6.883   5.512  0.4894  0.8666 -0.0050
  872MOL0     C17592   2.276   6.991   5.457  0.3973 -0.8771 -0.2188
  872MOL0     O17593   2.181   7.071   5.528 -0.9862  0.5558  0.6087
  872MOL0     C17594   2.203   7.104   5.666 -1.1410 -0.3743 -0.9916
  872MOL0     C17595   2.088   7.178   5.726 -0.2518  0.7607 -0.3113
  872MOL0     C17596   2.085   7.329   5.683 -0.3388 -0.6393 -0.1948
  872MOL0     C17597   1.990   7.412   5.772 -0.5489 -0.3285  0.6175
  872MOL0     C17598   1.980   7.561   5.725 -0.2596  0.1196 -0.7123
  872MOL0     C17599   1.912   7.658   5.817  0.1134  1.0780 -0.1119
  872MOL0     C17600   1.907   7.800   5.763 -0.5698 -0.9322  0.5219
  872MOL0     C17601   1.806   7.894   5.831  0.7545 -0.1550  0.0294
  872MOL0     N17602   1.801   7.924   5.982  0.5862 -0.3144  1.1394
  872MOL0     C17603   1.808   7.831   6.087  0.9454 -0.6930  0.3739
  872MOL0     C17604   1.843   7.912   6.193 -0.0309  0.2741  0.5155
  872MOL0     C17605   1.892   7.864   6.329  0.2169 -0.7469  0.4913
  872MOL0     C17606   1.789   7.906   6.425 -0.0858 -0.0163  0.2240
  872MOL0     C17607   1.664   7.820   6.423  0.3497  0.6009 -0.4927
  872MOL0     C17608   1.547   7.891   6.492 -0.7245  0.1036  0.1345
  872MOL0     O17609   1.471   7.789   6.548  0.6361 -0.1847 -0.4022
  872MOL0     C17610   1.394   7.710   6.463  0.1653 -0.6046  0.6258
  872MOL0     C17611   1.348   7.753   6.334 -0.9511  0.3591 -0.5897
  872MOL0     C17612   1.272   7.665   6.261 -0.2781  0.4537 -0.3853
  872MOL0     C17613   1.236   7.706   6.122  0.1302 -0.5966 -0.0724
  872MOL0     C17614   1.235   7.541   6.316 -0.0821 -0.6737  0.1626
  872MOL0     C17615   1.140   7.452   6.245 -0.0742  0.2400  1.2341
  872MOL0     O17616   1.056   7.506   6.148 -0.1546  0.3195 -0.4599
  872MOL0     C17617   1.002   7.421   6.059  0.3726  0.5019  0.1990
  872MOL0     C17618   1.053   7.295   6.023  0.1542 -0.3868  0.5373
  872MOL0     C17619   1.003   7.222   5.916 -0.1337  0.1709  0.5688
  872MOL0     C17620   0.897   7.273   5.833 -0.8247 -0.6230 -0.4120
  872MOL0     O17621   0.873   7.227   5.709  0.1049  0.1625 -0.8816
  872MOL0     C17622   0.980   7.253   5.614 -0.0851  0.2299 -1.0844
  872MOL0     C17623   0.930   7.208   5.477 -0.0737 -0.8167 -0.1655
  872MOL0     C17624   0.935   7.052   5.463 -0.5516  0.3673  0.8399
  872MOL0     C17625   0.897   6.996   5.326  0.8940  0.3599 -0.2190
  872MOL0     C17626   0.879   6.835   5.333 -0.6036  0.1528 -0.1201
  872MOL0     C17627   1.017   6.758   5.331 -0.2329  0.0957 -0.2917
  872MOL0     C17628   0.996   6.603   5.313  0.4616 -1.3041  0.3419
  872MOL0     C17629   0.979   6.559   5.168 -0.1316  1.2283 -0.2714
  872MOL0    Cl17630   1.129   6.551   5.077 -0.2592 -0.1879 -0.5770
  872MOL0     C17631   0.834   7.391   5.881 -0.4673 -0.1712  0.2195
  872MOL0     C17632   0.893   7.468   5.985 -0.0109  0.4209  0.4975
  872MOL0     O17633   1.115   7.345   6.291 -0.8140 -0.2089 -0.3131
  872MOL0     C17634   1.281   7.503   6.443  0.3801  0.8537 -0.5485
  872MOL0     C17635   1.358   7.585   6.512 -0.0098  0.7693 -0.2436
  872MOL0     N17636   1.834   8.044   6.154  0.2805 -0.8416 -0.1888
  872MOL0     N17637   1.823   8.050   6.029  0.2061 -0.0527  1.2692
  872MOL0     C17638   2.284   7.011   5.320 -0.0092  0.2394  0.4635
  872MOL0     C17639   2.358   6.927   5.236  0.0621 -0.2999  0.2751
  872MOL0     C17640   2.473   6.643   4.979 -0.9006 -0.0813 -0.4429
  872MOL0     C17641   2.503   6.685   4.849 -0.7327  1.4746  0.4824
  872MOL0     C17642   2.473   6.600   4.738  0.5936 -0.1005  0.7925
  872MOL0     C17643   2.424   6.468   4.761 -0.4100 -0.2886  0.6675
  872MOL0     O17644   2.394   6.378   4.662  0.2955  0.3945  0.2833
  872MOL0     C17645   2.327   6.426   4.549  1.0509 -0.1413  0.4344
  872MOL0     C17646   2.255   6.310   4.474 -0.2606  0.5834  0.1084
  872MOL0     C17647   2.152   6.349   4.373 -0.0101 -0.1717  0.0814
  872MOL0     C17648   2.089   6.223   4.311  0.1852 -0.2168 -0.0839
  872MOL0     C17649   1.945   6.219   4.321  0.5071  0.0090  0.7686
  872MOL0     C17650   1.827   6.219   4.327 -0.3195 -0.5531  0.9374
  872MOL0     C17651   2.410   6.428   4.898  0.1579 -0.5277  0.7481
  872MOL0     C17652   2.424   6.517   5.004  0.3308  0.3177  0.9777
  872MOL0     H17653   2.467   6.713   5.479 -2.3438 -0.8789  0.1620
  872MOL0     H17654   2.350   6.872   5.620 -3.5710  0.4288  0.2273
  872MOL0     H17655   2.236   7.012   5.714  0.7149 -0.5135 -2.4111
  872MOL0     H17656   2.290   7.171   5.663 -1.8037  1.0499  3.7141
  872MOL0     H17657   1.997   7.132   5.688 -0.4218  2.1027 -1.6250
  872MOL0     H17658   2.097   7.168   5.835 -0.6158 -0.0369 -0.3493
  872MOL0     H17659   2.175   7.390   5.691 -1.5484  0.9964  2.6664
  872MOL0     H17660   2.050   7.328   5.579 -0.6550 -1.4981 -0.0856
  872MOL0     H17661   1.892   7.365   5.765 -0.2501 -0.6912 -2.1761
  872MOL0     H17662   2.024   7.431   5.874  1.5349  1.3549 -0.3026
  872MOL0     H17663   2.080   7.601   5.707  0.0189  1.8481  3.4953
  872MOL0     H17664   1.919   7.558   5.634 -2.1161 -0.9191  0.4854
  872MOL0     H17665   1.812   7.617   5.829  0.9266 -2.1043 -2.7410
  872MOL0     H17666   1.951   7.653   5.919 -0.9888  0.7777  0.3069
  872MOL0     H17667   2.010   7.828   5.785 -1.4056  0.6379  2.7588
  872MOL0     H17668   1.904   7.802   5.654  1.2871 -2.0443  0.4084
  872MOL0     H17669   1.704   7.872   5.796  0.2242  1.1181  0.7064
  872MOL0     H17670   1.830   7.986   5.777  2.0376 -1.0723 -1.0197
  872MOL0     H17671   1.784   7.726   6.080 -2.7023  0.0713 -0.3284
  872MOL0     H17672   1.907   7.756   6.339  3.0395 -0.3607  1.5107
  872MOL0     H17673   1.987   7.917   6.347  0.8466 -1.5804 -0.2771
  872MOL0     H17674   1.764   8.012   6.411  0.5113  0.4621  2.5037
  872MOL0     H17675   1.848   7.895   6.516  0.4909 -1.4318 -0.2862
  872MOL0     H17676   1.684   7.721   6.466  1.0052  0.1968 -1.6756
  872MOL0     H17677   1.647   7.789   6.319  0.3166 -3.4835  0.5389
  872MOL0     H17678   1.500   7.965   6.427 -0.4960 -1.4297 -1.8983
  872MOL0     H17679   1.582   7.941   6.582  4.1061 -1.5872 -0.5230
  872MOL0     H17680   1.365   7.856   6.303 -3.6761 -0.1429 -4.3832
  872MOL0     H17681   1.301   7.790   6.096 -2.0476  2.0689  2.3870
  872MOL0     H17682   1.258   7.629   6.047 -3.9360  0.2501 -2.4594
  872MOL0     H17683   1.132   7.742   6.115  0.4355  0.6263  1.1484
  872MOL0     H17684   1.146   7.262   6.067  2.0441  3.5230 -0.0514
  872MOL0     H17685   1.072   7.151   5.872  0.3830  0.6693  0.5683
  872MOL0     H17686   0.991   7.361   5.599  2.6811 -0.0504 -1.6978
  872MOL0     H17687   1.076   7.213   5.649 -0.2741  0.3553 -0.4096
  872MOL0     H17688   0.843   7.271   5.458  0.8797 -0.1965 -2.8633
  872MOL0     H17689   0.993   7.241   5.394 -0.4856  1.5352  0.3810
  872MOL0     H17690   0.867   7.006   5.536 -0.6875  1.6273  1.5311
  872MOL0     H17691   1.033   7.019   5.498 -0.5929  0.0543  0.6655
  872MOL0     H17692   0.802   7.041   5.295  1.2328  2.4687  1.6201
  872MOL0     H17693   0.982   7.017   5.260  0.8431 -0.5984 -0.6182
  872MOL0     H17694   0.812   6.784   5.264  0.9504 -1.1286 -0.7473
  872MOL0     H17695   0.817   6.808   5.419  0.6603 -0.1887  0.7188
  872MOL0     H17696   1.082   6.805   5.256 -2.0813  1.1715 -1.3123
  872MOL0     H17697   1.061   6.771   5.430 -1.8459 -0.9529  0.5954
  872MOL0     H17698   0.908   6.573   5.372  0.5089 -1.5150  0.3077
  872MOL0     H17699   1.077   6.537   5.344 -1.0370 -3.4233 -0.0098
  872MOL0     H17700   0.905   6.625   5.122 -3.2437 -0.2739  2.1810
  872MOL0     H17701   0.937   6.459   5.154  2.7014  0.2986 -3.5829
  872MOL0     H17702   0.750   7.431   5.825  0.5480  2.1305  0.2389
  872MOL0     H17703   0.855   7.569   6.001  0.6473  1.0026 -1.3787
  872MOL0     H17704   1.261   7.405   6.486  0.6194  0.5216 -1.1733
  872MOL0     H17705   1.375   7.553   6.614 -1.5387 -2.2520 -0.7864
  872MOL0     H17706   2.243   7.102   5.280  0.4990 -0.9254 -3.0364
  872MOL0     H17707   2.361   6.953   5.130  1.5196  3.0022  0.9929
  872MOL0     H17708   2.539   6.785   4.826  2.0815  0.3809 -0.2509
  872MOL0     H17709   2.469   6.637   4.636 -1.7638 -0.1500  0.8155
  872MOL0     H17710   2.258   6.509   4.570  2.1005  1.4526 -2.0136
  872MOL0     H17711   2.390   6.477   4.476 -0.7884  0.0211 -1.1378
  872MOL0     H17712   2.213   6.234   4.541  1.0285  0.0878  0.3855
  872MOL0     H17713   2.341   6.259   4.429 -0.0105  2.8642 -2.2319
  872MOL0     H17714   2.196   6.411   4.294 -0.8654 -0.4456 -0.6206
  872MOL0     H17715   2.074   6.403   4.426 -1.3965 -1.4528 -0.5803
  872MOL0     H17716   2.140   6.133   4.347  0.1259 -0.6242 -0.9948
  872MOL0     H17717   2.114   6.231   4.205  2.5205  1.9167  0.5226
  872MOL0     H17718   1.720   6.226   4.336 -0.2493  1.1115  0.7533
  872MOL0     H17719   2.378   6.326   4.916  1.4563 -0.7181  2.1051
  872MOL0     H17720   2.390   6.497   5.105 -0.1124  2.5837  1.3212
  873MOL0     O17721   0.546  10.930   6.962 -0.3185 -0.6504 -0.1605
  873MOL0     C17722   0.661  10.959   6.921  0.3523  0.4892 -0.3806
  873MOL0     O17723   0.770  10.873   6.924 -0.5613  0.4137 -0.7452
  873MOL0     C17724   0.760  10.741   6.958  0.1296  0.1942  0.4138
  873MOL0     C17725   0.766  10.649   6.848  0.4259  0.4834  0.0569
  873MOL0     C17726   0.762  10.505   6.865  0.3444 -0.5119 -0.2968
  873MOL0     C17727   0.760  10.456   6.999 -0.3043  0.3110 -0.4828
  873MOL0     O17728   0.758  10.319   7.029  0.6738 -0.3259  0.2188
  873MOL0     C17729   0.691  10.233   6.931  0.6131  0.5140  0.4676
  873MOL0     C17730   0.588  10.157   7.013 -0.1556  0.8589  1.1268
  873MOL0     C17731   0.463  10.239   7.021 -0.0536  0.1696  0.3822
  873MOL0     C17732   0.384  10.207   7.149  0.3714  0.2417 -0.3185
  873MOL0     C17733   0.432  10.295   7.267 -0.8057 -1.0402  0.4385
  873MOL0     C17734   0.392  10.446   7.270 -0.5039 -0.6120 -0.0883
  873MOL0     C17735   0.407  10.497   7.413  0.9226  1.2051 -0.0346
  873MOL0     C17736   0.367  10.646   7.424 -0.1283  0.8742  0.2380
  873MOL0     N17737   0.234  10.673   7.470  0.8803 -1.1826  0.0152
  873MOL0     C17738   0.181  10.659   7.592 -0.3517  0.4339 -0.4226
  873MOL0     C17739   0.056  10.695   7.582 -1.0330 -0.2405  0.1435
  873MOL0     C17740  -0.047  10.692   7.689 -0.3385 -0.3460  0.3071
  873MOL0     C17741  -0.005  10.711   7.829  0.6366 -1.3638  0.3578
  873MOL0     C17742   0.086  10.822   7.865 -0.5809  0.3175 -0.2560
  873MOL0     C17743   0.023  10.963   7.885 -0.8053 -0.3625 -0.6254
  873MOL0     O17744  -0.006  11.017   7.758 -0.0022 -0.0480 -0.2577
  873MOL0     C17745   0.060  11.128   7.733 -0.1162 -1.1752 -0.0714
  873MOL0     C17746   0.014  11.231   7.812 -0.0579 -1.0755 -0.3641
  873MOL0     C17747   0.083  11.363   7.806  1.0202  0.0928  0.6862
  873MOL0     C17748   0.011  11.467   7.901 -1.3740  0.1182 -0.7016
  873MOL0     C17749   0.209  11.375   7.727  0.2634 -0.4896 -0.1572
  873MOL0     C17750   0.286  11.498   7.698 -0.1140  1.0913  0.2663
  873MOL0     O17751   0.363  11.504   7.589  0.4450  1.2362 -0.9171
  873MOL0     C17752   0.474  11.572   7.568  0.3627 -0.2837 -1.2662
  873MOL0     C17753   0.540  11.547   7.455  0.2292  0.6263  0.2818
  873MOL0     C17754   0.663  11.605   7.429  0.5400 -0.3893  0.5550
  873MOL0     C17755   0.726  11.697   7.518  0.6795  0.1486  0.5982
  873MOL0     O17756   0.837  11.760   7.465  0.3106 -0.0368 -0.4036
  873MOL0     C17757   0.896  11.884   7.515 -0.0104 -0.1082  0.2041
  873MOL0     C17758   0.789  11.991   7.491 -0.2505 -0.5608 -0.4321
  873MOL0     C17759   0.870  12.120   7.503  0.7560 -0.7883 -0.2669
  873MOL0     C17760   0.884  12.182   7.650  0.1159 -0.0346  0.3905
  873MOL0     C17761   0.981  12.314   7.650 -0.2963 -0.7806 -0.1627
  873MOL0     C17762   1.014  12.362   7.798  0.0150 -0.2824  0.7310
  873MOL0     C17763   1.099  12.487   7.801 -0.1914 -1.0063 -0.3260
  873MOL0     C17764   1.132  12.520   7.955  0.6847  0.1750 -0.3052
  873MOL0    Cl17765   1.306  12.558   7.963  0.6224  0.4316 -0.2416
  873MOL0     C17766   0.653  11.725   7.632 -0.0836 -0.5337 -0.6149
  873MOL0     C17767   0.526  11.664   7.660 -0.9774  0.7353  0.2898
  873MOL0     O17768   0.269  11.585   7.779 -0.4516  0.4621 -0.1728
  873MOL0     C17769   0.250  11.259   7.656  0.7746 -0.3055 -0.0950
  873MOL0     C17770   0.177  11.141   7.667  0.8051  0.3399 -0.2031
  873MOL0     N17771   0.031  10.740   7.450 -0.0296  0.2252 -0.6846
  873MOL0     N17772   0.143  10.734   7.388 -0.6500 -0.8333 -0.5694
  873MOL0     C17773   0.764  10.549   7.106  0.7027 -0.8347  0.4279
  873MOL0     C17774   0.767  10.691   7.087 -0.3837  0.0027 -0.1379
  873MOL0     C17775   0.686  11.090   6.872  0.3495 -0.4376  0.9538
  873MOL0     C17776   0.576  11.184   6.853 -1.6572  0.6870 -0.7645
  873MOL0     C17777   0.601  11.309   6.799 -0.7005  0.6281  0.0721
  873MOL0     C17778   0.724  11.355   6.766 -0.2175  0.2404 -0.0839
  873MOL0     O17779   0.732  11.484   6.716 -0.4011  0.6116 -1.0809
  873MOL0     C17780   0.853  11.543   6.667  0.0652 -0.0491 -0.0824
  873MOL0     C17781   0.897  11.486   6.536  0.2178  0.9326 -0.0441
  873MOL0     C17782   0.800  11.461   6.425 -0.5305 -0.3603  1.2100
  873MOL0     C17783   0.694  11.572   6.394 -0.3825  0.9440 -0.0696
  873MOL0     C17784   0.659  11.573   6.251 -0.2901  0.5724 -0.6864
  873MOL0     C17785   0.620  11.567   6.130 -0.7269  0.1932 -0.4563
  873MOL0     C17786   0.834  11.268   6.784 -0.2715 -1.2184 -0.5738
  873MOL0     C17787   0.817  11.141   6.834 -0.7166  0.0346 -0.5160
  873MOL0     H17788   0.786  10.682   6.747  0.2437 -0.7210 -0.3865
  873MOL0     H17789   0.760  10.452   6.770  0.8478  0.9312 -1.1427
  873MOL0     H17790   0.655  10.274   6.836 -4.0829  0.2848  1.9021
  873MOL0     H17791   0.772  10.164   6.907 -0.9511 -0.5637 -2.2394
  873MOL0     H17792   0.576  10.066   6.953 -2.1542  1.7390  0.1134
  873MOL0     H17793   0.632  10.126   7.109  1.8365 -1.2622 -0.3559
  873MOL0     H17794   0.490  10.345   7.017  1.1796 -0.1702 -0.7989
  873MOL0     H17795   0.397  10.208   6.939 -0.2637 -0.9984  0.9692
  873MOL0     H17796   0.278  10.220   7.129 -0.2872 -2.4226  0.9271
  873MOL0     H17797   0.400  10.103   7.182  1.3484  0.1617 -0.9941
  873MOL0     H17798   0.413  10.246   7.363  0.4998  0.6875  1.6538
  873MOL0     H17799   0.540  10.282   7.259 -0.5489  1.5237 -1.6670
  873MOL0     H17800   0.451  10.505   7.198 -1.5290  0.4947 -0.0503
  873MOL0     H17801   0.285  10.458   7.252 -0.7936 -3.2124 -0.4691
  873MOL0     H17802   0.350  10.434   7.481 -0.4433  0.5630 -1.7302
  873MOL0     H17803   0.510  10.483   7.448  1.0409  0.5434 -0.6310
  873MOL0     H17804   0.378  10.685   7.322  2.3667 -0.8082 -0.2272
  873MOL0     H17805   0.435  10.699   7.491 -1.6094  0.2973  2.3126
  873MOL0     H17806   0.237  10.629   7.680 -1.0404 -0.7143 -0.3644
  873MOL0     H17807  -0.128  10.760   7.661  1.7804  0.9572 -3.3078
  873MOL0     H17808  -0.101  10.597   7.689  0.2389 -0.7773  3.1773
  873MOL0     H17809   0.044  10.621   7.866 -1.1594 -2.0476  1.1697
  873MOL0     H17810  -0.095  10.723   7.890  1.1713  2.9366  0.6179
  873MOL0     H17811   0.177  10.830   7.804 -1.1131  1.3458 -0.9498
  873MOL0     H17812   0.116  10.782   7.962 -2.4682 -1.3491 -0.2987
  873MOL0     H17813   0.089  11.019   7.952  0.3034  0.3015 -2.2102
  873MOL0     H17814  -0.070  10.966   7.944  0.3514  1.2054  1.2367
  873MOL0     H17815  -0.076  11.236   7.872  0.8818  1.6664  0.9691
  873MOL0     H17816  -0.087  11.432   7.935 -0.1775  0.0910  3.1560
  873MOL0     H17817   0.081  11.469   7.985 -2.8171  0.7152  0.5322
  873MOL0     H17818   0.004  11.568   7.860  0.3635  0.0090 -1.3536
  873MOL0     H17819   0.500  11.471   7.389  3.5832 -0.4539 -0.6674
  873MOL0     H17820   0.727  11.582   7.345  1.2158 -0.3772  1.0509
  873MOL0     H17821   0.921  11.868   7.621  1.5004 -0.0680 -0.1128
  873MOL0     H17822   0.989  11.903   7.461  0.4821  2.9410  1.8949
  873MOL0     H17823   0.750  11.979   7.390 -3.1372 -0.7498  0.5848
  873MOL0     H17824   0.713  11.976   7.569  1.3695 -4.5270  0.6421
  873MOL0     H17825   0.835  12.201   7.439  2.3523 -1.7917 -2.5500
  873MOL0     H17826   0.972  12.095   7.472  0.0611 -3.9055 -0.4172
  873MOL0     H17827   0.785  12.209   7.687 -2.3711 -0.4916 -4.9750
  873MOL0     H17828   0.922  12.102   7.714  0.1151 -0.0059  0.4269
  873MOL0     H17829   0.929  12.399   7.604  1.7074  2.1718  2.5847
  873MOL0     H17830   1.073  12.291   7.595 -0.1352 -1.6525  0.4488
  873MOL0     H17831   0.916  12.389   7.838 -0.3737  0.3965 -0.5949
  873MOL0     H17832   1.063  12.293   7.867  0.6030  1.5169  2.1946
  873MOL0     H17833   1.057  12.575   7.753  3.8791  1.2422 -0.2146
  873MOL0     H17834   1.190  12.475   7.743 -0.2719 -3.1466 -0.0809
  873MOL0     H17835   1.108  12.431   8.016 -1.0884  0.9410  0.1758
  873MOL0     H17836   1.074  12.600   8.001 -0.9326 -0.9640 -0.2742
  873MOL0     H17837   0.698  11.786   7.710  2.4291 -1.6597 -1.0659
  873MOL0     H17838   0.485  11.685   7.758  0.5558  0.0524  1.1233
  873MOL0     H17839   0.337  11.256   7.591  0.7632  0.1029 -0.1275
  873MOL0     H17840   0.222  11.052   7.624  1.8288  0.3443  0.7989
  873MOL0     H17841   0.756  10.513   7.208 -0.0133  2.0766  1.4864
  873MOL0     H17842   0.776  10.758   7.172  2.1352  1.5722 -1.5281
  873MOL0     H17843   0.476  11.148   6.875 -2.0059  1.1903 -1.5025
  873MOL0     H17844   0.520  11.382   6.789 -1.0505  0.2212 -0.1134
  873MOL0     H17845   0.825  11.647   6.646 -0.5839 -0.5729 -1.9963
  873MOL0     H17846   0.932  11.536   6.742 -2.7852  1.6812  3.3496
  873MOL0     H17847   0.940  11.392   6.571 -1.3132  0.8262  1.7016
  873MOL0     H17848   0.988  11.539   6.506  1.7602 -0.5887  1.6759
  873MOL0     H17849   0.743  11.370   6.444 -1.1649 -0.1828  0.2282
  873MOL0     H17850   0.860  11.450   6.335 -0.1289 -1.0851  1.5616
  873MOL0     H17851   0.737  11.669   6.420 -1.5465  1.0719  1.5820
  873MOL0     H17852   0.598  11.559   6.445  0.1077 -0.9318  0.4755
  873MOL0     H17853   0.571  11.568   6.035  1.7756 -0.9286 -1.8870
  873MOL0     H17854   0.933  11.306   6.762 -0.6287  0.8585  1.0647
  873MOL0     H17855   0.905  11.078   6.835 -1.4474 -1.0213  1.6015
  874MOL0     O17856   2.234   2.893   0.142  1.1170 -0.1759  1.0352
  874MOL0     C17857   2.116   2.916   0.170 -0.1302 -0.7829 -1.2341
  874MOL0     O17858   2.072   3.023   0.247 -0.2642  0.1502  0.1452
  874MOL0     C17859   2.166   3.122   0.267 -0.2750  0.7001 -0.5996
  874MOL0     C17860   2.255   3.115   0.378 -0.1670  0.5810 -0.7718
  874MOL0     C17861   2.372   3.193   0.380 -0.5711 -0.8281  0.9498
  874MOL0     C17862   2.408   3.282   0.273 -0.2605 -0.0929 -0.7009
  874MOL0     O17863   2.531   3.346   0.275 -0.6581 -0.4529  0.3598
  874MOL0     C17864   2.596   3.374   0.399 -0.1291 -0.0089 -0.7691
  874MOL0     C17865   2.699   3.277   0.451  0.6991  0.2572  0.1776
  874MOL0     C17866   2.803   3.253   0.342  0.0272  0.5995 -0.1936
  874MOL0     C17867   2.918   3.176   0.399 -0.6713 -0.2443  0.7554
  874MOL0     C17868   3.007   3.144   0.291  0.2779  0.2411 -0.6900
  874MOL0     C17869   3.104   3.254   0.242 -0.2528 -0.8645  0.3103
  874MOL0     C17870   3.179   3.311   0.365 -0.4337 -0.3445  0.8621
  874MOL0     C17871   3.325   3.356   0.331 -0.7137  1.3506 -0.0542
  874MOL0     N17872   3.399   3.406   0.451  0.8718 -0.2745 -0.3405
  874MOL0     C17873   3.475   3.515   0.438  0.5136  0.0356 -0.0320
  874MOL0     C17874   3.498   3.556   0.574  1.1063  0.2347 -0.8087
  874MOL0     C17875   3.580   3.677   0.599  0.0386 -0.5530 -0.8863
  874MOL0     C17876   3.515   3.821   0.572  0.6087  0.1500 -0.4123
  874MOL0     C17877   3.508   3.849   0.431  0.1833 -0.4187 -0.0526
  874MOL0     C17878   3.637   3.861   0.352 -0.3891 -0.6863  0.2304
  874MOL0     O17879   3.618   3.946   0.238 -0.8512 -0.1494 -0.8815
  874MOL0     C17880   3.726   3.993   0.169  0.1609 -0.0722 -0.3732
  874MOL0     C17881   3.700   4.082   0.064  0.6157 -0.2867  0.3347
  874MOL0     C17882   3.781   4.121  -0.036 -0.0995 -0.5658 -0.6504
  874MOL0     C17883   3.720   4.209  -0.140  0.0988 -0.1576  0.5222
  874MOL0     C17884   3.917   4.088  -0.020  0.2455 -0.8823  0.0235
  874MOL0     C17885   4.021   4.125  -0.114  0.6546  0.7823  0.9645
  874MOL0     O17886   4.150   4.134  -0.070 -1.1596  0.2866  0.2061
  874MOL0     C17887   4.241   4.192  -0.148 -1.5194  0.4847 -0.6734
  874MOL0     C17888   4.256   4.328  -0.146 -0.2060  0.5022  0.7179
  874MOL0     C17889   4.323   4.394  -0.249 -0.4950  0.7434 -0.3184
  874MOL0     C17890   4.385   4.325  -0.348 -0.7757  0.6052  0.4710
  874MOL0     O17891   4.454   4.400  -0.440  0.9033 -0.1243  0.4631
  874MOL0     C17892   4.569   4.359  -0.508 -0.2355  0.4095 -0.0172
  874MOL0     C17893   4.626   4.482  -0.590 -0.1823 -0.9996  0.7131
  874MOL0     C17894   4.736   4.455  -0.680 -1.1354  0.0011  0.4913
  874MOL0     C17895   4.792   4.584  -0.746 -0.0699 -0.9155 -1.0541
  874MOL0     C17896   4.947   4.582  -0.717  0.3192  0.0859 -0.3989
  874MOL0     C17897   5.015   4.695  -0.800  0.0744  0.6912 -0.4837
  874MOL0     C17898   5.167   4.679  -0.773 -0.2580  0.2403  0.2958
  874MOL0     C17899   5.248   4.782  -0.843 -0.2357 -0.1593  0.3790
  874MOL0    Cl17900   5.225   4.935  -0.755 -0.0665 -0.4433  0.0834
  874MOL0     C17901   4.379   4.186  -0.344  1.0207 -0.3043 -0.0262
  874MOL0     C17902   4.307   4.113  -0.252 -0.0988  0.8805 -0.3520
  874MOL0     O17903   3.986   4.159  -0.232 -0.5181  0.1197 -0.3945
  874MOL0     C17904   3.947   4.022   0.102 -0.3993 -0.7314  0.1142
  874MOL0     C17905   3.864   3.971   0.196  0.0503  0.6214 -0.2432
  874MOL0     N17906   3.428   3.477   0.667 -0.4028  0.5097 -0.0269
  874MOL0     N17907   3.376   3.389   0.582 -0.8143  0.6350  0.0878
  874MOL0     C17908   2.316   3.298   0.170  0.7881 -0.8093  0.4003
  874MOL0     C17909   2.196   3.226   0.169  0.0726  0.1505 -0.4624
  874MOL0     C17910   2.025   2.808   0.144  0.3829  0.8915 -0.1240
  874MOL0     C17911   2.072   2.681   0.109 -0.2007 -0.8135 -0.3136
  874MOL0     C17912   1.973   2.579   0.087 -0.1872 -0.0781  0.6527
  874MOL0     C17913   1.836   2.597   0.119 -0.2942 -0.8004  0.1078
  874MOL0     O17914   1.756   2.493   0.099  0.3391  0.0468 -0.1917
  874MOL0     C17915   1.608   2.502   0.105  0.3412 -0.6425 -0.7933
  874MOL0     C17916   1.524   2.384   0.054  0.1711 -0.0045 -0.9057
  874MOL0     C17917   1.578   2.254   0.119 -0.8091  0.1180  0.3940
  874MOL0     C17918   1.589   2.268   0.266 -0.9563  0.0099 -1.3670
  874MOL0     C17919   1.600   2.129   0.318 -0.5841 -0.5335  0.4065
  874MOL0     C17920   1.612   2.009   0.342 -0.1037  0.3246 -0.2428
  874MOL0     C17921   1.798   2.723   0.161  0.0941  0.2704 -0.0386
  874MOL0     C17922   1.886   2.830   0.169 -0.3360 -0.2094  0.4249
  874MOL0     H17923   2.226   3.044   0.454 -2.6048 -0.3684 -2.4731
  874MOL0     H17924   2.448   3.173   0.455  2.9799 -0.2562 -2.1957
  874MOL0     H17925   2.631   3.476   0.377 -1.7437  1.0244  1.1378
  874MOL0     H17926   2.517   3.403   0.469  0.5220  2.1455 -0.8287
  874MOL0     H17927   2.745   3.321   0.540  0.9868 -0.6270  0.4700
  874MOL0     H17928   2.652   3.187   0.492 -0.4583  0.1219 -1.3497
  874MOL0     H17929   2.767   3.198   0.254 -3.5940  2.1499  0.1122
  874MOL0     H17930   2.846   3.349   0.312  1.2948  0.8343  2.1702
  874MOL0     H17931   2.969   3.221   0.485 -0.2524 -1.5472  1.2300
  874MOL0     H17932   2.892   3.080   0.446  1.2509 -1.5253 -0.6490
  874MOL0     H17933   3.077   3.067   0.326 -0.6364  0.3061  1.3608
  874MOL0     H17934   2.950   3.096   0.211  1.9286  0.9890 -2.4156
  874MOL0     H17935   3.168   3.191   0.180  0.7950  0.4765 -0.0154
  874MOL0     H17936   3.060   3.335   0.183 -0.6374 -1.9145 -0.8854
  874MOL0     H17937   3.119   3.393   0.405 -0.7612 -0.1187 -0.0561
  874MOL0     H17938   3.195   3.229   0.435  0.9425 -2.5605 -1.8282
  874MOL0     H17939   3.320   3.424   0.245 -1.4162 -1.5997 -2.5182
  874MOL0     H17940   3.382   3.277   0.283 -1.1540  0.7677  0.3687
  874MOL0     H17941   3.509   3.564   0.348  0.6057 -2.1475 -1.2443
  874MOL0     H17942   3.600   3.659   0.705  0.3018 -1.1074 -1.0259
  874MOL0     H17943   3.679   3.664   0.553 -0.0893 -2.6724 -0.6409
  874MOL0     H17944   3.560   3.895   0.639 -1.5392  1.0155  0.1462
  874MOL0     H17945   3.414   3.823   0.614  1.4288 -1.1148  1.7947
  874MOL0     H17946   3.465   3.949   0.446  3.9733  0.8088  5.9089
  874MOL0     H17947   3.437   3.779   0.386 -1.1133 -1.3065  3.1364
  874MOL0     H17948   3.668   3.763   0.314  0.9252 -0.4486  0.6165
  874MOL0     H17949   3.714   3.913   0.409 -2.2779  2.2852  0.2437
  874MOL0     H17950   3.595   4.103   0.047  0.2908 -2.0444 -0.0964
  874MOL0     H17951   3.612   4.220  -0.124 -0.4483 -1.2206 -1.9866
  874MOL0     H17952   3.750   4.314  -0.132 -0.5893  0.2654 -1.8249
  874MOL0     H17953   3.725   4.173  -0.243 -0.3642  2.3195 -0.4300
  874MOL0     H17954   4.209   4.391  -0.072  0.7893 -0.8542  2.6079
  874MOL0     H17955   4.336   4.502  -0.245  2.4383  0.4174  2.0313
  874MOL0     H17956   4.638   4.313  -0.436  3.1459  3.8767 -0.7497
  874MOL0     H17957   4.535   4.286  -0.581  0.3594 -1.0439  1.1177
  874MOL0     H17958   4.553   4.547  -0.639  1.8565  1.8530  1.2457
  874MOL0     H17959   4.661   4.553  -0.515 -2.8258 -0.5220  1.5954
  874MOL0     H17960   4.719   4.380  -0.757  0.2827  0.5255 -0.3866
  874MOL0     H17961   4.810   4.394  -0.628  2.4722  0.2855 -3.7243
  874MOL0     H17962   4.771   4.586  -0.853  1.2943 -0.8631 -1.3371
  874MOL0     H17963   4.750   4.674  -0.698  0.9752 -0.9793  0.0415
  874MOL0     H17964   4.986   4.480  -0.721  1.5418  0.4921  0.6370
  874MOL0     H17965   4.959   4.614  -0.613 -1.5414 -2.0048  0.5251
  874MOL0     H17966   4.997   4.675  -0.906  0.1681  0.3758 -0.4384
  874MOL0     H17967   4.978   4.797  -0.780  1.3247  2.6997 -6.5232
  874MOL0     H17968   5.195   4.584  -0.819  1.3579 -0.0304  1.7350
  874MOL0     H17969   5.196   4.670  -0.668 -1.3597  0.6641  0.6581
  874MOL0     H17970   5.198   4.790  -0.940 -3.3701 -2.2809  1.6703
  874MOL0     H17971   5.353   4.752  -0.852 -0.2471  0.0326 -0.4760
  874MOL0     H17972   4.423   4.115  -0.413  1.2270 -1.9918  1.7562
  874MOL0     H17973   4.296   4.006  -0.270  0.4841  0.2758  2.4546
  874MOL0     H17974   4.054   4.013   0.113 -0.2867  0.3101 -0.0077
  874MOL0     H17975   3.897   3.908   0.278  1.2464 -0.9666 -1.8734
  874MOL0     H17976   2.327   3.382   0.101 -3.1445  0.8754  1.5382
  874MOL0     H17977   2.114   3.246   0.101  0.0186 -1.0100 -0.7667
  874MOL0     H17978   2.179   2.666   0.098 -0.0674 -0.9879  1.0596
  874MOL0     H17979   2.005   2.477   0.073  0.9278 -0.0010  2.2769
  874MOL0     H17980   1.594   2.524   0.212  5.3808 -0.0536  0.0353
  874MOL0     H17981   1.565   2.589   0.055 -4.7210 -1.0295  2.1414
  874MOL0     H17982   1.532   2.379  -0.055  0.1541 -2.1399 -0.8425
  874MOL0     H17983   1.416   2.401   0.067 -0.0008 -1.8750  0.5304
  874MOL0     H17984   1.673   2.231   0.070 -0.4199 -1.1816  1.6846
  874MOL0     H17985   1.525   2.160   0.100 -0.6658 -0.4080  2.3791
  874MOL0     H17986   1.499   2.312   0.310 -0.5968  0.3196 -0.9264
  874MOL0     H17987   1.680   2.327   0.271 -1.5297  0.8208  0.3133
  874MOL0     H17988   1.618   1.905   0.369  2.7046  0.1539 -1.2167
  874MOL0     H17989   1.691   2.740   0.152  0.1786  0.4939 -0.6687
  874MOL0     H17990   1.834   2.924   0.187 -1.0301 -1.0063  3.0220
  875MOL0     O17991   5.776   3.631   1.565  0.0739 -0.2247 -0.0606
  875MOL0     C17992   5.716   3.534   1.511 -0.6418  0.1230  0.3916
  875MOL0     O17993   5.605   3.546   1.432  0.3177 -0.0771 -0.5754
  875MOL0     C17994   5.538   3.664   1.415  0.3988  0.8150 -0.4636
  875MOL0     C17995   5.505   3.748   1.521 -0.7537 -0.7590 -0.4013
  875MOL0     C17996   5.431   3.866   1.495 -1.5757  0.0485 -0.6137
  875MOL0     C17997   5.415   3.915   1.358 -0.0915  0.8752 -0.4873
  875MOL0     O17998   5.353   4.029   1.349  0.5590 -0.8346 -1.1738
  875MOL0     C17999   5.395   4.133   1.251  0.3222  0.2418  0.1112
  875MOL0     C18000   5.302   4.255   1.273 -0.5647  0.1665  0.8287
  875MOL0     C18001   5.362   4.358   1.176  0.0628  0.0737 -0.4354
  875MOL0     C18002   5.260   4.470   1.182  0.8978 -0.6678  0.4251
  875MOL0     C18003   5.287   4.583   1.289 -0.3237 -0.1069  0.7475
  875MOL0     C18004   5.180   4.685   1.292 -0.0447 -0.4141 -0.1777
  875MOL0     C18005   5.211   4.785   1.396 -1.1809 -1.0108  0.0980
  875MOL0     C18006   5.134   4.914   1.358 -0.3309  0.2975 -0.3372
  875MOL0     N18007   4.986   4.914   1.355 -0.0906  0.1655 -0.6226
  875MOL0     C18008   4.898   4.905   1.462 -0.3726  0.3612  0.5562
  875MOL0     C18009   4.771   4.914   1.407 -0.1902  0.0864  0.9139
  875MOL0     C18010   4.644   4.932   1.480 -1.0146  0.3069 -0.4533
  875MOL0     C18011   4.625   5.075   1.518  0.1791 -0.2839 -0.3559
  875MOL0     C18012   4.500   5.086   1.606 -0.2595  0.0987 -0.0622
  875MOL0     C18013   4.511   5.219   1.690 -1.2413  0.9333  0.3617
  875MOL0     O18014   4.634   5.197   1.770  0.0992  1.0909  0.1819
  875MOL0     C18015   4.663   5.290   1.862  0.0758 -0.0323  0.5729
  875MOL0     C18016   4.795   5.327   1.875 -1.0366 -0.0077  0.0415
  875MOL0     C18017   4.833   5.429   1.961  0.0507  0.1984  0.3720
  875MOL0     C18018   4.980   5.469   1.965  0.4192  0.0698 -0.2522
  875MOL0     C18019   4.744   5.503   2.043  1.1867  0.0364  0.5533
  875MOL0     C18020   4.768   5.607   2.144 -0.7164 -1.7400  0.2763
  875MOL0     O18021   4.899   5.642   2.187  0.0525  0.0848 -0.2389
  875MOL0     C18022   4.908   5.763   2.248  0.4943 -0.8574 -0.0211
  875MOL0     C18023   4.880   5.784   2.378 -1.2555 -0.4414  0.5849
  875MOL0     C18024   4.918   5.907   2.447  0.3911 -0.1537  0.3899
  875MOL0     C18025   4.976   6.019   2.376 -0.4546  0.1018 -0.6916
  875MOL0     O18026   5.011   6.142   2.426 -0.0703 -0.1695  0.3849
  875MOL0     C18027   4.945   6.191   2.545 -0.0267 -0.1457  0.3162
  875MOL0     C18028   4.801   6.224   2.524  0.7304  0.4134 -0.2256
  875MOL0     C18029   4.789   6.333   2.417  0.9569  0.6625  0.9965
  875MOL0     C18030   4.653   6.319   2.350  0.5593  0.2600  0.4818
  875MOL0     C18031   4.623   6.419   2.245 -0.6239 -0.5735  0.1639
  875MOL0     C18032   4.506   6.385   2.148 -0.6495  0.5237  0.1469
  875MOL0     C18033   4.481   6.516   2.068 -0.4061  0.0088 -0.0287
  875MOL0     C18034   4.395   6.487   1.942 -0.7773 -0.1648 -0.8549
  875MOL0    Cl18035   4.493   6.409   1.812 -0.5093 -1.0241  0.0491
  875MOL0     C18036   4.995   5.998   2.232 -0.8851 -0.5122  0.1914
  875MOL0     C18037   4.957   5.875   2.173 -0.0578  0.1250  0.3701
  875MOL0     O18038   4.670   5.657   2.194  0.3116  0.8054 -0.1194
  875MOL0     C18039   4.600   5.469   2.019 -0.2556  0.0895 -0.3157
  875MOL0     C18040   4.566   5.355   1.935 -0.9395  0.2205  0.1906
  875MOL0     N18041   4.794   4.922   1.270  0.5101 -0.6928 -0.4040
  875MOL0     N18042   4.917   4.916   1.241  0.6603  0.4444  0.3316
  875MOL0     C18043   5.460   3.830   1.261  0.3173  0.0294  0.0481
  875MOL0     C18044   5.512   3.705   1.291  0.8085  0.8816  0.8746
  875MOL0     C18045   5.762   3.390   1.520  0.7878 -0.1970  0.2706
  875MOL0     C18046   5.680   3.289   1.465 -0.8398  0.7390  0.0894
  875MOL0     C18047   5.725   3.153   1.471 -1.4617  0.1231  1.4082
  875MOL0     C18048   5.845   3.115   1.534  0.1447  1.1229 -0.6026
  875MOL0     O18049   5.900   2.996   1.550 -0.0276  0.2930  0.0940
  875MOL0     C18050   5.896   2.895   1.451 -0.4149 -0.0459  0.0437
  875MOL0     C18051   5.993   2.922   1.336  0.2100  0.6179  0.3356
  875MOL0     C18052   5.945   2.848   1.206 -0.0103 -0.1944 -0.9919
  875MOL0     C18053   5.869   2.942   1.123 -0.2138 -0.2531 -0.1108
  875MOL0     C18054   5.788   2.871   1.024 -0.0735  0.5338 -0.4737
  875MOL0     C18055   5.709   2.793   0.976  0.0397 -0.0737  0.5261
  875MOL0     C18056   5.912   3.224   1.602 -0.2281 -0.0365  1.0315
  875MOL0     C18057   5.867   3.356   1.599 -0.1651  1.1288 -0.5211
  875MOL0     H18058   5.544   3.721   1.618  1.5197 -0.3367 -1.1343
  875MOL0     H18059   5.395   3.920   1.583 -1.7772  0.6566 -1.0630
  875MOL0     H18060   5.501   4.155   1.269 -0.2615  1.9283  1.8703
  875MOL0     H18061   5.388   4.088   1.152 -0.9232  0.1393  0.2315
  875MOL0     H18062   5.197   4.236   1.251 -0.8394  0.3555  1.9026
  875MOL0     H18063   5.319   4.290   1.376  0.6782 -0.7597  0.9726
  875MOL0     H18064   5.463   4.388   1.207  0.2318 -1.0068  0.1313
  875MOL0     H18065   5.372   4.323   1.073  0.6192 -0.6465 -0.1501
  875MOL0     H18066   5.249   4.511   1.082  1.8009 -1.7180 -0.1202
  875MOL0     H18067   5.160   4.435   1.208  0.8315  0.2824  1.5229
  875MOL0     H18068   5.296   4.535   1.387  1.2833  0.0396  0.6972
  875MOL0     H18069   5.383   4.631   1.267  0.2943 -0.4665  2.4430
  875MOL0     H18070   5.177   4.734   1.194  5.5581  0.3697 -0.3164
  875MOL0     H18071   5.087   4.633   1.315  0.8194 -1.3506  1.4090
  875MOL0     H18072   5.202   4.753   1.500  0.9696  0.5120  0.8149
  875MOL0     H18073   5.319   4.802   1.388 -1.4425  0.9466  0.4617
  875MOL0     H18074   5.170   4.939   1.258  1.3364 -1.4812 -0.2238
  875MOL0     H18075   5.169   4.988   1.431 -1.2530 -1.7337  2.3178
  875MOL0     H18076   4.918   4.875   1.564 -1.0824 -1.1892  0.2807
  875MOL0     H18077   4.567   4.902   1.408 -3.8737  4.9236  0.2278
  875MOL0     H18078   4.642   4.859   1.561 -2.5147 -1.4501 -1.9797
  875MOL0     H18079   4.612   5.121   1.420 -0.3047 -1.1148 -0.6940
  875MOL0     H18080   4.717   5.109   1.567 -0.2208 -2.1087  1.8536
  875MOL0     H18081   4.506   5.001   1.674 -0.6881  0.5568  0.5532
  875MOL0     H18082   4.410   5.094   1.544 -0.0121  1.0480 -0.3169
  875MOL0     H18083   4.423   5.229   1.754 -1.1595  2.2828  0.2848
  875MOL0     H18084   4.505   5.301   1.618 -2.1041  0.0009 -0.6768
  875MOL0     H18085   4.865   5.296   1.799  0.5818  0.9296  1.0709
  875MOL0     H18086   5.037   5.441   1.876  1.6169  0.9211  0.2308
  875MOL0     H18087   4.981   5.578   1.965 -1.1361  0.1764  2.4055
  875MOL0     H18088   5.035   5.431   2.051 -0.3732  3.4245  1.9098
  875MOL0     H18089   4.863   5.695   2.437  1.2350 -2.9715 -2.1944
  875MOL0     H18090   4.902   5.914   2.554  1.8053 -1.3246  0.7218
  875MOL0     H18091   4.960   6.119   2.626 -1.3056 -1.8642 -0.9091
  875MOL0     H18092   4.974   6.288   2.585 -1.2296  0.1975  0.4034
  875MOL0     H18093   4.761   6.128   2.489 -0.2982 -0.0632  2.1131
  875MOL0     H18094   4.748   6.246   2.617  0.9839 -1.4727  0.4067
  875MOL0     H18095   4.866   6.332   2.340 -1.9237 -0.7402 -2.0902
  875MOL0     H18096   4.787   6.428   2.473 -2.7094 -0.4745  3.1451
  875MOL0     H18097   4.642   6.217   2.312  0.9668  0.6823 -0.7968
  875MOL0     H18098   4.573   6.333   2.424  0.9078  2.7102  0.4803
  875MOL0     H18099   4.716   6.435   2.189 -0.2659  2.6763  1.4566
  875MOL0     H18100   4.603   6.518   2.287 -2.5797  0.2862 -2.5073
  875MOL0     H18101   4.533   6.300   2.084  0.2588  1.1114 -0.2627
  875MOL0     H18102   4.408   6.364   2.193 -0.2643  1.6587  1.5957
  875MOL0     H18103   4.579   6.554   2.036 -0.1822 -1.7662 -1.6221
  875MOL0     H18104   4.436   6.586   2.138  0.5969 -1.2716  1.9978
  875MOL0     H18105   4.371   6.585   1.901  2.3986  1.4407  0.7104
  875MOL0     H18106   4.300   6.435   1.955  0.0134 -1.3162  0.8320
  875MOL0     H18107   5.023   6.087   2.176 -2.6366 -0.6281 -0.9543
  875MOL0     H18108   4.989   5.860   2.070  0.7180 -1.5582  0.8232
  875MOL0     H18109   4.515   5.506   2.077 -0.2889 -2.1974  1.2499
  875MOL0     H18110   4.462   5.322   1.931 -0.8677 -0.1629  1.0704
  875MOL0     H18111   5.472   3.855   1.156  3.2362 -0.2192  0.2477
  875MOL0     H18112   5.545   3.654   1.202  0.0127 -1.2305  1.7294
  875MOL0     H18113   5.586   3.293   1.411 -1.3340 -2.8239  0.4729
  875MOL0     H18114   5.666   3.074   1.426  0.4370 -0.4214 -0.2997
  875MOL0     H18115   5.904   2.802   1.508 -1.6630 -0.3187 -0.1972
  875MOL0     H18116   5.793   2.890   1.415 -0.7753  1.3990  0.7798
  875MOL0     H18117   6.096   2.899   1.364 -0.0288  0.3767  1.0673
  875MOL0     H18118   5.993   3.027   1.306  1.4422 -0.0199 -2.0805
  875MOL0     H18119   5.886   2.759   1.231 -0.0608 -0.0895 -0.7246
  875MOL0     H18120   6.024   2.800   1.148  1.8997  0.4395  0.9361
  875MOL0     H18121   5.940   3.008   1.073  3.1880 -0.8056  3.5223
  875MOL0     H18122   5.806   3.006   1.185 -0.2313 -0.4849  0.1123
  875MOL0     H18123   5.640   2.715   0.953 -1.2508  1.1983 -0.0494
  875MOL0     H18124   6.006   3.215   1.655  1.8734  0.7966 -2.2734
  875MOL0     H18125   5.923   3.430   1.655  0.4167 -1.1395  2.1061
  876MOL0     O18126   4.550   8.946  10.865 -0.1979  0.2907 -0.1735
  876MOL0     C18127   4.553   8.876  10.974 -0.1898 -0.9354  0.5983
  876MOL0     O18128   4.587   8.751  10.984  0.4872 -0.2670 -0.4305
  876MOL0     C18129   4.591   8.680  10.868 -0.7596 -0.2472  0.5705
  876MOL0     C18130   4.517   8.686  10.750  0.0836 -0.4892 -1.1341
  876MOL0     C18131   4.535   8.609  10.636  0.0858 -0.5781 -0.3290
  876MOL0     C18132   4.637   8.509  10.641 -0.7279  0.3145  0.6719
  876MOL0     O18133   4.666   8.429  10.535 -0.6548  0.0084  0.0074
  876MOL0     C18134   4.775   8.464  10.449  0.4244  0.1606  0.5007
  876MOL0     C18135   4.911   8.413  10.505 -0.2033 -0.0957  0.3874
  876MOL0     C18136   5.016   8.436  10.406 -0.4356 -0.1408 -0.2575
  876MOL0     C18137   5.041   8.337  10.292  0.4600 -0.6228  0.4368
  876MOL0     C18138   5.152   8.399  10.207  0.9368 -0.1666 -0.1386
  876MOL0     C18139   5.226   8.286  10.133  0.6548  1.0425  0.0787
  876MOL0     C18140   5.336   8.345  10.052 -0.2001  0.3524 -0.1329
  876MOL0     C18141   5.421   8.241   9.987  0.2965 -0.3024  0.0307
  876MOL0     N18142   5.475   8.136  10.061  0.1122  0.3719 -0.1567
  876MOL0     C18143   5.479   7.999  10.014  0.3397  0.4178 -0.0482
  876MOL0     C18144   5.564   7.938  10.099 -0.0425 -1.1706 -0.8151
  876MOL0     C18145   5.588   7.789  10.113  0.4299  1.0998 -0.2111
  876MOL0     C18146   5.456   7.705  10.100 -0.2485 -0.8424  0.2431
  876MOL0     C18147   5.492   7.565  10.155 -0.4451  0.0498  0.2285
  876MOL0     C18148   5.385   7.464  10.152  0.0041  0.1704  0.3850
  876MOL0     O18149   5.420   7.349  10.233 -0.2713 -0.1423 -0.0572
  876MOL0     C18150   5.336   7.243  10.264 -0.0803  0.4279  0.1813
  876MOL0     C18151   5.203   7.231  10.210 -0.1572  0.5113  0.6048
  876MOL0     C18152   5.121   7.121  10.234  0.5237  0.7322  0.8181
  876MOL0     C18153   4.983   7.104  10.170  1.1208 -0.0832 -0.1663
  876MOL0     C18154   5.175   7.016  10.306  0.8379  0.1546 -0.0299
  876MOL0     C18155   5.087   6.906  10.353  0.0204  0.7988 -0.2524
  876MOL0     O18156   5.127   6.853  10.475 -0.2528  0.2746 -0.4789
  876MOL0     C18157   5.051   6.752  10.523  0.1853  0.4745  0.1386
  876MOL0     C18158   5.025   6.627  10.457  0.3903  0.0410  0.1918
  876MOL0     C18159   4.927   6.541  10.494  1.3284 -0.0547  0.3546
  876MOL0     C18160   4.854   6.556  10.613 -0.1599  0.0851  0.7286
  876MOL0     O18161   4.760   6.457  10.647  0.2807  1.0231 -0.0052
  876MOL0     C18162   4.655   6.511  10.734  0.0535  0.4656  0.6779
  876MOL0     C18163   4.545   6.410  10.756 -0.6513  1.0413 -0.1740
  876MOL0     C18164   4.412   6.475  10.795 -0.5554 -0.7023 -0.0882
  876MOL0     C18165   4.428   6.565  10.917 -0.5858  1.2050  1.1159
  876MOL0     C18166   4.307   6.571  11.009  0.8343 -0.5715  0.1240
  876MOL0     C18167   4.337   6.644  11.139 -0.6672  0.6741 -0.6624
  876MOL0     C18168   4.349   6.793  11.130 -0.9400 -0.1956  0.2101
  876MOL0     C18169   4.440   6.850  11.239  0.5729 -0.0899  0.0607
  876MOL0    Cl18170   4.352   6.866  11.389  0.0858 -0.6428  0.0359
  876MOL0     C18171   4.870   6.681  10.676 -0.9368  1.0460  0.0810
  876MOL0     C18172   4.964   6.773  10.632 -0.9715 -0.0712  0.5712
  876MOL0     O18173   5.003   6.851  10.288  0.3454  0.2488  0.1817
  876MOL0     C18174   5.305   7.021  10.351  0.0915 -0.4437 -0.1679
  876MOL0     C18175   5.385   7.141  10.344  0.3026  0.2281  0.6611
  876MOL0     N18176   5.609   8.035  10.193 -0.0553 -0.3407  0.2790
  876MOL0     N18177   5.563   8.149  10.161  0.2149  0.7120  0.3608
  876MOL0     C18178   4.712   8.494  10.760 -0.2589  0.7286 -0.0771
  876MOL0     C18179   4.696   8.583  10.868  0.6005 -0.6033 -0.1489
  876MOL0     C18180   4.542   8.948  11.109  0.1043 -0.2871  0.1184
  876MOL0     C18181   4.479   9.069  11.108 -0.0457  0.6180  0.2154
  876MOL0     C18182   4.486   9.156  11.216 -0.1370  0.8969  0.3589
  876MOL0     C18183   4.534   9.107  11.346  0.1107 -0.8362 -0.5510
  876MOL0     O18184   4.521   9.191  11.452  0.4503  0.1817  0.2089
  876MOL0     C18185   4.617   9.168  11.559 -0.1070 -1.0607  0.8046
  876MOL0     C18186   4.575   9.261  11.678  0.6080 -1.4806 -0.1638
  876MOL0     C18187   4.452   9.216  11.746  0.7079  0.2185 -0.4196
  876MOL0     C18188   4.393   9.311  11.858 -0.2057 -0.0280  0.2692
  876MOL0     C18189   4.340   9.427  11.788 -0.7138  0.8974  0.5213
  876MOL0     C18190   4.293   9.532  11.739  0.4594 -0.3427 -0.3317
  876MOL0     C18191   4.580   8.969  11.357 -0.1549  0.4110  0.1730
  876MOL0     C18192   4.590   8.900  11.232  0.2247  0.9452 -0.7475
  876MOL0     H18193   4.440   8.762  10.733 -0.7539 -1.1465 -0.3720
  876MOL0     H18194   4.471   8.620  10.550  0.1849  2.1388 -0.1348
  876MOL0     H18195   4.751   8.409  10.358 -1.5334 -1.4950  1.9108
  876MOL0     H18196   4.763   8.571  10.433 -3.3803  0.1740  2.4061
  876MOL0     H18197   4.937   8.471  10.594 -1.5612 -0.1974  0.8756
  876MOL0     H18198   4.902   8.307  10.527 -2.4277  0.1776  0.9905
  876MOL0     H18199   5.008   8.535  10.359  2.4718 -0.3434 -1.4002
  876MOL0     H18200   5.113   8.434  10.457  0.8977  0.8738 -2.5724
  876MOL0     H18201   5.069   8.239  10.332  0.9371 -1.5855 -2.0632
  876MOL0     H18202   4.945   8.323  10.241  1.3921 -0.7613 -1.3937
  876MOL0     H18203   5.127   8.479  10.137 -0.8257 -0.9750 -0.4919
  876MOL0     H18204   5.220   8.446  10.279  1.9625 -0.0311 -1.1592
  876MOL0     H18205   5.268   8.219  10.208 -2.6592  0.2421  1.3787
  876MOL0     H18206   5.162   8.231  10.063 -0.8452 -0.5066  2.5496
  876MOL0     H18207   5.290   8.403   9.971  0.7419  2.3845  0.7218
  876MOL0     H18208   5.394   8.425  10.099  1.3454  0.5826 -2.2534
  876MOL0     H18209   5.490   8.298   9.925  0.3647 -1.3308 -0.8779
  876MOL0     H18210   5.355   8.192   9.915  1.2399 -1.5627 -0.0189
  876MOL0     H18211   5.428   7.939   9.940  0.6278 -0.9549  0.8264
  876MOL0     H18212   5.653   7.767  10.028  0.2975 -0.7664  0.1290
  876MOL0     H18213   5.642   7.760  10.204  1.1129 -2.5182 -1.5860
  876MOL0     H18214   5.432   7.704   9.993 -0.8137  0.4365  0.3420
  876MOL0     H18215   5.375   7.751  10.158  1.0673  1.3053  0.5239
  876MOL0     H18216   5.545   7.564  10.251  0.0823 -3.7996  0.0415
  876MOL0     H18217   5.565   7.525  10.084 -1.4849  0.1064 -0.8868
  876MOL0     H18218   5.358   7.425  10.053 -0.1105  0.2416  0.3880
  876MOL0     H18219   5.301   7.519  10.195  0.4156  1.0268  0.1156
  876MOL0     H18220   5.168   7.306  10.139 -0.3601 -1.3964 -1.4298
  876MOL0     H18221   4.980   7.016  10.106 -0.3207 -2.9831  3.5360
  876MOL0     H18222   4.893   7.097  10.232  2.0716  1.8574  1.5531
  876MOL0     H18223   4.960   7.186  10.101  0.0952  0.5363  0.8712
  876MOL0     H18224   5.075   6.611  10.362  1.5663  0.8929  0.6561
  876MOL0     H18225   4.907   6.451  10.436  0.6056  0.4381 -0.1755
  876MOL0     H18226   4.699   6.528  10.832  2.1252 -2.7884  0.4573
  876MOL0     H18227   4.616   6.608  10.701 -1.9262  0.9863  4.1649
  876MOL0     H18228   4.533   6.355  10.662  1.2875  0.8420 -0.3376
  876MOL0     H18229   4.583   6.331  10.821 -2.6377  1.9465  2.2700
  876MOL0     H18230   4.347   6.390  10.818  0.0091 -1.4226 -1.0832
  876MOL0     H18231   4.362   6.532  10.717 -1.8932  0.6061  1.6199
  876MOL0     H18232   4.521   6.529  10.962 -0.9967 -2.3675 -0.6142
  876MOL0     H18233   4.452   6.662  10.871  1.3008 -0.9075 -2.8273
  876MOL0     H18234   4.274   6.470  11.036  2.5349 -1.2559 -0.1760
  876MOL0     H18235   4.228   6.628  10.960 -0.4096  2.3244  4.8407
  876MOL0     H18236   4.253   6.619  11.205  1.7971  2.2123  3.4189
  876MOL0     H18237   4.418   6.596  11.194  1.2872  3.7749 -0.5960
  876MOL0     H18238   4.252   6.843  11.129 -1.4426 -0.9987  2.5604
  876MOL0     H18239   4.403   6.803  11.036 -0.1558 -3.9312  0.1037
  876MOL0     H18240   4.468   6.949  11.201  0.4225  1.1671  2.9867
  876MOL0     H18241   4.524   6.780  11.252 -0.6011 -1.7604 -0.8929
  876MOL0     H18242   4.816   6.685  10.770 -2.0037 -2.5055 -0.2369
  876MOL0     H18243   4.984   6.860  10.693 -1.2326  0.5612 -0.2245
  876MOL0     H18244   5.345   6.950  10.423 -0.2669  0.4676  0.9468
  876MOL0     H18245   5.487   7.133  10.380 -0.3121  0.4766  2.6137
  876MOL0     H18246   4.789   8.417  10.762 -0.0600  0.9351  1.2560
  876MOL0     H18247   4.763   8.581  10.953  2.1443  0.8009 -1.2804
  876MOL0     H18248   4.452   9.121  11.017  1.4638 -1.1597 -1.3454
  876MOL0     H18249   4.430   9.248  11.197  0.2024  0.6255 -2.4187
  876MOL0     H18250   4.608   9.063  11.591  0.0746 -0.9895  1.0890
  876MOL0     H18251   4.717   9.194  11.524 -1.0901  0.6476 -0.9340
  876MOL0     H18252   4.561   9.364  11.645  0.3392 -1.3152  0.4488
  876MOL0     H18253   4.655   9.276  11.751 -0.3515 -2.1058  1.0456
  876MOL0     H18254   4.473   9.121  11.795 -0.1577  1.9541  3.8058
  876MOL0     H18255   4.366   9.207  11.679  1.2056 -0.1860 -1.0024
  876MOL0     H18256   4.475   9.353  11.916 -1.3533 -1.3004  2.9523
  876MOL0     H18257   4.328   9.259  11.929 -0.1958  0.7237  0.8447
  876MOL0     H18258   4.267   9.628  11.699  0.0920 -0.9768 -1.6458
  876MOL0     H18259   4.613   8.916  11.445  1.3465 -1.4455 -1.4174
  876MOL0     H18260   4.642   8.805  11.233 -3.5142 -1.3517  1.6040
  877MOL0     O18261   6.619   2.561   0.166  0.9571  0.3410 -0.2028
  877MOL0     C18262   6.724   2.593   0.213  1.2260  0.5753 -0.0325
  877MOL0     O18263   6.797   2.508   0.304  0.5888 -0.4192  0.4289
  877MOL0     C18264   6.745   2.393   0.357 -0.0296 -0.5259 -0.9712
  877MOL0     C18265   6.812   2.266   0.332  1.1103 -0.3611  0.3255
  877MOL0     C18266   6.768   2.148   0.382  0.3862  0.6488  0.6050
  877MOL0     C18267   6.661   2.146   0.471  0.6818 -0.5563 -0.3805
  877MOL0     O18268   6.621   2.038   0.537  0.1858 -0.3594  0.7184
  877MOL0     C18269   6.615   1.917   0.466 -0.1667 -0.1120 -0.0470
  877MOL0     C18270   6.736   1.833   0.519 -0.2245  0.0834 -0.2509
  877MOL0     C18271   6.745   1.699   0.455 -0.2574 -0.3780 -0.0723
  877MOL0     C18272   6.821   1.708   0.307 -0.4417 -0.2735 -0.1280
  877MOL0     C18273   6.800   1.582   0.220 -0.4550 -0.3472 -0.2457
  877MOL0     C18274   6.854   1.609   0.082  0.5607 -0.0293 -0.5845
  877MOL0     C18275   6.864   1.474  -0.003 -0.3147  0.2894 -0.0235
  877MOL0     C18276   6.969   1.494  -0.113  0.4350 -0.1100 -0.4698
  877MOL0     N18277   6.927   1.590  -0.215 -0.4748  0.0795  0.1464
  877MOL0     C18278   6.948   1.723  -0.207 -0.0668  0.0497 -0.2520
  877MOL0     C18279   6.865   1.782  -0.290  0.4023  0.4612  0.0841
  877MOL0     C18280   6.857   1.918  -0.324 -0.1011 -0.2164  0.6998
  877MOL0     C18281   6.970   1.957  -0.429  0.7368  0.0291  0.3934
  877MOL0     C18282   6.919   2.049  -0.542  0.3968 -0.1610 -0.2627
  877MOL0     C18283   6.813   1.982  -0.633  0.5735  0.0335  0.0578
  877MOL0     O18284   6.799   2.072  -0.748 -0.0705  0.6697  0.5263
  877MOL0     C18285   6.734   2.199  -0.743  0.4389  0.0901  1.1356
  877MOL0     C18286   6.684   2.269  -0.630 -0.0470 -0.4215  0.1963
  877MOL0     C18287   6.618   2.394  -0.652 -0.1930  0.1870 -0.8542
  877MOL0     C18288   6.561   2.451  -0.526  0.2442  0.2166  0.1520
  877MOL0     C18289   6.593   2.448  -0.781 -0.0613  0.6309 -0.6252
  877MOL0     C18290   6.535   2.579  -0.816  0.7350  0.0370 -0.2151
  877MOL0     O18291   6.539   2.600  -0.946 -0.1343  0.0426  0.2098
  877MOL0     C18292   6.447   2.681  -1.011  0.1764 -0.3112 -0.7007
  877MOL0     C18293   6.312   2.660  -0.994  0.5887  0.6674 -0.1291
  877MOL0     C18294   6.221   2.729  -1.081 -0.0263 -0.6775 -0.0691
  877MOL0     C18295   6.266   2.832  -1.169  0.5329  0.8717  0.0895
  877MOL0     O18296   6.177   2.893  -1.255 -0.3056 -0.2610  0.5224
  877MOL0     C18297   6.035   2.868  -1.254 -0.0102 -0.4631  0.1193
  877MOL0     C18298   5.969   2.968  -1.341  0.6375  0.3970 -0.6253
  877MOL0     C18299   6.038   3.000  -1.474 -0.1107  0.1521 -0.2878
  877MOL0     C18300   5.931   3.064  -1.567 -0.4755 -0.7515 -0.5183
  877MOL0     C18301   5.920   3.222  -1.580  0.0158  0.7351 -0.2244
  877MOL0     C18302   5.778   3.261  -1.566 -0.9259  0.5262  0.2919
  877MOL0     C18303   5.744   3.396  -1.628  0.4095  0.5935  0.6872
  877MOL0     C18304   5.827   3.512  -1.575 -0.1266 -0.1256  0.0834
  877MOL0    Cl18305   5.782   3.539  -1.402 -0.3125 -0.1066  0.2787
  877MOL0     C18306   6.408   2.850  -1.176 -0.0845  0.3612 -0.3174
  877MOL0     C18307   6.494   2.776  -1.102 -0.4562  1.0493  0.0898
  877MOL0     O18308   6.477   2.650  -0.735  0.3788  0.2330  0.0183
  877MOL0     C18309   6.635   2.365  -0.892  0.0923  0.1201  0.3721
  877MOL0     C18310   6.713   2.250  -0.869  0.5848 -0.5016  0.0926
  877MOL0     N18311   6.798   1.685  -0.359  0.5845 -1.5657  0.1408
  877MOL0     N18312   6.830   1.576  -0.308 -1.1680 -0.0616  0.5026
  877MOL0     C18313   6.601   2.268   0.502  0.3714  0.5405 -0.7717
  877MOL0     C18314   6.639   2.390   0.448  0.3582 -2.0387 -0.2707
  877MOL0     C18315   6.788   2.721   0.171 -0.0429  1.7247 -0.0829
  877MOL0     C18316   6.891   2.772   0.245  0.6817 -0.1025 -1.1950
  877MOL0     C18317   6.974   2.881   0.207 -0.3877 -0.0289  0.4898
  877MOL0     C18318   6.943   2.936   0.083 -1.2346  0.0704 -0.1442
  877MOL0     O18319   7.007   3.043   0.022  0.0520  0.7180 -0.1612
  877MOL0     C18320   7.136   3.070   0.077 -0.2702  0.4938 -0.5393
  877MOL0     C18321   7.193   3.173  -0.015 -0.0128  0.2664  0.1512
  877MOL0     C18322   7.338   3.195   0.016  0.4387 -0.2430 -0.1514
  877MOL0     C18323   7.387   3.328  -0.048  0.5040 -0.4398 -0.1582
  877MOL0     C18324   7.349   3.441   0.042 -0.5676 -0.2571 -0.0661
  877MOL0     C18325   7.311   3.538   0.108 -0.0223 -0.0504  0.1534
  877MOL0     C18326   6.832   2.885   0.011 -0.6490  0.6777  1.2054
  877MOL0     C18327   6.755   2.781   0.051 -0.0932  1.4573  0.4027
  877MOL0     H18328   6.897   2.278   0.266  0.8504  0.5272  0.1307
  877MOL0     H18329   6.813   2.053   0.355  1.7184  1.5820 -0.6310
  877MOL0     H18330   6.522   1.868   0.495  0.5482 -2.0867 -0.9404
  877MOL0     H18331   6.614   1.915   0.357  1.5201 -0.9120 -0.0802
  877MOL0     H18332   6.830   1.887   0.505 -1.0506  0.8279 -3.9690
  877MOL0     H18333   6.721   1.824   0.627 -1.7583 -2.4284 -0.5963
  877MOL0     H18334   6.808   1.642   0.523 -0.9266 -0.6624  0.3124
  877MOL0     H18335   6.650   1.647   0.439  0.9615 -2.4867 -0.8631
  877MOL0     H18336   6.773   1.786   0.246 -1.0182 -0.5759 -0.0684
  877MOL0     H18337   6.924   1.741   0.323 -0.2381 -1.4099  1.1129
  877MOL0     H18338   6.829   1.496   0.280 -1.4687 -0.7385 -0.2967
  877MOL0     H18339   6.691   1.568   0.215 -0.8402  2.1853 -0.5830
  877MOL0     H18340   6.791   1.681   0.029  1.0039 -1.1243 -2.7176
  877MOL0     H18341   6.954   1.654   0.085  1.6764 -2.3779 -0.0951
  877MOL0     H18342   6.907   1.398   0.063  2.9152  1.8242 -0.1651
  877MOL0     H18343   6.762   1.443  -0.025 -0.8317 -0.5768  3.0753
  877MOL0     H18344   6.968   1.398  -0.167  2.0840  0.0135 -0.7850
  877MOL0     H18345   7.068   1.524  -0.076  0.0900 -0.4325  0.7931
  877MOL0     H18346   7.026   1.769  -0.146  0.0740 -0.5625  0.0425
  877MOL0     H18347   6.755   1.937  -0.358  0.7605 -0.1588 -2.1571
  877MOL0     H18348   6.868   1.988  -0.241  2.5972 -0.5145  0.6753
  877MOL0     H18349   7.008   1.864  -0.472 -1.0448 -0.1914 -0.8009
  877MOL0     H18350   7.051   2.017  -0.386  0.8813  0.7895 -0.8792
  877MOL0     H18351   7.001   2.089  -0.602 -1.4583 -0.5616 -3.2556
  877MOL0     H18352   6.876   2.139  -0.497  2.8239  1.5121 -1.1396
  877MOL0     H18353   6.714   1.985  -0.586 -0.3060  0.2556 -1.7009
  877MOL0     H18354   6.831   1.878  -0.662 -1.5151 -0.1401 -0.7575
  877MOL0     H18355   6.688   2.226  -0.530  0.4030  0.5836  0.6288
  877MOL0     H18356   6.629   2.425  -0.445 -0.6599  2.7890  1.8466
  877MOL0     H18357   6.542   2.558  -0.520  0.0993  0.1500  0.9815
  877MOL0     H18358   6.463   2.405  -0.510  0.4764  0.4761  2.6773
  877MOL0     H18359   6.282   2.583  -0.923  0.7247 -0.3283 -1.1134
  877MOL0     H18360   6.117   2.700  -1.085 -0.5807  0.6942  2.3749
  877MOL0     H18361   6.022   2.771  -1.302 -1.5026 -0.6798  0.8949
  877MOL0     H18362   5.995   2.872  -1.152  0.6178 -0.7964  0.3827
  877MOL0     H18363   5.871   2.920  -1.352  0.7196 -0.3325  1.4927
  877MOL0     H18364   5.937   3.064  -1.299  2.3826  0.7505 -0.0287
  877MOL0     H18365   6.066   2.899  -1.507  1.9292 -0.1887  2.1621
  877MOL0     H18366   6.128   3.063  -1.470  0.7601 -0.7310 -3.3811
  877MOL0     H18367   5.952   3.041  -1.672  1.6380  0.9118 -0.5305
  877MOL0     H18368   5.833   3.018  -1.559 -0.4056 -0.7396  0.6175
  877MOL0     H18369   5.970   3.265  -1.667  0.7372  0.1955 -0.0913
  877MOL0     H18370   5.982   3.261  -1.499 -0.3932 -1.5421  1.2994
  877MOL0     H18371   5.726   3.188  -1.630 -0.8550 -0.1721  1.0169
  877MOL0     H18372   5.748   3.256  -1.461  0.6783  0.6043  0.7861
  877MOL0     H18373   5.641   3.413  -1.597  0.9588 -1.4564  4.1575
  877MOL0     H18374   5.754   3.374  -1.734  1.3950 -1.7191  1.1871
  877MOL0     H18375   5.787   3.598  -1.629 -0.6868  0.2233  1.0301
  877MOL0     H18376   5.935   3.506  -1.587 -0.2912 -0.5348 -1.3229
  877MOL0     H18377   6.443   2.904  -1.264  1.1809  1.1148  0.6254
  877MOL0     H18378   6.602   2.787  -1.106 -0.3109 -0.4876 -1.3533
  877MOL0     H18379   6.629   2.398  -0.996  0.1020 -3.8010 -1.0340
  877MOL0     H18380   6.759   2.190  -0.947  1.1125  1.6228 -1.3183
  877MOL0     H18381   6.515   2.279   0.568  1.3571  0.5166  0.5544
  877MOL0     H18382   6.591   2.486   0.468  1.4024 -1.4835 -0.3704
  877MOL0     H18383   6.933   2.718   0.329  0.8026  1.3623 -0.2684
  877MOL0     H18384   7.036   2.928   0.284  0.5484 -3.7046  2.1945
  877MOL0     H18385   7.134   3.120   0.175 -0.9043  3.1132 -1.7993
  877MOL0     H18386   7.195   2.980   0.098  1.1577  1.3773 -0.6250
  877MOL0     H18387   7.138   3.267  -0.002 -1.7935 -0.7264  0.2444
  877MOL0     H18388   7.191   3.139  -0.119 -0.6757 -1.5174  0.7007
  877MOL0     H18389   7.398   3.113  -0.026 -0.1165 -0.9998  0.5018
  877MOL0     H18390   7.354   3.194   0.124 -5.4698  2.2993  1.1616
  877MOL0     H18391   7.337   3.343  -0.144 -2.1542 -1.9061  0.8808
  877MOL0     H18392   7.495   3.317  -0.060  0.8152  0.0032  1.8025
  877MOL0     H18393   7.278   3.612   0.178 -1.4489 -0.6111  0.1035
  877MOL0     H18394   6.807   2.944  -0.077  2.1543  2.2410  1.3043
  877MOL0     H18395   6.674   2.739  -0.007  1.6902 -1.5348 -0.1125
  878MOL0     O18396   9.303   3.169   4.062  0.3593 -0.3980 -0.2427
  878MOL0     C18397   9.284   3.251   3.970  0.8588  0.2703  0.2722
  878MOL0     O18398   9.296   3.226   3.837  0.2022 -0.6422  0.0335
  878MOL0     C18399   9.312   3.100   3.794  0.1091 -0.5895 -0.1946
  878MOL0     C18400   9.443   3.049   3.769 -0.4596 -0.6525  0.1465
  878MOL0     C18401   9.452   2.920   3.713  0.0678 -0.0851 -1.3709
  878MOL0     C18402   9.338   2.845   3.679  0.0662 -0.2719  0.1576
  878MOL0     O18403   9.351   2.716   3.644  0.0165  0.0237  0.3003
  878MOL0     C18404   9.333   2.616   3.747  0.3296  0.0311 -0.1960
  878MOL0     C18405   9.307   2.476   3.689 -0.8406  0.1811 -0.1674
  878MOL0     C18406   9.155   2.452   3.662  0.8593  0.6847  0.3217
  878MOL0     C18407   9.129   2.320   3.588  0.7158  0.1072 -0.5428
  878MOL0     C18408   9.151   2.337   3.444 -0.0575 -0.0458  0.6707
  878MOL0     C18409   9.082   2.215   3.371  0.6692  1.0891 -0.0050
  878MOL0     C18410   9.129   2.221   3.222 -0.3732 -0.5452 -0.2351
  878MOL0     C18411   9.274   2.167   3.203  0.0864 -1.0232 -0.9639
  878MOL0     N18412   9.290   2.100   3.074 -0.0952 -0.5641 -0.5791
  878MOL0     C18413   9.273   2.165   2.946  0.2990 -0.2518 -0.2498
  878MOL0     C18414   9.308   2.073   2.858 -0.4210 -0.0233 -0.1355
  878MOL0     C18415   9.306   2.086   2.705  0.4175  0.0928 -0.0789
  878MOL0     C18416   9.147   2.082   2.677  0.3398 -0.0940 -0.6098
  878MOL0     C18417   9.118   2.148   2.543  0.1297 -0.0765 -0.1698
  878MOL0     C18418   9.195   2.079   2.431 -0.0156 -0.5787 -0.8563
  878MOL0     O18419   9.154   2.118   2.300  0.0667 -0.7759 -0.9132
  878MOL0     C18420   9.230   2.069   2.200 -0.2082  0.8815  0.9000
  878MOL0     C18421   9.319   1.961   2.193 -0.2613 -0.1036 -0.2168
  878MOL0     C18422   9.389   1.929   2.079 -1.3302  0.0397 -0.2288
  878MOL0     C18423   9.499   1.826   2.081  0.1182 -0.3846 -0.5951
  878MOL0     C18424   9.367   2.007   1.958  0.8943  0.8530 -0.7764
  878MOL0     C18425   9.433   1.984   1.825  1.0042 -0.2190  0.2095
  878MOL0     O18426   9.553   1.929   1.814  0.1043 -0.4091 -0.8334
  878MOL0     C18427   9.646   1.971   1.724 -0.6321  0.9408  0.1171
  878MOL0     C18428   9.775   1.983   1.776  0.3588 -0.0249  0.1723
  878MOL0     C18429   9.883   2.006   1.693  0.5068 -0.9266 -0.4540
  878MOL0     C18430   9.866   2.006   1.555  0.7768 -0.6843 -0.0329
  878MOL0     O18431   9.985   2.032   1.486 -0.4488 -0.6352  0.3200
  878MOL0     C18432   9.980   2.066   1.351 -0.0601  0.9634  0.4074
  878MOL0     C18433  10.116   2.118   1.291 -0.5531 -0.4960 -0.2368
  878MOL0     C18434  10.124   2.123   1.143 -0.2360  0.4926  0.8212
  878MOL0     C18435  10.057   2.248   1.076 -0.3025  0.2045 -0.5876
  878MOL0     C18436  10.048   2.254   0.919 -0.4228 -0.6059 -0.9783
  878MOL0     C18437   9.968   2.152   0.849 -1.1045  0.4795  0.0569
  878MOL0     C18438   9.959   2.183   0.694 -0.9260  0.5719 -0.6394
  878MOL0     C18439   9.882   2.316   0.659  0.2942 -0.7689 -0.4546
  878MOL0    Cl18440   9.712   2.298   0.720  0.0630 -0.4165  0.1783
  878MOL0     C18441   9.738   1.978   1.494 -1.0881 -0.0222 -1.2197
  878MOL0     C18442   9.631   1.966   1.586  0.2826  1.3563 -1.1409
  878MOL0     O18443   9.363   2.013   1.725  0.3874 -0.8104  0.2571
  878MOL0     C18444   9.268   2.105   1.973  0.2267  0.2014  0.4016
  878MOL0     C18445   9.194   2.129   2.090 -0.0823  0.7300  1.0493
  878MOL0     N18446   9.326   1.949   2.925  0.1058 -0.1250 -0.1611
  878MOL0     N18447   9.302   1.967   3.048  0.9386 -0.4873 -0.5068
  878MOL0     C18448   9.209   2.896   3.705  0.3616 -0.5832 -0.2384
  878MOL0     C18449   9.200   3.027   3.765 -0.1321 -0.1006  0.2544
  878MOL0     C18450   9.221   3.382   3.998 -0.4918 -0.0371 -0.4239
  878MOL0     C18451   9.229   3.486   3.899  0.4058 -0.5574 -0.3647
  878MOL0     C18452   9.179   3.608   3.933  0.4147  0.6404 -1.1173
  878MOL0     C18453   9.130   3.634   4.063  0.1228  0.3792 -0.1836
  878MOL0     O18454   9.095   3.762   4.088 -0.5900 -0.0897 -0.3558
  878MOL0     C18455   9.024   3.794   4.211 -0.6434 -0.5367  0.6737
  878MOL0     C18456   9.115   3.875   4.308  0.2412 -0.2361  0.1900
  878MOL0     C18457   9.036   3.928   4.436 -0.1931  0.3404 -0.6203
  878MOL0     C18458   9.078   3.859   4.562 -0.6077  0.3719 -0.0471
  878MOL0     C18459   9.056   3.711   4.566  0.2918 -0.4173  0.5966
  878MOL0     C18460   9.033   3.591   4.553  0.1841  0.4311  0.3996
  878MOL0     C18461   9.129   3.535   4.159 -0.7760  0.0849  1.3336
  878MOL0     C18462   9.169   3.410   4.124 -1.3259  0.8503  0.6591
  878MOL0     H18463   9.528   3.111   3.796 -0.7601  0.5166 -1.4511
  878MOL0     H18464   9.554   2.895   3.687  0.7894  2.0971 -0.8232
  878MOL0     H18465   9.413   2.612   3.821 -0.5798  1.5295  0.9280
  878MOL0     H18466   9.234   2.639   3.788  0.6548  0.0092  0.6223
  878MOL0     H18467   9.368   2.467   3.599  0.3570  2.3672  0.3453
  878MOL0     H18468   9.359   2.409   3.758  0.5243  1.9644  0.6327
  878MOL0     H18469   9.092   2.460   3.751  1.6616 -0.4746  1.0233
  878MOL0     H18470   9.112   2.525   3.592  2.1553  1.5387  0.3687
  878MOL0     H18471   9.191   2.240   3.631  1.5694  1.1250  0.1831
  878MOL0     H18472   9.026   2.294   3.610 -0.5276  3.5466 -1.7063
  878MOL0     H18473   9.112   2.427   3.397 -1.3910 -0.2778  1.2684
  878MOL0     H18474   9.260   2.337   3.433  0.2043 -2.1673  2.4400
  878MOL0     H18475   9.107   2.120   3.418 -3.9337 -0.2849  0.1507
  878MOL0     H18476   8.973   2.225   3.374  0.2591 -2.3902  0.6074
  878MOL0     H18477   9.052   2.162   3.172  0.0351 -1.7210  0.4854
  878MOL0     H18478   9.128   2.320   3.176  0.7695  1.2049  3.1454
  878MOL0     H18479   9.310   2.098   3.280  0.7713 -1.2778 -1.5013
  878MOL0     H18480   9.348   2.247   3.197 -1.6093  0.5673 -1.8333
  878MOL0     H18481   9.241   2.268   2.934 -1.5918 -0.6801  0.7599
  878MOL0     H18482   9.359   2.176   2.672  0.0735  0.7476  1.0852
  878MOL0     H18483   9.358   2.002   2.658  0.6725  0.4073 -0.3586
  878MOL0     H18484   9.086   2.122   2.757 -1.0165 -1.1138 -1.1002
  878MOL0     H18485   9.118   1.977   2.663  0.8641 -0.2022 -0.9229
  878MOL0     H18486   9.157   2.251   2.541  2.9366 -1.0481 -1.5948
  878MOL0     H18487   9.012   2.150   2.515  0.0367  0.0720  0.1818
  878MOL0     H18488   9.186   1.971   2.445  0.6611 -0.5963 -0.4914
  878MOL0     H18489   9.300   2.111   2.440 -0.2407  0.0938 -0.5569
  878MOL0     H18490   9.331   1.909   2.287 -0.5373 -0.8490 -0.5879
  878MOL0     H18491   9.596   1.873   2.063 -0.4371  0.9858 -0.1427
  878MOL0     H18492   9.503   1.775   2.177  1.0047 -1.3321 -1.1164
  878MOL0     H18493   9.485   1.751   2.003 -1.4774 -1.0382  0.2795
  878MOL0     H18494   9.761   1.973   1.883  4.3381 -1.9898  0.7163
  878MOL0     H18495   9.978   2.029   1.740  0.1940  0.0095 -0.2674
  878MOL0     H18496   9.948   1.976   1.299  0.9397 -0.2460  1.7885
  878MOL0     H18497   9.909   2.148   1.349  0.1193  1.1481  1.0915
  878MOL0     H18498  10.136   2.223   1.315 -1.4893  0.1301 -2.0178
  878MOL0     H18499  10.199   2.060   1.331 -2.4735  0.1892  5.7359
  878MOL0     H18500  10.071   2.036   1.104 -2.5374  2.0583  0.2308
  878MOL0     H18501  10.231   2.128   1.123 -0.2089  0.8092  1.0413
  878MOL0     H18502   9.953   2.256   1.109 -0.4158  0.3598 -0.9852
  878MOL0     H18503  10.106   2.342   1.103 -0.2339  1.2852 -3.9762
  878MOL0     H18504  10.147   2.259   0.873 -0.8848 -1.2717 -2.0941
  878MOL0     H18505  10.011   2.353   0.892  2.8675  2.0229  2.9206
  878MOL0     H18506  10.016   2.055   0.860 -2.0561  0.2400  3.2072
  878MOL0     H18507   9.864   2.140   0.882 -2.1069 -1.2759 -3.2778
  878MOL0     H18508   9.923   2.099   0.634  2.8925 -1.0698 -0.9653
  878MOL0     H18509  10.060   2.205   0.656 -1.1695  0.6035 -1.2861
  878MOL0     H18510   9.875   2.328   0.551  1.5562  5.2140 -0.2064
  878MOL0     H18511   9.926   2.405   0.704 -1.2537 -0.5400  0.6766
  878MOL0     H18512   9.712   1.958   1.391 -0.2524 -3.5509 -0.8460
  878MOL0     H18513   9.532   1.944   1.546 -0.7195 -0.5749  2.0649
  878MOL0     H18514   9.228   2.158   1.887 -1.8786 -0.5323  0.8718
  878MOL0     H18515   9.111   2.199   2.101 -1.0440  0.1365 -1.6034
  878MOL0     H18516   9.124   2.828   3.698  1.4281 -1.9493 -0.3680
  878MOL0     H18517   9.104   3.075   3.784  0.3602  0.2074  2.1589
  878MOL0     H18518   9.284   3.465   3.808  1.7826 -1.3314  0.6129
  878MOL0     H18519   9.153   3.679   3.855 -4.9991  0.2333 -0.0473
  878MOL0     H18520   8.949   3.871   4.192  0.0277  0.3296  1.4258
  878MOL0     H18521   8.991   3.702   4.261  1.6904  0.3301  4.1944
  878MOL0     H18522   9.159   3.960   4.255 -0.6458  0.5589  0.6896
  878MOL0     H18523   9.197   3.808   4.333  0.7661  0.8499  1.4910
  878MOL0     H18524   8.928   3.913   4.427 -0.1613  1.1889 -2.9589
  878MOL0     H18525   9.052   4.035   4.447  1.1220  0.2078 -1.1071
  878MOL0     H18526   9.016   3.904   4.640 -2.2131  0.3476 -1.2769
  878MOL0     H18527   9.184   3.873   4.587 -0.8743  1.3644  0.5896
  878MOL0     H18528   8.992   3.495   4.529  1.0545  0.3304 -0.7393
  878MOL0     H18529   9.095   3.552   4.260 -4.1393  2.3356 -0.0284
  878MOL0     H18530   9.164   3.326   4.193 -4.0092 -1.1242 -1.6972
  879MOL0     O18531   9.462   1.374   8.261  0.7893 -0.3962 -0.8018
  879MOL0     C18532   9.498   1.333   8.146  0.4432 -0.4154 -0.0676
  879MOL0     O18533   9.611   1.262   8.121 -0.3991 -0.1452 -1.0816
  879MOL0     C18534   9.702   1.225   8.221 -0.0416 -0.7702  0.5330
  879MOL0     C18535   9.814   1.149   8.183  0.6131 -0.5141 -0.3139
  879MOL0     C18536   9.913   1.098   8.273 -0.4735 -0.8523  0.4486
  879MOL0     C18537   9.904   1.127   8.411  0.3984 -1.0304 -0.2769
  879MOL0     O18538   9.979   1.057   8.498  0.1174  1.1348  0.7785
  879MOL0     C18539   9.939   1.052   8.631 -0.0874 -0.6857  0.5447
  879MOL0     C18540  10.035   0.956   8.711  0.1243 -0.1682  0.7763
  879MOL0     C18541   9.988   0.938   8.857 -0.8343 -0.3266 -0.0151
  879MOL0     C18542  10.098   0.865   8.929  0.2404 -0.2192 -0.4005
  879MOL0     C18543  10.088   0.849   9.089  0.2441  0.0545  0.4462
  879MOL0     C18544   9.977   0.756   9.145 -0.5303  0.4192 -0.9299
  879MOL0     C18545   9.957   0.778   9.298  0.6139  0.3838  0.7521
  879MOL0     C18546   9.841   0.703   9.361 -0.5518  0.5930 -0.3041
  879MOL0     N18547   9.854   0.559   9.351  0.8968  0.3573  0.0271
  879MOL0     C18548   9.840   0.477   9.242  0.8873  0.5016  0.3039
  879MOL0     C18549   9.826   0.354   9.296  0.7401 -0.0254  0.4009
  879MOL0     C18550   9.812   0.218   9.227  0.6791 -0.4015  0.4867
  879MOL0     C18551   9.786   0.220   9.079  0.3474 -0.0110 -0.4849
  879MOL0     C18552   9.903   0.206   8.978  0.1462  0.8397 -0.1085
  879MOL0     C18553  10.025   0.295   8.991 -0.3015 -0.3575  0.9003
  879MOL0     O18554  10.016   0.413   8.910 -0.0841  0.3993  0.2508
  879MOL0     C18555  10.144   0.463   8.879  0.1930 -0.1503  0.0368
  879MOL0     C18556  10.249   0.466   8.973 -0.5732  0.0592  0.7194
  879MOL0     C18557  10.371   0.519   8.942  0.1840 -0.0644  0.0018
  879MOL0     C18558  10.473   0.533   9.057  1.0575  0.3595  0.6025
  879MOL0     C18559  10.401   0.558   8.800  0.0591  0.3505  0.0968
  879MOL0     C18560  10.531   0.619   8.757  1.0073 -0.9307  0.3385
  879MOL0     O18561  10.538   0.665   8.634  0.2239  0.3527 -0.5022
  879MOL0     C18562  10.637   0.752   8.598  0.5303  0.3800 -0.6580
  879MOL0     C18563  10.597   0.856   8.517  0.0273 -0.0447 -0.2646
  879MOL0     C18564  10.687   0.948   8.478 -0.3727 -1.0990  0.7921
  879MOL0     C18565  10.814   0.966   8.525  0.4901  0.0287  0.1000
  879MOL0     O18566  10.901   1.072   8.504 -0.5580 -0.1762  0.3894
  879MOL0     C18567  10.836   1.191   8.480  0.7036 -0.0792  0.5470
  879MOL0     C18568  10.758   1.256   8.601 -0.3742 -0.1410  0.8960
  879MOL0     C18569  10.856   1.277   8.721  0.4175 -0.4551  0.0971
  879MOL0     C18570  10.780   1.332   8.839 -0.5031  0.3422 -0.2003
  879MOL0     C18571  10.760   1.485   8.846 -0.5381  0.4128  0.6460
  879MOL0     C18572  10.751   1.543   8.996  0.1164  0.9270 -0.5893
  879MOL0     C18573  10.600   1.525   9.028 -0.2230 -0.2875  0.1471
  879MOL0     C18574  10.586   1.567   9.178 -0.8223  0.4012  0.6085
  879MOL0    Cl18575  10.416   1.623   9.217 -0.2039 -0.1684 -0.5316
  879MOL0     C18576  10.850   0.854   8.603  0.7928 -0.2773  0.0964
  879MOL0     C18577  10.767   0.751   8.636 -0.5763  0.4735 -0.4505
  879MOL0     O18578  10.611   0.647   8.848  0.8676  0.4222 -0.1770
  879MOL0     C18579  10.290   0.556   8.713  0.4068  0.2867 -0.4112
  879MOL0     C18580  10.166   0.509   8.749  0.0513 -1.3096 -0.2381
  879MOL0     N18581   9.829   0.359   9.440 -0.3887 -0.5708 -0.2934
  879MOL0     N18582   9.872   0.485   9.459 -0.3118  0.0826  0.3670
  879MOL0     C18583   9.800   1.226   8.443 -0.7857  0.6435 -0.2012
  879MOL0     C18584   9.705   1.274   8.357 -0.1902 -0.1925 -0.9874
  879MOL0     C18585   9.409   1.364   8.030 -0.3917  0.3952  0.4735
  879MOL0     C18586   9.303   1.448   8.040 -0.4802 -0.2377  0.2098
  879MOL0     C18587   9.204   1.465   7.943  0.0770 -0.1048  0.8233
  879MOL0     C18588   9.225   1.390   7.825 -0.6418 -0.2247  1.1533
  879MOL0     O18589   9.130   1.395   7.727  0.2899 -0.1271 -0.0988
  879MOL0     C18590   9.006   1.467   7.739 -0.5170  0.0093  0.8802
  879MOL0     C18591   8.920   1.445   7.611  1.0172 -0.3413 -0.3358
  879MOL0     C18592   8.786   1.514   7.635 -0.8184 -0.0964 -0.7024
  879MOL0     C18593   8.693   1.500   7.514  0.0229 -0.0833 -0.1756
  879MOL0     C18594   8.593   1.610   7.525 -0.0453 -0.4411  0.7899
  879MOL0     C18595   8.510   1.699   7.530 -1.4081 -0.5317 -0.6745
  879MOL0     C18596   9.332   1.312   7.806  0.2386 -0.0072  0.1587
  879MOL0     C18597   9.423   1.297   7.911  0.3127  0.7381  0.9313
  879MOL0     H18598   9.814   1.119   8.079 -2.3501 -3.9979  0.4971
  879MOL0     H18599   9.983   1.032   8.222 -0.1620  1.4983 -2.4738
  879MOL0     H18600   9.952   1.150   8.678 -3.1102  0.2132 -0.2560
  879MOL0     H18601   9.838   1.019   8.658  0.1223  0.6310  3.3201
  879MOL0     H18602  10.052   0.861   8.658  2.3872  2.1185 -3.1760
  879MOL0     H18603  10.136   1.000   8.706  0.9228 -1.8674 -3.9769
  879MOL0     H18604   9.974   1.034   8.908 -2.6637 -2.3876  3.7974
  879MOL0     H18605   9.895   0.880   8.859 -0.8678 -0.2974 -0.6871
  879MOL0     H18606  10.113   0.766   8.885  1.9859  0.0726 -0.5231
  879MOL0     H18607  10.189   0.919   8.904 -2.2174  3.0098 -3.4010
  879MOL0     H18608  10.185   0.816   9.126  0.6001 -1.5315 -1.7173
  879MOL0     H18609  10.084   0.953   9.122  1.2948  1.7583 -4.0089
  879MOL0     H18610   9.886   0.776   9.088 -2.3644 -0.8383  1.3914
  879MOL0     H18611  10.023   0.658   9.134 -1.6048 -0.0422 -1.4683
  879MOL0     H18612  10.054   0.763   9.347  0.3235  0.3657  1.3416
  879MOL0     H18613   9.927   0.883   9.306 -3.4585 -0.2832 -2.4540
  879MOL0     H18614   9.744   0.733   9.320 -1.4908 -1.0151  0.6342
  879MOL0     H18615   9.841   0.731   9.467 -1.3723  3.1208 -0.8783
  879MOL0     H18616   9.845   0.506   9.137  1.8466 -0.2232  0.1347
  879MOL0     H18617   9.905   0.161   9.235  0.3517 -0.8392  1.2672
  879MOL0     H18618   9.732   0.161   9.275  0.1139  1.2110  1.5272
  879MOL0     H18619   9.720   0.303   9.055 -0.8316  0.5343  3.7609
  879MOL0     H18620   9.725   0.131   9.062 -3.1415  1.9656  0.7818
  879MOL0     H18621   9.864   0.224   8.877 -3.4172  1.0326  1.1458
  879MOL0     H18622   9.938   0.103   8.988  0.4612  1.0788  1.5685
  879MOL0     H18623  10.110   0.235   8.960  0.9850 -1.4717  5.7384
  879MOL0     H18624  10.049   0.328   9.093  0.8082  2.3812 -0.1504
  879MOL0     H18625  10.238   0.434   9.076  2.0711  1.4264  1.5390
  879MOL0     H18626  10.441   0.477   9.145 -2.0582 -1.1540 -1.3068
  879MOL0     H18627  10.568   0.490   9.023  0.8923  0.4672 -0.0113
  879MOL0     H18628  10.476   0.634   9.098  3.0797 -0.0642  1.6286
  879MOL0     H18629  10.496   0.858   8.477  0.1073  4.2565 -0.7153
  879MOL0     H18630  10.645   1.031   8.422  2.7088  2.3708  3.0923
  879MOL0     H18631  10.917   1.258   8.451  1.3142 -0.4558  1.3419
  879MOL0     H18632  10.757   1.195   8.405  0.4377  1.4105  0.8812
  879MOL0     H18633  10.726   1.357   8.575  0.6521  0.2383  1.0457
  879MOL0     H18634  10.674   1.200   8.643 -0.2345  0.6415  2.2744
  879MOL0     H18635  10.935   1.340   8.680  0.0503 -0.4013 -0.5388
  879MOL0     H18636  10.888   1.179   8.759 -0.7604 -1.0188 -0.3380
  879MOL0     H18637  10.677   1.296   8.839 -0.0757 -0.9233  0.5503
  879MOL0     H18638  10.832   1.296   8.928 -1.0935 -1.5292 -0.5764
  879MOL0     H18639  10.685   1.512   8.772  3.2501 -1.2705 -4.3922
  879MOL0     H18640  10.854   1.525   8.809 -0.5078  0.2911  0.5903
  879MOL0     H18641  10.824   1.500   9.065  3.0833  3.9481 -1.5727
  879MOL0     H18642  10.770   1.651   8.986 -2.0798  1.2895 -1.4449
  879MOL0     H18643  10.582   1.419   9.008 -0.2218  0.2145 -3.0565
  879MOL0     H18644  10.533   1.596   8.980  0.3076  1.0544  1.3230
  879MOL0     H18645  10.645   1.658   9.189  3.5168 -2.1517  0.4001
  879MOL0     H18646  10.627   1.499   9.253 -3.2823 -2.0496 -0.0701
  879MOL0     H18647  10.951   0.846   8.644  0.4805 -1.0279  0.7445
  879MOL0     H18648  10.807   0.680   8.709 -0.8849 -1.3561 -1.9759
  879MOL0     H18649  10.287   0.577   8.606 -0.4815 -1.8592 -0.8651
  879MOL0     H18650  10.087   0.520   8.675 -1.1802  2.3487  1.3994
  879MOL0     H18651   9.797   1.260   8.545  1.1979  1.0619 -0.2576
  879MOL0     H18652   9.640   1.342   8.411 -2.6743 -2.2723 -1.1451
  879MOL0     H18653   9.290   1.507   8.130 -1.5645 -1.5531  0.9460
  879MOL0     H18654   9.121   1.534   7.952 -0.3669 -0.6905  1.2647
  879MOL0     H18655   8.961   1.423   7.828 -0.7815 -0.9428  0.2972
  879MOL0     H18656   9.007   1.575   7.754 -2.3239  0.2236 -0.1832
  879MOL0     H18657   8.916   1.343   7.573  0.7002  0.2770 -2.0301
  879MOL0     H18658   8.967   1.505   7.533 -0.6794  2.5767  0.7140
  879MOL0     H18659   8.815   1.618   7.654  6.5838 -1.2184 -2.4318
  879MOL0     H18660   8.746   1.470   7.727 -1.1507 -1.1344 -1.3256
  879MOL0     H18661   8.650   1.400   7.508 -0.1444 -0.0485  0.4546
  879MOL0     H18662   8.754   1.508   7.423  1.8537 -1.9859  0.8011
  879MOL0     H18663   8.431   1.768   7.551  0.2124  1.1824  0.0944
  879MOL0     H18664   9.350   1.260   7.712  2.2323  0.9838 -0.0662
  879MOL0     H18665   9.520   1.250   7.895  0.3225  1.4888 -1.7378
  880MOL0     O18666   1.242   1.968   2.467 -0.0214 -1.4729 -0.2285
  880MOL0     C18667   1.274   1.912   2.361  0.6921  0.5897 -0.0062
  880MOL0     O18668   1.375   1.944   2.273  1.1147 -0.1996  0.2965
  880MOL0     C18669   1.479   2.019   2.325  0.4778 -0.6752 -0.3953
  880MOL0     C18670   1.520   2.009   2.463  0.4134  0.6787 -0.1710
  880MOL0     C18671   1.636   2.074   2.501  0.6503  0.6263  0.0148
  880MOL0     C18672   1.709   2.160   2.423 -0.3853 -0.2382 -0.3184
  880MOL0     O18673   1.824   2.227   2.464  0.4361 -0.3438  0.6734
  880MOL0     C18674   1.860   2.215   2.600 -0.1384 -0.5069 -0.8668
  880MOL0     C18675   2.004   2.272   2.622 -0.4799 -0.0274 -1.1117
  880MOL0     C18676   2.023   2.426   2.606 -0.2365 -0.2224 -0.7743
  880MOL0     C18677   2.172   2.462   2.630  0.6056 -1.0570 -0.3051
  880MOL0     C18678   2.198   2.610   2.613 -0.2657 -0.0984 -0.4657
  880MOL0     C18679   2.136   2.657   2.484 -0.4877  0.0924  0.0181
  880MOL0     C18680   2.195   2.792   2.460 -0.5336 -0.1385 -0.7724
  880MOL0     C18681   2.114   2.851   2.346 -0.2319  0.3855  0.7759
  880MOL0     N18682   2.188   2.953   2.274  0.4534 -0.0827 -0.6054
  880MOL0     C18683   2.133   3.075   2.242  1.4440  0.3785  0.3400
  880MOL0     C18684   2.238   3.136   2.177  0.3072  0.1218 -0.3115
  880MOL0     C18685   2.235   3.275   2.135  0.1844  0.6518  0.3161
  880MOL0     C18686   2.305   3.367   2.238 -0.2344 -0.6167  0.4521
  880MOL0     C18687   2.314   3.510   2.183  0.0010 -0.5416  0.2867
  880MOL0     C18688   2.334   3.609   2.300  0.2020 -0.2641 -0.7632
  880MOL0     O18689   2.464   3.618   2.357 -0.1300 -0.1872  0.7357
  880MOL0     C18690   2.559   3.656   2.260  0.4827 -1.2403 -0.4443
  880MOL0     C18691   2.573   3.791   2.217 -0.4578 -0.2649 -0.7919
  880MOL0     C18692   2.678   3.835   2.134  0.6076 -1.0192  0.1749
  880MOL0     C18693   2.691   3.983   2.092 -0.4438 -0.3103  0.5940
  880MOL0     C18694   2.755   3.738   2.082 -0.2169  0.7932  0.1014
  880MOL0     C18695   2.837   3.760   1.962  0.6435  0.2813 -0.8332
  880MOL0     O18696   2.972   3.749   1.977 -0.1779 -0.4985 -0.1549
  880MOL0     C18697   3.048   3.748   1.868  0.1725 -0.4761  0.2816
  880MOL0     C18698   3.078   3.863   1.785  0.5598  0.1816 -0.4825
  880MOL0     C18699   3.147   3.852   1.661  1.0536  0.6226 -0.5180
  880MOL0     C18700   3.167   3.724   1.610  0.8831  0.4099  0.2836
  880MOL0     O18701   3.238   3.721   1.495  0.0688 -0.8118 -0.0688
  880MOL0     C18702   3.164   3.767   1.382  0.7690 -0.1134  0.2904
  880MOL0     C18703   3.271   3.807   1.271  0.5432 -0.6066  0.2050
  880MOL0     C18704   3.319   3.687   1.186 -0.1350  0.5067 -0.4015
  880MOL0     C18705   3.431   3.728   1.093 -0.1907  0.3513  0.7428
  880MOL0     C18706   3.513   3.602   1.044  0.5278 -0.6472  0.1881
  880MOL0     C18707   3.665   3.636   1.024 -0.3587 -0.7107 -0.0336
  880MOL0     C18708   3.742   3.518   0.969 -0.4897 -0.8534 -0.5362
  880MOL0     C18709   3.878   3.565   0.903  0.1634  0.5852  0.4863
  880MOL0    Cl18710   3.982   3.662   0.997  0.0923  0.2754 -0.4379
  880MOL0     C18711   3.148   3.604   1.687  0.0005 -0.5427  0.7450
  880MOL0     C18712   3.089   3.622   1.816  0.7710 -0.9041  0.3245
  880MOL0     O18713   2.777   3.790   1.860 -0.1646 -0.9196  0.4578
  880MOL0     C18714   2.758   3.607   2.136  0.2901  1.2274  0.1442
  880MOL0     C18715   2.652   3.560   2.216 -1.1309  0.2736 -0.6639
  880MOL0     N18716   2.342   3.042   2.162 -0.1130 -0.7388 -0.0145
  880MOL0     N18717   2.310   2.935   2.221  0.8490 -0.3223  0.6990
  880MOL0     C18718   1.664   2.180   2.298  0.7648  0.1739 -0.1038
  880MOL0     C18719   1.555   2.102   2.247  0.8450 -0.2017  0.2003
  880MOL0     C18720   1.182   1.803   2.308 -0.0809 -0.3312  0.0078
  880MOL0     C18721   1.216   1.748   2.185  1.0962  0.0680 -0.1978
  880MOL0     C18722   1.127   1.660   2.119  0.1768 -1.0896 -0.0892
  880MOL0     C18723   1.005   1.613   2.179 -0.2597 -0.4669  1.1887
  880MOL0     O18724   0.910   1.536   2.115 -0.1803  0.6389 -0.0491
  880MOL0     C18725   0.961   1.477   1.996  0.5974  0.4680 -0.3263
  880MOL0     C18726   0.851   1.405   1.940  0.2842 -1.0812 -0.4908
  880MOL0     C18727   0.811   1.277   2.013  0.5734 -0.0744  0.3234
  880MOL0     C18728   0.883   1.160   1.946  0.0360  0.2126  0.6996
  880MOL0     C18729   0.824   1.146   1.807  0.2908  0.1342 -0.2191
  880MOL0     C18730   0.768   1.136   1.702  0.0742  0.5246  0.5347
  880MOL0     C18731   0.981   1.655   2.307 -0.4632  0.2521 -0.4360
  880MOL0     C18732   1.062   1.751   2.368 -0.1485  1.1293 -0.1989
  880MOL0     H18733   1.469   1.948   2.536  1.4570  1.9825  1.7476
  880MOL0     H18734   1.662   2.064   2.606  2.2581  0.7434 -0.3465
  880MOL0     H18735   1.798   2.264   2.675  2.6010  1.3462  0.3243
  880MOL0     H18736   1.865   2.114   2.643  1.6328 -0.1639 -0.1798
  880MOL0     H18737   2.039   2.242   2.721  3.3824  1.0828 -1.9853
  880MOL0     H18738   2.077   2.229   2.554  0.5661  0.4321 -0.3043
  880MOL0     H18739   2.000   2.439   2.501  0.3864 -2.0425 -1.1897
  880MOL0     H18740   1.950   2.488   2.658 -1.4802 -2.7810  0.7294
  880MOL0     H18741   2.219   2.419   2.719  3.7768  0.5425 -1.0516
  880MOL0     H18742   2.228   2.412   2.551 -0.7953 -0.2394 -1.8698
  880MOL0     H18743   2.158   2.673   2.693 -1.0337  0.4403 -1.2474
  880MOL0     H18744   2.304   2.633   2.613 -0.3809  0.7138  1.6457
  880MOL0     H18745   2.143   2.592   2.396  1.1826 -0.1406  0.2808
  880MOL0     H18746   2.030   2.678   2.500  0.0310  0.9703  2.8075
  880MOL0     H18747   2.190   2.852   2.551 -2.2522  1.3350 -1.7663
  880MOL0     H18748   2.300   2.770   2.438  0.2348 -1.4531  3.4687
  880MOL0     H18749   2.020   2.894   2.381 -1.1492 -2.0668  1.5606
  880MOL0     H18750   2.087   2.772   2.275  1.8293 -0.3032  0.6997
  880MOL0     H18751   2.033   3.115   2.254  2.1857  1.9114  1.8332
  880MOL0     H18752   2.300   3.280   2.047 -0.5586 -0.5543 -0.3273
  880MOL0     H18753   2.135   3.310   2.105  0.4440  0.1680 -1.2038
  880MOL0     H18754   2.404   3.334   2.271  0.0961 -1.6838 -1.4819
  880MOL0     H18755   2.242   3.367   2.328 -1.2502  0.9852 -0.1986
  880MOL0     H18756   2.225   3.540   2.126 -1.2910  1.3378  3.0313
  880MOL0     H18757   2.393   3.530   2.110 -0.9852  0.9329 -0.4352
  880MOL0     H18758   2.263   3.586   2.381  0.2697  0.6056 -0.4541
  880MOL0     H18759   2.317   3.710   2.262 -0.5525  0.1556  0.6154
  880MOL0     H18760   2.521   3.860   2.282  0.4006 -0.1641 -0.1848
  880MOL0     H18761   2.640   4.049   2.161 -0.3859  2.3824 -1.7759
  880MOL0     H18762   2.795   4.017   2.090 -0.3761 -0.3188 -3.3326
  880MOL0     H18763   2.645   4.001   1.995  0.9760  4.3903  0.5638
  880MOL0     H18764   3.048   3.959   1.825 -0.7137 -0.4839  0.2602
  880MOL0     H18765   3.189   3.935   1.605 -0.6805 -0.8121 -4.3237
  880MOL0     H18766   3.108   3.686   1.334 -2.0087  1.1219  1.2119
  880MOL0     H18767   3.100   3.854   1.401  1.0031  0.8141 -2.6421
  880MOL0     H18768   3.223   3.883   1.208 -0.7643  0.1130  1.9807
  880MOL0     H18769   3.364   3.838   1.318 -0.3683 -0.4123  1.9559
  880MOL0     H18770   3.238   3.636   1.133  0.3658 -0.6044 -0.1178
  880MOL0     H18771   3.354   3.615   1.260 -1.6228  0.5841  0.4126
  880MOL0     H18772   3.398   3.776   1.000 -1.7684 -2.4866 -0.2719
  880MOL0     H18773   3.498   3.792   1.152  2.6907 -2.3481  0.6367
  880MOL0     H18774   3.460   3.544   0.968  3.2486 -1.4889 -1.2123
  880MOL0     H18775   3.510   3.534   1.130  0.6293 -1.2831 -0.3062
  880MOL0     H18776   3.669   3.725   0.961 -3.1797 -1.7370 -1.8366
  880MOL0     H18777   3.697   3.658   1.126 -2.2608 -0.3112  0.4994
  880MOL0     H18778   3.678   3.467   0.898 -2.9831  1.9146 -0.4728
  880MOL0     H18779   3.759   3.454   1.057  1.6763  0.8256  0.3816
  880MOL0     H18780   3.858   3.636   0.822 -0.2110 -0.3290 -0.2546
  880MOL0     H18781   3.938   3.484   0.860 -2.0377 -1.1641  0.4692
  880MOL0     H18782   3.175   3.505   1.653  0.2373 -0.0647 -0.4969
  880MOL0     H18783   3.068   3.530   1.870 -1.5295  0.0162  1.1386
  880MOL0     H18784   2.814   3.531   2.083 -0.9556  1.1145 -1.0768
  880MOL0     H18785   2.646   3.454   2.240  2.1215 -0.1560 -1.3040
  880MOL0     H18786   1.715   2.247   2.230  0.6678  2.3399  1.8220
  880MOL0     H18787   1.538   2.105   2.139  1.6133  0.6812  0.0907
  880MOL0     H18788   1.301   1.776   2.123  0.8737  2.9064  0.6728
  880MOL0     H18789   1.158   1.632   2.019  0.7663 -0.7319 -0.0079
  880MOL0     H18790   1.003   1.551   1.927  3.5077 -1.5937 -0.9728
  880MOL0     H18791   1.045   1.407   2.012  0.3906  0.3029  0.0436
  880MOL0     H18792   0.882   1.393   1.836  0.7782 -0.7675 -0.3808
  880MOL0     H18793   0.759   1.464   1.938  1.0166  0.2409  1.6861
  880MOL0     H18794   0.702   1.269   2.009  0.2623  3.1763 -1.1076
  880MOL0     H18795   0.850   1.286   2.115  0.8323  0.9961  0.1428
  880MOL0     H18796   0.848   1.068   1.995 -2.5820  1.7640  1.9723
  880MOL0     H18797   0.992   1.159   1.944  0.1613 -0.3377 -4.2437
  880MOL0     H18798   0.713   1.134   1.610  2.0051 -1.6679 -0.6680
  880MOL0     H18799   0.886   1.617   2.342 -0.3043 -0.8870 -1.1796
  880MOL0     H18800   1.035   1.778   2.470  0.2748  0.3472  0.1338
  881MOL0     O18801   3.142   9.500   2.535  0.0742 -0.6665 -0.1047
  881MOL0     C18802   3.189   9.432   2.628  0.3785  0.1918 -0.7480
  881MOL0     O18803   3.273   9.324   2.616  0.4931 -0.2891 -0.8091
  881MOL0     C18804   3.318   9.304   2.489 -0.4368  0.4111  0.0608
  881MOL0     C18805   3.231   9.270   2.380 -0.0620 -0.5537  0.6146
  881MOL0     C18806   3.280   9.264   2.251 -0.4246 -0.2864  0.3338
  881MOL0     C18807   3.420   9.288   2.223 -0.5097  0.0115 -0.0188
  881MOL0     O18808   3.463   9.268   2.100 -0.1357  0.2225  0.3438
  881MOL0     C18809   3.480   9.384   2.016  0.1219 -0.5085  0.2718
  881MOL0     C18810   3.608   9.451   2.031 -0.7842 -0.2173  0.1488
  881MOL0     C18811   3.728   9.372   1.972 -0.6942  0.4942  0.4990
  881MOL0     C18812   3.807   9.454   1.872 -0.7771  0.9838  0.0894
  881MOL0     C18813   3.931   9.376   1.823 -0.1978 -0.6378  0.3418
  881MOL0     C18814   3.908   9.254   1.734 -0.6479 -0.0312 -0.6465
  881MOL0     C18815   4.042   9.196   1.679  1.5114 -0.3601  0.5352
  881MOL0     C18816   4.084   9.270   1.550 -0.0516 -0.5079 -0.4190
  881MOL0     N18817   4.210   9.217   1.503  0.0512  0.0744  0.5428
  881MOL0     C18818   4.235   9.084   1.481  0.6134 -0.9199 -0.7582
  881MOL0     C18819   4.357   9.082   1.441  0.0739  1.6405  0.4601
  881MOL0     C18820   4.414   8.947   1.395 -0.3085 -0.1013 -0.3457
  881MOL0     C18821   4.360   8.914   1.256  0.7025  0.1830  0.0391
  881MOL0     C18822   4.446   8.823   1.162  0.6228 -0.5635  0.2039
  881MOL0     C18823   4.492   8.689   1.212 -0.8619  1.3677  0.1434
  881MOL0     O18824   4.533   8.600   1.104  0.9472  0.2314 -0.5714
  881MOL0     C18825   4.658   8.603   1.058 -0.9039 -0.2922  0.2820
  881MOL0     C18826   4.761   8.690   1.093  0.6051 -0.5242 -0.2518
  881MOL0     C18827   4.885   8.685   1.030 -0.2580  0.2271 -0.4632
  881MOL0     C18828   4.988   8.786   1.075 -0.6293 -1.0379  0.1557
  881MOL0     C18829   4.927   8.582   0.933  0.1603  0.3485 -0.2360
  881MOL0     C18830   5.060   8.550   0.875 -0.4172  0.0372  0.3535
  881MOL0     O18831   5.071   8.441   0.788  0.0228 -0.0178  0.2340
  881MOL0     C18832   5.197   8.401   0.755 -0.2034  0.4222  0.3655
  881MOL0     C18833   5.260   8.465   0.648  0.0503 -0.4248  0.4714
  881MOL0     C18834   5.394   8.443   0.620  0.5562  0.3503 -0.0625
  881MOL0     C18835   5.465   8.355   0.687  0.1281  0.4410 -1.0451
  881MOL0     O18836   5.601   8.326   0.672  0.2152 -0.1588  1.3794
  881MOL0     C18837   5.632   8.262   0.543 -0.0972 -0.4810 -0.5129
  881MOL0     C18838   5.776   8.306   0.518 -0.9002 -0.3837 -0.5438
  881MOL0     C18839   5.889   8.246   0.608 -0.3766  0.3417 -0.2536
  881MOL0     C18840   6.014   8.220   0.530 -0.2565 -0.5741  1.1733
  881MOL0     C18841   6.117   8.134   0.606  0.2216  0.6816 -0.5240
  881MOL0     C18842   6.132   8.158   0.757  0.0474 -0.8471 -0.3097
  881MOL0     C18843   6.206   8.292   0.787 -0.1171 -0.6896  0.5392
  881MOL0     C18844   6.362   8.289   0.766 -0.8597 -0.0702 -0.0159
  881MOL0    Cl18845   6.424   8.183   0.896  0.0859 -0.1543 -0.2508
  881MOL0     C18846   5.405   8.287   0.791  0.4674 -0.5058  0.5175
  881MOL0     C18847   5.268   8.310   0.826  0.4291 -1.1766  0.4407
  881MOL0     O18848   5.159   8.614   0.914 -0.6352 -0.6765 -0.0857
  881MOL0     C18849   4.817   8.502   0.900  0.0895 -0.7312 -0.1706
  881MOL0     C18850   4.689   8.509   0.962  0.3369 -1.1634 -0.1278
  881MOL0     N18851   4.414   9.204   1.439 -0.5648 -0.8386  0.8117
  881MOL0     N18852   4.331   9.286   1.487  0.2754 -0.2596  0.0106
  881MOL0     C18853   3.505   9.306   2.339  0.5095  0.4521 -0.1592
  881MOL0     C18854   3.454   9.317   2.466  0.1830 -0.7582 -0.0386
  881MOL0     C18855   3.155   9.475   2.771  0.6651  0.6445  0.4072
  881MOL0     C18856   3.094   9.597   2.804  1.1090  0.4839 -0.4681
  881MOL0     C18857   3.053   9.620   2.940  0.4220  0.1161 -0.2446
  881MOL0     C18858   3.070   9.526   3.036 -0.9496  0.4716 -0.9695
  881MOL0     O18859   3.023   9.548   3.159 -0.3507 -0.7538 -0.6268
  881MOL0     C18860   3.012   9.445   3.252 -0.0798  0.0031 -0.3909
  881MOL0     C18861   2.977   9.515   3.380 -1.1552 -0.6992  0.0476
  881MOL0     C18862   2.831   9.552   3.392  0.7780  0.5246 -0.3922
  881MOL0     C18863   2.777   9.577   3.535 -0.6161  0.5009  0.9431
  881MOL0     C18864   2.635   9.584   3.521  0.2355 -0.3489  0.0636
  881MOL0     C18865   2.514   9.584   3.513 -0.7209  0.1967  0.0365
  881MOL0     C18866   3.146   9.421   3.011  0.1221  1.3162  0.9038
  881MOL0     C18867   3.187   9.389   2.877  0.4898  0.6180  0.6461
  881MOL0     H18868   3.124   9.254   2.388 -0.3013  1.3188  1.8026
  881MOL0     H18869   3.216   9.253   2.163  1.8173 -1.3570 -1.2437
  881MOL0     H18870   3.460   9.355   1.912  0.5786 -1.2903  0.3964
  881MOL0     H18871   3.403   9.458   2.039 -0.1594 -1.8589  4.3038
  881MOL0     H18872   3.600   9.556   2.003  0.3171  1.0034  3.7573
  881MOL0     H18873   3.631   9.465   2.137  0.9163 -0.8849 -0.1010
  881MOL0     H18874   3.803   9.361   2.051 -0.3929  0.7835  0.2551
  881MOL0     H18875   3.709   9.274   1.925 -1.2919  1.5422 -1.5773
  881MOL0     H18876   3.743   9.488   1.790 -0.5725 -0.0952 -0.5381
  881MOL0     H18877   3.855   9.537   1.925  3.0356  0.9902 -2.8908
  881MOL0     H18878   3.982   9.447   1.757  0.5613 -3.9220 -2.9664
  881MOL0     H18879   3.995   9.358   1.909  0.4837  3.2002  0.8250
  881MOL0     H18880   3.845   9.186   1.792  0.9450 -1.7522 -0.8175
  881MOL0     H18881   3.846   9.285   1.649 -2.5102 -1.6600  0.0224
  881MOL0     H18882   4.118   9.200   1.758  2.4406  1.0626 -0.3762
  881MOL0     H18883   4.023   9.091   1.653  2.4581 -0.2420 -0.7272
  881MOL0     H18884   4.094   9.378   1.562  0.5799 -0.6153  0.0869
  881MOL0     H18885   4.006   9.258   1.474 -1.5285  1.7221  0.6546
  881MOL0     H18886   4.163   9.003   1.484 -0.1009 -0.3901 -2.2210
  881MOL0     H18887   4.523   8.947   1.396 -0.2854 -1.4677  0.7764
  881MOL0     H18888   4.378   8.880   1.474 -2.3132 -0.6368 -1.6202
  881MOL0     H18889   4.346   9.010   1.207 -4.2279 -0.9896 -1.4666
  881MOL0     H18890   4.260   8.869   1.264 -1.7725  5.1594  0.4871
  881MOL0     H18891   4.534   8.885   1.141  1.3815 -1.4218  0.7878
  881MOL0     H18892   4.388   8.822   1.069 -1.4676  2.2064  1.3539
  881MOL0     H18893   4.405   8.647   1.264  1.4841 -3.4394  0.8354
  881MOL0     H18894   4.572   8.694   1.287  0.5609 -0.9811 -1.1121
  881MOL0     H18895   4.745   8.750   1.183 -0.3830 -2.3793  0.8723
  881MOL0     H18896   4.955   8.864   1.144  2.2975  0.1342  0.3623
  881MOL0     H18897   5.076   8.742   1.123 -1.4293  0.0528  2.7779
  881MOL0     H18898   5.027   8.829   0.982  1.1561  0.7591  1.6539
  881MOL0     H18899   5.197   8.528   0.587 -0.4692 -2.4553 -1.1965
  881MOL0     H18900   5.451   8.508   0.555  0.8317  2.2046  1.9218
  881MOL0     H18901   5.619   8.153   0.535  3.0324 -0.8265 -4.9335
  881MOL0     H18902   5.568   8.294   0.460  0.5742 -0.8074 -1.1700
  881MOL0     H18903   5.792   8.271   0.415 -0.0362 -0.8286 -0.2652
  881MOL0     H18904   5.776   8.415   0.517  3.8814 -0.1420 -0.0457
  881MOL0     H18905   5.852   8.146   0.634 -2.0674  1.1226  0.4974
  881MOL0     H18906   5.893   8.303   0.701 -4.4862  2.5643 -1.1952
  881MOL0     H18907   5.985   8.164   0.441  0.4421 -0.2808  0.7511
  881MOL0     H18908   6.059   8.319   0.514 -2.5105  0.4749  0.9400
  881MOL0     H18909   6.212   8.164   0.560  0.0459  3.0781  0.5352
  881MOL0     H18910   6.082   8.033   0.584  0.4784  0.7891 -1.4710
  881MOL0     H18911   6.034   8.156   0.806  0.9539 -1.9632  1.6051
  881MOL0     H18912   6.198   8.090   0.811 -2.4185 -3.6501 -0.5818
  881MOL0     H18913   6.189   8.324   0.890  4.6702  0.3326  1.2314
  881MOL0     H18914   6.163   8.369   0.722 -1.4881 -1.2082  0.8025
  881MOL0     H18915   6.408   8.388   0.770 -0.1343 -0.3309 -1.4037
  881MOL0     H18916   6.388   8.238   0.673  1.2344  3.9827 -1.9060
  881MOL0     H18917   5.452   8.209   0.850  1.3095 -0.1870  0.2887
  881MOL0     H18918   5.226   8.269   0.918  2.4803 -1.3596  1.3390
  881MOL0     H18919   4.838   8.428   0.823  5.3378 -1.5513  1.6463
  881MOL0     H18920   4.608   8.452   0.916  0.6324  0.0833 -2.3500
  881MOL0     H18921   3.613   9.317   2.331  0.8837 -0.3584  2.7222
  881MOL0     H18922   3.519   9.327   2.553  0.7785  3.2522 -0.7713
  881MOL0     H18923   3.064   9.660   2.721  1.2203  0.8176 -0.2587
  881MOL0     H18924   2.990   9.703   2.972 -1.7502 -1.9449  1.1314
  881MOL0     H18925   2.934   9.372   3.229 -1.0915  0.3495  1.7350
  881MOL0     H18926   3.099   9.382   3.275 -1.9578 -2.1358  1.2669
  881MOL0     H18927   3.038   9.606   3.391  0.0837 -1.6305  1.2117
  881MOL0     H18928   2.996   9.448   3.464 -1.0349  0.9249  1.3790
  881MOL0     H18929   2.764   9.477   3.349 -2.9586  0.8964  3.9994
  881MOL0     H18930   2.813   9.646   3.340 -1.6383  0.8734  0.9165
  881MOL0     H18931   2.812   9.669   3.582 -2.5398  0.5817  2.3085
  881MOL0     H18932   2.801   9.495   3.603  1.5663 -0.1994 -0.5351
  881MOL0     H18933   2.410   9.568   3.493 -0.9966  0.0166  1.5022
  881MOL0     H18934   3.178   9.350   3.086  0.5833  1.3552  0.7477
  881MOL0     H18935   3.245   9.300   2.854 -1.7608 -0.2062 -2.5226
  882MOL0     O18936   9.098  10.185   2.296 -0.3976 -0.1097  0.0043
  882MOL0     C18937   9.157  10.141   2.395  0.2644  0.0598  0.5824
  882MOL0     O18938   9.137  10.184   2.518 -0.2905 -0.1459 -0.8163
  882MOL0     C18939   9.047  10.282   2.527 -0.0788 -0.7070 -0.7815
  882MOL0     C18940   8.927  10.253   2.576  0.6691  0.5297 -0.7862
  882MOL0     C18941   8.831  10.356   2.600  0.1766  0.0086 -0.4501
  882MOL0     C18942   8.848  10.486   2.544  0.5919 -0.5513  0.3041
  882MOL0     O18943   8.746  10.577   2.565  0.0036  0.5041 -0.4536
  882MOL0     C18944   8.727  10.677   2.464 -0.4262 -0.7224 -0.2538
  882MOL0     C18945   8.612  10.771   2.496  0.4820  0.1106  0.0626
  882MOL0     C18946   8.653  10.853   2.622  0.1615 -1.1632 -0.1604
  882MOL0     C18947   8.532  10.954   2.640  1.0928  0.2359  0.3931
  882MOL0     C18948   8.575  11.104   2.631 -0.0017 -0.0492  0.2885
  882MOL0     C18949   8.458  11.185   2.686  0.3733 -0.3554  0.0624
  882MOL0     C18950   8.496  11.334   2.681  1.1200  0.1967 -0.2475
  882MOL0     C18951   8.507  11.400   2.550  0.1921 -0.8271 -0.0765
  882MOL0     N18952   8.579  11.536   2.549  0.0822 -0.2581  0.2683
  882MOL0     C18953   8.579  11.636   2.650 -0.8047 -0.4148  0.4110
  882MOL0     C18954   8.684  11.714   2.625 -0.2298  0.7451  0.4706
  882MOL0     C18955   8.728  11.850   2.678 -0.4056 -0.3482 -0.1125
  882MOL0     C18956   8.870  11.854   2.760  0.9350  0.3174  0.4569
  882MOL0     C18957   8.982  11.827   2.673  0.1248 -0.3270 -0.6175
  882MOL0     C18958   9.117  11.811   2.751  0.1045  0.7573  0.5171
  882MOL0     O18959   9.122  11.669   2.799 -0.1474 -0.2082 -0.2353
  882MOL0     C18960   9.226  11.638   2.878 -0.4896 -0.4645 -0.6546
  882MOL0     C18961   9.258  11.726   2.980 -0.1591  0.1096 -0.9620
  882MOL0     C18962   9.365  11.706   3.075 -0.3489 -0.4648 -0.6063
  882MOL0     C18963   9.363  11.797   3.201  0.0360  1.1401  0.5962
  882MOL0     C18964   9.443  11.587   3.062  0.4356  0.3672  0.1161
  882MOL0     C18965   9.535  11.524   3.159  0.2037  0.4083 -0.1257
  882MOL0     O18966   9.599  11.614   3.244 -0.4848  0.0177  0.8607
  882MOL0     C18967   9.696  11.582   3.337 -0.1383 -0.3545 -0.3252
  882MOL0     C18968   9.710  11.659   3.449  0.0458 -0.8418  0.0491
  882MOL0     C18969   9.815  11.639   3.539  0.4213  0.6734  0.1503
  882MOL0     C18970   9.921  11.552   3.515  0.6999  0.1304 -0.1035
  882MOL0     O18971  10.022  11.543   3.613 -0.0179 -0.4345 -0.5832
  882MOL0     C18972  10.081  11.416   3.640 -1.2786 -0.1249 -0.6920
  882MOL0     C18973   9.992  11.324   3.724 -0.4899  0.6178  0.1306
  882MOL0     C18974  10.063  11.192   3.754  0.1227 -0.4068 -0.3001
  882MOL0     C18975  10.134  11.185   3.893  0.9293  0.0860 -0.2078
  882MOL0     C18976  10.242  11.072   3.915  1.1059  0.6105  0.4356
  882MOL0     C18977  10.329  11.105   4.043 -0.7236  0.9640  0.8661
  882MOL0     C18978  10.291  11.040   4.175 -0.5853  0.0484 -0.1917
  882MOL0     C18979  10.415  11.060   4.266  0.3401 -0.4788 -0.6648
  882MOL0    Cl18980  10.432  11.245   4.284  0.0201 -0.1121  0.3372
  882MOL0     C18981   9.898  11.458   3.413  1.1350 -1.3695 -0.5133
  882MOL0     C18982   9.796  11.480   3.322  0.1891  1.2799  0.2830
  882MOL0     O18983   9.550  11.401   3.158  0.7931  0.7571 -0.2457
  882MOL0     C18984   9.418  11.513   2.940  1.0495 -0.4375 -0.4818
  882MOL0     C18985   9.314  11.532   2.864  0.4200  0.3409 -0.1050
  882MOL0     N18986   8.744  11.651   2.511  0.4522  0.4053 -1.1219
  882MOL0     N18987   8.676  11.556   2.467  0.5665  0.2360  0.2785
  882MOL0     C18988   8.980  10.509   2.484  0.3530 -0.4527 -0.0125
  882MOL0     C18989   9.070  10.417   2.488 -0.1289  0.7138  0.6275
  882MOL0     C18990   9.231  10.014   2.372 -0.8699 -0.2132  0.3672
  882MOL0     C18991   9.237   9.949   2.247 -0.4212  0.5332 -0.0682
  882MOL0     C18992   9.321   9.836   2.225 -0.1407 -0.9258 -0.2233
  882MOL0     C18993   9.413   9.803   2.328 -0.4301 -0.3705 -0.1236
  882MOL0     O18994   9.495   9.689   2.308  0.0200  0.3033 -0.7393
  882MOL0     C18995   9.623   9.694   2.363  0.7822  0.7183 -0.4327
  882MOL0     C18996   9.705   9.601   2.269  0.1001  0.0435  0.2101
  882MOL0     C18997   9.846   9.574   2.320 -0.6481 -0.3306 -0.1351
  882MOL0     C18998   9.849   9.510   2.460 -0.6737  0.2340  0.8144
  882MOL0     C18999   9.990   9.489   2.490 -0.5219  0.2491  0.6238
  882MOL0     C19000  10.109   9.453   2.481  0.0957 -0.2710 -0.5636
  882MOL0     C19001   9.412   9.873   2.455 -0.6417  0.2223  1.1374
  882MOL0     C19002   9.320   9.976   2.473 -0.2846  0.6663 -0.4911
  882MOL0     H19003   8.906  10.150   2.606  1.2437  0.8113  0.6753
  882MOL0     H19004   8.736  10.324   2.643 -0.2341  2.4463  0.6484
  882MOL0     H19005   8.814  10.739   2.440 -0.8478 -0.1909 -0.4218
  882MOL0     H19006   8.703  10.624   2.371 -0.3668  0.2772 -0.8593
  882MOL0     H19007   8.581  10.840   2.417  1.5209 -0.8299 -1.2156
  882MOL0     H19008   8.518  10.726   2.529 -0.3073  2.3209  1.0546
  882MOL0     H19009   8.654  10.782   2.705  0.1441 -0.5273  0.3842
  882MOL0     H19010   8.749  10.901   2.606 -0.4285 -0.1800 -0.8932
  882MOL0     H19011   8.456  10.940   2.561 -0.8357 -0.1799  2.2188
  882MOL0     H19012   8.480  10.941   2.735  0.2284  0.5590 -0.0192
  882MOL0     H19013   8.670  11.126   2.680 -0.8759  0.8523  1.6629
  882MOL0     H19014   8.584  11.126   2.524  3.1317 -1.5813  0.1421
  882MOL0     H19015   8.367  11.172   2.626  0.4504 -2.0039  0.2669
  882MOL0     H19016   8.437  11.155   2.789  2.8423 -1.9732  0.1749
  882MOL0     H19017   8.428  11.400   2.736  1.7091  0.3654  0.2924
  882MOL0     H19018   8.600  11.342   2.714  1.7227  1.3281 -2.2100
  882MOL0     H19019   8.403  11.417   2.521  0.4997 -1.4548 -1.6298
  882MOL0     H19020   8.562  11.339   2.478 -1.0489 -3.6131  1.2064
  882MOL0     H19021   8.497  11.645   2.720 -1.4235 -2.2964 -0.0090
  882MOL0     H19022   8.733  11.922   2.595 -0.6048  1.5979  1.5003
  882MOL0     H19023   8.641  11.886   2.733 -0.2850 -0.0554 -0.1155
  882MOL0     H19024   8.876  11.782   2.842  3.3031  0.2630  0.2938
  882MOL0     H19025   8.879  11.954   2.804 -2.7579  1.5801 -1.2424
  882MOL0     H19026   8.996  11.911   2.605 -0.4064 -0.7345 -1.2445
  882MOL0     H19027   8.982  11.737   2.610 -0.2396 -0.1642 -0.8543
  882MOL0     H19028   9.119  11.891   2.826 -0.0357  1.2499  0.0066
  882MOL0     H19029   9.207  11.838   2.694 -0.0203  0.8110  0.3443
  882MOL0     H19030   9.199  11.817   2.990  3.2752  2.5042 -0.6755
  882MOL0     H19031   9.286  11.762   3.269 -1.0559  2.3252  0.0163
  882MOL0     H19032   9.460  11.799   3.252  1.1196 -2.5826 -0.9649
  882MOL0     H19033   9.332  11.895   3.163 -4.3306 -0.9797 -2.0851
  882MOL0     H19034   9.638  11.736   3.474 -1.3289 -1.6128 -1.3659
  882MOL0     H19035   9.810  11.697   3.631 -2.8924  0.6658  0.0996
  882MOL0     H19036  10.125  11.377   3.548  1.0097  1.0519 -0.1770
  882MOL0     H19037  10.166  11.437   3.705 -0.3009 -1.1311 -1.6061
  882MOL0     H19038   9.948  11.379   3.808 -2.4007 -0.0506 -0.3756
  882MOL0     H19039   9.906  11.304   3.659 -1.3305  0.8955  1.1230
  882MOL0     H19040  10.143  11.189   3.679  1.1724  2.4575  0.5639
  882MOL0     H19041   9.996  11.106   3.748 -0.2226 -0.2149  0.5684
  882MOL0     H19042  10.160  11.290   3.908 -1.1011  1.0495 -2.7912
  882MOL0     H19043  10.055  11.177   3.969  0.7964 -1.8794 -0.4796
  882MOL0     H19044  10.319  11.079   3.837 -0.7752  2.3377 -1.4090
  882MOL0     H19045  10.207  10.968   3.908  0.2726  1.0042 -3.6303
  882MOL0     H19046  10.425  11.057   4.024 -1.2760  1.1115 -3.1318
  882MOL0     H19047  10.342  11.214   4.047  1.1899  0.7447  2.1989
  882MOL0     H19048  10.294  10.932   4.158  4.9984 -0.0030 -0.7252
  882MOL0     H19049  10.205  11.086   4.225 -0.0201  3.0104 -1.7466
  882MOL0     H19050  10.504  11.005   4.235  0.6585 -0.8992  0.9084
  882MOL0     H19051  10.384  11.030   4.367 -2.8308  1.2016 -1.0065
  882MOL0     H19052   9.985  11.400   3.386  0.1979 -2.6319 -0.9111
  882MOL0     H19053   9.791  11.417   3.234 -2.9266 -0.5207  1.5747
  882MOL0     H19054   9.477  11.426   2.911 -0.7856 -1.2291 -2.0788
  882MOL0     H19055   9.307  11.451   2.792  1.9311 -1.7146  1.9432
  882MOL0     H19056   9.001  10.606   2.440 -0.0624 -0.0559  0.6525
  882MOL0     H19057   9.166  10.434   2.441  1.2584 -1.0380  2.6402
  882MOL0     H19058   9.162   9.977   2.173 -1.8048 -2.0569  0.2503
  882MOL0     H19059   9.327   9.781   2.132  0.2987  2.0837 -2.0980
  882MOL0     H19060   9.663   9.796   2.354  1.0598  0.7116  0.6237
  882MOL0     H19061   9.626   9.653   2.464 -0.5196 -2.0527 -1.4244
  882MOL0     H19062   9.713   9.658   2.176  1.2780  1.6192  1.2094
  882MOL0     H19063   9.650   9.507   2.259  0.5684 -0.0527 -1.7495
  882MOL0     H19064   9.896   9.671   2.318 -2.7522  0.8388 -3.0176
  882MOL0     H19065   9.892   9.513   2.241 -0.3073  0.6946 -0.7481
  882MOL0     H19066   9.793   9.417   2.456  1.3928 -1.1483  1.8939
  882MOL0     H19067   9.809   9.567   2.544  0.7045  1.4448  0.6876
  882MOL0     H19068  10.216   9.449   2.470  0.6647  4.3731  0.7337
  882MOL0     H19069   9.479   9.842   2.535  2.1902  1.8989 -0.4163
  882MOL0     H19070   9.317  10.026   2.569 -1.6227  1.4390 -0.9127
  883MOL0     O19071   1.724   9.890  10.055 -0.4632 -0.8868  0.1270
  883MOL0     C19072   1.613   9.862  10.111 -0.6066 -0.9653  0.0188
  883MOL0     O19073   1.572   9.901  10.230  0.3379 -1.1293 -0.5428
  883MOL0     C19074   1.642   9.983  10.311 -0.0398  0.1200  0.2943
  883MOL0     C19075   1.736  10.088  10.269 -0.0053 -0.1214  0.1751
  883MOL0     C19076   1.804  10.166  10.358  1.0802  0.0964 -0.9141
  883MOL0     C19077   1.773  10.155  10.491 -0.5936 -0.4937 -1.2768
  883MOL0     O19078   1.845  10.226  10.597 -0.6289  0.2824  0.1330
  883MOL0     C19079   1.856  10.363  10.579  0.5027 -0.2131 -0.0940
  883MOL0     C19080   1.936  10.431  10.697 -0.4436  0.1554 -0.3355
  883MOL0     C19081   1.977  10.573  10.671 -0.4085 -0.4338 -0.7918
  883MOL0     C19082   2.067  10.631  10.782 -0.4921 -0.1178 -0.4235
  883MOL0     C19083   2.208  10.566  10.796 -0.3555 -0.0939  0.0132
  883MOL0     C19084   2.312  10.662  10.853  0.4148 -0.3997  0.7783
  883MOL0     C19085   2.286  10.683  10.993  0.5584 -0.4583  0.7078
  883MOL0     C19086   2.361  10.796  11.051 -0.2310  0.6121  0.1062
  883MOL0     N19087   2.300  10.844  11.171  0.1690  0.8470 -0.2574
  883MOL0     C19088   2.323  10.783  11.291 -0.7601 -0.6329  0.3248
  883MOL0     C19089   2.248  10.857  11.368  0.2380  0.3604 -0.9959
  883MOL0     C19090   2.223  10.810  11.512 -0.0688 -0.0931  0.1329
  883MOL0     C19091   2.329  10.852  11.615 -0.1880  0.6996 -0.4177
  883MOL0     C19092   2.326  11.002  11.642 -0.2146 -0.5827 -0.0310
  883MOL0     C19093   2.462  11.043  11.701 -0.4836  0.0049 -0.2939
  883MOL0     O19094   2.447  11.157  11.790  0.0731 -0.8047  0.7291
  883MOL0     C19095   2.433  11.125  11.927  0.3447 -0.3541  1.1488
  883MOL0     C19096   2.449  11.228  12.014  0.3298 -0.3331  0.3892
  883MOL0     C19097   2.452  11.201  12.150  0.4255  0.4671 -0.1998
  883MOL0     C19098   2.487  11.323  12.240  0.5785  0.2065  1.2918
  883MOL0     C19099   2.424  11.073  12.202  0.6870  0.0735  0.8678
  883MOL0     C19100   2.421  11.019  12.350  0.3228 -0.3279  0.0459
  883MOL0     O19101   2.337  10.917  12.368  0.4332 -1.0907 -0.4042
  883MOL0     C19102   2.333  10.886  12.508  0.9058 -0.7749  0.5687
  883MOL0     C19103   2.413  10.781  12.566 -0.1734 -0.8229  0.6868
  883MOL0     C19104   2.417  10.753  12.700  0.6704 -0.3269 -0.6141
  883MOL0     C19105   2.329  10.821  12.789  0.9458 -0.7615  0.9354
  883MOL0     O19106   2.350  10.787  12.916  0.3574 -0.2795 -0.8451
  883MOL0     C19107   2.298  10.879  13.016  0.1433  0.3166 -0.1717
  883MOL0     C19108   2.336  10.835  13.158  0.4782 -0.5433  0.3014
  883MOL0     C19109   2.267  10.706  13.200 -0.8642  0.6976 -0.0838
  883MOL0     C19110   2.270  10.685  13.350  0.6502 -0.1125 -0.4932
  883MOL0     C19111   2.149  10.764  13.404 -0.5212  0.8131  0.3943
  883MOL0     C19112   2.035  10.677  13.447  0.2988  0.6919  0.4791
  883MOL0     C19113   1.942  10.755  13.542 -0.1457  0.5014  0.2055
  883MOL0     C19114   1.836  10.661  13.597 -0.3692  0.1100  0.4985
  883MOL0    Cl19115   1.887  10.512  13.663 -0.1708  0.1111 -0.9145
  883MOL0     C19116   2.252  10.928  12.739 -0.0287  0.7746  0.0206
  883MOL0     C19117   2.258  10.956  12.605  0.7722  0.1032  0.7254
  883MOL0     O19118   2.487  11.075  12.433 -0.3636  0.1837 -0.6561
  883MOL0     C19119   2.385  10.984  12.114  0.1802  0.5489 -0.2499
  883MOL0     C19120   2.409  11.001  11.978 -1.0439 -0.7567  0.2160
  883MOL0     N19121   2.183  10.960  11.303  0.5048  0.1910 -0.0666
  883MOL0     N19122   2.218  10.954  11.181  0.5734 -0.4273  0.2044
  883MOL0     C19123   1.682  10.065  10.544  0.0830 -0.0115 -0.6906
  883MOL0     C19124   1.612   9.988  10.451 -0.0747  0.5524 -0.2963
  883MOL0     C19125   1.519   9.780  10.039 -0.3281 -0.2348 -0.4507
  883MOL0     C19126   1.567   9.674   9.952  0.3873 -0.6154  1.0225
  883MOL0     C19127   1.475   9.605   9.866  0.5664  0.3836 -0.8293
  883MOL0     C19128   1.338   9.634   9.882  0.5356  0.3292 -0.4574
  883MOL0     O19129   1.257   9.552   9.810  0.4105 -0.1136 -0.1785
  883MOL0     C19130   1.151   9.486   9.874  1.2175 -0.9559  0.1971
  883MOL0     C19131   1.165   9.341   9.835  0.4446 -0.9218  0.9080
  883MOL0     C19132   1.060   9.253   9.905 -0.0523  0.4405  0.4472
  883MOL0     C19133   1.071   9.105   9.856 -0.0177  0.2973 -0.0994
  883MOL0     C19134   1.016   9.090   9.719 -0.3132  0.6235  0.7194
  883MOL0     C19135   0.990   9.053   9.606  0.9725 -0.2639  0.3240
  883MOL0     C19136   1.291   9.726   9.967  0.0097 -0.3774 -0.6618
  883MOL0     C19137   1.380   9.809  10.035 -0.4559  0.7178 -0.2051
  883MOL0     H19138   1.760  10.099  10.164 -1.5309  3.7884  0.0783
  883MOL0     H19139   1.871  10.239  10.314  0.3757  1.4406  0.1969
  883MOL0     H19140   1.907  10.386  10.485 -0.0358  0.3809 -0.2484
  883MOL0     H19141   1.756  10.407  10.570  0.2606 -0.2321  1.9269
  883MOL0     H19142   1.863  10.440  10.778 -0.3652  0.4240 -0.2939
  883MOL0     H19143   2.018  10.367  10.732  0.6741  0.4564 -2.2713
  883MOL0     H19144   2.048  10.574  10.588  1.7392  1.3810  0.9371
  883MOL0     H19145   1.893  10.637  10.645  0.3569  0.6106 -0.7592
  883MOL0     H19146   2.078  10.739  10.770  1.9642 -0.3516 -0.8319
  883MOL0     H19147   2.011  10.629  10.876  2.7644  2.7268  1.8320
  883MOL0     H19148   2.201  10.477  10.859  0.2029  0.2847  0.6267
  883MOL0     H19149   2.236  10.522  10.700 -2.5723 -0.7564 -0.3838
  883MOL0     H19150   2.414  10.630  10.833  0.9264  1.4380  0.2586
  883MOL0     H19151   2.291  10.752  10.794  0.0904 -0.4986  0.7366
  883MOL0     H19152   2.180  10.688  11.020  0.0380  2.6642 -1.3633
  883MOL0     H19153   2.338  10.598  11.039  1.4050 -0.3014  0.0716
  883MOL0     H19154   2.361  10.880  10.982 -2.1262 -0.4767 -1.2967
  883MOL0     H19155   2.463  10.760  11.069  0.1520  0.3787 -2.2131
  883MOL0     H19156   2.381  10.698  11.326  0.0388 -0.7323 -1.1157
  883MOL0     H19157   2.130  10.858  11.543  1.2276  1.2129  2.1668
  883MOL0     H19158   2.202  10.702  11.510  2.6656 -0.7217  0.3151
  883MOL0     H19159   2.424  10.835  11.564 -1.2239 -2.1489 -1.6132
  883MOL0     H19160   2.319  10.791  11.705  2.9841 -2.8722 -2.2124
  883MOL0     H19161   2.248  11.015  11.717  1.4989  1.0690  1.5534
  883MOL0     H19162   2.296  11.053  11.550 -2.5559 -3.0107 -0.7554
  883MOL0     H19163   2.523  11.082  11.620  1.2070 -0.6436  0.6266
  883MOL0     H19164   2.504  10.957  11.754  1.0259  1.0656  0.3052
  883MOL0     H19165   2.479  11.321  11.967  4.2548 -2.0514 -0.8700
  883MOL0     H19166   2.494  11.411  12.176 -2.3914  1.9664  3.1723
  883MOL0     H19167   2.421  11.340  12.326  3.6225  0.0742  3.8598
  883MOL0     H19168   2.587  11.303  12.280  1.3926 -0.9772 -1.1631
  883MOL0     H19169   2.481  10.721  12.507  1.3693  1.0915  0.4188
  883MOL0     H19170   2.486  10.677  12.734  0.5312  0.3748  1.3699
  883MOL0     H19171   2.342  10.978  12.997  0.8631 -0.2588 -1.6746
  883MOL0     H19172   2.190  10.896  13.006 -0.0765 -0.5125  0.6701
  883MOL0     H19173   2.445  10.832  13.162  0.6750  2.4060 -0.6902
  883MOL0     H19174   2.321  10.919  13.226  0.4448 -1.4093  1.3971
  883MOL0     H19175   2.326  10.632  13.145 -1.9681 -0.5704  0.3922
  883MOL0     H19176   2.168  10.707  13.154 -0.3105  1.6609 -1.3086
  883MOL0     H19177   2.264  10.579  13.377 -1.6427  0.5510  2.0415
  883MOL0     H19178   2.356  10.741  13.385  1.1112 -1.5053  0.6785
  883MOL0     H19179   2.111  10.836  13.331 -1.6808  1.3619  1.4954
  883MOL0     H19180   2.181  10.823  13.490  2.8807  2.4124 -1.7375
  883MOL0     H19181   1.988  10.645  13.354  0.8148 -1.0156  0.7611
  883MOL0     H19182   2.069  10.585  13.497  0.2450  0.4993  0.1618
  883MOL0     H19183   1.894  10.842  13.495  0.8423  0.7579 -0.3581
  883MOL0     H19184   1.993  10.790  13.632  0.4950  0.3194 -0.0819
  883MOL0     H19185   1.767  10.646  13.513  1.0999  0.8148 -0.8923
  883MOL0     H19186   1.780  10.717  13.672  0.1857  0.1990  0.8496
  883MOL0     H19187   2.194  11.001  12.795  1.1611  1.8734 -0.1402
  883MOL0     H19188   2.186  11.035  12.587 -0.4637 -0.1279  4.0486
  883MOL0     H19189   2.351  10.884  12.140  1.5230 -0.8322 -3.3595
  883MOL0     H19190   2.395  10.916  11.913 -1.3097 -2.8780  2.8392
  883MOL0     H19191   1.661  10.064  10.651  0.1525 -0.3996 -0.6763
  883MOL0     H19192   1.529   9.934  10.496 -0.1207  0.5231 -0.4157
  883MOL0     H19193   1.672   9.649   9.940  1.1780  2.4267  0.7415
  883MOL0     H19194   1.515   9.530   9.799  2.4354  1.9499 -1.5866
  883MOL0     H19195   1.131   9.511   9.979 -3.7960 -2.0540 -0.2394
  883MOL0     H19196   1.059   9.499   9.816  2.1744 -1.8741 -1.6041
  883MOL0     H19197   1.264   9.310   9.872 -0.4609 -0.5174  3.9602
  883MOL0     H19198   1.167   9.336   9.726  3.3232  0.6587  0.7795
  883MOL0     H19199   0.959   9.287   9.881 -1.2446 -3.5782 -1.1531
  883MOL0     H19200   1.079   9.248  10.012  0.6803  1.6056  0.4000
  883MOL0     H19201   1.009   9.040   9.918 -0.4642  0.7970 -0.0170
  883MOL0     H19202   1.177   9.080   9.843  0.4709  1.1485  1.8308
  883MOL0     H19203   0.967   9.017   9.507 -2.8711 -0.8048  1.2281
  883MOL0     H19204   1.189   9.741  10.002  1.1426  0.8129  2.5402
  883MOL0     H19205   1.340   9.889  10.096  0.8768  0.2106  1.3964
  884MOL0     O19206   9.077   9.861   7.555  0.0345 -0.7398  0.5989
  884MOL0     C19207   8.975   9.792   7.576 -0.2240 -0.0208  0.5860
  884MOL0     O19208   8.972   9.661   7.625 -0.3851 -0.0548  0.4300
  884MOL0     C19209   9.092   9.595   7.623 -0.0377  0.1610 -0.2280
  884MOL0     C19210   9.142   9.559   7.752 -0.6136  0.5849 -0.5930
  884MOL0     C19211   9.267   9.496   7.752 -0.5295  0.1375 -0.5762
  884MOL0     C19212   9.319   9.442   7.631  0.5741 -0.2555 -0.8480
  884MOL0     O19213   9.434   9.371   7.638  0.7781 -0.1700 -0.4863
  884MOL0     C19214   9.540   9.392   7.543 -0.5374  0.9069  0.0749
  884MOL0     C19215   9.601   9.534   7.545 -0.4594 -0.6658  0.2999
  884MOL0     C19216   9.645   9.565   7.689 -0.9804 -0.9343 -0.0783
  884MOL0     C19217   9.744   9.470   7.759 -0.2269  0.0633 -0.2998
  884MOL0     C19218   9.886   9.472   7.705  0.0848  0.8020 -0.4674
  884MOL0     C19219   9.977   9.369   7.773 -0.5726  0.5710  0.5705
  884MOL0     C19220  10.113   9.348   7.694 -0.2797 -0.4907  0.2738
  884MOL0     C19221  10.107   9.226   7.604 -0.8759  0.7212  0.7183
  884MOL0     N19222  10.240   9.195   7.536 -0.4150  0.2718 -0.6976
  884MOL0     C19223  10.278   9.086   7.457 -0.6110 -0.5208 -0.6676
  884MOL0     C19224  10.409   9.115   7.423 -1.0521 -1.0889 -0.8738
  884MOL0     C19225  10.496   9.051   7.307 -0.1096  0.2039 -0.2480
  884MOL0     C19226  10.528   8.911   7.339 -0.1989  0.6991 -0.2619
  884MOL0     C19227  10.590   8.834   7.220 -0.0124 -0.2779 -1.1095
  884MOL0     C19228  10.646   8.700   7.270 -0.3944 -0.4268 -0.2589
  884MOL0     O19229  10.692   8.626   7.151 -0.1640 -0.4825 -0.4123
  884MOL0     C19230  10.819   8.652   7.096 -0.6009  0.2711  0.0546
  884MOL0     C19231  10.827   8.619   6.956 -0.5846  0.1174  0.9213
  884MOL0     C19232  10.956   8.623   6.890  0.4354  0.8324 -0.1603
  884MOL0     C19233  10.968   8.577   6.744 -0.8751  0.1304  0.4626
  884MOL0     C19234  11.062   8.676   6.963 -0.6366 -0.0067  0.2615
  884MOL0     C19235  11.205   8.684   6.915 -0.5125 -0.4352  1.1704
  884MOL0     O19236  11.285   8.779   6.974 -0.6522  0.0863  0.5658
  884MOL0     C19237  11.410   8.803   6.931  0.1920 -0.4674  0.3274
  884MOL0     C19238  11.454   8.930   6.883  0.2991 -0.7136 -0.3670
  884MOL0     C19239  11.593   8.962   6.843  0.6756  0.1566  0.0922
  884MOL0     C19240  11.682   8.859   6.847 -0.2058 -1.2023  0.2814
  884MOL0     O19241  11.815   8.885   6.822  0.7854  0.1098 -0.8020
  884MOL0     C19242  11.855   8.994   6.742  0.4055  0.6509  0.6188
  884MOL0     C19243  12.001   8.997   6.728 -0.0642  0.1475  0.2405
  884MOL0     C19244  12.070   9.072   6.850  0.1473 -0.2811  0.5322
  884MOL0     C19245  12.222   9.056   6.840 -0.0380 -0.0914  0.7720
  884MOL0     C19246  12.294   9.102   6.965  0.3868 -0.2220 -0.5384
  884MOL0     C19247  12.448   9.102   6.952 -0.3315 -0.0655 -0.7205
  884MOL0     C19248  12.521   8.961   6.920  0.3121 -0.5291  0.7493
  884MOL0     C19249  12.629   8.985   6.820  0.1752  1.2866 -0.4653
  884MOL0    Cl19250  12.744   9.117   6.862  0.1094  0.2234 -0.1213
  884MOL0     C19251  11.638   8.747   6.903 -0.6792  0.0109  0.1924
  884MOL0     C19252  11.513   8.711   6.942  0.3223  0.7153  0.1740
  884MOL0     O19253  11.243   8.610   6.825 -0.2328 -0.9385 -0.2942
  884MOL0     C19254  11.048   8.716   7.098  0.2546 -0.3412 -0.3506
  884MOL0     C19255  10.922   8.707   7.165 -0.8392  0.9039  0.3321
  884MOL0     N19256  10.452   9.221   7.490 -0.5983 -0.8825  0.3116
  884MOL0     N19257  10.352   9.265   7.565 -1.0183 -0.3603 -0.3355
  884MOL0     C19258   9.262   9.490   7.514 -0.5147 -0.0529  0.2004
  884MOL0     C19259   9.152   9.561   7.504  0.3444 -0.8689 -0.2539
  884MOL0     C19260   8.846   9.867   7.556 -0.3737  0.4873 -0.0973
  884MOL0     C19261   8.737   9.812   7.612 -0.3306  0.4779 -0.1679
  884MOL0     C19262   8.615   9.873   7.595  0.0034  0.3722 -0.6089
  884MOL0     C19263   8.606   9.997   7.530 -0.7031 -0.7364  0.3096
  884MOL0     O19264   8.485  10.057   7.501  0.3196 -0.1055 -0.2820
  884MOL0     C19265   8.359   9.989   7.533  0.6130  0.2393 -0.3889
  884MOL0     C19266   8.237  10.076   7.485  0.4362 -0.3157 -0.0888
  884MOL0     C19267   8.213  10.081   7.331 -0.4228  0.2690 -0.4758
  884MOL0     C19268   8.321  10.139   7.249 -0.0615 -0.7499 -0.4638
  884MOL0     C19269   8.268  10.145   7.108  0.4865  0.1225  0.3466
  884MOL0     C19270   8.227  10.157   6.994 -0.1960 -0.8488  0.4651
  884MOL0     C19271   8.726  10.051   7.484  0.5516  0.2116 -0.8964
  884MOL0     C19272   8.844   9.984   7.486  0.7505  0.9947 -0.1827
  884MOL0     H19273   9.101   9.584   7.850 -1.0261  0.1888 -0.6627
  884MOL0     H19274   9.319   9.476   7.845 -2.9519 -4.5976  0.0591
  884MOL0     H19275   9.612   9.312   7.563 -0.9869  0.0483 -1.5589
  884MOL0     H19276   9.517   9.368   7.439  1.3750 -0.2247 -0.1372
  884MOL0     H19277   9.688   9.530   7.479 -3.6358 -0.6816 -4.3806
  884MOL0     H19278   9.529   9.611   7.515  2.6771  2.0222 -0.8561
  884MOL0     H19279   9.692   9.664   7.687  1.6358 -2.0223  1.4022
  884MOL0     H19280   9.561   9.574   7.759 -0.2211  1.5216  0.6081
  884MOL0     H19281   9.758   9.508   7.861 -0.7142  0.6477 -0.4451
  884MOL0     H19282   9.696   9.373   7.774 -0.8999  0.4805  0.3557
  884MOL0     H19283   9.876   9.446   7.599 -2.0809  0.3171 -0.1919
  884MOL0     H19284   9.924   9.574   7.716  2.6011 -0.2929  2.6986
  884MOL0     H19285  10.003   9.409   7.871  1.4771  2.8184 -0.7906
  884MOL0     H19286   9.935   9.268   7.781  3.8343 -1.8802 -2.5653
  884MOL0     H19287  10.137   9.427   7.623  0.7787 -1.7089 -0.7780
  884MOL0     H19288  10.194   9.333   7.766 -1.5763  1.6691  2.3339
  884MOL0     H19289  10.025   9.242   7.534  0.9145 -0.9847 -1.9871
  884MOL0     H19290  10.088   9.132   7.657  0.4657  0.7091  1.2094
  884MOL0     H19291  10.210   9.005   7.429  0.4979 -1.3623 -0.9765
  884MOL0     H19292  10.445   9.060   7.210  1.0493  3.8589 -0.6760
  884MOL0     H19293  10.589   9.108   7.304 -0.0260  0.6397  3.9934
  884MOL0     H19294  10.446   8.846   7.370  0.2863  0.8891  1.4805
  884MOL0     H19295  10.595   8.910   7.425 -2.3154 -1.1883  1.4640
  884MOL0     H19296  10.672   8.900   7.187 -1.2578  1.4113 -0.9676
  884MOL0     H19297  10.511   8.827   7.144 -1.5495  0.4783  0.3592
  884MOL0     H19298  10.567   8.650   7.327  0.9052 -0.2335  1.8313
  884MOL0     H19299  10.735   8.712   7.333  0.5420  1.0470 -1.7828
  884MOL0     H19300  10.732   8.586   6.916 -0.0009  1.6280 -1.9512
  884MOL0     H19301  11.027   8.486   6.730 -1.3273  0.1054 -1.7036
  884MOL0     H19302  10.867   8.549   6.714 -0.3945  0.7147 -1.9430
  884MOL0     H19303  11.002   8.652   6.672  1.5564 -2.0479 -0.8179
  884MOL0     H19304  11.378   9.007   6.893 -0.2578 -1.5418  3.0676
  884MOL0     H19305  11.616   9.065   6.821 -0.7846  0.2952 -0.8950
  884MOL0     H19306  11.802   8.977   6.648  1.1072 -1.4150  0.5507
  884MOL0     H19307  11.822   9.094   6.773 -1.8497 -0.3251  1.5823
  884MOL0     H19308  12.025   8.890   6.723  2.0703  0.4756  1.8707
  884MOL0     H19309  12.028   9.047   6.634 -2.5577  1.3145  0.0505
  884MOL0     H19310  12.035   9.040   6.949 -0.2793 -2.0002 -0.1423
  884MOL0     H19311  12.048   9.177   6.829 -1.4850 -0.6772  0.1775
  884MOL0     H19312  12.242   8.951   6.815  0.3400  0.6894 -2.6821
  884MOL0     H19313  12.254   9.105   6.747 -0.9982  1.2453  1.1042
  884MOL0     H19314  12.273   9.040   7.053  1.2005 -2.4277 -1.8313
  884MOL0     H19315  12.268   9.207   6.979  0.6297 -0.4658  2.2465
  884MOL0     H19316  12.476   9.177   6.877  4.2148  0.7537  1.4558
  884MOL0     H19317  12.480   9.147   7.046 -3.8568  1.2773  0.0122
  884MOL0     H19318  12.461   8.875   6.888 -0.6519  0.2606  0.3546
  884MOL0     H19319  12.568   8.932   7.014  2.1394  0.4203  0.1734
  884MOL0     H19320  12.588   9.008   6.722  1.2027  0.0048 -1.2269
  884MOL0     H19321  12.683   8.890   6.809  1.0350  1.4713  1.6365
  884MOL0     H19322  11.714   8.669   6.905 -1.0688 -0.3550  1.2389
  884MOL0     H19323  11.495   8.612   6.982  1.8422 -0.1173 -1.0871
  884MOL0     H19324  11.130   8.744   7.163 -0.4847  1.4037 -0.1164
  884MOL0     H19325  10.918   8.729   7.271 -1.9085  1.5012  0.1768
  884MOL0     H19326   9.311   9.465   7.421 -0.7418 -0.2230  0.1253
  884MOL0     H19327   9.110   9.592   7.409  3.9834 -1.5823 -2.2563
  884MOL0     H19328   8.741   9.718   7.665 -4.5584  0.1163 -0.2008
  884MOL0     H19329   8.528   9.824   7.638 -0.3433  0.0545 -1.6455
  884MOL0     H19330   8.352   9.889   7.490  1.4004 -0.2045  0.4832
  884MOL0     H19331   8.359   9.979   7.642  1.7009  0.9959 -0.3113
  884MOL0     H19332   8.238  10.178   7.526  1.4307  0.5948 -2.2274
  884MOL0     H19333   8.152  10.021   7.528  0.4580  0.1811  0.6090
  884MOL0     H19334   8.119  10.134   7.315 -1.5767 -1.8594 -1.0221
  884MOL0     H19335   8.197   9.980   7.292 -2.7251  0.6392 -0.6415
  884MOL0     H19336   8.410  10.075   7.255  1.5786  1.4795  0.6232
  884MOL0     H19337   8.350  10.240   7.281 -3.1036  1.4481 -3.8272
  884MOL0     H19338   8.167  10.160   6.905 -0.0098  1.1292  0.3635
  884MOL0     H19339   8.720  10.149   7.438 -0.1056  0.1019 -1.0500
  884MOL0     H19340   8.934  10.027   7.442  1.1716 -0.2776 -0.6008
  885MOL0     O19341  11.298   2.670   7.334 -0.0452  0.8786 -0.6354
  885MOL0     C19342  11.354   2.603   7.421 -0.2475 -0.5709 -0.0221
  885MOL0     O19343  11.333   2.620   7.554  0.4636  0.3005  0.1684
  885MOL0     C19344  11.268   2.732   7.596  0.0885 -0.2525 -0.3294
  885MOL0     C19345  11.329   2.828   7.684  0.3602 -0.4668 -0.1809
  885MOL0     C19346  11.247   2.941   7.726  0.2475 -0.1768 -0.2400
  885MOL0     C19347  11.111   2.942   7.706 -0.0247  0.7280  0.1599
  885MOL0     O19348  11.029   3.034   7.768 -0.8234 -0.2921 -0.1424
  885MOL0     C19349  10.915   2.985   7.848  0.1124  0.1263  0.6069
  885MOL0     C19350  10.932   3.065   7.976  0.1281  0.2206  0.3582
  885MOL0     C19351  10.814   3.021   8.070 -0.1131 -0.6686  0.6187
  885MOL0     C19352  10.680   3.083   8.020 -0.1924  0.5797 -0.2374
  885MOL0     C19353  10.576   3.071   8.133 -0.1471  0.8682  0.6485
  885MOL0     C19354  10.442   3.141   8.110  0.2929 -0.8681 -0.3710
  885MOL0     C19355  10.352   3.149   8.237  1.0214 -0.5189  1.5620
  885MOL0     C19356  10.374   3.255   8.337 -0.2548  0.6068  0.4167
  885MOL0     N19357  10.496   3.251   8.404 -0.3321 -0.5353 -0.5204
  885MOL0     C19358  10.521   3.151   8.494 -0.2276 -0.0615  0.2589
  885MOL0     C19359  10.650   3.185   8.527 -0.2014 -0.2294 -0.3750
  885MOL0     C19360  10.733   3.101   8.619 -1.0133  0.9297  0.1269
  885MOL0     C19361  10.769   2.963   8.566  0.4466 -0.4829 -0.5584
  885MOL0     C19362  10.830   2.958   8.428  0.6188  0.0588  0.5012
  885MOL0     C19363  10.909   2.843   8.385 -0.6571 -0.1791  0.7027
  885MOL0     O19364  11.051   2.851   8.423 -0.6992  0.4765 -0.0742
  885MOL0     C19365  11.145   2.816   8.323  0.4335  0.0237  0.2251
  885MOL0     C19366  11.179   2.681   8.307  1.1506 -1.3361  0.0976
  885MOL0     C19367  11.272   2.649   8.209  0.0271 -0.6355 -0.7536
  885MOL0     C19368  11.314   2.501   8.191 -0.1512 -1.3159 -0.4733
  885MOL0     C19369  11.319   2.747   8.119 -1.2528  0.9642 -0.6193
  885MOL0     C19370  11.413   2.715   8.005 -0.4106 -0.1421 -0.8016
  885MOL0     O19371  11.517   2.787   7.992  0.3474 -0.3620 -0.2517
  885MOL0     C19372  11.596   2.768   7.881  0.4265 -0.5813  0.4881
  885MOL0     C19373  11.666   2.655   7.851  0.2985 -0.0271 -0.0292
  885MOL0     C19374  11.764   2.648   7.750  0.5793  0.2926 -0.7043
  885MOL0     C19375  11.781   2.758   7.671  0.4895 -0.1781  0.2189
  885MOL0     O19376  11.860   2.743   7.563  0.1090  0.6208 -0.3287
  885MOL0     C19377  11.797   2.676   7.448 -0.2364  0.8968  1.1529
  885MOL0     C19378  11.881   2.670   7.324  0.4485  0.0928  0.0420
  885MOL0     C19379  11.949   2.808   7.296 -0.7464 -1.0939 -0.3728
  885MOL0     C19380  11.991   2.848   7.153 -0.0519  0.2577 -0.2768
  885MOL0     C19381  12.086   2.965   7.136 -0.1584 -0.9213  0.2362
  885MOL0     C19382  12.109   3.012   6.984 -0.2417  0.1642 -0.0710
  885MOL0     C19383  12.259   3.038   6.936 -0.1034 -0.0104 -0.0206
  885MOL0     C19384  12.254   3.127   6.805 -0.1975 -0.1118 -0.9563
  885MOL0    Cl19385  12.421   3.194   6.770 -0.1035  0.4297 -0.0924
  885MOL0     C19386  11.708   2.876   7.695 -0.3390 -0.1007  0.0507
  885MOL0     C19387  11.628   2.883   7.803 -0.4887  0.0583 -0.3145
  885MOL0     O19388  11.378   2.625   7.922  0.2637 -0.1906  0.4905
  885MOL0     C19389  11.286   2.884   8.133  0.4037  0.8297  0.0103
  885MOL0     C19390  11.187   2.916   8.234 -0.7067 -0.1025  0.0047
  885MOL0     N19391  10.691   3.304   8.463  0.1087 -0.1408 -0.2635
  885MOL0     N19392  10.590   3.347   8.396  0.5855  0.5971  0.1784
  885MOL0     C19393  11.052   2.855   7.612  0.4542 -0.0875  0.5795
  885MOL0     C19394  11.132   2.755   7.552 -0.7395  0.7174  0.3267
  885MOL0     C19395  11.437   2.494   7.368 -0.0078  1.7269  0.1412
  885MOL0     C19396  11.540   2.443   7.448 -0.0117  1.1060 -0.6574
  885MOL0     C19397  11.626   2.346   7.404 -0.5688  0.7735 -0.5149
  885MOL0     C19398  11.605   2.283   7.281 -0.4110  0.4852 -0.5319
  885MOL0     O19399  11.673   2.164   7.240  0.2912 -0.3016 -0.0667
  885MOL0     C19400  11.665   2.045   7.315 -0.1554 -0.3065  0.7612
  885MOL0     C19401  11.530   2.012   7.371 -0.0359  1.0830  0.0236
  885MOL0     C19402  11.427   2.017   7.253  0.9740  0.3025  0.2884
  885MOL0     C19403  11.286   2.088   7.280 -0.0408  0.3853 -0.9802
  885MOL0     C19404  11.221   2.048   7.398 -0.0332  0.3188 -1.1089
  885MOL0     C19405  11.164   2.024   7.502 -0.1554  0.2121  0.7569
  885MOL0     C19406  11.509   2.333   7.197 -0.5533  0.1518 -0.2178
  885MOL0     C19407  11.427   2.434   7.235  0.0076  0.7356  0.0634
  885MOL0     H19408  11.436   2.815   7.694  1.5817  4.5235 -3.3337
  885MOL0     H19409  11.293   3.010   7.796  0.7926 -1.4995  0.7539
  885MOL0     H19410  10.825   3.009   7.790  1.0646 -0.5928 -1.2485
  885MOL0     H19411  10.917   2.878   7.872 -1.6788  0.4159  2.3074
  885MOL0     H19412  11.031   3.042   8.015 -1.1447 -0.2534  3.5840
  885MOL0     H19413  10.919   3.173   7.961 -0.7680  0.3154  1.6502
  885MOL0     H19414  10.809   2.912   8.075 -0.1322 -0.7510 -0.7293
  885MOL0     H19415  10.838   3.057   8.170  1.3860 -0.8480  0.3556
  885MOL0     H19416  10.679   3.191   8.004 -3.6011  0.8272  0.8995
  885MOL0     H19417  10.648   3.040   7.924  2.6189 -1.3557 -0.4358
  885MOL0     H19418  10.545   2.967   8.146 -2.4558  1.2030 -1.3204
  885MOL0     H19419  10.629   3.121   8.214 -0.1035  1.7638  0.0893
  885MOL0     H19420  10.448   3.239   8.062 -0.6101 -0.0265  1.1588
  885MOL0     H19421  10.394   3.088   8.027  1.8649 -0.0656 -1.8633
  885MOL0     H19422  10.250   3.158   8.198  1.9645 -4.0625 -2.4310
  885MOL0     H19423  10.356   3.052   8.286  4.0891 -0.2641  1.9737
  885MOL0     H19424  10.290   3.247   8.407  0.0598 -1.0221  0.6398
  885MOL0     H19425  10.367   3.349   8.281  2.7446  1.2542  0.9672
  885MOL0     H19426  10.472   3.057   8.515 -2.3631  0.5794 -1.4898
  885MOL0     H19427  10.827   3.152   8.641 -0.4996 -0.0985  0.3820
  885MOL0     H19428  10.683   3.071   8.712 -3.9916  1.3398 -1.2405
  885MOL0     H19429  10.678   2.904   8.551  1.3512 -2.1755  0.2822
  885MOL0     H19430  10.840   2.925   8.640  0.4888  1.0443  0.2297
  885MOL0     H19431  10.885   3.052   8.416  0.2025  0.3684  0.9716
  885MOL0     H19432  10.741   2.958   8.365  1.2670  0.4761 -0.4424
  885MOL0     H19433  10.905   2.838   8.276  2.1245  3.2930  0.2536
  885MOL0     H19434  10.867   2.750   8.425  2.0339 -1.4076  0.8665
  885MOL0     H19435  11.122   2.612   8.368 -1.7483  1.6981  1.1399
  885MOL0     H19436  11.423   2.488   8.196 -0.1140 -0.6124  3.1733
  885MOL0     H19437  11.279   2.451   8.281 -2.3797 -0.6643 -0.9267
  885MOL0     H19438  11.263   2.447   8.111  0.5078  0.7880 -2.4316
  885MOL0     H19439  11.645   2.567   7.910  1.6518  0.0212  0.5699
  885MOL0     H19440  11.823   2.559   7.732 -1.0208 -1.0827  0.5712
  885MOL0     H19441  11.780   2.572   7.477 -0.6587  0.9047  0.9517
  885MOL0     H19442  11.705   2.726   7.416 -0.2108  1.1544  1.4683
  885MOL0     H19443  11.952   2.588   7.333  0.3198 -0.2489 -1.6765
  885MOL0     H19444  11.829   2.641   7.232  2.6698  0.9657 -1.5840
  885MOL0     H19445  12.034   2.821   7.364 -0.6934 -0.0613 -0.6253
  885MOL0     H19446  11.885   2.892   7.322  1.5909  0.5389  0.3577
  885MOL0     H19447  12.048   2.768   7.105  0.1239 -1.0006  1.8976
  885MOL0     H19448  11.907   2.869   7.086  2.2204  2.2491 -2.7460
  885MOL0     H19449  12.179   2.941   7.187  0.7087  3.4985  1.1454
  885MOL0     H19450  12.039   3.049   7.188  0.5851 -0.1907 -0.2462
  885MOL0     H19451  12.077   2.928   6.920  1.3450 -0.0026 -0.6861
  885MOL0     H19452  12.042   3.096   6.965 -0.2589  0.4796  1.3098
  885MOL0     H19453  12.288   2.935   6.911 -4.5127 -1.2462 -0.9230
  885MOL0     H19454  12.330   3.086   7.005  0.5529  4.2140 -3.2400
  885MOL0     H19455  12.178   3.205   6.814 -0.9756 -0.8124 -1.3175
  885MOL0     H19456  12.234   3.059   6.722 -1.8872  0.2476 -0.8789
  885MOL0     H19457  11.706   2.964   7.631 -0.4817  1.5288  2.1875
  885MOL0     H19458  11.577   2.977   7.823  0.7513  1.3966 -2.9744
  885MOL0     H19459  11.332   2.962   8.073  1.2899 -0.0297 -0.4465
  885MOL0     H19460  11.150   3.017   8.245  0.7614  0.2042  3.1236
  885MOL0     H19461  10.948   2.850   7.581  0.9588 -3.5047 -1.1486
  885MOL0     H19462  11.094   2.670   7.496  0.9362  0.1590 -0.0102
  885MOL0     H19463  11.542   2.480   7.550  1.7661  1.4842 -0.7965
  885MOL0     H19464  11.697   2.295   7.469 -0.0963 -1.3499 -2.5428
  885MOL0     H19465  11.692   1.966   7.244  0.9580  1.1106 -0.4669
  885MOL0     H19466  11.738   2.049   7.397  0.7173  1.7113 -0.0262
  885MOL0     H19467  11.500   2.085   7.448  1.3703  0.6746  1.0014
  885MOL0     H19468  11.533   1.918   7.426 -1.4167  0.6731 -0.5710
  885MOL0     H19469  11.409   1.915   7.219  0.5003  0.1127  1.0922
  885MOL0     H19470  11.465   2.070   7.165 -1.3873  1.7968  0.0837
  885MOL0     H19471  11.212   2.080   7.200 -0.3475 -3.4766 -0.5107
  885MOL0     H19472  11.312   2.193   7.297  3.2900 -0.6070  0.9694
  885MOL0     H19473  11.099   2.018   7.586 -0.2276 -2.9309  0.6049
  885MOL0     H19474  11.488   2.279   7.105 -0.5084  1.5026 -1.0456
  885MOL0     H19475  11.347   2.466   7.169  1.7431  2.0914 -1.4986
  886MOL0     O19476   9.286   8.914   3.839  0.1540  0.5508 -0.1582
  886MOL0     C19477   9.367   8.931   3.932 -0.1840  0.1413  0.3795
  886MOL0     O19478   9.336   8.995   4.053  0.2968  0.4439 -0.4803
  886MOL0     C19479   9.212   8.989   4.110  0.1108  0.5570  0.2069
  886MOL0     C19480   9.135   8.875   4.084 -0.0540 -0.2804 -0.2134
  886MOL0     C19481   9.012   8.851   4.154  0.4580  0.3551 -0.5653
  886MOL0     C19482   8.970   8.952   4.247 -0.0669  0.8799 -0.1375
  886MOL0     O19483   8.842   8.945   4.290  0.5578  0.0980  0.5786
  886MOL0     C19484   8.795   8.829   4.358  0.6774  0.0985  1.1233
  886MOL0     C19485   8.652   8.854   4.432  0.4398  0.0603  0.1435
  886MOL0     C19486   8.545   8.871   4.326  0.1039 -1.5806  0.9375
  886MOL0     C19487   8.407   8.875   4.395 -0.3865 -0.3714 -0.2636
  886MOL0     C19488   8.309   8.977   4.335  0.5060 -0.2761 -0.2055
  886MOL0     C19489   8.179   8.983   4.414  0.4616  0.5902  0.3630
  886MOL0     C19490   8.066   9.068   4.348  0.4481 -0.0990  0.3339
  886MOL0     C19491   8.051   9.041   4.198 -0.3238 -0.7992  0.2415
  886MOL0     N19492   7.931   9.107   4.140  0.2801  0.0115  0.8129
  886MOL0     C19493   7.931   9.239   4.096 -0.2798 -0.1700  0.1735
  886MOL0     C19494   7.812   9.252   4.043 -0.0156 -0.0792 -0.0403
  886MOL0     C19495   7.758   9.379   3.996  0.0320 -0.8633  0.0619
  886MOL0     C19496   7.694   9.375   3.852 -0.1362 -0.0826 -0.1208
  886MOL0     C19497   7.647   9.516   3.804  0.1372  0.1740  0.3565
  886MOL0     C19498   7.540   9.516   3.697 -1.1332  0.2857  0.2462
  886MOL0     O19499   7.429   9.450   3.757  0.2173  0.3391 -0.2464
  886MOL0     C19500   7.305   9.502   3.722  0.1842 -0.7708 -0.4987
  886MOL0     C19501   7.224   9.567   3.815 -0.3937  0.0762 -0.8101
  886MOL0     C19502   7.097   9.614   3.788  0.3988 -0.8568 -0.8478
  886MOL0     C19503   7.036   9.683   3.904  0.5938 -0.8197 -0.6051
  886MOL0     C19504   7.033   9.585   3.666  0.8354 -0.6916 -0.0738
  886MOL0     C19505   6.900   9.634   3.625  0.1072 -0.4434  1.3454
  886MOL0     O19506   6.827   9.555   3.535 -0.2336  0.5042  0.6954
  886MOL0     C19507   6.714   9.595   3.468 -0.2056  0.2155  0.5792
  886MOL0     C19508   6.634   9.489   3.417  1.6688 -0.2154  0.4258
  886MOL0     C19509   6.514   9.525   3.349 -0.4032  1.0169  0.1788
  886MOL0     C19510   6.479   9.663   3.337  1.1385  1.0002  0.6053
  886MOL0     O19511   6.355   9.702   3.282 -0.9650 -0.5623  0.7003
  886MOL0     C19512   6.239   9.622   3.303 -0.0087 -0.5349  0.0412
  886MOL0     C19513   6.105   9.691   3.287  0.4400 -0.5771 -0.4170
  886MOL0     C19514   6.081   9.824   3.373  0.5482  0.8926  0.2040
  886MOL0     C19515   5.934   9.845   3.415  0.2154 -1.3066 -0.6409
  886MOL0     C19516   5.916   9.988   3.466  0.1027 -0.0639  0.5966
  886MOL0     C19517   5.773  10.018   3.499  0.4336 -0.1942  0.7102
  886MOL0     C19518   5.744  10.176   3.507 -0.2869  0.5088  1.0764
  886MOL0     C19519   5.602  10.208   3.445 -0.4126  0.5476  0.6704
  886MOL0    Cl19520   5.584  10.165   3.264 -0.2237 -0.0671 -0.3918
  886MOL0     C19521   6.566   9.766   3.362 -0.7413  0.0924 -0.7314
  886MOL0     C19522   6.682   9.729   3.440 -0.0321 -0.5402  0.5757
  886MOL0     O19523   6.857   9.738   3.670  1.8217  0.4014 -0.4605
  886MOL0     C19524   7.116   9.520   3.571  0.3862  0.0298  0.4673
  886MOL0     C19525   7.257   9.492   3.593 -0.0438 -0.9641  0.0634
  886MOL0     N19526   7.747   9.138   4.037  0.1437 -0.5920 -0.2548
  886MOL0     N19527   7.810   9.050   4.097 -0.4089  0.1733  0.0559
  886MOL0     C19528   9.039   9.073   4.266 -0.5845 -0.3460  0.2549
  886MOL0     C19529   9.170   9.088   4.202 -0.4646  0.1992  0.7434
  886MOL0     C19530   9.501   8.888   3.906 -0.5911 -0.2100  0.3173
  886MOL0     C19531   9.557   8.875   3.777 -0.7754  0.3916  0.1034
  886MOL0     C19532   9.698   8.868   3.761 -0.1795  0.3913  0.8576
  886MOL0     C19533   9.782   8.861   3.867  0.4884 -0.5421  0.0849
  886MOL0     O19534   9.918   8.851   3.849  0.6803  0.0903 -0.4203
  886MOL0     C19535   9.992   8.954   3.910  1.1307 -0.0924  0.4693
  886MOL0     C19536  10.114   8.977   3.818 -0.0783 -0.5856 -1.2570
  886MOL0     C19537  10.204   9.093   3.870  0.5549 -0.3212  0.7652
  886MOL0     C19538  10.299   9.057   3.982 -0.9546  0.4195 -0.5561
  886MOL0     C19539  10.282   9.113   4.116  0.3993  0.4073  0.8344
  886MOL0     C19540  10.282   9.149   4.229 -0.5952  0.7133  0.4618
  886MOL0     C19541   9.722   8.865   3.997 -0.2785 -0.0099 -0.4655
  886MOL0     C19542   9.587   8.890   4.019 -0.0716 -0.4051  0.3542
  886MOL0     H19543   9.158   8.794   4.016  2.0029 -0.9910  1.2289
  886MOL0     H19544   8.956   8.758   4.154  1.6500 -0.4031  1.4449
  886MOL0     H19545   8.793   8.745   4.287 -2.0314 -1.5497  2.9743
  886MOL0     H19546   8.868   8.801   4.435 -1.1338 -1.4947  2.3813
  886MOL0     H19547   8.643   8.766   4.496  4.0086  0.0296  0.8081
  886MOL0     H19548   8.647   8.936   4.504 -3.4326 -0.9273  1.2215
  886MOL0     H19549   8.568   8.962   4.270 -0.2408 -0.8079  2.0176
  886MOL0     H19550   8.540   8.794   4.249 -3.9810  0.8170 -1.6170
  886MOL0     H19551   8.367   8.773   4.399  2.2778 -1.4605  3.5244
  886MOL0     H19552   8.418   8.899   4.501 -1.7791 -0.2544 -0.1274
  886MOL0     H19553   8.353   9.077   4.337  1.5485 -0.7148  2.3779
  886MOL0     H19554   8.295   8.951   4.230  0.6804  0.6825 -0.4756
  886MOL0     H19555   8.142   8.880   4.421 -4.8677  2.2755  1.7462
  886MOL0     H19556   8.199   9.017   4.516 -2.4192  0.4641  1.0420
  886MOL0     H19557   7.969   9.053   4.395 -0.7766  0.9160 -1.7407
  886MOL0     H19558   8.079   9.177   4.357 -3.8989  0.4236  3.7447
  886MOL0     H19559   8.042   8.933   4.182  1.1232 -0.7084 -1.3231
  886MOL0     H19560   8.144   9.070   4.149 -0.1663 -0.7435  0.5732
  886MOL0     H19561   7.997   9.324   4.106  1.0667 -1.1494 -0.1374
  886MOL0     H19562   7.678   9.419   4.059  0.7631  0.8400 -0.0632
  886MOL0     H19563   7.839   9.452   4.002  0.4714 -1.1791 -1.5940
  886MOL0     H19564   7.610   9.306   3.863  1.5262 -1.7571  5.4001
  886MOL0     H19565   7.774   9.325   3.795 -0.7997 -2.5572  0.9501
  886MOL0     H19566   7.738   9.568   3.776 -0.1317  0.5636  0.2001
  886MOL0     H19567   7.604   9.572   3.888 -2.0514 -2.0215  0.8242
  886MOL0     H19568   7.586   9.470   3.609 -2.2162  1.2180 -0.8425
  886MOL0     H19569   7.527   9.619   3.664  0.9496  0.7216  0.6444
  886MOL0     H19570   7.275   9.593   3.907 -1.5620  0.9182 -0.3704
  886MOL0     H19571   6.929   9.662   3.915  0.9656 -2.8527 -0.4904
  886MOL0     H19572   7.090   9.668   3.998 -2.1509  0.4546  1.2947
  886MOL0     H19573   7.043   9.789   3.881 -3.1347 -0.4581 -0.6887
  886MOL0     H19574   6.671   9.392   3.447  1.1999  0.4366  3.4184
  886MOL0     H19575   6.450   9.440   3.326 -1.0607  0.5820  3.1714
  886MOL0     H19576   6.245   9.527   3.249 -1.5095 -1.9782  2.2360
  886MOL0     H19577   6.238   9.600   3.410 -1.1603  3.9296  1.1754
  886MOL0     H19578   6.104   9.721   3.182 -0.6715  1.9735  0.2487
  886MOL0     H19579   6.024   9.620   3.305  0.3095 -0.8126 -1.8052
  886MOL0     H19580   6.125   9.903   3.311  1.7602  0.1003  0.0238
  886MOL0     H19581   6.136   9.815   3.467 -1.1832  0.3180  1.2052
  886MOL0     H19582   5.863   9.823   3.335 -0.6171  1.0076 -0.6444
  886MOL0     H19583   5.906   9.801   3.511  0.8282  2.4099  1.4438
  886MOL0     H19584   5.948  10.060   3.390 -0.7531 -1.6175 -1.3322
  886MOL0     H19585   5.978  10.015   3.552 -0.7707  1.1439  0.8647
  886MOL0     H19586   5.710   9.971   3.423  1.9516  2.3441 -2.3701
  886MOL0     H19587   5.739   9.979   3.595 -1.3654  1.2086  0.7038
  886MOL0     H19588   5.827  10.225   3.455  1.6482  0.5931  4.0238
  886MOL0     H19589   5.741  10.210   3.610  1.0398 -1.7671  1.9518
  886MOL0     H19590   5.590  10.317   3.447  5.4392  1.5079  1.4761
  886MOL0     H19591   5.521  10.161   3.501 -0.8402 -2.4416 -2.1581
  886MOL0     H19592   6.524   9.864   3.341 -2.6500 -0.4227  0.4102
  886MOL0     H19593   6.748   9.810   3.471 -3.2303  2.0157  1.1748
  886MOL0     H19594   7.080   9.515   3.468 -0.9709  1.5201  0.8331
  886MOL0     H19595   7.323   9.445   3.521  0.6634 -1.0798  0.7780
  886MOL0     H19596   8.996   9.143   4.336  0.4849  0.8720 -0.2592
  886MOL0     H19597   9.240   9.169   4.224  0.6474 -0.2193 -1.0235
  886MOL0     H19598   9.499   8.866   3.686 -2.9640 -1.1661  1.5352
  886MOL0     H19599   9.740   8.862   3.661 -3.1724  0.1725 -0.4898
  886MOL0     H19600   9.925   9.040   3.921 -1.8166 -1.9384 -1.4034
  886MOL0     H19601  10.033   8.929   4.008  2.5335 -0.7855 -0.2659
  886MOL0     H19602  10.081   9.022   3.724 -0.1469 -0.0943 -1.0006
  886MOL0     H19603  10.181   8.891   3.813  0.8107 -0.0628  0.6654
  886MOL0     H19604  10.139   9.177   3.898 -1.4267  0.3276 -4.7146
  886MOL0     H19605  10.260   9.135   3.787  0.2920 -0.2648  0.6159
  886MOL0     H19606  10.403   9.077   3.955 -1.0139  1.1948 -0.2115
  886MOL0     H19607  10.293   8.949   3.997  0.8614  0.3585 -0.0477
  886MOL0     H19608  10.289   9.185   4.330  0.7677  0.7031  0.3990
  886MOL0     H19609   9.784   8.867   4.086  0.4352  2.1000 -0.9401
  886MOL0     H19610   9.550   8.915   4.118  3.3677  0.3635  1.5945
  887MOL0     O19611   4.883   0.823   7.772 -0.3501 -0.2217 -0.6298
  887MOL0     C19612   4.775   0.837   7.827  0.9132 -1.0546 -0.2796
  887MOL0     O19613   4.720   0.752   7.913  0.1407  0.4144 -0.3520
  887MOL0     C19614   4.774   0.627   7.928 -0.5567  0.2370  0.8801
  887MOL0     C19615   4.774   0.522   7.834 -0.0252 -0.2948 -0.3220
  887MOL0     C19616   4.833   0.395   7.845 -0.4365 -0.5513  0.0658
  887MOL0     C19617   4.875   0.358   7.972  0.3468 -0.2611  0.8908
  887MOL0     O19618   4.900   0.232   8.003 -0.6289  0.1390  1.3478
  887MOL0     C19619   4.999   0.169   7.921  0.0557  0.4261 -0.0188
  887MOL0     C19620   5.038   0.032   7.990  0.5987  0.0195  0.2476
  887MOL0     C19621   4.922  -0.065   8.012 -0.9273 -1.0385 -1.2911
  887MOL0     C19622   4.967  -0.185   8.075 -0.3887  1.2806 -0.6620
  887MOL0     C19623   5.089  -0.246   8.010 -0.3097  1.5501  0.2580
  887MOL0     C19624   5.111  -0.397   8.054 -0.0122 -1.1774 -0.5693
  887MOL0     C19625   5.210  -0.394   8.168  0.5208  0.5885  0.8405
  887MOL0     C19626   5.241  -0.534   8.212 -0.9727  0.9930  0.6992
  887MOL0     N19627   5.330  -0.560   8.328 -0.3680 -0.1072  0.0273
  887MOL0     C19628   5.310  -0.671   8.413 -0.2843 -0.3889  0.3967
  887MOL0     C19629   5.408  -0.664   8.494 -1.4730  0.3252  0.3415
  887MOL0     C19630   5.416  -0.763   8.606  0.5172  0.1383 -0.3119
  887MOL0     C19631   5.461  -0.902   8.551  0.8124  1.0270 -0.0264
  887MOL0     C19632   5.427  -1.001   8.661  0.8156  0.4905  0.1128
  887MOL0     C19633   5.497  -0.981   8.796 -0.7260  0.1781  0.6008
  887MOL0     O19634   5.625  -1.044   8.777  0.0021  0.3393 -0.2022
  887MOL0     C19635   5.723  -1.018   8.875 -0.6341  0.7946  0.5735
  887MOL0     C19636   5.841  -1.093   8.875  0.3804 -0.4212 -0.4107
  887MOL0     C19637   5.953  -1.077   8.951  0.4510  0.9446 -1.2328
  887MOL0     C19638   6.052  -1.176   8.915  0.1204 -0.0753  0.8729
  887MOL0     C19639   5.951  -0.979   9.063 -0.6107  0.5759 -0.7070
  887MOL0     C19640   6.064  -0.944   9.154  0.7619  0.2264 -0.0340
  887MOL0     O19641   6.041  -0.851   9.244  0.0291  0.0856 -0.2428
  887MOL0     C19642   6.141  -0.775   9.310  0.8116  0.6275 -0.4649
  887MOL0     C19643   6.146  -0.770   9.454  1.1510  0.6209  0.3378
  887MOL0     C19644   6.240  -0.690   9.522 -0.7495  0.6765  0.0114
  887MOL0     C19645   6.342  -0.630   9.452 -0.2682 -0.4204  0.0770
  887MOL0     O19646   6.449  -0.575   9.509  0.1286  0.6111  0.4345
  887MOL0     C19647   6.440  -0.436   9.513  0.5658  0.4567  0.3447
  887MOL0     C19648   6.442  -0.395   9.657 -0.2955 -0.2172 -1.2010
  887MOL0     C19649   6.571  -0.422   9.734 -0.9419 -0.8008  0.8000
  887MOL0     C19650   6.682  -0.320   9.695  0.4698  0.7546 -0.0525
  887MOL0     C19651   6.808  -0.354   9.779  0.7710 -0.1964  0.7438
  887MOL0     C19652   6.898  -0.468   9.732 -0.3583 -0.1757  0.0190
  887MOL0     C19653   7.012  -0.499   9.831 -0.3050  0.1203 -0.2871
  887MOL0     C19654   7.123  -0.397   9.838  0.6295 -0.5654 -1.0917
  887MOL0    Cl19655   7.253  -0.440   9.954  0.1466 -0.1289  0.0958
  887MOL0     C19656   6.333  -0.639   9.309 -0.3300  0.0098  0.5567
  887MOL0     C19657   6.221  -0.687   9.242  0.4580  1.3114 -0.3844
  887MOL0     O19658   6.172  -0.983   9.134 -0.3521 -0.3408  0.0452
  887MOL0     C19659   5.828  -0.904   9.076  0.2990  0.7701 -0.2922
  887MOL0     C19660   5.720  -0.926   8.985  0.0146 -1.0431 -1.0587
  887MOL0     N19661   5.491  -0.562   8.456  0.4733  1.2592  0.1289
  887MOL0     N19662   5.442  -0.496   8.357 -0.2066  0.1944 -0.2191
  887MOL0     C19663   4.870   0.449   8.078  0.0623 -0.4121 -0.4343
  887MOL0     C19664   4.827   0.583   8.052  0.7436 -0.3615 -0.4125
  887MOL0     C19665   4.708   0.980   7.812 -0.0926  0.6896 -0.2044
  887MOL0     C19666   4.760   1.076   7.716 -0.4767 -0.5316 -0.3525
  887MOL0     C19667   4.702   1.199   7.691  0.4820 -0.3918 -0.6883
  887MOL0     C19668   4.582   1.229   7.752 -0.1488  0.2602 -0.3281
  887MOL0     O19669   4.514   1.344   7.729  1.1219 -0.0259  0.3957
  887MOL0     C19670   4.549   1.434   7.624  0.0162 -0.7078  1.0510
  887MOL0     C19671   4.674   1.512   7.663 -1.0201  0.8573  0.4693
  887MOL0     C19672   4.720   1.619   7.563 -0.5629  1.0980  0.2290
  887MOL0     C19673   4.872   1.634   7.571 -0.0286  0.2244  0.6632
  887MOL0     C19674   4.911   1.695   7.702 -0.6625  0.0339 -0.4953
  887MOL0     C19675   4.954   1.759   7.792  0.5371  0.9747 -0.2675
  887MOL0     C19676   4.522   1.131   7.839 -0.7180  0.8568  0.6721
  887MOL0     C19677   4.580   1.010   7.872 -0.3862 -0.5661  0.2591
  887MOL0     H19678   4.728   0.558   7.743  2.7345  3.5146 -0.4291
  887MOL0     H19679   4.830   0.309   7.779  1.4497 -3.5231  3.4618
  887MOL0     H19680   4.946   0.153   7.827 -0.6489  1.0171  0.2713
  887MOL0     H19681   5.086   0.234   7.917  0.3415  0.0346 -0.2060
  887MOL0     H19682   5.098  -0.013   7.910  0.1513  0.0073 -0.0908
  887MOL0     H19683   5.099   0.041   8.080  0.9511  1.6284 -0.1187
  887MOL0     H19684   4.843  -0.026   8.076 -1.0802 -4.2969  0.7444
  887MOL0     H19685   4.884  -0.091   7.913 -0.5556 -0.5482 -1.5678
  887MOL0     H19686   4.995  -0.162   8.178 -1.2232  4.2178 -0.9692
  887MOL0     H19687   4.884  -0.256   8.080  0.5458  0.2446  0.5835
  887MOL0     H19688   5.072  -0.252   7.903  1.9922 -0.7247 -0.0737
  887MOL0     H19689   5.178  -0.186   8.030  1.8155 -1.2263 -0.3874
  887MOL0     H19690   5.017  -0.437   8.092  0.9905 -1.5015  1.7252
  887MOL0     H19691   5.139  -0.460   7.969 -0.2889  0.4197 -1.8959
  887MOL0     H19692   5.302  -0.340   8.142  1.8822 -1.5730  0.8288
  887MOL0     H19693   5.157  -0.349   8.252 -0.4666  1.8642 -0.4306
  887MOL0     H19694   5.272  -0.596   8.127  1.5484  0.7400  1.7116
  887MOL0     H19695   5.144  -0.578   8.234 -0.2339  0.4889  3.2748
  887MOL0     H19696   5.235  -0.750   8.415 -1.9214  1.0942  2.6460
  887MOL0     H19697   5.490  -0.733   8.681  0.5714  0.8075 -0.6267
  887MOL0     H19698   5.316  -0.760   8.651  0.4787  2.0233 -0.4491
  887MOL0     H19699   5.569  -0.899   8.540  1.4647  2.2046  4.6630
  887MOL0     H19700   5.424  -0.935   8.454  1.8545  0.0459 -0.1014
  887MOL0     H19701   5.448  -1.103   8.626 -1.6953 -0.3574  0.9265
  887MOL0     H19702   5.318  -1.009   8.660  0.8937 -0.6685  0.3256
  887MOL0     H19703   5.455  -1.035   8.881 -0.5029 -2.0804 -0.6565
  887MOL0     H19704   5.521  -0.876   8.819  3.4208 -0.4714 -0.0614
  887MOL0     H19705   5.846  -1.165   8.793  1.0950 -3.4954  2.1192
  887MOL0     H19706   6.015  -1.276   8.891 -1.1013  0.5703 -0.0470
  887MOL0     H19707   6.107  -1.137   8.829 -3.3975 -0.9615 -2.0374
  887MOL0     H19708   6.127  -1.189   8.993  0.8178 -0.9005  0.0959
  887MOL0     H19709   6.078  -0.831   9.512  1.5904  0.0656  0.2782
  887MOL0     H19710   6.242  -0.699   9.631  1.6631 -4.6294 -0.1580
  887MOL0     H19711   6.508  -0.376   9.452 -0.3828 -1.0320 -2.3422
  887MOL0     H19712   6.344  -0.413   9.465  1.5543  0.2202 -1.8596
  887MOL0     H19713   6.437  -0.286   9.663 -0.1139 -0.1703 -1.8440
  887MOL0     H19714   6.353  -0.435   9.705  1.6969 -2.7335  0.7116
  887MOL0     H19715   6.586  -0.530   9.722 -0.0491 -0.8206  1.9335
  887MOL0     H19716   6.546  -0.408   9.840 -3.4708 -0.4718  0.2227
  887MOL0     H19717   6.709  -0.314   9.589 -2.3082  3.2010 -0.7799
  887MOL0     H19718   6.659  -0.218   9.729  0.1686 -0.1664  2.7115
  887MOL0     H19719   6.781  -0.391   9.879  0.2502 -1.1332  0.2721
  887MOL0     H19720   6.870  -0.264   9.781  3.4080 -1.8889  0.3215
  887MOL0     H19721   6.835  -0.557   9.719 -0.9770  0.4880 -1.7813
  887MOL0     H19722   6.938  -0.450   9.632 -0.5435 -1.7624 -0.3820
  887MOL0     H19723   7.060  -0.592   9.800 -0.3487 -0.3412  0.9544
  887MOL0     H19724   6.961  -0.515   9.927 -0.4876 -3.0976 -0.8070
  887MOL0     H19725   7.093  -0.306   9.889  2.4735 -0.2653 -0.4775
  887MOL0     H19726   7.162  -0.383   9.736  1.5661 -0.3170 -0.7119
  887MOL0     H19727   6.409  -0.590   9.248 -0.7692 -0.2971 -0.2456
  887MOL0     H19728   6.197  -0.687   9.136 -3.1780 -0.7467  0.2581
  887MOL0     H19729   5.814  -0.846   9.166  1.5013  2.4203 -1.1116
  887MOL0     H19730   5.636  -0.862   9.011 -1.1961 -2.3673 -1.6084
  887MOL0     H19731   4.908   0.417   8.174  0.3651 -0.4560 -0.5650
  887MOL0     H19732   4.830   0.653   8.134  1.5177  0.9034 -1.4770
  887MOL0     H19733   4.856   1.055   7.670  1.0527 -1.3383  2.9273
  887MOL0     H19734   4.764   1.250   7.618  0.8598  0.3795  0.1389
  887MOL0     H19735   4.560   1.388   7.525  0.6625 -0.8820  1.1994
  887MOL0     H19736   4.461   1.498   7.633 -0.8734 -1.7275 -0.0233
  887MOL0     H19737   4.757   1.443   7.680 -3.1034 -1.5558  1.3586
  887MOL0     H19738   4.659   1.562   7.758 -1.5448  0.3293  0.6705
  887MOL0     H19739   4.680   1.716   7.595 -0.3299  2.0932 -2.2150
  887MOL0     H19740   4.683   1.602   7.461  2.7868  2.2087 -1.3058
  887MOL0     H19741   4.901   1.706   7.495 -3.8962  0.9553 -0.3680
  887MOL0     H19742   4.928   1.544   7.544  0.7415  0.9832 -0.3207
  887MOL0     H19743   4.985   1.814   7.879  0.9462  0.4359 -0.0676
  887MOL0     H19744   4.426   1.152   7.883  0.0565  0.2230  2.7846
  887MOL0     H19745   4.539   0.944   7.948 -0.7232 -1.9347 -1.0516
  888MOL0     O19746   0.305   9.059   8.680  0.1757 -0.0422 -1.2116
  888MOL0     C19747   0.363   9.043   8.581 -0.5707  0.7818  0.3434
  888MOL0     O19748   0.481   8.980   8.580 -0.1843  0.2735  0.3814
  888MOL0     C19749   0.539   8.953   8.702  0.8639 -0.2250  0.1810
  888MOL0     C19750   0.617   9.051   8.774  0.4196 -0.0079  0.3830
  888MOL0     C19751   0.678   9.015   8.887 -0.0319  0.0705 -0.2916
  888MOL0     C19752   0.680   8.886   8.936  0.1894  0.2522 -0.2490
  888MOL0     O19753   0.751   8.872   9.054 -0.0270 -0.4342  0.4828
  888MOL0     C19754   0.713   8.763   9.132  0.3214 -1.1424 -0.5670
  888MOL0     C19755   0.745   8.783   9.280 -0.5652 -0.2258 -0.1811
  888MOL0     C19756   0.902   8.772   9.283 -0.1639  0.3073 -0.0183
  888MOL0     C19757   0.959   8.704   9.414  0.2249  0.2702 -0.2058
  888MOL0     C19758   1.117   8.717   9.424  0.1758  0.3482 -0.1007
  888MOL0     C19759   1.205   8.616   9.337  1.0646  0.2173  0.0677
  888MOL0     C19760   1.357   8.626   9.360  0.8801  0.2610 -0.5015
  888MOL0     C19761   1.406   8.531   9.481  0.1233  1.1057 -0.1926
  888MOL0     N19762   1.558   8.521   9.471 -0.0717 -0.3913 -0.7220
  888MOL0     C19763   1.643   8.609   9.540  0.4786 -0.0835  0.4783
  888MOL0     C19764   1.763   8.545   9.547 -0.2597  0.0434  0.0258
  888MOL0     C19765   1.879   8.586   9.628 -0.5863  0.1516 -0.2401
  888MOL0     C19766   1.948   8.469   9.697  0.0258  0.0627  0.3923
  888MOL0     C19767   2.068   8.519   9.787  0.4518  0.6281 -0.0746
  888MOL0     C19768   2.027   8.631   9.886 -0.2135 -0.3499 -0.7955
  888MOL0     O19769   1.921   8.596   9.961 -0.1689  0.5848 -0.5951
  888MOL0     C19770   1.868   8.685  10.058  0.3996  0.5604  0.4566
  888MOL0     C19771   1.766   8.628  10.135  0.3916  0.0688  0.2998
  888MOL0     C19772   1.704   8.705  10.237  0.5354  0.0622  0.1546
  888MOL0     C19773   1.597   8.642  10.328 -0.3818  0.0728 -0.4508
  888MOL0     C19774   1.744   8.833  10.262  0.3239 -0.5702 -0.5555
  888MOL0     C19775   1.713   8.917  10.384 -0.1668 -0.1839  0.7862
  888MOL0     O19776   1.824   8.986  10.440 -0.2931  0.5543  0.5094
  888MOL0     C19777   1.808   9.071  10.547  0.7792 -0.2546  0.1763
  888MOL0     C19778   1.685   9.145  10.560 -0.4090 -0.5987  0.3680
  888MOL0     C19779   1.670   9.240  10.665  0.1652 -0.1127  0.0114
  888MOL0     C19780   1.778   9.258  10.761  0.3692  0.1772  0.0848
  888MOL0     O19781   1.760   9.360  10.856  0.0172  0.4264 -0.2628
  888MOL0     C19782   1.626   9.356  10.924 -0.4402 -0.1791  0.6401
  888MOL0     C19783   1.613   9.486  10.999  0.0931  0.7595  0.6773
  888MOL0     C19784   1.482   9.486  11.075  0.0711  0.0743 -0.4923
  888MOL0     C19785   1.491   9.558  11.205  0.8609 -0.0933 -0.6525
  888MOL0     C19786   1.372   9.638  11.249  0.0216 -0.6568 -0.0863
  888MOL0     C19787   1.359   9.674  11.393 -0.9760 -0.2021  0.6798
  888MOL0     C19788   1.243   9.769  11.425  0.0512  0.1653 -1.3131
  888MOL0     C19789   1.287   9.855  11.552 -1.1110  0.4562 -0.3725
  888MOL0    Cl19790   1.164   9.987  11.562  0.3338 -0.1270  0.1160
  888MOL0     C19791   1.892   9.184  10.751 -0.7692 -0.3754  0.5706
  888MOL0     C19792   1.908   9.094  10.645 -0.0020 -0.1746 -0.4078
  888MOL0     O19793   1.612   8.900  10.445 -0.3781  0.3439  0.3823
  888MOL0     C19794   1.841   8.889  10.179  0.3072 -0.6661 -0.4862
  888MOL0     C19795   1.898   8.824  10.073 -0.3226  0.3264  0.0893
  888MOL0     N19796   1.751   8.423   9.485  0.4236  0.7581  0.1446
  888MOL0     N19797   1.630   8.419   9.429 -0.7479 -0.7682 -0.0419
  888MOL0     C19798   0.606   8.787   8.870 -0.3210  0.1945  0.0471
  888MOL0     C19799   0.526   8.822   8.755  0.1091  0.8792 -0.2014
  888MOL0     C19800   0.307   9.093   8.456  0.6321  0.1559  0.2320
  888MOL0     C19801   0.187   9.160   8.460  0.6439 -0.0059 -0.4407
  888MOL0     C19802   0.135   9.220   8.343  0.6169 -0.3458  0.7811
  888MOL0     C19803   0.210   9.218   8.222  0.4303 -0.2276 -0.0083
  888MOL0     O19804   0.166   9.293   8.110 -0.1436  0.6924 -0.1699
  888MOL0     C19805   0.035   9.358   8.112 -0.3070 -0.2303  1.2591
  888MOL0     C19806  -0.068   9.259   8.068 -0.2498 -0.8236 -0.5326
  888MOL0     C19807  -0.037   9.168   7.951 -1.0031  0.0415  1.1754
  888MOL0     C19808   0.003   9.235   7.815  0.2907 -0.2419  1.0954
  888MOL0     C19809  -0.107   9.318   7.754 -0.4802 -0.5963 -0.2802
  888MOL0     C19810  -0.193   9.393   7.706  0.3588  0.3097 -0.1580
  888MOL0     C19811   0.320   9.132   8.214 -0.0331 -0.1808  0.0647
  888MOL0     C19812   0.375   9.076   8.331 -1.3580 -0.4942  0.6822
  888MOL0     H19813   0.620   9.152   8.734 -5.3968  0.0232 -0.9543
  888MOL0     H19814   0.724   9.089   8.951 -1.2036  1.7345 -1.2935
  888MOL0     H19815   0.606   8.744   9.125  0.1087  0.0830 -0.6986
  888MOL0     H19816   0.763   8.672   9.095  0.1858 -1.9890  1.2008
  888MOL0     H19817   0.711   8.880   9.319 -2.2011 -0.1838 -1.5990
  888MOL0     H19818   0.694   8.702   9.333  0.5618  2.5079  5.9197
  888MOL0     H19819   0.934   8.719   9.193 -0.6682 -2.4168  1.3017
  888MOL0     H19820   0.950   8.869   9.263 -0.5994  0.5306  0.0163
  888MOL0     H19821   0.903   8.745   9.499  1.8573  0.8623  0.6221
  888MOL0     H19822   0.942   8.596   9.414 -0.8181  0.4235  0.0696
  888MOL0     H19823   1.140   8.824   9.421 -2.7901  1.1304  1.2914
  888MOL0     H19824   1.133   8.694   9.530 -1.2886  1.3800  0.3883
  888MOL0     H19825   1.177   8.512   9.355  0.9987 -0.0175 -1.2701
  888MOL0     H19826   1.175   8.634   9.234 -2.5326  0.4518  1.0261
  888MOL0     H19827   1.398   8.596   9.263 -4.2528 -0.9316 -2.6759
  888MOL0     H19828   1.372   8.734   9.370 -3.6586  1.2037 -1.6493
  888MOL0     H19829   1.365   8.430   9.472  1.4095  0.4404  0.9361
  888MOL0     H19830   1.380   8.579   9.575 -4.2593 -0.1410 -0.5666
  888MOL0     H19831   1.609   8.706   9.576  1.6822  0.2160  0.8660
  888MOL0     H19832   1.954   8.644   9.572 -0.9938  0.6992 -0.2278
  888MOL0     H19833   1.839   8.649   9.707  0.7857  1.3653 -0.4587
  888MOL0     H19834   1.971   8.387   9.629  2.6481  2.6153 -2.0587
  888MOL0     H19835   1.879   8.417   9.765 -1.3463 -2.1827 -2.4784
  888MOL0     H19836   2.150   8.554   9.724  1.2110 -0.9370 -0.0272
  888MOL0     H19837   2.107   8.427   9.833 -0.9552 -1.3083 -2.4759
  888MOL0     H19838   2.004   8.724   9.834  0.2005 -1.4600 -3.1116
  888MOL0     H19839   2.113   8.661   9.948  0.2964 -2.1514 -0.5662
  888MOL0     H19840   1.737   8.524  10.126 -0.7940  0.2101  1.9955
  888MOL0     H19841   1.506   8.703  10.332  0.2835  1.0773 -0.1695
  888MOL0     H19842   1.577   8.543  10.287 -0.0789  0.5563 -1.8404
  888MOL0     H19843   1.640   8.634  10.428 -2.5950  0.7488  0.6111
  888MOL0     H19844   1.602   9.128  10.491 -2.0391  1.8914  1.5844
  888MOL0     H19845   1.577   9.294  10.679 -0.6690 -1.8065  1.3244
  888MOL0     H19846   1.539   9.356  10.858 -2.3744  0.3447  3.0505
  888MOL0     H19847   1.619   9.276  10.998 -0.2091 -0.0536  0.8020
  888MOL0     H19848   1.704   9.508  11.055  1.7807 -0.2646 -1.5048
  888MOL0     H19849   1.599   9.563  10.922 -3.7170 -0.9547 -0.6100
  888MOL0     H19850   1.442   9.386  11.094 -1.4926  0.4449 -1.5961
  888MOL0     H19851   1.409   9.546  11.019 -1.9705 -0.0973  1.7968
  888MOL0     H19852   1.509   9.479  11.279 -1.3192 -0.3553 -0.3476
  888MOL0     H19853   1.575   9.628  11.201  1.6688 -1.0716 -1.3223
  888MOL0     H19854   1.292   9.570  11.219 -0.4213  0.1227 -0.7117
  888MOL0     H19855   1.372   9.732  11.193 -1.4972  0.2258  1.2886
  888MOL0     H19856   1.350   9.583  11.454  0.2395 -1.9928 -1.6508
  888MOL0     H19857   1.447   9.732  11.421 -0.8728 -0.2757  0.5097
  888MOL0     H19858   1.149   9.714  11.440  0.8546 -1.2996 -1.4938
  888MOL0     H19859   1.218   9.832  11.340  0.8272 -0.0213 -1.6831
  888MOL0     H19860   1.388   9.896  11.546 -0.8384 -0.4580 -3.2748
  888MOL0     H19861   1.279   9.790  11.640 -3.6096 -0.4837 -1.2192
  888MOL0     H19862   1.972   9.220  10.816 -3.1588  1.2351  2.8310
  888MOL0     H19863   2.004   9.043  10.635  0.2334  0.2955 -0.5630
  888MOL0     H19864   1.859   8.996  10.184 -1.4482 -0.2634 -1.6794
  888MOL0     H19865   1.959   8.877  10.001 -2.2557 -0.7994 -2.5853
  888MOL0     H19866   0.591   8.684   8.903 -2.5533 -0.0859 -1.5862
  888MOL0     H19867   0.466   8.745   8.707  1.2328 -0.7334  0.8398
  888MOL0     H19868   0.135   9.163   8.555 -0.0846 -0.4106 -0.8263
  888MOL0     H19869   0.040   9.272   8.347  0.8464  0.2114 -0.5630
  888MOL0     H19870   0.013   9.404   8.209 -0.8726  0.6800  0.7089
  888MOL0     H19871   0.038   9.436   8.036  0.0101 -0.0943  1.4062
  888MOL0     H19872  -0.161   9.310   8.040 -0.7358 -1.9839 -1.1113
  888MOL0     H19873  -0.079   9.207   8.164  1.1182 -2.6850 -1.3250
  888MOL0     H19874  -0.121   9.100   7.936 -1.0117  0.4768 -1.2201
  888MOL0     H19875   0.049   9.109   7.986 -0.6199  1.8186  3.4284
  888MOL0     H19876   0.039   9.160   7.744 -0.4385 -0.5539  1.0547
  888MOL0     H19877   0.090   9.299   7.832  1.5802 -1.5843 -0.1332
  888MOL0     H19878  -0.249   9.472   7.660  0.4025 -0.1053 -0.9360
  888MOL0     H19879   0.358   9.110   8.114  0.2673 -2.2235  0.5808
  888MOL0     H19880   0.455   9.003   8.326  0.3193  1.3351 -0.7535
  889MOL0     O19881   1.904   4.796  10.249 -0.6429 -0.4299 -0.4644
  889MOL0     C19882   1.963   4.899  10.210  0.0640  0.8538  0.6098
  889MOL0     O19883   2.090   4.907  10.183 -0.2805 -0.2020 -0.3549
  889MOL0     C19884   2.172   4.799  10.163 -0.3626 -0.2942 -0.9347
  889MOL0     C19885   2.138   4.712  10.064  0.3937 -0.4542  0.1677
  889MOL0     C19886   2.226   4.609  10.025  0.5715  0.6084  0.1792
  889MOL0     C19887   2.345   4.580  10.089  0.7292 -0.0570 -0.9822
  889MOL0     O19888   2.435   4.491  10.035  0.2518  0.7177  0.2087
  889MOL0     C19889   2.551   4.473  10.115 -0.1599  0.5316  0.0036
  889MOL0     C19890   2.643   4.386  10.030  0.5198 -0.2760  0.0731
  889MOL0     C19891   2.629   4.234  10.077  0.3696  0.1651  0.2860
  889MOL0     C19892   2.677   4.133   9.966 -0.0829 -0.2446 -0.3575
  889MOL0     C19893   2.663   3.986  10.001 -0.2965  0.1318  0.4378
  889MOL0     C19894   2.680   3.911   9.871 -0.3816  0.2024  0.4193
  889MOL0     C19895   2.748   3.774   9.889 -0.1691  0.6130 -1.2695
  889MOL0     C19896   2.773   3.685   9.765  0.9059 -0.3902 -0.5564
  889MOL0     N19897   2.809   3.549   9.798  0.1488  0.1034  0.2017
  889MOL0     C19898   2.928   3.518   9.855 -0.8113 -0.2605  0.4613
  889MOL0     C19899   2.930   3.387   9.876  0.4013  0.5404 -0.2122
  889MOL0     C19900   3.044   3.304   9.940  0.3236  0.4525 -0.4289
  889MOL0     C19901   3.181   3.366   9.903 -0.1010  0.3817  0.9940
  889MOL0     C19902   3.290   3.264   9.939  0.0670 -0.0740 -0.5233
  889MOL0     C19903   3.418   3.342   9.921  0.1472  0.2602 -0.3571
  889MOL0     O19904   3.431   3.448  10.016  0.3214  0.4050 -0.0201
  889MOL0     C19905   3.548   3.520  10.004  0.0582 -0.1837 -0.2036
  889MOL0     C19906   3.656   3.490   9.923  0.4805  0.0287 -1.5584
  889MOL0     C19907   3.779   3.556   9.929  0.1157  0.1886  0.0461
  889MOL0     C19908   3.893   3.503   9.841  0.0309 -0.3172  0.0584
  889MOL0     C19909   3.788   3.676  10.007 -0.8083 -0.0689 -0.2019
  889MOL0     C19910   3.914   3.751  10.013 -0.2252 -0.5642 -0.3912
  889MOL0     O19911   3.980   3.783   9.899 -0.4608 -0.8214 -0.1810
  889MOL0     C19912   4.087   3.868   9.919  0.4111  0.3441  0.1968
  889MOL0     C19913   4.075   4.007   9.949 -0.5318  0.3202 -0.1912
  889MOL0     C19914   4.186   4.085   9.965 -0.0923  0.1311  0.3385
  889MOL0     C19915   4.318   4.032   9.945  0.3576 -0.0391  0.3881
  889MOL0     O19916   4.426   4.125   9.951  0.5122  0.5796  0.1579
  889MOL0     C19917   4.554   4.081   9.905 -0.0278 -0.1150 -0.7006
  889MOL0     C19918   4.578   4.081   9.755  0.5301 -0.5640 -0.7697
  889MOL0     C19919   4.616   4.217   9.693 -1.1157  0.4035 -0.2966
  889MOL0     C19920   4.505   4.279   9.606 -0.4207  0.5348 -0.7555
  889MOL0     C19921   4.367   4.314   9.675 -0.2357  0.4037  0.2570
  889MOL0     C19922   4.267   4.318   9.564  1.2843 -0.1751  0.8673
  889MOL0     C19923   4.128   4.352   9.615 -0.1391  0.8791 -0.0126
  889MOL0     C19924   4.043   4.223   9.638 -0.3072 -1.0237 -0.7342
  889MOL0    Cl19925   3.890   4.267   9.718  0.3126 -0.0215 -0.0138
  889MOL0     C19926   4.332   3.893   9.907  0.2812  0.1079 -0.7262
  889MOL0     C19927   4.217   3.818   9.897  0.5760  0.3329  0.1835
  889MOL0     O19928   3.948   3.771  10.128 -0.5028  1.0789  0.1111
  889MOL0     C19929   3.676   3.707  10.096 -0.3795  0.1712  0.5635
  889MOL0     C19930   3.565   3.626  10.096  0.3866 -0.3636 -0.3931
  889MOL0     N19931   2.815   3.337   9.822  0.3245 -0.7306 -0.0427
  889MOL0     N19932   2.742   3.429   9.764 -0.5831 -0.3550  0.2734
  889MOL0     C19933   2.382   4.682  10.187  0.0877  0.8388 -0.2394
  889MOL0     C19934   2.298   4.792  10.221  0.6562  0.4579 -0.6042
  889MOL0     C19935   1.873   5.017  10.206 -0.9162 -0.9934  0.1320
  889MOL0     C19936   1.749   5.034  10.276  0.2141  0.9787  0.1234
  889MOL0     C19937   1.687   5.150  10.270  0.2850  0.6185 -0.5118
  889MOL0     C19938   1.732   5.265  10.209 -1.0315  0.0947  0.1298
  889MOL0     O19939   1.656   5.383  10.219  0.8601 -0.4016 -0.3027
  889MOL0     C19940   1.726   5.487  10.276  0.0460  0.3154  0.3319
  889MOL0     C19941   1.704   5.507  10.429 -0.3121  0.0152  0.4279
  889MOL0     C19942   1.773   5.399  10.518  0.5730 -0.2143  0.8608
  889MOL0     C19943   1.831   5.460  10.640 -0.2133 -1.0097 -1.1829
  889MOL0     C19944   1.893   5.351  10.716 -0.1261 -0.2040 -0.0757
  889MOL0     C19945   1.937   5.270  10.798 -0.2095 -1.6132  0.2404
  889MOL0     C19946   1.862   5.255  10.136  0.6945  0.3616 -0.3035
  889MOL0     C19947   1.922   5.129  10.131  0.4646  0.1046  0.2101
  889MOL0     H19948   2.045   4.705  10.008  0.0499 -0.1018  0.6934
  889MOL0     H19949   2.193   4.539   9.948 -1.0310  0.9692  0.5016
  889MOL0     H19950   2.609   4.562  10.141  0.7844  0.8736 -2.8930
  889MOL0     H19951   2.522   4.423  10.208 -3.5189  0.0651 -1.1616
  889MOL0     H19952   2.597   4.387   9.931 -2.4446 -3.1031  1.2282
  889MOL0     H19953   2.742   4.431  10.027  0.4860 -0.1089  1.0091
  889MOL0     H19954   2.694   4.226  10.165  0.3898 -0.2526  0.2357
  889MOL0     H19955   2.527   4.207  10.107  1.3404 -4.4270  0.0754
  889MOL0     H19956   2.624   4.160   9.874  1.2431  1.8658 -0.5714
  889MOL0     H19957   2.778   4.170   9.944 -0.8515  1.4418 -1.2868
  889MOL0     H19958   2.744   3.971  10.073  1.7903  0.0130 -1.8306
  889MOL0     H19959   2.565   3.957  10.041 -0.7528  0.3948 -0.4547
  889MOL0     H19960   2.585   3.904   9.817  0.9337 -2.4674 -1.7726
  889MOL0     H19961   2.756   3.960   9.809  0.2011 -0.9966  0.1552
  889MOL0     H19962   2.836   3.781   9.953  0.8931 -1.1399 -2.4739
  889MOL0     H19963   2.672   3.721   9.947  0.9364 -0.7928 -1.0493
  889MOL0     H19964   2.836   3.743   9.696 -3.1356  1.3343 -3.1872
  889MOL0     H19965   2.672   3.678   9.723 -0.0175 -1.5015  1.7210
  889MOL0     H19966   3.009   3.590   9.864  0.1346 -0.9426 -1.9159
  889MOL0     H19967   3.029   3.315  10.048 -3.5737  0.4722 -0.8222
  889MOL0     H19968   3.032   3.200   9.908 -4.1606  1.3554 -2.4814
  889MOL0     H19969   3.188   3.463   9.952  2.1353  0.8747 -0.1377
  889MOL0     H19970   3.185   3.372   9.793  0.3689 -1.6291  0.8571
  889MOL0     H19971   3.295   3.170   9.883  2.1196  0.9209 -2.1840
  889MOL0     H19972   3.280   3.235  10.044 -1.0591  0.4622 -0.4741
  889MOL0     H19973   3.423   3.372   9.816  6.2108 -0.7719 -0.7358
  889MOL0     H19974   3.496   3.270   9.948  1.1169  1.4592  0.1119
  889MOL0     H19975   3.652   3.411   9.849  0.9522  0.0106 -1.5657
  889MOL0     H19976   3.991   3.499   9.891  0.4533  1.3061 -0.5833
  889MOL0     H19977   3.868   3.400   9.814 -1.7855 -0.2453  1.2948
  889MOL0     H19978   3.897   3.570   9.754  0.1109 -1.4779 -0.8503
  889MOL0     H19979   3.976   4.048   9.966  0.3223  2.6032 -0.3803
  889MOL0     H19980   4.184   4.190   9.991  0.0932 -0.5433  3.3497
  889MOL0     H19981   4.632   4.142   9.951  0.9407 -1.9557  0.2382
  889MOL0     H19982   4.569   3.981   9.947 -2.8225 -1.0601 -1.7092
  889MOL0     H19983   4.652   4.001   9.740  0.3767 -1.7270  3.3084
  889MOL0     H19984   4.484   4.036   9.721  0.7137 -3.1072  1.6947
  889MOL0     H19985   4.698   4.180   9.631 -0.7540  1.0310 -0.2001
  889MOL0     H19986   4.647   4.290   9.769  1.0962  0.9636 -1.6512
  889MOL0     H19987   4.542   4.375   9.568  0.6945  1.7400  2.9610
  889MOL0     H19988   4.488   4.203   9.529  0.4150  1.1502 -1.5695
  889MOL0     H19989   4.360   4.412   9.723  1.1555  1.1211 -0.9322
  889MOL0     H19990   4.332   4.234   9.740 -0.3245 -0.5043 -0.8815
  889MOL0     H19991   4.305   4.394   9.495 -1.8469 -0.2035 -1.0755
  889MOL0     H19992   4.253   4.221   9.517  1.6719  0.3580 -0.4010
  889MOL0     H19993   4.079   4.396   9.527  0.5905 -1.9380 -2.0057
  889MOL0     H19994   4.143   4.422   9.697 -1.3492  3.2345 -1.6888
  889MOL0     H19995   4.096   4.161   9.711  2.2950  1.8713  0.0460
  889MOL0     H19996   4.020   4.161   9.550  0.5149 -0.1940 -1.5523
  889MOL0     H19997   4.425   3.847   9.877  2.2781 -0.3852  5.0148
  889MOL0     H19998   4.224   3.712   9.878  0.5495  0.5345 -1.0106
  889MOL0     H19999   3.680   3.779  10.178  0.0193  0.7681  0.0349
  889MOL0     H20000   3.478   3.645  10.158  0.6242 -0.0989 -0.1311
  889MOL0     H20001   2.481   4.686  10.230  1.3590 -1.7448 -2.6045
  889MOL0     H20002   2.337   4.869  10.286 -0.0782  1.7014 -1.6091
  889MOL0     H20003   1.705   4.947  10.323 -2.7566  1.6270 -1.2365
  889MOL0     H20004   1.599   5.168  10.330 -2.4202  0.8087 -4.1613
  889MOL0     H20005   1.829   5.491  10.239  0.3686  1.8888  1.2827
  889MOL0     H20006   1.684   5.581  10.239  1.0600  1.0213  0.9154
  889MOL0     H20007   1.597   5.494  10.446 -0.3258  0.8593  1.0895
  889MOL0     H20008   1.740   5.607  10.454  2.2048 -0.1292 -2.0870
  889MOL0     H20009   1.849   5.345  10.461 -1.5569 -0.9748 -1.4158
  889MOL0     H20010   1.699   5.331  10.561  0.7053  0.2565  1.8573
  889MOL0     H20011   1.755   5.499  10.708 -1.4032 -0.9311 -2.4873
  889MOL0     H20012   1.904   5.539  10.619  1.5615 -2.9943 -2.9900
  889MOL0     H20013   1.970   5.194  10.866  1.0576 -1.6736 -0.4223
  889MOL0     H20014   1.901   5.345  10.089 -0.7203 -0.1790 -2.6807
  889MOL0     H20015   2.006   5.125  10.062  1.9217  2.9580  1.6032
  890MOL0     O20016   3.108  11.469   7.821  0.1764  0.1924  0.1452
  890MOL0     C20017   3.191  11.395   7.868 -0.3563  0.7991 -0.4387
  890MOL0     O20018   3.281  11.321   7.799 -0.5234 -0.8124 -0.1115
  890MOL0     C20019   3.313  11.330   7.669 -0.0991  0.2134 -0.3213
  890MOL0     C20020   3.287  11.443   7.592  0.6182  0.1968 -1.1610
  890MOL0     C20021   3.312  11.445   7.457 -0.2781  0.5634 -0.0294
  890MOL0     C20022   3.380  11.342   7.387 -1.3029 -0.1795  0.0996
  890MOL0     O20023   3.408  11.361   7.253 -0.1810 -0.2142  0.5697
  890MOL0     C20024   3.356  11.461   7.167  0.4578  0.1840 -0.4354
  890MOL0     C20025   3.425  11.597   7.197  1.3890  1.0227 -0.4102
  890MOL0     C20026   3.539  11.634   7.096 -0.1646  0.0942  0.0045
  890MOL0     C20027   3.677  11.569   7.125 -0.5359 -0.1217  0.0390
  890MOL0     C20028   3.689  11.432   7.060  0.1498  0.6811 -0.2368
  890MOL0     C20029   3.824  11.365   7.087  0.0072 -0.0162 -1.1139
  890MOL0     C20030   3.883  11.351   7.234 -0.4332 -0.4013  0.6727
  890MOL0     C20031   4.018  11.265   7.213  0.9200 -0.4782 -0.2486
  890MOL0     N20032   4.100  11.237   7.337  0.3296 -0.4919 -0.3031
  890MOL0     C20033   4.168  11.331   7.401 -1.0499  0.1582  0.4732
  890MOL0     C20034   4.204  11.278   7.526  0.8568  0.3366  0.2753
  890MOL0     C20035   4.288  11.334   7.639 -0.1779  0.6448  0.5765
  890MOL0     C20036   4.391  11.228   7.680  0.0444 -0.3875  0.7213
  890MOL0     C20037   4.493  11.282   7.785  0.6342  0.4462 -0.0060
  890MOL0     C20038   4.610  11.179   7.812 -0.1779 -1.0137 -0.4200
  890MOL0     O20039   4.564  11.062   7.873  0.2080 -0.7822  0.0301
  890MOL0     C20040   4.627  11.008   7.978  0.2368  0.2970  0.6167
  890MOL0     C20041   4.706  10.900   7.943 -0.3154  0.6274  0.0170
  890MOL0     C20042   4.784  10.831   8.043 -0.2815 -0.1487  0.3944
  890MOL0     C20043   4.870  10.711   7.997 -0.2367  0.5746 -1.3424
  890MOL0     C20044   4.755  10.863   8.180  0.3104  0.1030  0.2795
  890MOL0     C20045   4.814  10.773   8.290  0.2122 -0.2771 -0.9074
  890MOL0     O20046   4.753  10.788   8.402  0.2094  0.1271 -1.1332
  890MOL0     C20047   4.811  10.745   8.524 -0.7305 -0.1025 -0.4000
  890MOL0     C20048   4.729  10.696   8.626 -0.2361 -0.3769 -0.4846
  890MOL0     C20049   4.775  10.643   8.753 -0.7714  0.2273  0.4977
  890MOL0     C20050   4.912  10.646   8.783  1.2366 -0.5398 -0.0083
  890MOL0     O20051   4.967  10.618   8.904 -0.4555 -0.3572  0.3801
  890MOL0     C20052   5.004  10.481   8.924 -0.9414 -0.5901  0.3880
  890MOL0     C20053   4.990  10.444   9.073 -0.7457 -0.7489 -0.6057
  890MOL0     C20054   5.084  10.502   9.173 -0.0004  0.8767  0.1944
  890MOL0     C20055   5.165  10.400   9.256  0.3868 -0.0212  0.0728
  890MOL0     C20056   5.221  10.454   9.384  0.3354  0.2208 -1.0289
  890MOL0     C20057   5.319  10.566   9.352  0.2153  0.1203 -0.0537
  890MOL0     C20058   5.366  10.641   9.488  0.3951  0.6021  0.5611
  890MOL0     C20059   5.480  10.738   9.453 -0.0514  0.5258 -0.1154
  890MOL0    Cl20060   5.423  10.879   9.366 -0.1206  0.1483  0.0454
  890MOL0     C20061   4.994  10.711   8.685  0.9671  0.0832 -0.3267
  890MOL0     C20062   4.951  10.759   8.557 -0.3677  0.4142  0.2526
  890MOL0     O20063   4.923  10.707   8.277 -0.8142 -0.4408  0.5066
  890MOL0     C20064   4.667  10.973   8.216  0.0903  0.5184 -0.0561
  890MOL0     C20065   4.605  11.047   8.111 -0.3237  0.3869  0.4873
  890MOL0     N20066   4.149  11.152   7.535  0.2870  1.1547  0.3916
  890MOL0     N20067   4.086  11.131   7.418 -0.4775 -0.3163 -0.0623
  890MOL0     C20068   3.420  11.233   7.471 -0.1065  0.3202 -0.0322
  890MOL0     C20069   3.383  11.227   7.608 -0.3370  0.6436  0.3834
  890MOL0     C20070   3.202  11.393   8.024  0.8577 -1.0449  0.7547
  890MOL0     C20071   3.132  11.492   8.101  0.0621 -0.0898 -0.5954
  890MOL0     C20072   3.136  11.486   8.243  0.3761 -0.0795 -0.5044
  890MOL0     C20073   3.203  11.385   8.311 -0.4062 -0.7628 -0.7754
  890MOL0     O20074   3.205  11.371   8.453  0.4122  0.4980 -0.4534
  890MOL0     C20075   3.330  11.388   8.510  0.5145  0.0913  0.4869
  890MOL0     C20076   3.354  11.536   8.549  0.5069  0.2138  0.2266
  890MOL0     C20077   3.498  11.560   8.620  1.1737  0.2985 -0.0655
  890MOL0     C20078   3.619  11.497   8.550 -0.4096 -1.1149  0.1033
  890MOL0     C20079   3.607  11.519   8.404 -0.1632 -0.7354  0.6433
  890MOL0     C20080   3.607  11.516   8.280 -0.5004 -0.6296  0.2033
  890MOL0     C20081   3.269  11.283   8.232 -0.5562 -0.6072  0.4465
  890MOL0     C20082   3.268  11.292   8.091 -0.3230 -0.0903 -0.1750
  890MOL0     H20083   3.245  11.529   7.643  0.7905  0.6663 -1.7972
  890MOL0     H20084   3.282  11.541   7.415 -0.5876 -0.0681 -1.3172
  890MOL0     H20085   3.369  11.420   7.067  2.4869  1.3207 -0.6830
  890MOL0     H20086   3.247  11.474   7.178  0.1676  0.2183 -2.8388
  890MOL0     H20087   3.353  11.678   7.181 -0.7512 -0.5979  0.5165
  890MOL0     H20088   3.454  11.614   7.301  3.8290  0.8692 -0.9873
  890MOL0     H20089   3.500  11.614   6.996 -5.4144 -0.8346  1.8966
  890MOL0     H20090   3.556  11.742   7.105 -0.7757  0.3168 -1.2849
  890MOL0     H20091   3.763  11.632   7.102 -0.7740  0.4641  0.6885
  890MOL0     H20092   3.667  11.543   7.231 -1.2746 -2.8116 -0.6152
  890MOL0     H20093   3.607  11.370   7.097  1.8011 -2.1450 -1.0393
  890MOL0     H20094   3.659  11.443   6.956 -0.5596  0.4327 -0.0628
  890MOL0     H20095   3.809  11.260   7.058 -2.6777  0.2220 -0.8274
  890MOL0     H20096   3.905  11.406   7.027  0.0852 -0.3638 -1.2526
  890MOL0     H20097   3.914  11.450   7.268  3.1160 -1.0182 -0.3487
  890MOL0     H20098   3.817  11.313   7.312  1.7238 -0.6653  2.4952
  890MOL0     H20099   4.084  11.312   7.139 -1.1031  2.4531 -0.3440
  890MOL0     H20100   3.988  11.164   7.182  0.6210  0.0361 -1.7266
  890MOL0     H20101   4.190  11.436   7.382  1.2445 -0.3009  0.3709
  890MOL0     H20102   4.347  11.422   7.613  0.5403  0.6024  1.9527
  890MOL0     H20103   4.230  11.346   7.731  3.0421  2.2405  2.5784
  890MOL0     H20104   4.442  11.206   7.586 -0.9763  0.8458 -0.1526
  890MOL0     H20105   4.322  11.159   7.730 -0.7204  0.0520  0.2881
  890MOL0     H20106   4.437  11.313   7.873 -0.2876 -1.2941  0.0567
  890MOL0     H20107   4.545  11.369   7.742 -0.6451 -0.3586 -3.5178
  890MOL0     H20108   4.686  11.235   7.866  0.0426 -2.5387  0.9081
  890MOL0     H20109   4.643  11.154   7.710  0.3510 -1.1106 -0.2268
  890MOL0     H20110   4.718  10.876   7.838  0.7134  1.9190 -0.1821
  890MOL0     H20111   4.825  10.616   8.027  4.2215 -0.8429  1.8163
  890MOL0     H20112   4.890  10.711   7.890  1.2101 -0.3061 -1.0917
  890MOL0     H20113   4.967  10.718   8.048  0.1693 -0.7745 -1.8892
  890MOL0     H20114   4.625  10.693   8.595  0.0777 -1.3290 -1.5037
  890MOL0     H20115   4.704  10.593   8.819  0.4357  2.0007  3.3064
  890MOL0     H20116   4.932  10.420   8.868  1.4364  1.0932 -5.2551
  890MOL0     H20117   5.108  10.479   8.889 -1.1838  3.3075 -1.0260
  890MOL0     H20118   4.894  10.486   9.106  1.0816  3.0587  0.4807
  890MOL0     H20119   4.990  10.335   9.070 -0.7238 -0.7549 -0.3677
  890MOL0     H20120   5.026  10.555   9.248  0.7010 -3.4890  4.3540
  890MOL0     H20121   5.155  10.566   9.120 -1.7340  0.3975 -2.9259
  890MOL0     H20122   5.110  10.308   9.275  0.2594 -0.2126 -1.1268
  890MOL0     H20123   5.259  10.373   9.207  1.2138 -0.3118  1.7510
  890MOL0     H20124   5.266  10.371   9.439 -1.1835 -1.0095 -1.5725
  890MOL0     H20125   5.137  10.490   9.444 -1.7366  1.3186 -4.3129
  890MOL0     H20126   5.406  10.537   9.292  0.0325  1.0103 -0.7625
  890MOL0     H20127   5.270  10.642   9.291 -1.0200 -2.9643 -3.3190
  890MOL0     H20128   5.400  10.564   9.559 -1.4135 -0.8410 -0.0472
  890MOL0     H20129   5.285  10.696   9.536  1.9514  2.4701  1.1588
  890MOL0     H20130   5.551  10.682   9.391  0.8953 -0.3342  1.6592
  890MOL0     H20131   5.545  10.765   9.537  2.7038 -0.8044 -1.6882
  890MOL0     H20132   5.092  10.725   8.728  0.7756 -1.0209  0.5493
  890MOL0     H20133   5.019  10.796   8.481 -0.7841 -0.1371 -0.4017
  890MOL0     H20134   4.660  11.017   8.315  1.0064  3.3642 -1.1546
  890MOL0     H20135   4.554  11.141   8.125 -3.5628 -0.8809 -1.5691
  890MOL0     H20136   3.459  11.140   7.431 -0.7033 -0.6262  1.4919
  890MOL0     H20137   3.423  11.145   7.667  2.8126 -0.3719 -2.8192
  890MOL0     H20138   3.092  11.580   8.052  1.6011  0.6778 -0.5392
  890MOL0     H20139   3.097  11.561   8.311  1.8604 -0.0268  0.3333
  890MOL0     H20140   3.338  11.319   8.595 -1.4873 -2.0300 -0.9351
  890MOL0     H20141   3.410  11.337   8.457  1.0082  1.2869  0.0392
  890MOL0     H20142   3.290  11.579   8.627  1.7033  2.2315  0.1682
  890MOL0     H20143   3.343  11.597   8.460 -4.4341 -0.0438  0.3811
  890MOL0     H20144   3.491  11.539   8.727 -2.7731  0.2666 -0.1867
  890MOL0     H20145   3.508  11.669   8.624 -0.9942  0.5389 -0.0409
  890MOL0     H20146   3.620  11.388   8.560 -2.1531 -1.0349  1.4588
  890MOL0     H20147   3.709  11.542   8.593  0.4244 -2.8066  0.2462
  890MOL0     H20148   3.588  11.539   8.177  1.7180  1.3328  0.1513
  890MOL0     H20149   3.333  11.214   8.286 -1.6884 -0.1305  2.4948
  890MOL0     H20150   3.312  11.217   8.027  0.0514 -0.3408  0.3642
  891MOL0     O20151   2.247   0.393   7.465  0.3095 -0.4937 -1.1298
  891MOL0     C20152   2.339   0.342   7.409  0.5155 -0.3387 -0.2158
  891MOL0     O20153   2.390   0.379   7.289 -0.1370 -0.2961  0.1604
  891MOL0     C20154   2.329   0.466   7.202 -0.3876  0.4113 -0.8162
  891MOL0     C20155   2.409   0.525   7.111 -0.1446 -0.5691  0.0893
  891MOL0     C20156   2.369   0.618   7.015 -0.2247  0.6848  0.3367
  891MOL0     C20157   2.237   0.665   7.023  0.6987  0.8676 -0.2680
  891MOL0     O20158   2.194   0.765   6.942  0.7150  0.3787 -0.4282
  891MOL0     C20159   2.288   0.835   6.864 -0.1486 -0.1642 -0.2320
  891MOL0     C20160   2.318   0.755   6.728 -0.2432 -0.0060  0.2414
  891MOL0     C20161   2.346   0.839   6.607  0.7631  0.1002 -0.4531
  891MOL0     C20162   2.391   0.762   6.483  0.3632 -0.5404 -0.3910
  891MOL0     C20163   2.408   0.864   6.363 -0.1717 -0.0625 -0.4295
  891MOL0     C20164   2.535   0.951   6.382  0.5269 -1.0792  0.3671
  891MOL0     C20165   2.553   1.033   6.248 -0.5257 -0.8929 -0.9220
  891MOL0     C20166   2.674   1.132   6.254  0.7713 -0.1993 -0.8660
  891MOL0     N20167   2.717   1.172   6.126 -0.7567  0.0781 -0.4048
  891MOL0     C20168   2.770   1.116   6.019 -0.3356  0.2201  0.4945
  891MOL0     C20169   2.762   1.207   5.916  0.4283 -0.0299  0.2149
  891MOL0     C20170   2.794   1.168   5.769  1.1903  0.0941  0.0370
  891MOL0     C20171   2.923   1.093   5.759  0.3095  0.0059  0.6979
  891MOL0     C20172   3.044   1.179   5.716 -0.1346 -0.1390 -0.4064
  891MOL0     C20173   3.071   1.274   5.827 -0.8569  0.5361  0.6366
  891MOL0     O20174   3.194   1.332   5.799  0.5301  0.3598  0.6403
  891MOL0     C20175   3.232   1.442   5.877 -0.4030 -0.2472  1.3610
  891MOL0     C20176   3.330   1.531   5.829  0.2925  0.2912 -0.2010
  891MOL0     C20177   3.368   1.649   5.892 -0.6971 -0.5215 -0.0092
  891MOL0     C20178   3.462   1.737   5.821  0.5241 -0.9524  0.3210
  891MOL0     C20179   3.315   1.671   6.027 -0.6606  0.5808  0.3592
  891MOL0     C20180   3.335   1.787   6.113 -0.3263 -0.2226  0.1845
  891MOL0     O20181   3.315   1.777   6.248  1.3523 -0.0338  0.5500
  891MOL0     C20182   3.290   1.888   6.334  0.6009  0.8960 -0.8220
  891MOL0     C20183   3.170   1.896   6.413 -0.0302  0.0464  0.9500
  891MOL0     C20184   3.148   1.994   6.503 -0.2248  0.4373  0.4615
  891MOL0     C20185   3.239   2.094   6.520 -0.4196  0.8063 -0.7026
  891MOL0     O20186   3.211   2.208   6.599  0.6757  0.5961  0.6410
  891MOL0     C20187   3.310   2.291   6.644  0.4229 -0.0779 -0.5916
  891MOL0     C20188   3.264   2.366   6.771  0.6153  0.7458 -0.4024
  891MOL0     C20189   3.200   2.285   6.883 -0.0266  0.3242  0.5602
  891MOL0     C20190   3.055   2.297   6.897  0.4779  0.2572 -0.7437
  891MOL0     C20191   2.998   2.201   7.004 -0.4576 -1.2172 -0.2034
  891MOL0     C20192   2.962   2.069   6.937  0.2843  0.0106  0.4397
  891MOL0     C20193   2.959   1.949   7.038  0.1942  0.5668 -0.0593
  891MOL0     C20194   2.848   1.977   7.150  0.2167  0.1167 -0.1271
  891MOL0    Cl20195   2.684   1.977   7.084  0.0450  0.6280  0.2080
  891MOL0     C20196   3.367   2.090   6.452  0.0850  0.8813  0.0397
  891MOL0     C20197   3.392   1.987   6.360  0.1898 -0.6985  0.8191
  891MOL0     O20198   3.366   1.894   6.057 -0.7296 -0.0113 -0.2478
  891MOL0     C20199   3.215   1.580   6.075 -0.5069  0.6620 -0.2657
  891MOL0     C20200   3.175   1.471   5.993 -0.0513  0.0615 -0.9039
  891MOL0     N20201   2.731   1.329   5.975 -0.3346 -0.6805  0.4245
  891MOL0     N20202   2.696   1.299   6.091  0.5039  0.3521 -0.1834
  891MOL0     C20203   2.147   0.599   7.112  0.1749  0.1095  0.7910
  891MOL0     C20204   2.193   0.495   7.200  0.2100 -0.6601  0.6855
  891MOL0     C20205   2.406   0.230   7.471  0.6793  0.9855  0.6659
  891MOL0     C20206   2.370   0.176   7.601 -0.3521 -0.1334  0.2867
  891MOL0     C20207   2.427   0.060   7.647  0.1182  0.0608  0.8610
  891MOL0     C20208   2.497  -0.021   7.561 -0.9612  0.2574 -1.1114
  891MOL0     O20209   2.532  -0.142   7.622  0.1523  0.1749 -0.7451
  891MOL0     C20210   2.652  -0.213   7.584 -0.6688  0.0739  0.3927
  891MOL0     C20211   2.691  -0.340   7.669 -0.2217 -0.4286  0.4011
  891MOL0     C20212   2.765  -0.304   7.796 -0.7699 -0.2448  1.1549
  891MOL0     C20213   2.735  -0.398   7.915  0.7817 -0.2409 -0.2594
  891MOL0     C20214   2.822  -0.370   8.028  0.8678 -1.0030  0.7357
  891MOL0     C20215   2.911  -0.361   8.105 -1.2351 -0.1172 -0.6360
  891MOL0     C20216   2.543   0.018   7.439  0.3537 -1.8630  0.5009
  891MOL0     C20217   2.489   0.141   7.392 -1.1125 -1.0685  0.2740
  891MOL0     H20218   2.515   0.502   7.107  0.6286  2.4426  0.6395
  891MOL0     H20219   2.448   0.659   6.953 -1.0456  2.9610  0.6974
  891MOL0     H20220   2.248   0.936   6.852  0.0810  0.3301  2.5972
  891MOL0     H20221   2.382   0.856   6.915 -0.4535 -3.2635  1.8953
  891MOL0     H20222   2.401   0.686   6.745 -0.9362 -1.1344 -0.6983
  891MOL0     H20223   2.230   0.694   6.705  0.1618 -0.3009 -0.5587
  891MOL0     H20224   2.260   0.900   6.578 -0.1279  0.2943  2.3083
  891MOL0     H20225   2.420   0.915   6.632 -0.4375  1.5658 -1.1932
  891MOL0     H20226   2.487   0.719   6.516  0.4493  0.3165  0.5199
  891MOL0     H20227   2.321   0.680   6.468  1.3102 -1.0057 -2.7410
  891MOL0     H20228   2.431   0.786   6.291  0.6740 -0.2052 -0.0168
  891MOL0     H20229   2.321   0.924   6.333  0.4944 -0.5887 -3.8502
  891MOL0     H20230   2.523   1.011   6.473  0.4881 -0.5831  0.0372
  891MOL0     H20231   2.617   0.878   6.390 -1.0127 -2.8392  0.7708
  891MOL0     H20232   2.568   0.960   6.169  1.2042 -1.5094 -0.0625
  891MOL0     H20233   2.458   1.084   6.227 -0.6354 -0.6399  0.0938
  891MOL0     H20234   2.754   1.072   6.300 -0.0835 -0.5573  0.2004
  891MOL0     H20235   2.660   1.217   6.322 -3.0345 -1.1593 -0.1989
  891MOL0     H20236   2.787   1.009   6.011  2.4861  0.4718  2.1582
  891MOL0     H20237   2.708   1.118   5.724  1.8726 -1.0903 -0.0019
  891MOL0     H20238   2.810   1.254   5.703  2.2677 -0.3225 -0.2688
  891MOL0     H20239   2.901   1.016   5.685 -0.0565 -0.1218  0.9408
  891MOL0     H20240   2.948   1.034   5.848 -2.7436 -2.8737 -0.1839
  891MOL0     H20241   3.033   1.226   5.618 -2.0330  0.1524 -0.1031
  891MOL0     H20242   3.129   1.112   5.703 -1.3004 -2.1246  1.4321
  891MOL0     H20243   3.078   1.212   5.916 -1.0599 -0.6113 -0.1257
  891MOL0     H20244   2.986   1.342   5.827 -0.5752  0.8962  0.1249
  891MOL0     H20245   3.369   1.512   5.729 -1.0645 -1.5584 -0.4219
  891MOL0     H20246   3.547   1.687   5.773  1.2319  1.1404 -0.7389
  891MOL0     H20247   3.395   1.786   5.750 -2.7721 -0.3239  3.5593
  891MOL0     H20248   3.503   1.810   5.891  2.4182 -2.5867  1.0313
  891MOL0     H20249   3.089   1.825   6.399  0.0956 -0.2294  1.5503
  891MOL0     H20250   3.058   1.992   6.564  0.7786 -1.6379  1.9720
  891MOL0     H20251   3.396   2.232   6.677 -0.3348  0.3288  2.3509
  891MOL0     H20252   3.333   2.367   6.568  0.2884  3.2815  2.4639
  891MOL0     H20253   3.353   2.419   6.806  0.3950  2.3574 -2.0985
  891MOL0     H20254   3.197   2.449   6.742  1.8339  2.1514  0.6743
  891MOL0     H20255   3.245   2.315   6.978  0.5433  1.0144  0.0889
  891MOL0     H20256   3.229   2.181   6.869  2.9801  0.9714  1.2862
  891MOL0     H20257   3.027   2.398   6.926 -0.3714  0.3002 -1.6779
  891MOL0     H20258   3.012   2.271   6.800  0.7912  0.1642 -0.8615
  891MOL0     H20259   2.901   2.228   7.047 -1.1965 -0.6696 -2.0721
  891MOL0     H20260   3.067   2.202   7.088 -0.7119  4.0269  0.2842
  891MOL0     H20261   2.867   2.083   6.883  0.2679 -0.0442  0.4538
  891MOL0     H20262   3.039   2.042   6.863 -1.9363  1.3626 -2.6003
  891MOL0     H20263   3.058   1.943   7.084 -0.0660 -1.3603  0.3192
  891MOL0     H20264   2.937   1.853   6.990 -2.5670  1.7852 -1.4557
  891MOL0     H20265   2.876   2.067   7.205  1.0683 -0.8253  1.0428
  891MOL0     H20266   2.848   1.895   7.223  1.5382  1.0054  0.9055
  891MOL0     H20267   3.429   2.179   6.455  0.0497  0.9906 -1.5789
  891MOL0     H20268   3.484   1.986   6.303 -0.6541  3.1401 -0.9251
  891MOL0     H20269   3.167   1.597   6.171  1.2080  0.6485  0.6372
  891MOL0     H20270   3.087   1.414   6.023  2.4656 -2.6609  2.0442
  891MOL0     H20271   2.044   0.633   7.114 -1.0533 -3.2707  0.5977
  891MOL0     H20272   2.115   0.445   7.257  0.6365 -0.0325  1.8447
  891MOL0     H20273   2.301   0.230   7.666 -0.5470 -2.5075  2.2056
  891MOL0     H20274   2.390   0.018   7.740 -0.1495 -1.0548  0.2671
  891MOL0     H20275   2.632  -0.243   7.480 -3.5964 -3.2763  1.7224
  891MOL0     H20276   2.741  -0.149   7.591 -1.5122  1.1941  1.0174
  891MOL0     H20277   2.760  -0.398   7.607  0.5943  2.3059 -1.4466
  891MOL0     H20278   2.601  -0.397   7.690  1.1953 -2.8951  0.1676
  891MOL0     H20279   2.733  -0.204   7.828  1.7218  1.9711 -2.5671
  891MOL0     H20280   2.871  -0.291   7.769 -1.6972  3.5611 -1.3877
  891MOL0     H20281   2.738  -0.505   7.888 -0.4628 -0.1623 -0.7747
  891MOL0     H20282   2.633  -0.382   7.950  0.8830 -0.3814  0.1085
  891MOL0     H20283   2.990  -0.340   8.175  0.3351  0.2427 -2.4334
  891MOL0     H20284   2.621  -0.023   7.375  2.5684  0.4994  1.5051
  891MOL0     H20285   2.517   0.177   7.293 -1.0398 -0.4231  0.5266
  892MOL0     O20286   2.782   0.860   1.179 -0.4591 -0.2843 -0.9106
  892MOL0     C20287   2.846   0.794   1.097  0.0162  1.1066  0.2896
  892MOL0     O20288   2.840   0.806   0.963 -0.3609 -0.3237 -0.1551
  892MOL0     C20289   2.762   0.897   0.900 -0.0581  0.3337  0.6385
  892MOL0     C20290   2.624   0.896   0.921  0.5419 -0.0863 -1.0917
  892MOL0     C20291   2.538   0.994   0.858  0.9882  0.6692 -0.9572
  892MOL0     C20292   2.587   1.082   0.771 -0.3246 -0.3322  0.2076
  892MOL0     O20293   2.511   1.174   0.701  0.3541  0.3837 -0.0313
  892MOL0     C20294   2.368   1.204   0.734  0.2972  0.5780 -0.4211
  892MOL0     C20295   2.299   1.309   0.645 -0.1822 -0.2390 -0.6701
  892MOL0     C20296   2.373   1.443   0.674 -0.8785  0.5431 -0.0358
  892MOL0     C20297   2.313   1.559   0.589 -0.7953 -0.7563 -0.0170
  892MOL0     C20298   2.193   1.631   0.657  0.2528 -0.0426  0.1871
  892MOL0     C20299   2.123   1.746   0.569  0.1649 -0.2859 -0.1282
  892MOL0     C20300   2.011   1.674   0.481 -1.0621 -0.7322  0.5372
  892MOL0     C20301   1.927   1.783   0.409 -0.7766  0.4908 -0.5536
  892MOL0     N20302   1.810   1.728   0.331  0.5490  0.7958 -0.7770
  892MOL0     C20303   1.701   1.664   0.386  0.4685 -0.8913  0.2783
  892MOL0     C20304   1.640   1.614   0.271 -0.6438 -0.1266 -0.4694
  892MOL0     C20305   1.538   1.518   0.281 -0.1234  0.9629 -0.7493
  892MOL0     C20306   1.405   1.572   0.332 -0.2923 -0.9920  0.4486
  892MOL0     C20307   1.346   1.680   0.236 -1.0438 -0.8781  0.1103
  892MOL0     C20308   1.198   1.720   0.270 -0.1751  0.1575  0.0911
  892MOL0     O20309   1.106   1.604   0.266 -0.4837  0.0937  0.0304
  892MOL0     C20310   1.069   1.556   0.135 -0.2295 -0.0087 -0.0949
  892MOL0     C20311   1.104   1.603   0.010  0.1975  0.0270  0.1826
  892MOL0     C20312   1.047   1.548  -0.109 -0.2171  0.2998 -0.6545
  892MOL0     C20313   1.076   1.609  -0.243 -0.4926  0.9864  0.4522
  892MOL0     C20314   0.954   1.439  -0.101 -0.6614 -0.2302  0.1470
  892MOL0     C20315   0.874   1.366  -0.209  0.2357 -0.2969  0.4790
  892MOL0     O20316   0.829   1.233  -0.185 -0.3032 -0.6814 -0.9347
  892MOL0     C20317   0.744   1.178  -0.282  0.0879  0.5646 -0.0509
  892MOL0     C20318   0.612   1.209  -0.289 -0.6356  0.6213 -0.0352
  892MOL0     C20319   0.532   1.146  -0.386  0.2717 -0.0928 -0.2063
  892MOL0     C20320   0.589   1.055  -0.481  0.6013  0.4597  0.6912
  892MOL0     O20321   0.513   1.009  -0.581  0.2307  0.5408 -0.2951
  892MOL0     C20322   0.444   0.892  -0.539  0.5379 -0.3862  0.3910
  892MOL0     C20323   0.396   0.809  -0.661 -0.5376 -1.2269  0.5846
  892MOL0     C20324   0.513   0.761  -0.746  0.4371  0.1463 -0.1659
  892MOL0     C20325   0.485   0.680  -0.873 -0.3667  0.4962 -0.7779
  892MOL0     C20326   0.591   0.688  -0.983  0.2807 -0.6787 -0.3248
  892MOL0     C20327   0.554   0.595  -1.099  0.5037  0.9735 -0.5639
  892MOL0     C20328   0.447   0.661  -1.186  1.1258 -0.8182 -0.2487
  892MOL0     C20329   0.399   0.568  -1.295  0.2123 -0.3481 -0.4238
  892MOL0    Cl20330   0.542   0.500  -1.372 -0.7805 -0.2306 -0.1712
  892MOL0     C20331   0.721   1.027  -0.465 -0.6788 -0.1334  0.5699
  892MOL0     C20332   0.796   1.091  -0.373 -0.1229 -0.6642  0.7778
  892MOL0     O20333   0.873   1.417  -0.324  0.3228 -0.2585 -1.0930
  892MOL0     C20334   0.924   1.396   0.025 -0.7985 -0.4682 -0.3819
  892MOL0     C20335   0.977   1.447   0.141 -0.0533 -0.1162 -0.2140
  892MOL0     N20336   1.715   1.645   0.160  0.1386  0.1624  0.0653
  892MOL0     N20337   1.808   1.717   0.197 -0.5496 -0.0789 -0.3710
  892MOL0     C20338   2.723   1.086   0.754 -0.3981 -0.4797  0.5939
  892MOL0     C20339   2.817   0.997   0.813  0.8467 -0.5088  0.3041
  892MOL0     C20340   2.914   0.678   1.161  0.1121 -0.1617  0.4366
  892MOL0     C20341   3.006   0.607   1.069  0.3633 -0.0921 -0.4927
  892MOL0     C20342   3.088   0.513   1.127  0.3324  0.6697 -0.4567
  892MOL0     C20343   3.086   0.484   1.266  0.8825 -0.6888 -0.2075
  892MOL0     O20344   3.182   0.393   1.295 -0.5541  0.1061 -0.0766
  892MOL0     C20345   3.207   0.360   1.430  0.8575 -0.1545 -0.2630
  892MOL0     C20346   3.331   0.271   1.422 -0.8318 -0.9082  0.0868
  892MOL0     C20347   3.386   0.243   1.559  0.2816  0.2108 -0.0782
  892MOL0     C20348   3.479   0.115   1.550  0.0419 -0.5882 -0.0500
  892MOL0     C20349   3.549   0.105   1.684  0.0804  0.4262 -0.3978
  892MOL0     C20350   3.629   0.088   1.773 -0.0156 -0.5778  1.3271
  892MOL0     C20351   2.993   0.552   1.353 -0.4186  0.0418 -0.3956
  892MOL0     C20352   2.904   0.641   1.295 -0.1417  0.1284 -0.2329
  892MOL0     H20353   2.575   0.841   1.000 -2.8620  2.2072 -1.3811
  892MOL0     H20354   2.432   1.000   0.879  1.3241  0.8303  0.7763
  892MOL0     H20355   2.325   1.105   0.716  3.2536 -1.7241  3.4405
  892MOL0     H20356   2.359   1.217   0.843  1.6652  1.1905 -0.3598
  892MOL0     H20357   2.328   1.280   0.544  3.7344 -1.4228  0.6089
  892MOL0     H20358   2.192   1.327   0.656 -0.1025  0.6000 -1.2107
  892MOL0     H20359   2.366   1.465   0.781  1.4363 -1.3200  0.5921
  892MOL0     H20360   2.481   1.439   0.656 -0.7065  3.0306  0.1411
  892MOL0     H20361   2.379   1.632   0.540 -2.4117 -1.3645 -3.4300
  892MOL0     H20362   2.265   1.513   0.502 -1.9466 -3.2109  1.8025
  892MOL0     H20363   2.129   1.547   0.688  2.2070 -1.4695  0.5256
  892MOL0     H20364   2.217   1.680   0.751 -0.8272  1.5886 -0.3534
  892MOL0     H20365   2.084   1.820   0.639  0.7619 -2.2482  2.4052
  892MOL0     H20366   2.206   1.782   0.508  1.2037  0.8742  1.8671
  892MOL0     H20367   2.048   1.604   0.405  3.1363 -0.1111  1.7394
  892MOL0     H20368   1.949   1.614   0.549 -1.1138 -0.8117  0.4203
  892MOL0     H20369   1.995   1.835   0.341 -0.1805  0.0220 -0.3289
  892MOL0     H20370   1.902   1.865   0.477  0.9307  0.1537  0.5586
  892MOL0     H20371   1.684   1.648   0.492 -2.3246  1.7101  0.3658
  892MOL0     H20372   1.519   1.473   0.183 -1.2818  4.8600 -2.4995
  892MOL0     H20373   1.574   1.442   0.352 -0.8667  1.4527  0.1769
  892MOL0     H20374   1.422   1.621   0.429 -0.5782  0.0870 -0.0240
  892MOL0     H20375   1.337   1.487   0.337 -1.9751  0.3621  2.2433
  892MOL0     H20376   1.364   1.648   0.133  4.3548 -0.9506  0.7536
  892MOL0     H20377   1.407   1.770   0.249 -2.6595  0.2509  0.0861
  892MOL0     H20378   1.174   1.791   0.190  0.4143 -0.1161 -0.3378
  892MOL0     H20379   1.206   1.783   0.359  1.8311  0.1854 -0.0622
  892MOL0     H20380   1.179   1.681  -0.001  0.1873 -0.3848 -4.5563
  892MOL0     H20381   1.122   1.523  -0.293 -1.2706  1.6023 -1.4018
  892MOL0     H20382   0.984   1.637  -0.294 -0.5524 -2.1561 -1.4506
  892MOL0     H20383   1.151   1.689  -0.241  0.0868  0.4986 -0.6970
  892MOL0     H20384   0.571   1.283  -0.221 -2.7300  0.4107 -1.0061
  892MOL0     H20385   0.426   1.167  -0.400 -1.2059 -4.8225  1.7459
  892MOL0     H20386   0.512   0.834  -0.476  1.9098 -0.3102 -0.9625
  892MOL0     H20387   0.362   0.919  -0.473 -0.7409 -1.7202 -0.5799
  892MOL0     H20388   0.334   0.725  -0.627  0.8567 -3.4943 -2.0614
  892MOL0     H20389   0.329   0.867  -0.724  2.5555 -0.0725 -1.8494
  892MOL0     H20390   0.561   0.692  -0.677 -2.3534  0.2811  2.0794
  892MOL0     H20391   0.578   0.846  -0.768  0.0422  1.3023  2.7236
  892MOL0     H20392   0.472   0.573  -0.852 -0.1596  0.7353  0.6813
  892MOL0     H20393   0.386   0.717  -0.902 -0.6727  0.6655  0.4030
  892MOL0     H20394   0.690   0.670  -0.940  1.9169 -2.6966 -4.4555
  892MOL0     H20395   0.598   0.782  -1.038 -0.0526 -2.2175 -3.1456
  892MOL0     H20396   0.651   0.583  -1.148  1.0623 -0.5346  0.8158
  892MOL0     H20397   0.523   0.498  -1.060  1.2289  2.0960  3.2359
  892MOL0     H20398   0.484   0.754  -1.229 -1.2349 -0.0752 -0.8542
  892MOL0     H20399   0.362   0.698  -1.127  2.1790 -0.1189  0.8730
  892MOL0     H20400   0.331   0.619  -1.363 -0.6840  2.5898  2.4181
  892MOL0     H20401   0.336   0.490  -1.253 -1.3378  1.1632  0.1954
  892MOL0     H20402   0.766   0.961  -0.538  0.5266  2.7492 -1.4956
  892MOL0     H20403   0.903   1.087  -0.389 -0.1667 -0.4438  0.4238
  892MOL0     H20404   0.854   1.313   0.033  0.0045 -1.0400  0.9024
  892MOL0     H20405   0.955   1.392   0.232  1.8348 -2.4037 -1.0238
  892MOL0     H20406   2.755   1.167   0.688  1.6628  0.2162  2.3355
  892MOL0     H20407   2.924   0.991   0.793  0.9035  0.4178  0.2546
  892MOL0     H20408   3.036   0.633   0.968  2.7045 -1.2252 -0.1440
  892MOL0     H20409   3.171   0.468   1.073  2.4612 -0.6721  3.5409
  892MOL0     H20410   3.223   0.442   1.500  0.6379 -0.9666  0.7616
  892MOL0     H20411   3.125   0.293   1.460 -1.1619  2.1817 -0.2794
  892MOL0     H20412   3.413   0.329   1.379 -0.6498 -0.6558  0.7646
  892MOL0     H20413   3.318   0.180   1.363 -1.8155 -0.6810 -0.0603
  892MOL0     H20414   3.300   0.219   1.622 -0.3493 -1.5340 -1.5186
  892MOL0     H20415   3.446   0.329   1.590  0.4252  0.0632  0.0502
  892MOL0     H20416   3.555   0.121   1.472 -0.5372 -1.4702 -0.6976
  892MOL0     H20417   3.423   0.026   1.521  0.4995  0.4013 -4.6867
  892MOL0     H20418   3.703   0.072   1.849 -1.1927 -1.6898  2.2706
  892MOL0     H20419   2.976   0.514   1.453  1.2352  1.5275  0.5154
  892MOL0     H20420   2.829   0.687   1.358 -0.5235  2.2619 -2.1080
  893MOL0     O20421   3.596   3.029   0.730  0.2133 -0.6440 -0.2350
  893MOL0     C20422   3.582   3.066   0.615 -1.3484 -0.5092  0.1972
  893MOL0     O20423   3.478   3.039   0.544 -0.2210  0.2183 -0.0645
  893MOL0     C20424   3.371   2.988   0.610  0.6418 -0.2449 -0.6163
  893MOL0     C20425   3.298   2.888   0.542  0.8735 -0.6622 -0.6003
  893MOL0     C20426   3.172   2.857   0.578 -0.0799  0.1167 -0.9334
  893MOL0     C20427   3.110   2.914   0.690  0.1080 -0.6376 -0.4392
  893MOL0     O20428   2.986   2.851   0.715 -0.5742 -0.0116 -0.8236
  893MOL0     C20429   2.897   2.930   0.793  0.1249  0.6586 -0.3527
  893MOL0     C20430   2.770   2.854   0.839  0.8275 -0.3202  0.2550
  893MOL0     C20431   2.664   2.963   0.873 -0.0597 -0.0418 -0.2636
  893MOL0     C20432   2.560   2.889   0.967 -0.2202 -0.1960  0.3998
  893MOL0     C20433   2.418   2.945   0.969 -0.4907  0.1529  0.0138
  893MOL0     C20434   2.329   2.862   1.069 -0.4434  0.2450 -0.6971
  893MOL0     C20435   2.225   2.934   1.167 -1.0716  0.2794 -0.5526
  893MOL0     C20436   2.080   2.940   1.125 -0.0552  0.9318  0.7601
  893MOL0     N20437   2.059   2.976   0.983  0.3145  0.6223  0.6363
  893MOL0     C20438   1.937   2.961   0.914  1.1356  0.5197  0.1547
  893MOL0     C20439   1.957   3.046   0.803 -1.1667  0.8754 -0.6416
  893MOL0     C20440   1.859   3.073   0.694  1.2974 -0.2687 -0.1529
  893MOL0     C20441   1.904   3.011   0.563 -0.4674  0.0340 -0.5777
  893MOL0     C20442   1.947   2.857   0.569  0.4276 -0.3589 -0.3546
  893MOL0     C20443   1.825   2.779   0.618 -1.7282  0.1143  0.7825
  893MOL0     O20444   1.804   2.652   0.546  0.2196 -0.4954 -0.2400
  893MOL0     C20445   1.740   2.556   0.621  0.2041  0.3837  0.6870
  893MOL0     C20446   1.766   2.425   0.580 -0.1618  1.0802 -0.7444
  893MOL0     C20447   1.714   2.319   0.647 -0.2373  0.5174  0.2375
  893MOL0     C20448   1.768   2.180   0.609 -0.3129  0.2782 -0.0289
  893MOL0     C20449   1.618   2.340   0.752 -0.0051  0.8099  0.1449
  893MOL0     C20450   1.552   2.229   0.820 -0.4554 -0.6956 -0.2678
  893MOL0     O20451   1.558   2.100   0.785 -0.4524 -0.5390  0.4309
  893MOL0     C20452   1.468   2.010   0.822  0.7323  0.2747 -0.5872
  893MOL0     C20453   1.502   1.908   0.914  0.7548 -0.7474  0.7084
  893MOL0     C20454   1.428   1.795   0.935 -0.0325  1.0855  0.0310
  893MOL0     C20455   1.317   1.768   0.855  0.0730  0.1002  0.9326
  893MOL0     O20456   1.248   1.647   0.861 -0.1065  0.3491 -0.1098
  893MOL0     C20457   1.204   1.609   0.995 -0.6196 -0.1166  0.0889
  893MOL0     C20458   1.108   1.708   1.064 -0.7075  0.4761 -0.4521
  893MOL0     C20459   0.996   1.734   0.968 -0.4370  1.5481 -0.0371
  893MOL0     C20460   0.876   1.792   1.025  0.9503 -0.2878  0.0873
  893MOL0     C20461   0.743   1.763   0.945 -0.8900 -0.0328 -0.0838
  893MOL0     C20462   0.620   1.831   0.991  0.4759  0.3772  0.4953
  893MOL0     C20463   0.501   1.760   0.926 -0.3833  0.2786 -0.5188
  893MOL0     C20464   0.373   1.837   0.949  0.3116  1.2585 -0.0376
  893MOL0    Cl20465   0.232   1.742   0.900 -0.1355  0.0190 -0.0463
  893MOL0     C20466   1.275   1.868   0.769  1.3387 -0.8517  0.4820
  893MOL0     C20467   1.354   1.989   0.757  0.8837  0.4394  0.5606
  893MOL0     O20468   1.486   2.274   0.919 -0.6159  0.0302  0.2569
  893MOL0     C20469   1.591   2.470   0.790  0.0636  0.0621 -0.8588
  893MOL0     C20470   1.655   2.577   0.731 -0.1111  0.4273  1.1878
  893MOL0     N20471   2.090   3.098   0.807 -0.6612  0.1795  0.2001
  893MOL0     N20472   2.141   3.077   0.919  0.6972 -0.6645  0.3918
  893MOL0     C20473   3.183   3.001   0.765  1.2016 -0.0001 -1.0722
  893MOL0     C20474   3.315   3.039   0.728  0.3253 -0.2152 -0.1171
  893MOL0     C20475   3.674   3.162   0.560 -0.3639  0.7947  0.5551
  893MOL0     C20476   3.701   3.164   0.423 -0.1837  1.8003 -0.4160
  893MOL0     C20477   3.791   3.252   0.368  0.2073  0.1289  1.2416
  893MOL0     C20478   3.826   3.361   0.436 -0.2305  0.2913  0.7809
  893MOL0     O20479   3.893   3.470   0.379 -0.1527 -0.2476  0.0634
  893MOL0     C20480   4.033   3.485   0.423  0.1793  1.3328  0.2652
  893MOL0     C20481   4.121   3.540   0.314 -0.3065 -0.5989 -1.1706
  893MOL0     C20482   4.094   3.680   0.266  0.1480  0.5465 -0.4806
  893MOL0     C20483   4.193   3.789   0.330  0.9273  0.1953 -0.2495
  893MOL0     C20484   4.129   3.835   0.452 -0.5979  0.3199 -0.5711
  893MOL0     C20485   4.079   3.889   0.550 -0.6134  1.2299  0.0266
  893MOL0     C20486   3.788   3.374   0.570 -0.5724  0.2533  0.1918
  893MOL0     C20487   3.726   3.268   0.639 -0.5106 -0.2466 -0.2479
  893MOL0     H20488   3.321   2.849   0.443 -1.1106  1.1410 -1.8824
  893MOL0     H20489   3.106   2.790   0.523 -0.7052 -0.5326  0.5372
  893MOL0     H20490   2.934   2.986   0.880 -1.0018 -1.0411  1.3122
  893MOL0     H20491   2.857   3.015   0.736 -0.3769  0.7533  0.1224
  893MOL0     H20492   2.728   2.783   0.767 -0.6170 -0.1690  0.9241
  893MOL0     H20493   2.800   2.785   0.919 -0.7345 -1.1492  0.1656
  893MOL0     H20494   2.708   3.053   0.915  0.9737 -1.5042  1.9819
  893MOL0     H20495   2.608   2.991   0.783 -2.1145  2.7272  1.6872
  893MOL0     H20496   2.539   2.786   0.936  1.6657 -0.8762  1.2853
  893MOL0     H20497   2.609   2.876   1.064  0.1927  0.3513  0.2681
  893MOL0     H20498   2.437   3.049   0.997  0.1419 -0.1571  0.7798
  893MOL0     H20499   2.382   2.951   0.866  4.1452 -0.9156 -1.9041
  893MOL0     H20500   2.280   2.774   1.025  0.0816 -2.2310  3.1915
  893MOL0     H20501   2.409   2.832   1.137 -1.9361  2.2253  2.1494
  893MOL0     H20502   2.240   2.911   1.273  0.4296 -0.4900 -0.9105
  893MOL0     H20503   2.272   3.033   1.172  1.6828 -0.9953  1.8382
  893MOL0     H20504   2.017   2.999   1.193 -1.6681  0.3619 -0.1812
  893MOL0     H20505   2.035   2.841   1.135  1.4776 -0.1144 -1.8313
  893MOL0     H20506   1.845   2.917   0.950  0.3770  2.0921  0.2393
  893MOL0     H20507   1.757   3.037   0.713  0.3607 -0.4501 -4.3893
  893MOL0     H20508   1.858   3.180   0.671  0.5800 -0.1693  0.2914
  893MOL0     H20509   1.981   3.074   0.519 -1.1562  0.0280 -1.8542
  893MOL0     H20510   1.817   3.014   0.495 -0.0489 -3.8896 -1.5680
  893MOL0     H20511   2.040   2.847   0.625 -0.9863 -0.4966  2.0759
  893MOL0     H20512   1.964   2.846   0.461  0.3906  0.6746 -0.4778
  893MOL0     H20513   1.729   2.831   0.607 -1.7881  0.5715  2.9921
  893MOL0     H20514   1.840   2.763   0.725 -3.9056  1.8812  1.4568
  893MOL0     H20515   1.829   2.411   0.493 -1.0020 -0.1075 -1.1897
  893MOL0     H20516   1.845   2.187   0.532  3.2498  1.3509  3.2471
  893MOL0     H20517   1.822   2.134   0.693 -2.1454 -0.8378  0.5825
  893MOL0     H20518   1.689   2.110   0.582 -0.6551  0.5173  0.3315
  893MOL0     H20519   1.596   1.921   0.965  1.5686  1.5479 -1.2009
  893MOL0     H20520   1.453   1.721   1.010 -2.1132 -1.5801 -1.7315
  893MOL0     H20521   1.159   1.509   0.988  2.2982 -1.4980 -0.5205
  893MOL0     H20522   1.296   1.600   1.054 -1.4795 -2.5223  1.2074
  893MOL0     H20523   1.079   1.655   1.155  0.2084 -0.0652 -0.4675
  893MOL0     H20524   1.166   1.797   1.090  2.8676 -1.6571 -0.5297
  893MOL0     H20525   0.972   1.642   0.914 -1.2142  2.2582 -0.9366
  893MOL0     H20526   1.031   1.816   0.905 -1.1373  1.7947 -0.1172
  893MOL0     H20527   0.874   1.751   1.126 -0.9959 -0.8285 -0.1212
  893MOL0     H20528   0.893   1.900   1.026 -1.6422  0.1752  0.6867
  893MOL0     H20529   0.721   1.656   0.951 -4.6961  0.6237  0.0884
  893MOL0     H20530   0.771   1.789   0.842  2.9615 -0.1668  0.7877
  893MOL0     H20531   0.618   1.831   1.100  0.4022 -1.1761  0.5182
  893MOL0     H20532   0.617   1.937   0.963  1.5045 -0.0237 -1.3257
  893MOL0     H20533   0.478   1.660   0.965 -1.8757 -0.6255 -3.4146
  893MOL0     H20534   0.514   1.745   0.819 -0.3857  3.6479 -1.1062
  893MOL0     H20535   0.379   1.935   0.901  0.2474  2.6379  2.6019
  893MOL0     H20536   0.363   1.857   1.056 -2.2678  0.1159  0.0038
  893MOL0     H20537   1.189   1.867   0.703  1.4030  2.0252  0.2554
  893MOL0     H20538   1.324   2.063   0.683  2.3502  0.1396 -0.3871
  893MOL0     H20539   1.524   2.497   0.871 -0.1722 -1.0953 -0.6565
  893MOL0     H20540   1.629   2.680   0.753 -1.2356 -0.2064  3.0611
  893MOL0     H20541   3.152   3.035   0.863  0.2127 -0.9400 -1.0385
  893MOL0     H20542   3.363   3.115   0.789  2.3381 -0.1053 -1.7551
  893MOL0     H20543   3.658   3.085   0.362 -1.0826  0.8137  1.4141
  893MOL0     H20544   3.821   3.236   0.265 -0.0059  1.4606  0.9588
  893MOL0     H20545   4.026   3.565   0.498 -1.3297  2.1237 -0.6632
  893MOL0     H20546   4.067   3.391   0.467 -2.3031  1.1830  2.1020
  893MOL0     H20547   4.121   3.467   0.233 -1.4929 -1.8205 -0.1118
  893MOL0     H20548   4.220   3.554   0.358 -1.9483  1.1093  2.4608
  893MOL0     H20549   3.988   3.700   0.287  0.1455 -1.3456  1.7880
  893MOL0     H20550   4.105   3.684   0.157  1.8779 -2.3172 -0.5109
  893MOL0     H20551   4.205   3.880   0.271 -0.2553  0.2372 -0.4470
  893MOL0     H20552   4.296   3.756   0.344  1.4303  2.1075  0.8715
  893MOL0     H20553   4.041   3.935   0.639 -1.0151 -0.1664  0.5885
  893MOL0     H20554   3.815   3.461   0.630 -2.2105 -0.6484  2.3455
  893MOL0     H20555   3.701   3.279   0.744  1.3263 -2.3408  0.4783
  894MOL0     O20556   7.208   2.578   3.766 -0.0705  0.0164  0.0950
  894MOL0     C20557   7.204   2.625   3.882  0.8153  0.6265  0.2381
  894MOL0     O20558   7.288   2.720   3.935  0.0156  1.3937 -0.3073
  894MOL0     C20559   7.411   2.735   3.881 -0.2007  0.2951 -0.2977
  894MOL0     C20560   7.454   2.865   3.844 -0.2263 -0.6144 -1.0294
  894MOL0     C20561   7.593   2.891   3.814 -0.0123  0.5328  0.3760
  894MOL0     C20562   7.683   2.790   3.794 -0.0320  0.4290 -0.3782
  894MOL0     O20563   7.805   2.829   3.757 -0.4580 -0.8399 -0.4193
  894MOL0     C20564   7.886   2.749   3.671 -0.7054  0.1358 -0.0476
  894MOL0     C20565   7.959   2.828   3.561  0.6095  0.3493  0.0611
  894MOL0     C20566   7.864   2.881   3.457  0.5259  0.2228  0.2338
  894MOL0     C20567   7.810   2.762   3.379  0.2894  0.0940  0.0072
  894MOL0     C20568   7.655   2.770   3.355 -0.2285 -0.4303 -0.0230
  894MOL0     C20569   7.580   2.719   3.476  0.2105  0.2285 -0.1215
  894MOL0     C20570   7.437   2.670   3.442  0.9201  0.7113 -1.2104
  894MOL0     C20571   7.349   2.792   3.440  0.3890  0.9668 -0.2147
  894MOL0     N20572   7.218   2.771   3.372  0.3419 -0.1157  0.9901
  894MOL0     C20573   7.117   2.717   3.443  0.3557  0.0213  0.0994
  894MOL0     C20574   7.003   2.722   3.363  0.6949 -0.6043 -0.8250
  894MOL0     C20575   6.868   2.675   3.399  0.6952  0.2266 -0.6475
  894MOL0     C20576   6.867   2.548   3.484  0.6194 -0.6311 -0.0023
  894MOL0     C20577   6.723   2.482   3.482 -0.6650  0.1833 -0.7532
  894MOL0     C20578   6.735   2.360   3.584  0.0573 -0.8917 -0.9258
  894MOL0     O20579   6.734   2.403   3.720 -0.0485 -1.0669  0.5524
  894MOL0     C20580   6.615   2.436   3.780  0.7619  0.9615 -0.4217
  894MOL0     C20581   6.502   2.345   3.775 -0.0481 -0.3610  0.4090
  894MOL0     C20582   6.380   2.366   3.846 -0.5055 -1.5079  0.3897
  894MOL0     C20583   6.294   2.249   3.849  0.5165 -0.1093 -0.4185
  894MOL0     C20584   6.363   2.486   3.925 -0.4390  1.0089  1.4216
  894MOL0     C20585   6.252   2.507   4.015 -0.5076 -0.0979 -0.2625
  894MOL0     O20586   6.132   2.455   3.986 -0.1312  0.7074 -0.6993
  894MOL0     C20587   6.026   2.480   4.073 -0.2158 -0.9020 -0.4437
  894MOL0     C20588   6.005   2.581   4.170 -0.3028 -0.4825 -0.1239
  894MOL0     C20589   5.890   2.598   4.243 -0.0947 -1.2172  0.7062
  894MOL0     C20590   5.789   2.506   4.221  0.0629  1.1105  0.4337
  894MOL0     O20591   5.679   2.512   4.307  0.8994 -0.1599 -0.0593
  894MOL0     C20592   5.550   2.451   4.281 -0.1546 -0.2670 -0.3638
  894MOL0     C20593   5.482   2.516   4.161 -0.6464  0.2812  0.5193
  894MOL0     C20594   5.334   2.540   4.170  0.3557  0.6967 -0.0012
  894MOL0     C20595   5.262   2.557   4.040 -0.4115 -0.3784  0.3975
  894MOL0     C20596   5.213   2.426   3.984 -0.0242  0.2045  0.2805
  894MOL0     C20597   5.194   2.460   3.830  0.5716 -0.4304 -0.7142
  894MOL0     C20598   5.178   2.328   3.744 -0.0267 -1.0946 -0.5886
  894MOL0     C20599   5.048   2.257   3.759 -0.2667  0.2209 -1.0806
  894MOL0    Cl20600   4.902   2.363   3.716  0.0921 -0.0545 -0.2250
  894MOL0     C20601   5.794   2.412   4.120 -0.5835 -0.8164  0.0878
  894MOL0     C20602   5.905   2.412   4.039 -0.3415  0.1557 -0.5022
  894MOL0     O20603   6.283   2.569   4.117 -0.3506  0.4512  0.1544
  894MOL0     C20604   6.462   2.581   3.906 -0.8500  0.7327 -0.1276
  894MOL0     C20605   6.588   2.557   3.838  0.2264  0.7564 -0.4235
  894MOL0     N20606   7.046   2.769   3.245 -0.3994 -0.5602  0.3011
  894MOL0     N20607   7.167   2.804   3.249  0.0899 -0.1089  0.1406
  894MOL0     C20608   7.633   2.654   3.816 -0.1676 -0.3940  0.8557
  894MOL0     C20609   7.506   2.632   3.864  0.4080 -0.0313  0.5935
  894MOL0     C20610   7.091   2.580   3.965 -0.5295  0.1326 -0.3848
  894MOL0     C20611   7.060   2.635   4.089 -0.1642  0.8465 -1.3743
  894MOL0     C20612   6.965   2.568   4.163 -0.2237  0.0562 -0.9225
  894MOL0     C20613   6.881   2.472   4.107  0.2518  0.9818  0.3134
  894MOL0     O20614   6.786   2.414   4.183  0.1175  0.1808 -0.0434
  894MOL0     C20615   6.679   2.349   4.114  0.4384 -0.0618 -0.1909
  894MOL0     C20616   6.593   2.273   4.214  0.3882 -0.2824  0.7796
  894MOL0     C20617   6.676   2.219   4.332 -0.3270 -0.9067  0.9750
  894MOL0     C20618   6.606   2.103   4.398  1.0213 -0.2562  0.0657
  894MOL0     C20619   6.700   2.049   4.507 -0.5401 -1.1085 -0.4724
  894MOL0     C20620   6.781   2.026   4.591  0.9735  0.0603 -0.2373
  894MOL0     C20621   6.913   2.418   3.984 -0.0748  0.3833 -0.0030
  894MOL0     C20622   7.021   2.466   3.922  0.8633 -0.0226  0.1338
  894MOL0     H20623   7.382   2.947   3.842  1.0580  0.5570 -0.5948
  894MOL0     H20624   7.622   2.995   3.800 -1.4668  1.1597  1.7439
  894MOL0     H20625   7.976   2.719   3.725  2.9128  3.7128 -3.4787
  894MOL0     H20626   7.834   2.660   3.632  1.4323 -1.4811  0.6057
  894MOL0     H20627   8.003   2.919   3.604 -0.7351  3.6988 -4.8322
  894MOL0     H20628   8.043   2.774   3.516  0.3232 -0.2579  0.2467
  894MOL0     H20629   7.782   2.937   3.503  0.7695  1.9781 -1.3370
  894MOL0     H20630   7.923   2.952   3.398  1.6087  0.1774  1.2244
  894MOL0     H20631   7.867   2.750   3.286  1.6967  0.0442  0.8389
  894MOL0     H20632   7.837   2.660   3.409 -2.5213 -0.9517 -0.7319
  894MOL0     H20633   7.622   2.866   3.314  1.1466 -0.8019 -2.1495
  894MOL0     H20634   7.630   2.698   3.277  1.3257 -1.3049  0.2385
  894MOL0     H20635   7.636   2.635   3.519  2.1957  1.3111 -0.4344
  894MOL0     H20636   7.567   2.790   3.559  0.7547 -0.2515  0.3857
  894MOL0     H20637   7.435   2.628   3.341  1.2989  2.3870 -1.9655
  894MOL0     H20638   7.395   2.594   3.508  4.5278 -0.1043  0.3599
  894MOL0     H20639   7.392   2.879   3.390 -1.3435  0.1192 -3.4690
  894MOL0     H20640   7.339   2.835   3.540  2.2976  1.0251 -0.0026
  894MOL0     H20641   7.120   2.685   3.547  2.2035  0.9673  0.3679
  894MOL0     H20642   6.811   2.754   3.449  0.1138  0.0494 -1.0237
  894MOL0     H20643   6.819   2.643   3.307 -0.1656 -1.6134  0.3901
  894MOL0     H20644   6.885   2.584   3.586 -0.3338  0.4280 -0.1827
  894MOL0     H20645   6.946   2.478   3.455 -0.8586 -1.0618 -3.5642
  894MOL0     H20646   6.702   2.434   3.386  1.3883  0.8949 -1.6240
  894MOL0     H20647   6.639   2.549   3.503  0.1407  0.9576  0.0948
  894MOL0     H20648   6.821   2.297   3.560 -0.4700 -2.3267  0.6918
  894MOL0     H20649   6.652   2.293   3.561 -1.5120  0.9053 -0.7992
  894MOL0     H20650   6.521   2.250   3.726  0.5030 -0.0010 -0.0799
  894MOL0     H20651   6.368   2.168   3.854  2.0931  1.2650 -0.7662
  894MOL0     H20652   6.235   2.248   3.941 -0.2157 -1.4511 -0.8605
  894MOL0     H20653   6.237   2.239   3.756  1.5540 -2.8640 -0.8615
  894MOL0     H20654   6.087   2.642   4.205  0.5439 -1.5972 -0.0967
  894MOL0     H20655   5.881   2.671   4.322 -1.7027 -0.1325 -0.4047
  894MOL0     H20656   5.553   2.343   4.270 -0.9951 -0.6335  2.2811
  894MOL0     H20657   5.494   2.456   4.375 -1.6633 -0.4972 -1.2201
  894MOL0     H20658   5.527   2.612   4.132 -3.3548  1.3215 -0.5741
  894MOL0     H20659   5.495   2.447   4.077 -1.6545  2.8910 -1.9282
  894MOL0     H20660   5.326   2.637   4.221  0.2768 -0.7682  2.9701
  894MOL0     H20661   5.290   2.458   4.227  2.3158 -0.5162 -0.1172
  894MOL0     H20662   5.181   2.631   4.043 -0.3808  0.0025 -3.4142
  894MOL0     H20663   5.338   2.599   3.974  1.3047 -0.4209  2.2645
  894MOL0     H20664   5.123   2.394   4.038  0.4743 -1.4913  0.1790
  894MOL0     H20665   5.291   2.349   3.989  1.3335  1.0830 -3.7418
  894MOL0     H20666   5.110   2.529   3.816  0.0029 -1.1711 -1.0737
  894MOL0     H20667   5.280   2.510   3.784  1.5393 -1.5011 -0.1125
  894MOL0     H20668   5.267   2.269   3.767 -0.4736 -0.7138  2.5376
  894MOL0     H20669   5.178   2.362   3.640 -3.2600 -0.7225 -0.5736
  894MOL0     H20670   5.044   2.217   3.861  0.9181  1.1304 -0.6524
  894MOL0     H20671   5.043   2.167   3.698 -2.2966 -0.1209 -0.4908
  894MOL0     H20672   5.710   2.345   4.106 -2.6130  1.1477  1.8977
  894MOL0     H20673   5.907   2.341   3.957 -2.5385  0.9025 -1.2816
  894MOL0     H20674   6.447   2.677   3.954  3.3865  0.4736  2.1015
  894MOL0     H20675   6.643   2.649   3.825 -0.2698  1.6855  2.9443
  894MOL0     H20676   7.686   2.565   3.785  1.8284  0.1350  2.5280
  894MOL0     H20677   7.479   2.528   3.876  0.4613 -0.1304 -0.1366
  894MOL0     H20678   7.121   2.699   4.151  0.1519 -2.6266  2.3535
  894MOL0     H20679   6.962   2.614   4.261 -0.7886  3.4654 -2.3913
  894MOL0     H20680   6.615   2.427   4.073  0.3446  0.8473  1.5728
  894MOL0     H20681   6.711   2.268   4.048  0.1035 -1.2208  1.0233
  894MOL0     H20682   6.550   2.188   4.159 -1.8225  0.9278  0.5165
  894MOL0     H20683   6.512   2.338   4.246  1.5899  1.5211  0.2842
  894MOL0     H20684   6.702   2.301   4.400  1.9688  0.1308 -1.0034
  894MOL0     H20685   6.773   2.196   4.288 -0.0953  1.7398 -0.0722
  894MOL0     H20686   6.595   2.033   4.314 -0.8245  0.8627 -0.6899
  894MOL0     H20687   6.515   2.152   4.432  1.3184  2.6309 -2.8201
  894MOL0     H20688   6.853   2.002   4.668 -1.1820 -2.4925  1.1256
  894MOL0     H20689   6.881   2.325   3.940  1.2743 -0.2732  0.3439
  894MOL0     H20690   7.059   2.412   3.836 -0.4788  0.0878 -0.5634
  895MOL0     O20691   3.150   5.716   0.559  0.2550 -0.8260  0.5537
  895MOL0     C20692   3.070   5.645   0.625 -0.1272 -0.3736 -0.7993
  895MOL0     O20693   2.969   5.567   0.585  0.2535  0.5174  0.0422
  895MOL0     C20694   2.957   5.558   0.456  0.2994  0.2894 -0.0161
  895MOL0     C20695   3.029   5.463   0.380  0.1949 -0.0514  0.2461
  895MOL0     C20696   3.022   5.470   0.235 -0.8012  0.3011  0.1977
  895MOL0     C20697   2.945   5.560   0.168  0.7234 -0.9750 -0.6278
  895MOL0     O20698   2.931   5.546   0.029  0.2457  0.4248 -0.3764
  895MOL0     C20699   2.849   5.629  -0.046  0.1440  0.0629 -0.7592
  895MOL0     C20700   2.870   5.588  -0.196 -0.0634 -0.3353  1.1150
  895MOL0     C20701   2.821   5.446  -0.221  1.4256  0.1013  0.1863
  895MOL0     C20702   2.682   5.425  -0.174 -0.0534 -0.1930  0.9423
  895MOL0     C20703   2.652   5.286  -0.219  0.0376  0.4528 -0.3659
  895MOL0     C20704   2.512   5.241  -0.160  0.3036 -1.2957  0.0594
  895MOL0     C20705   2.512   5.240  -0.005  0.2180  0.4632 -0.4580
  895MOL0     C20706   2.450   5.352   0.058  0.4845 -0.3676 -0.1257
  895MOL0     N20707   2.471   5.351   0.203  0.2755 -1.1220  0.2403
  895MOL0     C20708   2.586   5.381   0.269 -0.3064  0.1481  0.5465
  895MOL0     C20709   2.551   5.366   0.402  0.6696  0.4351 -0.5322
  895MOL0     C20710   2.615   5.432   0.520  0.3532  0.1810  0.1457
  895MOL0     C20711   2.678   5.322   0.604  0.5601  0.4427 -0.5679
  895MOL0     C20712   2.820   5.273   0.569 -0.0292  0.2494  0.6477
  895MOL0     C20713   2.828   5.130   0.627 -0.2654 -0.0899 -0.2116
  895MOL0     O20714   2.959   5.088   0.655 -1.5046 -0.6923  0.3146
  895MOL0     C20715   2.989   4.977   0.720  0.6258 -0.4525 -0.4061
  895MOL0     C20716   2.887   4.915   0.804 -0.5037 -0.6614  0.7204
  895MOL0     C20717   2.915   4.790   0.864  0.3730  0.1337 -0.4147
  895MOL0     C20718   2.811   4.723   0.949  0.4077  0.4071  0.0583
  895MOL0     C20719   3.048   4.735   0.854  0.3349 -0.3636 -0.3668
  895MOL0     C20720   3.088   4.613   0.920 -0.5759 -0.2367  0.2675
  895MOL0     O20721   3.212   4.618   0.978  0.3892 -0.0843  0.0733
  895MOL0     C20722   3.260   4.530   1.075 -0.4744 -0.5225  0.4253
  895MOL0     C20723   3.390   4.556   1.114 -0.6949 -0.0948 -0.4545
  895MOL0     C20724   3.460   4.466   1.192  0.4045  0.0492  0.2481
  895MOL0     C20725   3.401   4.357   1.246 -0.1262  0.4153 -0.3431
  895MOL0     O20726   3.478   4.275   1.329  0.6879  0.1433 -0.0496
  895MOL0     C20727   3.417   4.161   1.392  0.2775  0.5880  0.2773
  895MOL0     C20728   3.507   4.102   1.493  1.0916  0.6907 -0.0356
  895MOL0     C20729   3.596   3.988   1.441  0.6227 -0.0781  0.9036
  895MOL0     C20730   3.674   3.908   1.543  0.0222 -0.9880 -0.1575
  895MOL0     C20731   3.744   3.796   1.465 -0.9096  0.3590 -0.9283
  895MOL0     C20732   3.652   3.673   1.452 -0.3698 -0.6338 -0.8151
  895MOL0     C20733   3.624   3.602   1.585  1.0901 -0.6809  0.5141
  895MOL0     C20734   3.568   3.469   1.563 -0.3251 -0.3036 -0.0215
  895MOL0    Cl20735   3.560   3.398   1.717 -0.0236 -0.2020  0.0199
  895MOL0     C20736   3.270   4.325   1.215  0.3891  0.4058 -0.5747
  895MOL0     C20737   3.202   4.409   1.124 -0.1768 -0.7732 -0.1311
  895MOL0     O20738   3.017   4.513   0.914  0.4670  0.6642 -0.4261
  895MOL0     C20739   3.141   4.810   0.795 -1.1163 -0.5092  0.4619
  895MOL0     C20740   3.116   4.930   0.718  0.2313 -0.3774 -0.4256
  895MOL0     N20741   2.424   5.311   0.401 -0.3553 -0.2578  0.4466
  895MOL0     N20742   2.379   5.296   0.287  0.0061 -0.4779  0.9650
  895MOL0     C20743   2.874   5.652   0.243  0.7499 -0.1477 -0.0652
  895MOL0     C20744   2.884   5.650   0.384  0.1068  1.0437  0.5969
  895MOL0     C20745   3.095   5.620   0.763  0.0148 -0.6185  0.0876
  895MOL0     C20746   2.997   5.577   0.857 -0.2707  0.3593  0.9873
  895MOL0     C20747   3.033   5.563   0.990  0.6660 -0.1736  0.1316
  895MOL0     C20748   3.162   5.576   1.039  0.0034 -1.2078 -0.4134
  895MOL0     O20749   3.197   5.550   1.171 -0.3289 -0.2486 -0.5341
  895MOL0     C20750   3.088   5.538   1.266  0.6134  0.0339 -0.3577
  895MOL0     C20751   3.155   5.538   1.395  0.2180  0.0060 -0.4182
  895MOL0     C20752   3.073   5.482   1.516 -0.4190  0.8601 -0.5132
  895MOL0     C20753   3.160   5.460   1.643  0.3301  0.0056 -0.6876
  895MOL0     C20754   3.241   5.334   1.644  0.1903 -0.3103 -0.2751
  895MOL0     C20755   3.299   5.227   1.627  0.3877  0.0452 -0.5039
  895MOL0     C20756   3.264   5.611   0.949  0.4321 -1.0466  1.0529
  895MOL0     C20757   3.226   5.642   0.816 -0.5418  0.1339 -0.2109
  895MOL0     H20758   3.094   5.399   0.438  0.7911 -0.0200 -0.3693
  895MOL0     H20759   3.087   5.404   0.178  0.1685 -0.5432  2.1784
  895MOL0     H20760   2.742   5.630  -0.024  0.3926  3.5367  0.9533
  895MOL0     H20761   2.886   5.730  -0.027  1.2387 -0.3901 -0.3702
  895MOL0     H20762   2.823   5.659  -0.265  2.4614  1.5024  1.1669
  895MOL0     H20763   2.975   5.590  -0.227 -0.4420 -0.5349 -0.2799
  895MOL0     H20764   2.811   5.440  -0.330  1.3226  5.0836 -0.3190
  895MOL0     H20765   2.888   5.372  -0.176 -2.3524 -2.3004  2.3478
  895MOL0     H20766   2.673   5.438  -0.066 -2.5544  0.2681  0.7434
  895MOL0     H20767   2.621   5.505  -0.218  0.1109 -0.4078  0.3199
  895MOL0     H20768   2.646   5.276  -0.328  0.2327 -1.1994 -0.2529
  895MOL0     H20769   2.723   5.212  -0.183 -0.9386 -1.0369 -1.3910
  895MOL0     H20770   2.429   5.298  -0.202  0.3344 -1.6934 -0.5468
  895MOL0     H20771   2.502   5.138  -0.194  0.3791 -1.6323  1.0168
  895MOL0     H20772   2.448   5.156   0.021 -1.1211  1.5111 -0.2623
  895MOL0     H20773   2.612   5.216   0.033 -0.4845 -0.8683  0.5985
  895MOL0     H20774   2.343   5.341   0.040  0.1899 -0.4388  1.5657
  895MOL0     H20775   2.478   5.449   0.016 -1.5675  0.3636  0.0793
  895MOL0     H20776   2.677   5.410   0.218 -1.8216  2.5703 -0.9537
  895MOL0     H20777   2.693   5.498   0.481  1.5921 -2.5182 -2.3243
  895MOL0     H20778   2.536   5.476   0.582 -0.8971 -0.0090 -1.2552
  895MOL0     H20779   2.609   5.239   0.618 -1.0517  1.8307  0.0803
  895MOL0     H20780   2.682   5.364   0.705  0.5175 -2.6875  0.8355
  895MOL0     H20781   2.895   5.327   0.627  1.7969 -3.5612  2.2107
  895MOL0     H20782   2.842   5.282   0.462  0.8826 -1.1181  0.6965
  895MOL0     H20783   2.776   5.056   0.565  1.9602  0.0539 -2.4094
  895MOL0     H20784   2.771   5.142   0.720  1.9843  0.3828  1.1892
  895MOL0     H20785   2.796   4.971   0.823 -1.4173 -1.9461  0.2990
  895MOL0     H20786   2.724   4.784   0.975 -0.6260 -1.2607  0.6488
  895MOL0     H20787   2.774   4.630   0.905 -1.8584  2.4413 -2.7496
  895MOL0     H20788   2.857   4.706   1.046 -1.1272  2.3954  1.2178
  895MOL0     H20789   3.431   4.653   1.088 -0.6039 -0.0458 -0.1334
  895MOL0     H20790   3.564   4.495   1.206  0.6200 -1.2732  1.7361
  895MOL0     H20791   3.327   4.200   1.440 -1.1171 -0.5093 -1.3450
  895MOL0     H20792   3.386   4.090   1.315  1.4047 -2.0105  2.0532
  895MOL0     H20793   3.575   4.179   1.531  4.7179 -2.4514  0.5113
  895MOL0     H20794   3.443   4.064   1.573  0.2716  0.5072 -0.7624
  895MOL0     H20795   3.666   4.031   1.368  0.5507 -0.9046  0.3254
  895MOL0     H20796   3.540   3.909   1.390  3.2095 -1.1051 -0.5545
  895MOL0     H20797   3.752   3.967   1.592  0.2050 -2.1249  0.9744
  895MOL0     H20798   3.606   3.872   1.621  0.7011  0.8234  1.3452
  895MOL0     H20799   3.831   3.758   1.519 -0.1122  0.5847 -2.0159
  895MOL0     H20800   3.777   3.824   1.365 -0.7707 -0.0765 -1.0068
  895MOL0     H20801   3.553   3.708   1.420 -0.2763  1.8671  1.2993
  895MOL0     H20802   3.686   3.599   1.380  1.3516 -0.5454 -0.1380
  895MOL0     H20803   3.546   3.649   1.645 -1.7650 -2.9713 -1.1502
  895MOL0     H20804   3.718   3.607   1.642  1.1938 -2.2369  0.5354
  895MOL0     H20805   3.645   3.417   1.504 -1.3663 -2.6174  0.5175
  895MOL0     H20806   3.470   3.479   1.516 -0.3424 -1.3295 -0.2408
  895MOL0     H20807   3.223   4.235   1.252 -0.4248 -0.3273 -3.1841
  895MOL0     H20808   3.104   4.369   1.100 -0.6205  0.8639 -1.2619
  895MOL0     H20809   3.246   4.783   0.793 -0.7169  0.9784 -1.0307
  895MOL0     H20810   3.197   4.983   0.669 -0.8223  0.2772 -1.5466
  895MOL0     H20811   2.816   5.733   0.200  0.8990 -1.4171 -2.8605
  895MOL0     H20812   2.819   5.712   0.446 -0.2077  1.5245 -0.2015
  895MOL0     H20813   2.892   5.567   0.830  0.4087 -0.4348 -1.6310
  895MOL0     H20814   2.954   5.540   1.061  0.6876 -1.0920 -0.1326
  895MOL0     H20815   3.022   5.625   1.255  0.1209  0.0044  1.8815
  895MOL0     H20816   3.032   5.447   1.243  0.6986  0.0076 -0.4624
  895MOL0     H20817   3.180   5.640   1.425 -1.3055  0.1735  0.4073
  895MOL0     H20818   3.249   5.483   1.400 -0.3813 -1.3253 -2.5720
  895MOL0     H20819   3.026   5.386   1.490 -1.3403 -0.3524  4.5478
  895MOL0     H20820   2.991   5.550   1.541 -0.1935 -0.0854  3.4996
  895MOL0     H20821   3.092   5.459   1.728  2.1359  1.7044  0.8858
  895MOL0     H20822   3.227   5.546   1.650  1.4568 -0.9449  1.0436
  895MOL0     H20823   3.353   5.135   1.615 -0.4800 -0.2732 -2.2236
  895MOL0     H20824   3.369   5.629   0.969  0.4980  0.1623 -0.1894
  895MOL0     H20825   3.304   5.686   0.755  1.5121 -0.8706  1.5140
  896MOL0     O20826  10.754   7.581   5.217 -0.0925  0.2542  0.5897
  896MOL0     C20827  10.773   7.675   5.299 -0.3957  0.0295 -0.2240
  896MOL0     O20828  10.888   7.738   5.304  0.0422  1.5558 -0.0143
  896MOL0     C20829  10.998   7.684   5.264 -0.5015 -0.1032  0.2255
  896MOL0     C20830  11.029   7.618   5.144 -0.3455  0.4775  0.5527
  896MOL0     C20831  11.163   7.612   5.089  0.6767  0.2024  0.5450
  896MOL0     C20832  11.270   7.653   5.175  0.5501  0.2655  0.0167
  896MOL0     O20833  11.401   7.660   5.129  0.6504 -0.8829 -0.7415
  896MOL0     C20834  11.498   7.582   5.202 -0.3382  0.0916 -0.4209
  896MOL0     C20835  11.646   7.623   5.173  0.5806  0.6945  0.4886
  896MOL0     C20836  11.724   7.590   5.299 -0.0614  0.8406  0.6996
  896MOL0     C20837  11.865   7.638   5.281 -0.2328 -1.0065 -0.1178
  896MOL0     C20838  11.953   7.627   5.409 -0.1692  0.3143 -0.0049
  896MOL0     C20839  12.082   7.701   5.391 -0.3296  0.1587  0.6985
  896MOL0     C20840  12.147   7.727   5.524 -0.5480  0.5452  0.4648
  896MOL0     C20841  12.293   7.750   5.513 -0.5259 -0.7898  0.3408
  896MOL0     N20842  12.326   7.840   5.400 -0.4679 -1.3211  1.4564
  896MOL0     C20843  12.289   7.974   5.387  1.0468 -1.1837  0.0382
  896MOL0     C20844  12.324   8.005   5.254  0.6541  0.2294 -0.2896
  896MOL0     C20845  12.272   8.132   5.188  0.4960 -0.7379  1.0754
  896MOL0     C20846  12.329   8.259   5.259  0.0201 -0.4263 -0.5872
  896MOL0     C20847  12.458   8.298   5.196 -1.2076  0.4831  0.9285
  896MOL0     C20848  12.533   8.389   5.291 -0.0435  0.9797 -0.3738
  896MOL0     O20849  12.670   8.396   5.267  0.0677 -0.1493 -0.6461
  896MOL0     C20850  12.746   8.455   5.352  0.6682  0.0043 -0.1999
  896MOL0     C20851  12.880   8.410   5.362 -0.4974 -0.5171  0.3376
  896MOL0     C20852  12.977   8.461   5.455  1.2673  0.2008  0.2919
  896MOL0     C20853  13.114   8.381   5.452  0.6772 -0.2956 -0.8126
  896MOL0     C20854  12.925   8.553   5.556  0.7966  0.3596  0.1651
  896MOL0     C20855  13.006   8.604   5.671 -0.0678 -0.3450  0.1133
  896MOL0     O20856  12.939   8.660   5.773  0.3963  0.3953 -0.5724
  896MOL0     C20857  13.032   8.723   5.860  0.0744 -0.4902  0.3927
  896MOL0     C20858  13.079   8.855   5.840  0.3322  0.7373  0.1004
  896MOL0     C20859  13.178   8.911   5.918  0.0551 -0.2741 -0.7936
  896MOL0     C20860  13.241   8.841   6.024  0.5589 -0.7811  0.6706
  896MOL0     O20861  13.341   8.875   6.116  1.2657 -0.2823  0.3081
  896MOL0     C20862  13.365   9.025   6.123 -0.5248  0.0740 -0.1149
  896MOL0     C20863  13.461   9.054   6.240  0.1295  0.1940  0.4447
  896MOL0     C20864  13.494   9.205   6.251 -0.0509  0.3720  0.2502
  896MOL0     C20865  13.610   9.227   6.340 -0.8654 -1.9748  0.1761
  896MOL0     C20866  13.646   9.377   6.369  0.1226  0.2745  0.4463
  896MOL0     C20867  13.739   9.383   6.483 -0.3052 -0.5265 -0.5547
  896MOL0     C20868  13.714   9.512   6.556  0.3185 -0.9363  0.6215
  896MOL0     C20869  13.789   9.524   6.681  0.1005 -0.3712 -0.3823
  896MOL0    Cl20870  13.726   9.682   6.755 -0.2383  0.3072 -0.1817
  896MOL0     C20871  13.189   8.708   6.041  0.5837 -0.5090 -0.2554
  896MOL0     C20872  13.079   8.656   5.967 -0.4230  0.4131  0.1468
  896MOL0     O20873  13.129   8.605   5.655 -0.4344  0.3122  0.0171
  896MOL0     C20874  12.793   8.597   5.544  0.6061 -0.4143 -1.1466
  896MOL0     C20875  12.706   8.550   5.446 -0.4154 -0.1741  0.5396
  896MOL0     N20876  12.394   7.908   5.191  0.0898  0.6264 -0.5558
  896MOL0     N20877  12.385   7.809   5.275 -0.9816  0.5269  0.3588
  896MOL0     C20878  11.240   7.704   5.303 -0.4228 -0.6195  0.1166
  896MOL0     C20879  11.107   7.722   5.347  0.6373  0.8759 -0.9942
  896MOL0     C20880  10.660   7.733   5.359  0.7424 -0.4321 -0.5305
  896MOL0     C20881  10.536   7.662   5.375  0.1153  0.4116 -0.6014
  896MOL0     C20882  10.436   7.711   5.455 -0.4721  0.0430 -0.7301
  896MOL0     C20883  10.455   7.840   5.509  0.2558 -0.2984  0.8328
  896MOL0     O20884  10.349   7.901   5.570  0.3609  0.0101  0.0467
  896MOL0     C20885  10.248   7.936   5.477  0.2685  0.0246 -0.0746
  896MOL0     C20886  10.131   7.985   5.559 -0.2440 -0.1052 -0.2830
  896MOL0     C20887  10.057   7.872   5.634  0.3459  0.5624 -0.2125
  896MOL0     C20888   9.930   7.920   5.706 -0.5719  0.3311  0.2733
  896MOL0     C20889   9.838   7.995   5.614  0.4513  0.8408  0.0500
  896MOL0     C20890   9.761   8.053   5.535  0.2412  0.7077 -0.3236
  896MOL0     C20891  10.565   7.914   5.484 -0.1193 -0.1177 -0.4507
  896MOL0     C20892  10.667   7.861   5.407 -0.4629 -0.6606 -0.2442
  896MOL0     H20893  10.950   7.585   5.077  1.3436 -0.4729 -1.0979
  896MOL0     H20894  11.195   7.565   4.997  0.5884 -0.2533  0.7457
  896MOL0     H20895  11.474   7.590   5.308  0.1249 -0.8887 -0.2340
  896MOL0     H20896  11.497   7.479   5.167  0.1027  0.0618 -0.3515
  896MOL0     H20897  11.683   7.577   5.081  1.7216  2.2528  0.1357
  896MOL0     H20898  11.660   7.731   5.166 -1.3694  0.9448  0.0321
  896MOL0     H20899  11.666   7.635   5.380 -1.0423  1.0365 -0.0842
  896MOL0     H20900  11.730   7.481   5.312 -0.2716  0.5983 -0.9393
  896MOL0     H20901  11.913   7.584   5.199 -4.1085 -1.9554 -1.9774
  896MOL0     H20902  11.855   7.744   5.259 -0.3927 -0.5006  2.0980
  896MOL0     H20903  11.901   7.688   5.482  2.5354  0.4024  1.9957
  896MOL0     H20904  11.964   7.526   5.450  0.4641  0.4078  0.0673
  896MOL0     H20905  12.150   7.650   5.322  0.9438  2.9021 -0.2315
  896MOL0     H20906  12.057   7.802   5.356 -1.3278 -0.6239 -1.0090
  896MOL0     H20907  12.093   7.810   5.571 -0.7566 -1.2806  3.7509
  896MOL0     H20908  12.135   7.645   5.595 -0.7985  1.9680  2.1444
  896MOL0     H20909  12.358   7.664   5.497 -0.3159 -0.9642  1.9611
  896MOL0     H20910  12.330   7.795   5.606 -0.1853  1.5126 -0.8256
  896MOL0     H20911  12.234   8.031   5.462  2.5361 -2.8419  2.5624
  896MOL0     H20912  12.293   8.132   5.081 -0.4371 -1.7937  0.8671
  896MOL0     H20913  12.162   8.128   5.191  0.2163  1.2199 -1.9602
  896MOL0     H20914  12.325   8.250   5.367 -0.9898  0.1919 -0.5593
  896MOL0     H20915  12.265   8.344   5.231  1.8521  0.8672 -1.0580
  896MOL0     H20916  12.446   8.343   5.097 -0.8402 -0.1030  0.6123
  896MOL0     H20917  12.523   8.212   5.183 -1.4031  0.4082  0.4381
  896MOL0     H20918  12.516   8.349   5.391 -0.6717  2.1899  0.0215
  896MOL0     H20919  12.485   8.487   5.292  0.9446  1.4713 -0.4426
  896MOL0     H20920  12.906   8.327   5.297  0.9257  0.6755 -0.7001
  896MOL0     H20921  13.137   8.340   5.353  2.0903 -0.2531 -0.5294
  896MOL0     H20922  13.193   8.453   5.476  0.6111 -0.3090 -0.5522
  896MOL0     H20923  13.107   8.294   5.518  4.0795  0.5269  0.8569
  896MOL0     H20924  13.018   8.910   5.768 -0.3056  1.5374  1.2176
  896MOL0     H20925  13.188   9.019   5.910 -4.3026  0.3887  0.0523
  896MOL0     H20926  13.417   9.060   6.033 -0.4771  1.8934  0.5796
  896MOL0     H20927  13.270   9.079   6.121 -0.3029  0.4637 -0.3651
  896MOL0     H20928  13.431   9.015   6.337 -0.9603  1.3491  0.5956
  896MOL0     H20929  13.543   8.986   6.216  4.1348  3.8773  2.4691
  896MOL0     H20930  13.410   9.265   6.286  1.1774  2.5463 -0.3501
  896MOL0     H20931  13.514   9.245   6.151 -0.4966 -2.3289 -1.0065
  896MOL0     H20932  13.583   9.196   6.441  4.5429 -1.0832  2.2753
  896MOL0     H20933  13.701   9.170   6.320  0.8371  0.4835  0.4562
  896MOL0     H20934  13.552   9.425   6.398 -1.7899 -3.5660  1.3103
  896MOL0     H20935  13.689   9.432   6.284 -2.0104 -2.1543 -2.4525
  896MOL0     H20936  13.728   9.300   6.552 -1.8896  1.1420  1.3339
  896MOL0     H20937  13.840   9.379   6.442  0.1554  0.0742  0.4931
  896MOL0     H20938  13.607   9.509   6.578 -0.1533 -1.0846 -1.4534
  896MOL0     H20939  13.746   9.599   6.497  0.8475 -1.4461  0.1383
  896MOL0     H20940  13.895   9.550   6.669  0.5861 -1.3663  1.3154
  896MOL0     H20941  13.785   9.435   6.745 -1.5955 -1.5000 -1.9894
  896MOL0     H20942  13.221   8.637   6.118  0.6604 -1.2910 -0.9877
  896MOL0     H20943  13.048   8.554   5.991  0.8903 -0.0354  0.0002
  896MOL0     H20944  12.762   8.677   5.611  3.4982 -2.7601  3.5425
  896MOL0     H20945  12.610   8.601   5.448  0.8894  2.4998 -0.0717
  896MOL0     H20946  11.322   7.741   5.364  1.5515  1.4105 -3.4371
  896MOL0     H20947  11.086   7.753   5.449  3.1924 -2.5423  0.7578
  896MOL0     H20948  10.525   7.560   5.340  2.2980 -0.8994  2.1554
  896MOL0     H20949  10.349   7.651   5.479 -0.3647  0.0205 -0.3853
  896MOL0     H20950  10.293   8.016   5.418  1.0249 -0.4457 -0.1543
  896MOL0     H20951  10.220   7.851   5.415 -1.6560  0.6122 -0.0549
  896MOL0     H20952  10.060   8.032   5.490 -0.3839  1.1841  0.7034
  896MOL0     H20953  10.158   8.061   5.633  0.2011 -0.2462 -0.2966
  896MOL0     H20954  10.119   7.820   5.707  0.4121 -0.5697 -1.0351
  896MOL0     H20955  10.007   7.803   5.565  0.8721 -0.1979  0.1600
  896MOL0     H20956   9.968   7.985   5.785 -0.0574 -0.9094  1.0741
  896MOL0     H20957   9.869   7.835   5.740 -2.8261  1.5585 -0.4875
  896MOL0     H20958   9.717   8.102   5.450 -1.4048 -2.0390 -1.1662
  896MOL0     H20959  10.570   8.020   5.505  0.2878 -0.1448 -0.3971
  896MOL0     H20960  10.762   7.906   5.381  0.2051 -1.6398  0.4357
  897MOL0     O20961   6.088   5.968   6.802 -0.0396  0.3264 -0.0769
  897MOL0     C20962   6.072   6.086   6.839 -0.1742 -0.4535  0.7443
  897MOL0     O20963   6.173   6.188   6.847  0.4510  0.1505 -0.1259
  897MOL0     C20964   6.303   6.147   6.825  0.7417  0.3785  0.5548
  897MOL0     C20965   6.371   6.071   6.915 -0.8786  0.2276  0.4605
  897MOL0     C20966   6.510   6.031   6.905  0.2551 -0.4613 -0.5864
  897MOL0     C20967   6.579   6.078   6.786 -0.5096  1.5360  0.7168
  897MOL0     O20968   6.708   6.036   6.758  0.1723 -0.7572  0.9281
  897MOL0     C20969   6.704   5.920   6.671  0.1610 -0.2377  1.1982
  897MOL0     C20970   6.811   5.823   6.713 -0.1743  1.0110  0.4811
  897MOL0     C20971   6.854   5.721   6.606  0.7388  0.7028  0.8209
  897MOL0     C20972   6.943   5.784   6.490 -0.0221 -0.3326  0.5780
  897MOL0     C20973   6.951   5.685   6.367  0.1688  0.1619 -0.2456
  897MOL0     C20974   6.825   5.685   6.284 -0.3642  0.1347 -0.4050
  897MOL0     C20975   6.820   5.574   6.184 -0.2761  0.2722  0.9056
  897MOL0     C20976   6.669   5.569   6.146 -0.8188 -0.2623 -0.0714
  897MOL0     N20977   6.599   5.692   6.107 -0.3572  0.6591 -0.1067
  897MOL0     C20978   6.600   5.763   5.998 -1.6993 -0.5305  1.0009
  897MOL0     C20979   6.490   5.843   5.999 -0.8609 -0.3932  0.1428
  897MOL0     C20980   6.448   5.947   5.884  0.1941 -0.2505 -0.0101
  897MOL0     C20981   6.321   5.894   5.822 -0.0544  0.1336 -1.0907
  897MOL0     C20982   6.353   5.808   5.691 -0.8221  0.0310  0.6834
  897MOL0     C20983   6.439   5.878   5.572  0.6047  0.9293  0.3934
  897MOL0     O20984   6.407   6.017   5.561  0.4999 -0.2793  0.4403
  897MOL0     C20985   6.484   6.088   5.485 -0.3544 -0.4970  1.0625
  897MOL0     C20986   6.559   6.039   5.381  0.3391 -0.0051  0.4000
  897MOL0     C20987   6.636   6.118   5.297  0.1969  0.2976 -0.0168
  897MOL0     C20988   6.714   6.058   5.184  0.0884 -0.0575  0.1462
  897MOL0     C20989   6.626   6.260   5.309  0.1602  0.2937 -0.7715
  897MOL0     C20990   6.689   6.365   5.222 -0.1463  0.3629  0.2955
  897MOL0     O20991   6.754   6.467   5.275  0.0260  0.6818 -0.1563
  897MOL0     C20992   6.793   6.580   5.206  0.8080 -0.0389 -0.4333
  897MOL0     C20993   6.725   6.630   5.092 -0.8010 -0.1297 -0.0989
  897MOL0     C20994   6.770   6.746   5.028 -0.2141  0.4197 -0.1616
  897MOL0     C20995   6.867   6.822   5.089  0.2552 -0.0805  0.1593
  897MOL0     O20996   6.915   6.940   5.020  0.5768  0.0250 -0.6980
  897MOL0     C20997   7.040   6.906   4.950 -0.1124  0.1505 -0.4899
  897MOL0     C20998   7.131   7.030   4.934  0.0793  0.1791 -0.6764
  897MOL0     C20999   7.229   7.015   4.819  0.1962 -0.0095  0.0523
  897MOL0     C21000   7.312   7.143   4.819 -0.6006 -0.0636 -0.3036
  897MOL0     C21001   7.436   7.154   4.734 -0.9017  0.8344 -0.6557
  897MOL0     C21002   7.532   7.265   4.771  0.0448  0.2811  0.0891
  897MOL0     C21003   7.657   7.274   4.691  0.4256 -0.1239  1.0022
  897MOL0     C21004   7.753   7.375   4.738 -0.2988  0.1585  0.2361
  897MOL0    Cl21005   7.793   7.346   4.916 -0.2460  0.0100  0.2663
  897MOL0     C21006   6.925   6.781   5.214  0.6593  0.3478 -0.7795
  897MOL0     C21007   6.883   6.661   5.271  0.9018  0.1922  0.5362
  897MOL0     O21008   6.684   6.339   5.103  0.1049 -0.6468  0.2390
  897MOL0     C21009   6.556   6.310   5.422 -0.2626 -0.3098  0.1482
  897MOL0     C21010   6.485   6.229   5.510  0.2223  1.1635 -0.1268
  897MOL0     N21011   6.431   5.826   6.123  0.1386 -0.3213 -0.3638
  897MOL0     N21012   6.494   5.734   6.186  0.4734 -0.6509 -0.5264
  897MOL0     C21013   6.514   6.160   6.697 -0.3664  0.6417  0.2005
  897MOL0     C21014   6.378   6.198   6.721  0.7529  0.2695  0.5641
  897MOL0     C21015   5.932   6.144   6.853  1.0518  0.2030  0.0860
  897MOL0     C21016   5.822   6.055   6.852  0.3885 -0.0838  0.9333
  897MOL0     C21017   5.698   6.100   6.886 -0.1645 -0.5958  0.3339
  897MOL0     C21018   5.680   6.230   6.923 -0.1353 -0.2296  0.8017
  897MOL0     O21019   5.556   6.286   6.959  0.0071  0.4098 -0.2851
  897MOL0     C21020   5.445   6.204   6.991  0.5846 -0.1237 -0.2633
  897MOL0     C21021   5.371   6.144   6.873  0.7668 -0.5287  0.0227
  897MOL0     C21022   5.350   6.236   6.745  0.5771 -1.0197  0.2103
  897MOL0     C21023   5.225   6.208   6.662 -0.4842  0.5097 -0.5698
  897MOL0     C21024   5.103   6.232   6.737 -0.0631 -0.0697 -0.2050
  897MOL0     C21025   5.005   6.227   6.811  0.5034 -0.1716  0.0778
  897MOL0     C21026   5.774   6.320   6.918  0.1108  0.0627 -0.3358
  897MOL0     C21027   5.904   6.277   6.882  0.2088  0.4242  1.2787
  897MOL0     H21028   6.332   6.029   7.007  0.2159 -0.2278  0.7364
  897MOL0     H21029   6.561   5.967   6.976  1.3291  0.3162 -0.6224
  897MOL0     H21030   6.610   5.863   6.673 -1.0737  1.4903 -1.5239
  897MOL0     H21031   6.713   5.947   6.566  0.5135 -3.0353  0.4161
  897MOL0     H21032   6.900   5.871   6.756  2.5518 -3.4345  0.4171
  897MOL0     H21033   6.769   5.764   6.795  0.3736 -3.2912 -2.0481
  897MOL0     H21034   6.913   5.638   6.647 -0.9968 -0.2953  1.4158
  897MOL0     H21035   6.761   5.675   6.569  0.6054  0.8598  0.9603
  897MOL0     H21036   6.901   5.879   6.457  2.1462  1.5812  2.8676
  897MOL0     H21037   7.047   5.810   6.516  1.0347 -1.3348 -2.2686
  897MOL0     H21038   7.029   5.710   6.295  0.7093  1.6107  0.8115
  897MOL0     H21039   6.981   5.588   6.410  1.3105 -0.2630 -1.9124
  897MOL0     H21040   6.734   5.687   6.344 -0.0093  0.1358  0.1454
  897MOL0     H21041   6.822   5.784   6.237 -0.6571 -0.4747 -1.6862
  897MOL0     H21042   6.888   5.592   6.100 -1.2089 -0.5186 -0.0499
  897MOL0     H21043   6.837   5.474   6.226 -0.4386  1.1435  3.1773
  897MOL0     H21044   6.623   5.525   6.235 -0.1621  1.2505  1.0536
  897MOL0     H21045   6.649   5.501   6.063 -0.7644 -0.5430  0.1439
  897MOL0     H21046   6.662   5.764   5.908 -1.5631  1.7507  1.0704
  897MOL0     H21047   6.436   6.052   5.914 -0.1806 -0.1593 -0.4671
  897MOL0     H21048   6.536   5.955   5.820  1.1713 -0.4955  1.2417
  897MOL0     H21049   6.258   5.981   5.798  0.2459  1.3172  1.9806
  897MOL0     H21050   6.273   5.835   5.900  0.3080  2.0825  0.6968
  897MOL0     H21051   6.256   5.772   5.656 -1.9457 -0.8737  4.2238
  897MOL0     H21052   6.404   5.718   5.727 -3.2748 -0.9301  2.0185
  897MOL0     H21053   6.438   5.825   5.476  2.2807  0.7298  0.4605
  897MOL0     H21054   6.544   5.871   5.601  1.3249 -1.4948 -2.3001
  897MOL0     H21055   6.562   5.933   5.357 -1.3044  0.1161 -0.4922
  897MOL0     H21056   6.822   6.072   5.191  0.1840 -1.0582  0.9561
  897MOL0     H21057   6.710   5.949   5.172 -0.8693 -0.0083 -0.1005
  897MOL0     H21058   6.685   6.092   5.084  1.0872 -0.9645 -0.4717
  897MOL0     H21059   6.650   6.576   5.036  0.0050 -1.4978  0.1125
  897MOL0     H21060   6.723   6.773   4.934 -1.6862 -0.8585  0.1629
  897MOL0     H21061   7.093   6.819   4.991 -0.7461 -1.9293 -3.7303
  897MOL0     H21062   7.006   6.873   4.851  0.7356 -0.1947 -0.6764
  897MOL0     H21063   7.068   7.118   4.917 -0.0552  0.6143  1.6711
  897MOL0     H21064   7.185   7.029   5.029 -1.2706 -1.2392  0.1201
  897MOL0     H21065   7.187   7.005   4.719 -0.3114  1.6618  0.0684
  897MOL0     H21066   7.291   6.928   4.839  4.2940  1.7848 -3.2169
  897MOL0     H21067   7.250   7.229   4.793  0.1204  1.8420  3.4975
  897MOL0     H21068   7.337   7.150   4.925  0.2286  2.2265 -0.5924
  897MOL0     H21069   7.406   7.161   4.629 -2.7245  1.6115 -0.1322
  897MOL0     H21070   7.487   7.057   4.742 -2.3917  0.0394 -0.3319
  897MOL0     H21071   7.478   7.358   4.750 -1.7404 -0.3152  1.7680
  897MOL0     H21072   7.555   7.265   4.877  2.1106  4.2063 -0.1869
  897MOL0     H21073   7.618   7.297   4.591 -0.0857 -0.3817  1.1355
  897MOL0     H21074   7.703   7.175   4.697 -1.9689 -1.3966 -0.1158
  897MOL0     H21075   7.714   7.477   4.731  0.6505  0.4633 -1.1251
  897MOL0     H21076   7.847   7.368   4.682 -1.2695  1.9117 -1.7527
  897MOL0     H21077   7.004   6.842   5.256 -0.9522  1.3464  0.9560
  897MOL0     H21078   6.919   6.618   5.364 -0.3304 -1.9608  0.0932
  897MOL0     H21079   6.560   6.415   5.448 -1.2168 -0.1846 -0.1458
  897MOL0     H21080   6.426   6.278   5.587  0.4412 -0.5570  1.1906
  897MOL0     H21081   6.579   6.203   6.621 -0.8605  0.4465 -0.3445
  897MOL0     H21082   6.321   6.264   6.657 -0.9176 -2.5008 -1.0244
  897MOL0     H21083   5.837   5.949   6.836  1.5380  0.0606  0.9809
  897MOL0     H21084   5.622   6.023   6.896  0.6961 -1.2277  2.7340
  897MOL0     H21085   5.466   6.124   7.063 -0.3286  1.5803  1.9997
  897MOL0     H21086   5.379   6.277   7.039  0.4993 -1.0068  1.0277
  897MOL0     H21087   5.270   6.124   6.909 -0.4655  3.9400 -0.4511
  897MOL0     H21088   5.398   6.040   6.851  2.5798 -0.1381  0.1897
  897MOL0     H21089   5.442   6.216   6.690  1.1168  0.3894  0.5560
  897MOL0     H21090   5.354   6.341   6.776  1.9854 -1.1443  0.5094
  897MOL0     H21091   5.230   6.102   6.636  2.1249 -0.1471  1.9604
  897MOL0     H21092   5.232   6.261   6.567  0.1839 -0.0312 -0.8257
  897MOL0     H21093   4.916   6.218   6.869 -1.8840  1.6261 -2.9637
  897MOL0     H21094   5.758   6.426   6.936 -0.5444  0.2816 -1.9813
  897MOL0     H21095   5.983   6.351   6.879  0.3524  0.3129  2.0903
  898MOL0     O21096   4.178   8.793   3.299  0.2469 -0.5625  0.0857
  898MOL0     C21097   4.252   8.855   3.221  0.0165 -0.3513 -0.9725
  898MOL0     O21098   4.374   8.911   3.257  0.1792  0.4941  0.1243
  898MOL0     C21099   4.442   8.879   3.374  0.8412 -0.8048  0.1905
  898MOL0     C21100   4.531   8.972   3.404  0.5505  1.3577 -0.1974
  898MOL0     C21101   4.602   8.962   3.521  0.3514 -0.6647  0.1995
  898MOL0     C21102   4.577   8.853   3.620 -0.0651  0.0934  1.3588
  898MOL0     O21103   4.661   8.852   3.722  0.3765  0.5714  0.0030
  898MOL0     C21104   4.661   8.732   3.805  0.1306  0.5146 -1.0731
  898MOL0     C21105   4.739   8.774   3.933 -0.0312  0.4555  0.3409
  898MOL0     C21106   4.722   8.666   4.032  0.9312  0.3661 -1.0806
  898MOL0     C21107   4.831   8.669   4.144  2.1254 -1.0889 -0.4298
  898MOL0     C21108   4.948   8.589   4.116 -0.7380  0.7952 -0.2323
  898MOL0     C21109   5.042   8.590   4.226 -0.6451 -0.1343  0.6299
  898MOL0     C21110   4.995   8.549   4.364  0.3200 -0.5601 -0.7006
  898MOL0     C21111   4.926   8.415   4.370  0.2958  0.2251 -0.8561
  898MOL0     N21112   4.998   8.287   4.395  0.9010 -0.3992  0.0397
  898MOL0     C21113   4.968   8.169   4.333 -0.5637  0.7055  0.0270
  898MOL0     C21114   5.016   8.077   4.429 -0.4634  0.3482  0.0536
  898MOL0     C21115   5.004   7.923   4.416 -0.2654 -0.5639 -0.0529
  898MOL0     C21116   4.991   7.850   4.550 -0.8617 -0.2650 -0.8458
  898MOL0     C21117   5.120   7.831   4.628 -0.5883 -0.8361 -0.0657
  898MOL0     C21118   5.177   7.695   4.633  0.4994  0.1204  0.0544
  898MOL0     O21119   5.081   7.604   4.693 -0.6864  0.7553  0.8893
  898MOL0     C21120   5.137   7.480   4.735 -1.1652 -0.0800 -0.3002
  898MOL0     C21121   5.257   7.425   4.690 -0.1332 -0.2382 -0.6957
  898MOL0     C21122   5.297   7.304   4.745 -0.2973  0.7296  1.0415
  898MOL0     C21123   5.435   7.244   4.703  0.1534 -0.2711  0.8034
  898MOL0     C21124   5.222   7.241   4.847 -0.5839 -0.2928 -0.1083
  898MOL0     C21125   5.256   7.114   4.914 -0.3744 -1.0410 -0.9866
  898MOL0     O21126   5.221   7.101   5.044  0.1308  0.2460  0.0780
  898MOL0     C21127   5.273   6.993   5.108  0.6889  0.1357 -0.6540
  898MOL0     C21128   5.229   6.865   5.089 -0.3035  0.8039 -0.6300
  898MOL0     C21129   5.277   6.755   5.167 -0.3789 -0.2874  0.2742
  898MOL0     C21130   5.371   6.777   5.264 -0.6603  0.6523  0.5573
  898MOL0     O21131   5.409   6.667   5.333  0.3603  0.1533 -0.8778
  898MOL0     C21132   5.404   6.679   5.477 -0.4864  0.6377  0.3857
  898MOL0     C21133   5.403   6.533   5.536  0.3418  0.0713  0.0894
  898MOL0     C21134   5.358   6.536   5.690 -0.0135 -0.3829  0.1086
  898MOL0     C21135   5.354   6.393   5.724  0.1962  0.5484  0.1636
  898MOL0     C21136   5.289   6.381   5.863 -0.2102  1.0063  0.2554
  898MOL0     C21137   5.340   6.261   5.941 -1.2600 -0.2695 -0.2819
  898MOL0     C21138   5.274   6.263   6.087  1.2665 -0.9998  0.1833
  898MOL0     C21139   5.248   6.127   6.145  0.1809  0.3128 -0.7252
  898MOL0    Cl21140   5.092   6.051   6.099  0.0434  0.0752  0.3323
  898MOL0     C21141   5.427   6.906   5.283  0.6525 -0.5366 -0.0110
  898MOL0     C21142   5.382   7.011   5.201  0.7490 -0.3097  0.2331
  898MOL0     O21143   5.309   7.026   4.848  0.1961 -0.0449  0.3461
  898MOL0     C21144   5.103   7.296   4.884  0.2163  0.5556  0.2598
  898MOL0     C21145   5.054   7.408   4.814 -0.2218  0.1866 -0.5389
  898MOL0     N21146   5.072   8.148   4.533 -0.0251 -0.0926 -0.0514
  898MOL0     N21147   5.080   8.271   4.497  0.4432 -0.6522 -0.6073
  898MOL0     C21148   4.489   8.749   3.573 -0.5563 -0.3783  0.7347
  898MOL0     C21149   4.424   8.770   3.449  0.9734  0.9109  0.4956
  898MOL0     C21150   4.216   8.877   3.078 -0.2660 -0.3834  0.0816
  898MOL0     C21151   4.082   8.862   3.040  0.0803 -0.0722  0.1001
  898MOL0     C21152   4.048   8.885   2.911 -0.4027 -1.1726  0.5009
  898MOL0     C21153   4.132   8.948   2.816 -0.7262  0.0154 -0.2629
  898MOL0     O21154   4.082   8.978   2.693  0.0493  0.4056 -0.5051
  898MOL0     C21155   4.153   9.077   2.609 -1.0482 -1.1575  0.1942
  898MOL0     C21156   4.065   9.178   2.541 -0.0912 -0.1926 -0.0028
  898MOL0     C21157   3.950   9.109   2.484  0.8762 -0.3051 -0.0913
  898MOL0     C21158   3.898   9.191   2.362  0.3388  0.0676  0.1729
  898MOL0     C21159   3.871   9.331   2.389  1.4114 -0.1661 -0.0981
  898MOL0     C21160   3.844   9.442   2.427 -0.4404 -0.0972  0.1257
  898MOL0     C21161   4.265   8.964   2.871 -0.2582 -0.8736  0.2226
  898MOL0     C21162   4.309   8.919   2.990 -0.1502  0.7363 -0.2395
  898MOL0     H21163   4.542   9.061   3.343 -1.3170  2.9646  1.6627
  898MOL0     H21164   4.677   9.037   3.544  0.8496  0.9087 -5.2071
  898MOL0     H21165   4.561   8.707   3.842  0.1943  4.6513  2.7225
  898MOL0     H21166   4.715   8.650   3.757  3.3353 -0.3357  3.4309
  898MOL0     H21167   4.842   8.769   3.898 -0.4700 -1.6156 -0.7703
  898MOL0     H21168   4.712   8.873   3.972 -2.3057  0.6083 -1.3493
  898MOL0     H21169   4.622   8.676   4.075 -1.6102  0.0593 -6.1876
  898MOL0     H21170   4.723   8.566   3.987  1.0379 -0.5189  0.8043
  898MOL0     H21171   4.867   8.771   4.157 -0.7651  0.2783 -2.0936
  898MOL0     H21172   4.789   8.643   4.241  2.3728 -0.1804 -0.0718
  898MOL0     H21173   4.920   8.486   4.091  0.0119  0.6866 -0.6551
  898MOL0     H21174   5.002   8.627   4.028  0.2734  0.0143  0.0291
  898MOL0     H21175   5.136   8.536   4.206  0.3401  2.7227 -4.1661
  898MOL0     H21176   5.072   8.695   4.218 -1.2239 -0.0575 -0.9782
  898MOL0     H21177   5.082   8.550   4.431 -0.5100 -1.7223  0.4598
  898MOL0     H21178   4.921   8.618   4.407  0.3919 -0.0054 -1.4596
  898MOL0     H21179   4.877   8.403   4.273  0.1286  1.6786 -0.9725
  898MOL0     H21180   4.841   8.427   4.439  0.7884  2.3226 -0.5478
  898MOL0     H21181   4.895   8.156   4.253 -1.4748 -1.5797  1.1281
  898MOL0     H21182   4.904   7.915   4.372 -0.5909  1.2926  0.2946
  898MOL0     H21183   5.077   7.882   4.346 -0.0190 -1.7439  0.8586
  898MOL0     H21184   4.939   7.753   4.544  0.3431 -1.6509  4.9149
  898MOL0     H21185   4.936   7.918   4.616 -1.1228 -0.3189 -1.0066
  898MOL0     H21186   5.109   7.853   4.735  0.0459  0.3782 -0.2342
  898MOL0     H21187   5.190   7.908   4.594 -0.2441 -0.1033  2.1285
  898MOL0     H21188   5.276   7.697   4.678 -0.1860  0.4754  1.5913
  898MOL0     H21189   5.192   7.651   4.534 -0.0958  1.4868 -0.6692
  898MOL0     H21190   5.308   7.477   4.610 -1.7185  2.0327 -0.3367
  898MOL0     H21191   5.485   7.304   4.626  2.4017 -2.3968  0.5216
  898MOL0     H21192   5.503   7.230   4.787  4.2640 -2.0343 -2.4786
  898MOL0     H21193   5.419   7.145   4.659  3.9983 -0.2825 -0.9069
  898MOL0     H21194   5.143   6.841   5.027  0.4846 -2.4643 -0.6402
  898MOL0     H21195   5.248   6.652   5.147 -0.4114 -0.2435  0.0958
  898MOL0     H21196   5.482   6.735   5.529 -0.2168  0.0929  0.5708
  898MOL0     H21197   5.307   6.720   5.505 -0.6556  0.1804  0.4726
  898MOL0     H21198   5.333   6.470   5.480 -0.2515  0.0918  0.7942
  898MOL0     H21199   5.502   6.488   5.527 -0.4144 -1.3021 -2.7344
  898MOL0     H21200   5.253   6.564   5.696 -0.6609 -2.3265 -1.1312
  898MOL0     H21201   5.418   6.594   5.760  0.9046 -1.4969  0.2806
  898MOL0     H21202   5.304   6.330   5.650 -0.0033 -0.0353  0.7834
  898MOL0     H21203   5.449   6.338   5.728 -0.3750 -0.7261 -1.9757
  898MOL0     H21204   5.181   6.373   5.845  0.2435  1.2851 -3.2530
  898MOL0     H21205   5.317   6.467   5.924  0.1533  1.3398 -0.3772
  898MOL0     H21206   5.323   6.169   5.886 -0.7818  0.2023 -1.2311
  898MOL0     H21207   5.447   6.282   5.952 -1.7324  1.5142  1.5203
  898MOL0     H21208   5.187   6.329   6.093 -1.0353 -3.8851  4.5982
  898MOL0     H21209   5.338   6.308   6.164  2.5242 -1.8717 -0.3182
  898MOL0     H21210   5.242   6.115   6.254  3.9393 -3.2348 -0.6313
  898MOL0     H21211   5.330   6.056   6.131  1.5594  1.5931  0.4664
  898MOL0     H21212   5.498   6.931   5.361 -2.6532  0.8291  2.7886
  898MOL0     H21213   5.413   7.114   5.214  1.6717 -0.6255  0.5778
  898MOL0     H21214   5.035   7.240   4.947  1.8964 -3.4764 -1.1893
  898MOL0     H21215   4.957   7.446   4.842  0.0325  1.2787 -1.0787
  898MOL0     H21216   4.468   8.663   3.636  0.5086 -0.5593  0.8541
  898MOL0     H21217   4.369   8.677   3.434  3.1671 -0.1989 -1.2179
  898MOL0     H21218   4.010   8.825   3.113  0.0394 -0.7712 -0.2895
  898MOL0     H21219   3.943   8.868   2.888 -0.5011 -0.7862  0.6423
  898MOL0     H21220   4.216   9.142   2.670 -1.0002 -2.5140  1.6848
  898MOL0     H21221   4.208   9.023   2.531  0.9183  0.4395  0.3879
  898MOL0     H21222   4.126   9.233   2.469 -1.5553  1.8520  0.2320
  898MOL0     H21223   4.036   9.251   2.617  0.1247 -1.7353  1.6444
  898MOL0     H21224   3.880   9.096   2.567 -2.2113  2.1726 -2.0550
  898MOL0     H21225   3.975   9.012   2.440  1.3190 -1.8611  3.2435
  898MOL0     H21226   3.795   9.157   2.344 -1.2258  2.6951  3.1863
  898MOL0     H21227   3.955   9.185   2.269  0.7747  3.3185  0.1174
  898MOL0     H21228   3.822   9.544   2.451  1.1190  1.2932 -3.5962
  898MOL0     H21229   4.346   8.988   2.803 -1.4431  0.1528 -0.8714
  898MOL0     H21230   4.413   8.941   3.013  0.9135 -2.3498 -1.6707
  899MOL0     O21231   8.580   9.772   4.550  0.2015 -0.1728  0.9173
  899MOL0     C21232   8.555   9.874   4.479  0.0898 -0.0086  0.6659
  899MOL0     O21233   8.652   9.940   4.409  0.0463 -0.0573 -0.2498
  899MOL0     C21234   8.784   9.930   4.448  0.4872  0.6829 -0.7512
  899MOL0     C21235   8.865  10.030   4.506 -0.0723  0.4054 -0.4038
  899MOL0     C21236   8.999  10.017   4.523 -0.6532  0.2421 -0.5367
  899MOL0     C21237   9.075   9.905   4.481  0.8982  0.1396 -0.0416
  899MOL0     O21238   9.209   9.881   4.496  0.4379  0.3612  0.7937
  899MOL0     C21239   9.282   9.944   4.600 -0.1382  0.5321 -0.3710
  899MOL0     C21240   9.235   9.910   4.743  0.1463 -0.1507  0.5990
  899MOL0     C21241   9.309   9.989   4.853  0.5550 -0.2568 -0.0697
  899MOL0     C21242   9.220   9.999   4.971 -0.8975 -0.0965 -0.4050
  899MOL0     C21243   9.300  10.087   5.065  0.6616  0.0851 -0.0949
  899MOL0     C21244   9.218  10.107   5.194 -0.6196  0.7650  0.1023
  899MOL0     C21245   9.271  10.232   5.261  0.9987 -0.4493  0.4719
  899MOL0     C21246   9.164  10.266   5.384  0.1753  0.7312  0.6074
  899MOL0     N21247   9.218  10.384   5.462  0.4668 -0.1764  0.7619
  899MOL0     C21248   9.140  10.504   5.460 -0.7139 -0.1069 -0.2535
  899MOL0     C21249   9.188  10.577   5.564 -0.8886  0.2932 -0.3563
  899MOL0     C21250   9.131  10.710   5.612 -0.3713 -0.0744  0.4008
  899MOL0     C21251   9.055  10.693   5.743  0.7015  0.4771  0.4102
  899MOL0     C21252   9.137  10.637   5.860  0.4344  0.9572  0.2452
  899MOL0     C21253   9.253  10.730   5.906  0.0571 -0.4601 -0.1038
  899MOL0     O21254   9.283  10.694   6.049 -0.1119  0.6621 -0.2643
  899MOL0     C21255   9.403  10.720   6.110 -0.0270 -0.8184 -0.3114
  899MOL0     C21256   9.498  10.825   6.068 -1.1759  0.4648 -0.8168
  899MOL0     C21257   9.627  10.832   6.136 -0.3771  0.3350 -0.9290
  899MOL0     C21258   9.730  10.943   6.078  0.4899  0.0934  0.0157
  899MOL0     C21259   9.650  10.746   6.255 -0.2730 -0.7733  0.6647
  899MOL0     C21260   9.777  10.746   6.332 -0.4289 -0.2931  0.0632
  899MOL0     O21261   9.802  10.649   6.435 -0.1783 -0.3591 -0.2093
  899MOL0     C21262   9.868  10.687   6.552 -0.2947 -0.2168 -0.1093
  899MOL0     C21263   9.865  10.815   6.610 -0.8023 -0.6220  0.2031
  899MOL0     C21264   9.920  10.844   6.739 -0.3357 -0.4714  0.3121
  899MOL0     C21265   9.960  10.733   6.820  0.1933 -0.3250  0.5719
  899MOL0     O21266   9.996  10.764   6.951 -0.4257  0.2246  0.5581
  899MOL0     C21267   9.998  10.649   7.036 -0.8573  0.0886 -0.1847
  899MOL0     C21268  10.007  10.682   7.184 -0.3952  0.2229 -0.8896
  899MOL0     C21269  10.118  10.780   7.213 -0.8024 -1.0961 -0.0377
  899MOL0     C21270  10.111  10.840   7.361  0.4547  1.1617 -0.7792
  899MOL0     C21271  10.180  10.972   7.390  0.0729  0.4917  0.3263
  899MOL0     C21272  10.113  11.102   7.334 -0.1222 -0.1361  0.5559
  899MOL0     C21273   9.988  11.137   7.412  0.6959 -0.4062  0.2018
  899MOL0     C21274   9.997  11.136   7.578 -0.1421  0.2433 -0.3263
  899MOL0    Cl21275  10.129  11.258   7.619  0.0306  0.3758 -0.6083
  899MOL0     C21276   9.962  10.607   6.762 -0.0669  0.6462 -0.2558
  899MOL0     C21277   9.912  10.583   6.632 -1.1180 -0.2318 -0.5207
  899MOL0     O21278   9.853  10.827   6.287  0.4028 -0.0443 -0.0134
  899MOL0     C21279   9.553  10.659   6.291  0.6809  0.4777 -0.6844
  899MOL0     C21280   9.439  10.644   6.215 -0.0867 -0.0548 -0.8171
  899MOL0     N21281   9.290  10.506   5.625 -0.2445  0.8961 -0.5640
  899MOL0     N21282   9.305  10.388   5.567 -0.3819 -0.2266  0.3271
  899MOL0     C21283   8.997   9.804   4.411  0.2960  0.2647 -0.6619
  899MOL0     C21284   8.852   9.811   4.410 -0.9611 -0.8504  0.0074
  899MOL0     C21285   8.424   9.916   4.456 -0.0756  0.0301  0.4647
  899MOL0     C21286   8.390   9.980   4.340  0.1572  0.0106 -0.0155
  899MOL0     C21287   8.257  10.022   4.310  0.4912 -0.5233 -0.1371
  899MOL0     C21288   8.162  10.010   4.415  0.1095 -0.2051  0.0862
  899MOL0     O21289   8.034  10.038   4.385  0.2217  0.1105 -0.0378
  899MOL0     C21290   7.936   9.930   4.374  0.2258  0.8892  1.1828
  899MOL0     C21291   7.824   9.940   4.477 -0.4656  0.0349 -0.5612
  899MOL0     C21292   7.748  10.058   4.429 -0.1868 -0.2816  0.0159
  899MOL0     C21293   7.643  10.107   4.530  0.4503  0.1750 -0.3956
  899MOL0     C21294   7.549  10.003   4.570  0.4536 -0.7826  0.6117
  899MOL0     C21295   7.467   9.923   4.616 -0.1590 -0.0934 -1.1315
  899MOL0     C21296   8.195   9.938   4.533 -0.5501 -1.4405 -0.4957
  899MOL0     C21297   8.323   9.893   4.553  0.0207 -0.2642  0.2588
  899MOL0     H21298   8.832  10.125   4.546 -0.5091  0.1609 -0.1731
  899MOL0     H21299   9.064  10.091   4.568 -0.9316  1.4466 -2.0261
  899MOL0     H21300   9.388   9.921   4.607 -0.3174 -0.0676  0.5190
  899MOL0     H21301   9.285  10.050   4.574  0.1810 -0.1964 -3.7550
  899MOL0     H21302   9.127   9.925   4.758 -0.5176 -3.6474  0.2511
  899MOL0     H21303   9.252   9.804   4.765  2.1699  0.0225  0.0295
  899MOL0     H21304   9.409   9.944   4.858  0.5408 -0.8760 -3.2561
  899MOL0     H21305   9.326  10.093   4.825  0.1115 -0.5351 -1.4827
  899MOL0     H21306   9.123  10.043   4.946 -0.2747  0.0570 -2.7550
  899MOL0     H21307   9.206   9.906   5.026  2.2077  1.8073  4.2923
  899MOL0     H21308   9.396  10.036   5.080 -0.2339 -1.9322 -0.9237
  899MOL0     H21309   9.325  10.186   5.024  2.0851 -0.3041 -0.2347
  899MOL0     H21310   9.110  10.113   5.182 -0.7565  2.9034  1.8522
  899MOL0     H21311   9.247  10.016   5.249  1.8470  0.0565 -2.1536
  899MOL0     H21312   9.377  10.219   5.286  1.5503  1.7808 -0.4471
  899MOL0     H21313   9.273  10.316   5.191 -1.5488 -1.9814 -1.6120
  899MOL0     H21314   9.135  10.182   5.447  0.2061 -2.7981 -3.6322
  899MOL0     H21315   9.068  10.290   5.337  1.3672  2.2921 -1.1776
  899MOL0     H21316   9.050  10.520   5.402 -0.6640  1.7202  0.1338
  899MOL0     H21317   9.203  10.789   5.632 -1.0055 -0.6153  6.9046
  899MOL0     H21318   9.054  10.740   5.541  0.5800 -0.5583 -0.8781
  899MOL0     H21319   8.976  10.620   5.724 -0.9795  2.5352 -0.9966
  899MOL0     H21320   9.014  10.788   5.779 -0.3750  0.1715  0.0169
  899MOL0     H21321   9.179  10.537   5.848  1.4507  1.5154 -1.1040
  899MOL0     H21322   9.058  10.630   5.935 -2.4368  1.1153 -2.5449
  899MOL0     H21323   9.215  10.833   5.907  0.7722 -0.1937  0.1133
  899MOL0     H21324   9.338  10.733   5.837 -0.0870  0.5111 -0.2574
  899MOL0     H21325   9.470  10.906   6.002  0.1294  2.3476  0.8046
  899MOL0     H21326   9.716  10.974   5.974  3.3588  0.3579 -0.3744
  899MOL0     H21327   9.726  11.029   6.146  1.2695 -1.1986  1.7858
  899MOL0     H21328   9.832  10.903   6.085  0.5491  0.0782 -0.8523
  899MOL0     H21329   9.839  10.897   6.544  1.3040  0.0814  0.2131
  899MOL0     H21330   9.911  10.940   6.790  0.4513 -1.8456  3.2686
  899MOL0     H21331   9.909  10.591   7.009  1.1476 -2.9613 -0.6298
  899MOL0     H21332  10.076  10.576   7.013 -0.9283 -0.1952  0.4722
  899MOL0     H21333   9.907  10.715   7.212 -0.7845 -0.4199 -1.4720
  899MOL0     H21334  10.039  10.592   7.239 -0.4050  0.5449 -0.3511
  899MOL0     H21335  10.103  10.866   7.147  1.6067 -0.5800 -0.0287
  899MOL0     H21336  10.219  10.738   7.200  0.1764  0.8115  1.0114
  899MOL0     H21337  10.006  10.845   7.395  1.0139  2.7889  0.8735
  899MOL0     H21338  10.154  10.762   7.425 -3.8780 -1.0272 -0.1470
  899MOL0     H21339  10.282  10.971   7.351  0.5207  4.5517  0.9898
  899MOL0     H21340  10.197  10.991   7.496  5.1131  0.1798 -0.1949
  899MOL0     H21341  10.193  11.175   7.347 -0.0531 -0.2247  0.6359
  899MOL0     H21342  10.092  11.093   7.227 -3.4322 -0.0180  1.0710
  899MOL0     H21343   9.892  11.089   7.390  0.1148  1.4047 -1.4428
  899MOL0     H21344   9.951  11.238   7.390  0.3857 -0.2607  1.3024
  899MOL0     H21345  10.028  11.033   7.599  0.0713 -0.2998 -2.9861
  899MOL0     H21346   9.899  11.159   7.620  0.1241 -0.7222  0.8640
  899MOL0     H21347   9.995  10.527   6.827  0.5716  3.3106  3.0147
  899MOL0     H21348   9.912  10.480   6.597  2.8312 -1.1170  1.4529
  899MOL0     H21349   9.572  10.616   6.388  2.4590 -2.7197 -2.3084
  899MOL0     H21350   9.390  10.551   6.238  1.4511 -0.3773  1.4442
  899MOL0     H21351   9.045   9.716   4.370 -1.7930 -1.4647  0.4579
  899MOL0     H21352   8.799   9.740   4.348 -0.7876  1.3561 -2.8847
  899MOL0     H21353   8.470   9.990   4.267  2.1524 -0.6892  1.9665
  899MOL0     H21354   8.234  10.066   4.214 -0.3675  0.2537  0.4066
  899MOL0     H21355   7.894   9.935   4.273  0.2665 -3.5144  0.7911
  899MOL0     H21356   7.977   9.829   4.382  0.7985  0.8980 -0.9706
  899MOL0     H21357   7.862   9.956   4.578 -2.1038  1.5970 -0.1441
  899MOL0     H21358   7.772   9.843   4.474  3.1425 -2.3630  3.3695
  899MOL0     H21359   7.703  10.041   4.331  1.5533 -0.0045 -0.8791
  899MOL0     H21360   7.816  10.143   4.412 -1.7826  0.3192 -5.0765
  899MOL0     H21361   7.576  10.184   4.491 -1.3740 -1.3031 -0.3164
  899MOL0     H21362   7.686  10.141   4.624  1.6326 -3.0146  0.3651
  899MOL0     H21363   7.403   9.850   4.659  1.0658 -2.4305 -3.0435
  899MOL0     H21364   8.117   9.913   4.603  0.0040 -5.1058 -0.9514
  899MOL0     H21365   8.354   9.836   4.640  3.1582  0.8041 -0.0070
  900MOL0     O21366   9.092   9.574   1.189 -1.3311 -0.0313  0.5119
  900MOL0     C21367   9.139   9.464   1.211  1.0367 -0.0256 -0.5618
  900MOL0     O21368   9.137   9.359   1.118 -0.3638  0.5655  0.5152
  900MOL0     C21369   9.051   9.368   1.006 -0.1982  0.4478 -0.6077
  900MOL0     C21370   9.078   9.462   0.908  0.5853  0.7588 -0.0681
  900MOL0     C21371   9.008   9.461   0.791 -0.2190  0.1145  1.1280
  900MOL0     C21372   8.907   9.367   0.767 -0.4501 -0.0089 -0.1936
  900MOL0     O21373   8.828   9.362   0.660  0.7130 -0.3033  0.0421
  900MOL0     C21374   8.821   9.474   0.576 -0.4364  0.1120  0.7195
  900MOL0     C21375   8.699   9.484   0.480 -0.7450  0.0772 -0.6427
  900MOL0     C21376   8.702   9.355   0.385  0.9386 -0.0328 -0.7905
  900MOL0     C21377   8.628   9.230   0.437  0.8714 -0.3979  0.0691
  900MOL0     C21378   8.482   9.255   0.476  0.5241  0.7381 -0.0399
  900MOL0     C21379   8.368   9.179   0.397 -0.7458 -0.5241  0.6676
  900MOL0     C21380   8.344   9.224   0.251 -0.6295  0.1117 -0.8705
  900MOL0     C21381   8.228   9.154   0.183  0.8161  0.3993  0.3462
  900MOL0     N21382   8.214   9.188   0.038 -0.9913 -0.4362  0.6083
  900MOL0     C21383   8.258   9.311  -0.023 -0.3443  0.0667  0.0365
  900MOL0     C21384   8.229   9.298  -0.155 -0.3274 -0.9196  0.3126
  900MOL0     C21385   8.275   9.400  -0.257 -0.0832  0.3171 -0.7019
  900MOL0     C21386   8.422   9.437  -0.239 -0.2068  0.3572  0.2524
  900MOL0     C21387   8.528   9.325  -0.250 -0.2376 -0.2891 -0.1920
  900MOL0     C21388   8.664   9.372  -0.283 -0.0194 -0.8362  0.1755
  900MOL0     O21389   8.713   9.463  -0.183 -0.9996 -0.0997 -0.9917
  900MOL0     C21390   8.814   9.556  -0.216 -0.4730  0.0084  0.1413
  900MOL0     C21391   8.826   9.667  -0.133  0.3053  1.1170 -0.4054
  900MOL0     C21392   8.922   9.772  -0.164 -0.4302 -0.5054 -0.1540
  900MOL0     C21393   8.930   9.897  -0.076  0.4872  0.2909 -0.4520
  900MOL0     C21394   9.003   9.763  -0.278 -1.0261  0.7871  0.3562
  900MOL0     C21395   9.109   9.854  -0.324 -0.3145 -0.2428  0.3431
  900MOL0     O21396   9.188   9.810  -0.428 -0.1836  0.2952 -0.8073
  900MOL0     C21397   9.277   9.893  -0.499 -0.5241  0.5248  0.4607
  900MOL0     C21398   9.262  10.031  -0.535 -0.1950 -0.9225 -0.2883
  900MOL0     C21399   9.367  10.107  -0.598 -0.3976  0.9409 -0.2811
  900MOL0     C21400   9.488  10.040  -0.623  0.0449  0.3609  0.9880
  900MOL0     O21401   9.594  10.101  -0.689  0.2849 -0.0121 -0.1115
  900MOL0     C21402   9.612  10.243  -0.682  0.2773  0.8873  0.5124
  900MOL0     C21403   9.660  10.277  -0.541  0.2118  0.0147 -0.1281
  900MOL0     C21404   9.702  10.422  -0.543  0.3763  0.4114 -0.9043
  900MOL0     C21405   9.776  10.463  -0.417  0.3191 -0.0037 -0.0234
  900MOL0     C21406   9.878  10.575  -0.424 -0.0946  0.4413  0.3180
  900MOL0     C21407   9.813  10.705  -0.470 -0.3324 -0.8698  0.0605
  900MOL0     C21408   9.910  10.824  -0.450  0.5338 -0.1378 -0.0008
  900MOL0     C21409  10.034  10.807  -0.538 -0.3822 -0.4365 -0.5077
  900MOL0    Cl21410  10.168  10.884  -0.456  0.2713  0.0428  0.3397
  900MOL0     C21411   9.484   9.900  -0.611 -0.3171 -0.7060 -0.6870
  900MOL0     C21412   9.391   9.834  -0.534  0.4268  0.6544 -0.1715
  900MOL0     O21413   9.124   9.961  -0.268  0.2997  0.1143 -0.4703
  900MOL0     C21414   8.991   9.651  -0.356 -0.6808 -0.4255 -0.6788
  900MOL0     C21415   8.903   9.545  -0.324 -0.8712 -0.2787  1.1695
  900MOL0     N21416   8.168   9.177  -0.168  0.3492 -1.1930 -0.7907
  900MOL0     N21417   8.154   9.114  -0.056 -0.4984  0.5726 -0.1732
  900MOL0     C21418   8.874   9.273   0.862 -0.4001  0.0306 -1.4875
  900MOL0     C21419   8.953   9.269   0.980  0.1989  0.2152 -0.2969
  900MOL0     C21420   9.203   9.440   1.338  0.6270 -0.5647  0.2694
  900MOL0     C21421   9.245   9.311   1.388  1.4332  0.2685 -0.6288
  900MOL0     C21422   9.297   9.298   1.510  1.0495  0.1009 -0.0468
  900MOL0     C21423   9.312   9.404   1.592 -0.7344 -0.1047 -1.0221
  900MOL0     O21424   9.385   9.381   1.720  0.1978 -0.3831  0.2090
  900MOL0     C21425   9.357   9.459   1.840  0.4113 -0.0391  0.1576
  900MOL0     C21426   9.399   9.364   1.951  0.7922 -0.5303 -0.6109
  900MOL0     C21427   9.372   9.443   2.085 -0.4752  0.9849 -0.3765
  900MOL0     C21428   9.233   9.406   2.146  0.3077  0.7031 -0.9127
  900MOL0     C21429   9.231   9.443   2.293  0.2472 -0.7852  0.8831
  900MOL0     C21430   9.238   9.492   2.407  0.3759 -0.5030  0.3830
  900MOL0     C21431   9.281   9.529   1.549  0.4827  0.8973  0.0578
  900MOL0     C21432   9.225   9.550   1.428  0.4421  0.5395  0.1005
  900MOL0     H21433   9.167   9.522   0.926 -0.0628  1.3533  1.2757
  900MOL0     H21434   9.046   9.540   0.727 -0.1505  0.4994  1.6377
  900MOL0     H21435   8.813   9.561   0.642 -2.9879  0.0533  0.5698
  900MOL0     H21436   8.912   9.497   0.519  0.0330  0.9573  1.7716
  900MOL0     H21437   8.609   9.487   0.541  1.5422 -1.4788  3.2107
  900MOL0     H21438   8.699   9.575   0.420  2.0319  1.0751  0.6742
  900MOL0     H21439   8.656   9.381   0.290  3.5675  0.1849 -2.1071
  900MOL0     H21440   8.805   9.323   0.365  1.1892  0.8859 -1.0081
  900MOL0     H21441   8.652   9.151   0.366  4.2086  0.4636  0.0540
  900MOL0     H21442   8.679   9.208   0.532  0.7637 -0.3546  0.1366
  900MOL0     H21443   8.477   9.233   0.583  4.1953  0.4949  0.1931
  900MOL0     H21444   8.465   9.363   0.483 -0.7923  0.4933  1.0196
  900MOL0     H21445   8.382   9.071   0.392 -0.3832 -0.4833  0.7268
  900MOL0     H21446   8.277   9.190   0.456 -0.0680 -3.4541  2.4309
  900MOL0     H21447   8.316   9.329   0.238 -0.7747  0.1150 -0.5426
  900MOL0     H21448   8.443   9.207   0.208  1.7564 -2.4284  4.6740
  900MOL0     H21449   8.141   9.193   0.238  0.1925 -0.1392 -0.2394
  900MOL0     H21450   8.238   9.046   0.192 -0.0776  0.3419  0.7327
  900MOL0     H21451   8.306   9.398   0.018 -0.5210 -1.2528  3.3048
  900MOL0     H21452   8.253   9.373  -0.361  4.3551 -0.7242 -1.5840
  900MOL0     H21453   8.212   9.486  -0.230 -0.3598 -0.3540  0.9066
  900MOL0     H21454   8.434   9.494  -0.146 -0.6731 -0.2592  0.6963
  900MOL0     H21455   8.444   9.504  -0.323  1.2267  0.2449  0.5075
  900MOL0     H21456   8.504   9.246  -0.322 -1.4849  1.3491 -1.6458
  900MOL0     H21457   8.532   9.270  -0.155 -0.3281 -4.7540 -2.5194
  900MOL0     H21458   8.669   9.396  -0.390 -0.7631 -0.3873  0.2342
  900MOL0     H21459   8.735   9.289  -0.276  2.8916  1.3631 -0.7935
  900MOL0     H21460   8.754   9.673  -0.052 -0.5966  2.0607 -1.2384
  900MOL0     H21461   8.885   9.870   0.020  0.8403  0.6255 -0.1899
  900MOL0     H21462   9.028   9.934  -0.045 -0.7148  3.0415  0.3846
  900MOL0     H21463   8.880   9.976  -0.133  0.7243 -0.6832 -2.0641
  900MOL0     H21464   9.173  10.079  -0.496 -0.3373 -0.0857 -1.5681
  900MOL0     H21465   9.353  10.208  -0.634  0.3760  1.1839  0.0713
  900MOL0     H21466   9.699  10.260  -0.747  1.7852 -0.0704  2.1929
  900MOL0     H21467   9.531  10.304  -0.723 -0.6936 -0.5215  0.2596
  900MOL0     H21468   9.581  10.263  -0.467 -0.5881  0.7162 -0.8329
  900MOL0     H21469   9.748  10.215  -0.519 -1.1007 -0.9905  2.7786
  900MOL0     H21470   9.622  10.493  -0.564  0.8791  2.0970  2.3322
  900MOL0     H21471   9.781  10.426  -0.618  3.3377 -1.0967  1.8769
  900MOL0     H21472   9.705  10.500  -0.343  2.6876 -0.1730  2.4842
  900MOL0     H21473   9.826  10.377  -0.371 -0.4110  0.6332  2.0767
  900MOL0     H21474   9.954  10.543  -0.497  0.4827 -0.3524  1.2417
  900MOL0     H21475   9.942  10.591  -0.337  1.2191 -0.6330 -0.4011
  900MOL0     H21476   9.800  10.701  -0.578 -0.1758  1.8952 -0.1111
  900MOL0     H21477   9.722  10.728  -0.415  1.7440  0.4045  3.2654
  900MOL0     H21478   9.933  10.838  -0.344 -0.5545 -3.8971  0.8837
  900MOL0     H21479   9.861  10.921  -0.461  1.0827  0.2199  0.6410
  900MOL0     H21480  10.015  10.861  -0.631 -4.0678  0.4926  0.6402
  900MOL0     H21481  10.067  10.704  -0.552  3.1531  0.8166 -2.7957
  900MOL0     H21482   9.569   9.845  -0.649  2.1741  2.0627  0.5036
  900MOL0     H21483   9.394   9.732  -0.495 -1.1238  0.3502 -0.7936
  900MOL0     H21484   9.036   9.620  -0.450  0.2378  3.7164 -1.8273
  900MOL0     H21485   8.895   9.457  -0.387 -1.4028  1.7640 -1.8742
  900MOL0     H21486   8.791   9.206   0.843 -1.1348  0.6767 -0.6686
  900MOL0     H21487   8.933   9.204   1.064  0.9191 -0.8374 -0.9179
  900MOL0     H21488   9.221   9.217   1.339 -3.0661  0.7282  0.2562
  900MOL0     H21489   9.312   9.197   1.547 -0.7663 -0.7763 -1.5362
  900MOL0     H21490   9.438   9.533   1.838 -0.1243  0.5528 -0.5132
  900MOL0     H21491   9.257   9.504   1.843  0.8511  1.0687 -0.8868
  900MOL0     H21492   9.504   9.335   1.937  1.5155 -0.2122  3.1762
  900MOL0     H21493   9.337   9.274   1.952 -3.8262  2.3449 -0.0233
  900MOL0     H21494   9.379   9.552   2.080  1.9787  0.8981  0.3250
  900MOL0     H21495   9.448   9.411   2.156 -1.1656  0.1450  0.0097
  900MOL0     H21496   9.200   9.304   2.125 -1.7354  1.6412 -2.6761
  900MOL0     H21497   9.152   9.463   2.099 -1.8436  0.4369  2.1717
  900MOL0     H21498   9.241   9.564   2.486  1.6191  0.0367 -0.1200
  900MOL0     H21499   9.308   9.622   1.597  2.1226  0.3650  0.2086
  900MOL0     H21500   9.196   9.651   1.403  0.9329  0.2735 -1.6657
  901MOL0     O21501  10.398  11.333   3.763 -0.4525  0.0035 -0.0752
  901MOL0     C21502  10.510  11.351   3.712  1.0045 -0.5152 -0.5645
  901MOL0     O21503  10.533  11.363   3.579 -0.2910  0.0470  0.1502
  901MOL0     C21504  10.431  11.369   3.494 -0.4426  0.9790  0.1112
  901MOL0     C21505  10.372  11.253   3.452 -0.6910 -0.2326  0.3991
  901MOL0     C21506  10.273  11.265   3.359 -0.7125  0.3132  0.0005
  901MOL0     C21507  10.246  11.376   3.287  0.3518 -0.3898 -0.4330
  901MOL0     O21508  10.159  11.382   3.181  0.5784 -0.2794 -0.1111
  901MOL0     C21509  10.207  11.389   3.042  0.4149  0.1168  0.1609
  901MOL0     C21510  10.141  11.507   2.977  1.4908  0.3490  0.2190
  901MOL0     C21511  10.180  11.482   2.823 -0.5813 -0.6017 -0.0032
  901MOL0     C21512  10.149  11.597   2.718 -0.2583  0.1487 -0.2806
  901MOL0     C21513  10.212  11.582   2.582  0.3561  0.1852 -0.7084
  901MOL0     C21514  10.205  11.433   2.530 -0.2282  0.2149  0.3441
  901MOL0     C21515  10.275  11.426   2.398 -0.2521  0.0572  0.0467
  901MOL0     C21516  10.306  11.284   2.347  0.5475  0.1179 -0.0692
  901MOL0     N21517  10.409  11.294   2.245  0.9035  0.4988 -0.0378
  901MOL0     C21518  10.549  11.297   2.257 -0.0182 -0.6486 -0.6217
  901MOL0     C21519  10.593  11.339   2.135 -1.3460 -0.3562  0.3874
  901MOL0     C21520  10.731  11.360   2.073 -0.4092  0.3389  0.6920
  901MOL0     C21521  10.842  11.347   2.181  0.3580  0.0124 -0.7735
  901MOL0     C21522  10.860  11.200   2.218  1.2149 -0.0144 -0.4294
  901MOL0     C21523  10.911  11.190   2.363  0.3871  0.0765  0.9163
  901MOL0     O21524  11.043  11.241   2.363  0.0513  0.2637 -0.0296
  901MOL0     C21525  11.091  11.252   2.487 -0.5683  0.4921 -0.2100
  901MOL0     C21526  11.126  11.144   2.565 -0.2450  0.3163  0.1606
  901MOL0     C21527  11.196  11.162   2.691 -0.1248 -0.2591  0.0989
  901MOL0     C21528  11.235  11.038   2.759  0.4992  0.1639  0.2336
  901MOL0     C21529  11.235  11.292   2.734 -1.4079  0.0263  0.4441
  901MOL0     C21530  11.324  11.320   2.853 -0.1686 -0.4563  0.6522
  901MOL0     O21531  11.331  11.454   2.881 -0.7778 -0.4608 -0.5497
  901MOL0     C21532  11.448  11.496   2.947  0.5632 -1.0757  1.0366
  901MOL0     C21533  11.419  11.606   3.038 -0.5235  0.7772  0.0906
  901MOL0     C21534  11.523  11.665   3.103 -1.0275 -0.1274 -1.4210
  901MOL0     C21535  11.654  11.609   3.099  0.0362 -0.7131 -0.9231
  901MOL0     O21536  11.752  11.668   3.168  0.0165  0.0921  0.1115
  901MOL0     C21537  11.855  11.594   3.221  0.2874  0.4874  0.1632
  901MOL0     C21538  11.982  11.682   3.206 -0.0452  1.1059 -0.7919
  901MOL0     C21539  11.956  11.821   3.272  0.0261 -0.5430  1.0243
  901MOL0     C21540  12.087  11.901   3.288  0.1094 -0.2776  0.5269
  901MOL0     C21541  12.079  12.044   3.359  0.7348  0.4454 -0.4793
  901MOL0     C21542  11.980  12.138   3.288 -0.0106  0.1337 -0.4305
  901MOL0     C21543  12.014  12.183   3.145 -0.5543  1.1628  0.5967
  901MOL0     C21544  12.151  12.260   3.124  0.0412  0.2901 -0.6882
  901MOL0    Cl21545  12.146  12.433   3.186  0.4024 -0.1907  0.3244
  901MOL0     C21546  11.682  11.511   2.995  0.1108  0.0069  0.8760
  901MOL0     C21547  11.580  11.458   2.914 -0.1732 -0.2186 -0.0445
  901MOL0     O21548  11.371  11.233   2.923  0.4838 -0.2061 -0.8089
  901MOL0     C21549  11.195  11.397   2.650  0.6673  1.0548 -0.4379
  901MOL0     C21550  11.127  11.376   2.529 -0.1814 -0.8439  0.3004
  901MOL0     N21551  10.480  11.354   2.056 -0.1171 -0.3408 -0.0662
  901MOL0     N21552  10.373  11.325   2.119 -0.0667 -0.7915 -0.6154
  901MOL0     C21553  10.299  11.489   3.333 -1.0736 -0.0400  0.0518
  901MOL0     C21554  10.397  11.489   3.431 -0.2575 -0.8782  0.5193
  901MOL0     C21555  10.626  11.376   3.795  0.1673  1.0718  0.0230
  901MOL0     C21556  10.639  11.305   3.911 -0.2032 -1.3238 -0.6243
  901MOL0     C21557  10.759  11.305   3.992 -0.2141 -0.2637  0.2085
  901MOL0     C21558  10.868  11.374   3.946 -0.0468 -0.3965 -0.3942
  901MOL0     O21559  10.988  11.364   4.016  0.8981 -0.1707  0.1411
  901MOL0     C21560  11.063  11.254   3.976  0.0567 -0.2879  0.8552
  901MOL0     C21561  11.141  11.203   4.102 -0.2377 -0.5199  0.1334
  901MOL0     C21562  11.258  11.286   4.149  0.3778 -0.4847 -0.0695
  901MOL0     C21563  11.221  11.431   4.172 -0.9083  0.1679 -0.3550
  901MOL0     C21564  11.300  11.486   4.279  0.2295 -0.2057  0.1961
  901MOL0     C21565  11.368  11.528   4.376 -0.3974 -0.5913  0.4589
  901MOL0     C21566  10.862  11.459   3.839  0.4969  0.0142  0.3244
  901MOL0     C21567  10.744  11.452   3.757 -0.5332  0.3162  0.3057
  901MOL0     H21568  10.408  11.172   3.514  2.3150  3.0077  3.4099
  901MOL0     H21569  10.222  11.173   3.331  0.1363 -0.4315  0.8148
  901MOL0     H21570  10.315  11.402   3.028  0.0129  1.2677 -2.2779
  901MOL0     H21571  10.177  11.295   2.996  0.2525 -0.2126  0.9228
  901MOL0     H21572  10.032  11.499   2.987  1.4017  0.5521 -0.5292
  901MOL0     H21573  10.173  11.595   3.033 -0.3736  1.1406  0.1148
  901MOL0     H21574  10.290  11.484   2.824 -0.4942  3.3693  2.0235
  901MOL0     H21575  10.155  11.380   2.795  0.0017 -0.8580  0.3703
  901MOL0     H21576  10.043  11.623   2.706 -0.2432  1.9779  2.5894
  901MOL0     H21577  10.184  11.692   2.761  1.0478 -0.6630  0.5189
  901MOL0     H21578  10.150  11.638   2.512  0.4904 -1.7944 -2.5263
  901MOL0     H21579  10.313  11.623   2.588 -0.3817  2.0184 -0.1277
  901MOL0     H21580  10.254  11.360   2.596  0.6956  0.6913  0.2097
  901MOL0     H21581  10.104  11.396   2.515  0.0889 -1.0013  1.0952
  901MOL0     H21582  10.219  11.485   2.324 -1.0264 -0.2368  0.3935
  901MOL0     H21583  10.377  11.461   2.419  1.5225 -3.2340 -2.1203
  901MOL0     H21584  10.214  11.253   2.296  0.2458  1.8352 -0.6260
  901MOL0     H21585  10.323  11.213   2.428 -0.3173 -0.4457 -0.3715
  901MOL0     H21586  10.608  11.262   2.341  0.4443 -2.1433 -1.5270
  901MOL0     H21587  10.750  11.295   1.986 -5.4386  0.4673 -0.7978
  901MOL0     H21588  10.738  11.462   2.034  1.5815 -0.7946 -2.3231
  901MOL0     H21589  10.821  11.409   2.268  1.2201  0.3315 -0.7839
  901MOL0     H21590  10.932  11.390   2.136 -0.5202  2.2209 -0.5492
  901MOL0     H21591  10.923  11.146   2.147  0.4795 -2.6205  0.7743
  901MOL0     H21592  10.765  11.146   2.215  0.0849  1.8784 -1.9018
  901MOL0     H21593  10.895  11.086   2.395  1.3487 -2.1963 -4.6914
  901MOL0     H21594  10.860  11.258   2.432  0.9703  0.4270  1.0079
  901MOL0     H21595  11.095  11.047   2.528  0.2796 -0.2087  1.0597
  901MOL0     H21596  11.196  10.956   2.699  0.6841  0.0392  0.2819
  901MOL0     H21597  11.342  11.013   2.768  0.4108  0.2065  1.6348
  901MOL0     H21598  11.186  11.031   2.856 -1.4204  0.5504 -0.6522
  901MOL0     H21599  11.320  11.649   3.044 -2.3821 -2.7195 -2.2011
  901MOL0     H21600  11.501  11.747   3.171  1.6150  1.1810 -2.0199
  901MOL0     H21601  11.841  11.587   3.330 -0.4814 -2.1493 -0.0421
  901MOL0     H21602  11.864  11.496   3.174  1.4108  0.7622 -0.2149
  901MOL0     H21603  12.071  11.632   3.244 -0.6364 -0.7765 -1.7462
  901MOL0     H21604  11.997  11.676   3.097 -4.3567 -0.4783 -1.5208
  901MOL0     H21605  11.904  11.811   3.368 -0.1852 -2.1318  0.7776
  901MOL0     H21606  11.896  11.886   3.208 -0.4446 -2.5844 -0.7056
  901MOL0     H21607  12.159  11.839   3.343  0.8281  2.0153  2.3063
  901MOL0     H21608  12.138  11.933   3.197 -2.7106 -0.8853 -1.3715
  901MOL0     H21609  12.180  12.080   3.338  0.9454 -0.9947 -2.1454
  901MOL0     H21610  12.054  12.032   3.465  3.0970 -2.6368 -0.1248
  901MOL0     H21611  11.875  12.107   3.293 -0.7856  2.6490  1.0649
  901MOL0     H21612  11.992  12.224   3.356  0.1134 -0.4607  0.3163
  901MOL0     H21613  11.935  12.248   3.107  0.7616  3.1101  1.0409
  901MOL0     H21614  12.022  12.092   3.084  1.4438  0.2981  2.0468
  901MOL0     H21615  12.166  12.264   3.016  2.0347  1.7800 -0.4093
  901MOL0     H21616  12.235  12.200   3.160 -0.3217 -0.1164 -0.5154
  901MOL0     H21617  11.782  11.476   2.974  0.2289  0.8047 -0.0256
  901MOL0     H21618  11.610  11.377   2.848  1.7866 -0.4237  1.0296
  901MOL0     H21619  11.208  11.501   2.681 -2.5655  0.7982  2.3037
  901MOL0     H21620  11.082  11.448   2.461 -2.7838 -0.3042  2.4153
  901MOL0     H21621  10.284  11.573   3.267  0.6703 -1.4506 -2.3118
  901MOL0     H21622  10.441  11.587   3.446  0.1595 -0.3267 -3.3777
  901MOL0     H21623  10.552  11.244   3.935  0.7072 -2.1906  0.5707
  901MOL0     H21624  10.757  11.225   4.065  3.9744  0.3963  1.2449
  901MOL0     H21625  11.007  11.169   3.935  2.1071 -1.2980 -0.0250
  901MOL0     H21626  11.133  11.267   3.893 -1.1554 -2.4930 -0.6246
  901MOL0     H21627  11.177  11.107   4.063 -1.0186 -0.5216 -0.6320
  901MOL0     H21628  11.069  11.180   4.181 -1.9857 -0.1368 -1.2766
  901MOL0     H21629  11.343  11.274   4.081 -0.0717 -1.9756 -0.4086
  901MOL0     H21630  11.288  11.234   4.241 -0.2097 -0.4004  0.1729
  901MOL0     H21631  11.114  11.445   4.195 -2.1524 -0.5935 -4.7361
  901MOL0     H21632  11.248  11.483   4.080 -3.2172  0.9874 -0.6569
  901MOL0     H21633  11.424  11.575   4.455  0.5211 -0.9408  0.0264
  901MOL0     H21634  10.952  11.511   3.809  0.1892 -1.4122 -3.6831
  901MOL0     H21635  10.729  11.504   3.664 -0.0280  1.1513  0.6817
  902MOL0     O21636   7.866   9.244   8.158 -0.6872  0.4240  0.0082
  902MOL0     C21637   7.823   9.145   8.098 -0.0815 -0.9603  0.1012
  902MOL0     O21638   7.692   9.101   8.087 -0.1251  0.0491  0.0816
  902MOL0     C21639   7.604   9.170   8.163  0.9106 -0.1440  0.2859
  902MOL0     C21640   7.520   9.100   8.250  0.0193 -0.1233 -0.3214
  902MOL0     C21641   7.422   9.167   8.330  0.4950  0.2940 -0.4170
  902MOL0     C21642   7.412   9.306   8.327  0.1021 -0.1442 -0.2828
  902MOL0     O21643   7.329   9.359   8.423  0.5664 -1.2075  0.3463
  902MOL0     C21644   7.294   9.497   8.434 -0.3847  0.4606 -0.6331
  902MOL0     C21645   7.243   9.567   8.309  0.6795 -0.4162 -0.2155
  902MOL0     C21646   7.300   9.708   8.289 -0.2567  0.0557  0.4924
  902MOL0     C21647   7.242   9.767   8.159 -0.7620  0.1495 -0.3632
  902MOL0     C21648   7.294   9.912   8.148  1.3722  0.8840 -0.3149
  902MOL0     C21649   7.215   9.978   8.029 -0.4880  0.6917  0.1994
  902MOL0     C21650   7.289   9.956   7.903 -0.2207 -0.5485  0.8068
  902MOL0     C21651   7.203  10.016   7.794 -0.2735  0.4678  0.6158
  902MOL0     N21652   7.237   9.942   7.676 -0.1324 -0.5798 -0.7465
  902MOL0     C21653   7.356   9.942   7.606 -0.6778  0.4996 -0.5070
  902MOL0     C21654   7.347   9.850   7.512  0.8394  0.1735 -0.3918
  902MOL0     C21655   7.456   9.821   7.414  0.0585  0.0133 -0.5668
  902MOL0     C21656   7.384   9.763   7.290  0.2088 -0.2865 -0.6097
  902MOL0     C21657   7.496   9.745   7.176 -0.3232 -0.4171  0.0555
  902MOL0     C21658   7.466   9.672   7.047  0.3353  0.2200 -0.0607
  902MOL0     O21659   7.575   9.650   6.961  0.2091  0.0050  0.9039
  902MOL0     C21660   7.667   9.559   7.005  0.1412  0.2215  0.4593
  902MOL0     C21661   7.648   9.451   7.091 -0.2107  0.5166 -0.0284
  902MOL0     C21662   7.746   9.351   7.126  0.1322  0.2372  0.5989
  902MOL0     C21663   7.706   9.232   7.218  0.4900 -0.0333  0.9829
  902MOL0     C21664   7.869   9.373   7.055  0.5315 -0.1339  0.0447
  902MOL0     C21665   7.989   9.275   7.064  0.3856  0.2327  0.2352
  902MOL0     O21666   8.115   9.313   7.010  0.9408  0.3302 -0.2195
  902MOL0     C21667   8.225   9.238   7.061  0.4652  0.0092  0.1888
  902MOL0     C21668   8.287   9.274   7.175  0.5606 -0.7629  0.5795
  902MOL0     C21669   8.409   9.214   7.212  0.4927 -0.1487  0.9610
  902MOL0     C21670   8.461   9.109   7.136 -1.4082  0.0643 -1.0271
  902MOL0     O21671   8.581   9.058   7.182  0.4673 -0.0625 -0.0498
  902MOL0     C21672   8.656   8.995   7.086  0.0235 -0.2933  1.2971
  902MOL0     C21673   8.798   8.969   7.131  1.1472  0.1979  0.2352
  902MOL0     C21674   8.865   9.104   7.127 -0.6843  1.4326 -0.3938
  902MOL0     C21675   8.990   9.096   7.216 -0.2290 -0.7582  0.6919
  902MOL0     C21676   9.080   9.221   7.206  0.4257 -0.8650  0.5991
  902MOL0     C21677   9.223   9.215   7.265  0.1254 -0.7007 -0.8528
  902MOL0     C21678   9.317   9.116   7.206 -0.4387 -0.8996  0.1112
  902MOL0     C21679   9.432   9.082   7.297 -0.8107 -0.8641 -0.2677
  902MOL0    Cl21680   9.372   9.023   7.457  0.2070 -0.0259  0.0821
  902MOL0     C21681   8.383   9.062   7.028 -0.3745  0.5468 -1.4480
  902MOL0     C21682   8.267   9.130   6.990  0.0762  1.0270  1.0687
  902MOL0     O21683   7.958   9.156   7.075  0.4069 -0.7259  0.0896
  902MOL0     C21684   7.885   9.482   6.976 -0.1709  0.1784  0.2301
  902MOL0     C21685   7.794   9.580   6.960  0.3917 -0.4571  0.0270
  902MOL0     N21686   7.217   9.803   7.511 -1.0176 -0.5217 -0.4693
  902MOL0     N21687   7.152   9.864   7.602  0.8080 -0.0354  0.3398
  902MOL0     C21688   7.496   9.377   8.241 -0.1058 -0.5176 -0.7102
  902MOL0     C21689   7.581   9.308   8.146  1.0827  0.3690  0.4918
  902MOL0     C21690   7.932   9.037   8.082  0.4366  0.3931  0.8798
  902MOL0     C21691   8.069   9.077   8.096 -0.3365  1.3617 -0.3076
  902MOL0     C21692   8.160   8.968   8.075 -0.0320 -0.9667  0.0858
  902MOL0     C21693   8.127   8.847   8.027  0.6760  0.6929  0.0594
  902MOL0     O21694   8.235   8.764   7.996  0.2699 -0.2843  0.2030
  902MOL0     C21695   8.227   8.634   8.052  1.0497  0.4521 -0.2277
  902MOL0     C21696   8.235   8.530   7.938  0.5376  0.2747 -0.0435
  902MOL0     C21697   8.358   8.538   7.842 -0.5787 -0.8273  0.4064
  902MOL0     C21698   8.369   8.409   7.762 -0.6007 -0.3809 -0.2031
  902MOL0     C21699   8.256   8.379   7.674 -1.3691 -0.0692  0.6706
  902MOL0     C21700   8.156   8.363   7.614  0.5900  0.1432 -0.8225
  902MOL0     C21701   7.991   8.811   8.011  0.1638  0.2122 -0.4253
  902MOL0     C21702   7.893   8.907   8.050  0.1967 -0.0327  0.5000
  902MOL0     H21703   7.535   8.993   8.247 -2.8196 -0.5715 -2.4657
  902MOL0     H21704   7.362   9.110   8.400  2.0066 -1.9349 -0.8495
  902MOL0     H21705   7.215   9.492   8.509  1.9071 -1.7277  1.8288
  902MOL0     H21706   7.382   9.549   8.472 -0.1740 -1.0416  1.0539
  902MOL0     H21707   7.271   9.511   8.220 -3.9142 -1.2720 -1.3988
  902MOL0     H21708   7.135   9.562   8.295  0.5278  1.6155 -0.0219
  902MOL0     H21709   7.272   9.761   8.381 -3.5972 -1.2798  0.3978
  902MOL0     H21710   7.409   9.708   8.285 -0.2545  0.6154  0.5124
  902MOL0     H21711   7.290   9.717   8.074  0.5035 -1.4203  1.1938
  902MOL0     H21712   7.133   9.759   8.171 -0.5651  1.4170  4.4694
  902MOL0     H21713   7.263   9.966   8.238  0.8408  0.2171 -0.0940
  902MOL0     H21714   7.402   9.927   8.158  1.4916 -0.3213  0.3162
  902MOL0     H21715   7.108   9.956   8.023 -0.4166  0.3173  0.2651
  902MOL0     H21716   7.220  10.084   8.055 -1.7478  0.5073  1.3384
  902MOL0     H21717   7.387  10.005   7.907 -1.2350  1.5878  0.7285
  902MOL0     H21718   7.313   9.852   7.878 -2.6286 -0.8494 -0.5387
  902MOL0     H21719   7.221  10.122   7.774 -1.8706  0.8286  0.9805
  902MOL0     H21720   7.097   9.997   7.810 -0.0218 -0.2904  1.4841
  902MOL0     H21721   7.451   9.982   7.640  1.1504  0.0357 -4.4925
  902MOL0     H21722   7.504   9.917   7.391 -0.3654  1.2123  2.8634
  902MOL0     H21723   7.531   9.756   7.460  0.0502  0.9531  0.8567
  902MOL0     H21724   7.305   9.829   7.253 -1.3431 -1.9987 -0.5018
  902MOL0     H21725   7.347   9.662   7.311  2.7683 -1.1769 -0.0698
  902MOL0     H21726   7.568   9.676   7.222  0.0151 -1.2883 -1.7144
  902MOL0     H21727   7.562   9.830   7.159 -2.8674  2.1438  1.9539
  902MOL0     H21728   7.387   9.729   6.998 -0.2329 -0.3631  0.1666
  902MOL0     H21729   7.419   9.578   7.075 -2.8766  2.1974  1.8958
  902MOL0     H21730   7.560   9.433   7.151  2.6448 -0.7222  4.1821
  902MOL0     H21731   7.672   9.274   7.313 -3.0450  4.8171 -1.9868
  902MOL0     H21732   7.614   9.189   7.177 -0.7419  2.7384  0.6426
  902MOL0     H21733   7.782   9.154   7.227  0.2519 -0.5531 -1.0067
  902MOL0     H21734   8.250   9.362   7.227 -0.9287  0.4022 -2.1992
  902MOL0     H21735   8.452   9.245   7.307  2.2069  1.6497 -0.2931
  902MOL0     H21736   8.600   8.906   7.057 -0.2922  0.4195 -0.4044
  902MOL0     H21737   8.656   9.053   6.993 -3.7882 -0.6091  0.9360
  902MOL0     H21738   8.800   8.913   7.225 -1.9601  0.9245  0.8254
  902MOL0     H21739   8.846   8.910   7.052  1.3469  0.7416 -0.0488
  902MOL0     H21740   8.803   9.186   7.163 -1.8122  0.9042 -1.0495
  902MOL0     H21741   8.893   9.128   7.024  3.8360  2.2311  0.8411
  902MOL0     H21742   8.967   9.086   7.322 -0.5398 -1.1054  0.5922
  902MOL0     H21743   9.053   9.013   7.184  1.1554  0.4931  0.0251
  902MOL0     H21744   9.029   9.301   7.261 -1.4003 -2.3097  1.1254
  902MOL0     H21745   9.080   9.252   7.101 -1.1147  1.6177  1.2499
  902MOL0     H21746   9.263   9.317   7.268  1.2955 -1.1646  0.7083
  902MOL0     H21747   9.200   9.180   7.366  2.6420  1.3117  0.5204
  902MOL0     H21748   9.356   9.144   7.108  1.1508  1.0707  1.2296
  902MOL0     H21749   9.274   9.017   7.189  1.5176 -2.1023  1.6486
  902MOL0     H21750   9.488   9.176   7.301  0.0553 -1.3792 -0.0851
  902MOL0     H21751   9.488   8.999   7.252  2.3311  0.6630  0.5430
  902MOL0     H21752   8.410   8.973   6.972 -1.1763 -0.6771  0.0229
  902MOL0     H21753   8.215   9.102   6.899  3.2161 -0.0957 -0.5375
  902MOL0     H21754   7.979   9.488   6.922  0.2873 -1.7261  0.7173
  902MOL0     H21755   7.822   9.657   6.889 -0.5414  0.9725  1.1587
  902MOL0     H21756   7.490   9.485   8.251  1.4532 -0.5440  1.0961
  902MOL0     H21757   7.647   9.357   8.074 -0.5120  0.8848 -0.6747
  902MOL0     H21758   8.106   9.159   8.155 -0.2445 -0.5463  2.4519
  902MOL0     H21759   8.268   8.973   8.088 -0.2218  1.2687  1.2886
  902MOL0     H21760   8.308   8.626   8.124  0.8035 -2.0261 -0.1622
  902MOL0     H21761   8.140   8.608   8.113 -0.4342  0.5402 -2.1951
  902MOL0     H21762   8.140   8.541   7.885  1.0094  0.1310 -0.9406
  902MOL0     H21763   8.233   8.434   7.991 -3.6615  1.8304  3.2479
  902MOL0     H21764   8.452   8.551   7.897  0.3994 -3.5189 -0.4749
  902MOL0     H21765   8.351   8.623   7.772 -1.4653 -0.0660  1.3901
  902MOL0     H21766   8.394   8.321   7.823 -1.2425  0.4119  1.2485
  902MOL0     H21767   8.457   8.419   7.698 -0.8926 -0.4756 -0.6279
  902MOL0     H21768   8.065   8.365   7.557  2.1417 -0.0045 -3.4545
  902MOL0     H21769   7.966   8.712   7.973 -1.5437 -0.9645  3.2676
  902MOL0     H21770   7.785   8.897   8.044 -0.2388  3.7685 -0.0584
  903MOL0     O21771  11.112   8.088   8.086 -0.5316  0.0334  0.0597
  903MOL0     C21772  11.062   8.134   7.986  0.0950 -0.4123 -0.2596
  903MOL0     O21773  10.935   8.194   7.977 -0.0908  0.5886 -0.6291
  903MOL0     C21774  10.854   8.181   8.086 -0.5343 -0.2976  0.8179
  903MOL0     C21775  10.902   8.238   8.202  0.3306  0.0315 -0.3106
  903MOL0     C21776  10.829   8.259   8.321  1.3913 -0.1152 -0.6180
  903MOL0     C21777  10.694   8.214   8.324  0.2508  0.1314  0.2548
  903MOL0     O21778  10.618   8.235   8.436  0.5211 -0.1354  0.0850
  903MOL0     C21779  10.669   8.194   8.563 -0.2173 -0.2060 -0.4398
  903MOL0     C21780  10.539   8.154   8.637  0.0936 -0.0101 -0.8599
  903MOL0     C21781  10.567   8.099   8.778 -0.4121 -0.8057  0.7153
  903MOL0     C21782  10.476   7.984   8.806 -1.0089  0.3746  0.6637
  903MOL0     C21783  10.508   7.955   8.945 -0.6305  0.1016  0.3219
  903MOL0     C21784  10.448   7.819   8.991 -0.0945 -0.0323  0.0991
  903MOL0     C21785  10.453   7.798   9.136  0.4185  0.4093 -0.6137
  903MOL0     C21786  10.605   7.775   9.176 -0.0990 -0.2817 -1.0728
  903MOL0     N21787  10.607   7.696   9.298  0.0602  0.1830 -0.4895
  903MOL0     C21788  10.532   7.709   9.411  0.0553 -0.5118  0.5176
  903MOL0     C21789  10.555   7.602   9.485 -0.6036 -0.0952 -0.3280
  903MOL0     C21790  10.498   7.584   9.622  0.0244  0.2855  0.7450
  903MOL0     C21791  10.533   7.702   9.716  0.6372  0.6908 -1.2368
  903MOL0     C21792  10.483   7.674   9.862  0.4424 -0.5058  0.0229
  903MOL0     C21793  10.520   7.792   9.952  0.1898 -0.6540  0.2352
  903MOL0     O21794  10.450   7.814  10.075 -0.2644  0.0184  0.3798
  903MOL0     C21795  10.481   7.749  10.189  0.4594 -0.4104 -0.0988
  903MOL0     C21796  10.543   7.620  10.192  0.3014  0.5453  1.0858
  903MOL0     C21797  10.556   7.538  10.302  0.5068  0.2467  0.1208
  903MOL0     C21798  10.619   7.409  10.283  0.6784  0.1076 -0.1090
  903MOL0     C21799  10.494   7.576  10.425 -0.0882  0.8400 -0.2328
  903MOL0     C21800  10.492   7.484  10.540  0.4906  0.1829 -0.9724
  903MOL0     O21801  10.543   7.535  10.656  1.1251 -0.6121 -0.7047
  903MOL0     C21802  10.554   7.449  10.767 -0.3241  0.7971  0.4345
  903MOL0     C21803  10.484   7.477  10.884 -0.2898 -0.1982 -0.1563
  903MOL0     C21804  10.505   7.387  10.993 -0.3934  0.2839 -0.4257
  903MOL0     C21805  10.603   7.286  10.987  0.0436  0.3705 -0.6344
  903MOL0     O21806  10.623   7.194  11.092  0.1032 -0.7392 -0.0942
  903MOL0     C21807  10.605   7.231  11.234  0.3390 -0.2899 -0.6585
  903MOL0     C21808  10.705   7.158  11.318 -0.8013  0.0852  0.0366
  903MOL0     C21809  10.672   7.017  11.354  0.2063  0.1415  0.3251
  903MOL0     C21810  10.782   6.951  11.429 -0.4321  0.1452  1.0490
  903MOL0     C21811  10.732   6.817  11.476 -0.4245  0.6699 -0.4061
  903MOL0     C21812  10.847   6.746  11.548  0.4512  0.3370  0.0635
  903MOL0     C21813  10.783   6.652  11.645  0.3134  0.4995  0.1989
  903MOL0     C21814  10.734   6.515  11.590 -0.1343 -0.2173  0.1603
  903MOL0    Cl21815  10.874   6.402  11.533 -0.2869 -0.0737 -0.1012
  903MOL0     C21816  10.673   7.267  10.876  0.2204 -0.1003 -0.0907
  903MOL0     C21817  10.645   7.341  10.763  0.3718 -0.4578  0.3726
  903MOL0     O21818  10.434   7.378  10.535 -0.4826  0.4302 -0.8211
  903MOL0     C21819  10.439   7.706  10.427 -0.4001 -0.0750 -0.1084
  903MOL0     C21820  10.420   7.785  10.314  0.0993  0.1835 -0.3673
  903MOL0     N21821  10.650   7.526   9.419 -0.4265  0.2646  0.0461
  903MOL0     N21822  10.693   7.592   9.315  0.7647  0.4302  0.0818
  903MOL0     C21823  10.638   8.155   8.201  0.0455  0.0035 -0.6130
  903MOL0     C21824  10.721   8.135   8.086  0.0055 -0.9212 -0.6820
  903MOL0     C21825  11.143   8.121   7.865 -0.1173 -0.1423 -0.5338
  903MOL0     C21826  11.106   8.184   7.743 -0.2465 -0.0899  0.4111
  903MOL0     C21827  11.179   8.175   7.632 -1.3426 -0.4858  0.9554
  903MOL0     C21828  11.289   8.088   7.622 -0.8057  0.0799  0.2636
  903MOL0     O21829  11.367   8.048   7.512 -0.8473 -0.2552  0.0050
  903MOL0     C21830  11.346   8.131   7.391  0.6435 -0.8985 -0.1437
  903MOL0     C21831  11.464   8.093   7.299 -0.3167 -0.3651 -0.3746
  903MOL0     C21832  11.594   8.121   7.378 -0.0150  0.1252  1.1340
  903MOL0     C21833  11.708   8.148   7.276 -0.9597  0.2598 -0.2316
  903MOL0     C21834  11.832   8.172   7.351 -0.7653 -0.9512 -0.0498
  903MOL0     C21835  11.941   8.192   7.397 -0.2370 -0.5285  0.3573
  903MOL0     C21836  11.325   8.017   7.747 -0.2811  0.3318  0.7184
  903MOL0     C21837  11.253   8.039   7.860 -1.2159  0.0578  0.2508
  903MOL0     H21838  11.001   8.283   8.194  1.6630 -2.8205 -1.1580
  903MOL0     H21839  10.877   8.317   8.399 -0.6312  1.2139 -0.2628
  903MOL0     H21840  10.743   8.114   8.566 -0.1216 -0.0839  2.4239
  903MOL0     H21841  10.712   8.281   8.612 -2.4765  1.1782 -0.7422
  903MOL0     H21842  10.486   8.249   8.646  0.3300 -0.0095  0.9670
  903MOL0     H21843  10.472   8.083   8.588 -3.4816  1.9552  0.7857
  903MOL0     H21844  10.672   8.070   8.788 -0.5219 -1.8948 -0.8304
  903MOL0     H21845  10.546   8.184   8.844  2.0286  1.7004 -1.4545
  903MOL0     H21846  10.370   8.009   8.793 -1.2517 -0.2438  1.3475
  903MOL0     H21847  10.498   7.904   8.735  0.1797  3.1111 -2.3038
  903MOL0     H21848  10.616   7.945   8.952 -0.5838  0.4048  0.0737
  903MOL0     H21849  10.474   8.029   9.018  1.2631  0.7226  0.6216
  903MOL0     H21850  10.340   7.820   8.973 -0.1462  1.3174  0.3460
  903MOL0     H21851  10.497   7.738   8.937 -0.5572 -0.8126  0.8219
  903MOL0     H21852  10.403   7.879   9.190 -1.1921 -0.2426 -1.0561
  903MOL0     H21853  10.387   7.711   9.144 -0.3676  0.7551 -2.6081
  903MOL0     H21854  10.656   7.871   9.186 -0.8129  0.0908 -0.9040
  903MOL0     H21855  10.657   7.713   9.103  2.0839  0.1967  0.0031
  903MOL0     H21856  10.461   7.787   9.435  1.3263  1.9116 -2.8362
  903MOL0     H21857  10.389   7.570   9.616  0.3195 -2.2440  0.0047
  903MOL0     H21858  10.525   7.486   9.661 -3.8010 -1.0081  0.5987
  903MOL0     H21859  10.501   7.800   9.680  4.2127  3.4757  2.2269
  903MOL0     H21860  10.642   7.715   9.717  0.5609  1.7167  1.2141
  903MOL0     H21861  10.531   7.584   9.901  2.7183 -0.1062 -1.6102
  903MOL0     H21862  10.376   7.655   9.855  0.6292 -1.4009 -0.6519
  903MOL0     H21863  10.501   7.882   9.894  0.7772 -0.1647  0.7822
  903MOL0     H21864  10.629   7.782   9.961  0.1413 -2.0373 -0.3672
  903MOL0     H21865  10.585   7.574  10.104  0.4052 -0.7668  1.7871
  903MOL0     H21866  10.595   7.372  10.183  1.0327  1.0512 -0.5507
  903MOL0     H21867  10.727   7.427  10.285  0.5083  1.1490  0.8898
  903MOL0     H21868  10.590   7.341  10.364 -0.0948  1.0087  0.4002
  903MOL0     H21869  10.408   7.553  10.867 -2.3828 -1.9646  0.7180
  903MOL0     H21870  10.437   7.383  11.077 -1.0433 -1.8235 -0.9978
  903MOL0     H21871  10.624   7.338  11.245  0.0409 -0.2174 -0.8530
  903MOL0     H21872  10.504   7.226  11.275  0.6059  1.2258  0.2176
  903MOL0     H21873  10.799   7.160  11.262 -0.7644  0.5548  0.1069
  903MOL0     H21874  10.737   7.209  11.410  2.1666 -1.7953  0.2178
  903MOL0     H21875  10.672   6.958  11.262  0.8790  0.3252  0.2017
  903MOL0     H21876  10.576   6.999  11.402  0.6254 -0.4197  0.9837
  903MOL0     H21877  10.863   6.933  11.358 -0.9041  1.8053  0.0381
  903MOL0     H21878  10.823   7.005  11.515  1.4399  1.7682 -0.7718
  903MOL0     H21879  10.696   6.756  11.392 -1.1325  0.6581 -0.0965
  903MOL0     H21880  10.644   6.834  11.538  0.3847  0.0844  0.9500
  903MOL0     H21881  10.913   6.697  11.476 -0.9498 -0.9583 -0.4063
  903MOL0     H21882  10.904   6.817  11.608 -0.0747  2.0878 -1.3896
  903MOL0     H21883  10.707   6.697  11.710  2.3963  2.1938  1.6006
  903MOL0     H21884  10.858   6.627  11.721  3.2854  2.3656 -1.9043
  903MOL0     H21885  10.671   6.524  11.501 -0.7994  2.4349  0.8309
  903MOL0     H21886  10.681   6.471  11.675 -0.4335  0.0182  0.0966
  903MOL0     H21887  10.750   7.191  10.867  3.9756  3.2842  0.5872
  903MOL0     H21888  10.709   7.327  10.677  1.2338 -1.0267  1.0786
  903MOL0     H21889  10.390   7.737  10.519  1.6684 -0.3844  1.1830
  903MOL0     H21890  10.370   7.881  10.325  0.6009  0.3680  0.3722
  903MOL0     H21891  10.533   8.130   8.190 -0.8551  3.6300 -1.5002
  903MOL0     H21892  10.671   8.097   7.997 -1.2393 -1.2683  0.1559
  903MOL0     H21893  11.026   8.257   7.743 -0.8588 -0.6255 -2.6162
  903MOL0     H21894  11.143   8.230   7.546  1.3641 -1.2559 -0.7883
  903MOL0     H21895  11.250   8.096   7.352  0.7430 -0.4356 -0.8227
  903MOL0     H21896  11.334   8.239   7.396  0.6561 -0.4042 -5.3615
  903MOL0     H21897  11.447   8.152   7.208 -1.9376  1.0513  0.7868
  903MOL0     H21898  11.470   7.985   7.280  0.1152 -0.5690  0.8342
  903MOL0     H21899  11.610   8.030   7.436  0.5695 -0.4161  0.1499
  903MOL0     H21900  11.600   8.208   7.445  2.4282  0.6106  0.3818
  903MOL0     H21901  11.681   8.241   7.224 -0.0203  1.5536  1.4755
  903MOL0     H21902  11.716   8.063   7.208  1.7410 -0.0365  0.3484
  903MOL0     H21903  12.037   8.200   7.444 -0.0886 -3.5222  0.7700
  903MOL0     H21904  11.401   7.939   7.750  0.5316  1.0253 -0.6647
  903MOL0     H21905  11.281   7.989   7.952  0.2782 -2.3269 -1.3895
  904MOL0     O21906   7.622   2.325   1.771 -0.3087  1.1379 -0.5683
  904MOL0     C21907   7.744   2.321   1.780 -0.0368  0.0204 -0.2424
  904MOL0     O21908   7.829   2.417   1.742  0.4601 -0.2005  0.0639
  904MOL0     C21909   7.784   2.527   1.667 -0.4853  0.5267 -0.8405
  904MOL0     C21910   7.692   2.527   1.554 -0.4734  0.3404 -0.2533
  904MOL0     C21911   7.677   2.644   1.473  0.4282 -0.1330  0.4791
  904MOL0     C21912   7.759   2.754   1.500  0.0895  0.0197 -0.6224
  904MOL0     O21913   7.776   2.863   1.424 -0.1189  0.1927 -0.2828
  904MOL0     C21914   7.742   2.863   1.283  0.6522 -0.2538 -0.6972
  904MOL0     C21915   7.588   2.894   1.262 -0.5863  1.2885  1.6401
  904MOL0     C21916   7.552   3.042   1.288  0.7607  0.3217 -0.6561
  904MOL0     C21917   7.575   3.144   1.181 -0.7148 -0.0390  0.1319
  904MOL0     C21918   7.517   3.280   1.223 -0.3958 -0.7099  0.5225
  904MOL0     C21919   7.612   3.366   1.305 -0.9506  0.4022 -0.1767
  904MOL0     C21920   7.541   3.502   1.351  0.3218 -0.8066  0.2824
  904MOL0     C21921   7.520   3.602   1.237 -0.0106  0.4116  0.0944
  904MOL0     N21922   7.637   3.669   1.186  0.5012 -0.6047 -0.2520
  904MOL0     C21923   7.686   3.643   1.063  0.5496  0.5874  0.6527
  904MOL0     C21924   7.796   3.720   1.052  0.1797 -0.2293 -0.2138
  904MOL0     C21925   7.889   3.744   0.934 -0.4183  1.1976 -0.1325
  904MOL0     C21926   8.012   3.648   0.951 -0.4723 -0.3718 -0.1995
  904MOL0     C21927   8.109   3.720   1.049 -0.0917 -0.0815  0.0200
  904MOL0     C21928   8.194   3.608   1.112  0.1455 -0.3921  0.0096
  904MOL0     O21929   8.308   3.599   1.031 -0.3882 -0.3849 -0.0340
  904MOL0     C21930   8.403   3.511   1.076  0.2417  0.5124 -0.5358
  904MOL0     C21931   8.514   3.492   0.997  0.8761  0.2078 -0.1823
  904MOL0     C21932   8.608   3.405   1.028  0.7002 -0.1964 -0.7544
  904MOL0     C21933   8.730   3.372   0.933 -0.6456 -0.3467 -0.1572
  904MOL0     C21934   8.602   3.341   1.156  1.1021  1.1454 -0.0453
  904MOL0     C21935   8.717   3.272   1.210 -0.0677  0.5392 -1.1095
  904MOL0     O21936   8.684   3.163   1.284 -0.2326 -0.5790 -1.1115
  904MOL0     C21937   8.760   3.048   1.271 -0.3667 -0.4162 -0.3835
  904MOL0     C21938   8.771   2.960   1.382 -0.6861 -0.9959  0.4576
  904MOL0     C21939   8.842   2.846   1.392  0.6556 -0.4196  0.0677
  904MOL0     C21940   8.913   2.807   1.273 -0.5011 -0.0870  0.3173
  904MOL0     O21941   8.977   2.684   1.245  0.5813  0.2459  0.2734
  904MOL0     C21942   9.035   2.613   1.352  0.3001 -0.2480 -0.3029
  904MOL0     C21943   9.183   2.618   1.335 -0.9489 -0.1710  0.2926
  904MOL0     C21944   9.236   2.769   1.328 -0.7245  0.0727  0.9355
  904MOL0     C21945   9.217   2.840   1.462  0.3605 -0.5163 -0.8314
  904MOL0     C21946   9.260   2.991   1.448 -0.1060 -0.0255 -0.4001
  904MOL0     C21947   9.177   3.079   1.350  0.0767 -0.2870  0.4839
  904MOL0     C21948   9.216   3.224   1.343 -0.3068 -0.0694 -0.7566
  904MOL0     C21949   9.221   3.292   1.491 -0.5490 -1.8142 -0.9889
  904MOL0    Cl21950   9.233   3.469   1.462  0.5162 -0.5695  0.5219
  904MOL0     C21951   8.916   2.897   1.168  0.3067 -0.8738  0.0138
  904MOL0     C21952   8.844   3.018   1.161  0.5296 -0.4371  1.1893
  904MOL0     O21953   8.831   3.320   1.198  0.0856 -0.7508  0.4162
  904MOL0     C21954   8.492   3.346   1.231 -0.8056  0.5516  0.0155
  904MOL0     C21955   8.387   3.428   1.197 -0.7146 -0.0964 -0.2443
  904MOL0     N21956   7.817   3.787   1.171 -0.0010  0.1618  0.1270
  904MOL0     N21957   7.718   3.767   1.244 -0.1882  0.0817 -0.2625
  904MOL0     C21958   7.833   2.757   1.612  0.5116  0.0451 -1.5601
  904MOL0     C21959   7.848   2.652   1.693  0.3392  0.1183 -0.8569
  904MOL0     C21960   7.798   2.224   1.879  0.1529  0.0809  1.1533
  904MOL0     C21961   7.931   2.179   1.863  0.1436 -0.1296  0.2466
  904MOL0     C21962   7.977   2.081   1.949 -0.6407  1.2158  0.1851
  904MOL0     C21963   7.904   2.041   2.069 -0.5291  0.2691  0.1704
  904MOL0     O21964   7.974   1.958   2.157  0.5332  0.2144 -0.1029
  904MOL0     C21965   7.912   1.918   2.275 -0.3724  0.1711 -0.3763
  904MOL0     C21966   7.991   1.801   2.362 -0.0305 -0.4394 -0.2395
  904MOL0     C21967   8.022   1.682   2.263  0.0221 -0.2460 -0.3615
  904MOL0     C21968   8.140   1.618   2.323 -0.2614  0.7143  0.2246
  904MOL0     C21969   8.091   1.489   2.383 -1.3657  0.4024  0.2813
  904MOL0     C21970   8.052   1.391   2.436 -0.9310  0.3490 -0.4104
  904MOL0     C21971   7.768   2.081   2.080 -0.1090  0.6709  0.5255
  904MOL0     C21972   7.720   2.171   1.987  0.5986 -0.0539 -0.4310
  904MOL0     H21973   7.624   2.443   1.543 -2.0738  1.6738 -0.9619
  904MOL0     H21974   7.610   2.648   1.387  0.7484 -1.2426  0.1649
  904MOL0     H21975   7.808   2.938   1.239 -1.4226  1.3015 -1.2911
  904MOL0     H21976   7.760   2.762   1.243 -1.8868 -1.0597  0.0088
  904MOL0     H21977   7.563   2.874   1.158 -2.5781  6.2416  0.8872
  904MOL0     H21978   7.525   2.826   1.320 -0.0285 -0.8446 -0.1419
  904MOL0     H21979   7.443   3.032   1.283  0.6307  1.7633 -1.1121
  904MOL0     H21980   7.587   3.075   1.386  0.1265 -1.2738  0.1446
  904MOL0     H21981   7.682   3.142   1.157 -0.5628 -1.0298  0.8297
  904MOL0     H21982   7.516   3.117   1.093  0.3362 -1.3182 -0.2133
  904MOL0     H21983   7.483   3.328   1.132  0.2284 -0.2974  0.5024
  904MOL0     H21984   7.422   3.270   1.277 -3.1091  2.3473 -3.2029
  904MOL0     H21985   7.644   3.304   1.389 -1.2850 -1.3429 -1.2852
  904MOL0     H21986   7.699   3.387   1.242 -0.6127  1.6773  0.6639
  904MOL0     H21987   7.451   3.458   1.395  0.2794 -1.6253 -0.5885
  904MOL0     H21988   7.604   3.548   1.428 -0.0047 -1.6485  1.0676
  904MOL0     H21989   7.440   3.670   1.267  0.0463  1.4825 -1.9848
  904MOL0     H21990   7.475   3.546   1.154 -0.8766  1.2014  0.0144
  904MOL0     H21991   7.641   3.572   0.995 -0.5349  0.4104  1.5383
  904MOL0     H21992   7.839   3.722   0.839  1.4875 -1.0715 -0.7020
  904MOL0     H21993   7.920   3.849   0.935  0.0497  1.1914  4.0835
  904MOL0     H21994   8.067   3.647   0.856 -1.0331 -1.3150 -0.5264
  904MOL0     H21995   7.974   3.551   0.982  1.6159 -0.7980  1.2875
  904MOL0     H21996   8.057   3.754   1.138  0.6217  1.6978 -0.1989
  904MOL0     H21997   8.159   3.811   1.014 -2.2662  1.9400  1.8305
  904MOL0     H21998   8.152   3.507   1.115  1.8055 -1.0978  0.5831
  904MOL0     H21999   8.210   3.624   1.219  1.2874 -3.8890  0.4742
  904MOL0     H22000   8.509   3.552   0.907 -2.8490 -1.0900 -1.0294
  904MOL0     H22001   8.747   3.264   0.936  0.5582 -0.2247  3.8168
  904MOL0     H22002   8.712   3.413   0.834  4.5518  0.7762 -0.8903
  904MOL0     H22003   8.820   3.413   0.979  0.8635 -1.4945 -1.9191
  904MOL0     H22004   8.702   2.983   1.463 -1.7881 -0.5129 -0.5724
  904MOL0     H22005   8.817   2.798   1.486 -0.7692 -2.6946 -1.4059
  904MOL0     H22006   9.013   2.642   1.455  3.3431 -1.1792  0.7325
  904MOL0     H22007   9.002   2.509   1.350  0.1222 -0.2098  0.4470
  904MOL0     H22008   9.230   2.567   1.420 -0.3594 -1.7028 -0.9075
  904MOL0     H22009   9.208   2.569   1.241  2.7114 -2.3801  2.1622
  904MOL0     H22010   9.177   2.821   1.252  1.5571  0.1167 -0.9345
  904MOL0     H22011   9.342   2.778   1.302 -0.8197  2.0477  1.1396
  904MOL0     H22012   9.114   2.830   1.499  0.4212  1.5812  0.0666
  904MOL0     H22013   9.290   2.791   1.527  1.0728  1.3871 -0.1361
  904MOL0     H22014   9.367   2.992   1.425 -0.2348  0.8187 -0.9979
  904MOL0     H22015   9.257   3.036   1.547  0.6318 -1.5727  0.3635
  904MOL0     H22016   9.194   3.041   1.249  0.0718  0.2002  0.3013
  904MOL0     H22017   9.072   3.079   1.379 -0.9341 -0.1032 -2.8027
  904MOL0     H22018   9.136   3.278   1.292 -2.8699 -2.0343  0.8796
  904MOL0     H22019   9.299   3.246   1.276 -0.8291 -1.4032 -1.8800
  904MOL0     H22020   9.304   3.255   1.551 -1.5412 -1.0521  0.9202
  904MOL0     H22021   9.125   3.274   1.540 -0.0166 -1.3647  0.2452
  904MOL0     H22022   8.980   2.863   1.087  1.5146 -0.3465  0.7055
  904MOL0     H22023   8.860   3.080   1.073 -2.1543 -0.4953  0.5824
  904MOL0     H22024   8.487   3.300   1.329 -3.1659  1.2637  0.2734
  904MOL0     H22025   8.312   3.437   1.275 -2.0985  2.0195 -1.7288
  904MOL0     H22026   7.877   2.849   1.650  1.3328 -0.3386 -1.5551
  904MOL0     H22027   7.894   2.648   1.791 -0.3720  0.0929 -0.5125
  904MOL0     H22028   7.995   2.231   1.793  0.0081  2.1953  1.7270
  904MOL0     H22029   8.080   2.051   1.933 -0.4750  2.8555 -2.6307
  904MOL0     H22030   7.874   1.996   2.342 -1.9381 -2.2029  1.6959
  904MOL0     H22031   7.819   1.867   2.246 -0.9519  1.3419 -0.6177
  904MOL0     H22032   7.930   1.769   2.447 -3.1042  2.4457 -1.1121
  904MOL0     H22033   8.087   1.840   2.399  0.7655  0.3322 -2.8667
  904MOL0     H22034   8.054   1.711   2.162  0.0554  0.6447 -0.1008
  904MOL0     H22035   7.936   1.616   2.247  0.2923 -0.4894 -0.8506
  904MOL0     H22036   8.192   1.683   2.394  2.7475 -2.1676  0.9227
  904MOL0     H22037   8.214   1.592   2.246 -2.6717 -0.6363 -1.7709
  904MOL0     H22038   7.998   1.317   2.490  1.1958  0.5250  2.1801
  904MOL0     H22039   7.705   2.036   2.156  1.3573 -1.1085  0.7510
  904MOL0     H22040   7.615   2.200   1.990  0.7269  0.3813 -0.0297
  905MOL0     O22041   6.983   3.645   4.545 -0.7254 -0.0279 -0.4685
  905MOL0     C22042   7.025   3.534   4.548  0.4351  0.3431 -0.9951
  905MOL0     O22043   7.096   3.477   4.654 -0.4098  0.8889  0.3794
  905MOL0     C22044   7.144   3.565   4.748  0.1375 -0.2971  0.6982
  905MOL0     C22045   7.283   3.593   4.743  0.4985 -0.3378  0.0262
  905MOL0     C22046   7.339   3.684   4.825 -0.0509  0.3398  0.2189
  905MOL0     C22047   7.269   3.743   4.919 -0.1481  0.9393 -0.3162
  905MOL0     O22048   7.329   3.828   5.008  0.0697 -0.1750  1.2310
  905MOL0     C22049   7.310   3.790   5.143  0.2159  1.5264 -0.0823
  905MOL0     C22050   7.433   3.838   5.221 -0.0931  0.1856  0.0593
  905MOL0     C22051   7.553   3.744   5.209  0.4859  0.0185  0.4700
  905MOL0     C22052   7.653   3.797   5.311  0.2549 -0.1235  0.3882
  905MOL0     C22053   7.765   3.695   5.328  0.5679 -0.1783 -0.4222
  905MOL0     C22054   7.877   3.743   5.423  0.2648  0.8207  0.7738
  905MOL0     C22055   7.970   3.627   5.433 -0.1223  0.3175  0.7320
  905MOL0     C22056   8.074   3.640   5.538  0.2336 -0.1064  0.2859
  905MOL0     N22057   8.025   3.564   5.660 -0.2311  0.3921  0.5643
  905MOL0     C22058   8.039   3.430   5.682 -0.7625 -0.2688 -0.1692
  905MOL0     C22059   7.963   3.413   5.792  0.3160  1.0328  0.2148
  905MOL0     C22060   7.923   3.278   5.850 -0.6911 -0.1644  0.4736
  905MOL0     C22061   7.933   3.258   6.008 -0.1947 -0.0427  0.5664
  905MOL0     C22062   8.068   3.304   6.053 -0.4704  0.8133  0.4870
  905MOL0     C22063   8.093   3.274   6.200 -0.5851 -0.3994 -0.3791
  905MOL0     O22064   8.005   3.349   6.275 -0.9710 -0.6180 -0.9436
  905MOL0     C22065   8.028   3.402   6.399 -0.3442  0.2287 -0.5498
  905MOL0     C22066   8.095   3.328   6.501  0.7617  1.2266 -0.4673
  905MOL0     C22067   8.107   3.373   6.630 -0.3232 -0.5156  0.8643
  905MOL0     C22068   8.166   3.277   6.730 -0.4998  0.5753 -0.2496
  905MOL0     C22069   8.067   3.508   6.650  0.0217 -0.8349 -0.8714
  905MOL0     C22070   8.101   3.591   6.770  0.2095 -0.0224  0.5950
  905MOL0     O22071   8.153   3.709   6.739 -0.0492  0.1636  0.6161
  905MOL0     C22072   8.220   3.776   6.836 -0.0734 -0.2551 -0.5557
  905MOL0     C22073   8.172   3.892   6.894  0.6908  0.2476 -0.0698
  905MOL0     C22074   8.239   3.937   7.006  0.0931 -1.1568  0.6021
  905MOL0     C22075   8.360   3.883   7.053  0.0581 -0.6646 -0.2742
  905MOL0     O22076   8.433   3.949   7.142  0.9581 -0.2031 -0.1722
  905MOL0     C22077   8.544   3.901   7.215  0.7963  0.5526  0.7869
  905MOL0     C22078   8.670   3.916   7.137  0.3082  0.1260 -0.5603
  905MOL0     C22079   8.788   3.917   7.218 -0.4473  0.3492 -0.2591
  905MOL0     C22080   8.866   3.795   7.181  0.0532  0.0469  0.1392
  905MOL0     C22081   9.002   3.771   7.243 -0.0814  0.7012 -0.3793
  905MOL0     C22082   9.031   3.619   7.220  0.1580 -0.2671 -0.0084
  905MOL0     C22083   8.967   3.512   7.320  0.1603 -0.6341  1.1326
  905MOL0     C22084   9.052   3.484   7.444  0.3884  0.0820 -0.2516
  905MOL0    Cl22085   9.050   3.622   7.553 -0.1882  0.3196  0.2312
  905MOL0     C22086   8.416   3.780   6.977 -0.9034  0.0130  0.4439
  905MOL0     C22087   8.341   3.723   6.874  0.5566  0.4004  0.0196
  905MOL0     O22088   8.074   3.544   6.881  0.3709 -1.0883  0.4667
  905MOL0     C22089   7.997   3.575   6.554 -0.6284  0.3349 -0.3865
  905MOL0     C22090   7.976   3.528   6.429  0.5099 -1.0838  0.0169
  905MOL0     N22091   7.912   3.530   5.843  1.1018  0.0479  0.1468
  905MOL0     N22092   7.952   3.621   5.760  0.0952  0.0793 -0.7057
  905MOL0     C22093   7.134   3.718   4.925 -0.2704  0.3100  0.3235
  905MOL0     C22094   7.069   3.629   4.846 -0.4035  0.8196 -0.5802
  905MOL0     C22095   6.980   3.438   4.444  1.3362  0.5362 -0.8144
  905MOL0     C22096   6.991   3.299   4.465 -0.0141  0.3797 -0.1371
  905MOL0     C22097   6.939   3.200   4.371 -0.3875 -0.7322 -0.4661
  905MOL0     C22098   6.859   3.254   4.263  0.2194 -0.0896  0.3827
  905MOL0     O22099   6.806   3.182   4.152  0.6964  0.5034 -0.1623
  905MOL0     C22100   6.865   3.058   4.134  0.5953  0.1620  0.5144
  905MOL0     C22101   7.007   3.074   4.076 -0.3406 -0.6419  0.0398
  905MOL0     C22102   7.020   3.157   3.944 -0.0682  0.4195  0.8337
  905MOL0     C22103   6.941   3.111   3.813 -0.1090 -0.6713 -0.1041
  905MOL0     C22104   6.966   2.974   3.778  0.0850 -0.3966  0.7261
  905MOL0     C22105   6.978   2.861   3.749 -0.1389 -0.0755 -0.5607
  905MOL0     C22106   6.846   3.390   4.256  1.7319 -0.4608 -0.6556
  905MOL0     C22107   6.901   3.480   4.342  0.5454 -0.1986 -0.0179
  905MOL0     H22108   7.340   3.528   4.677 -0.5967 -3.1629  1.6580
  905MOL0     H22109   7.448   3.683   4.814 -0.1429 -2.5615 -1.4707
  905MOL0     H22110   7.228   3.847   5.189  1.2760  3.5311 -0.5381
  905MOL0     H22111   7.293   3.686   5.171 -0.6826  1.6602 -0.0889
  905MOL0     H22112   7.466   3.937   5.188  0.7557  0.2078  0.9303
  905MOL0     H22113   7.397   3.838   5.325  1.3427 -2.1045  0.6045
  905MOL0     H22114   7.529   3.647   5.254  1.6793  0.1433  1.4214
  905MOL0     H22115   7.581   3.733   5.104 -1.8556  1.0314 -0.3293
  905MOL0     H22116   7.690   3.891   5.270  0.2937  0.6408  2.0995
  905MOL0     H22117   7.610   3.830   5.406  1.4731 -3.0087  2.0922
  905MOL0     H22118   7.716   3.610   5.375  1.1767 -1.3131 -1.7907
  905MOL0     H22119   7.805   3.678   5.228 -2.2506  1.3544 -1.9403
  905MOL0     H22120   7.935   3.831   5.394  1.4214 -0.0027  0.5157
  905MOL0     H22121   7.837   3.764   5.523  0.0660  1.8937  0.4767
  905MOL0     H22122   7.914   3.535   5.452 -0.4826  0.1068 -1.1956
  905MOL0     H22123   8.016   3.608   5.336 -3.1931  1.3623 -1.0622
  905MOL0     H22124   8.089   3.745   5.562 -0.0496  0.6113 -2.3839
  905MOL0     H22125   8.166   3.590   5.509  2.7679  2.0467  3.9054
  905MOL0     H22126   8.068   3.345   5.623 -0.3727 -0.5510  0.4191
  905MOL0     H22127   7.827   3.249   5.806  0.2313 -0.0736 -1.7454
  905MOL0     H22128   8.000   3.215   5.804  0.8631  4.1251 -3.6261
  905MOL0     H22129   7.926   3.151   6.026 -0.9448 -0.3497 -1.2333
  905MOL0     H22130   7.846   3.299   6.060 -1.0935  0.2455 -1.0722
  905MOL0     H22131   8.072   3.411   6.033  2.4176  0.7541  0.3632
  905MOL0     H22132   8.146   3.269   5.984 -1.9237 -0.6213 -0.5245
  905MOL0     H22133   8.195   3.296   6.231 -1.0258 -0.3764  1.1376
  905MOL0     H22134   8.086   3.165   6.216  1.7774 -0.3945  1.2444
  905MOL0     H22135   8.114   3.224   6.476 -1.0038  1.2541 -2.2334
  905MOL0     H22136   8.147   3.317   6.830 -1.6900  0.1726 -0.2971
  905MOL0     H22137   8.111   3.183   6.717 -1.1380  0.8357  0.4865
  905MOL0     H22138   8.275   3.270   6.718 -0.0922  2.8406  1.3363
  905MOL0     H22139   8.082   3.948   6.868  0.2257 -1.6355 -3.0409
  905MOL0     H22140   8.195   4.025   7.051  2.7108 -0.3665  1.8608
  905MOL0     H22141   8.553   3.956   7.309 -0.2313  0.8486  0.7297
  905MOL0     H22142   8.530   3.798   7.251  2.0240  0.1435  0.1426
  905MOL0     H22143   8.672   3.832   7.068 -1.2151 -2.1018  1.8886
  905MOL0     H22144   8.662   4.002   7.070 -0.6431 -0.9020 -1.8294
  905MOL0     H22145   8.760   3.916   7.324 -1.6816 -1.7692 -0.5637
  905MOL0     H22146   8.839   4.012   7.198 -1.2174  0.7559 -0.3166
  905MOL0     H22147   8.810   3.707   7.212  1.0056 -0.9187 -0.7767
  905MOL0     H22148   8.888   3.802   7.074  0.5533 -3.5794 -0.1338
  905MOL0     H22149   8.994   3.806   7.347 -0.8974  3.1827 -1.2147
  905MOL0     H22150   9.070   3.843   7.197  3.5871 -2.6377 -0.7442
  905MOL0     H22151   9.008   3.597   7.115 -4.4552  1.3613  0.4140
  905MOL0     H22152   9.139   3.605   7.227  0.0339 -3.0020 -1.8543
  905MOL0     H22153   8.955   3.422   7.260  0.7354  0.4363 -0.6620
  905MOL0     H22154   8.865   3.541   7.347 -0.1295  1.7362 -1.9822
  905MOL0     H22155   9.153   3.461   7.409 -0.1079 -0.5085 -1.3410
  905MOL0     H22156   9.016   3.396   7.498 -1.9766  1.4020  0.4587
  905MOL0     H22157   8.502   3.725   7.014 -1.5024 -0.4637  1.1633
  905MOL0     H22158   8.373   3.639   6.812 -0.9621 -0.2112  0.0294
  905MOL0     H22159   7.953   3.666   6.593  0.6765  0.3174  1.2643
  905MOL0     H22160   7.912   3.580   6.358 -0.7415 -1.7687  0.6134
  905MOL0     H22161   7.090   3.781   5.001 -0.2738  0.3226  0.3113
  905MOL0     H22162   6.962   3.615   4.860 -0.3710  1.9588  1.2479
  905MOL0     H22163   7.049   3.259   4.547  1.6123 -4.8605 -3.3145
  905MOL0     H22164   6.953   3.093   4.377  0.0875 -0.6236  0.5866
  905MOL0     H22165   6.848   3.003   4.227  1.8426  0.0489  0.6811
  905MOL0     H22166   6.809   3.001   4.059  2.1439 -2.1388  1.0087
  905MOL0     H22167   7.044   2.973   4.053  0.7154  0.0709 -1.5410
  905MOL0     H22168   7.071   3.120   4.152 -2.0107  0.1618  1.0134
  905MOL0     H22169   7.126   3.180   3.926 -0.8130  2.6282 -1.2779
  905MOL0     H22170   6.979   3.257   3.961 -1.9099 -0.4427  1.6829
  905MOL0     H22171   6.973   3.178   3.732 -1.3104 -1.2358 -1.0656
  905MOL0     H22172   6.833   3.127   3.818 -0.2854 -1.1994 -1.8026
  905MOL0     H22173   6.990   2.755   3.738 -0.5794 -0.5786  2.7658
  905MOL0     H22174   6.779   3.437   4.184 -2.6932  1.8221  4.2848
  905MOL0     H22175   6.893   3.584   4.312  2.1200  0.1370  0.6333
  906MOL0     O22176   1.146   0.379  10.620  0.2614 -0.5357  0.8469
  906MOL0     C22177   1.237   0.461  10.654 -0.6064  0.2084 -0.1436
  906MOL0     O22178   1.288   0.564  10.576  0.2171  0.9372  0.3106
  906MOL0     C22179   1.199   0.627  10.500 -0.6902  0.1574  0.2856
  906MOL0     C22180   1.063   0.661  10.532 -0.6266  0.4565  0.1548
  906MOL0     C22181   0.982   0.707  10.435  0.2772 -0.8515  0.3723
  906MOL0     C22182   1.025   0.740  10.305  0.7656  0.2972  0.0491
  906MOL0     O22183   0.934   0.789  10.215  0.1979  0.4039 -0.8144
  906MOL0     C22184   0.971   0.793  10.081 -0.1985  0.2222 -1.1746
  906MOL0     C22185   0.851   0.772   9.989 -0.3375 -0.1501 -0.0564
  906MOL0     C22186   0.739   0.872  10.014  0.0783 -0.2615  0.5321
  906MOL0     C22187   0.619   0.850   9.920  0.1078  0.3856 -0.0985
  906MOL0     C22188   0.597   0.977   9.835 -0.0256  1.0231 -0.6834
  906MOL0     C22189   0.495   0.940   9.731  0.5380  0.0258  0.8819
  906MOL0     C22190   0.449   1.067   9.649 -0.8813 -0.5017 -0.9342
  906MOL0     C22191   0.360   1.161   9.729 -1.2114  0.1366 -0.0342
  906MOL0     N22192   0.342   1.282   9.640  0.2054  0.4740 -0.5558
  906MOL0     C22193   0.403   1.404   9.643  0.4897  0.1244  0.2579
  906MOL0     C22194   0.357   1.463   9.530 -1.3541 -0.0551  0.2530
  906MOL0     C22195   0.374   1.603   9.486 -0.8004  0.2477 -0.1126
  906MOL0     C22196   0.257   1.660   9.397 -0.7898  0.3689 -0.1968
  906MOL0     C22197   0.127   1.685   9.467  0.2190  0.5030 -1.1500
  906MOL0     C22198   0.028   1.711   9.353 -0.2082  0.2873  0.7890
  906MOL0     O22199  -0.107   1.691   9.396 -0.3561 -0.3918 -0.8938
  906MOL0     C22200  -0.208   1.744   9.323 -0.0957  0.2362 -0.3510
  906MOL0     C22201  -0.335   1.703   9.361  0.3939  0.4885 -0.4793
  906MOL0     C22202  -0.451   1.738   9.298 -0.1267  0.2647  0.2129
  906MOL0     C22203  -0.583   1.676   9.345 -0.4807  0.5144 -0.4436
  906MOL0     C22204  -0.439   1.814   9.174 -0.5728 -0.5316 -0.1253
  906MOL0     C22205  -0.558   1.831   9.079 -0.6913  0.0185  0.2649
  906MOL0     O22206  -0.527   1.851   8.953 -0.1599 -0.2080  0.6609
  906MOL0     C22207  -0.619   1.887   8.863  0.4766  0.1189 -0.8472
  906MOL0     C22208  -0.709   2.001   8.878 -0.4584  0.2573  1.7087
  906MOL0     C22209  -0.805   2.026   8.777  0.1527  0.7143 -0.7172
  906MOL0     C22210  -0.825   1.949   8.665  0.7219  0.1011  0.2524
  906MOL0     O22211  -0.932   1.967   8.571  0.8595  0.7098  0.7313
  906MOL0     C22212  -1.039   2.044   8.627  0.5542 -1.4942  0.3852
  906MOL0     C22213  -1.165   2.024   8.544 -0.8179 -0.1118 -0.6800
  906MOL0     C22214  -1.245   1.910   8.607 -0.2860  0.3312  0.4465
  906MOL0     C22215  -1.177   1.779   8.586  0.6899  0.2485  0.4309
  906MOL0     C22216  -1.264   1.657   8.608 -0.2015  0.0084 -0.2962
  906MOL0     C22217  -1.179   1.525   8.583 -1.1820 -1.0588 -0.4489
  906MOL0     C22218  -1.258   1.410   8.521  0.2450  0.1665 -0.4379
  906MOL0     C22219  -1.167   1.281   8.516  0.0135 -0.9980 -0.0678
  906MOL0    Cl22220  -1.218   1.174   8.388 -0.4051  0.3530  0.2169
  906MOL0     C22221  -0.728   1.850   8.645 -0.5295  0.4696  0.2948
  906MOL0     C22222  -0.626   1.821   8.737 -0.4626 -0.2433  0.3708
  906MOL0     O22223  -0.670   1.837   9.127  0.3848 -0.1439 -0.0777
  906MOL0     C22224  -0.323   1.865   9.130 -0.3669  0.5821  0.0592
  906MOL0     C22225  -0.207   1.837   9.214 -0.8073 -0.2336  1.3568
  906MOL0     N22226   0.294   1.374   9.446  0.0696 -0.2224 -0.4448
  906MOL0     N22227   0.298   1.267   9.517  0.2721 -0.9831  0.3571
  906MOL0     C22228   1.160   0.707  10.272 -0.3689  0.0674 -0.4638
  906MOL0     C22229   1.246   0.662  10.371  0.0670  0.0980 -1.4583
  906MOL0     C22230   1.292   0.453  10.790  0.3564 -0.5167 -0.1395
  906MOL0     C22231   1.392   0.546  10.841  0.5325  0.1399 -0.3971
  906MOL0     C22232   1.444   0.539  10.972  0.7691 -0.7640 -0.0312
  906MOL0     C22233   1.403   0.442  11.055 -0.5746 -0.2616  0.5397
  906MOL0     O22234   1.464   0.442  11.178 -0.8721 -0.2195 -0.6353
  906MOL0     C22235   1.408   0.362  11.280  0.7373  0.6764 -0.2657
  906MOL0     C22236   1.269   0.409  11.328  0.4689  0.6999  0.1862
  906MOL0     C22237   1.267   0.533  11.414  0.1719 -0.5568  0.4000
  906MOL0     C22238   1.319   0.491  11.561 -0.1729 -0.2363  0.9996
  906MOL0     C22239   1.324   0.602  11.651  0.2556  1.0409 -0.0620
  906MOL0     C22240   1.342   0.695  11.727  0.2068  0.1622 -0.0070
  906MOL0     C22241   1.306   0.348  11.007 -0.3964 -0.4090 -0.4540
  906MOL0     C22242   1.253   0.352  10.878  0.0100 -0.5578  0.2597
  906MOL0     H22243   1.028   0.621  10.627 -0.7747 -0.9300 -0.4729
  906MOL0     H22244   0.876   0.700  10.456  0.2022  1.5651  1.1275
  906MOL0     H22245   1.028   0.886  10.072  0.9647  0.0296  2.5279
  906MOL0     H22246   1.033   0.706  10.056 -1.2298 -1.5285  1.8324
  906MOL0     H22247   0.878   0.778   9.883  0.8688 -0.7414  0.2022
  906MOL0     H22248   0.817   0.670  10.008  1.5405 -0.6484  0.8830
  906MOL0     H22249   0.704   0.855  10.116 -1.5639 -2.0146 -0.2542
  906MOL0     H22250   0.780   0.971   9.993 -0.0555 -0.5934 -1.5245
  906MOL0     H22251   0.625   0.754   9.867  1.2806 -0.2933  1.2085
  906MOL0     H22252   0.545   0.833   9.998  0.4480  0.6338  0.2809
  906MOL0     H22253   0.561   1.056   9.902 -0.9374 -1.1997  1.6279
  906MOL0     H22254   0.693   1.004   9.791 -0.3451  1.5172 -1.1035
  906MOL0     H22255   0.557   0.885   9.659  3.0743  0.0635  2.9058
  906MOL0     H22256   0.410   0.887   9.772 -1.5726  2.9332  0.5796
  906MOL0     H22257   0.536   1.120   9.611 -0.3607  0.3884  1.3387
  906MOL0     H22258   0.395   1.028   9.562 -1.5808 -1.5546 -0.0637
  906MOL0     H22259   0.406   1.207   9.817  1.5742 -1.0910 -0.7570
  906MOL0     H22260   0.263   1.113   9.746 -0.4350 -0.8499  1.9102
  906MOL0     H22261   0.441   1.456   9.730 -0.6149  1.3574  0.0284
  906MOL0     H22262   0.399   1.666   9.573 -1.9603  2.3159 -1.2032
  906MOL0     H22263   0.462   1.610   9.422  1.7477  0.6908  3.1573
  906MOL0     H22264   0.248   1.593   9.311 -2.6680  3.4360 -2.5913
  906MOL0     H22265   0.285   1.758   9.357  1.1943  0.6594  1.7358
  906MOL0     H22266   0.133   1.770   9.536 -0.4970 -0.1407 -0.2684
  906MOL0     H22267   0.079   1.603   9.521 -3.6129  2.0007 -1.9275
  906MOL0     H22268   0.052   1.655   9.261  0.2294  3.2991 -1.0709
  906MOL0     H22269   0.048   1.812   9.316  0.7871  0.4438  1.7122
  906MOL0     H22270  -0.340   1.647   9.453  5.4156  0.4769  0.1039
  906MOL0     H22271  -0.634   1.631   9.259 -0.3177 -2.0050  0.6970
  906MOL0     H22272  -0.562   1.586   9.402  1.5632 -0.2501 -2.2650
  906MOL0     H22273  -0.646   1.751   9.395  1.4967  2.2259 -0.3801
  906MOL0     H22274  -0.703   2.060   8.970 -0.5274  1.2457  1.0946
  906MOL0     H22275  -0.871   2.111   8.793 -2.4302 -1.6634  2.9905
  906MOL0     H22276  -1.061   2.023   8.732  1.5017 -1.8110  0.5326
  906MOL0     H22277  -1.018   2.151   8.616 -0.5657 -1.4853 -2.4209
  906MOL0     H22278  -1.222   2.117   8.551  0.3648  1.2396 -5.3318
  906MOL0     H22279  -1.126   1.999   8.445 -1.5885 -1.0497 -0.7702
  906MOL0     H22280  -1.344   1.895   8.562  0.8070 -4.8445 -0.9357
  906MOL0     H22281  -1.257   1.920   8.715 -0.2440 -2.2537  0.7562
  906MOL0     H22282  -1.147   1.761   8.482  0.6674 -4.4434  1.0171
  906MOL0     H22283  -1.093   1.768   8.655  0.6347  0.9250  0.6110
  906MOL0     H22284  -1.338   1.661   8.527 -1.7224  0.6661  1.0544
  906MOL0     H22285  -1.309   1.652   8.708 -0.8958 -1.0222 -0.6385
  906MOL0     H22286  -1.097   1.550   8.516 -0.0544  2.4900  1.9383
  906MOL0     H22287  -1.129   1.496   8.676  0.1064 -0.0221 -0.7762
  906MOL0     H22288  -1.296   1.440   8.423 -0.2443  0.8439 -0.0492
  906MOL0     H22289  -1.347   1.387   8.579  0.4308  2.4086  0.8684
  906MOL0     H22290  -1.174   1.228   8.611 -2.0454  2.5815  2.0339
  906MOL0     H22291  -1.060   1.304   8.508  0.3072 -2.0209  0.7567
  906MOL0     H22292  -0.735   1.797   8.551 -1.1702 -2.7603  2.0233
  906MOL0     H22293  -0.560   1.734   8.732 -1.6654 -1.5036  3.5167
  906MOL0     H22294  -0.298   1.914   9.036  2.0698  0.4829  0.5740
  906MOL0     H22295  -0.111   1.875   9.181 -1.9744  0.9726 -0.9102
  906MOL0     H22296   1.214   0.713  10.178  1.6482  1.4368  0.7094
  906MOL0     H22297   1.352   0.652  10.350  0.3358  1.5136 -0.9058
  906MOL0     H22298   1.428   0.632  10.785 -0.4897 -0.4856 -2.1172
  906MOL0     H22299   1.505   0.617  11.017 -3.9716  1.5935  3.2503
  906MOL0     H22300   1.396   0.258  11.249  1.4436 -0.5229  3.1123
  906MOL0     H22301   1.483   0.350  11.358 -2.6370  0.9078  3.3315
  906MOL0     H22302   1.226   0.327  11.386  0.1623  1.3116  0.8575
  906MOL0     H22303   1.198   0.424  11.245  0.3393  0.8330  0.3198
  906MOL0     H22304   1.166   0.577  11.417  0.4828  0.1528  1.1576
  906MOL0     H22305   1.339   0.601  11.367  1.1473 -2.7347 -1.4088
  906MOL0     H22306   1.418   0.446  11.546  0.5791  2.0267 -1.5202
  906MOL0     H22307   1.246   0.423  11.606 -1.1629  0.1379  0.0108
  906MOL0     H22308   1.359   0.767  11.804 -4.7042  3.3308 -1.4387
  906MOL0     H22309   1.264   0.263  11.060  2.8530 -1.7871  0.1073
  906MOL0     H22310   1.173   0.292  10.837 -0.2489 -0.6689  0.9228
  907MOL0     O22311   8.213   7.406   3.774 -0.2487  0.0868  0.3786
  907MOL0     C22312   8.216   7.344   3.874 -0.2780  0.6113  0.4019
  907MOL0     O22313   8.106   7.318   3.952 -0.0078  0.1369  0.9498
  907MOL0     C22314   7.993   7.389   3.914 -0.4534  0.7038 -0.1705
  907MOL0     C22315   7.888   7.325   3.844 -0.2463 -0.0152 -0.2722
  907MOL0     C22316   7.777   7.391   3.800  0.5277 -0.2417  0.5341
  907MOL0     C22317   7.757   7.521   3.832 -0.8050 -0.3558  0.8634
  907MOL0     O22318   7.635   7.568   3.802  0.4734  0.8323  0.7826
  907MOL0     C22319   7.624   7.712   3.789  0.6441 -0.2495 -0.2090
  907MOL0     C22320   7.474   7.757   3.777 -0.4934  0.1864  1.0550
  907MOL0     C22321   7.387   7.715   3.892  0.2038 -0.1832 -0.0719
  907MOL0     C22322   7.242   7.672   3.849 -0.0175 -0.1925  0.1303
  907MOL0     C22323   7.181   7.566   3.942  0.1486 -0.0114 -0.3595
  907MOL0     C22324   7.059   7.510   3.869  0.4629  0.0885  0.5132
  907MOL0     C22325   6.984   7.421   3.970 -0.0901 -0.7347 -0.7858
  907MOL0     C22326   6.892   7.315   3.895 -0.5194 -0.1227  0.2948
  907MOL0     N22327   6.757   7.382   3.849 -1.0709  0.2009  0.6752
  907MOL0     C22328   6.660   7.308   3.796 -0.5300  0.1015  0.1417
  907MOL0     C22329   6.553   7.390   3.772  0.3294 -0.0905  0.6997
  907MOL0     C22330   6.425   7.370   3.701  0.6537 -0.7051 -0.0442
  907MOL0     C22331   6.321   7.294   3.786 -0.1469  0.3045 -0.1339
  907MOL0     C22332   6.180   7.278   3.725  0.2686  0.7826  1.5209
  907MOL0     C22333   6.174   7.260   3.575 -0.0068 -0.1757  0.5697
  907MOL0     O22334   6.032   7.246   3.524 -0.9535  0.2173 -0.8547
  907MOL0     C22335   6.010   7.255   3.386  0.5730  0.6039 -0.4253
  907MOL0     C22336   6.097   7.320   3.297  0.6978  0.1922 -0.3499
  907MOL0     C22337   6.071   7.333   3.166  0.9476 -0.4921  0.6845
  907MOL0     C22338   6.169   7.408   3.079 -0.8232  0.3909 -0.0746
  907MOL0     C22339   5.952   7.270   3.120 -0.6455 -0.1802 -0.7399
  907MOL0     C22340   5.904   7.280   2.989  0.6197 -0.5304 -0.6072
  907MOL0     O22341   5.764   7.286   2.984  0.3863 -0.0437 -0.0274
  907MOL0     C22342   5.719   7.341   2.866  0.1061 -0.5621 -0.8932
  907MOL0     C22343   5.745   7.475   2.847  0.5226 -0.3556  0.1458
  907MOL0     C22344   5.703   7.539   2.735 -0.2178 -0.4974  0.4668
  907MOL0     C22345   5.625   7.469   2.641 -0.5148 -0.0615 -1.1017
  907MOL0     O22346   5.554   7.529   2.543  0.3097  0.3994  0.5473
  907MOL0     C22347   5.570   7.667   2.501  0.5956  0.0129  0.3090
  907MOL0     C22348   5.708   7.701   2.451 -0.1153  0.2942  0.2514
  907MOL0     C22349   5.695   7.839   2.364 -0.1362  0.1768 -0.3985
  907MOL0     C22350   5.806   7.827   2.252 -0.3351 -0.4785 -0.5624
  907MOL0     C22351   5.781   7.922   2.135 -0.2147  0.3462  0.1781
  907MOL0     C22352   5.778   8.069   2.176  0.7019 -0.7892  0.5427
  907MOL0     C22353   5.749   8.138   2.042 -0.0931  0.3539  0.6101
  907MOL0     C22354   5.738   8.291   2.061  0.2090  0.5614  1.0539
  907MOL0    Cl22355   5.779   8.358   2.218  0.3002 -0.1664 -0.0698
  907MOL0     C22356   5.608   7.332   2.651  0.2476 -0.6138 -0.1057
  907MOL0     C22357   5.646   7.270   2.770 -0.3505 -0.1183  1.1977
  907MOL0     O22358   5.984   7.295   2.894 -0.4450  0.0646 -0.7287
  907MOL0     C22359   5.866   7.202   3.206 -0.1617  0.3161  0.1443
  907MOL0     C22360   5.895   7.204   3.347 -0.3948  0.6246  0.7561
  907MOL0     N22361   6.593   7.510   3.830 -0.1079 -0.0559  0.7271
  907MOL0     N22362   6.706   7.500   3.872 -0.4808  0.0504  0.1220
  907MOL0     C22363   7.859   7.595   3.908 -0.2737 -0.5800  0.0789
  907MOL0     C22364   7.969   7.519   3.955 -0.0274 -0.0513  0.0888
  907MOL0     C22365   8.351   7.278   3.896  0.1753 -0.6782  0.9087
  907MOL0     C22366   8.360   7.176   3.989  0.0106  0.1932 -0.4029
  907MOL0     C22367   8.486   7.114   4.016 -0.2576  0.7968 -0.2043
  907MOL0     C22368   8.600   7.148   3.943  0.2835 -0.2464  0.7284
  907MOL0     O22369   8.714   7.081   3.966  0.2262 -0.5499 -0.3517
  907MOL0     C22370   8.827   7.100   3.888  0.6815 -0.6332  0.2105
  907MOL0     C22371   8.934   7.013   3.940 -0.4619 -0.0503  0.1052
  907MOL0     C22372   9.078   7.062   3.900  0.4125  0.5625 -0.4770
  907MOL0     C22373   9.174   6.969   3.973 -0.8810 -0.3675 -0.6029
  907MOL0     C22374   9.181   6.833   3.917 -0.5208  0.2914 -0.1590
  907MOL0     C22375   9.203   6.729   3.869  0.0505  0.9191  0.3309
  907MOL0     C22376   8.581   7.245   3.850  0.0687 -0.9754 -1.1882
  907MOL0     C22377   8.459   7.311   3.822  0.3393 -1.1150 -0.1001
  907MOL0     H22378   7.883   7.216   3.846  1.1477 -0.0862  1.3734
  907MOL0     H22379   7.713   7.332   3.736 -2.0303  2.3661  0.4957
  907MOL0     H22380   7.658   7.765   3.878 -3.6939  1.9387  0.4170
  907MOL0     H22381   7.673   7.745   3.697  0.3099 -0.5251 -0.4920
  907MOL0     H22382   7.464   7.865   3.766  0.1342 -0.0206 -2.8133
  907MOL0     H22383   7.434   7.720   3.682  1.7290  2.1749 -0.7816
  907MOL0     H22384   7.439   7.643   3.955  0.6288 -0.9174 -1.2262
  907MOL0     H22385   7.387   7.799   3.963  1.1310 -1.5064  1.5637
  907MOL0     H22386   7.178   7.761   3.853  1.5174  1.1910 -2.4954
  907MOL0     H22387   7.250   7.633   3.747 -0.7692 -1.3220  0.4924
  907MOL0     H22388   7.248   7.491   3.983  0.0025 -0.2911 -0.6310
  907MOL0     H22389   7.145   7.623   4.028 -2.1444  0.6067 -1.6311
  907MOL0     H22390   6.996   7.596   3.844  1.7750  1.0151  0.2552
  907MOL0     H22391   7.090   7.459   3.777 -4.4787 -1.5609 -0.5040
  907MOL0     H22392   7.056   7.358   4.023 -1.2041 -0.9894  0.4651
  907MOL0     H22393   6.914   7.479   4.031 -2.8224 -3.0982 -1.4355
  907MOL0     H22394   6.870   7.221   3.946  2.8114  0.1016  2.4317
  907MOL0     H22395   6.957   7.284   3.812 -0.7901 -0.7638  0.3162
  907MOL0     H22396   6.653   7.201   3.785 -2.4145  0.2083 -0.0000
  907MOL0     H22397   6.394   7.473   3.682  0.8250 -0.7621 -0.6323
  907MOL0     H22398   6.443   7.323   3.604 -0.9409  0.8226 -1.1425
  907MOL0     H22399   6.300   7.350   3.877 -2.2621 -1.0515  0.2990
  907MOL0     H22400   6.367   7.197   3.805 -1.6540 -0.0588  2.0555
  907MOL0     H22401   6.124   7.370   3.741 -0.2581  0.9335 -0.9057
  907MOL0     H22402   6.123   7.207   3.785 -0.4768  1.3419  1.4782
  907MOL0     H22403   6.231   7.175   3.538 -2.0592 -1.0448 -0.8251
  907MOL0     H22404   6.212   7.351   3.528 -2.5458  0.4011 -0.5522
  907MOL0     H22405   6.188   7.373   3.324  0.8979  0.5484 -1.6560
  907MOL0     H22406   6.229   7.336   3.022 -0.2132  1.1429 -0.4030
  907MOL0     H22407   6.128   7.471   2.999  0.6858  0.2235 -1.0275
  907MOL0     H22408   6.244   7.464   3.135  0.9596 -1.7000 -0.2386
  907MOL0     H22409   5.799   7.522   2.929  2.0492 -1.7948  0.0159
  907MOL0     H22410   5.722   7.646   2.728  0.2449 -0.5577  0.7328
  907MOL0     H22411   5.492   7.693   2.429 -0.7904  1.0054  2.0777
  907MOL0     H22412   5.545   7.733   2.584 -1.2140 -1.2165  0.7975
  907MOL0     H22413   5.777   7.720   2.534  0.5214 -1.3346  0.1337
  907MOL0     H22414   5.755   7.614   2.405 -0.1237 -1.4116  3.1685
  907MOL0     H22415   5.712   7.927   2.427  0.2272  0.4811 -0.9107
  907MOL0     H22416   5.604   7.842   2.303  1.4968  1.9617 -2.9639
  907MOL0     H22417   5.905   7.848   2.294  0.1991  4.1011 -3.4438
  907MOL0     H22418   5.821   7.726   2.212 -1.6110 -2.0019  2.4765
  907MOL0     H22419   5.686   7.893   2.089 -0.3527 -0.6537  1.0575
  907MOL0     H22420   5.853   7.910   2.054  2.1638 -1.6091  2.4173
  907MOL0     H22421   5.702   8.095   2.250 -0.9208  1.4316 -1.7300
  907MOL0     H22422   5.880   8.097   2.202  0.4009  1.7367 -0.6810
  907MOL0     H22423   5.668   8.090   1.987 -0.1719 -0.2378  1.2196
  907MOL0     H22424   5.830   8.117   1.971  0.9921 -0.4327  2.0330
  907MOL0     H22425   5.640   8.332   2.034 -0.7352  0.3638  3.8149
  907MOL0     H22426   5.808   8.331   1.987 -2.4201 -0.7724 -2.4298
  907MOL0     H22427   5.542   7.289   2.577 -0.7623  2.3979 -1.0738
  907MOL0     H22428   5.619   7.166   2.787  2.5413 -1.0713  0.4731
  907MOL0     H22429   5.779   7.142   3.182  0.7283 -0.9802  0.0618
  907MOL0     H22430   5.833   7.147   3.417 -1.3603  1.3470  0.5123
  907MOL0     H22431   7.864   7.698   3.943  1.0010 -0.7909  0.5763
  907MOL0     H22432   8.039   7.573   4.019 -1.8608  2.1893  0.3503
  907MOL0     H22433   8.277   7.148   4.053  0.8008  0.6167  0.8264
  907MOL0     H22434   8.483   7.033   4.088 -3.8287  1.9133  1.1045
  907MOL0     H22435   8.814   7.074   3.782 -0.2701  0.5474  0.0154
  907MOL0     H22436   8.855   7.206   3.899 -2.1081  0.0787  1.1693
  907MOL0     H22437   8.910   6.913   3.904 -0.3430  0.6333 -1.9948
  907MOL0     H22438   8.934   7.021   4.049 -0.5921  4.3868 -0.0613
  907MOL0     H22439   9.096   7.163   3.938  3.8474 -0.0321 -0.2190
  907MOL0     H22440   9.075   7.062   3.791 -2.6761 -3.1820 -0.6337
  907MOL0     H22441   9.147   6.957   4.078 -0.9114 -1.7177 -0.7349
  907MOL0     H22442   9.275   7.011   3.977 -1.0427  0.0483 -0.9686
  907MOL0     H22443   9.222   6.631   3.829  2.9144  0.5414  2.3099
  907MOL0     H22444   8.661   7.273   3.782 -0.3817 -0.6312 -1.5848
  907MOL0     H22445   8.463   7.383   3.742 -0.4154 -0.2778  0.5967
  908MOL0     O22446   1.611   2.081  10.610  0.1342 -0.0015  1.1276
  908MOL0     C22447   1.614   1.956  10.611 -0.3604  0.1060  0.4658
  908MOL0     O22448   1.713   1.882  10.543  0.4555 -0.6330  0.7195
  908MOL0     C22449   1.814   1.955  10.481  0.0538  1.1517  0.0655
  908MOL0     C22450   1.781   2.015  10.359  0.6325 -0.0548  0.0666
  908MOL0     C22451   1.882   2.085  10.293 -0.5450  0.1377 -0.2671
  908MOL0     C22452   2.001   2.121  10.353 -0.9231  0.4069 -0.5064
  908MOL0     O22453   2.093   2.206  10.303  0.4051  0.4660  0.1523
  908MOL0     C22454   2.047   2.304  10.210  0.3538 -0.4574  0.5548
  908MOL0     C22455   2.152   2.419  10.191  0.4633 -0.7512 -0.2035
  908MOL0     C22456   2.135   2.508  10.065 -0.3159 -1.3235  0.3997
  908MOL0     C22457   2.212   2.464   9.941 -0.7554  0.2185 -0.1564
  908MOL0     C22458   2.342   2.538   9.920 -0.4387 -0.2140 -0.4010
  908MOL0     C22459   2.456   2.478  10.001  0.1548 -0.4156  0.5246
  908MOL0     C22460   2.588   2.559   9.998  0.7983  0.6866  0.2070
  908MOL0     C22461   2.716   2.481  10.042 -0.4862 -0.7032  0.0215
  908MOL0     N22462   2.749   2.477  10.189 -0.6070  0.0780  0.2173
  908MOL0     C22463   2.720   2.364  10.263  0.0748  0.5177  0.2042
  908MOL0     C22464   2.802   2.379  10.378  0.3789 -0.3968  0.7947
  908MOL0     C22465   2.806   2.283  10.492  0.5020 -0.2491  0.0704
  908MOL0     C22466   2.930   2.203  10.468 -0.6432  0.8246 -0.4460
  908MOL0     C22467   2.975   2.134  10.602  0.7128  0.8057  0.3144
  908MOL0     C22468   3.124   2.147  10.627  0.8432  0.4377  0.5247
  908MOL0     O22469   3.211   2.106  10.521 -0.2738  1.0156 -0.3806
  908MOL0     C22470   3.351   2.126  10.530  0.5994 -1.3286  0.1396
  908MOL0     C22471   3.420   2.167  10.648  0.8088  0.1554  0.5404
  908MOL0     C22472   3.552   2.199  10.642 -0.4427 -0.9714  0.7444
  908MOL0     C22473   3.628   2.272  10.754  0.6499  0.2398  0.4941
  908MOL0     C22474   3.623   2.174  10.521  0.0317  0.1351 -1.1501
  908MOL0     C22475   3.776   2.177  10.507  0.0307  0.5652 -0.4239
  908MOL0     O22476   3.821   2.203  10.380 -0.7000 -1.0349 -0.2352
  908MOL0     C22477   3.954   2.199  10.337  0.2947 -0.8059  0.2932
  908MOL0     C22478   3.982   2.207  10.196 -0.6068  0.2132 -0.0217
  908MOL0     C22479   4.115   2.194  10.150  0.2770  0.5930 -0.6817
  908MOL0     C22480   4.223   2.185  10.223  0.1626 -0.5215  0.2897
  908MOL0     O22481   4.346   2.169  10.170 -0.0457  0.1608  0.3941
  908MOL0     C22482   4.411   2.050  10.198  0.7845 -1.0314  0.2998
  908MOL0     C22483   4.493   1.997  10.079  0.4392 -0.5487  0.0866
  908MOL0     C22484   4.400   1.986   9.953 -0.0274  0.7323  0.1657
  908MOL0     C22485   4.483   1.917   9.844 -0.4979 -0.2939 -0.3776
  908MOL0     C22486   4.399   1.859   9.742  0.6243  0.2407  0.6092
  908MOL0     C22487   4.463   1.767   9.636 -0.2445  0.6557  0.3839
  908MOL0     C22488   4.568   1.852   9.548 -0.4096 -0.4031  0.3187
  908MOL0     C22489   4.618   1.781   9.427 -0.4156 -0.7837 -0.7258
  908MOL0    Cl22490   4.707   1.627   9.468 -0.2605 -0.0453  0.4004
  908MOL0     C22491   4.203   2.193  10.365 -0.3804  0.8380  0.4607
  908MOL0     C22492   4.070   2.196  10.418 -0.6816  0.4202 -0.6134
  908MOL0     O22493   3.851   2.158  10.601 -0.9005  0.1680  0.5628
  908MOL0     C22494   3.560   2.132  10.403  0.2589 -0.1636  0.3358
  908MOL0     C22495   3.422   2.125  10.410  0.5371 -0.2307  0.0258
  908MOL0     N22496   2.871   2.496  10.374 -0.1296  1.0968  0.1672
  908MOL0     N22497   2.836   2.556  10.259 -0.8437 -0.5471  0.2935
  908MOL0     C22498   2.033   2.059  10.474 -0.4328 -0.7508 -0.8294
  908MOL0     C22499   1.937   1.980  10.541  0.4863  0.5358 -0.6992
  908MOL0     C22500   1.508   1.880  10.675 -0.4424  0.0195  0.4403
  908MOL0     C22501   1.424   1.944  10.762 -0.9951  0.7110 -0.3938
  908MOL0     C22502   1.337   1.857  10.833  0.4127  0.0824 -0.1547
  908MOL0     C22503   1.304   1.730  10.789 -0.4700  0.8961  0.3763
  908MOL0     O22504   1.192   1.675  10.844  0.1571  0.4834  0.7896
  908MOL0     C22505   1.121   1.574  10.766 -0.5794 -0.4666  0.6637
  908MOL0     C22506   1.067   1.643  10.631  0.0366  0.0130 -0.5211
  908MOL0     C22507   1.067   1.544  10.517 -0.7895  0.6409 -0.1807
  908MOL0     C22508   0.989   1.591  10.391  0.4346  0.0773 -0.9897
  908MOL0     C22509   0.839   1.581  10.385  0.5647  0.7261  0.6535
  908MOL0     C22510   0.722   1.574  10.373  0.8704 -0.1442 -0.1925
  908MOL0     C22511   1.378   1.677  10.686 -0.0804  0.8343  0.3645
  908MOL0     C22512   1.484   1.750  10.628  1.4263 -0.8955  1.1621
  908MOL0     H22513   1.684   2.002  10.312 -1.3837  2.0994  3.1716
  908MOL0     H22514   1.851   2.145  10.207  0.1091  3.0340  1.3805
  908MOL0     H22515   2.025   2.259  10.113 -3.1671  0.7997  0.6325
  908MOL0     H22516   1.953   2.346  10.245 -0.5745 -2.0624  0.0973
  908MOL0     H22517   2.127   2.479  10.279 -0.0474 -1.0781 -0.1154
  908MOL0     H22518   2.250   2.370  10.186  1.1254  0.5304 -0.0270
  908MOL0     H22519   2.027   2.518  10.057 -0.3603  1.6269  2.7684
  908MOL0     H22520   2.164   2.609  10.093 -2.7032 -0.9445  1.8112
  908MOL0     H22521   2.239   2.360   9.962  0.0953  1.0108  3.1228
  908MOL0     H22522   2.146   2.486   9.857 -1.4908  2.5223  0.9532
  908MOL0     H22523   2.373   2.530   9.815 -0.0759  0.8221 -0.3855
  908MOL0     H22524   2.328   2.644   9.944  0.6415 -0.4340  1.4128
  908MOL0     H22525   2.428   2.472  10.106  0.7345  1.9286  0.8611
  908MOL0     H22526   2.474   2.374   9.972 -0.1876 -0.3170 -0.0632
  908MOL0     H22527   2.600   2.601   9.898 -0.6143  2.0096  0.5453
  908MOL0     H22528   2.585   2.641  10.071 -0.2044  1.3261 -0.5402
  908MOL0     H22529   2.793   2.533   9.984 -2.0792  1.7315 -0.0581
  908MOL0     H22530   2.720   2.383   9.995 -0.1632 -0.5425 -0.2928
  908MOL0     H22531   2.639   2.295  10.241  0.8361 -0.1729 -0.4901
  908MOL0     H22532   2.817   2.335  10.587  0.2072 -1.2680  0.6805
  908MOL0     H22533   2.723   2.213  10.483  0.4536 -0.2104  0.2243
  908MOL0     H22534   3.015   2.262  10.430 -0.6702 -0.2606 -2.3217
  908MOL0     H22535   2.907   2.126  10.394 -3.4889  0.6930  0.4844
  908MOL0     H22536   2.960   2.026  10.592 -0.1224  1.0984 -3.3451
  908MOL0     H22537   2.928   2.178  10.690  2.3849  0.9714  1.1686
  908MOL0     H22538   3.162   2.098  10.717  0.8310  3.0469  2.0702
  908MOL0     H22539   3.158   2.248  10.653  1.7015  1.6299 -4.2529
  908MOL0     H22540   3.367   2.187  10.740  1.9459  2.8347  0.7163
  908MOL0     H22541   3.680   2.353  10.702  0.1520 -2.0284 -4.0564
  908MOL0     H22542   3.548   2.322  10.808  1.9327  1.1263  1.6506
  908MOL0     H22543   3.679   2.206  10.825 -0.0941 -1.1345 -0.2126
  908MOL0     H22544   3.910   2.223  10.116 -0.4414  0.9835 -0.0252
  908MOL0     H22545   4.133   2.199  10.043 -2.3494  1.5750 -1.1773
  908MOL0     H22546   4.480   2.077  10.278 -0.9840 -0.7489  1.7843
  908MOL0     H22547   4.341   1.974  10.235  0.6802 -3.0136 -3.4087
  908MOL0     H22548   4.573   2.072  10.073  1.2668 -1.5330 -1.9764
  908MOL0     H22549   4.528   1.900  10.112 -1.3745 -1.1035  0.5193
  908MOL0     H22550   4.383   2.085   9.910  1.0552  1.1844  0.7217
  908MOL0     H22551   4.304   1.936   9.968  0.6798 -1.3410 -1.7627
  908MOL0     H22552   4.563   1.981   9.807  0.7634 -0.8833  1.2127
  908MOL0     H22553   4.536   1.826   9.875  1.0317 -0.2046 -2.4700
  908MOL0     H22554   4.359   1.945   9.687  0.3526 -0.4226 -0.2465
  908MOL0     H22555   4.314   1.814   9.793  0.6622  0.5689  0.9690
  908MOL0     H22556   4.510   1.676   9.675  0.9120  0.3706 -1.5505
  908MOL0     H22557   4.392   1.724   9.565 -0.2122 -1.3679  1.4909
  908MOL0     H22558   4.649   1.873   9.618  1.0639 -2.1048 -0.7758
  908MOL0     H22559   4.514   1.943   9.522 -2.5043 -1.3243  1.2045
  908MOL0     H22560   4.688   1.845   9.373 -2.0684  0.0563 -1.9585
  908MOL0     H22561   4.540   1.760   9.354 -0.2397  0.3483 -1.2614
  908MOL0     H22562   4.283   2.192  10.438 -1.6767 -0.8858  1.9415
  908MOL0     H22563   4.076   2.198  10.527  0.0399  0.6181 -0.6513
  908MOL0     H22564   3.602   2.123  10.303 -0.1815 -4.3109  0.3638
  908MOL0     H22565   3.369   2.108  10.317 -1.3494  0.8662  0.8507
  908MOL0     H22566   2.131   2.089  10.510  0.1482 -0.2596 -2.7057
  908MOL0     H22567   1.947   1.919  10.629  3.4287  0.1008 -1.2242
  908MOL0     H22568   1.442   2.049  10.784  1.3794  0.4303 -0.7652
  908MOL0     H22569   1.282   1.890  10.920 -2.3674 -0.7828 -1.4899
  908MOL0     H22570   1.184   1.488  10.741  2.1400  1.6926 -0.4709
  908MOL0     H22571   1.034   1.537  10.821 -1.9394 -0.7440 -1.5268
  908MOL0     H22572   1.128   1.729  10.599  1.9152 -0.7087  0.9398
  908MOL0     H22573   0.965   1.679  10.645 -1.5855 -3.8380 -1.2047
  908MOL0     H22574   1.019   1.451  10.550  2.2767 -0.7724  0.6382
  908MOL0     H22575   1.173   1.522  10.499 -0.8538 -0.7708  1.0018
  908MOL0     H22576   1.019   1.522  10.311 -1.8234  0.7040 -2.4511
  908MOL0     H22577   1.018   1.692  10.362  0.9429  0.4082  0.5834
  908MOL0     H22578   0.617   1.588  10.356  1.4760  0.9191 -4.1298
  908MOL0     H22579   1.365   1.578  10.643  0.0266  0.6455  0.7682
  908MOL0     H22580   1.537   1.704  10.545 -2.3903 -3.5699 -0.0392
  909MOL0     O22581   8.598   5.526   7.307 -0.3094 -0.4339 -0.2349
  909MOL0     C22582   8.648   5.492   7.199  0.0010 -0.0977 -0.6583
  909MOL0     O22583   8.593   5.498   7.069  0.1654 -0.3525 -0.4973
  909MOL0     C22584   8.472   5.566   7.056  0.9187  0.6934  0.6466
  909MOL0     C22585   8.375   5.508   6.975  0.4231  0.3302  0.0107
  909MOL0     C22586   8.247   5.561   6.956  0.4682 -0.4230  0.3267
  909MOL0     C22587   8.214   5.674   7.015 -0.1395  0.1829  0.4018
  909MOL0     O22588   8.089   5.719   6.992  0.9239 -0.8542  0.2407
  909MOL0     C22589   8.070   5.861   6.963  1.0746  0.8090  0.1030
  909MOL0     C22590   8.092   5.911   6.822 -0.1783 -0.0147  0.9656
  909MOL0     C22591   8.052   5.816   6.713 -0.0776  1.1327 -0.0669
  909MOL0     C22592   7.900   5.796   6.723  0.1132  0.5643  0.5362
  909MOL0     C22593   7.839   5.701   6.619 -0.4309  0.0469 -0.7918
  909MOL0     C22594   7.851   5.766   6.479  0.1705  0.0826  0.1294
  909MOL0     C22595   7.752   5.882   6.464  0.7246  0.0789  0.3985
  909MOL0     C22596   7.600   5.854   6.481  0.0531  0.1959 -0.0324
  909MOL0     N22597   7.511   5.974   6.432  0.8177 -0.2378  0.4487
  909MOL0     C22598   7.414   6.031   6.514  0.3830 -0.7467  0.1863
  909MOL0     C22599   7.370   6.125   6.433 -0.5924  0.7619 -0.5603
  909MOL0     C22600   7.256   6.206   6.479 -0.2723 -0.1836 -0.3281
  909MOL0     C22601   7.193   6.166   6.614  0.1219 -0.2787 -1.4134
  909MOL0     C22602   7.071   6.248   6.650  0.3850 -0.1537  0.3248
  909MOL0     C22603   7.106   6.363   6.748 -0.6962 -0.6027  0.2173
  909MOL0     O22604   7.160   6.327   6.873 -0.3599 -0.2310 -0.2230
  909MOL0     C22605   7.075   6.273   6.961 -0.3579  0.0105 -1.2923
  909MOL0     C22606   7.135   6.227   7.079  0.4678  0.1414 -0.2522
  909MOL0     C22607   7.063   6.177   7.185 -0.3683 -0.4745 -0.4938
  909MOL0     C22608   7.134   6.156   7.324 -0.5845  0.1511  0.3342
  909MOL0     C22609   6.920   6.167   7.175  0.8611  0.1096  0.4366
  909MOL0     C22610   6.831   6.121   7.281 -0.5851  0.6067  0.0165
  909MOL0     O22611   6.705   6.155   7.269  0.8664  0.4841  0.1178
  909MOL0     C22612   6.597   6.085   7.342 -0.3170  0.6060  0.6226
  909MOL0     C22613   6.471   6.125   7.307 -0.0861  1.0808 -0.8556
  909MOL0     C22614   6.353   6.041   7.339 -0.5588 -0.5763 -0.3248
  909MOL0     C22615   6.373   5.933   7.430 -1.0783 -0.3933  0.5266
  909MOL0     O22616   6.270   5.842   7.461 -0.3087  0.2011  0.1293
  909MOL0     C22617   6.184   5.893   7.565 -0.6041  0.5968  0.6232
  909MOL0     C22618   6.167   5.779   7.672 -0.6199  0.5745  0.6547
  909MOL0     C22619   6.107   5.801   7.810 -0.0955  0.2140 -0.3848
  909MOL0     C22620   5.957   5.803   7.805 -0.5622 -0.2537 -0.1590
  909MOL0     C22621   5.908   5.828   7.944 -0.0001  0.4959 -0.1629
  909MOL0     C22622   5.755   5.862   7.958 -0.5684  0.1263  0.2544
  909MOL0     C22623   5.723   5.871   8.110 -0.1768 -0.4864  0.6415
  909MOL0     C22624   5.594   5.938   8.132  0.1919  0.8529  0.6254
  909MOL0    Cl22625   5.583   6.029   8.278 -0.1704 -0.2898 -0.4014
  909MOL0     C22626   6.501   5.899   7.469  0.5046 -0.1688 -0.1253
  909MOL0     C22627   6.608   5.970   7.430  0.4355 -0.1579 -0.8569
  909MOL0     O22628   6.883   6.048   7.367  0.9385  0.0256 -0.1403
  909MOL0     C22629   6.865   6.204   7.050  0.1149 -0.5257 -0.2322
  909MOL0     C22630   6.942   6.264   6.948  0.1113  0.1320 -0.6674
  909MOL0     N22631   7.458   6.142   6.328  0.7486  0.3014  0.8156
  909MOL0     N22632   7.538   6.039   6.319  0.4696 -0.0676 -0.6986
  909MOL0     C22633   8.308   5.735   7.098 -0.5519 -0.5749 -0.7760
  909MOL0     C22634   8.439   5.688   7.119  0.2352 -0.1710  0.8399
  909MOL0     C22635   8.786   5.440   7.203  0.4981 -0.1921 -0.1141
  909MOL0     C22636   8.864   5.441   7.319  0.2436 -0.0606 -0.0061
  909MOL0     C22637   8.986   5.388   7.325 -0.0293  0.0719  0.6273
  909MOL0     C22638   9.033   5.311   7.218 -0.2908  0.2434  0.2158
  909MOL0     O22639   9.145   5.224   7.222  0.2476 -0.2899 -0.4413
  909MOL0     C22640   9.276   5.261   7.273  0.4543 -0.7219  0.3188
  909MOL0     C22641   9.376   5.256   7.163 -0.3014  0.1178 -0.6567
  909MOL0     C22642   9.346   5.364   7.058 -0.1124 -0.0622 -1.2968
  909MOL0     C22643   9.451   5.395   6.958  0.5367  0.2914  0.4984
  909MOL0     C22644   9.421   5.515   6.877 -0.3494  1.1543  0.3562
  909MOL0     C22645   9.388   5.605   6.805  0.0721  0.6216 -0.2977
  909MOL0     C22646   8.959   5.306   7.104 -0.8033 -0.3213 -0.2314
  909MOL0     C22647   8.838   5.377   7.086 -0.2874  0.7027  0.4862
  909MOL0     H22648   8.402   5.411   6.934  0.6318  0.8502 -1.1446
  909MOL0     H22649   8.181   5.499   6.897  0.6780  0.9673 -1.4538
  909MOL0     H22650   7.965   5.877   6.989  0.3795 -2.9660  0.1794
  909MOL0     H22651   8.117   5.925   7.039  0.2745  2.2676 -0.5838
  909MOL0     H22652   8.038   6.004   6.802 -0.8911 -0.9965 -2.3216
  909MOL0     H22653   8.199   5.932   6.815  0.5843 -3.7333 -2.3658
  909MOL0     H22654   8.092   5.857   6.620 -2.5857  1.3660 -1.1286
  909MOL0     H22655   8.096   5.716   6.720 -0.0460  0.9322 -2.3255
  909MOL0     H22656   7.875   5.774   6.828  1.8048 -0.2475  0.8090
  909MOL0     H22657   7.859   5.895   6.700  1.1044  1.2120  1.4480
  909MOL0     H22658   7.887   5.604   6.634  0.7261  0.9900  2.4167
  909MOL0     H22659   7.736   5.684   6.652  0.1892  0.3964  1.4972
  909MOL0     H22660   7.954   5.794   6.454  0.6620 -1.9109 -0.2317
  909MOL0     H22661   7.806   5.694   6.410 -0.8569  3.4472 -3.0395
  909MOL0     H22662   7.766   5.972   6.524  0.3055  0.2344  0.2632
  909MOL0     H22663   7.765   5.923   6.364 -2.1928  1.3527  0.4455
  909MOL0     H22664   7.593   5.824   6.586  0.9691  0.7639  0.2109
  909MOL0     H22665   7.569   5.768   6.422 -3.7562 -2.7783  5.4192
  909MOL0     H22666   7.394   6.006   6.618  0.0530 -1.9091 -0.1463
  909MOL0     H22667   7.292   6.308   6.494  1.1742 -0.5213 -1.2547
  909MOL0     H22668   7.193   6.216   6.390 -0.3716  0.9633 -0.1436
  909MOL0     H22669   7.266   6.176   6.695 -0.1981  1.3950 -1.2920
  909MOL0     H22670   7.154   6.066   6.595  1.9744 -1.1356 -0.9447
  909MOL0     H22671   7.002   6.174   6.693  1.6929 -0.6877  1.6048
  909MOL0     H22672   7.030   6.310   6.570 -1.3885 -0.6202  0.8283
  909MOL0     H22673   7.027   6.438   6.744 -1.2536 -1.0772 -5.1695
  909MOL0     H22674   7.177   6.430   6.699 -3.1193  1.3388 -0.8647
  909MOL0     H22675   7.243   6.234   7.090  0.4949 -1.5906  0.9662
  909MOL0     H22676   7.069   6.218   7.385  0.0082  0.5458  0.5774
  909MOL0     H22677   7.129   6.050   7.351  1.2705 -0.5031 -1.5808
  909MOL0     H22678   7.233   6.203   7.322 -1.6620  2.7688  2.5824
  909MOL0     H22679   6.457   6.207   7.237  1.2455 -0.8499 -3.5869
  909MOL0     H22680   6.248   6.055   7.315 -0.7088 -2.8465 -1.2957
  909MOL0     H22681   6.215   5.983   7.619 -2.4119  0.4426  2.0180
  909MOL0     H22682   6.088   5.911   7.516  0.5060  0.1151 -1.8943
  909MOL0     H22683   6.115   5.706   7.609  0.8216  0.0491  0.0333
  909MOL0     H22684   6.266   5.735   7.684  0.1501  1.3908 -2.0589
  909MOL0     H22685   6.151   5.896   7.844  1.9304 -1.2835  1.4320
  909MOL0     H22686   6.141   5.715   7.869  0.3675 -0.8797 -2.1676
  909MOL0     H22687   5.918   5.875   7.734  1.2522  2.2062  1.1900
  909MOL0     H22688   5.920   5.704   7.775  0.4607 -0.5808 -0.3935
  909MOL0     H22689   5.969   5.905   7.992  1.9035  0.2497 -2.0584
  909MOL0     H22690   5.928   5.734   7.997  1.0354  0.1761 -1.0859
  909MOL0     H22691   5.741   5.961   7.914 -1.2197 -0.1625 -0.2162
  909MOL0     H22692   5.691   5.789   7.907 -3.8972  3.1762 -0.2731
  909MOL0     H22693   5.793   5.938   8.160 -3.2773  1.3453  2.8806
  909MOL0     H22694   5.723   5.776   8.165  2.0889 -2.0964 -1.8987
  909MOL0     H22695   5.508   5.873   8.111  2.8837 -3.4136  1.6485
  909MOL0     H22696   5.593   6.019   8.058  1.6829  2.2560  2.0663
  909MOL0     H22697   6.524   5.806   7.520  2.6382 -0.4545 -1.4712
  909MOL0     H22698   6.701   5.932   7.470  0.3108 -0.4257 -0.8156
  909MOL0     H22699   6.758   6.209   7.038  0.2483  1.1607 -1.0721
  909MOL0     H22700   6.890   6.298   6.859  2.0095  0.8503 -1.5379
  909MOL0     H22701   8.282   5.829   7.146  1.4145 -1.8501  3.2965
  909MOL0     H22702   8.511   5.742   7.180 -0.1642  0.5824  0.6649
  909MOL0     H22703   8.816   5.486   7.405  2.8949  0.0891  1.4928
  909MOL0     H22704   9.042   5.413   7.415 -0.1434  2.1600  0.1765
  909MOL0     H22705   9.268   5.356   7.327  0.6515 -1.4049  1.5816
  909MOL0     H22706   9.291   5.182   7.347 -2.1131 -1.7238 -0.1159
  909MOL0     H22707   9.373   5.158   7.116  4.1540  0.1872 -1.5697
  909MOL0     H22708   9.473   5.270   7.214 -0.9639 -0.3357  0.7794
  909MOL0     H22709   9.322   5.457   7.110  1.9153 -0.7657  1.0391
  909MOL0     H22710   9.257   5.323   7.008  0.3392 -0.9585 -1.3860
  909MOL0     H22711   9.448   5.312   6.886  2.4861 -0.5283  1.2783
  909MOL0     H22712   9.552   5.397   7.000  0.3348  2.9982  0.9749
  909MOL0     H22713   9.362   5.693   6.749 -0.2475  0.7054 -0.0169
  909MOL0     H22714   9.007   5.276   7.012 -0.3989 -1.1455  0.2425
  909MOL0     H22715   8.792   5.381   6.987 -2.0269  1.6156  1.2825
  910MOL0     O22716   5.458   1.623   3.984  1.0816  0.1459  1.3312
  910MOL0     C22717   5.389   1.609   4.083  0.7941 -1.0078 -0.3378
  910MOL0     O22718   5.435   1.595   4.212  0.9076 -0.1456 -0.6850
  910MOL0     C22719   5.570   1.575   4.223  0.0595 -0.6297  0.0842
  910MOL0     C22720   5.644   1.694   4.252 -0.2108  1.4125 -0.5176
  910MOL0     C22721   5.779   1.693   4.256 -0.0728 -0.0238  0.7548
  910MOL0     C22722   5.846   1.568   4.242 -0.0941 -0.2736  0.2857
  910MOL0     O22723   5.978   1.544   4.247 -0.0084  0.5242  0.2287
  910MOL0     C22724   6.056   1.657   4.262  0.5194 -0.0374  0.4998
  910MOL0     C22725   6.204   1.619   4.262  1.0306 -0.1608  1.0937
  910MOL0     C22726   6.284   1.745   4.267  1.6411  0.7943 -0.0887
  910MOL0     C22727   6.377   1.766   4.389  0.0487  0.2453  0.1029
  910MOL0     C22728   6.481   1.653   4.406  0.2722 -0.5790 -0.7743
  910MOL0     C22729   6.569   1.670   4.534  0.7338 -0.7145  0.4806
  910MOL0     C22730   6.687   1.572   4.550  1.1119 -0.1266  0.3690
  910MOL0     C22731   6.787   1.623   4.657  0.3621 -0.4777  0.7892
  910MOL0     N22732   6.917   1.549   4.665  0.2936  0.0695  0.9382
  910MOL0     C22733   7.023   1.566   4.745 -0.0297  0.3193  0.6404
  910MOL0     C22734   7.115   1.468   4.720  0.2813  0.1075 -0.5995
  910MOL0     C22735   7.250   1.435   4.784  0.7852 -0.4379 -0.9610
  910MOL0     C22736   7.229   1.356   4.913  0.0087  0.3458 -1.1457
  910MOL0     C22737   7.183   1.427   5.028  0.1356 -0.2829 -0.0504
  910MOL0     C22738   7.283   1.499   5.110  0.4974  0.6906  0.8374
  910MOL0     O22739   7.242   1.559   5.232 -1.4165  0.4299  0.3696
  910MOL0     C22740   7.336   1.626   5.305 -0.2341  0.3559 -0.2370
  910MOL0     C22741   7.289   1.694   5.420 -0.4150  0.1464 -0.7477
  910MOL0     C22742   7.381   1.755   5.506 -0.0193 -0.5901 -0.5412
  910MOL0     C22743   7.339   1.816   5.634  1.6024 -0.2379  0.1180
  910MOL0     C22744   7.516   1.757   5.469  0.0872  0.9407 -0.7986
  910MOL0     C22745   7.620   1.835   5.547  0.1981  0.5164  0.2282
  910MOL0     O22746   7.747   1.773   5.555  0.1752  0.1476 -0.2873
  910MOL0     C22747   7.850   1.836   5.611  0.6540  0.4081 -0.1415
  910MOL0     C22748   7.887   1.791   5.740  0.3283 -0.1326  0.7189
  910MOL0     C22749   7.986   1.851   5.816  0.2319 -0.4000  0.2060
  910MOL0     C22750   8.057   1.954   5.756 -0.1755 -0.4790  0.2159
  910MOL0     O22751   8.158   2.008   5.832  0.5444 -0.0731  0.5079
  910MOL0     C22752   8.248   2.114   5.783 -0.1978 -1.0595  0.0632
  910MOL0     C22753   8.379   2.141   5.856 -0.1434 -0.6655 -0.0931
  910MOL0     C22754   8.471   2.021   5.838 -0.8293 -0.4967  0.9816
  910MOL0     C22755   8.573   2.039   5.946 -0.3361  0.2783 -0.4396
  910MOL0     C22756   8.642   1.905   5.968  0.4143  0.4380 -0.1507
  910MOL0     C22757   8.562   1.825   6.072 -0.1309 -0.9245 -0.0879
  910MOL0     C22758   8.623   1.687   6.079 -0.8927 -0.5873  0.0885
  910MOL0     C22759   8.535   1.611   6.177 -0.1215  0.8177 -0.1142
  910MOL0    Cl22760   8.621   1.457   6.211 -0.0747 -0.0562 -0.0443
  910MOL0     C22761   8.031   1.993   5.624  0.1876  0.7607 -0.4202
  910MOL0     C22762   7.919   1.934   5.550 -0.4319  0.1969  0.6891
  910MOL0     O22763   7.589   1.949   5.576 -0.1446  0.4283 -0.4176
  910MOL0     C22764   7.557   1.699   5.354 -0.4860  0.5478 -0.7315
  910MOL0     C22765   7.473   1.632   5.269 -1.0056 -0.4837  0.2275
  910MOL0     N22766   7.062   1.400   4.607  0.1808  0.3003 -0.4958
  910MOL0     N22767   6.942   1.443   4.580  0.7297 -0.2294 -0.4059
  910MOL0     C22768   5.777   1.456   4.210  0.2047 -0.8168 -0.7272
  910MOL0     C22769   5.639   1.463   4.195  1.1645  0.1267 -1.1545
  910MOL0     C22770   5.235   1.608   4.070  0.1445 -0.5438 -0.2744
  910MOL0     C22771   5.158   1.628   4.188 -0.3436 -0.2756 -0.5365
  910MOL0     C22772   5.025   1.625   4.186 -0.2341 -0.0649 -0.1119
  910MOL0     C22773   4.956   1.602   4.066  0.2182 -0.2388  0.2516
  910MOL0     O22774   4.821   1.592   4.055  0.2728 -0.6110 -1.3204
  910MOL0     C22775   4.733   1.662   4.150  0.4600  0.2282 -0.2134
  910MOL0     C22776   4.594   1.632   4.085  0.4885 -0.1968 -1.2194
  910MOL0     C22777   4.575   1.713   3.952  0.2629 -1.2535 -0.0868
  910MOL0     C22778   4.428   1.702   3.894 -0.6819 -0.3013  0.0087
  910MOL0     C22779   4.454   1.705   3.749  0.0653  0.9603  0.3308
  910MOL0     C22780   4.467   1.709   3.633  0.9025  0.0675 -0.1108
  910MOL0     C22781   5.026   1.589   3.950 -0.4490 -0.4802  0.5890
  910MOL0     C22782   5.169   1.600   3.949 -0.0962  0.0548  0.6924
  910MOL0     H22783   5.595   1.790   4.263 -2.5796 -0.0288  3.1683
  910MOL0     H22784   5.825   1.789   4.275  0.3931 -0.0820 -0.0189
  910MOL0     H22785   6.039   1.727   4.180  2.2873  1.1610  1.0903
  910MOL0     H22786   6.019   1.702   4.354  0.7481  2.0635 -0.3884
  910MOL0     H22787   6.222   1.551   4.345 -1.6100 -2.5580 -0.1422
  910MOL0     H22788   6.221   1.568   4.167 -4.4032  0.5863 -0.6213
  910MOL0     H22789   6.336   1.738   4.171 -0.4079 -0.5578 -1.1687
  910MOL0     H22790   6.211   1.825   4.257  0.6721 -0.0225  0.2637
  910MOL0     H22791   6.419   1.866   4.370 -2.0549  0.6624 -3.1013
  910MOL0     H22792   6.321   1.772   4.483 -2.6768 -1.3708 -1.3128
  910MOL0     H22793   6.437   1.553   4.410  3.3603 -2.0248 -0.3252
  910MOL0     H22794   6.552   1.660   4.323  1.4034  2.9007  0.3193
  910MOL0     H22795   6.608   1.770   4.516 -0.8580  0.2285  1.9910
  910MOL0     H22796   6.512   1.682   4.627  1.6652 -4.1140  1.6616
  910MOL0     H22797   6.649   1.474   4.582  4.1049 -1.7444 -0.6779
  910MOL0     H22798   6.738   1.552   4.456 -3.7620 -1.1362 -2.3685
  910MOL0     H22799   6.743   1.628   4.757 -2.3338  1.8272 -0.3646
  910MOL0     H22800   6.812   1.723   4.621 -1.2532 -0.7919 -1.4155
  910MOL0     H22801   7.027   1.642   4.821  0.4007 -0.6135  1.5721
  910MOL0     H22802   7.327   1.391   4.721  0.5654 -3.4434  0.6861
  910MOL0     H22803   7.298   1.532   4.803  1.3594 -0.6897 -1.1365
  910MOL0     H22804   7.321   1.301   4.937 -0.4228  1.0583  2.8033
  910MOL0     H22805   7.161   1.280   4.876  1.6407  0.6287 -5.2674
  910MOL0     H22806   7.143   1.351   5.096  1.2404 -2.0877 -1.3263
  910MOL0     H22807   7.108   1.503   5.004  0.1263 -0.2939 -0.0574
  910MOL0     H22808   7.328   1.572   5.042 -1.3796 -0.1160 -1.3948
  910MOL0     H22809   7.355   1.425   5.146 -0.9765 -0.2752  1.9056
  910MOL0     H22810   7.182   1.679   5.437 -0.6550  2.9237  0.8468
  910MOL0     H22811   7.337   1.925   5.636 -0.8291 -0.1417 -1.9333
  910MOL0     H22812   7.247   1.769   5.671  1.2979 -1.2216 -1.7433
  910MOL0     H22813   7.409   1.791   5.715 -0.5662 -0.3769  2.0643
  910MOL0     H22814   7.823   1.718   5.789  0.4416  1.7829  4.0201
  910MOL0     H22815   8.010   1.823   5.918  1.5253 -1.5290 -0.3854
  910MOL0     H22816   8.275   2.088   5.680 -2.4607 -1.7224 -0.4107
  910MOL0     H22817   8.191   2.208   5.781 -2.7788 -2.5468 -0.9684
  910MOL0     H22818   8.427   2.229   5.814  0.3101 -1.1856 -0.6878
  910MOL0     H22819   8.356   2.153   5.962 -1.4693  0.6871 -0.4993
  910MOL0     H22820   8.536   2.036   5.752 -2.8695 -3.2905 -1.2738
  910MOL0     H22821   8.430   1.921   5.823  0.3589 -0.8821  0.1472
  910MOL0     H22822   8.644   2.117   5.919 -1.4108  0.1591 -4.1354
  910MOL0     H22823   8.526   2.066   6.041 -1.1039 -1.3555 -0.3074
  910MOL0     H22824   8.738   1.927   6.016  1.8106 -0.0436 -2.5670
  910MOL0     H22825   8.664   1.857   5.873  0.8579  1.2276 -0.4539
  910MOL0     H22826   8.551   1.868   6.173  1.6420  0.5726 -0.4754
  910MOL0     H22827   8.459   1.814   6.038  0.2141 -2.9086 -0.5927
  910MOL0     H22828   8.721   1.693   6.128 -2.4141  1.0168  3.2900
  910MOL0     H22829   8.627   1.648   5.977 -3.5817  1.0080 -0.7303
  910MOL0     H22830   8.447   1.572   6.124 -0.3742  2.6677 -1.1279
  910MOL0     H22831   8.513   1.672   6.265 -0.9157  0.3765  0.0059
  910MOL0     H22832   8.103   2.068   5.596  1.8177  0.1573  1.9154
  910MOL0     H22833   7.897   1.972   5.451 -1.2608 -1.2562  0.2890
  910MOL0     H22834   7.661   1.707   5.324 -0.1184  0.5916  0.5076
  910MOL0     H22835   7.519   1.593   5.178  0.4801  0.9159  0.3352
  910MOL0     H22836   5.812   1.354   4.203  0.0031 -0.9758  0.4132
  910MOL0     H22837   5.591   1.370   4.167  1.6091  0.6175 -3.7208
  910MOL0     H22838   5.200   1.630   4.288 -3.0714 -0.8096  0.7312
  910MOL0     H22839   4.973   1.625   4.281 -0.1628  0.5476 -0.0680
  910MOL0     H22840   4.738   1.627   4.254 -1.6527 -2.2429 -0.8233
  910MOL0     H22841   4.755   1.769   4.150 -0.9520  0.5421 -0.1260
  910MOL0     H22842   4.512   1.640   4.156 -1.0807 -0.1336 -2.9672
  910MOL0     H22843   4.600   1.525   4.062  2.6298 -0.0637 -1.5111
  910MOL0     H22844   4.647   1.670   3.882  3.8806  1.3131  1.7323
  910MOL0     H22845   4.579   1.821   3.971 -2.1455 -0.8435 -1.4820
  910MOL0     H22846   4.379   1.791   3.934 -1.5348 -1.2834  1.2473
  910MOL0     H22847   4.377   1.609   3.922  0.2202 -1.5722 -2.3601
  910MOL0     H22848   4.493   1.720   3.529  3.9809  0.2181  0.5914
  910MOL0     H22849   4.976   1.584   3.854 -0.5842 -0.2443  0.6461
  910MOL0     H22850   5.214   1.592   3.851 -2.7575 -1.7819 -0.5103
  911MOL0     O22851   3.373  11.320   0.606  0.3806  0.5974 -0.8546
  911MOL0     C22852   3.296  11.247   0.671 -1.0160 -0.9327 -1.0075
  911MOL0     O22853   3.165  11.232   0.663 -0.0743 -0.4893 -0.1504
  911MOL0     C22854   3.096  11.312   0.580  0.9192 -0.3183 -0.0478
  911MOL0     C22855   3.131  11.342   0.439  0.3132  0.1115 -0.0482
  911MOL0     C22856   3.041  11.415   0.365  0.1519  0.6777 -0.7523
  911MOL0     C22857   2.919  11.460   0.409 -0.4630 -0.3397 -0.6803
  911MOL0     O22858   2.836  11.509   0.312  0.2058  0.1375 -0.1402
  911MOL0     C22859   2.699  11.541   0.334 -0.8513  0.0966 -0.7972
  911MOL0     C22860   2.643  11.625   0.221 -0.2944 -1.1185 -0.1889
  911MOL0     C22861   2.711  11.772   0.207 -0.6077  1.0614  0.2611
  911MOL0     C22862   2.619  11.846   0.111 -0.0945 -0.0358 -0.0679
  911MOL0     C22863   2.640  11.995   0.120 -0.1411 -0.4568  0.7282
  911MOL0     C22864   2.526  12.078   0.042 -0.3758  0.0580  0.5070
  911MOL0     C22865   2.386  12.037   0.087  0.1540 -0.3920  0.2786
  911MOL0     C22866   2.292  12.149   0.037  0.3122 -0.8013  0.7767
  911MOL0     N22867   2.157  12.138   0.100  0.4284 -0.4287  0.0141
  911MOL0     C22868   2.116  12.166   0.222  0.5424  0.1875 -0.8675
  911MOL0     C22869   1.985  12.162   0.220  0.0400 -0.3155 -0.8560
  911MOL0     C22870   1.901  12.225   0.328 -0.2575  0.6695 -0.1947
  911MOL0     C22871   1.815  12.127   0.414 -0.0085 -0.2497 -0.3604
  911MOL0     C22872   1.677  12.189   0.438 -0.0755  0.2562  0.2904
  911MOL0     C22873   1.579  12.085   0.503  1.0575 -1.5416  0.6191
  911MOL0     O22874   1.450  12.136   0.517  0.9529 -0.3385  0.1947
  911MOL0     C22875   1.430  12.209   0.636  0.3541  0.0759  0.1344
  911MOL0     C22876   1.296  12.248   0.651  0.1850  0.5225  0.5556
  911MOL0     C22877   1.245  12.312   0.768 -0.1804  0.3073 -0.3280
  911MOL0     C22878   1.093  12.330   0.780  0.0353 -0.4578 -0.1289
  911MOL0     C22879   1.337  12.340   0.879  0.2480  0.4487 -0.4398
  911MOL0     C22880   1.284  12.396   1.008  0.0623 -0.7483 -0.5720
  911MOL0     O22881   1.330  12.354   1.130 -0.2283 -0.4531  0.4705
  911MOL0     C22882   1.348  12.221   1.146 -0.4035 -0.5284 -0.4093
  911MOL0     C22883   1.442  12.187   1.247 -0.1738 -0.0609  0.1131
  911MOL0     C22884   1.476  12.050   1.269 -0.5737 -0.1962  0.0086
  911MOL0     C22885   1.412  11.944   1.204 -0.2077 -0.6804  0.1552
  911MOL0     O22886   1.443  11.819   1.258 -0.2934  0.2697  0.1090
  911MOL0     C22887   1.364  11.711   1.203  1.3909 -0.5818  0.2003
  911MOL0     C22888   1.385  11.582   1.280 -0.1118  0.6557  0.5595
  911MOL0     C22889   1.299  11.549   1.406  0.1712 -0.2549  0.1804
  911MOL0     C22890   1.330  11.406   1.442 -0.4550  0.6224  0.1110
  911MOL0     C22891   1.258  11.360   1.566  0.2415 -0.5078  0.8046
  911MOL0     C22892   1.283  11.219   1.614 -0.1630 -0.4194  0.4893
  911MOL0     C22893   1.194  11.184   1.738 -0.0043  0.1613 -0.4067
  911MOL0     C22894   1.181  11.292   1.839 -0.4354  0.0778  0.9117
  911MOL0    Cl22895   1.115  11.228   1.991  0.2311 -0.1651  0.2222
  911MOL0     C22896   1.321  11.987   1.112  0.3858 -0.6712 -0.1687
  911MOL0     C22897   1.290  12.111   1.080  0.1889 -0.9993 -1.1581
  911MOL0     O22898   1.213  12.494   0.994 -0.4391 -0.3560 -0.3173
  911MOL0     C22899   1.473  12.297   0.853 -0.7815  0.0002 -0.0792
  911MOL0     C22900   1.523  12.241   0.735  0.0213  0.5399  0.1303
  911MOL0     N22901   1.939  12.129   0.093 -0.6031 -0.0037 -0.3361
  911MOL0     N22902   2.045  12.112   0.024 -0.1247 -0.6674  0.3790
  911MOL0     C22903   2.880  11.434   0.538  0.0247 -0.5511  0.2739
  911MOL0     C22904   2.968  11.356   0.613 -0.3083  1.2017  0.5232
  911MOL0     C22905   3.370  11.143   0.763  1.2288 -0.0559 -0.0496
  911MOL0     C22906   3.498  11.174   0.807 -0.3694 -0.0199  0.1353
  911MOL0     C22907   3.564  11.093   0.906 -0.2968  0.4707  0.3267
  911MOL0     C22908   3.498  10.978   0.950 -0.8665 -0.4411 -0.7076
  911MOL0     O22909   3.553  10.902   1.038  0.3502 -0.3958 -0.2869
  911MOL0     C22910   3.688  10.908   1.085 -0.6302 -0.2010  0.0967
  911MOL0     C22911   3.719  10.776   1.137 -0.5551 -1.6332 -0.9161
  911MOL0     C22912   3.866  10.776   1.188 -0.2998 -0.0400  0.3298
  911MOL0     C22913   3.917  10.639   1.234  0.2918  0.4337  0.2971
  911MOL0     C22914   3.833  10.590   1.349 -0.3978 -0.3942  0.4749
  911MOL0     C22915   3.744  10.554   1.426 -0.9842  0.8101 -0.2024
  911MOL0     C22916   3.373  10.939   0.898  0.2084 -0.0709 -0.1417
  911MOL0     C22917   3.304  11.021   0.807 -0.5373 -0.6988 -0.0780
  911MOL0     H22918   3.215  11.287   0.399  1.2325  0.2850  1.5701
  911MOL0     H22919   3.070  11.432   0.262  3.2296  1.6122  0.1654
  911MOL0     H22920   2.654  11.442   0.339  1.8457 -1.1729  2.9782
  911MOL0     H22921   2.676  11.599   0.423 -2.0198  2.4465 -2.5267
  911MOL0     H22922   2.673  11.570   0.131 -1.4888 -1.6954 -0.2578
  911MOL0     H22923   2.534  11.632   0.227 -0.4788 -2.2210 -1.5722
  911MOL0     H22924   2.737  11.821   0.301  2.8178 -1.3570  0.7613
  911MOL0     H22925   2.802  11.743   0.154 -0.6523 -2.1310  1.6889
  911MOL0     H22926   2.627  11.825   0.004  0.7789  1.1036 -0.2585
  911MOL0     H22927   2.518  11.812   0.131 -0.1353  1.2427  2.2351
  911MOL0     H22928   2.631  12.026   0.225  0.4092 -0.7382  0.8628
  911MOL0     H22929   2.742  12.026   0.093  0.1703 -3.0297 -1.4328
  911MOL0     H22930   2.536  12.184   0.069 -1.2428 -0.1329  1.7072
  911MOL0     H22931   2.531  12.070  -0.067  0.0414  0.1282  0.5209
  911MOL0     H22932   2.363  11.941   0.040  0.4833 -0.3290 -0.0172
  911MOL0     H22933   2.383  12.019   0.195  0.8318 -0.7167  0.2490
  911MOL0     H22934   2.275  12.143  -0.071  0.2161  0.6408  0.6900
  911MOL0     H22935   2.332  12.244   0.074 -0.1785 -1.4456  3.1011
  911MOL0     H22936   2.180  12.192   0.306 -1.5197 -1.0948  1.2284
  911MOL0     H22937   1.965  12.280   0.397 -2.2642  0.4984  1.9159
  911MOL0     H22938   1.846  12.305   0.279 -1.9049  1.2497  2.3905
  911MOL0     H22939   1.864  12.109   0.511  0.6474  0.8866 -0.4641
  911MOL0     H22940   1.801  12.033   0.360 -0.0803 -0.3476 -0.1740
  911MOL0     H22941   1.633  12.206   0.339 -1.3092  0.1036  0.7942
  911MOL0     H22942   1.667  12.284   0.491  0.0700  0.7018 -0.4528
  911MOL0     H22943   1.614  12.050   0.600 -1.0546  1.2394  2.5534
  911MOL0     H22944   1.563  12.002   0.434 -1.6454  0.2276 -1.0905
  911MOL0     H22945   1.239  12.231   0.561  2.1038  1.0172 -0.8090
  911MOL0     H22946   1.064  12.313   0.884  0.7343  0.4642  0.2301
  911MOL0     H22947   1.059  12.432   0.763 -1.5516 -1.2415 -2.2569
  911MOL0     H22948   1.043  12.257   0.715 -2.2415  2.6544 -2.1513
  911MOL0     H22949   1.491  12.264   1.307  0.4720 -1.1789  1.0556
  911MOL0     H22950   1.538  12.031   1.356 -2.2696 -0.4384  1.2189
  911MOL0     H22951   1.258  11.733   1.215  1.5458  0.0072  0.5297
  911MOL0     H22952   1.379  11.690   1.097 -0.8310  2.4349 -0.8735
  911MOL0     H22953   1.367  11.499   1.210  0.1616 -0.3378  1.6420
  911MOL0     H22954   1.488  11.589   1.316  0.5921  3.2864 -1.6065
  911MOL0     H22955   1.191  11.558   1.402  0.2608  0.4666 -1.1128
  911MOL0     H22956   1.338  11.604   1.493  1.8620  1.4217 -1.5384
  911MOL0     H22957   1.288  11.336   1.369  0.3393  0.1851  0.0709
  911MOL0     H22958   1.438  11.390   1.437 -0.7386 -1.5196 -0.3580
  911MOL0     H22959   1.152  11.376   1.545  0.5331  0.8646  0.2991
  911MOL0     H22960   1.293  11.423   1.648 -0.1296  0.5202  0.1851
  911MOL0     H22961   1.266  11.150   1.531  4.2687 -2.5830  1.0854
  911MOL0     H22962   1.388  11.231   1.642  0.2628  4.2062 -2.0600
  911MOL0     H22963   1.233  11.096   1.789 -1.4971  0.7722  1.9309
  911MOL0     H22964   1.097  11.148   1.703  1.3119 -3.8032 -0.4942
  911MOL0     H22965   1.107  11.364   1.804  0.9109  1.8224  1.5563
  911MOL0     H22966   1.276  11.346   1.850 -1.0751  0.8994  2.8761
  911MOL0     H22967   1.259  11.912   1.064 -0.0045  0.7357 -1.9373
  911MOL0     H22968   1.212  12.122   1.006 -1.5929 -2.2094  0.4542
  911MOL0     H22969   1.538  12.318   0.937 -1.4106  3.1054 -0.2510
  911MOL0     H22970   1.630  12.225   0.724 -0.3435 -2.4669 -0.0631
  911MOL0     H22971   2.788  11.470   0.583  0.8028  1.6893  0.2083
  911MOL0     H22972   2.936  11.301   0.700  1.9546 -0.3330  0.4901
  911MOL0     H22973   3.550  11.266   0.781  0.4838 -0.1681  1.2052
  911MOL0     H22974   3.666  11.122   0.929  0.4985  0.6796 -2.8833
  911MOL0     H22975   3.751  10.938   1.001 -0.8850 -0.2913 -0.1285
  911MOL0     H22976   3.682  10.983   1.164 -1.4064  0.3013 -0.4225
  911MOL0     H22977   3.715  10.697   1.062 -2.5080 -0.4620 -2.1469
  911MOL0     H22978   3.655  10.760   1.224  0.9335  0.8760  0.7799
  911MOL0     H22979   3.886  10.844   1.271 -0.5347 -1.0599  1.2453
  911MOL0     H22980   3.940  10.798   1.111 -0.6155 -4.5828 -1.6225
  911MOL0     H22981   4.024  10.634   1.257  0.0319 -1.5600  1.2883
  911MOL0     H22982   3.899  10.580   1.143  1.9334  1.6186 -0.8738
  911MOL0     H22983   3.672  10.521   1.498  0.8370  2.2484  2.4599
  911MOL0     H22984   3.333  10.840   0.919 -0.7662  0.1843 -0.7417
  911MOL0     H22985   3.203  10.993   0.775 -2.2395 -0.1639  4.1462
  912MOL0     O22986   5.849   5.785   5.972  0.2042 -0.2491 -0.0054
  912MOL0     C22987   5.933   5.862   6.025 -0.5170  0.8742  0.5915
  912MOL0     O22988   6.041   5.805   6.074  0.2060  0.4953 -0.4749
  912MOL0     C22989   6.053   5.672   6.113  0.1375  0.3917  0.3981
  912MOL0     C22990   6.178   5.609   6.096  0.0349  0.2991  0.9183
  912MOL0     C22991   6.197   5.472   6.120 -0.5125  0.8250 -0.3402
  912MOL0     C22992   6.086   5.405   6.185 -0.0924  0.1755 -1.3218
  912MOL0     O22993   6.096   5.271   6.226 -0.2220  0.2215 -0.2708
  912MOL0     C22994   6.173   5.176   6.152 -0.5545 -0.0863 -0.5143
  912MOL0     C22995   6.318   5.183   6.202  0.2636  0.0041 -0.6470
  912MOL0     C22996   6.400   5.061   6.157 -0.7207 -0.4761  0.0618
  912MOL0     C22997   6.550   5.061   6.172  0.0075 -0.1355  0.3191
  912MOL0     C22998   6.619   4.932   6.135  0.1837 -0.2296  0.1799
  912MOL0     C22999   6.763   4.955   6.093 -0.0630  0.7764 -0.6086
  912MOL0     C23000   6.826   4.829   6.056 -0.6130  0.2562  0.7150
  912MOL0     C23001   6.972   4.852   6.001 -0.6814 -0.2778  1.0449
  912MOL0     N23002   6.967   4.930   5.869 -0.1453  0.1896 -0.5378
  912MOL0     C23003   6.968   4.879   5.746  0.0748 -0.5852  0.3790
  912MOL0     C23004   6.945   4.985   5.667  0.0417 -0.3986 -0.2469
  912MOL0     C23005   6.928   4.980   5.514 -0.5386  0.7745  0.2625
  912MOL0     C23006   7.038   5.077   5.452  0.2153 -0.6317  0.9010
  912MOL0     C23007   7.048   5.041   5.311  0.9068  0.5959  0.1147
  912MOL0     C23008   7.139   5.143   5.232  0.6919  0.3296 -0.9845
  912MOL0     O23009   7.157   5.104   5.095 -0.1215  0.1270 -0.3145
  912MOL0     C23010   7.271   5.044   5.050 -0.2161  0.3883 -0.0823
  912MOL0     C23011   7.299   5.034   4.918 -0.1936  0.2135  0.4384
  912MOL0     C23012   7.417   4.979   4.866  0.2377 -0.5023  1.1098
  912MOL0     C23013   7.435   5.001   4.716  0.5916  0.1234  0.5638
  912MOL0     C23014   7.515   4.927   4.948  0.0407  0.3633  0.1033
  912MOL0     C23015   7.638   4.872   4.896 -0.0896 -0.5158 -0.0392
  912MOL0     O23016   7.756   4.945   4.930  0.7580 -0.4374 -0.6763
  912MOL0     C23017   7.867   4.911   4.851 -0.2227 -0.3215 -0.7077
  912MOL0     C23018   7.870   4.905   4.715  0.2452 -0.3182 -0.4291
  912MOL0     C23019   7.987   4.878   4.646  0.0134  0.9729 -0.2374
  912MOL0     C23020   8.105   4.872   4.724 -0.8906 -0.9684 -0.3506
  912MOL0     O23021   8.228   4.854   4.655 -0.7322  0.1778 -0.7403
  912MOL0     C23022   8.310   4.738   4.674  0.5627  0.6028 -0.1067
  912MOL0     C23023   8.435   4.763   4.751  0.4177 -0.1369 -0.4218
  912MOL0     C23024   8.508   4.893   4.708  1.2329 -0.4439 -0.5500
  912MOL0     C23025   8.544   4.897   4.568  0.0189  0.4719 -0.2303
  912MOL0     C23026   8.603   5.030   4.527  0.7526  0.6957 -0.0188
  912MOL0     C23027   8.638   5.032   4.376 -0.6021  0.4580 -0.3234
  912MOL0     C23028   8.677   5.180   4.333 -0.4815  0.1490 -0.5582
  912MOL0     C23029   8.715   5.205   4.184 -0.4746 -0.6544  0.7197
  912MOL0    Cl23030   8.587   5.131   4.076 -0.6388 -0.3316 -0.0374
  912MOL0     C23031   8.104   4.911   4.862 -0.4769  0.7609  0.2737
  912MOL0     C23032   7.986   4.914   4.927  0.6305 -0.4597 -1.2324
  912MOL0     O23033   7.633   4.778   4.824 -0.9444  0.4607  0.1525
  912MOL0     C23034   7.497   4.943   5.087  0.1981  0.5524  0.8029
  912MOL0     C23035   7.377   4.995   5.129  0.9271  0.9069 -0.5415
  912MOL0     N23036   6.943   5.096   5.743  0.1659  0.6490  0.7913
  912MOL0     N23037   6.951   5.060   5.867 -0.0408 -0.6904 -0.7536
  912MOL0     C23038   5.972   5.468   6.202  0.2195  0.1595 -0.0592
  912MOL0     C23039   5.953   5.599   6.171 -0.0506  1.2889  0.6904
  912MOL0     C23040   5.920   6.011   6.021 -0.6024 -0.5136  0.3977
  912MOL0     C23041   5.796   6.086   6.005 -0.0330 -0.1781 -0.4810
  912MOL0     C23042   5.812   6.221   5.967 -0.2190 -0.6991  0.5981
  912MOL0     C23043   5.934   6.284   5.949 -0.0435 -0.4815  0.6548
  912MOL0     O23044   5.952   6.413   5.916  0.5496 -0.4225  0.5407
  912MOL0     C23045   5.951   6.508   6.022  0.3537 -0.0623 -0.5146
  912MOL0     C23046   6.009   6.636   5.960 -0.2622 -0.3279 -0.8485
  912MOL0     C23047   6.022   6.735   6.073  0.4356 -0.6920  0.0173
  912MOL0     C23048   6.032   6.883   6.026  1.0633 -0.7255  0.0458
  912MOL0     C23049   5.894   6.928   5.984  0.2340  0.1332  0.9791
  912MOL0     C23050   5.781   6.957   5.946  0.0535 -0.9626  0.3865
  912MOL0     C23051   6.051   6.216   5.969  0.4914  0.2682  0.5263
  912MOL0     C23052   6.048   6.078   6.003  0.3380  1.1241 -0.8301
  912MOL0     H23053   6.269   5.663   6.071  0.1953  0.9597  2.7551
  912MOL0     H23054   6.294   5.441   6.084  0.7356  3.8572  0.0804
  912MOL0     H23055   6.142   5.072   6.162 -0.0065 -0.2174 -0.1283
  912MOL0     H23056   6.183   5.202   6.047  3.4269  1.8963  0.1610
  912MOL0     H23057   6.366   5.276   6.169  3.1798 -0.8339  0.8415
  912MOL0     H23058   6.320   5.199   6.310  0.8460  0.3956 -0.7078
  912MOL0     H23059   6.381   4.971   6.215 -0.4804 -0.0316  0.8487
  912MOL0     H23060   6.373   5.035   6.055  0.1242 -2.9510  0.4030
  912MOL0     H23061   6.576   5.152   6.117  1.9491 -0.3918  0.7647
  912MOL0     H23062   6.557   5.081   6.279 -3.3067  0.6475  0.5197
  912MOL0     H23063   6.602   4.858   6.214 -0.8916 -0.5753 -0.3600
  912MOL0     H23064   6.578   4.891   6.043  0.3021  0.2453 -0.0848
  912MOL0     H23065   6.768   5.023   6.007 -1.4640  0.9635 -0.5664
  912MOL0     H23066   6.826   4.999   6.171 -3.1020 -0.0219  2.5260
  912MOL0     H23067   6.825   4.765   6.145  1.1077 -1.5909 -0.5063
  912MOL0     H23068   6.774   4.783   5.972 -1.4999  1.0869  0.7931
  912MOL0     H23069   7.008   4.753   5.972 -2.6716 -1.1658  1.4314
  912MOL0     H23070   7.050   4.890   6.067  2.1846  1.0090 -2.7118
  912MOL0     H23071   6.976   4.776   5.713 -3.3772 -0.5529 -0.9455
  912MOL0     H23072   6.949   4.877   5.484  3.4631  1.3727  0.4812
  912MOL0     H23073   6.828   5.019   5.492 -0.7554  0.3037  0.3979
  912MOL0     H23074   7.139   5.069   5.494  0.8540 -0.8236 -0.5870
  912MOL0     H23075   6.993   5.176   5.447 -0.0067 -0.7559  0.2689
  912MOL0     H23076   6.956   5.029   5.254  1.2792 -3.1931  0.0335
  912MOL0     H23077   7.083   4.938   5.296 -0.4946 -0.4071  2.9527
  912MOL0     H23078   7.231   5.166   5.286  1.4958  2.2250 -2.9767
  912MOL0     H23079   7.079   5.235   5.241 -0.5295 -0.5397  0.1998
  912MOL0     H23080   7.234   5.074   4.841  1.8249  2.3534 -0.2682
  912MOL0     H23081   7.451   5.106   4.692  1.8360 -0.2378 -0.2915
  912MOL0     H23082   7.524   4.956   4.671  1.1328  0.7135  1.0259
  912MOL0     H23083   7.345   4.965   4.664 -0.6853  1.9239  1.4048
  912MOL0     H23084   7.779   4.925   4.657 -0.4824  0.0681  0.8111
  912MOL0     H23085   7.992   4.843   4.543 -0.3428 -2.1906  0.6939
  912MOL0     H23086   8.253   4.654   4.714  0.2361 -0.9884 -3.5643
  912MOL0     H23087   8.354   4.698   4.581  1.4475  2.2929 -0.4599
  912MOL0     H23088   8.409   4.779   4.856  0.6959 -1.0539 -0.2057
  912MOL0     H23089   8.495   4.672   4.743  1.3423  0.0115  3.0508
  912MOL0     H23090   8.600   4.899   4.766  0.3706 -1.9166  1.0849
  912MOL0     H23091   8.439   4.975   4.730  1.2854 -0.6856  0.5934
  912MOL0     H23092   8.617   4.820   4.541 -0.7289  0.4328 -2.3131
  912MOL0     H23093   8.454   4.876   4.510 -0.1839 -0.4077  0.3854
  912MOL0     H23094   8.690   5.043   4.591  0.4488 -0.9450  0.7807
  912MOL0     H23095   8.536   5.114   4.546 -2.3915 -0.8979 -2.8123
  912MOL0     H23096   8.720   4.963   4.356 -0.5316  1.2380 -3.1707
  912MOL0     H23097   8.554   5.005   4.311 -3.3206  4.8801  0.8356
  912MOL0     H23098   8.761   5.214   4.395 -1.7199  0.1654  1.1715
  912MOL0     H23099   8.593   5.247   4.352 -0.5449 -0.0392 -0.1715
  912MOL0     H23100   8.821   5.179   4.178  0.2913  2.1402  0.7814
  912MOL0     H23101   8.715   5.310   4.154 -0.8429 -1.7306 -3.9183
  912MOL0     H23102   8.193   4.903   4.922  0.6573  0.3661 -1.3982
  912MOL0     H23103   7.990   4.931   5.034 -0.1149  0.3554 -1.3281
  912MOL0     H23104   7.570   4.922   5.165 -1.5709  2.5647  3.1618
  912MOL0     H23105   7.371   4.997   5.238 -1.8516  0.7925 -0.6360
  912MOL0     H23106   5.888   5.409   6.238 -1.3709  1.9128 -0.7427
  912MOL0     H23107   5.856   5.641   6.195  0.3827  2.1649  0.9643
  912MOL0     H23108   5.701   6.033   6.002  0.2985 -0.7674 -0.7877
  912MOL0     H23109   5.727   6.278   5.930 -0.9916 -2.6959 -0.9006
  912MOL0     H23110   5.851   6.518   6.066 -0.5867 -2.5310 -1.8892
  912MOL0     H23111   6.024   6.487   6.101  2.2903  1.8049 -1.6941
  912MOL0     H23112   5.935   6.687   5.898  0.1868  0.1388 -1.0132
  912MOL0     H23113   6.101   6.636   5.901  0.3661  2.3438  0.0232
  912MOL0     H23114   6.112   6.717   6.132 -0.0320 -1.9962  0.3478
  912MOL0     H23115   5.932   6.731   6.134  0.3018  0.7149 -0.0436
  912MOL0     H23116   6.091   6.906   5.936 -0.7287  1.6305 -0.6365
  912MOL0     H23117   6.058   6.947   6.111  0.3551  0.8796 -0.9062
  912MOL0     H23118   5.679   6.979   5.924 -1.2204 -4.7349  1.7401
  912MOL0     H23119   6.150   6.249   5.939  2.5081 -3.9448  1.6889
  912MOL0     H23120   6.142   6.024   5.998  0.2562 -0.0550  4.6016
  913MOL0     O23121   7.838   8.460   2.357 -0.0777 -0.1245 -0.3974
  913MOL0     C23122   7.762   8.423   2.440  0.5687 -0.8914 -0.5208
  913MOL0     O23123   7.692   8.501   2.538  0.1547  0.4809  0.5342
  913MOL0     C23124   7.719   8.640   2.546  0.5013  0.3548 -0.1205
  913MOL0     C23125   7.619   8.715   2.602  0.4613 -0.6607  0.5883
  913MOL0     C23126   7.624   8.854   2.609  0.0538  0.0779 -1.0136
  913MOL0     C23127   7.745   8.916   2.580 -0.5898 -0.3408  0.7997
  913MOL0     O23128   7.741   9.046   2.605 -0.2848 -0.1070  0.1905
  913MOL0     C23129   7.852   9.132   2.587 -0.5063 -0.0478  1.0039
  913MOL0     C23130   7.959   9.133   2.698  0.3515 -0.5544 -0.5970
  913MOL0     C23131   8.064   9.243   2.673  0.1662 -0.0563  0.0291
  913MOL0     C23132   8.157   9.244   2.798 -0.9081  0.2465 -0.4043
  913MOL0     C23133   8.106   9.304   2.931 -1.1466  0.0983  0.3393
  913MOL0     C23134   8.044   9.445   2.909 -0.0280  1.0569  0.1246
  913MOL0     C23135   8.017   9.498   3.058  0.3969 -1.0062  0.5780
  913MOL0     C23136   7.929   9.408   3.146 -0.8956  0.1453  0.1895
  913MOL0     N23137   7.925   9.447   3.291  0.0198 -0.0073  0.1861
  913MOL0     C23138   8.028   9.422   3.379 -0.2162 -0.1666  0.7917
  913MOL0     C23139   7.973   9.464   3.495 -0.3436 -0.1608 -0.3550
  913MOL0     C23140   8.059   9.450   3.618 -0.3111 -0.5491 -0.5471
  913MOL0     C23141   8.108   9.305   3.646 -0.3859  0.5393 -0.1745
  913MOL0     C23142   8.131   9.266   3.791 -0.4709  0.3082  0.7331
  913MOL0     C23143   8.251   9.324   3.869 -0.7752 -1.0110 -0.5055
  913MOL0     O23144   8.362   9.233   3.858  0.5143 -0.7237 -0.6742
  913MOL0     C23145   8.470   9.276   3.938  0.2160  0.5502  0.0072
  913MOL0     C23146   8.585   9.198   3.939 -0.8434 -0.3119 -0.0364
  913MOL0     C23147   8.705   9.235   3.998  1.3744 -0.4007 -1.2420
  913MOL0     C23148   8.810   9.134   3.997 -1.1529  0.0631  0.6042
  913MOL0     C23149   8.706   9.359   4.061 -0.8840 -0.3166  0.6650
  913MOL0     C23150   8.834   9.408   4.127  0.1036  0.1851 -0.2695
  913MOL0     O23151   8.950   9.378   4.056 -0.6872  0.3011  0.0862
  913MOL0     C23152   9.072   9.427   4.093 -0.1425 -0.1601  0.6390
  913MOL0     C23153   9.165   9.456   3.996 -0.0221 -0.0224  0.3359
  913MOL0     C23154   9.285   9.516   4.026 -0.5739 -0.8597 -0.3982
  913MOL0     C23155   9.317   9.562   4.159  1.0981  0.9595  0.6321
  913MOL0     O23156   9.453   9.607   4.173  0.3621 -0.4512  0.3460
  913MOL0     C23157   9.474   9.695   4.291  0.2719  0.7992  0.1639
  913MOL0     C23158   9.593   9.784   4.268 -0.3529  0.2993  0.5040
  913MOL0     C23159   9.605   9.906   4.363 -0.7648 -0.2133 -0.3817
  913MOL0     C23160   9.602  10.056   4.302 -0.4266 -0.0928  0.1825
  913MOL0     C23161   9.708  10.082   4.186  0.6711  0.0805 -0.2089
  913MOL0     C23162   9.724  10.236   4.177 -0.8949 -0.5698 -0.5681
  913MOL0     C23163   9.849  10.263   4.084 -0.0725  0.0938 -0.0424
  913MOL0     C23164   9.981  10.237   4.165 -0.0761 -1.6355  0.1016
  913MOL0    Cl23165  10.115  10.268   4.065 -0.1531 -0.4598  0.2644
  913MOL0     C23166   9.222   9.541   4.253 -0.4424 -0.0922  0.3997
  913MOL0     C23167   9.105   9.467   4.223 -0.0560  0.5878 -0.2525
  913MOL0     O23168   8.817   9.477   4.234 -0.0976  0.5627 -0.1615
  913MOL0     C23169   8.595   9.440   4.056  0.3085 -0.3140 -0.0415
  913MOL0     C23170   8.478   9.390   4.011  0.2387  0.2069 -1.7175
  913MOL0     N23171   7.842   9.499   3.478 -0.5021 -0.5054 -0.3497
  913MOL0     N23172   7.814   9.509   3.353  0.4579  0.4800  0.2805
  913MOL0     C23173   7.851   8.848   2.522  0.5474  0.6252 -0.8333
  913MOL0     C23174   7.835   8.710   2.504  0.6113 -0.3379 -0.7764
  913MOL0     C23175   7.759   8.281   2.453  0.4472 -0.8642  0.4980
  913MOL0     C23176   7.653   8.226   2.531 -1.0393  0.6337  0.1071
  913MOL0     C23177   7.637   8.087   2.521 -0.8480  0.1537 -0.0399
  913MOL0     C23178   7.720   7.999   2.449 -0.0505  0.1115 -0.9485
  913MOL0     O23179   7.711   7.861   2.442  0.0691  0.7272 -0.0040
  913MOL0     C23180   7.608   7.781   2.503 -0.2552 -0.1237 -0.7091
  913MOL0     C23181   7.663   7.718   2.632 -0.1563  0.8564  0.7079
  913MOL0     C23182   7.803   7.649   2.609  1.0386  0.2847  0.1993
  913MOL0     C23183   7.827   7.552   2.721 -0.0020 -0.1024  0.5381
  913MOL0     C23184   7.725   7.445   2.719 -0.5431  0.1602 -0.1803
  913MOL0     C23185   7.643   7.357   2.708 -0.0458 -0.4513 -0.9452
  913MOL0     C23186   7.820   8.054   2.377  0.0985 -1.1773  0.2654
  913MOL0     C23187   7.840   8.200   2.372 -0.0151  1.1038 -0.6877
  913MOL0     H23188   7.527   8.661   2.622  2.6593 -4.5019  1.5259
  913MOL0     H23189   7.538   8.905   2.653 -2.3161 -2.9799 -1.7094
  913MOL0     H23190   7.897   9.132   2.487 -0.1570  1.7374  1.1311
  913MOL0     H23191   7.817   9.235   2.586 -0.3904  0.0513 -2.1038
  913MOL0     H23192   7.908   9.154   2.792  1.8381  2.7395 -0.3750
  913MOL0     H23193   8.003   9.033   2.702  3.5888  0.7550 -0.5863
  913MOL0     H23194   8.117   9.217   2.580  0.8098  1.7823 -0.1689
  913MOL0     H23195   8.015   9.337   2.647 -0.2659 -0.3455 -0.2234
  913MOL0     H23196   8.196   9.145   2.819  2.2042  1.8795  2.2793
  913MOL0     H23197   8.243   9.304   2.766  1.0363 -1.3854  1.4839
  913MOL0     H23198   8.037   9.228   2.970 -2.3306  0.1129 -1.5569
  913MOL0     H23199   8.184   9.310   3.007 -1.2884  0.9158  0.4217
  913MOL0     H23200   8.106   9.511   2.847 -2.4964  3.6701  0.2510
  913MOL0     H23201   7.941   9.448   2.872 -1.2938  0.5186  3.3285
  913MOL0     H23202   8.113   9.523   3.104  1.7128  0.4556 -2.6414
  913MOL0     H23203   7.965   9.594   3.069  2.8780  0.2472  2.5686
  913MOL0     H23204   7.961   9.303   3.143 -0.4318  0.1165  2.9489
  913MOL0     H23205   7.829   9.425   3.106 -0.5654  1.9294  0.0332
  913MOL0     H23206   8.124   9.376   3.360 -0.1786 -0.3255  1.3358
  913MOL0     H23207   8.144   9.520   3.617 -1.1686  0.8022  3.3805
  913MOL0     H23208   8.005   9.494   3.702  1.2060 -0.5151  0.4599
  913MOL0     H23209   8.200   9.285   3.591  1.8509  1.9332  2.8072
  913MOL0     H23210   8.040   9.241   3.588  0.3629  2.0577 -2.9401
  913MOL0     H23211   8.129   9.157   3.797  0.7629  0.0399 -2.1286
  913MOL0     H23212   8.040   9.279   3.850 -0.3940 -3.0867  1.8113
  913MOL0     H23213   8.210   9.332   3.970 -0.8031 -0.7219 -0.5393
  913MOL0     H23214   8.268   9.425   3.832 -2.1308 -0.8351 -0.6942
  913MOL0     H23215   8.582   9.109   3.877  0.0878 -1.2788  1.2380
  913MOL0     H23216   8.765   9.041   3.960 -2.1160  1.4331 -1.8876
  913MOL0     H23217   8.889   9.154   3.924  0.0391 -1.7134  1.3268
  913MOL0     H23218   8.856   9.124   4.095  2.6135 -0.4450 -1.0554
  913MOL0     H23219   9.137   9.436   3.893  1.3907  1.8855 -0.4890
  913MOL0     H23220   9.355   9.531   3.944 -1.2103 -0.1122 -0.8206
  913MOL0     H23221   9.386   9.754   4.319  1.1552  1.9773  0.5619
  913MOL0     H23222   9.503   9.634   4.377 -0.7478 -0.7750 -0.5598
  913MOL0     H23223   9.686   9.727   4.280  0.0820  0.5557 -1.4083
  913MOL0     H23224   9.588   9.828   4.168 -0.8415  2.6997  1.5321
  913MOL0     H23225   9.706   9.908   4.407 -1.7306  0.7662  1.9576
  913MOL0     H23226   9.542   9.902   4.452  1.2749 -0.1536  1.1325
  913MOL0     H23227   9.499  10.070   4.266 -0.3313 -1.4350 -0.6750
  913MOL0     H23228   9.628  10.117   4.389  0.6572 -1.8928  1.1746
  913MOL0     H23229   9.668  10.053   4.089  2.3707 -1.4509 -0.4894
  913MOL0     H23230   9.802  10.031   4.209 -0.1117 -0.9270  0.8463
  913MOL0     H23231   9.633  10.282   4.137 -1.0721 -0.6510 -0.2630
  913MOL0     H23232   9.749  10.284   4.272 -1.4256 -1.1053 -0.1485
  913MOL0     H23233   9.850  10.365   4.045  0.9128 -0.6031 -1.9567
  913MOL0     H23234   9.842  10.203   3.993  1.4579  0.2724 -0.3107
  913MOL0     H23235   9.980  10.133   4.200 -0.1845 -1.0316  1.9771
  913MOL0     H23236   9.990  10.306   4.249 -1.8602  0.9431 -1.6926
  913MOL0     H23237   9.239   9.579   4.353 -2.6649 -3.1292  2.0899
  913MOL0     H23238   9.030   9.450   4.299 -1.7597  0.1807 -1.9676
  913MOL0     H23239   8.607   9.537   4.104  0.2299 -0.0245 -0.5928
  913MOL0     H23240   8.395   9.458   4.023 -2.0381 -2.3558 -1.7850
  913MOL0     H23241   7.938   8.907   2.495  2.5172  0.2815  3.7716
  913MOL0     H23242   7.921   8.656   2.466 -0.1626 -1.0447 -1.5708
  913MOL0     H23243   7.585   8.285   2.591  0.0691  1.1272  0.9183
  913MOL0     H23244   7.550   8.049   2.574  0.3135 -1.6050  0.6916
  913MOL0     H23245   7.520   7.846   2.503  0.1068  0.4718 -3.1630
  913MOL0     H23246   7.584   7.697   2.437 -2.4605  2.2538 -3.1874
  913MOL0     H23247   7.587   7.646   2.662 -0.2277  0.1394 -1.0743
  913MOL0     H23248   7.667   7.798   2.707 -2.2975  1.2181  0.4910
  913MOL0     H23249   7.885   7.722   2.610  1.1079  0.2066  0.5680
  913MOL0     H23250   7.805   7.601   2.511 -0.0828 -0.0200  0.3098
  913MOL0     H23251   7.826   7.613   2.812 -0.0336  1.2612 -0.3447
  913MOL0     H23252   7.917   7.495   2.698 -2.2354 -3.4388 -0.8505
  913MOL0     H23253   7.580   7.270   2.697 -1.3296  0.5008 -1.3675
  913MOL0     H23254   7.882   7.978   2.330  0.6364 -0.3352 -0.4088
  913MOL0     H23255   7.905   8.246   2.299 -1.8844  1.1601 -2.3938
  914MOL0     O23256  11.020  10.631   5.444 -0.0928 -0.4660  0.4419
  914MOL0     C23257  11.003  10.517   5.414 -0.6582  0.4581  0.0210
  914MOL0     O23258  10.928  10.462   5.311 -0.1809 -1.0960  0.2321
  914MOL0     C23259  10.849  10.551   5.248  0.2810 -0.2516 -0.6383
  914MOL0     C23260  10.883  10.589   5.118  0.3455 -0.6956 -0.4201
  914MOL0     C23261  10.800  10.684   5.058 -0.4328  0.0130 -0.6222
  914MOL0     C23262  10.695  10.744   5.132  0.4382 -0.1376 -0.6294
  914MOL0     O23263  10.616  10.848   5.081  0.1510  0.4156  0.3066
  914MOL0     C23264  10.572  10.837   4.948  0.5554  0.7306 -0.1153
  914MOL0     C23265  10.501  10.965   4.905  0.9608 -0.9157  0.2157
  914MOL0     C23266  10.596  11.071   4.865 -0.1001  0.5868  0.4668
  914MOL0     C23267  10.540  11.216   4.890  0.6989  0.0512  0.7587
  914MOL0     C23268  10.649  11.318   4.859  0.7293 -0.2530 -0.4290
  914MOL0     C23269  10.602  11.462   4.855  0.0632 -0.0775  0.8762
  914MOL0     C23270  10.572  11.524   4.988  1.0988 -0.1177 -0.5433
  914MOL0     C23271  10.683  11.512   5.086 -0.0349  0.3942 -0.0285
  914MOL0     N23272  10.820  11.559   5.044  0.7570  0.5722  0.2374
  914MOL0     C23273  10.840  11.682   4.984 -0.4704  0.5760  0.1798
  914MOL0     C23274  10.962  11.681   4.937 -0.1156  0.0398  0.1869
  914MOL0     C23275  11.024  11.789   4.859  0.0111 -0.5492  0.6998
  914MOL0     C23276  10.964  11.803   4.716 -0.1803  0.2990  0.8471
  914MOL0     C23277  10.997  11.925   4.627  0.3967  0.5690 -0.5735
  914MOL0     C23278  11.134  11.903   4.561 -1.3380 -0.1939  0.0337
  914MOL0     O23279  11.150  12.016   4.478 -0.2534 -0.1354  0.3963
  914MOL0     C23280  11.118  11.995   4.345  0.3614 -0.1751 -0.0516
  914MOL0     C23281  11.196  11.913   4.264  1.2701 -0.6700 -0.0695
  914MOL0     C23282  11.166  11.897   4.126  0.6920  0.1800 -0.3586
  914MOL0     C23283  11.259  11.811   4.058 -0.5570  0.7412 -0.0635
  914MOL0     C23284  11.049  11.960   4.068 -0.0046  0.4999 -0.1055
  914MOL0     C23285  11.004  11.936   3.926  0.1610  0.4462  0.0196
  914MOL0     O23286  11.045  11.820   3.875  0.1759  0.2237 -0.8687
  914MOL0     C23287  10.996  11.781   3.759  0.3990  0.5787  0.0826
  914MOL0     C23288  11.086  11.710   3.675  0.0444 -1.1569  0.5509
  914MOL0     C23289  11.046  11.652   3.555  0.0915  0.4463  0.2012
  914MOL0     C23290  10.917  11.663   3.510  0.2580  0.3043 -0.1442
  914MOL0     O23291  10.888  11.580   3.407 -0.2565 -0.3028 -0.1997
  914MOL0     C23292  10.749  11.584   3.358 -0.2516  0.3789 -0.8131
  914MOL0     C23293  10.729  11.482   3.243 -0.7556 -0.3147  0.2033
  914MOL0     C23294  10.618  11.514   3.140  0.0392  0.1393 -0.2811
  914MOL0     C23295  10.669  11.601   3.029  0.3018  1.1122 -0.5356
  914MOL0     C23296  10.557  11.638   2.926 -0.2619  0.1910 -0.0580
  914MOL0     C23297  10.612  11.707   2.803  0.1658 -0.4077 -0.2222
  914MOL0     C23298  10.683  11.602   2.719 -0.3167 -0.1033  0.5990
  914MOL0     C23299  10.809  11.653   2.654  0.6670  0.0036  0.2063
  914MOL0    Cl23300  10.799  11.607   2.482  0.2518  0.0890 -0.1845
  914MOL0     C23301  10.824  11.740   3.588 -0.2186 -0.2050 -0.3130
  914MOL0     C23302  10.863  11.797   3.707 -0.9088  0.1525  0.2610
  914MOL0     O23303  10.929  12.023   3.877  0.3843 -0.1386  0.6949
  914MOL0     C23304  10.964  12.037   4.151 -0.0622  0.6818  0.2048
  914MOL0     C23305  11.001  12.054   4.286 -0.3972  0.3696  0.1540
  914MOL0     N23306  11.008  11.556   4.957  0.4221 -0.0068 -0.3238
  914MOL0     N23307  10.926  11.482   5.018 -0.2250 -1.0751 -0.0737
  914MOL0     C23308  10.669  10.707   5.267 -0.1372 -0.0556  0.5350
  914MOL0     C23309  10.744  10.608   5.320 -0.4636 -0.5800 -0.6482
  914MOL0     C23310  11.056  10.416   5.511 -0.5378  0.5140 -0.3161
  914MOL0     C23311  11.112  10.457   5.634  0.4106 -0.2025  0.7755
  914MOL0     C23312  11.154  10.366   5.727 -0.2202  0.0027 -0.0621
  914MOL0     C23313  11.155  10.223   5.697  0.7326 -0.3385 -0.0865
  914MOL0     O23314  11.214  10.145   5.793  1.1697  0.3025  1.0037
  914MOL0     C23315  11.204  10.003   5.800 -0.2071  0.0544  1.1731
  914MOL0     C23316  11.327   9.925   5.746  0.2935 -0.8068 -0.5218
  914MOL0     C23317  11.313   9.770   5.763  0.1578 -0.3934  0.4407
  914MOL0     C23318  11.401   9.716   5.646 -0.2260  0.0325 -0.5802
  914MOL0     C23319  11.537   9.775   5.615 -0.4878  0.5744 -0.5404
  914MOL0     C23320  11.644   9.816   5.598 -0.8069 -1.3085  0.0956
  914MOL0     C23321  11.097  10.181   5.585  0.6622  1.3799  0.2761
  914MOL0     C23322  11.037  10.274   5.491 -0.3354  0.3218 -0.4512
  914MOL0     H23323  10.971  10.559   5.061  1.0141  3.9853 -2.2869
  914MOL0     H23324  10.829  10.732   4.965 -1.4018  1.8843  0.0059
  914MOL0     H23325  10.653  10.820   4.877 -1.5000  0.6832 -2.5891
  914MOL0     H23326  10.499  10.757   4.938 -0.3916  1.4776  0.5638
  914MOL0     H23327  10.419  10.948   4.835  0.4628 -1.7677  0.9817
  914MOL0     H23328  10.454  11.010   4.992 -1.0625  0.6317 -1.5727
  914MOL0     H23329  10.698  11.057   4.902 -0.4233 -0.4020  1.0217
  914MOL0     H23330  10.610  11.072   4.756  2.8046  0.2228  0.7740
  914MOL0     H23331  10.444  11.241   4.844  1.0712 -0.3901 -0.2693
  914MOL0     H23332  10.521  11.218   4.998  1.2100 -1.7032  0.9034
  914MOL0     H23333  10.746  11.313   4.910  0.8118  1.6678 -0.3320
  914MOL0     H23334  10.674  11.299   4.754 -1.3976  0.9905 -1.2188
  914MOL0     H23335  10.678  11.526   4.809 -1.0833  0.6918  0.0010
  914MOL0     H23336  10.509  11.470   4.799  0.8078  0.2569 -0.3561
  914MOL0     H23337  10.553  11.630   4.974  0.2004 -0.2787 -0.6418
  914MOL0     H23338  10.489  11.478   5.042  0.8617 -2.4533 -2.6836
  914MOL0     H23339  10.693  11.406   5.110 -3.0931 -0.6082 -2.5067
  914MOL0     H23340  10.666  11.576   5.174  0.9784  1.6324 -0.6868
  914MOL0     H23341  10.763  11.757   4.974  2.5078  3.9811  0.9320
  914MOL0     H23342  11.004  11.878   4.919 -2.1375  0.0479 -0.7868
  914MOL0     H23343  11.130  11.767   4.846  0.6597  1.5709  1.8719
  914MOL0     H23344  10.855  11.797   4.721 -0.1185 -1.6585  0.6719
  914MOL0     H23345  11.000  11.718   4.659  0.3160 -0.0665  1.6806
  914MOL0     H23346  10.993  12.013   4.691 -0.8697  0.4275 -0.4305
  914MOL0     H23347  10.912  11.930   4.559  0.5288  0.8550 -0.7178
  914MOL0     H23348  11.130  11.809   4.505 -1.1031  0.7835 -1.6896
  914MOL0     H23349  11.221  11.901   4.627  0.1276  0.8697 -1.7761
  914MOL0     H23350  11.275  11.850   4.303  0.1139 -2.0018  0.1991
  914MOL0     H23351  11.219  11.712   4.079 -3.5582  1.7151 -0.6682
  914MOL0     H23352  11.265  11.827   3.950  1.3714 -2.8736 -0.6190
  914MOL0     H23353  11.357  11.816   4.106  0.0545  0.3921 -1.2327
  914MOL0     H23354  11.190  11.694   3.702  0.1559  0.4387  1.2343
  914MOL0     H23355  11.123  11.603   3.497 -0.2954 -2.1525  1.7231
  914MOL0     H23356  10.683  11.560   3.442  0.7605  0.0204 -0.0894
  914MOL0     H23357  10.732  11.690   3.338  0.7621  1.4572  3.1610
  914MOL0     H23358  10.829  11.483   3.199 -1.8246 -0.8619 -2.4123
  914MOL0     H23359  10.705  11.383   3.282  0.5256 -1.3706 -1.5789
  914MOL0     H23360  10.533  11.561   3.191  0.2246  0.0451  0.1199
  914MOL0     H23361  10.584  11.420   3.096  1.9227 -0.0351 -1.4702
  914MOL0     H23362  10.725  11.690   3.060  1.5223  0.2401 -0.1642
  914MOL0     H23363  10.747  11.543   2.979 -1.5043 -0.1785 -1.9847
  914MOL0     H23364  10.483  11.697   2.981  0.9326  0.0438  1.7718
  914MOL0     H23365  10.508  11.546   2.893  2.0518 -0.7881 -0.9735
  914MOL0     H23366  10.530  11.740   2.738  1.6101 -0.9206 -2.4336
  914MOL0     H23367  10.681  11.788   2.829 -0.0825  0.5999 -2.4446
  914MOL0     H23368  10.614  11.566   2.642  1.5683 -0.3065 -1.1008
  914MOL0     H23369  10.702  11.511   2.776 -1.8289 -0.1953  0.9926
  914MOL0     H23370  10.900  11.611   2.696 -0.3294 -0.0778  2.4054
  914MOL0     H23371  10.814  11.762   2.644 -2.7840  0.0855 -3.0949
  914MOL0     H23372  10.718  11.757   3.570 -0.1085  1.8294  0.7269
  914MOL0     H23373  10.783  11.843   3.765 -1.5163 -1.2377  0.5633
  914MOL0     H23374  10.876  12.087   4.110  1.3010  1.7300 -1.5725
  914MOL0     H23375  10.930  12.102   4.352  1.3540  0.9635  1.6892
  914MOL0     H23376  10.584  10.747   5.321  0.2519 -1.1921  2.0471
  914MOL0     H23377  10.724  10.580   5.423  3.6419 -0.8145  0.2325
  914MOL0     H23378  11.117  10.559   5.669  4.0306 -1.2025  3.7893
  914MOL0     H23379  11.200  10.394   5.821 -1.1475  2.8043 -0.3666
  914MOL0     H23380  11.172   9.980   5.902 -3.8239  0.0416  0.1865
  914MOL0     H23381  11.121   9.965   5.739  0.6413  0.6859 -0.4345
  914MOL0     H23382  11.413   9.954   5.807 -1.5868  0.2052  1.8731
  914MOL0     H23383  11.343   9.958   5.643 -0.9036 -3.5025 -1.6537
  914MOL0     H23384  11.213   9.734   5.741  0.5446 -2.7318  2.1079
  914MOL0     H23385  11.323   9.730   5.864 -1.7942  0.1346  0.8712
  914MOL0     H23386  11.337   9.736   5.559 -0.4454  0.2617 -0.3688
  914MOL0     H23387  11.410   9.608   5.662 -2.9517  0.1450  2.8356
  914MOL0     H23388  11.741   9.847   5.563  0.1230 -1.9733  1.9541
  914MOL0     H23389  11.100  10.075   5.564  1.9216  1.0719  1.8158
  914MOL0     H23390  10.986  10.231   5.406  1.0900 -0.6668 -0.8442
  915MOL0     O23391   3.573   1.519   0.522 -0.0410 -0.7054 -0.1626
  915MOL0     C23392   3.490   1.445   0.569 -0.5144  0.7070 -0.6871
  915MOL0     O23393   3.353   1.457   0.572  0.0540 -0.4443  0.0834
  915MOL0     C23394   3.308   1.568   0.500  0.1175  0.1116 -0.0208
  915MOL0     C23395   3.237   1.537   0.382 -0.5774 -0.1877 -0.4859
  915MOL0     C23396   3.173   1.649   0.319  1.0012  0.0343 -0.2497
  915MOL0     C23397   3.201   1.783   0.361  1.0160 -0.0222  0.9327
  915MOL0     O23398   3.150   1.893   0.290  0.2271  0.1954 -0.0601
  915MOL0     C23399   3.226   1.918   0.169 -0.2863  1.0247 -0.0878
  915MOL0     C23400   3.221   2.062   0.117  0.8992  0.3777  0.2732
  915MOL0     C23401   3.099   2.099   0.033 -0.6992  0.2944 -0.2598
  915MOL0     C23402   3.088   2.248   0.001 -0.0576 -0.1950  0.5457
  915MOL0     C23403   2.977   2.289  -0.109 -0.3716 -1.3063 -0.5764
  915MOL0     C23404   2.994   2.217  -0.243  0.7131  0.5964 -0.5458
  915MOL0     C23405   2.893   2.270  -0.350  1.1711 -1.0268 -0.6126
  915MOL0     C23406   2.943   2.261  -0.488 -0.3470  0.3687  0.4599
  915MOL0     N23407   2.830   2.273  -0.572  0.9064 -0.4103 -0.3829
  915MOL0     C23408   2.746   2.385  -0.573  0.6339 -0.4706 -1.2642
  915MOL0     C23409   2.629   2.329  -0.613 -0.2422  0.1045 -0.3738
  915MOL0     C23410   2.496   2.406  -0.628  0.0104  0.0618 -0.8824
  915MOL0     C23411   2.478   2.494  -0.501 -0.0988  0.7898  0.4111
  915MOL0     C23412   2.345   2.557  -0.482  0.4942  0.0354  0.2571
  915MOL0     C23413   2.228   2.458  -0.455 -0.6746 -0.0497 -0.4077
  915MOL0     O23414   2.109   2.528  -0.427 -0.7095 -0.1364 -0.2074
  915MOL0     C23415   1.995   2.457  -0.418  0.4222  0.2293  0.5629
  915MOL0     C23416   1.914   2.419  -0.528 -0.7935 -0.4461 -0.3553
  915MOL0     C23417   1.804   2.329  -0.510 -0.0555 -0.0098 -0.7432
  915MOL0     C23418   1.722   2.269  -0.630 -0.6463  0.2081  0.4599
  915MOL0     C23419   1.768   2.291  -0.378  0.3019 -0.4074 -0.0828
  915MOL0     C23420   1.642   2.215  -0.346 -0.4636  0.0133 -0.2938
  915MOL0     O23421   1.665   2.124  -0.234 -0.2058 -0.1673 -0.0514
  915MOL0     C23422   1.607   2.001  -0.229 -0.5606 -0.6154  0.3410
  915MOL0     C23423   1.630   1.924  -0.124 -0.3756  0.3651  0.9771
  915MOL0     C23424   1.566   1.797  -0.100 -0.5209 -0.0419  0.0003
  915MOL0     C23425   1.506   1.730  -0.211 -0.9408  0.3085 -0.4573
  915MOL0     O23426   1.480   1.592  -0.221  0.8552 -0.9449  0.1752
  915MOL0     C23427   1.539   1.506  -0.125 -0.8574  0.3862  0.1437
  915MOL0     C23428   1.487   1.360  -0.153 -0.1421  0.4505 -0.4503
  915MOL0     C23429   1.330   1.354  -0.144  0.2363 -0.1605 -0.0471
  915MOL0     C23430   1.283   1.228  -0.055  0.4450 -0.2548  0.3844
  915MOL0     C23431   1.228   1.117  -0.154 -0.0674  0.7434  0.2398
  915MOL0     C23432   1.204   0.991  -0.079  0.6097 -0.2613  0.5877
  915MOL0     C23433   1.058   0.980  -0.027 -0.4958  0.1247  0.1848
  915MOL0     C23434   1.048   0.871   0.082 -0.2993  0.7091  0.5998
  915MOL0    Cl23435   1.108   0.934   0.238 -0.4765 -0.4656 -0.0560
  915MOL0     C23436   1.482   1.805  -0.325 -1.2178 -0.5894  0.8147
  915MOL0     C23437   1.537   1.936  -0.341 -0.4240  0.3757  0.0885
  915MOL0     O23438   1.541   2.241  -0.414  0.2447 -0.2484 -0.5591
  915MOL0     C23439   1.849   2.336  -0.272  0.4624  0.4640  0.6731
  915MOL0     C23440   1.963   2.413  -0.287  0.1911  0.0305  0.1692
  915MOL0     N23441   2.643   2.200  -0.636  0.3130  0.2457 -0.4782
  915MOL0     N23442   2.761   2.165  -0.626 -0.7911 -0.9172 -0.1913
  915MOL0     C23443   3.284   1.811   0.460 -0.2884 -0.2106 -0.2514
  915MOL0     C23444   3.327   1.699   0.535 -0.1275 -0.6464 -0.4382
  915MOL0     C23445   3.545   1.334   0.646 -0.2555 -0.9864 -0.1640
  915MOL0     C23446   3.676   1.358   0.704 -0.1990 -0.0277 -0.0422
  915MOL0     C23447   3.742   1.270   0.790  0.4701  1.2118  0.1113
  915MOL0     C23448   3.664   1.149   0.836  0.8513 -0.1725  0.5104
  915MOL0     O23449   3.697   1.049   0.925  0.2975  0.5449 -0.1810
  915MOL0     C23450   3.833   1.049   0.971 -0.9422 -0.7725 -0.1024
  915MOL0     C23451   3.863   0.925   1.048  0.4637  0.6650 -0.4912
  915MOL0     C23452   3.871   0.809   0.941  0.7318  1.6473  0.2739
  915MOL0     C23453   3.963   0.687   0.992  0.3510 -0.7707  0.5193
  915MOL0     C23454   4.103   0.725   1.008  0.3327  0.0200  0.4322
  915MOL0     C23455   4.220   0.747   1.031 -0.7003 -0.1532 -0.0318
  915MOL0     C23456   3.535   1.131   0.773  0.4367 -0.7205  0.1712
  915MOL0     C23457   3.473   1.224   0.685  0.3784  0.7074  1.0638
  915MOL0     H23458   3.221   1.442   0.334  1.0744 -0.7738  0.0408
  915MOL0     H23459   3.121   1.636   0.225  1.7614 -0.2572 -0.6442
  915MOL0     H23460   3.329   1.883   0.181 -1.8591 -3.4229  3.2462
  915MOL0     H23461   3.173   1.853   0.099 -1.1876  1.6184  0.0314
  915MOL0     H23462   3.212   2.133   0.199 -2.9802 -1.0533  1.2979
  915MOL0     H23463   3.306   2.075   0.049  0.3479  0.5041 -0.4085
  915MOL0     H23464   3.101   2.049  -0.064  3.0306  1.0535 -0.7239
  915MOL0     H23465   3.011   2.072   0.091  0.8298  0.7496  2.4728
  915MOL0     H23466   3.062   2.285   0.100 -0.1285 -0.5402  0.6546
  915MOL0     H23467   3.182   2.301  -0.019 -0.7952  1.6140  1.6575
  915MOL0     H23468   2.871   2.283  -0.083 -0.6364  0.5589 -1.0385
  915MOL0     H23469   2.991   2.396  -0.128 -2.1381 -1.4021 -2.7390
  915MOL0     H23470   3.100   2.237  -0.261  1.0408  0.7393  1.3326
  915MOL0     H23471   2.980   2.109  -0.227  1.0318  0.8118  1.4702
  915MOL0     H23472   2.803   2.212  -0.328  2.8900 -3.5595  0.2061
  915MOL0     H23473   2.867   2.375  -0.330 -1.9136 -1.7951  0.0139
  915MOL0     H23474   2.985   2.160  -0.495  0.4029  0.4051  3.1843
  915MOL0     H23475   3.020   2.339  -0.493  2.5645 -2.2560  1.2193
  915MOL0     H23476   2.781   2.485  -0.550  0.3874 -0.4062 -1.1630
  915MOL0     H23477   2.504   2.472  -0.715 -0.9143  0.7208 -0.4881
  915MOL0     H23478   2.406   2.345  -0.644  0.5989 -0.4201 -2.4834
  915MOL0     H23479   2.549   2.577  -0.510  0.7845 -0.0238 -0.3355
  915MOL0     H23480   2.487   2.426  -0.416 -0.5292  2.6300  2.0014
  915MOL0     H23481   2.328   2.605  -0.579  0.6123  0.4273  0.4275
  915MOL0     H23482   2.354   2.637  -0.408  0.9595 -0.0064  0.2522
  915MOL0     H23483   2.258   2.393  -0.373  0.2213 -0.6788 -1.2053
  915MOL0     H23484   2.205   2.395  -0.542 -1.6817  1.2678 -1.1235
  915MOL0     H23485   1.927   2.435  -0.634 -1.2875  0.0299 -0.3488
  915MOL0     H23486   1.716   2.160  -0.624 -0.5316  0.1917  0.2669
  915MOL0     H23487   1.624   2.305  -0.663 -0.7238 -4.2473 -5.9259
  915MOL0     H23488   1.782   2.289  -0.719 -2.5086  2.2065 -0.4603
  915MOL0     H23489   1.688   1.964  -0.042 -0.4165  2.3434  0.0827
  915MOL0     H23490   1.593   1.743  -0.009 -2.9990 -1.5174 -0.0444
  915MOL0     H23491   1.647   1.497  -0.140 -0.6417 -3.1597  2.4467
  915MOL0     H23492   1.506   1.533  -0.024  0.2057 -0.9808  0.8939
  915MOL0     H23493   1.530   1.345  -0.253  0.0621  1.9411 -0.6027
  915MOL0     H23494   1.538   1.298  -0.079 -2.3112 -0.1918  0.5873
  915MOL0     H23495   1.279   1.349  -0.240 -2.6339 -3.3012  1.4382
  915MOL0     H23496   1.289   1.446  -0.100 -1.4946 -0.6281 -0.6071
  915MOL0     H23497   1.367   1.194   0.006  0.9121 -0.1674 -0.2035
  915MOL0     H23498   1.196   1.252   0.008  1.0622 -0.3705  1.2980
  915MOL0     H23499   1.309   1.100  -0.225  0.1793 -2.1839  1.0830
  915MOL0     H23500   1.135   1.129  -0.210  0.3023  0.6491 -0.4009
  915MOL0     H23501   1.215   0.913  -0.155 -0.8547  2.5621 -2.8206
  915MOL0     H23502   1.284   0.980  -0.005  0.4047 -1.4541  0.6536
  915MOL0     H23503   0.996   0.952  -0.112 -0.7593  2.1507 -0.3504
  915MOL0     H23504   1.031   1.071   0.028 -2.7381 -1.2030  1.4197
  915MOL0     H23505   1.114   0.786   0.062 -2.1551 -0.0759 -3.0967
  915MOL0     H23506   0.944   0.837   0.087  0.0781 -0.3393  1.9496
  915MOL0     H23507   1.440   1.766  -0.418  0.6682 -4.1890  1.2667
  915MOL0     H23508   1.522   1.991  -0.433  2.2533  2.7591  0.9370
  915MOL0     H23509   1.818   2.308  -0.172 -0.2543  2.2797  1.0100
  915MOL0     H23510   2.010   2.451  -0.197  0.3916 -1.7812  0.8866
  915MOL0     H23511   3.309   1.915   0.478  4.5463 -0.9827 -1.0736
  915MOL0     H23512   3.389   1.721   0.621  2.3829 -0.7525 -2.1072
  915MOL0     H23513   3.737   1.444   0.678  1.3812 -1.0618  0.0812
  915MOL0     H23514   3.846   1.283   0.816  0.8402  0.1877 -0.7622
  915MOL0     H23515   3.893   1.047   0.880  0.6273  1.8388  0.7860
  915MOL0     H23516   3.851   1.139   1.030 -0.5325 -1.0224  0.1574
  915MOL0     H23517   3.800   0.894   1.132  2.0166 -2.2264 -0.2604
  915MOL0     H23518   3.968   0.934   1.078  1.1760 -0.9744 -2.2692
  915MOL0     H23519   3.918   0.837   0.846 -1.8701 -0.9451 -1.9771
  915MOL0     H23520   3.767   0.784   0.921  0.7786 -0.9039  2.6027
  915MOL0     H23521   3.949   0.597   0.932 -0.9745 -2.5221  3.2254
  915MOL0     H23522   3.931   0.652   1.091  4.2127  1.8651  2.9864
  915MOL0     H23523   4.320   0.764   1.063 -0.0942 -0.1012 -1.8668
  915MOL0     H23524   3.487   1.036   0.797 -1.4136  0.3295  0.8397
  915MOL0     H23525   3.369   1.213   0.657  0.7837  2.7150 -1.7283
  916MOL0     O23526   0.887   8.873   6.546 -0.3097 -0.3150 -0.3668
  916MOL0     C23527   0.824   8.857   6.444 -0.7581 -0.2913 -0.5051
  916MOL0     O23528   0.845   8.917   6.327  0.1712 -0.2329  0.0119
  916MOL0     C23529   0.948   9.008   6.295  0.5058  0.4444  0.4996
  916MOL0     C23530   0.969   9.030   6.163 -0.3525  0.3347  0.3632
  916MOL0     C23531   1.080   9.104   6.117 -0.9839  0.5057  0.4844
  916MOL0     C23532   1.176   9.164   6.207 -0.1881 -0.7425 -0.3039
  916MOL0     O23533   1.261   9.264   6.182 -0.2365  0.0381  0.0787
  916MOL0     C23534   1.318   9.280   6.053  0.1724 -0.2275  1.0625
  916MOL0     C23535   1.441   9.383   6.047  0.2682 -0.0724 -0.4228
  916MOL0     C23536   1.555   9.370   6.157  0.4404  0.3758 -0.9943
  916MOL0     C23537   1.670   9.466   6.149  0.9058 -0.4794 -0.3198
  916MOL0     C23538   1.744   9.432   6.016  0.3534 -0.2857  0.7171
  916MOL0     C23539   1.879   9.517   6.023 -1.0598 -0.4393  0.7043
  916MOL0     C23540   1.964   9.524   5.901  0.9137  0.8679  0.8483
  916MOL0     C23541   2.044   9.399   5.871  0.4789 -0.1057  0.5131
  916MOL0     N23542   2.179   9.390   5.931 -0.1383 -0.4825 -0.4804
  916MOL0     C23543   2.244   9.495   5.999  0.4445  0.2330 -1.7558
  916MOL0     C23544   2.361   9.450   6.054 -1.5807  0.8213 -0.1392
  916MOL0     C23545   2.461   9.522   6.128 -0.1624  0.3248 -0.6836
  916MOL0     C23546   2.528   9.633   6.048  0.9678 -0.1427  0.2626
  916MOL0     C23547   2.611   9.588   5.927  0.6777  0.5570 -0.1325
  916MOL0     C23548   2.706   9.696   5.884 -0.3440 -0.2088 -0.4474
  916MOL0     O23549   2.643   9.827   5.854  0.0978 -0.2403  0.3020
  916MOL0     C23550   2.636   9.869   5.724  0.9863 -0.1387  0.4999
  916MOL0     C23551   2.532   9.952   5.698 -0.0378 -0.1620  0.2278
  916MOL0     C23552   2.518  10.014   5.569  0.1910  0.2728 -0.3033
  916MOL0     C23553   2.403  10.119   5.559 -0.6444  0.4228  0.5207
  916MOL0     C23554   2.606   9.964   5.462  0.2304  0.2156  0.0668
  916MOL0     C23555   2.607  10.015   5.324  1.8995 -0.2682 -0.5503
  916MOL0     O23556   2.523  10.118   5.301 -0.8321  0.9125 -0.4866
  916MOL0     C23557   2.523  10.186   5.175  0.3329 -0.8827 -0.5761
  916MOL0     C23558   2.517  10.112   5.059 -0.7565  0.4077  0.1145
  916MOL0     C23559   2.518  10.179   4.935 -0.4171  0.4940 -0.6408
  916MOL0     C23560   2.517  10.315   4.929  0.0402 -0.5250 -0.0578
  916MOL0     O23561   2.522  10.386   4.812 -0.6663 -0.4685 -0.1505
  916MOL0     C23562   2.523  10.312   4.688 -0.9680  0.1177  0.6141
  916MOL0     C23563   2.559  10.414   4.579 -1.3534  0.3942 -0.3698
  916MOL0     C23564   2.587  10.348   4.446 -0.3574  0.6178 -0.0064
  916MOL0     C23565   2.577  10.459   4.338 -0.0919  0.0772 -0.0719
  916MOL0     C23566   2.608  10.382   4.201 -1.0118 -0.1827  0.0318
  916MOL0     C23567   2.580  10.453   4.069  0.0492  0.4555  0.0954
  916MOL0     C23568   2.556  10.603   4.095 -0.9421  0.5335 -0.6521
  916MOL0     C23569   2.564  10.671   3.953 -0.0678 -0.0946 -0.0108
  916MOL0    Cl23570   2.529  10.837   3.998 -0.2401  0.2365  0.3984
  916MOL0     C23571   2.520  10.394   5.047 -0.2495  0.0437  0.3680
  916MOL0     C23572   2.527  10.331   5.168 -0.3807  0.2558 -0.2865
  916MOL0     O23573   2.655   9.940   5.240  0.4228 -0.3565 -0.2920
  916MOL0     C23574   2.713   9.871   5.497 -0.3613 -0.3663 -0.7043
  916MOL0     C23575   2.741   9.840   5.630 -0.0093 -0.5151 -0.9202
  916MOL0     N23576   2.361   9.314   6.018 -0.2237  0.5449  0.6243
  916MOL0     N23577   2.258   9.282   5.943 -0.3524  0.2762  0.6490
  916MOL0     C23578   1.154   9.145   6.341 -0.8650  0.4616  0.3438
  916MOL0     C23579   1.042   9.064   6.384  1.7051 -0.2669 -0.4541
  916MOL0     C23580   0.701   8.781   6.469 -0.3306 -0.4515  1.3621
  916MOL0     C23581   0.677   8.695   6.567 -0.1692  0.4521 -0.6114
  916MOL0     C23582   0.559   8.614   6.579 -0.6526 -0.3278 -0.2846
  916MOL0     C23583   0.453   8.626   6.483  0.0720 -0.5934 -0.2893
  916MOL0     O23584   0.347   8.544   6.491  0.1751  0.2921  0.1027
  916MOL0     C23585   0.222   8.612   6.459 -0.4177 -1.1614 -0.8441
  916MOL0     C23586   0.106   8.551   6.542  0.8977 -0.2346 -0.7745
  916MOL0     C23587  -0.032   8.621   6.535  0.3745  0.3848 -0.0419
  916MOL0     C23588  -0.082   8.640   6.385  0.7260  0.8333  0.1822
  916MOL0     C23589  -0.099   8.508   6.328 -0.1941 -0.2807 -0.3586
  916MOL0     C23590  -0.108   8.408   6.263 -0.0582 -0.1335 -0.7838
  916MOL0     C23591   0.480   8.724   6.387 -0.8046 -0.4318  0.2989
  916MOL0     C23592   0.594   8.800   6.375  0.2857  0.5365 -0.0503
  916MOL0     H23593   0.899   8.984   6.094 -3.4940  2.9802  1.5184
  916MOL0     H23594   1.092   9.105   6.009 -2.4042 -1.3232  0.2539
  916MOL0     H23595   1.345   9.180   6.020  0.6827  0.0170  0.7076
  916MOL0     H23596   1.236   9.323   5.995  0.8463 -1.4240 -0.8595
  916MOL0     H23597   1.486   9.375   5.948 -1.1455 -1.9332 -0.9693
  916MOL0     H23598   1.390   9.479   6.056  0.6725  0.0100  1.5641
  916MOL0     H23599   1.515   9.399   6.254  7.1368  1.0403  2.1105
  916MOL0     H23600   1.584   9.265   6.173 -0.8657 -0.0076 -1.0146
  916MOL0     H23601   1.630   9.566   6.169  0.4911 -0.5260 -0.9032
  916MOL0     H23602   1.738   9.436   6.229  0.2262 -1.1111  0.0264
  916MOL0     H23603   1.778   9.328   6.011  0.0018 -0.3501 -2.5804
  916MOL0     H23604   1.688   9.453   5.924  1.4109  2.8149  0.6505
  916MOL0     H23605   1.853   9.622   6.040  0.4947  0.9849 -4.2048
  916MOL0     H23606   1.936   9.474   6.106 -0.3226  1.2635  1.1395
  916MOL0     H23607   1.911   9.535   5.806  1.5860  0.8250  0.4614
  916MOL0     H23608   2.021   9.617   5.905  0.4631  1.3459 -1.8170
  916MOL0     H23609   2.062   9.398   5.763 -2.2941 -3.4321 -0.0760
  916MOL0     H23610   1.980   9.312   5.885  1.0377 -0.2150  2.7359
  916MOL0     H23611   2.222   9.601   6.008  2.6713  0.6049  0.6949
  916MOL0     H23612   2.416   9.553   6.222 -0.6048 -0.6765 -0.5479
  916MOL0     H23613   2.536   9.444   6.144  0.3300  1.2707  2.1596
  916MOL0     H23614   2.582   9.697   6.118 -0.0315 -0.1678  1.0815
  916MOL0     H23615   2.440   9.686   6.011 -0.6242 -0.9533  2.6743
  916MOL0     H23616   2.541   9.567   5.846 -1.0254  0.2505  1.3454
  916MOL0     H23617   2.672   9.502   5.956 -0.3078  0.0419  0.4440
  916MOL0     H23618   2.765   9.651   5.804  2.9251  2.8142  0.0158
  916MOL0     H23619   2.774   9.718   5.966  1.4818 -0.1525 -1.9245
  916MOL0     H23620   2.462   9.983   5.776  0.9472 -1.5021  1.7023
  916MOL0     H23621   2.458  10.210   5.533  2.6287 -1.0125  1.7989
  916MOL0     H23622   2.341  10.093   5.473  1.2780 -3.7411  0.1556
  916MOL0     H23623   2.348  10.118   5.653 -0.5685 -2.9656  0.6475
  916MOL0     H23624   2.507  10.004   5.059  2.4386 -0.0102  2.1149
  916MOL0     H23625   2.508  10.111   4.851 -1.4285 -1.8532  1.2494
  916MOL0     H23626   2.610  10.246   4.682  1.1888  2.5512  2.5392
  916MOL0     H23627   2.428  10.261   4.673 -1.0252  0.0649  1.1386
  916MOL0     H23628   2.477  10.481   4.554 -1.6114  0.5272  0.8001
  916MOL0     H23629   2.644  10.467   4.623 -0.9189  0.9833 -1.8480
  916MOL0     H23630   2.508  10.273   4.431  0.2103  0.1255 -0.5673
  916MOL0     H23631   2.687  10.306   4.457  0.9405  3.8559  1.8851
  916MOL0     H23632   2.477  10.502   4.330 -0.5245 -0.7572  0.5970
  916MOL0     H23633   2.646  10.540   4.364 -2.3800  1.4118  2.2116
  916MOL0     H23634   2.553  10.287   4.203 -1.0628 -0.1666 -0.6041
  916MOL0     H23635   2.714  10.361   4.218 -1.2252 -0.2775  1.4160
  916MOL0     H23636   2.671  10.438   4.011  1.8091  3.2779  1.8634
  916MOL0     H23637   2.491  10.405   4.027 -2.1717  2.0950  2.6086
  916MOL0     H23638   2.638  10.643   4.155 -1.1906  0.7533 -0.4579
  916MOL0     H23639   2.453  10.611   4.131 -1.1829  1.8942 -1.5454
  916MOL0     H23640   2.486  10.635   3.886  0.9157 -2.7590  0.1564
  916MOL0     H23641   2.664  10.655   3.910  0.0238  3.3820 -1.4411
  916MOL0     H23642   2.530  10.502   5.043  1.7492 -0.0113  2.1357
  916MOL0     H23643   2.548  10.385   5.259 -0.7285 -0.8572  0.4741
  916MOL0     H23644   2.789   9.838   5.426  1.3146  1.1483  0.2964
  916MOL0     H23645   2.822   9.785   5.675 -0.0206  0.4572  0.3623
  916MOL0     H23646   1.214   9.193   6.417 -1.2401 -0.7001  1.4328
  916MOL0     H23647   1.008   9.069   6.487 -2.0539 -1.0188 -1.5435
  916MOL0     H23648   0.758   8.677   6.637  1.0387  3.4366 -1.0864
  916MOL0     H23649   0.554   8.538   6.656  2.7497  1.1639  1.5863
  916MOL0     H23650   0.228   8.718   6.484  1.4072 -1.1400 -1.2447
  916MOL0     H23651   0.212   8.618   6.350  4.1244  1.3568 -1.3315
  916MOL0     H23652   0.135   8.541   6.648  0.8427 -0.9709 -0.8187
  916MOL0     H23653   0.096   8.446   6.513  0.6120 -0.9456  1.6637
  916MOL0     H23654  -0.030   8.714   6.593 -0.0921  0.4526 -0.1254
  916MOL0     H23655  -0.102   8.564   6.597  0.5435  2.4868  2.2567
  916MOL0     H23656  -0.012   8.693   6.319  2.6571 -0.4969  1.0476
  916MOL0     H23657  -0.177   8.694   6.375  0.4515  0.0334 -2.2882
  916MOL0     H23658  -0.107   8.332   6.187 -2.4415 -1.2350  0.1808
  916MOL0     H23659   0.410   8.744   6.306  0.7558 -1.3473 -1.3653
  916MOL0     H23660   0.603   8.861   6.286 -2.2327 -1.1871 -1.6259
  917MOL0     O23661   4.460   7.746   0.331  0.0163  0.0237 -0.0590
  917MOL0     C23662   4.586   7.718   0.337 -0.4771 -0.2701  0.8746
  917MOL0     O23663   4.660   7.691   0.442  0.2669  0.1408  0.2365
  917MOL0     C23664   4.593   7.682   0.561 -0.6085  0.3096 -0.1075
  917MOL0     C23665   4.491   7.582   0.576 -0.7710 -0.1367  0.2800
  917MOL0     C23666   4.418   7.576   0.695  0.7407 -0.7098 -0.0182
  917MOL0     C23667   4.449   7.655   0.805 -0.1623  0.9777  0.0744
  917MOL0     O23668   4.359   7.665   0.905 -0.0575 -0.1555 -0.1243
  917MOL0     C23669   4.371   7.782   0.998 -0.3166  0.1574  0.0836
  917MOL0     C23670   4.299   7.757   1.123 -0.6145 -0.5788 -0.1533
  917MOL0     C23671   4.303   7.866   1.226  0.1162 -0.3608  0.3222
  917MOL0     C23672   4.205   7.853   1.337  0.0622  0.2535 -0.3949
  917MOL0     C23673   4.248   7.923   1.467 -0.3555 -1.2287  0.2359
  917MOL0     C23674   4.337   7.837   1.556  0.7055  0.5386  1.2758
  917MOL0     C23675   4.384   7.908   1.684 -0.1018  0.4207  0.1104
  917MOL0     C23676   4.266   7.958   1.768  0.5908  0.7366 -0.4689
  917MOL0     N23677   4.176   7.853   1.835  0.3051  0.2446  0.0045
  917MOL0     C23678   4.098   7.766   1.769  0.6895  0.0495  0.6216
  917MOL0     C23679   4.053   7.669   1.859  0.0417  0.3975 -0.5691
  917MOL0     C23680   3.970   7.541   1.836 -0.1563 -0.7826  0.2058
  917MOL0     C23681   3.832   7.567   1.794  0.1922 -0.2081 -1.3730
  917MOL0     C23682   3.756   7.438   1.764 -0.6390  1.0200  0.3848
  917MOL0     C23683   3.761   7.376   1.621 -0.2595 -0.6751 -0.0306
  917MOL0     O23684   3.686   7.462   1.540  0.1308  0.0329 -0.6859
  917MOL0     C23685   3.716   7.443   1.401 -1.2572 -0.0588  0.4178
  917MOL0     C23686   3.628   7.508   1.318 -0.0895 -0.2840  0.6973
  917MOL0     C23687   3.630   7.494   1.181  0.3001  0.4079  1.3408
  917MOL0     C23688   3.515   7.562   1.105  0.0609  1.2041  0.0090
  917MOL0     C23689   3.744   7.421   1.118  0.6582 -0.8761  1.0569
  917MOL0     C23690   3.794   7.435   0.974  0.6263 -0.3459 -1.3580
  917MOL0     O23691   3.903   7.379   0.937 -0.1606  0.2984 -0.2520
  917MOL0     C23692   3.945   7.400   0.813  0.2604 -0.3868 -0.3983
  917MOL0     C23693   4.018   7.521   0.776 -0.1216  0.2714 -0.0626
  917MOL0     C23694   4.061   7.539   0.641  0.4874  0.0530  0.2226
  917MOL0     C23695   4.051   7.428   0.550  0.2240 -0.9019  0.5102
  917MOL0     O23696   4.108   7.424   0.428  0.1404 -0.5632 -0.4402
  917MOL0     C23697   4.124   7.544   0.354 -0.0359 -0.4138 -0.2974
  917MOL0     C23698   4.136   7.510   0.207  0.9611  0.0467 -0.1027
  917MOL0     C23699   4.214   7.380   0.173  0.2692 -0.1713  0.1246
  917MOL0     C23700   4.359   7.407   0.177  0.0061 -0.1568 -0.3126
  917MOL0     C23701   4.439   7.283   0.126 -0.4956  0.3840 -0.0368
  917MOL0     C23702   4.588   7.313   0.107  0.2738  0.1181 -0.7772
  917MOL0     C23703   4.654   7.182   0.055 -0.0999  0.6080  0.9139
  917MOL0     C23704   4.809   7.197   0.069  0.0120 -0.1918  0.5234
  917MOL0    Cl23705   4.850   7.326  -0.062 -0.0311 -0.4124  0.5240
  917MOL0     C23706   3.970   7.319   0.586 -0.9570 -0.9646 -0.1258
  917MOL0     C23707   3.928   7.302   0.719 -0.7438 -0.0455 -0.7699
  917MOL0     O23708   3.734   7.528   0.911  0.7687  0.9466 -0.9087
  917MOL0     C23709   3.844   7.371   1.206 -0.4709  0.0414 -0.4611
  917MOL0     C23710   3.830   7.370   1.348 -0.3827 -0.1667 -0.4739
  917MOL0     N23711   4.118   7.691   1.974 -0.4338 -0.7840 -0.0993
  917MOL0     N23712   4.175   7.810   1.963 -0.3324  0.0038 -0.8794
  917MOL0     C23713   4.552   7.746   0.789 -0.3844 -0.9182 -0.3503
  917MOL0     C23714   4.626   7.761   0.673 -0.6624 -0.0585  0.1652
  917MOL0     C23715   4.674   7.752   0.219  0.8680  0.1319 -0.5056
  917MOL0     C23716   4.755   7.662   0.155  0.3848  1.3055 -0.0187
  917MOL0     C23717   4.816   7.704   0.034 -0.4640  0.6595  0.1295
  917MOL0     C23718   4.801   7.834  -0.020  1.4812  0.1805 -0.0612
  917MOL0     O23719   4.853   7.874  -0.140  0.5164  0.7817  0.0435
  917MOL0     C23720   4.922   7.996  -0.142  1.2090  0.6985 -0.1624
  917MOL0     C23721   5.047   8.009  -0.055 -1.4444  0.0875  0.0810
  917MOL0     C23722   5.081   8.151  -0.009 -0.1585 -1.2397  0.7857
  917MOL0     C23723   5.122   8.177   0.137 -0.2413 -0.6681 -0.7940
  917MOL0     C23724   5.174   8.319   0.131 -1.3400  0.3389 -0.4606
  917MOL0     C23725   5.214   8.437   0.116 -0.9153 -0.1360 -0.3967
  917MOL0     C23726   4.720   7.921   0.051  0.1670 -0.3516 -0.6149
  917MOL0     C23727   4.647   7.882   0.167  0.5590 -0.4979 -0.0133
  917MOL0     H23728   4.468   7.525   0.486  2.4784 -1.0665 -0.0914
  917MOL0     H23729   4.325   7.520   0.697  0.7073 -0.9624  4.9160
  917MOL0     H23730   4.470   7.807   1.037 -0.5284 -0.1484  0.8322
  917MOL0     H23731   4.339   7.875   0.950  3.5784  2.0610  0.7598
  917MOL0     H23732   4.196   7.728   1.103 -1.6049  0.2495  3.1866
  917MOL0     H23733   4.337   7.671   1.179 -0.5919  1.3297  3.0205
  917MOL0     H23734   4.404   7.875   1.266 -0.2968 -1.1123  1.5941
  917MOL0     H23735   4.268   7.954   1.172 -1.2325 -0.8648  0.3296
  917MOL0     H23736   4.108   7.887   1.301 -1.7696 -3.2473  0.7707
  917MOL0     H23737   4.195   7.747   1.363  1.9593  0.4795  1.5181
  917MOL0     H23738   4.285   8.023   1.442 -1.1453 -0.7678  0.8363
  917MOL0     H23739   4.153   7.945   1.518 -1.1601 -0.3162 -1.5585
  917MOL0     H23740   4.284   7.744   1.580 -0.6924  0.1015 -2.8030
  917MOL0     H23741   4.426   7.809   1.499 -0.7339  0.3966 -0.9930
  917MOL0     H23742   4.429   7.830   1.747 -0.2536 -0.2118 -0.5525
  917MOL0     H23743   4.446   7.997   1.677  0.6440  0.0111  1.1895
  917MOL0     H23744   4.211   8.031   1.708  2.3481  0.7935 -2.1294
  917MOL0     H23745   4.306   8.023   1.847 -3.1507  0.7951  1.6035
  917MOL0     H23746   4.082   7.766   1.661 -0.2630 -5.0484  0.4813
  917MOL0     H23747   4.033   7.495   1.759  3.1410 -0.2081  2.3581
  917MOL0     H23748   3.964   7.482   1.927  0.7306 -0.9541  0.1647
  917MOL0     H23749   3.820   7.653   1.727 -0.8841 -0.8751 -2.0761
  917MOL0     H23750   3.787   7.596   1.890  1.2629 -0.7640 -0.6835
  917MOL0     H23751   3.649   7.455   1.781 -0.9932  0.9755 -1.4892
  917MOL0     H23752   3.787   7.353   1.825  1.9650  1.0221 -0.7924
  917MOL0     H23753   3.729   7.273   1.605  1.2674 -0.9343 -1.6772
  917MOL0     H23754   3.866   7.368   1.593  0.4380 -0.3895  2.3131
  917MOL0     H23755   3.545   7.564   1.360 -0.8255 -0.2776 -0.7160
  917MOL0     H23756   3.547   7.652   1.052 -0.0087  2.0515  1.3655
  917MOL0     H23757   3.480   7.487   1.034  1.2853 -1.2252  1.8445
  917MOL0     H23758   3.428   7.589   1.166  1.1860  4.1808  0.4589
  917MOL0     H23759   4.037   7.597   0.851  1.3472  0.2015 -0.3401
  917MOL0     H23760   4.135   7.617   0.628  1.2155 -0.4919  1.0078
  917MOL0     H23761   4.032   7.601   0.373 -1.6264 -2.4427 -1.5629
  917MOL0     H23762   4.208   7.602   0.393 -2.3059  4.4676 -1.8114
  917MOL0     H23763   4.034   7.501   0.170 -0.7575 -0.5794  4.2170
  917MOL0     H23764   4.189   7.594   0.161 -1.0776  0.6359 -1.5020
  917MOL0     H23765   4.204   7.359   0.066  2.8713 -2.3701  0.2031
  917MOL0     H23766   4.173   7.298   0.233  2.5982 -1.5355 -0.0425
  917MOL0     H23767   4.382   7.492   0.112  0.6831  0.5855  0.8528
  917MOL0     H23768   4.394   7.448   0.272  0.2722 -0.4651 -0.2785
  917MOL0     H23769   4.392   7.250   0.033 -2.8859 -2.3280  1.9715
  917MOL0     H23770   4.435   7.198   0.195  1.0254 -0.5626 -1.0470
  917MOL0     H23771   4.607   7.400   0.044 -1.7506  0.2612 -1.2530
  917MOL0     H23772   4.636   7.338   0.203  0.3644  0.6130 -0.9511
  917MOL0     H23773   4.635   7.171  -0.052  0.6021 -1.3738  0.9553
  917MOL0     H23774   4.611   7.094   0.103 -0.6493 -0.2071 -0.9810
  917MOL0     H23775   4.862   7.103   0.050  1.9761  1.1995 -1.2662
  917MOL0     H23776   4.836   7.227   0.171 -0.5882  1.7830  0.1456
  917MOL0     H23777   3.945   7.248   0.509 -0.2569 -1.4753  0.1102
  917MOL0     H23778   3.883   7.208   0.747  2.1573 -1.3991 -0.2595
  917MOL0     H23779   3.932   7.324   1.164  1.4609  1.1109  2.1194
  917MOL0     H23780   3.909   7.328   1.408  0.1585 -1.1687 -1.8391
  917MOL0     H23781   4.590   7.811   0.867  0.3309  0.8192 -2.0747
  917MOL0     H23782   4.706   7.833   0.655 -0.3995 -0.8316 -2.1166
  917MOL0     H23783   4.785   7.568   0.201  0.4467  0.4863 -1.6505
  917MOL0     H23784   4.878   7.635  -0.023  0.0863  1.1973  0.0638
  917MOL0     H23785   4.946   8.015  -0.247  1.4859 -0.7864 -0.4015
  917MOL0     H23786   4.852   8.078  -0.127  0.4045 -0.1573  0.8933
  917MOL0     H23787   5.137   7.980  -0.109  1.1232  2.9713  2.5020
  917MOL0     H23788   5.047   7.948   0.036 -1.4217  2.2503  1.5896
  917MOL0     H23789   4.993   8.213  -0.026 -0.0037 -0.6161  2.1147
  917MOL0     H23790   5.158   8.188  -0.078  0.4186  1.1363  2.5620
  917MOL0     H23791   5.204   8.109   0.162 -0.0847 -0.0750  0.4010
  917MOL0     H23792   5.043   8.170   0.212  0.2229  2.7437  0.1879
  917MOL0     H23793   5.227   8.543   0.102  0.0484 -0.2084 -0.1362
  917MOL0     H23794   4.692   8.019   0.013  1.9189  1.9636  3.4929
  917MOL0     H23795   4.572   7.943   0.217  1.4028  2.1267 -1.7277
  918MOL0     O23796   0.844   9.482   8.030  0.6757  0.4498  0.1189
  918MOL0     C23797   0.733   9.439   8.007 -0.0824  0.4125 -0.3706
  918MOL0     O23798   0.641   9.379   8.090  0.7231 -0.4259  0.1917
  918MOL0     C23799   0.658   9.380   8.221 -0.4092  0.0338  0.0907
  918MOL0     C23800   0.692   9.499   8.295 -0.3188 -0.8672 -0.5323
  918MOL0     C23801   0.712   9.491   8.432  0.2697 -0.8244  0.1138
  918MOL0     C23802   0.716   9.367   8.497  0.6364  0.5724  0.3868
  918MOL0     O23803   0.751   9.339   8.623  0.0780 -0.5090 -0.0631
  918MOL0     C23804   0.845   9.431   8.694 -0.5594 -0.0051  0.4039
  918MOL0     C23805   0.883   9.358   8.821  0.4816 -0.0404  0.9090
  918MOL0     C23806   0.966   9.226   8.796 -0.9463  0.0965 -0.2817
  918MOL0     C23807   0.991   9.172   8.938 -0.0210 -0.2855 -0.6448
  918MOL0     C23808   1.040   9.029   8.952 -0.1532 -0.3931  0.4001
  918MOL0     C23809   1.173   9.012   8.876  0.1097 -0.1056 -0.8815
  918MOL0     C23810   1.225   8.871   8.911  0.0079  0.8269 -1.0104
  918MOL0     C23811   1.161   8.756   8.827  0.1301 -0.3665  0.1690
  918MOL0     N23812   1.270   8.680   8.758 -0.2504 -0.4700  0.5953
  918MOL0     C23813   1.286   8.667   8.618 -0.3659 -0.3400  0.0245
  918MOL0     C23814   1.401   8.591   8.611  0.3238  0.5136 -0.2167
  918MOL0     C23815   1.447   8.538   8.470  0.1321  0.7753 -0.1824
  918MOL0     C23816   1.368   8.407   8.432  0.7465  0.0345  0.5238
  918MOL0     C23817   1.348   8.286   8.531  0.5990 -0.0799  0.7850
  918MOL0     C23818   1.492   8.223   8.570  0.5818  0.0881  0.3007
  918MOL0     O23819   1.445   8.101   8.629  0.4151 -0.0166 -0.7547
  918MOL0     C23820   1.433   8.088   8.767  0.4802  0.0558 -0.4739
  918MOL0     C23821   1.442   8.199   8.858 -0.6688  0.5496  0.6900
  918MOL0     C23822   1.453   8.188   8.993 -0.8521 -0.2113 -1.0771
  918MOL0     C23823   1.482   8.310   9.086  0.1757  0.5637  0.6771
  918MOL0     C23824   1.423   8.071   9.047  1.0464  0.9037  0.3954
  918MOL0     C23825   1.429   8.039   9.198  1.3489  1.7525 -0.0399
  918MOL0     O23826   1.312   7.985   9.262  0.0164 -0.1815 -0.6359
  918MOL0     C23827   1.340   7.961   9.396  1.0763 -0.3255  0.9574
  918MOL0     C23828   1.349   8.066   9.485 -0.2304  0.4810 -0.1721
  918MOL0     C23829   1.389   8.050   9.624 -0.9635 -0.1496  0.1610
  918MOL0     C23830   1.442   7.925   9.651  0.0099 -0.0737  0.1086
  918MOL0     O23831   1.502   7.913   9.776 -0.6202 -0.4166 -0.5559
  918MOL0     C23832   1.514   7.789   9.843 -0.7661  0.6236  1.1824
  918MOL0     C23833   1.562   7.812   9.994  0.2990 -0.5405  0.6589
  918MOL0     C23834   1.622   7.692  10.060  0.2125  0.6436  1.1031
  918MOL0     C23835   1.749   7.734  10.135  0.6857  1.0201 -0.1540
  918MOL0     C23836   1.831   7.616  10.196 -0.4892 -0.7279 -0.6022
  918MOL0     C23837   1.766   7.562  10.325 -0.3614 -0.3287  0.1382
  918MOL0     C23838   1.855   7.452  10.384  0.5449 -0.6954 -0.3233
  918MOL0     C23839   1.971   7.497  10.464 -0.0618  0.0903  0.5463
  918MOL0    Cl23840   1.915   7.581  10.599 -0.2697 -0.7079 -0.1892
  918MOL0     C23841   1.423   7.816   9.564 -0.0728 -0.3437 -0.1443
  918MOL0     C23842   1.381   7.837   9.430 -0.2912 -0.2881 -0.0996
  918MOL0     O23843   1.533   8.068   9.258  0.1661  0.0272  0.6040
  918MOL0     C23844   1.406   7.958   8.967  0.4615  0.1964  0.5585
  918MOL0     C23845   1.408   7.968   8.829 -0.5467 -0.5643 -0.3021
  918MOL0     N23846   1.440   8.547   8.729 -0.4680  0.1558 -0.5879
  918MOL0     N23847   1.365   8.612   8.821  0.4519  0.6288  0.4711
  918MOL0     C23848   0.690   9.258   8.418 -0.5638  0.8294  0.3891
  918MOL0     C23849   0.661   9.263   8.282 -0.2359  0.0702 -0.7780
  918MOL0     C23850   0.695   9.456   7.869  0.4163  0.9967  0.0903
  918MOL0     C23851   0.789   9.501   7.767  0.8221  0.0974 -1.1795
  918MOL0     C23852   0.769   9.487   7.626 -0.1278  0.4216 -0.0386
  918MOL0     C23853   0.642   9.452   7.583  0.0211  0.8114 -0.7205
  918MOL0     O23854   0.602   9.442   7.450  0.0874  0.2600  0.7608
  918MOL0     C23855   0.702   9.399   7.354  0.1773 -0.0715  0.1662
  918MOL0     C23856   0.699   9.249   7.331  0.9887  0.1928  1.1944
  918MOL0     C23857   0.597   9.206   7.220  0.2999  0.5644 -0.1668
  918MOL0     C23858   0.460   9.214   7.290 -0.1092 -0.1079 -0.3772
  918MOL0     C23859   0.373   9.155   7.193  0.7261 -0.0747  0.8745
  918MOL0     C23860   0.288   9.125   7.103 -0.5455  0.0479 -1.6689
  918MOL0     C23861   0.545   9.417   7.680 -0.5343 -0.3656  0.1165
  918MOL0     C23862   0.574   9.411   7.815  0.5170  0.7337  0.3611
  918MOL0     H23863   0.696   9.596   8.248  0.1221 -0.5710  0.1027
  918MOL0     H23864   0.718   9.584   8.487 -0.5071 -1.0108  0.5196
  918MOL0     H23865   0.940   9.441   8.641  1.0530  0.7709  3.2032
  918MOL0     H23866   0.804   9.531   8.714  0.4459  0.5473 -0.2608
  918MOL0     H23867   0.942   9.428   8.882 -1.8018 -1.7430  5.4998
  918MOL0     H23868   0.788   9.342   8.871 -1.9865  4.5673 -1.5716
  918MOL0     H23869   0.910   9.156   8.733 -3.2050  3.0790 -1.8277
  918MOL0     H23870   1.062   9.253   8.752 -0.2810 -0.4072  0.8191
  918MOL0     H23871   1.069   9.224   8.995 -0.5356 -1.7383  1.5113
  918MOL0     H23872   0.897   9.189   8.991  0.5549  3.8658 -0.5682
  918MOL0     H23873   1.053   9.010   9.059 -1.7391  1.4397  0.9856
  918MOL0     H23874   0.960   8.963   8.916  0.5424 -1.6910  1.1472
  918MOL0     H23875   1.154   9.039   8.772 -0.1769  2.7575 -0.1562
  918MOL0     H23876   1.246   9.084   8.912  2.1961 -0.2354 -4.4147
  918MOL0     H23877   1.332   8.868   8.887 -0.0945 -1.1338 -1.4353
  918MOL0     H23878   1.213   8.832   9.013  1.0071 -0.4801 -1.3626
  918MOL0     H23879   1.085   8.806   8.767 -0.0405 -1.5205 -0.6027
  918MOL0     H23880   1.116   8.677   8.889 -0.4764 -1.2892 -1.3881
  918MOL0     H23881   1.226   8.704   8.536 -1.4321  0.3270  1.0810
  918MOL0     H23882   1.432   8.611   8.390  0.6322 -0.8165 -1.8078
  918MOL0     H23883   1.554   8.515   8.469 -0.5113 -3.4620 -3.6308
  918MOL0     H23884   1.402   8.371   8.334 -3.9585 -1.1782 -0.9327
  918MOL0     H23885   1.276   8.451   8.390 -0.4605 -3.5295 -1.0137
  918MOL0     H23886   1.300   8.202   8.480  0.9949  0.4731 -0.5492
  918MOL0     H23887   1.289   8.323   8.615 -0.7849 -0.2227 -0.0885
  918MOL0     H23888   1.552   8.280   8.640  2.2452 -0.2883 -0.7639
  918MOL0     H23889   1.553   8.219   8.479 -0.1339  2.0367 -0.3211
  918MOL0     H23890   1.460   8.299   8.818 -1.3228  0.3794 -0.0818
  918MOL0     H23891   1.580   8.295   9.133  0.1127  2.2564  1.4211
  918MOL0     H23892   1.489   8.395   9.018  3.1879 -1.2188 -1.4830
  918MOL0     H23893   1.402   8.332   9.157  0.2637  0.0186  0.9496
  918MOL0     H23894   1.323   8.163   9.444 -0.9002  0.2797 -0.2273
  918MOL0     H23895   1.391   8.132   9.695  0.7331 -1.7093  1.9987
  918MOL0     H23896   1.414   7.747   9.830 -0.0786 -0.7467  0.1506
  918MOL0     H23897   1.594   7.755   9.778 -0.0962  2.8433  0.7462
  918MOL0     H23898   1.638   7.888   9.974 -0.7613 -0.5668 -5.7865
  918MOL0     H23899   1.487   7.851  10.062 -1.2294  0.2485 -1.3746
  918MOL0     H23900   1.668   7.624   9.989 -1.4249  1.2181 -0.5815
  918MOL0     H23901   1.546   7.640  10.119 -1.5100  0.5504 -1.0760
  918MOL0     H23902   1.818   7.792  10.073  2.0960  0.6878  1.0503
  918MOL0     H23903   1.708   7.792  10.218 -2.8294 -2.3509  0.8071
  918MOL0     H23904   1.928   7.651  10.233 -1.5563  1.6767  0.0855
  918MOL0     H23905   1.830   7.536  10.120 -1.2696  0.4141 -1.8394
  918MOL0     H23906   1.744   7.636  10.402  0.0765  1.4782 -1.4000
  918MOL0     H23907   1.667   7.519  10.307 -1.2989  1.1035  1.6346
  918MOL0     H23908   1.891   7.403  10.293  0.3925 -0.9422 -0.2512
  918MOL0     H23909   1.795   7.383  10.444 -0.1594  0.6566  0.5804
  918MOL0     H23910   2.028   7.560  10.395 -0.1219 -0.2675  0.1620
  918MOL0     H23911   2.042   7.415  10.480  0.1408  0.3932  1.2398
  918MOL0     H23912   1.454   7.716   9.591 -0.8059 -0.6426 -0.3930
  918MOL0     H23913   1.368   7.751   9.364 -0.3131 -1.7216  1.6842
  918MOL0     H23914   1.376   7.861   9.004 -0.5019 -0.8520 -2.6654
  918MOL0     H23915   1.383   7.880   8.770 -0.2809  0.7916 -2.5797
  918MOL0     H23916   0.690   9.160   8.465  0.3207 -0.3451 -1.9227
  918MOL0     H23917   0.635   9.170   8.232 -0.3006  1.2219 -2.9856
  918MOL0     H23918   0.885   9.542   7.797  1.7363 -1.9813 -1.1228
  918MOL0     H23919   0.856   9.509   7.566  0.1840  0.4915  0.4335
  918MOL0     H23920   0.689   9.444   7.255 -2.4450  1.1191  0.9696
  918MOL0     H23921   0.804   9.416   7.388  1.3088 -0.3019 -2.8450
  918MOL0     H23922   0.678   9.184   7.416 -1.9268 -0.8605 -0.2206
  918MOL0     H23923   0.796   9.223   7.286  1.6965  1.4569  1.9324
  918MOL0     H23924   0.614   9.110   7.171 -1.5741 -0.0917  0.3845
  918MOL0     H23925   0.593   9.279   7.138 -2.2102 -0.9474 -1.5144
  918MOL0     H23926   0.429   9.319   7.298 -0.6964  0.4745 -6.0731
  918MOL0     H23927   0.457   9.167   7.389  1.4207  1.2600  0.3486
  918MOL0     H23928   0.200   9.093   7.051 -2.8411  2.0204  0.7013
  918MOL0     H23929   0.448   9.391   7.638 -1.8299 -4.5116  4.6878
  918MOL0     H23930   0.490   9.379   7.875  0.9272  0.3332  0.7302
  919MOL0     O23931   3.768   1.395   3.367 -0.3760 -0.7783 -0.5760
  919MOL0     C23932   3.811   1.337   3.269 -0.5353  0.2266  0.7136
  919MOL0     O23933   3.896   1.396   3.174 -0.8446 -0.4459 -0.1064
  919MOL0     C23934   3.873   1.531   3.140  0.5500 -1.1734  0.5574
  919MOL0     C23935   3.760   1.606   3.160 -0.3201 -0.4233 -0.3045
  919MOL0     C23936   3.748   1.744   3.130  0.0916 -0.2703  0.3825
  919MOL0     C23937   3.859   1.811   3.078  0.7545  0.5093  0.1442
  919MOL0     O23938   3.837   1.944   3.052  0.3153  0.7111 -0.0762
  919MOL0     C23939   3.923   2.000   2.947  0.7121  0.8310  0.0899
  919MOL0     C23940   3.859   2.132   2.912 -0.2976 -0.0982 -0.7851
  919MOL0     C23941   3.900   2.183   2.775  0.8183 -0.0348 -0.1896
  919MOL0     C23942   3.840   2.320   2.755  0.0394  0.0479 -0.1892
  919MOL0     C23943   3.896   2.398   2.633  0.0507  0.4081 -0.4340
  919MOL0     C23944   3.826   2.535   2.625 -0.4570  0.8907  0.2061
  919MOL0     C23945   3.673   2.531   2.602 -0.1890  0.1096  0.9391
  919MOL0     C23946   3.605   2.482   2.473  0.1179 -0.9929  0.0961
  919MOL0     N23947   3.461   2.471   2.472 -0.3510  0.2520 -0.1045
  919MOL0     C23948   3.369   2.574   2.458  0.5661  0.1198 -0.5256
  919MOL0     C23949   3.255   2.509   2.409  0.4382 -0.1698 -0.0477
  919MOL0     C23950   3.139   2.567   2.337  2.2823 -0.2093 -0.2330
  919MOL0     C23951   3.028   2.621   2.443 -0.2325 -0.1885 -0.2278
  919MOL0     C23952   2.914   2.700   2.371 -0.2727  0.6224  0.0369
  919MOL0     C23953   2.813   2.776   2.456  0.1542  0.1286 -0.4789
  919MOL0     O23954   2.703   2.682   2.488  0.7969  0.0164 -0.6263
  919MOL0     C23955   2.627   2.722   2.595  0.1723 -0.4766  0.0276
  919MOL0     C23956   2.605   2.630   2.699 -0.2554  0.8447  0.4399
  919MOL0     C23957   2.522   2.659   2.802  0.1832 -0.4982 -0.9227
  919MOL0     C23958   2.512   2.564   2.918  0.2383  0.2000  1.0862
  919MOL0     C23959   2.458   2.780   2.813 -0.0453 -0.3381 -0.0986
  919MOL0     C23960   2.385   2.828   2.929  0.4014 -0.7994  0.0285
  919MOL0     O23961   2.274   2.897   2.911 -0.0900 -0.4401  0.1630
  919MOL0     C23962   2.220   2.962   3.017  0.9076 -0.5300  0.0916
  919MOL0     C23963   2.161   2.897   3.123 -0.3338  0.4876  0.8173
  919MOL0     C23964   2.101   2.959   3.220  0.1635  0.4573 -0.1265
  919MOL0     C23965   2.098   3.107   3.225  0.3836  0.9412 -0.2566
  919MOL0     O23966   2.027   3.166   3.323 -0.0563  0.5615  0.1860
  919MOL0     C23967   1.959   3.292   3.289  0.0191 -0.5734  1.0912
  919MOL0     C23968   1.881   3.347   3.411  0.1492 -0.3950 -0.3098
  919MOL0     C23969   1.740   3.298   3.411  0.2973 -0.4764 -0.3534
  919MOL0     C23970   1.719   3.137   3.404  0.4064 -0.0964 -0.2018
  919MOL0     C23971   1.566   3.111   3.406 -0.8284  0.7122  0.3393
  919MOL0     C23972   1.549   2.967   3.369  0.1198 -0.2364  0.3356
  919MOL0     C23973   1.409   2.914   3.375 -0.0700 -0.9647  0.4226
  919MOL0     C23974   1.412   2.768   3.363 -0.7649  0.3317  1.2001
  919MOL0    Cl23975   1.470   2.693   3.510 -0.0529 -0.3953 -0.1491
  919MOL0     C23976   2.164   3.174   3.118 -0.6083 -0.0748 -0.4520
  919MOL0     C23977   2.211   3.101   3.010  0.5010 -0.5526  0.1503
  919MOL0     O23978   2.454   2.835   3.032  0.7917  0.2786  0.1702
  919MOL0     C23979   2.474   2.878   2.703 -0.6655  0.4812  0.4878
  919MOL0     C23980   2.557   2.844   2.599 -0.5568 -0.2350  0.4651
  919MOL0     N23981   3.287   2.374   2.401  0.3861  0.1413 -0.9627
  919MOL0     N23982   3.409   2.356   2.440  0.4092  0.4188 -0.2955
  919MOL0     C23983   3.971   1.739   3.043  0.0929  0.6347 -0.0566
  919MOL0     C23984   3.974   1.607   3.074 -0.7589 -0.4663 -0.9818
  919MOL0     C23985   3.818   1.182   3.277 -1.0974 -0.0372 -0.2276
  919MOL0     C23986   3.853   1.104   3.163  1.4450 -0.0057 -0.1173
  919MOL0     C23987   3.839   0.963   3.169  0.3375  0.0076 -0.6863
  919MOL0     C23988   3.818   0.894   3.286 -0.1387 -0.3915 -0.3455
  919MOL0     O23989   3.824   0.763   3.287 -0.1656  0.4914 -0.7945
  919MOL0     C23990   3.823   0.706   3.426  0.6020  0.6870  1.0164
  919MOL0     C23991   3.838   0.542   3.408  0.5746 -0.5706  0.1119
  919MOL0     C23992   3.978   0.515   3.338  0.5842  0.4867 -0.4685
  919MOL0     C23993   4.014   0.367   3.324 -0.1420 -0.0817  0.1468
  919MOL0     C23994   4.141   0.341   3.256  0.2305  0.4400  0.6889
  919MOL0     C23995   4.242   0.312   3.201 -0.1352  0.7811  0.4624
  919MOL0     C23996   3.791   0.973   3.401  0.5299 -1.1342 -0.2812
  919MOL0     C23997   3.795   1.112   3.397  0.0222 -1.1029 -0.6376
  919MOL0     H23998   3.667   1.557   3.188 -0.2741 -0.9536 -1.0539
  919MOL0     H23999   3.659   1.803   3.151  2.5155  3.1297  1.9903
  919MOL0     H24000   4.016   2.037   2.992  1.4727 -0.8583 -0.0033
  919MOL0     H24001   3.938   1.935   2.860 -0.2726  2.3616 -1.2951
  919MOL0     H24002   3.749   2.132   2.919 -0.2888 -0.8422 -0.5177
  919MOL0     H24003   3.882   2.203   2.992  0.0416 -0.7742 -0.2718
  919MOL0     H24004   4.009   2.186   2.761  0.5141 -1.5079 -4.5860
  919MOL0     H24005   3.862   2.128   2.688 -0.4797  1.4385 -0.5974
  919MOL0     H24006   3.732   2.305   2.745  0.1144 -0.2086 -0.6744
  919MOL0     H24007   3.859   2.374   2.848 -0.0175 -2.4586  1.3665
  919MOL0     H24008   4.005   2.404   2.641  0.2851 -1.1584 -1.9772
  919MOL0     H24009   3.872   2.343   2.542  0.6243 -1.1341  0.3012
  919MOL0     H24010   3.845   2.599   2.712 -3.3432  2.1461  0.0415
  919MOL0     H24011   3.868   2.599   2.547  0.7932  0.7874  0.7862
  919MOL0     H24012   3.627   2.476   2.685 -2.2549  1.5505  0.8242
  919MOL0     H24013   3.637   2.634   2.612  1.0277  0.5295  1.1489
  919MOL0     H24014   3.653   2.386   2.456  0.2980 -1.4814  2.8299
  919MOL0     H24015   3.623   2.553   2.392  3.1763 -0.6206  0.9668
  919MOL0     H24016   3.386   2.679   2.439 -0.7458  0.9069  2.0452
  919MOL0     H24017   3.177   2.659   2.291  0.7984  0.8618  0.5750
  919MOL0     H24018   3.100   2.501   2.259 -0.4603  0.0564  0.7747
  919MOL0     H24019   3.071   2.675   2.528  0.7045 -1.6072  0.2223
  919MOL0     H24020   2.981   2.540   2.499  1.1677 -1.5126 -0.9132
  919MOL0     H24021   2.869   2.637   2.293  1.8965  0.3495 -1.0646
  919MOL0     H24022   2.971   2.777   2.318  0.1000  0.0654 -0.3945
  919MOL0     H24023   2.774   2.865   2.406  2.4407  1.8116  0.5528
  919MOL0     H24024   2.861   2.814   2.546 -3.1620  0.5151  1.2729
  919MOL0     H24025   2.660   2.537   2.690 -0.6338  0.7178 -0.8920
  919MOL0     H24026   2.408   2.545   2.944  1.2252 -3.4260  3.0053
  919MOL0     H24027   2.554   2.468   2.889  1.1055  1.0058 -0.4728
  919MOL0     H24028   2.554   2.590   3.015  0.5212 -1.7410  1.5175
  919MOL0     H24029   2.173   2.789   3.122  2.0294  0.5092 -4.3651
  919MOL0     H24030   2.047   2.909   3.299  0.1574  3.2941  1.8356
  919MOL0     H24031   2.031   3.367   3.255  1.4189 -1.2903  2.3270
  919MOL0     H24032   1.887   3.270   3.210 -2.1851 -3.8793  3.7604
  919MOL0     H24033   1.913   3.312   3.509 -3.3022 -0.5102  0.8898
  919MOL0     H24034   1.881   3.456   3.403 -1.9243 -0.3630 -0.2729
  919MOL0     H24035   1.687   3.341   3.325 -1.8652  1.2149  1.7090
  919MOL0     H24036   1.682   3.353   3.485 -0.9423  1.5711 -2.7060
  919MOL0     H24037   1.768   3.094   3.317 -1.7136 -1.8677 -0.6083
  919MOL0     H24038   1.768   3.097   3.494  2.8513  2.4487 -0.2638
  919MOL0     H24039   1.503   3.169   3.337 -0.5294  1.9895  1.1185
  919MOL0     H24040   1.532   3.117   3.509  0.1817 -3.5620  1.1118
  919MOL0     H24041   1.581   2.966   3.264 -1.3368  4.1520 -0.3818
  919MOL0     H24042   1.625   2.907   3.419  2.3685  0.3586 -2.1092
  919MOL0     H24043   1.367   2.951   3.281  1.2342 -1.0405 -0.2089
  919MOL0     H24044   1.350   2.939   3.464 -0.8447 -2.9075  0.4898
  919MOL0     H24045   1.460   2.736   3.270 -1.5719  1.0106  0.5320
  919MOL0     H24046   1.310   2.729   3.355 -0.0601 -1.3321 -0.6125
  919MOL0     H24047   2.157   3.282   3.104 -0.2739 -0.1425 -1.1966
  919MOL0     H24048   2.243   3.148   2.917 -1.8022 -2.5056 -1.7788
  919MOL0     H24049   2.421   2.972   2.690 -1.9849 -0.4153 -1.0510
  919MOL0     H24050   2.571   2.918   2.521 -0.1397  1.8515  2.4043
  919MOL0     H24051   4.058   1.775   2.988  0.5415 -3.3128 -2.3093
  919MOL0     H24052   4.062   1.553   3.040 -0.9275 -0.9846 -0.6206
  919MOL0     H24053   3.892   1.150   3.073  2.5112 -1.0038 -0.1946
  919MOL0     H24054   3.863   0.914   3.075  3.2628 -0.3377  0.1495
  919MOL0     H24055   3.905   0.738   3.492  0.9681 -2.1979  2.1113
  919MOL0     H24056   3.728   0.727   3.475 -1.3281  0.0500 -2.1749
  919MOL0     H24057   3.755   0.497   3.352 -0.6872 -1.8191  2.7831
  919MOL0     H24058   3.843   0.498   3.508  2.2255  1.1816  0.8509
  919MOL0     H24059   4.051   0.570   3.397 -1.2062  1.4449  0.9321
  919MOL0     H24060   3.975   0.557   3.237  1.5557 -1.7301 -1.5049
  919MOL0     H24061   3.934   0.329   3.260 -1.8420  1.9172  0.9829
  919MOL0     H24062   4.010   0.308   3.416 -0.9307 -1.4412 -0.7335
  919MOL0     H24063   4.331   0.274   3.155 -1.2055 -0.6281 -0.5152
  919MOL0     H24064   3.772   0.927   3.497  0.2319  0.1032  0.2623
  919MOL0     H24065   3.780   1.172   3.486  0.2700 -1.3889 -0.4033
  920MOL0     O24066   3.774   3.064   7.067 -0.1056 -0.0496 -0.7484
  920MOL0     C24067   3.748   3.102   7.181 -0.2467 -0.2187 -0.1341
  920MOL0     O24068   3.838   3.152   7.269  0.2945  0.4374 -0.5216
  920MOL0     C24069   3.974   3.155   7.241  0.0735 -0.0537 -0.9750
  920MOL0     C24070   4.051   3.035   7.231  0.7665 -0.0065  1.0505
  920MOL0     C24071   4.195   3.033   7.214  1.0161  0.3354  0.1444
  920MOL0     C24072   4.264   3.153   7.230 -0.4246 -0.1643  0.6384
  920MOL0     O24073   4.401   3.163   7.217  0.1172  0.1371 -0.6474
  920MOL0     C24074   4.477   3.060   7.136 -0.4089  0.0004 -0.3406
  920MOL0     C24075   4.630   3.092   7.126 -0.0311  0.0527  0.2239
  920MOL0     C24076   4.692   3.089   7.268  0.8660  0.1394  0.2714
  920MOL0     C24077   4.689   2.954   7.340 -0.4940 -0.1513  0.6601
  920MOL0     C24078   4.790   2.942   7.458 -0.1790  0.1723  0.0046
  920MOL0     C24079   4.828   2.802   7.488  0.5882 -0.0070 -0.1647
  920MOL0     C24080   4.702   2.727   7.546  0.4790  0.6115 -0.9197
  920MOL0     C24081   4.641   2.637   7.448  1.2491  0.3292  0.0756
  920MOL0     N24082   4.735   2.534   7.411 -0.0923 -0.3592  0.3447
  920MOL0     C24083   4.814   2.461   7.500  0.7129 -0.6256  0.6259
  920MOL0     C24084   4.892   2.382   7.421 -0.0318  0.8599 -0.0545
  920MOL0     C24085   5.002   2.279   7.467  0.0662  0.2400  1.0309
  920MOL0     C24086   4.958   2.136   7.430 -0.6131  0.4818 -0.2571
  920MOL0     C24087   5.057   2.028   7.495  0.4042  0.0634  0.5750
  920MOL0     C24088   5.199   2.049   7.475 -0.1955 -0.4825  0.9590
  920MOL0     O24089   5.227   2.096   7.337  0.4720 -0.2202  0.2519
  920MOL0     C24090   5.361   2.122   7.306  0.2567  1.6285 -0.9948
  920MOL0     C24091   5.382   2.190   7.186  0.0330 -0.3460  0.5587
  920MOL0     C24092   5.505   2.242   7.158  0.4423  0.0979  0.1085
  920MOL0     C24093   5.513   2.333   7.038 -0.3162  0.0313  0.6834
  920MOL0     C24094   5.611   2.225   7.247  0.0010 -0.6532  0.0195
  920MOL0     C24095   5.749   2.292   7.236 -0.9326 -0.4361  0.5313
  920MOL0     O24096   5.826   2.286   7.351  0.4238 -0.6263 -0.2003
  920MOL0     C24097   5.961   2.306   7.358  0.1618 -0.1755  0.6664
  920MOL0     C24098   6.051   2.331   7.249  0.5084 -1.4936 -1.0813
  920MOL0     C24099   6.181   2.364   7.279 -0.5651 -0.5031  0.1407
  920MOL0     C24100   6.231   2.374   7.406 -1.2198  0.3065  0.2607
  920MOL0     O24101   6.366   2.397   7.439  0.5036 -0.3358  0.5889
  920MOL0     C24102   6.377   2.530   7.484  0.0114  0.1816 -0.8611
  920MOL0     C24103   6.518   2.580   7.454 -0.4765 -1.0619 -0.2378
  920MOL0     C24104   6.630   2.503   7.534 -0.8968  0.3121  0.2994
  920MOL0     C24105   6.746   2.595   7.568  0.3644 -0.1288 -0.1786
  920MOL0     C24106   6.867   2.521   7.638 -0.5447  0.0470  0.2581
  920MOL0     C24107   6.952   2.440   7.535 -0.1511  0.2089 -0.5152
  920MOL0     C24108   7.056   2.339   7.597 -0.6754 -0.6536  0.0055
  920MOL0     C24109   7.118   2.257   7.489 -0.1412  0.3810  0.7135
  920MOL0    Cl24110   7.231   2.355   7.381 -0.1301 -0.1152 -0.0213
  920MOL0     C24111   6.147   2.331   7.510  0.2240  0.4882 -0.1109
  920MOL0     C24112   6.014   2.298   7.490  0.1855  0.3602  1.7539
  920MOL0     O24113   5.792   2.325   7.125  0.2831  0.3597  0.4623
  920MOL0     C24114   5.598   2.148   7.364  0.3130 -0.5168  0.2973
  920MOL0     C24115   5.474   2.088   7.384  0.2847  0.3156 -0.0626
  920MOL0     N24116   4.857   2.396   7.286 -0.5383 -0.7361  0.4215
  920MOL0     N24117   4.767   2.494   7.285  0.1430 -0.2065 -1.2563
  920MOL0     C24118   4.194   3.274   7.255 -0.7022 -0.2801  0.3986
  920MOL0     C24119   4.054   3.276   7.256  0.6263  0.8091 -0.3815
  920MOL0     C24120   3.593   3.096   7.213  0.8184 -0.5844 -0.2836
  920MOL0     C24121   3.548   3.170   7.326 -0.5963  0.0145  0.4677
  920MOL0     C24122   3.408   3.155   7.363  0.3175 -0.3809  0.2461
  920MOL0     C24123   3.316   3.084   7.296  0.1996  0.3965  0.5836
  920MOL0     O24124   3.185   3.065   7.323 -0.3918 -0.9778  0.6249
  920MOL0     C24125   3.128   3.121   7.441 -0.0178 -0.6149  0.0625
  920MOL0     C24126   3.109   3.273   7.408 -0.7013 -0.0427 -0.4047
  920MOL0     C24127   3.004   3.338   7.503 -0.6804  0.0448  0.1835
  920MOL0     C24128   3.000   3.495   7.470  0.1629  0.1900  0.1757
  920MOL0     C24129   2.875   3.552   7.509 -0.4807  0.6492 -0.6428
  920MOL0     C24130   2.765   3.589   7.541 -0.0758 -0.6020 -0.0808
  920MOL0     C24131   3.364   3.015   7.182 -0.5490  0.4468 -0.0441
  920MOL0     C24132   3.498   3.025   7.133  0.4921 -0.4390 -0.7759
  920MOL0     H24133   3.992   2.944   7.227 -0.3318  0.6905 -2.8155
  920MOL0     H24134   4.257   2.946   7.201  1.6260  1.0245 -1.9404
  920MOL0     H24135   4.464   2.954   7.162  0.7833  0.0004  0.3009
  920MOL0     H24136   4.428   3.054   7.037  0.5062 -2.0813 -0.7349
  920MOL0     H24137   4.674   3.018   7.060 -0.7944  0.9084 -1.3052
  920MOL0     H24138   4.651   3.191   7.083  0.1998 -0.5471 -1.0802
  920MOL0     H24139   4.794   3.128   7.272 -0.3924  3.7303  0.7119
  920MOL0     H24140   4.634   3.169   7.316 -0.0082  0.1778 -0.8157
  920MOL0     H24141   4.589   2.924   7.376 -0.8600 -0.0827 -0.2867
  920MOL0     H24142   4.720   2.883   7.264 -0.8858 -0.8519  1.1393
  920MOL0     H24143   4.882   2.992   7.425 -1.0856  1.3676 -0.8121
  920MOL0     H24144   4.750   3.005   7.538 -1.0636 -0.5431  0.1372
  920MOL0     H24145   4.878   2.752   7.404 -0.1216 -1.4896  0.2645
  920MOL0     H24146   4.897   2.811   7.572  1.1673  0.4206 -0.6775
  920MOL0     H24147   4.743   2.674   7.633  1.4428  0.6395 -1.3373
  920MOL0     H24148   4.624   2.789   7.590 -1.7436 -1.8062 -1.1732
  920MOL0     H24149   4.621   2.702   7.362 -0.0137  2.8402  2.1104
  920MOL0     H24150   4.555   2.582   7.487  0.9419 -0.0581 -1.1127
  920MOL0     H24151   4.817   2.473   7.608 -0.4652  0.1097  0.5913
  920MOL0     H24152   5.095   2.298   7.412 -1.3124 -3.5660 -3.2389
  920MOL0     H24153   5.020   2.278   7.575 -0.1249 -2.2558  1.0911
  920MOL0     H24154   4.974   2.124   7.323  3.3537  3.6474 -0.2352
  920MOL0     H24155   4.852   2.122   7.456 -0.8154  1.6944 -0.3479
  920MOL0     H24156   5.036   1.937   7.438 -4.5762  1.2054  0.1180
  920MOL0     H24157   5.032   2.027   7.601  0.7122 -1.2078  0.6522
  920MOL0     H24158   5.252   1.956   7.496  0.7244  0.5610  3.8913
  920MOL0     H24159   5.246   2.115   7.549  2.8351 -1.9286  0.4559
  920MOL0     H24160   5.297   2.214   7.122  1.1263 -2.9927 -2.1139
  920MOL0     H24161   5.414   2.338   6.992 -0.2394 -1.1815  0.3489
  920MOL0     H24162   5.551   2.429   7.073 -2.3594  1.3429 -0.4721
  920MOL0     H24163   5.575   2.300   6.954 -1.6206  0.4142 -0.4801
  920MOL0     H24164   6.021   2.343   7.146  0.8143  3.9853 -0.8369
  920MOL0     H24165   6.237   2.391   7.190 -3.1054  2.6925 -0.6510
  920MOL0     H24166   6.309   2.608   7.446  1.3145  1.1602 -1.2608
  920MOL0     H24167   6.382   2.524   7.593 -1.8833 -1.8004 -0.8178
  920MOL0     H24168   6.551   2.573   7.350 -1.2116 -1.0271 -0.4795
  920MOL0     H24169   6.527   2.684   7.488 -0.0613 -2.0130  2.8999
  920MOL0     H24170   6.671   2.418   7.478  4.3586  1.6724  1.5453
  920MOL0     H24171   6.589   2.468   7.629 -1.2166  1.1546  0.4737
  920MOL0     H24172   6.777   2.643   7.475  1.4443  2.9087  1.5983
  920MOL0     H24173   6.719   2.675   7.638 -0.5467 -1.3412  0.9070
  920MOL0     H24174   6.827   2.452   7.712  1.8309 -0.7569  0.8950
  920MOL0     H24175   6.938   2.597   7.671  1.9681 -0.2401 -3.7213
  920MOL0     H24176   6.878   2.378   7.482  2.3220 -2.0892 -1.5103
  920MOL0     H24177   6.992   2.503   7.455 -0.5532 -0.0670 -0.9377
  920MOL0     H24178   6.997   2.279   7.667 -3.2022 -0.2296 -1.6153
  920MOL0     H24179   7.122   2.408   7.650 -1.1822 -0.0092 -0.1820
  920MOL0     H24180   7.044   2.215   7.420  2.0916 -0.9099 -1.0312
  920MOL0     H24181   7.176   2.171   7.524  2.9092  2.2774  0.6310
  920MOL0     H24182   6.196   2.319   7.606 -2.5886  0.8084  1.4617
  920MOL0     H24183   5.961   2.253   7.573 -1.7469 -0.4948  0.1316
  920MOL0     H24184   5.675   2.120   7.435 -0.0628  1.1104  1.4247
  920MOL0     H24185   5.461   2.033   7.477 -0.6962  3.1871  1.6176
  920MOL0     H24186   4.254   3.363   7.267 -0.0131 -0.7542  0.5236
  920MOL0     H24187   4.006   3.370   7.283  1.6312  0.4649  3.0620
  920MOL0     H24188   3.605   3.234   7.391 -1.9382 -0.5229  2.2377
  920MOL0     H24189   3.382   3.207   7.455  1.7929 -0.1337  0.5613
  920MOL0     H24190   3.026   3.082   7.448 -0.9303  1.6051  0.2276
  920MOL0     H24191   3.174   3.091   7.536  1.4170  0.1139 -0.3721
  920MOL0     H24192   3.077   3.278   7.303 -2.8603 -2.9842 -0.0110
  920MOL0     H24193   3.204   3.325   7.422  0.1740 -1.9796  1.4181
  920MOL0     H24194   3.041   3.324   7.604 -2.7160  0.4451  1.0282
  920MOL0     H24195   2.907   3.294   7.478 -1.6405  1.0223  2.0227
  920MOL0     H24196   3.001   3.517   7.363  1.7656 -1.5694 -0.2168
  920MOL0     H24197   3.080   3.555   7.514  0.4179  0.0262 -0.0625
  920MOL0     H24198   2.666   3.616   7.571 -0.6621 -1.6003 -1.0163
  920MOL0     H24199   3.294   2.966   7.115 -4.0025  1.4112  2.5340
  920MOL0     H24200   3.525   2.977   7.040 -1.1779 -0.3573 -1.3435
  921MOL0     O24201   9.565   0.971   2.556 -0.5118  0.6121 -0.1676
  921MOL0     C24202   9.633   1.047   2.481  0.7946 -0.5036 -0.5417
  921MOL0     O24203   9.596   1.086   2.359 -0.7862  0.5245  0.1528
  921MOL0     C24204   9.464   1.076   2.337 -0.5049 -0.1824  0.3278
  921MOL0     C24205   9.384   1.186   2.364  0.3564 -0.4007  0.5482
  921MOL0     C24206   9.244   1.173   2.331 -0.2110  0.3916  0.8121
  921MOL0     C24207   9.192   1.054   2.278  0.3067 -0.5949 -0.3602
  921MOL0     O24208   9.063   1.028   2.258  0.0560  0.8013 -0.9956
  921MOL0     C24209   8.974   1.136   2.257 -0.4413 -0.2162 -0.2050
  921MOL0     C24210   8.830   1.092   2.220 -0.3067 -0.8882  0.1242
  921MOL0     C24211   8.816   1.019   2.087  0.1350  0.8371  0.3102
  921MOL0     C24212   8.661   0.997   2.041 -0.9500 -0.5515 -1.0327
  921MOL0     C24213   8.638   0.968   1.894 -0.0903  0.9283 -0.5533
  921MOL0     C24214   8.706   0.834   1.856 -0.2254 -0.6343  0.2695
  921MOL0     C24215   8.619   0.777   1.747  0.7380 -0.6604  0.3295
  921MOL0     C24216   8.664   0.638   1.686 -0.4518  0.3712  0.2459
  921MOL0     N24217   8.571   0.596   1.579  0.4443 -0.2516 -0.3534
  921MOL0     C24218   8.440   0.553   1.596  0.6303  0.1221  0.1019
  921MOL0     C24219   8.394   0.545   1.463  0.0627  0.5684 -0.5477
  921MOL0     C24220   8.258   0.485   1.426 -0.1355 -0.7279  0.2196
  921MOL0     C24221   8.264   0.325   1.460  0.4275 -0.8234  0.0815
  921MOL0     C24222   8.346   0.261   1.347  0.4001  0.4512  0.7930
  921MOL0     C24223   8.400   0.121   1.403 -0.6456 -0.3234  0.3609
  921MOL0     O24224   8.448   0.116   1.537  0.0689 -0.5508  0.2903
  921MOL0     C24225   8.534   0.019   1.568  0.6729 -0.5299  1.3341
  921MOL0     C24226   8.597   0.048   1.695  0.9541 -0.8049 -0.4275
  921MOL0     C24227   8.670  -0.048   1.761  0.3015 -0.1958 -0.2928
  921MOL0     C24228   8.747  -0.004   1.886 -0.1079 -0.4597  0.0956
  921MOL0     C24229   8.707  -0.171   1.685  0.7974  0.6705  0.1624
  921MOL0     C24230   8.804  -0.282   1.730 -0.3016  0.1897 -0.3840
  921MOL0     O24231   8.895  -0.331   1.638  0.0565  0.7424 -0.8102
  921MOL0     C24232   8.983  -0.443   1.649  1.1369 -0.0571 -0.1291
  921MOL0     C24233   9.041  -0.480   1.526  0.1644 -0.9843 -0.5493
  921MOL0     C24234   9.130  -0.582   1.519  0.5626  0.3451 -0.8997
  921MOL0     C24235   9.151  -0.660   1.634  0.2354 -0.6455 -0.9073
  921MOL0     O24236   9.227  -0.766   1.625 -0.1353 -1.0078  0.2425
  921MOL0     C24237   9.152  -0.890   1.650  0.3010 -0.1984  0.2777
  921MOL0     C24238   9.266  -0.993   1.643  0.3346  0.3570  0.2243
  921MOL0     C24239   9.214  -1.135   1.680  0.3465 -1.4085  0.2622
  921MOL0     C24240   9.294  -1.246   1.612 -1.1228  0.1838  0.0168
  921MOL0     C24241   9.265  -1.382   1.670  0.1654 -0.4563 -1.0877
  921MOL0     C24242   9.345  -1.390   1.807  0.0563  0.6488  0.5530
  921MOL0     C24243   9.311  -1.526   1.867 -0.6196 -0.1301 -0.1651
  921MOL0     C24244   9.402  -1.638   1.815  0.8997  0.1482  0.0218
  921MOL0    Cl24245   9.580  -1.638   1.858 -0.7733 -0.6124  0.5102
  921MOL0     C24246   9.095  -0.625   1.761 -0.1689  0.2858 -0.2375
  921MOL0     C24247   9.015  -0.515   1.762 -1.0197  0.3386 -0.3632
  921MOL0     O24248   8.794  -0.323   1.847  0.1171  0.3411 -0.3569
  921MOL0     C24249   8.642  -0.192   1.564 -0.1141 -0.1822  0.6726
  921MOL0     C24250   8.550  -0.103   1.502 -0.8196  0.3135  0.9561
  921MOL0     N24251   8.490   0.590   1.376  0.2206  1.0777  0.2402
  921MOL0     N24252   8.598   0.610   1.448 -0.0221 -0.3144  0.1725
  921MOL0     C24253   9.272   0.943   2.246 -0.3549 -0.0084  0.4287
  921MOL0     C24254   9.413   0.961   2.265  0.2388  1.1746 -0.5397
  921MOL0     C24255   9.765   1.106   2.528  0.9785  0.7249  0.2598
  921MOL0     C24256   9.839   1.199   2.461  0.7668 -0.4662 -0.8694
  921MOL0     C24257   9.960   1.239   2.510 -0.7811 -0.6565 -0.0461
  921MOL0     C24258  10.001   1.197   2.641  0.2861  0.6007 -0.0097
  921MOL0     O24259  10.107   1.242   2.717 -0.0913 -0.0359  0.8029
  921MOL0     C24260  10.154   1.375   2.686 -0.3500  0.1701  1.0741
  921MOL0     C24261  10.233   1.436   2.805  0.6439 -0.0397 -0.0124
  921MOL0     C24262  10.141   1.501   2.899  0.3362  0.9226 -0.1614
  921MOL0     C24263  10.211   1.596   2.993 -1.2494 -0.4640 -0.1900
  921MOL0     C24264  10.116   1.643   3.100 -0.1773  0.2530  0.2913
  921MOL0     C24265  10.048   1.674   3.195 -0.5760 -0.8746  0.0160
  921MOL0     C24266   9.929   1.103   2.708  0.1373  0.3569  1.4036
  921MOL0     C24267   9.818   1.047   2.643 -0.8471  0.7846  0.8947
  921MOL0     H24268   9.412   1.278   2.415  1.2459 -0.5756  0.3887
  921MOL0     H24269   9.178   1.248   2.375 -1.4328 -0.8691  1.1841
  921MOL0     H24270   8.972   1.191   2.352 -3.5306  0.1877 -0.4189
  921MOL0     H24271   9.011   1.207   2.183  2.8238 -3.0894 -1.6212
  921MOL0     H24272   8.793   1.035   2.306 -0.7785  0.4792  0.8665
  921MOL0     H24273   8.770   1.183   2.212  2.8810  1.4162  0.4617
  921MOL0     H24274   8.856   1.099   2.025 -0.6823  2.9019  2.2893
  921MOL0     H24275   8.874   0.927   2.074 -2.9471 -0.8117 -3.8832
  921MOL0     H24276   8.611   0.915   2.093  0.3606 -1.6112 -1.4203
  921MOL0     H24277   8.609   1.088   2.074  0.3760 -0.7425  1.8824
  921MOL0     H24278   8.529   0.969   1.887 -0.0210 -0.7675 -5.6173
  921MOL0     H24279   8.659   1.052   1.828 -1.5111  1.7707  0.0283
  921MOL0     H24280   8.811   0.843   1.828  0.9093  0.2967  4.1764
  921MOL0     H24281   8.697   0.768   1.943 -2.4526 -0.8860 -0.0839
  921MOL0     H24282   8.513   0.775   1.774  0.1564  5.4844  0.0026
  921MOL0     H24283   8.618   0.858   1.674  1.2251 -0.9311  0.0226
  921MOL0     H24284   8.677   0.562   1.764 -1.1294 -0.0340 -0.0264
  921MOL0     H24285   8.761   0.645   1.636  0.5650 -0.9007  1.9496
  921MOL0     H24286   8.381   0.516   1.680  1.4926 -1.7695 -0.0658
  921MOL0     H24287   8.180   0.536   1.483  1.1811 -0.9437  2.3189
  921MOL0     H24288   8.234   0.507   1.322 -0.6002  1.8864  0.8223
  921MOL0     H24289   8.164   0.279   1.454  0.0106  0.2793 -2.5054
  921MOL0     H24290   8.310   0.309   1.558  3.7849  2.0571 -0.8327
  921MOL0     H24291   8.433   0.321   1.320 -2.2294  3.1321 -2.7261
  921MOL0     H24292   8.287   0.245   1.257  1.5739 -0.0265  0.0861
  921MOL0     H24293   8.481   0.082   1.341 -0.0527 -0.9825  1.5090
  921MOL0     H24294   8.311   0.058   1.393 -0.0440 -1.4635  1.7402
  921MOL0     H24295   8.593   0.149   1.735 -1.4488 -0.3576 -1.6100
  921MOL0     H24296   8.709  -0.047   1.979 -1.0539 -0.4630 -0.2755
  921MOL0     H24297   8.847  -0.046   1.876 -0.4059 -0.7488 -2.2336
  921MOL0     H24298   8.742   0.105   1.897  1.4520 -0.4284  0.7216
  921MOL0     H24299   8.997  -0.442   1.434 -0.1197 -1.8971 -0.8002
  921MOL0     H24300   9.176  -0.619   1.428 -1.7438 -0.6125 -1.7531
  921MOL0     H24301   9.093  -0.891   1.743 -1.9886  1.8610 -1.0342
  921MOL0     H24302   9.072  -0.910   1.577  0.3341  1.1871 -0.1648
  921MOL0     H24303   9.312  -0.994   1.544  0.3735 -0.4109  0.2408
  921MOL0     H24304   9.346  -0.974   1.715  1.4176  2.0625 -1.3401
  921MOL0     H24305   9.108  -1.138   1.650  0.5972 -4.9007 -0.7300
  921MOL0     H24306   9.218  -1.137   1.790  1.5207  1.0446  0.3154
  921MOL0     H24307   9.266  -1.243   1.506  1.2356  1.5329 -0.6381
  921MOL0     H24308   9.401  -1.229   1.629 -0.7625 -2.1354  0.4171
  921MOL0     H24309   9.294  -1.460   1.600 -3.2501 -2.4497 -0.5109
  921MOL0     H24310   9.156  -1.387   1.677 -0.1475  0.8215 -3.8079
  921MOL0     H24311   9.453  -1.384   1.789 -0.0050 -0.7200 -0.4673
  921MOL0     H24312   9.302  -1.316   1.875  0.8580  0.5168  1.2090
  921MOL0     H24313   9.204  -1.547   1.859 -1.6944  4.5626 -1.0078
  921MOL0     H24314   9.347  -1.525   1.971  1.7153  3.0466 -0.8748
  921MOL0     H24315   9.390  -1.639   1.706 -0.0428  2.5469  0.0528
  921MOL0     H24316   9.371  -1.737   1.852  1.0002  0.2107  0.2758
  921MOL0     H24317   9.115  -0.690   1.845 -0.4166 -2.0163 -1.8502
  921MOL0     H24318   8.976  -0.480   1.857 -1.3865  1.0585 -0.7646
  921MOL0     H24319   8.675  -0.284   1.515  1.3286  1.1350 -0.9839
  921MOL0     H24320   8.511  -0.135   1.406  0.8064 -1.7660  0.9263
  921MOL0     H24321   9.242   0.847   2.205  0.2304 -0.4573  1.0301
  921MOL0     H24322   9.489   0.895   2.224  1.9197  2.7557 -0.1168
  921MOL0     H24323   9.781   1.248   2.383 -1.4124 -0.0075  0.9022
  921MOL0     H24324  10.026   1.289   2.440 -0.7931  0.2019  0.5445
  921MOL0     H24325  10.209   1.383   2.592 -1.5069 -1.7277  0.1808
  921MOL0     H24326  10.064   1.430   2.658 -0.4465 -1.4126 -2.2144
  921MOL0     H24327  10.307   1.507   2.768 -1.0194  0.3669 -2.8206
  921MOL0     H24328  10.277   1.348   2.853 -0.5975 -2.7664 -3.5186
  921MOL0     H24329  10.079   1.421   2.940 -0.3419  0.6405 -1.6859
  921MOL0     H24330  10.076   1.567   2.841  1.0002  1.9229  0.2026
  921MOL0     H24331  10.264   1.674   2.938 -1.3281  0.5291  1.1081
  921MOL0     H24332  10.297   1.541   3.033 -0.8304  1.0359  1.0521
  921MOL0     H24333   9.978   1.717   3.263 -1.2204  2.3563 -2.4695
  921MOL0     H24334   9.959   1.073   2.807  0.6935  0.3267  1.2331
  921MOL0     H24335   9.766   0.978   2.709 -0.3282  0.0317  0.5376
  922MOL0     O24336   0.693   2.476   0.720 -0.4498 -0.2879  0.0178
  922MOL0     C24337   0.809   2.507   0.694 -0.0517  0.5599 -0.2277
  922MOL0     O24338   0.903   2.432   0.623  0.1239  0.7392  0.2152
  922MOL0     C24339   0.847   2.307   0.589  0.5679 -0.6156  1.1328
  922MOL0     C24340   0.769   2.288   0.476  0.6710 -1.6092  0.2298
  922MOL0     C24341   0.702   2.171   0.458  0.6018  0.7074 -0.2022
  922MOL0     C24342   0.718   2.061   0.544  0.4224  0.7005  0.1872
  922MOL0     O24343   0.659   1.942   0.517  0.2476 -0.4024  0.3313
  922MOL0     C24344   0.540   1.933   0.437 -0.4547  0.1401 -0.1522
  922MOL0     C24345   0.422   1.994   0.504 -0.5905  0.0345  0.4029
  922MOL0     C24346   0.304   2.003   0.417  0.5658 -0.0844 -0.1966
  922MOL0     C24347   0.181   2.051   0.504 -0.4944 -0.1930  0.1707
  922MOL0     C24348   0.044   2.062   0.423 -0.0849 -0.8245  0.3566
  922MOL0     C24349   0.047   2.143   0.300 -1.2947  0.5277 -0.9466
  922MOL0     C24350  -0.093   2.205   0.263  0.2565 -0.2849  0.2686
  922MOL0     C24351  -0.209   2.109   0.258 -0.1813  0.2129 -0.1363
  922MOL0     N24352  -0.336   2.202   0.259 -1.3623  0.3666 -0.2822
  922MOL0     C24353  -0.393   2.242   0.377 -0.2894  0.4750 -0.1770
  922MOL0     C24354  -0.494   2.331   0.344 -0.4773 -0.4132 -0.7383
  922MOL0     C24355  -0.572   2.415   0.434 -1.3485  0.7593  0.0848
  922MOL0     C24356  -0.669   2.341   0.523 -0.0445  0.9954  0.5492
  922MOL0     C24357  -0.776   2.249   0.455 -0.1420 -0.2228 -0.4066
  922MOL0     C24358  -0.864   2.188   0.561 -0.0598 -0.1323 -1.1445
  922MOL0     O24359  -0.924   2.290   0.652 -0.0743  0.2275 -0.1547
  922MOL0     C24360  -1.041   2.349   0.611  0.2227  0.3418  0.0719
  922MOL0     C24361  -1.112   2.419   0.706 -0.9403 -0.4951 -0.0582
  922MOL0     C24362  -1.217   2.508   0.664 -0.2102  0.2336  0.2957
  922MOL0     C24363  -1.269   2.589   0.780  1.1392  0.3269 -0.4106
  922MOL0     C24364  -1.268   2.506   0.528 -0.0671 -0.1446  0.5807
  922MOL0     C24365  -1.389   2.584   0.484 -0.4453 -0.5010 -0.3838
  922MOL0     O24366  -1.461   2.526   0.382 -0.3690  0.0833  0.0711
  922MOL0     C24367  -1.532   2.608   0.295  0.3184  0.3655 -1.3920
  922MOL0     C24368  -1.673   2.624   0.313 -0.7009 -0.2606  0.1460
  922MOL0     C24369  -1.738   2.705   0.221  0.5038  0.3735  0.2583
  922MOL0     C24370  -1.670   2.758   0.106  0.0214  0.5657 -0.4004
  922MOL0     O24371  -1.729   2.823   0.003 -0.2352  0.4129  0.7928
  922MOL0     C24372  -1.871   2.855   0.017  0.2634  0.1751  0.0282
  922MOL0     C24373  -1.879   2.957  -0.084  0.3857  0.0630 -0.5432
  922MOL0     C24374  -2.019   2.995  -0.120  0.3376 -0.0859 -0.1768
  922MOL0     C24375  -2.012   3.120  -0.199  0.1856  0.2556 -0.2709
  922MOL0     C24376  -2.147   3.155  -0.256  0.0569  1.3822 -0.0427
  922MOL0     C24377  -2.138   3.218  -0.392 -0.1990 -0.4124 -0.1087
  922MOL0     C24378  -2.098   3.117  -0.512 -0.0700  0.1071 -0.2451
  922MOL0     C24379  -2.075   3.183  -0.651  0.6607 -0.7758 -0.0329
  922MOL0    Cl24380  -1.894   3.195  -0.690  0.0917  0.2584 -0.0140
  922MOL0     C24381  -1.532   2.724   0.090 -0.7774  0.2280 -0.0904
  922MOL0     C24382  -1.466   2.652   0.189 -0.9704 -0.3502 -0.7892
  922MOL0     O24383  -1.414   2.693   0.536 -0.6805 -0.4120  0.7187
  922MOL0     C24384  -1.206   2.416   0.443 -0.5786  0.5202 -0.2183
  922MOL0     C24385  -1.096   2.337   0.485 -0.2111  0.8018 -0.5170
  922MOL0     N24386  -0.480   2.344   0.206  0.5136 -0.0108  0.4738
  922MOL0     N24387  -0.391   2.267   0.153  0.1164 -0.1176  0.4277
  922MOL0     C24388   0.801   2.071   0.659 -0.2164  0.0589 -0.5243
  922MOL0     C24389   0.871   2.199   0.670  0.8507 -0.3380 -1.2514
  922MOL0     C24390   0.848   2.648   0.732 -1.3185 -0.4045 -0.8376
  922MOL0     C24391   0.973   2.692   0.679  0.2377  0.2584 -0.0057
  922MOL0     C24392   1.007   2.827   0.688  0.4504 -0.1221 -1.3456
  922MOL0     C24393   0.919   2.920   0.759  1.0809 -0.3153  0.1307
  922MOL0     O24394   0.953   3.046   0.784 -0.2558  0.1599 -0.6842
  922MOL0     C24395   1.076   3.079   0.852 -0.2411  0.8519  0.1926
  922MOL0     C24396   1.052   3.061   1.006 -0.0433 -0.5338  0.9946
  922MOL0     C24397   1.184   3.070   1.101 -0.1609  0.0573  0.5662
  922MOL0     C24398   1.135   3.076   1.246 -0.2164 -0.0731  0.2468
  922MOL0     C24399   1.225   3.044   1.353 -0.1043 -0.1336 -0.3131
  922MOL0     C24400   1.301   2.997   1.436 -0.1909 -0.1166  0.7333
  922MOL0     C24401   0.806   2.868   0.817  0.6998 -0.6882 -0.3776
  922MOL0     C24402   0.767   2.738   0.808  0.1578  0.9230 -0.1073
  922MOL0     H24403   0.767   2.361   0.396  1.8797 -1.3590  0.4183
  922MOL0     H24404   0.634   2.179   0.374 -3.1289 -1.8656  2.2263
  922MOL0     H24405   0.547   1.972   0.335  0.7338 -2.7346 -1.2677
  922MOL0     H24406   0.516   1.827   0.421 -0.3719  0.1066 -0.0590
  922MOL0     H24407   0.397   1.933   0.592 -1.1064 -3.2153 -1.8228
  922MOL0     H24408   0.447   2.095   0.535 -1.0469  0.1933  0.2628
  922MOL0     H24409   0.323   2.059   0.325  1.2875 -0.9933 -0.6197
  922MOL0     H24410   0.282   1.902   0.382  0.4826 -0.3282  0.5371
  922MOL0     H24411   0.177   1.991   0.595 -1.5043  1.3042  1.1616
  922MOL0     H24412   0.204   2.151   0.542 -2.8512 -0.2672  2.0292
  922MOL0     H24413   0.018   1.961   0.390  1.4613 -1.4942  1.0942
  922MOL0     H24414  -0.040   2.088   0.487 -0.4477 -3.4457  1.0613
  922MOL0     H24415   0.126   2.219   0.299 -0.6099 -0.1674 -0.4322
  922MOL0     H24416   0.077   2.072   0.223 -1.2499 -2.5573  1.7230
  922MOL0     H24417  -0.107   2.277   0.345 -1.7046  1.4923 -1.4989
  922MOL0     H24418  -0.092   2.265   0.171 -4.6156  0.9080  0.7473
  922MOL0     H24419  -0.213   2.050   0.349 -0.7721  0.2167 -0.1591
  922MOL0     H24420  -0.188   2.050   0.168  4.1142  0.1693  0.6902
  922MOL0     H24421  -0.364   2.216   0.479  0.6822  1.4163 -0.1866
  922MOL0     H24422  -0.498   2.470   0.493 -1.2655  1.5028 -0.6978
  922MOL0     H24423  -0.618   2.486   0.365 -1.4153 -1.0866 -1.9133
  922MOL0     H24424  -0.727   2.403   0.592 -0.5584  0.5848  0.4989
  922MOL0     H24425  -0.601   2.275   0.577  1.5701  0.8396 -1.5335
  922MOL0     H24426  -0.724   2.170   0.399 -1.7766 -0.4048 -1.7089
  922MOL0     H24427  -0.827   2.314   0.384 -1.8164 -2.5110 -1.4426
  922MOL0     H24428  -0.798   2.120   0.617 -0.2556  2.6281  2.8678
  922MOL0     H24429  -0.940   2.129   0.510 -1.7530  0.4362  0.5934
  922MOL0     H24430  -1.065   2.415   0.804  0.6721 -1.5503 -0.8376
  922MOL0     H24431  -1.335   2.522   0.837  2.4016 -2.8860 -2.4727
  922MOL0     H24432  -1.201   2.630   0.855  0.7888 -0.0057  0.0979
  922MOL0     H24433  -1.338   2.670   0.755  1.8693  0.0337 -3.8785
  922MOL0     H24434  -1.721   2.598   0.407  1.0254  2.1947  1.8463
  922MOL0     H24435  -1.840   2.728   0.250  1.5359  1.8639  3.1253
  922MOL0     H24436  -1.932   2.765   0.002 -0.4737  0.8593 -1.2679
  922MOL0     H24437  -1.888   2.918   0.105 -0.1540  0.9543 -0.5961
  922MOL0     H24438  -1.823   3.046  -0.052 -0.6343  1.1414 -1.6718
  922MOL0     H24439  -1.833   2.924  -0.178 -2.2125 -1.4029 -1.3827
  922MOL0     H24440  -2.089   3.003  -0.037 -0.7590  3.2108 -1.2599
  922MOL0     H24441  -2.055   2.905  -0.170 -1.8507  1.1587 -0.9711
  922MOL0     H24442  -1.986   3.204  -0.134  0.6887  2.2436 -2.8598
  922MOL0     H24443  -1.931   3.105  -0.270  0.6272 -1.6704  0.5834
  922MOL0     H24444  -2.194   3.210  -0.174 -0.9876 -0.7768  0.9023
  922MOL0     H24445  -2.209   3.066  -0.271  2.8620 -0.5892 -0.7536
  922MOL0     H24446  -2.233   3.269  -0.410 -0.8017 -1.0995  0.9990
  922MOL0     H24447  -2.056   3.291  -0.399 -0.5147 -0.0282  0.1552
  922MOL0     H24448  -2.183   3.049  -0.524 -1.1534  1.3830 -0.0036
  922MOL0     H24449  -2.009   3.061  -0.485 -0.5503 -0.4238  0.2792
  922MOL0     H24450  -2.131   3.275  -0.632 -2.1130 -2.5562  0.9742
  922MOL0     H24451  -2.125   3.121  -0.727  0.7741  0.3239 -1.0461
  922MOL0     H24452  -1.477   2.761   0.004  1.5821 -0.0413  1.2109
  922MOL0     H24453  -1.359   2.636   0.188 -0.7465  0.6021  1.5697
  922MOL0     H24454  -1.242   2.398   0.342  3.0553 -1.8931 -1.2744
  922MOL0     H24455  -1.070   2.271   0.403 -2.0192 -0.0799 -0.4258
  922MOL0     H24456   0.836   1.985   0.716  3.7233  2.2654  0.8337
  922MOL0     H24457   0.939   2.201   0.755  0.2123  0.8227 -0.7403
  922MOL0     H24458   1.046   2.625   0.635  1.2350  0.6766  0.9583
  922MOL0     H24459   1.097   2.874   0.651  0.7853  1.5652  1.3038
  922MOL0     H24460   1.153   3.004   0.831 -0.3363  0.4390  1.2572
  922MOL0     H24461   1.112   3.182   0.846 -1.6104  1.5922  2.9140
  922MOL0     H24462   1.007   2.965   1.031  0.9614 -0.4615  3.3026
  922MOL0     H24463   0.985   3.137   1.046 -0.5390 -0.1813 -0.4290
  922MOL0     H24464   1.229   3.167   1.078  1.4432 -0.7240  0.2059
  922MOL0     H24465   1.259   2.991   1.090 -0.9023 -0.5191 -0.4214
  922MOL0     H24466   1.052   3.012   1.275  0.2335 -0.6079  0.3831
  922MOL0     H24467   1.105   3.178   1.271 -1.5336 -0.9216  2.4445
  922MOL0     H24468   1.379   2.960   1.499 -0.6822 -0.9073  0.9013
  922MOL0     H24469   0.737   2.933   0.871  1.7911  0.5738 -0.4400
  922MOL0     H24470   0.677   2.708   0.861 -0.7342  1.1691 -1.4284
  923MOL0     O24471   1.503  11.467   2.833  0.0913  0.2756  0.3187
  923MOL0     C24472   1.461  11.353   2.850 -0.1062 -0.0237  0.8921
  923MOL0     O24473   1.361  11.294   2.775  0.2165  0.3089 -0.5048
  923MOL0     C24474   1.304  11.338   2.664 -0.5302  0.6587 -0.0296
  923MOL0     C24475   1.266  11.472   2.652  0.0253 -0.3115  0.0140
  923MOL0     C24476   1.209  11.525   2.529 -1.5916 -0.4037  0.3618
  923MOL0     C24477   1.214  11.442   2.416 -0.2066  0.0728 -0.0564
  923MOL0     O24478   1.162  11.479   2.297  0.3462  0.0789  0.4670
  923MOL0     C24479   1.102  11.602   2.275 -0.0326  0.4174  0.2166
  923MOL0     C24480   1.031  11.622   2.142  0.1567  0.4911  1.0756
  923MOL0     C24481   1.144  11.617   2.034 -0.7330  0.1700  0.0801
  923MOL0     C24482   1.104  11.628   1.888  0.7591 -1.5227  0.3086
  923MOL0     C24483   1.034  11.765   1.853  0.3003  0.4204  0.1808
  923MOL0     C24484   1.004  11.794   1.717  1.0925 -1.3066  0.5986
  923MOL0     C24485   1.115  11.792   1.607 -0.5107  0.5842 -1.1783
  923MOL0     C24486   1.073  11.864   1.482  1.3019  0.1535  0.0303
  923MOL0     N24487   1.049  12.007   1.480  0.5369 -0.1656 -0.0773
  923MOL0     C24488   1.142  12.102   1.487  0.4764 -0.4598  0.2676
  923MOL0     C24489   1.081  12.222   1.491  0.7809  0.2774  0.6098
  923MOL0     C24490   1.151  12.355   1.478 -0.3013 -0.1081 -0.1148
  923MOL0     C24491   1.145  12.429   1.615  0.2926  0.6532  1.0725
  923MOL0     C24492   1.214  12.351   1.733  0.7970  0.2315 -0.3822
  923MOL0     C24493   1.206  12.410   1.873 -0.3929 -0.7793  0.2974
  923MOL0     O24494   1.307  12.349   1.952  0.3428  0.0702 -0.6732
  923MOL0     C24495   1.317  12.379   2.084  0.1949 -1.3103  0.1451
  923MOL0     C24496   1.232  12.474   2.144  0.4804  0.9485  0.0546
  923MOL0     C24497   1.232  12.504   2.283  1.4261  0.0522 -0.0729
  923MOL0     C24498   1.120  12.596   2.327  0.1213 -0.5625 -0.7356
  923MOL0     C24499   1.328  12.449   2.367  0.3213  0.7117  0.4373
  923MOL0     C24500   1.339  12.464   2.508 -0.4119  0.4501 -0.5726
  923MOL0     O24501   1.459  12.425   2.563  0.2368 -0.1741  0.4465
  923MOL0     C24502   1.480  12.465   2.694  0.3071 -0.6635  0.5773
  923MOL0     C24503   1.383  12.455   2.795 -0.0648 -0.3481 -0.2930
  923MOL0     C24504   1.413  12.484   2.921  0.4381  0.3296 -0.3171
  923MOL0     C24505   1.550  12.508   2.958 -0.5968 -0.3803 -0.3152
  923MOL0     O24506   1.586  12.515   3.086  0.3689  0.7470 -1.1037
  923MOL0     C24507   1.695  12.601   3.118  0.0906  0.1995  1.0468
  923MOL0     C24508   1.707  12.623   3.273 -0.5625 -0.1485  0.5514
  923MOL0     C24509   1.604  12.721   3.329  0.2083 -0.8016  0.2653
  923MOL0     C24510   1.608  12.864   3.274  0.4353  0.3557 -1.1842
  923MOL0     C24511   1.500  12.942   3.354 -0.7103  0.0939 -0.7792
  923MOL0     C24512   1.494  13.085   3.312 -0.3928 -0.4664  0.2407
  923MOL0     C24513   1.387  13.173   3.366  0.5842 -0.1026 -0.0681
  923MOL0     C24514   1.408  13.316   3.325  0.0241 -0.4960 -0.7359
  923MOL0    Cl24515   1.286  13.414   3.399  0.0435  0.3944 -0.0523
  923MOL0     C24516   1.645  12.511   2.860  0.0151  0.5833 -0.4943
  923MOL0     C24517   1.617  12.480   2.732  0.6651  0.5457 -1.2517
  923MOL0     O24518   1.247  12.524   2.563 -0.1370  0.4665  0.0441
  923MOL0     C24519   1.422  12.363   2.301 -0.4560 -0.2385  0.1436
  923MOL0     C24520   1.416  12.327   2.165  0.8752 -0.6240 -0.9459
  923MOL0     N24521   0.950  12.202   1.504  0.2910 -0.1770  0.0617
  923MOL0     N24522   0.925  12.074   1.506  0.6864 -0.1059 -0.6296
  923MOL0     C24523   1.260  11.315   2.427  0.1719  0.1406  0.0126
  923MOL0     C24524   1.298  11.255   2.549  0.4434  0.6269  0.2997
  923MOL0     C24525   1.515  11.272   2.961  0.6283 -0.7990 -0.2426
  923MOL0     C24526   1.598  11.338   3.052  0.7608  0.7758  0.1530
  923MOL0     C24527   1.639  11.276   3.171 -0.4777  0.5446 -0.5102
  923MOL0     C24528   1.610  11.136   3.189  1.5613 -0.4290  0.4630
  923MOL0     O24529   1.655  11.061   3.286  0.3303  0.4810 -0.0136
  923MOL0     C24530   1.714  11.118   3.408 -0.1511  0.8541  0.6402
  923MOL0     C24531   1.725  11.014   3.523 -0.2688 -0.2778  0.1143
  923MOL0     C24532   1.801  10.885   3.489  0.5485 -0.1465  0.3117
  923MOL0     C24533   1.823  10.802   3.613 -1.1886 -0.2676  0.1057
  923MOL0     C24534   1.856  10.674   3.555 -0.4167  0.5591 -0.6973
  923MOL0     C24535   1.894  10.561   3.527 -0.9129  0.4494 -0.3913
  923MOL0     C24536   1.518  11.076   3.101 -0.1433  0.1120  0.2257
  923MOL0     C24537   1.475  11.148   2.986 -0.3928  0.4796  0.4486
  923MOL0     H24538   1.252  11.527   2.745 -1.1321 -1.0982  0.3279
  923MOL0     H24539   1.174  11.628   2.520  2.4515  1.1480  0.1824
  923MOL0     H24540   1.025  11.620   2.350 -2.1815  1.0869 -2.0087
  923MOL0     H24541   1.173  11.684   2.292  0.8945  0.3389 -2.7196
  923MOL0     H24542   0.976  11.530   2.121  2.6999 -1.3556  2.0603
  923MOL0     H24543   0.969  11.712   2.156 -2.4612 -0.8194 -1.1260
  923MOL0     H24544   1.223  11.685   2.068 -2.1861  1.5932  0.7472
  923MOL0     H24545   1.203  11.525   2.044  1.7564  1.6589 -0.0890
  923MOL0     H24546   1.195  11.639   1.828 -2.0575  3.4068 -3.9262
  923MOL0     H24547   1.036  11.551   1.851 -0.0279 -0.5565 -0.3379
  923MOL0     H24548   0.935  11.757   1.897  0.1399 -3.0822 -0.5075
  923MOL0     H24549   1.085  11.845   1.909  1.1090 -0.3400  0.5619
  923MOL0     H24550   0.923  11.734   1.677  1.6866 -0.3725 -2.2064
  923MOL0     H24551   0.956  11.892   1.707 -0.4696 -2.0686  0.3767
  923MOL0     H24552   1.211  11.831   1.642  0.6225 -1.0058 -2.3898
  923MOL0     H24553   1.128  11.684   1.590 -2.0423  0.3904 -1.2224
  923MOL0     H24554   0.975  11.822   1.458  0.7453  0.7522  1.1259
  923MOL0     H24555   1.142  11.825   1.407 -1.6711 -1.3749 -2.1114
  923MOL0     H24556   1.249  12.099   1.468 -0.0708  1.7282 -4.6445
  923MOL0     H24557   1.255  12.343   1.446  1.3471  3.7017  2.9483
  923MOL0     H24558   1.107  12.418   1.400  1.2716  2.7541  1.1592
  923MOL0     H24559   1.038  12.430   1.637 -0.5818 -2.0388 -2.2764
  923MOL0     H24560   1.187  12.528   1.593 -1.6818  0.9535 -2.0540
  923MOL0     H24561   1.311  12.316   1.698  0.6740  0.1029 -0.5986
  923MOL0     H24562   1.161  12.255   1.741 -0.4206  0.6589 -2.5026
  923MOL0     H24563   1.108  12.388   1.916 -0.7168 -3.1600 -1.4771
  923MOL0     H24564   1.216  12.519   1.863 -0.7232 -0.7682  0.0756
  923MOL0     H24565   1.164  12.528   2.079 -0.6065 -0.1988  0.1911
  923MOL0     H24566   1.078  12.661   2.251 -0.8787 -0.8777 -0.4616
  923MOL0     H24567   1.040  12.536   2.371  0.7330 -0.4092  0.6539
  923MOL0     H24568   1.151  12.668   2.404 -3.5664  0.6219 -0.1780
  923MOL0     H24569   1.280  12.427   2.776 -0.7192  0.9120  1.1371
  923MOL0     H24570   1.333  12.470   2.992  1.4213 -0.8206  0.6082
  923MOL0     H24571   1.786  12.557   3.075 -1.0495  0.3755 -1.7389
  923MOL0     H24572   1.697  12.696   3.064 -1.5485 -0.2807  0.0953
  923MOL0     H24573   1.690  12.525   3.320  0.3756 -0.7685 -0.3648
  923MOL0     H24574   1.810  12.655   3.285  0.4233 -0.9165 -4.0218
  923MOL0     H24575   1.607  12.719   3.438 -1.2600  1.1492  0.3954
  923MOL0     H24576   1.505  12.683   3.304  0.2181  0.3184 -1.6630
  923MOL0     H24577   1.711  12.900   3.288  0.9888 -1.5152 -0.0458
  923MOL0     H24578   1.580  12.867   3.169  0.4279  2.3932 -1.1740
  923MOL0     H24579   1.528  12.941   3.459 -0.1294 -0.9872 -0.9354
  923MOL0     H24580   1.403  12.892   3.343  0.0324 -1.4094 -0.6731
  923MOL0     H24581   1.587  13.120   3.357  0.6323 -2.1839 -0.4261
  923MOL0     H24582   1.499  13.104   3.205 -0.5863 -0.1827  0.2805
  923MOL0     H24583   1.379  13.166   3.475 -1.3269  1.4104 -0.0541
  923MOL0     H24584   1.284  13.144   3.344  0.1451  2.6265 -2.0223
  923MOL0     H24585   1.403  13.324   3.216 -4.6714  2.4674 -0.5819
  923MOL0     H24586   1.505  13.352   3.360 -0.5244  1.0054 -0.7050
  923MOL0     H24587   1.751  12.531   2.871 -0.0108  2.6329 -3.1152
  923MOL0     H24588   1.691  12.474   2.653 -0.4700  0.3355 -2.3343
  923MOL0     H24589   1.490  12.302   2.360  0.1549 -0.2698 -0.5693
  923MOL0     H24590   1.484  12.252   2.127  2.6106  0.3435  0.1221
  923MOL0     H24591   1.261  11.248   2.342  1.1300 -0.1840  0.2632
  923MOL0     H24592   1.302  11.147   2.559 -0.0760  0.5269 -0.4906
  923MOL0     H24593   1.615  11.445   3.045  1.8958  0.5659 -0.4958
  923MOL0     H24594   1.710  11.336   3.227 -0.8752  0.0148  0.5932
  923MOL0     H24595   1.813  11.158   3.385  0.2075 -1.9648 -3.8772
  923MOL0     H24596   1.651  11.199   3.445 -3.1969 -0.4987 -1.2169
  923MOL0     H24597   1.624  10.997   3.561 -0.4357  1.4910  0.5592
  923MOL0     H24598   1.781  11.069   3.598  0.3913 -0.0815 -0.5126
  923MOL0     H24599   1.897  10.918   3.448  3.3719 -1.6261  4.9701
  923MOL0     H24600   1.747  10.820   3.420  1.4905 -1.7998  1.0774
  923MOL0     H24601   1.731  10.803   3.672 -1.6928 -1.2176 -0.6345
  923MOL0     H24602   1.901  10.853   3.671 -3.1270  1.5328  1.3028
  923MOL0     H24603   1.921  10.461   3.499  1.4615  0.3443  1.9198
  923MOL0     H24604   1.496  10.969   3.101  1.2643 -0.3318 -3.7508
  923MOL0     H24605   1.419  11.095   2.910  1.4161 -0.3971 -0.3482
  924MOL0     O24606   5.702   8.068   6.697  0.0875  0.3839  0.4171
  924MOL0     C24607   5.669   8.176   6.731  0.8969  0.3051 -0.6025
  924MOL0     O24608   5.706   8.298   6.687 -0.3372  0.8542  0.1217
  924MOL0     C24609   5.794   8.302   6.585 -0.1219  0.1852 -0.2455
  924MOL0     C24610   5.911   8.237   6.598 -0.2671 -0.7872 -0.2788
  924MOL0     C24611   6.002   8.240   6.491 -0.3642 -0.2029 -0.8504
  924MOL0     C24612   5.981   8.318   6.380  0.3541  0.7622  0.3701
  924MOL0     O24613   6.068   8.332   6.276 -0.0239 -0.4140  0.0917
  924MOL0     C24614   6.195   8.392   6.311 -0.3568 -0.2889  0.3452
  924MOL0     C24615   6.289   8.385   6.179 -0.5188 -0.8437  0.1956
  924MOL0     C24616   6.350   8.250   6.136 -0.4921  1.3970 -0.1683
  924MOL0     C24617   6.280   8.192   6.012 -0.7972  1.2629  0.5663
  924MOL0     C24618   6.146   8.133   6.045  0.4184  0.7272  0.4206
  924MOL0     C24619   6.117   8.021   5.946  0.4382 -0.1044  0.5327
  924MOL0     C24620   6.097   8.055   5.798 -0.5005 -0.0376  0.2461
  924MOL0     C24621   6.217   8.072   5.706  0.1126 -0.5558  0.1001
  924MOL0     N24622   6.170   8.072   5.560  0.5087  0.0518 -0.7316
  924MOL0     C24623   6.053   8.012   5.506  0.2223 -0.3282  0.1222
  924MOL0     C24624   6.072   8.034   5.372 -0.0211 -0.4958 -0.6985
  924MOL0     C24625   5.972   8.023   5.262 -1.4991 -0.0544 -0.4226
  924MOL0     C24626   5.900   8.153   5.238  0.0344  0.0143  0.6637
  924MOL0     C24627   5.807   8.133   5.117  0.3604 -0.1044 -0.3615
  924MOL0     C24628   5.797   8.253   5.024  0.5768 -0.9504  0.9919
  924MOL0     O24629   5.690   8.243   4.931  0.0074 -0.3090  0.2405
  924MOL0     C24630   5.579   8.331   4.944 -0.0044  0.7913  0.3208
  924MOL0     C24631   5.513   8.349   4.824  0.6733  0.4163 -0.6226
  924MOL0     C24632   5.391   8.416   4.832  0.0304 -0.4253 -0.8913
  924MOL0     C24633   5.308   8.432   4.714  0.8450 -0.4426 -0.5405
  924MOL0     C24634   5.344   8.472   4.958 -0.3688 -0.3267  0.3519
  924MOL0     C24635   5.229   8.563   4.981 -0.3307  0.1650 -0.1386
  924MOL0     O24636   5.128   8.524   5.068 -0.0883  0.1697 -0.3226
  924MOL0     C24637   5.057   8.629   5.124  0.6556  0.2530  0.3706
  924MOL0     C24638   4.927   8.667   5.090 -0.7876  0.2207 -0.3628
  924MOL0     C24639   4.859   8.765   5.161  0.3268  0.1022  0.9488
  924MOL0     C24640   4.933   8.829   5.269 -0.3178 -0.0314 -0.0618
  924MOL0     O24641   4.858   8.917   5.338  0.3186 -0.3701 -0.1463
  924MOL0     C24642   4.912   8.997   5.443  0.0428  0.0845  0.7841
  924MOL0     C24643   4.807   9.088   5.516  0.6523 -0.1423  0.1789
  924MOL0     C24644   4.734   9.019   5.629  0.1627 -0.4059  0.1996
  924MOL0     C24645   4.584   9.077   5.643  0.5793  0.5979  0.4085
  924MOL0     C24646   4.585   9.214   5.716  0.2641  0.9711 -0.2522
  924MOL0     C24647   4.441   9.278   5.721 -0.1190  0.4077  0.2903
  924MOL0     C24648   4.348   9.275   5.600  0.8697  0.7004  0.6700
  924MOL0     C24649   4.409   9.345   5.482 -0.0621  0.7201  0.2863
  924MOL0    Cl24650   4.467   9.513   5.506 -0.1722 -0.1311  0.2396
  924MOL0     C24651   5.063   8.796   5.300  0.0130  0.1225  0.9363
  924MOL0     C24652   5.123   8.697   5.228  0.7344 -0.4100 -0.2946
  924MOL0     O24653   5.214   8.661   4.910 -0.0917  0.3712  0.1386
  924MOL0     C24654   5.416   8.458   5.070  0.2324  0.4238 -0.3427
  924MOL0     C24655   5.534   8.379   5.068 -0.1332 -0.6405 -0.1615
  924MOL0     N24656   6.194   8.104   5.359 -0.1172 -0.3395 -0.4573
  924MOL0     N24657   6.255   8.117   5.470  0.4478  0.4891  0.5138
  924MOL0     C24658   5.858   8.383   6.368 -0.8180 -0.3435  0.9496
  924MOL0     C24659   5.769   8.375   6.470 -0.1779 -0.7611  0.0218
  924MOL0     C24660   5.592   8.184   6.862  0.5893 -0.1403  0.8567
  924MOL0     C24661   5.495   8.098   6.898  0.0226  0.0261  0.4652
  924MOL0     C24662   5.429   8.121   7.022  0.6525  0.0090  0.3880
  924MOL0     C24663   5.458   8.234   7.100  0.3432 -0.5925  0.6363
  924MOL0     O24664   5.394   8.241   7.230  0.0464  0.0646 -0.0811
  924MOL0     C24665   5.488   8.239   7.341  0.4306  0.7623  1.0149
  924MOL0     C24666   5.413   8.302   7.459  0.6003 -0.1856 -1.2687
  924MOL0     C24667   5.498   8.324   7.585  0.5257  1.0841  0.6376
  924MOL0     C24668   5.473   8.213   7.687  0.3316  0.2834 -0.4481
  924MOL0     C24669   5.532   8.084   7.651 -0.8520  0.1696 -0.6232
  924MOL0     C24670   5.556   7.962   7.637 -0.0749 -0.1735  0.2724
  924MOL0     C24671   5.558   8.316   7.063  0.1466  0.3508 -0.0694
  924MOL0     C24672   5.626   8.294   6.945 -0.1476  0.9415 -0.3797
  924MOL0     H24673   5.935   8.179   6.686 -1.9711  0.0244  0.7706
  924MOL0     H24674   6.096   8.186   6.494 -2.2651 -4.0909 -3.0100
  924MOL0     H24675   6.181   8.499   6.327  0.3356  0.0975 -1.4300
  924MOL0     H24676   6.238   8.343   6.399 -0.6735  0.8529  1.1543
  924MOL0     H24677   6.237   8.442   6.102 -1.3864 -1.0055  0.6461
  924MOL0     H24678   6.379   8.436   6.217  1.2253 -3.2877 -0.4286
  924MOL0     H24679   6.450   8.273   6.097 -0.7127 -1.3462 -2.7264
  924MOL0     H24680   6.349   8.175   6.215 -2.4460  0.2474 -1.2050
  924MOL0     H24681   6.268   8.270   5.936  1.0356  0.5895 -0.4829
  924MOL0     H24682   6.344   8.107   5.987  0.5680  1.7766  2.1277
  924MOL0     H24683   6.139   8.089   6.145 -1.2537  1.2397  0.5692
  924MOL0     H24684   6.063   8.204   6.030 -1.0980 -1.1315 -0.4128
  924MOL0     H24685   6.192   7.943   5.960  1.7371  1.3861  2.5011
  924MOL0     H24686   6.022   7.980   5.979  0.2918 -0.6032 -0.4911
  924MOL0     H24687   6.035   7.973   5.760 -2.7593  0.9123  1.6394
  924MOL0     H24688   6.033   8.143   5.783 -1.1101 -0.8958 -2.7443
  924MOL0     H24689   6.286   7.986   5.709  3.3750  1.8078 -1.2600
  924MOL0     H24690   6.269   8.165   5.730  0.5891 -1.0026  0.8633
  924MOL0     H24691   5.968   7.969   5.559 -0.4298  0.6984 -0.0582
  924MOL0     H24692   6.029   7.980   5.180 -2.3460 -1.0061 -0.5332
  924MOL0     H24693   5.893   7.954   5.295 -1.9953  0.7131  0.0250
  924MOL0     H24694   5.967   8.238   5.219 -1.2516  0.2310 -4.0387
  924MOL0     H24695   5.831   8.173   5.321  1.4234  3.2466  1.1939
  924MOL0     H24696   5.707   8.109   5.154  0.4776  0.3703  0.2850
  924MOL0     H24697   5.831   8.055   5.044 -3.2126  1.6620 -3.8454
  924MOL0     H24698   5.892   8.267   4.971 -0.9409  1.3553 -1.4463
  924MOL0     H24699   5.792   8.350   5.075  0.5386 -0.1894 -0.3950
  924MOL0     H24700   5.550   8.303   4.733  3.2683 -1.2810  1.1437
  924MOL0     H24701   5.368   8.427   4.623  0.1342  0.0360 -1.0546
  924MOL0     H24702   5.232   8.355   4.725  0.6231 -0.2251 -0.5309
  924MOL0     H24703   5.247   8.522   4.700 -3.5725 -3.4007 -2.5236
  924MOL0     H24704   4.873   8.618   5.010  1.8018  0.3433 -2.3024
  924MOL0     H24705   4.763   8.807   5.133  0.9530  1.9372  1.3917
  924MOL0     H24706   4.962   8.936   5.518  1.7594  1.4231  0.7920
  924MOL0     H24707   4.988   9.068   5.408 -0.4802 -0.3897 -1.4606
  924MOL0     H24708   4.852   9.180   5.555  2.8030  0.5836 -3.5036
  924MOL0     H24709   4.737   9.105   5.434  1.8072  0.2212 -0.7681
  924MOL0     H24710   4.792   9.030   5.721 -1.0114 -0.9721  1.0311
  924MOL0     H24711   4.714   8.912   5.615 -0.5760 -0.0107 -2.3968
  924MOL0     H24712   4.532   9.081   5.548  1.6689 -2.0381 -0.3928
  924MOL0     H24713   4.536   8.999   5.702  1.2261 -0.2265 -0.1418
  924MOL0     H24714   4.657   9.284   5.672  1.0199  0.2484 -0.1938
  924MOL0     H24715   4.626   9.190   5.815  1.4553  0.4869 -0.8494
  924MOL0     H24716   4.393   9.239   5.811  4.4119 -1.4765  2.2208
  924MOL0     H24717   4.445   9.386   5.743 -3.5436  0.2585  2.3302
  924MOL0     H24718   4.264   9.337   5.633 -2.0661 -3.8596  2.8146
  924MOL0     H24719   4.312   9.176   5.573  1.4694  0.2241  1.5600
  924MOL0     H24720   4.335   9.332   5.402  0.8404  0.5266 -0.5369
  924MOL0     H24721   4.493   9.286   5.442  0.7225  2.6872 -1.1184
  924MOL0     H24722   5.115   8.838   5.385  0.0305  0.7016  0.6422
  924MOL0     H24723   5.223   8.658   5.247 -1.0458 -5.1412  0.9601
  924MOL0     H24724   5.397   8.508   5.164  2.8637  3.4186 -1.2445
  924MOL0     H24725   5.596   8.359   5.155  3.9851  2.1372 -2.1416
  924MOL0     H24726   5.834   8.458   6.293  0.1769 -0.2358  0.7176
  924MOL0     H24727   5.671   8.420   6.459  0.0623 -0.1281  0.4083
  924MOL0     H24728   5.467   8.018   6.831  2.8757 -0.1206 -0.6638
  924MOL0     H24729   5.346   8.061   7.057  0.6166 -0.3438 -0.2745
  924MOL0     H24730   5.523   8.139   7.367  3.6675  1.3578 -0.4571
  924MOL0     H24731   5.577   8.296   7.310  1.1215 -0.2634  1.0582
  924MOL0     H24732   5.325   8.243   7.486 -0.3412  0.4876 -2.7268
  924MOL0     H24733   5.382   8.404   7.437  0.6055  0.5435  1.7237
  924MOL0     H24734   5.459   8.418   7.625  0.8320  0.9296  1.3216
  924MOL0     H24735   5.605   8.328   7.562  0.2884  0.1179 -0.7548
  924MOL0     H24736   5.366   8.214   7.709  0.5559  1.4193  0.7361
  924MOL0     H24737   5.520   8.257   7.776  2.4589  0.5560 -1.6361
  924MOL0     H24738   5.590   7.863   7.616 -1.8731 -0.5315 -1.2127
  924MOL0     H24739   5.607   8.392   7.123  1.1212 -2.0557  2.3857
  924MOL0     H24740   5.699   8.366   6.909 -1.9970  2.1208 -2.0178
  925MOL0     O24741   0.660  10.704   4.698 -0.7442  0.3198  1.0123
  925MOL0     C24742   0.633  10.819   4.662 -0.4656 -0.1250  0.2979
  925MOL0     O24743   0.638  10.858   4.536  0.1477 -1.4367 -0.1979
  925MOL0     C24744   0.601  10.765   4.445 -0.3906 -0.3142  0.9642
  925MOL0     C24745   0.485  10.778   4.366  0.0553  1.0874  1.0945
  925MOL0     C24746   0.447  10.683   4.266 -0.0782  0.1123  0.5668
  925MOL0     C24747   0.546  10.587   4.229  0.5573 -0.5205  0.2402
  925MOL0     O24748   0.520  10.522   4.113 -0.1879 -0.0953  0.1875
  925MOL0     C24749   0.620  10.504   4.022 -1.0225 -0.6935  0.0989
  925MOL0     C24750   0.548  10.479   3.888  1.0680 -0.5291  0.5700
  925MOL0     C24751   0.436  10.372   3.905  0.9560 -0.2144  0.3379
  925MOL0     C24752   0.420  10.289   3.779 -0.4191  0.2524 -0.1206
  925MOL0     C24753   0.342  10.154   3.813 -0.3778 -0.8330  0.2729
  925MOL0     C24754   0.352  10.063   3.693  0.7458  0.4315 -0.7620
  925MOL0     C24755   0.317   9.914   3.726 -0.3778 -1.9071 -0.0083
  925MOL0     C24756   0.389   9.804   3.641  0.5719 -0.9643 -0.6460
  925MOL0     N24757   0.354   9.803   3.504  0.5609 -0.6806  1.5616
  925MOL0     C24758   0.300   9.701   3.429  0.5857 -0.7068  0.1065
  925MOL0     C24759   0.295   9.745   3.300  0.4416  0.0033  0.0877
  925MOL0     C24760   0.231   9.672   3.188  0.1426 -0.6032 -0.2598
  925MOL0     C24761   0.318   9.557   3.140  0.7671  0.4918 -0.2718
  925MOL0     C24762   0.243   9.472   3.038 -0.1266  0.4701 -1.0194
  925MOL0     C24763   0.295   9.325   3.020  0.3115 -0.5187 -0.4439
  925MOL0     O24764   0.191   9.248   2.962  0.0724 -0.4785 -0.0127
  925MOL0     C24765   0.220   9.129   2.894  1.1216  0.3883  0.6648
  925MOL0     C24766   0.332   9.053   2.920 -0.0291 -0.5236  1.0680
  925MOL0     C24767   0.374   8.934   2.860  0.5704  0.3939  0.5572
  925MOL0     C24768   0.490   8.862   2.933  0.3312  0.1771  0.1468
  925MOL0     C24769   0.298   8.895   2.745  0.2470 -0.3428  0.4466
  925MOL0     C24770   0.347   8.805   2.641 -0.7582 -0.0049  0.0436
  925MOL0     O24771   0.287   8.792   2.517  0.0978 -0.1939  0.0495
  925MOL0     C24772   0.328   8.696   2.431  0.2375 -0.2988  1.0674
  925MOL0     C24773   0.418   8.711   2.316 -0.1864  1.3351  0.1260
  925MOL0     C24774   0.433   8.617   2.224  0.0383 -0.0067  0.3447
  925MOL0     C24775   0.364   8.498   2.236  1.0672 -0.2435 -0.0067
  925MOL0     O24776   0.362   8.393   2.146 -0.1623 -0.0143  0.2514
  925MOL0     C24777   0.388   8.428   2.007  0.1741 -0.1711 -0.0217
  925MOL0     C24778   0.269   8.507   1.938 -0.2497 -0.2117  0.0606
  925MOL0     C24779   0.136   8.445   1.964 -0.3623  0.1762 -1.1933
  925MOL0     C24780   0.014   8.533   1.929 -0.2987 -1.0324  0.0698
  925MOL0     C24781  -0.118   8.456   1.966 -1.1362  0.9996 -0.1821
  925MOL0     C24782  -0.246   8.505   1.900 -0.4455 -0.5688  0.4553
  925MOL0     C24783  -0.305   8.632   1.968  1.2940 -0.9696  0.3558
  925MOL0     C24784  -0.403   8.712   1.880 -0.3980 -0.6324 -1.0123
  925MOL0    Cl24785  -0.444   8.851   1.995 -0.4996 -0.2149 -0.2166
  925MOL0     C24786   0.296   8.470   2.350  0.0749 -0.6598  0.5754
  925MOL0     C24787   0.279   8.568   2.446 -0.3749  0.7264 -0.2595
  925MOL0     O24788   0.455   8.748   2.677 -0.1663 -0.0817  1.0834
  925MOL0     C24789   0.186   8.971   2.715 -0.2121  0.3036 -0.9494
  925MOL0     C24790   0.143   9.081   2.794 -0.0488 -0.6212  1.2001
  925MOL0     N24791   0.347   9.871   3.299 -0.7118 -1.3219 -0.3381
  925MOL0     N24792   0.385   9.909   3.423 -0.4138  1.3209  1.0739
  925MOL0     C24793   0.661  10.564   4.309  0.0537  0.0919 -0.6485
  925MOL0     C24794   0.684  10.663   4.410 -0.5984  0.1274  0.5850
  925MOL0     C24795   0.646  10.917   4.761 -0.3299 -0.3286 -0.4059
  925MOL0     C24796   0.643  10.894   4.893  0.8637  0.0888  0.6584
  925MOL0     C24797   0.668  10.992   4.985 -0.2627  0.0277 -0.4159
  925MOL0     C24798   0.700  11.121   4.953  0.2298  0.8086 -0.2499
  925MOL0     O24799   0.738  11.222   5.043  0.4791 -0.0323 -0.3913
  925MOL0     C24800   0.715  11.223   5.187 -0.6178 -0.4375  1.0232
  925MOL0     C24801   0.572  11.244   5.218 -0.0641  0.5035  0.7718
  925MOL0     C24802   0.515  11.380   5.153 -0.1157 -0.2100 -0.7136
  925MOL0     C24803   0.595  11.505   5.211 -0.7475  0.0262 -0.1351
  925MOL0     C24804   0.574  11.525   5.353 -0.1273  0.1529  0.3872
  925MOL0     C24805   0.550  11.551   5.470 -0.0360  0.3362 -0.0898
  925MOL0     C24806   0.696  11.147   4.816 -0.1002 -0.6652 -0.6940
  925MOL0     C24807   0.667  11.049   4.728  0.7008  0.3917  0.2784
  925MOL0     H24808   0.417  10.859   4.390 -0.2748  1.6911 -1.6250
  925MOL0     H24809   0.353  10.702   4.216 -0.6706 -1.7007  0.9290
  925MOL0     H24810   0.673  10.599   4.008 -0.5359 -1.2317 -2.0638
  925MOL0     H24811   0.686  10.420   4.047 -0.4755 -0.0400  0.8653
  925MOL0     H24812   0.497  10.569   3.852  2.3306 -0.9921 -2.6965
  925MOL0     H24813   0.627  10.446   3.820  0.8321 -2.2372  1.0734
  925MOL0     H24814   0.473  10.298   3.976  1.8004 -3.3430 -3.0334
  925MOL0     H24815   0.336  10.410   3.928 -1.0985 -3.2581 -2.6394
  925MOL0     H24816   0.367  10.346   3.702  0.8354  3.6526  1.3423
  925MOL0     H24817   0.516  10.269   3.732  0.6411  0.7511  1.7162
  925MOL0     H24818   0.392  10.099   3.893  0.7659 -0.4148 -0.1352
  925MOL0     H24819   0.235  10.173   3.827 -0.7324  1.9136 -4.2379
  925MOL0     H24820   0.288  10.109   3.617  0.7062  2.5730  0.4871
  925MOL0     H24821   0.450  10.067   3.643  0.3773 -0.0804 -1.5505
  925MOL0     H24822   0.329   9.887   3.832 -3.0004  0.7547  1.1050
  925MOL0     H24823   0.208   9.906   3.719 -0.4728  0.0152 -1.8095
  925MOL0     H24824   0.374   9.712   3.699  0.6974 -0.1657  0.6965
  925MOL0     H24825   0.494   9.832   3.634  0.1234  1.4547  1.0211
  925MOL0     H24826   0.276   9.600   3.458 -0.0525 -0.2848  1.1019
  925MOL0     H24827   0.137   9.629   3.224  0.0857 -3.1025 -2.9839
  925MOL0     H24828   0.204   9.739   3.107  0.5025  0.9429  0.8550
  925MOL0     H24829   0.347   9.497   3.227  1.4360  0.5130 -0.4694
  925MOL0     H24830   0.402   9.606   3.090  0.9094 -0.3088 -0.8423
  925MOL0     H24831   0.252   9.512   2.936  1.0349 -1.0268 -1.5287
  925MOL0     H24832   0.139   9.462   3.071 -0.6149 -0.4138 -2.7154
  925MOL0     H24833   0.332   9.269   3.107  1.7245  0.5458 -0.3259
  925MOL0     H24834   0.385   9.335   2.959 -0.2147 -0.2773 -1.2016
  925MOL0     H24835   0.380   9.080   3.013 -1.1871 -1.2491  1.9088
  925MOL0     H24836   0.508   8.906   3.031  0.0056 -2.1251  1.3036
  925MOL0     H24837   0.454   8.760   2.953 -2.9044  1.4461  1.5259
  925MOL0     H24838   0.584   8.866   2.876  1.0425 -1.2321  1.1594
  925MOL0     H24839   0.476   8.803   2.319  1.0714  0.6068  4.3572
  925MOL0     H24840   0.503   8.636   2.143 -0.0892  6.2672  1.2039
  925MOL0     H24841   0.482   8.483   2.000  0.4330 -0.6252 -0.1273
  925MOL0     H24842   0.414   8.338   1.951  2.7884 -0.6311  1.7790
  925MOL0     H24843   0.263   8.608   1.979 -3.6532 -1.5165  3.2376
  925MOL0     H24844   0.290   8.520   1.831 -1.2376 -0.8615 -0.2270
  925MOL0     H24845   0.142   8.427   2.071  0.3757  0.3634 -1.1936
  925MOL0     H24846   0.128   8.340   1.934 -0.7892 -0.9053  2.3536
  925MOL0     H24847   0.027   8.630   1.979 -3.0493 -0.8686  0.6337
  925MOL0     H24848   0.009   8.551   1.822  0.2017 -1.7468 -0.0833
  925MOL0     H24849  -0.134   8.452   2.075  0.7391  0.7636  0.1175
  925MOL0     H24850  -0.102   8.351   1.943  1.7314  0.9386  1.5649
  925MOL0     H24851  -0.228   8.532   1.795  0.2749  1.4751  1.0709
  925MOL0     H24852  -0.317   8.422   1.897 -1.7402  0.5105 -0.7441
  925MOL0     H24853  -0.234   8.711   1.992 -1.0767  1.8590 -1.3088
  925MOL0     H24854  -0.368   8.601   2.053 -0.2937 -2.9222 -1.4181
  925MOL0     H24855  -0.495   8.662   1.852 -1.5272  0.8914 -0.2184
  925MOL0     H24856  -0.353   8.752   1.791 -0.4424  0.4950 -0.5516
  925MOL0     H24857   0.260   8.369   2.367  1.7171 -1.0082  2.2582
  925MOL0     H24858   0.218   8.546   2.533 -0.4452  2.1558  0.0658
  925MOL0     H24859   0.128   8.953   2.624 -0.1428 -1.2850 -0.7052
  925MOL0     H24860   0.066   9.148   2.759  4.1160  2.6261 -3.1239
  925MOL0     H24861   0.721  10.476   4.284  0.7564  0.1893  0.6056
  925MOL0     H24862   0.771  10.647   4.473  0.6133  0.2123 -0.9847
  925MOL0     H24863   0.620  10.793   4.926  3.1519 -0.1799  1.6511
  925MOL0     H24864   0.670  10.961   5.089  0.0751  0.7940 -0.1906
  925MOL0     H24865   0.740  11.128   5.235  1.9532 -0.5308 -0.3287
  925MOL0     H24866   0.779  11.306   5.219  0.6770 -1.2281  0.5588
  925MOL0     H24867   0.557  11.254   5.326  1.0110 -3.1902  1.3878
  925MOL0     H24868   0.525  11.149   5.192  0.8011  0.0721  0.7396
  925MOL0     H24869   0.406  11.385   5.169  0.0655 -0.8658  0.8394
  925MOL0     H24870   0.538  11.376   5.046 -1.5223  0.7563 -1.1000
  925MOL0     H24871   0.544  11.596   5.176  1.3987  1.5208  0.4085
  925MOL0     H24872   0.699  11.513   5.177 -1.3064  2.9718 -1.5380
  925MOL0     H24873   0.545  11.565   5.576  0.6200 -3.6142  0.6423
  925MOL0     H24874   0.714  11.247   4.780 -3.7519  0.8692  1.2567
  925MOL0     H24875   0.684  11.072   4.623  3.8163  0.5072  0.6903
  926MOL0     O24876   3.777   8.982   6.820 -0.6652 -0.3264 -0.5972
  926MOL0     C24877   3.860   9.067   6.799  0.1729  0.3775  0.9166
  926MOL0     O24878   3.838   9.184   6.731 -0.5288  0.1034  0.5355
  926MOL0     C24879   3.721   9.196   6.660  0.3539  0.9932 -0.9001
  926MOL0     C24880   3.684   9.120   6.548  0.6516  0.8081 -0.5438
  926MOL0     C24881   3.570   9.138   6.489  0.0720 -0.9805  0.4187
  926MOL0     C24882   3.488   9.245   6.524  0.4293  0.2369 -0.5591
  926MOL0     O24883   3.383   9.269   6.437 -0.9488 -0.3275  0.6847
  926MOL0     C24884   3.259   9.268   6.494  0.7695  0.7021  0.6428
  926MOL0     C24885   3.160   9.336   6.403 -0.5698 -0.7419  0.4187
  926MOL0     C24886   3.018   9.321   6.464 -0.0123  0.0162 -0.5398
  926MOL0     C24887   3.015   9.388   6.611 -0.4649  0.5618  0.5919
  926MOL0     C24888   2.867   9.407   6.652 -0.6277  0.4368  0.5578
  926MOL0     C24889   2.787   9.274   6.631 -0.7919  0.0557 -0.0630
  926MOL0     C24890   2.652   9.284   6.690  0.6092  0.8096  0.2465
  926MOL0     C24891   2.575   9.155   6.686 -0.3475  0.7399 -0.3345
  926MOL0     N24892   2.575   9.085   6.551 -0.1474 -0.5974 -0.1174
  926MOL0     C24893   2.570   9.145   6.429  0.3909  1.0762 -0.0741
  926MOL0     C24894   2.561   9.033   6.340 -0.1530  0.1288  0.1585
  926MOL0     C24895   2.561   9.037   6.186  0.2518  0.4956 -0.2893
  926MOL0     C24896   2.680   9.117   6.126 -0.4796  1.0075 -0.4667
  926MOL0     C24897   2.672   9.121   5.969  0.8551  0.6108  0.6067
  926MOL0     C24898   2.791   9.196   5.923  0.3437  0.3430 -0.1118
  926MOL0     O24899   2.776   9.221   5.789  0.3189  0.0608  0.4514
  926MOL0     C24900   2.843   9.331   5.732 -0.2564  0.9652  0.0390
  926MOL0     C24901   2.930   9.408   5.796  0.0724  0.3523 -0.2640
  926MOL0     C24902   3.001   9.509   5.727  0.0344 -0.0447  0.2401
  926MOL0     C24903   3.091   9.598   5.818  0.8651 -0.0255 -0.8471
  926MOL0     C24904   2.992   9.532   5.584  0.7968 -0.0422  0.0610
  926MOL0     C24905   3.067   9.631   5.509  0.8501 -0.4598  0.0312
  926MOL0     O24906   3.030   9.642   5.379 -0.4653 -1.2027  0.4152
  926MOL0     C24907   3.108   9.725   5.296  1.0496 -0.1420 -0.0700
  926MOL0     C24908   3.068   9.853   5.263 -0.1065  0.0530  0.2501
  926MOL0     C24909   3.163   9.933   5.188 -0.0959 -0.0097  0.0880
  926MOL0     C24910   3.291   9.887   5.150 -0.2375 -0.0569 -0.7638
  926MOL0     O24911   3.373   9.971   5.083 -0.0771 -0.0380 -0.5932
  926MOL0     C24912   3.520   9.965   5.096  0.3788 -0.1848 -0.0263
  926MOL0     C24913   3.557  10.108   5.135 -0.3210  0.0938 -0.1616
  926MOL0     C24914   3.528  10.156   5.274  0.9560  0.9725  0.1137
  926MOL0     C24915   3.586  10.290   5.310 -0.5110  0.1341 -1.1741
  926MOL0     C24916   3.466  10.377   5.339 -1.0853 -0.1861 -0.2090
  926MOL0     C24917   3.519  10.520   5.364  0.0529  0.0328  0.1493
  926MOL0     C24918   3.419  10.623   5.318  0.7488 -0.1493  0.0648
  926MOL0     C24919   3.432  10.766   5.382  0.4530  0.3749 -0.1591
  926MOL0    Cl24920   3.353  10.775   5.559  0.0521 -0.4364 -0.7097
  926MOL0     C24921   3.329   9.760   5.190  0.4136 -0.3006 -0.2039
  926MOL0     C24922   3.233   9.679   5.257  0.4499 -0.2041  0.1425
  926MOL0     O24923   3.153   9.698   5.563 -0.1602 -0.6162  0.0718
  926MOL0     C24924   2.887   9.454   5.531 -0.6749 -0.6738  0.2973
  926MOL0     C24925   2.822   9.363   5.598  0.1572  0.7745  0.0214
  926MOL0     N24926   2.565   8.921   6.419  0.5978  0.2013 -0.1127
  926MOL0     N24927   2.568   8.945   6.539  0.0766 -0.6958 -0.8907
  926MOL0     C24928   3.519   9.330   6.628  0.0575  0.0283  0.2126
  926MOL0     C24929   3.637   9.298   6.710  0.1099 -0.9536 -0.2483
  926MOL0     C24930   3.979   9.065   6.881 -0.1954  0.6706  0.3858
  926MOL0     C24931   4.104   9.107   6.821  0.2817 -0.3077 -0.4489
  926MOL0     C24932   4.223   9.099   6.894 -0.6198 -0.3552 -0.2940
  926MOL0     C24933   4.227   9.047   7.024 -1.2619  0.2782 -0.8256
  926MOL0     O24934   4.345   9.029   7.093  0.5730  0.5154  0.2768
  926MOL0     C24935   4.347   9.070   7.224  1.1135  0.0618  0.4387
  926MOL0     C24936   4.482   9.069   7.279  0.5017 -0.2327 -0.4743
  926MOL0     C24937   4.513   8.937   7.334  0.5857  0.2195 -0.0509
  926MOL0     C24938   4.651   8.940   7.406 -0.4759  0.3566  0.4514
  926MOL0     C24939   4.757   8.980   7.314  0.2100 -0.0068  0.0416
  926MOL0     C24940   4.856   9.012   7.252  0.2370  1.1553 -0.3696
  926MOL0     C24941   4.103   9.015   7.083  0.4495  0.7984 -0.1928
  926MOL0     C24942   3.983   9.022   7.016 -0.3117  0.2779  0.5433
  926MOL0     H24943   3.769   9.055   6.527  0.8805  0.2105  1.9277
  926MOL0     H24944   3.528   9.078   6.409 -3.0449  1.1222  0.2930
  926MOL0     H24945   3.235   9.163   6.516 -0.1115  0.5673 -0.8327
  926MOL0     H24946   3.251   9.337   6.579  0.9926  1.4433  0.0646
  926MOL0     H24947   3.187   9.441   6.390  0.4402 -1.1123 -0.7312
  926MOL0     H24948   3.173   9.293   6.303  0.4470  0.2356  0.1086
  926MOL0     H24949   2.941   9.361   6.398  0.5884 -1.5118 -2.2672
  926MOL0     H24950   2.993   9.216   6.483  1.6754 -0.3573 -0.1924
  926MOL0     H24951   3.076   9.328   6.680  2.1142 -0.7738 -2.5654
  926MOL0     H24952   3.062   9.485   6.591  2.5700 -0.7950  0.6233
  926MOL0     H24953   2.865   9.445   6.755  1.1138  1.3351  0.3073
  926MOL0     H24954   2.810   9.479   6.594 -0.0033  0.5993  0.1418
  926MOL0     H24955   2.788   9.253   6.523  5.6178  0.1800 -0.4294
  926MOL0     H24956   2.845   9.191   6.672 -1.3662 -1.7122 -2.5649
  926MOL0     H24957   2.660   9.326   6.791  1.5770 -0.4575  0.7356
  926MOL0     H24958   2.597   9.349   6.622 -3.2873 -2.8015 -0.4603
  926MOL0     H24959   2.471   9.181   6.708 -0.3643  1.3812 -1.1438
  926MOL0     H24960   2.609   9.083   6.761 -1.3287 -1.8634 -2.2214
  926MOL0     H24961   2.581   9.249   6.403  1.5902  1.4914  1.8967
  926MOL0     H24962   2.558   8.935   6.145  1.5692  1.4240 -2.8726
  926MOL0     H24963   2.466   9.082   6.154  1.5107  3.6520  0.1345
  926MOL0     H24964   2.775   9.069   6.151 -0.4578  0.1158 -2.1296
  926MOL0     H24965   2.676   9.223   6.155  1.0077  1.4026 -1.6279
  926MOL0     H24966   2.577   9.164   5.934  1.5101  1.8882  0.3028
  926MOL0     H24967   2.687   9.021   5.927 -0.5808  1.8206 -3.2842
  926MOL0     H24968   2.885   9.146   5.949  1.0344  2.3558  1.5512
  926MOL0     H24969   2.795   9.294   5.971 -0.1366  1.8582 -2.9473
  926MOL0     H24970   2.957   9.400   5.901 -0.9487 -1.9141 -0.1212
  926MOL0     H24971   3.047   9.696   5.835  2.8508  1.2484 -2.5365
  926MOL0     H24972   3.104   9.558   5.919 -1.3392 -0.2097 -0.5871
  926MOL0     H24973   3.190   9.607   5.774  1.0079 -0.8103 -0.7127
  926MOL0     H24974   2.982   9.904   5.307  1.8755  2.8494  1.1794
  926MOL0     H24975   3.135  10.033   5.158 -0.9279 -0.7371 -1.7539
  926MOL0     H24976   3.570   9.901   5.169  0.4614 -1.4054 -1.1164
  926MOL0     H24977   3.574   9.943   5.003  1.1455  1.0912  0.0927
  926MOL0     H24978   3.666  10.113   5.134 -0.0035 -3.3345  2.0695
  926MOL0     H24979   3.510  10.181   5.069 -0.7291 -0.1720 -0.1687
  926MOL0     H24980   3.582  10.078   5.329  2.2997 -0.0306 -2.4575
  926MOL0     H24981   3.421  10.148   5.294  0.5309 -0.3738 -2.4015
  926MOL0     H24982   3.651  10.290   5.398 -0.6300 -0.2527 -1.0846
  926MOL0     H24983   3.648  10.336   5.233  2.0452 -1.5269 -0.2477
  926MOL0     H24984   3.399  10.351   5.422 -1.3958  0.0971 -0.3689
  926MOL0     H24985   3.398  10.377   5.253 -1.8039 -0.4415  0.3480
  926MOL0     H24986   3.535  10.518   5.472  2.5590  3.3024  0.0017
  926MOL0     H24987   3.610  10.554   5.314  0.4532 -0.8087  0.2913
  926MOL0     H24988   3.314  10.593   5.329  0.2925  1.4946  0.5073
  926MOL0     H24989   3.440  10.624   5.211 -1.0027 -2.1616 -0.3693
  926MOL0     H24990   3.390  10.841   5.315  2.7617  4.3971  2.4530
  926MOL0     H24991   3.541  10.775   5.387  0.7300  0.2297 -3.6693
  926MOL0     H24992   3.430   9.724   5.171  0.5209  0.8671 -2.0854
  926MOL0     H24993   3.274   9.584   5.291  2.5808  1.4558  2.6814
  926MOL0     H24994   2.848   9.453   5.430 -0.8672 -0.9989  0.3735
  926MOL0     H24995   2.752   9.300   5.544  0.9256 -0.8109  0.7980
  926MOL0     H24996   3.466   9.419   6.659 -0.5707 -0.5615  0.8654
  926MOL0     H24997   3.662   9.356   6.799 -0.6942 -0.9469 -0.0269
  926MOL0     H24998   4.114   9.148   6.721 -2.1382  0.1311 -0.5622
  926MOL0     H24999   4.323   9.123   6.858 -0.2651 -1.7928 -0.2986
  926MOL0     H25000   4.306   9.171   7.215 -0.2988 -0.4192  1.0136
  926MOL0     H25001   4.276   9.022   7.292  3.2533  0.8870  3.4699
  926MOL0     H25002   4.505   9.153   7.347  2.4616  0.1508 -1.5222
  926MOL0     H25003   4.545   9.095   7.193  2.3476 -0.3240  0.8024
  926MOL0     H25004   4.497   8.863   7.255 -2.7349 -1.3408  1.8467
  926MOL0     H25005   4.436   8.917   7.409  0.2889  2.5089  0.3386
  926MOL0     H25006   4.665   8.838   7.443 -4.2826 -0.2172  0.6675
  926MOL0     H25007   4.643   9.010   7.491  0.0185  1.2513 -0.2180
  926MOL0     H25008   4.944   9.048   7.202  1.9865 -0.2900  1.4927
  926MOL0     H25009   4.103   8.997   7.190  3.8256  2.9609  0.3320
  926MOL0     H25010   3.893   9.000   7.072 -0.3608  0.4755  0.5455
  927MOL0     O25011  11.491   2.676   4.756  0.3077 -0.4355  0.6616
  927MOL0     C25012  11.563   2.649   4.658  0.1057  1.0640  0.1337
  927MOL0     O25013  11.516   2.612   4.535 -0.3964 -0.2058 -0.9390
  927MOL0     C25014  11.385   2.638   4.514 -0.0953 -0.5602 -0.9738
  927MOL0     C25015  11.321   2.766   4.506  0.2675  0.4745  0.2476
  927MOL0     C25016  11.181   2.766   4.484  0.0169  0.2043 -0.5178
  927MOL0     C25017  11.114   2.643   4.471 -0.5411 -0.3187 -1.1898
  927MOL0     O25018  10.983   2.660   4.426  0.6054  0.1033  0.3680
  927MOL0     C25019  10.918   2.535   4.399  0.6136 -0.4665  0.8317
  927MOL0     C25020  10.793   2.571   4.328 -0.3696  0.4376  0.4436
  927MOL0     C25021  10.705   2.444   4.317 -0.3887  0.1629 -0.8233
  927MOL0     C25022  10.576   2.483   4.251 -0.5339  0.0809 -0.6142
  927MOL0     C25023  10.482   2.364   4.209 -0.5359 -0.9129  0.3504
  927MOL0     C25024  10.361   2.404   4.136  0.0448 -0.6031 -0.3021
  927MOL0     C25025  10.320   2.324   4.022 -1.1416 -0.1904  0.8668
  927MOL0     C25026  10.183   2.355   3.968  1.2360  0.2018 -0.1688
  927MOL0     N25027  10.165   2.479   3.890 -0.4049  0.1325  1.0663
  927MOL0     C25028  10.044   2.523   3.859  0.7529  0.4786  0.2309
  927MOL0     C25029  10.068   2.633   3.786 -0.4051 -1.0096 -0.3273
  927MOL0     C25030   9.971   2.734   3.723  0.6863 -0.3560 -1.1167
  927MOL0     C25031   9.825   2.702   3.757  0.5602 -0.5790 -1.0644
  927MOL0     C25032   9.757   2.568   3.715  0.1790 -1.4730 -1.2377
  927MOL0     C25033   9.741   2.574   3.568  0.1388  1.4184  1.0528
  927MOL0     O25034   9.689   2.443   3.518 -0.0947 -0.2671  0.2053
  927MOL0     C25035   9.642   2.463   3.391  0.1469  0.0148  0.3076
  927MOL0     C25036   9.526   2.537   3.369 -0.0741 -0.2062 -0.7483
  927MOL0     C25037   9.460   2.553   3.244  0.0378 -0.0654  0.5571
  927MOL0     C25038   9.357   2.652   3.242 -0.2335 -0.1670 -0.2911
  927MOL0     C25039   9.516   2.480   3.136  0.6876 -0.1554  0.2252
  927MOL0     C25040   9.458   2.478   2.999 -0.1247 -0.2710 -0.9180
  927MOL0     O25041   9.538   2.437   2.896 -0.1394 -0.8954 -0.0463
  927MOL0     C25042   9.497   2.452   2.768  0.2735  0.3958  0.0855
  927MOL0     C25043   9.379   2.525   2.726  0.5627  0.3666  0.3272
  927MOL0     C25044   9.335   2.504   2.588 -0.1605  1.7036 -0.4117
  927MOL0     C25045   9.414   2.426   2.498  0.9126 -0.2398  0.8456
  927MOL0     O25046   9.397   2.412   2.367 -0.5706 -0.4256  0.2879
  927MOL0     C25047   9.329   2.511   2.287 -0.6880  0.1080  0.5391
  927MOL0     C25048   9.403   2.640   2.290  0.0745 -0.9498 -1.0207
  927MOL0     C25049   9.308   2.758   2.269 -0.3636 -0.0246 -0.2349
  927MOL0     C25050   9.377   2.898   2.282  0.9066  0.1880 -0.2253
  927MOL0     C25051   9.291   3.012   2.249 -0.8967  0.2065  0.1776
  927MOL0     C25052   9.201   3.054   2.368 -0.2678  1.2072 -0.0932
  927MOL0     C25053   9.135   3.195   2.348 -0.5635  0.6828 -0.3373
  927MOL0     C25054   9.067   3.246   2.480  0.0897  0.2876  1.0009
  927MOL0    Cl25055   8.941   3.138   2.536  0.5310 -0.3663  0.3424
  927MOL0     C25056   9.534   2.370   2.539 -0.3227  1.3781 -0.5630
  927MOL0     C25057   9.565   2.366   2.674 -0.5124  0.1386  0.0956
  927MOL0     O25058   9.331   2.495   2.990 -0.1977  1.2396 -0.4879
  927MOL0     C25059   9.621   2.391   3.164  0.4688  0.0784 -0.6675
  927MOL0     C25060   9.680   2.386   3.287 -0.3435 -1.0882  0.3270
  927MOL0     N25061  10.209   2.653   3.769 -0.3659  0.4092  0.0312
  927MOL0     N25062  10.268   2.549   3.824  0.8827 -0.0182  0.9149
  927MOL0     C25063  11.182   2.521   4.484 -0.1045  0.3550 -0.6016
  927MOL0     C25064  11.317   2.520   4.514  1.5285 -0.1853  0.4781
  927MOL0     C25065  11.709   2.636   4.680  0.4338  0.1967  0.4208
  927MOL0     C25066  11.760   2.668   4.808  1.2062 -0.2488 -1.0802
  927MOL0     C25067  11.895   2.666   4.833  0.3734 -0.1305 -0.6375
  927MOL0     C25068  11.987   2.625   4.744  1.1747  0.0339  0.5175
  927MOL0     O25069  12.118   2.619   4.759 -0.3083  0.6702  0.4553
  927MOL0     C25070  12.169   2.622   4.896 -0.5182  0.6704 -0.4660
  927MOL0     C25071  12.285   2.520   4.909  0.6380 -0.2209 -0.7020
  927MOL0     C25072  12.317   2.488   5.055  0.8862 -0.6367  1.4747
  927MOL0     C25073  12.433   2.389   5.055  0.5060  0.7402  0.7323
  927MOL0     C25074  12.514   2.392   5.173  0.2906 -0.0009 -0.8336
  927MOL0     C25075  12.591   2.395   5.260 -0.5661  0.1665 -0.1968
  927MOL0     C25076  11.935   2.592   4.621 -0.7121 -0.5534  0.8535
  927MOL0     C25077  11.802   2.590   4.588  0.8809  0.3018 -0.2767
  927MOL0     H25078  11.368   2.864   4.506 -1.8316  1.5726 -1.6220
  927MOL0     H25079  11.118   2.853   4.468  0.3118  0.7346  1.1133
  927MOL0     H25080  10.963   2.455   4.338 -1.4324  0.9490 -2.9056
  927MOL0     H25081  10.887   2.490   4.494 -2.3317 -0.4021  0.0194
  927MOL0     H25082  10.731   2.648   4.376 -0.2311  2.6795 -2.6639
  927MOL0     H25083  10.823   2.612   4.231 -0.0922  3.2228  1.6139
  927MOL0     H25084  10.763   2.362   4.273 -0.8347 -1.1852  0.9832
  927MOL0     H25085  10.683   2.398   4.413  1.4555 -1.0743 -0.9414
  927MOL0     H25086  10.527   2.568   4.299  3.0282  2.1645 -0.3597
  927MOL0     H25087  10.599   2.535   4.157 -1.0874  1.8687  0.1982
  927MOL0     H25088  10.539   2.301   4.140 -2.4652 -1.9761 -0.3315
  927MOL0     H25089  10.450   2.314   4.301 -3.3196  1.8782  1.0692
  927MOL0     H25090  10.274   2.406   4.203  0.3984  1.3792  0.1517
  927MOL0     H25091  10.368   2.507   4.100 -1.5362 -0.4806 -0.3366
  927MOL0     H25092  10.398   2.340   3.947  0.9091 -2.3450  2.3752
  927MOL0     H25093  10.322   2.219   4.053 -0.0327 -0.3594  0.2994
  927MOL0     H25094  10.114   2.373   4.051  0.2956  1.8703 -1.2564
  927MOL0     H25095  10.151   2.273   3.903 -0.1192  1.7789 -1.5744
  927MOL0     H25096   9.950   2.502   3.908 -0.5162 -1.8675 -2.8382
  927MOL0     H25097   9.995   2.836   3.756 -0.0025 -0.6763  0.4728
  927MOL0     H25098   9.975   2.729   3.614 -1.7831  1.8695 -1.3964
  927MOL0     H25099   9.771   2.788   3.717 -3.7708 -2.7790 -0.4823
  927MOL0     H25100   9.815   2.720   3.864 -1.9137 -0.6257 -1.2452
  927MOL0     H25101   9.656   2.564   3.759 -0.5654 -0.4874 -2.7744
  927MOL0     H25102   9.821   2.485   3.745  0.1202 -0.9382  0.4915
  927MOL0     H25103   9.838   2.589   3.519 -0.0081  3.4054  1.2907
  927MOL0     H25104   9.678   2.660   3.546 -0.7501  0.4040 -0.6341
  927MOL0     H25105   9.490   2.593   3.454 -0.1918 -3.4252  1.5244
  927MOL0     H25106   9.306   2.669   3.147  1.1020 -0.2846 -1.0507
  927MOL0     H25107   9.268   2.624   3.300  0.1537  0.4644  0.6198
  927MOL0     H25108   9.387   2.750   3.279 -2.5149 -0.3317  2.4066
  927MOL0     H25109   9.307   2.583   2.784 -2.7509 -0.4466 -2.6064
  927MOL0     H25110   9.239   2.548   2.563 -0.7527  0.3472 -0.5793
  927MOL0     H25111   9.316   2.481   2.182 -3.3129 -0.3239  0.9199
  927MOL0     H25112   9.225   2.528   2.315 -1.2637  0.0998 -1.4570
  927MOL0     H25113   9.450   2.671   2.384 -2.6663  0.3072  0.0365
  927MOL0     H25114   9.491   2.643   2.224  2.0440 -0.8358  1.4572
  927MOL0     H25115   9.231   2.748   2.346  0.1002 -2.7929 -0.0374
  927MOL0     H25116   9.269   2.750   2.167 -0.8951 -0.9760  0.0382
  927MOL0     H25117   9.406   2.915   2.387 -1.6649  0.6631  0.4840
  927MOL0     H25118   9.468   2.897   2.221  0.6944 -0.1952 -0.5391
  927MOL0     H25119   9.233   2.978   2.163  2.6472 -2.6120 -1.3251
  927MOL0     H25120   9.360   3.092   2.220  2.8313 -3.4265 -2.0201
  927MOL0     H25121   9.121   2.980   2.380  1.7069 -0.8747  1.0108
  927MOL0     H25122   9.266   3.058   2.456 -2.9622  0.4646  2.1066
  927MOL0     H25123   9.059   3.202   2.270 -1.7708  1.7477  0.8732
  927MOL0     H25124   9.217   3.263   2.323  2.0582 -2.6641 -1.6817
  927MOL0     H25125   9.033   3.348   2.461 -0.1118 -0.0651 -0.7257
  927MOL0     H25126   9.138   3.235   2.562 -0.6149  2.1539  1.9173
  927MOL0     H25127   9.591   2.305   2.474 -2.2553 -0.9796 -0.0541
  927MOL0     H25128   9.657   2.323   2.714 -0.7976 -0.3124  0.2795
  927MOL0     H25129   9.655   2.317   3.091 -1.8447 -0.3525 -1.3864
  927MOL0     H25130   9.746   2.304   3.314  0.4210 -1.7057 -3.0121
  927MOL0     H25131  11.124   2.429   4.489  0.4228  0.0649  0.5190
  927MOL0     H25132  11.372   2.427   4.516 -0.9066 -1.7009  1.8712
  927MOL0     H25133  11.698   2.705   4.889  0.4866 -0.3978 -1.5638
  927MOL0     H25134  11.923   2.691   4.934 -2.9342  0.3320  0.2855
  927MOL0     H25135  12.197   2.726   4.911  0.8023  0.1355  1.0773
  927MOL0     H25136  12.098   2.589   4.972  1.8491  1.0911  2.0878
  927MOL0     H25137  12.370   2.557   4.851  0.7423 -0.9144 -1.0061
  927MOL0     H25138  12.246   2.426   4.869  0.6663  0.1605 -1.6371
  927MOL0     H25139  12.234   2.443   5.111 -0.5440 -2.3676 -1.7714
  927MOL0     H25140  12.344   2.582   5.106  0.1334 -0.2619  1.2025
  927MOL0     H25141  12.505   2.413   4.976  1.0797  1.6855  1.5141
  927MOL0     H25142  12.379   2.297   5.033 -2.5276  2.3171  1.0071
  927MOL0     H25143  12.676   2.393   5.324  0.8835 -1.8745 -2.0094
  927MOL0     H25144  12.009   2.580   4.542  2.2355 -1.2552  3.5136
  927MOL0     H25145  11.783   2.560   4.485  1.8271 -0.9426 -0.1082
  928MOL0     O25146   5.197   3.073   0.189  0.0315 -0.5705 -0.9599
  928MOL0     C25147   5.256   2.970   0.198  0.4723 -1.2785 -0.1906
  928MOL0     O25148   5.345   2.930   0.289 -0.5739 -0.2860  0.5034
  928MOL0     C25149   5.363   3.015   0.395 -0.2508 -0.0403 -0.6270
  928MOL0     C25150   5.264   3.018   0.505  0.7093  0.0645  0.1689
  928MOL0     C25151   5.278   3.102   0.617  0.1366  0.0917 -0.6194
  928MOL0     C25152   5.398   3.178   0.621 -0.4521 -0.8558  0.6843
  928MOL0     O25153   5.404   3.262   0.724  1.2090 -0.4294  0.3848
  928MOL0     C25154   5.322   3.386   0.684  0.6884  1.1229 -0.8123
  928MOL0     C25155   5.342   3.500   0.779 -0.3269 -1.2415  0.5988
  928MOL0     C25156   5.477   3.571   0.756  0.9222  0.8615  0.5861
  928MOL0     C25157   5.494   3.692   0.842  0.0935  0.1092 -0.7389
  928MOL0     C25158   5.606   3.782   0.793 -0.2713  0.2547  0.2813
  928MOL0     C25159   5.614   3.926   0.865 -0.6057  0.5167 -0.2615
  928MOL0     C25160   5.710   3.903   0.985 -0.3670 -0.8935  0.2694
  928MOL0     C25161   5.721   4.040   1.064  0.5585 -0.1353  0.1268
  928MOL0     N25162   5.814   4.021   1.178 -0.5647 -0.4054  0.2636
  928MOL0     C25163   5.793   3.998   1.316 -0.0357 -0.1907  0.7313
  928MOL0     C25164   5.918   3.979   1.366 -0.4442 -0.4314  0.0660
  928MOL0     C25165   5.960   3.936   1.505  0.2762  0.0799 -0.1955
  928MOL0     C25166   5.898   4.029   1.612  0.1006  1.2474  0.8440
  928MOL0     C25167   5.765   3.970   1.666 -0.0685 -0.6489  0.5429
  928MOL0     C25168   5.687   4.045   1.775  0.1125  0.9929  0.3927
  928MOL0     O25169   5.670   4.173   1.730 -0.3830  0.4705 -0.5718
  928MOL0     C25170   5.545   4.222   1.741  0.0925 -0.5070 -0.3598
  928MOL0     C25171   5.481   4.211   1.865 -0.1931  0.1797  0.4822
  928MOL0     C25172   5.358   4.264   1.897  0.7076 -0.2592  0.2176
  928MOL0     C25173   5.307   4.263   2.039  0.3660 -0.1105 -0.0767
  928MOL0     C25174   5.282   4.328   1.788 -0.1126 -0.6412 -0.0795
  928MOL0     C25175   5.150   4.372   1.806  0.1662  0.1709  0.0256
  928MOL0     O25176   5.075   4.278   1.885  0.4044 -0.0020 -1.1708
  928MOL0     C25177   4.960   4.324   1.943 -0.4292  0.6198 -0.4632
  928MOL0     C25178   4.848   4.261   1.904 -0.3585 -0.6909 -0.3963
  928MOL0     C25179   4.723   4.299   1.955  0.1708  0.0454 -0.3036
  928MOL0     C25180   4.721   4.400   2.049  0.3416  1.1204 -0.4152
  928MOL0     O25181   4.598   4.437   2.069 -0.1641  0.1330 -0.5736
  928MOL0     C25182   4.565   4.493   2.200  0.5880  0.1706  0.2889
  928MOL0     C25183   4.419   4.458   2.227 -0.3753 -0.1148 -0.2448
  928MOL0     C25184   4.379   4.489   2.371 -0.7068  0.7994  0.0178
  928MOL0     C25185   4.239   4.550   2.366  0.2314 -0.0190  0.2789
  928MOL0     C25186   4.119   4.478   2.301  0.5883 -0.1626  0.4729
  928MOL0     C25187   4.014   4.584   2.262 -0.5896  0.5585 -0.1720
  928MOL0     C25188   4.051   4.677   2.144 -0.1452 -0.0471  0.5907
  928MOL0     C25189   3.988   4.819   2.157 -0.0428  0.0680 -0.0934
  928MOL0    Cl25190   4.064   4.907   2.308 -0.3582 -0.2272  0.2332
  928MOL0     C25191   4.837   4.468   2.085 -0.4117 -0.2502 -0.0135
  928MOL0     C25192   4.958   4.429   2.038  0.0739 -0.1883  0.4385
  928MOL0     O25193   5.114   4.486   1.772  0.0502 -0.3481 -0.6386
  928MOL0     C25194   5.349   4.350   1.663  1.2904 -0.0872 -0.8965
  928MOL0     C25195   5.482   4.295   1.644 -0.4608 -0.2527  0.1216
  928MOL0     N25196   6.012   4.000   1.264  0.3660  0.2499 -0.2530
  928MOL0     N25197   5.950   4.012   1.154  0.2923  0.5300  0.7287
  928MOL0     C25198   5.495   3.178   0.518 -0.4238 -1.0911 -0.1889
  928MOL0     C25199   5.478   3.095   0.410  0.8845 -0.1338 -0.4987
  928MOL0     C25200   5.226   2.866   0.093  1.0236 -0.7099  0.3139
  928MOL0     C25201   5.159   2.909  -0.024  0.0828  0.6828 -0.2117
  928MOL0     C25202   5.165   2.829  -0.138 -0.2672 -0.3385  0.0826
  928MOL0     C25203   5.238   2.712  -0.140  0.2540  0.7592 -0.2284
  928MOL0     O25204   5.251   2.621  -0.250 -0.0552  0.3632 -0.3692
  928MOL0     C25205   5.129   2.599  -0.325 -0.2423  0.4364  0.2072
  928MOL0     C25206   5.072   2.447  -0.318 -0.2047 -1.0521 -0.5955
  928MOL0     C25207   5.074   2.382  -0.177 -0.1293 -1.0658 -0.1460
  928MOL0     C25208   5.199   2.284  -0.173  0.6471 -0.5836  0.1690
  928MOL0     C25209   5.179   2.159  -0.241 -0.5654  1.2117  0.1995
  928MOL0     C25210   5.160   2.045  -0.286  0.6507 -0.6726 -0.1753
  928MOL0     C25211   5.315   2.668  -0.031  0.7428  0.2660  0.6703
  928MOL0     C25212   5.303   2.748   0.088 -0.4242  0.5130 -0.0686
  928MOL0     H25213   5.171   2.964   0.516  0.2120  1.1370  1.6022
  928MOL0     H25214   5.211   3.072   0.697  2.4616 -5.7648 -0.3658
  928MOL0     H25215   5.359   3.417   0.586 -1.5807 -0.7898 -2.3978
  928MOL0     H25216   5.215   3.377   0.667  0.7681  2.3328 -2.1975
  928MOL0     H25217   5.263   3.576   0.786 -0.2945 -1.0605 -0.7093
  928MOL0     H25218   5.347   3.455   0.879 -2.0455  1.1208  1.8607
  928MOL0     H25219   5.565   3.510   0.776  1.4883  1.2988 -0.5046
  928MOL0     H25220   5.486   3.603   0.652  0.7999  3.3584  1.2855
  928MOL0     H25221   5.399   3.746   0.846  0.6111  0.9836  1.3745
  928MOL0     H25222   5.511   3.649   0.941 -0.5141  0.0564 -0.6550
  928MOL0     H25223   5.702   3.729   0.794  0.5389  1.6229  2.3070
  928MOL0     H25224   5.593   3.803   0.686  0.5164 -0.2628  0.0746
  928MOL0     H25225   5.647   4.010   0.803  1.3431 -0.3672 -0.4987
  928MOL0     H25226   5.523   3.952   0.919 -2.6438  2.5755 -4.2161
  928MOL0     H25227   5.680   3.829   1.060 -0.0923  0.2627  1.5634
  928MOL0     H25228   5.810   3.872   0.952  0.8244  1.1758  1.6843
  928MOL0     H25229   5.625   4.073   1.102 -0.7431 -2.3514 -1.0096
  928MOL0     H25230   5.767   4.120   1.004  3.8284 -0.2567  2.2168
  928MOL0     H25231   5.701   3.975   1.368 -1.0783  2.8595  0.4622
  928MOL0     H25232   5.946   3.829   1.516  1.8818 -0.4818 -2.6374
  928MOL0     H25233   6.067   3.959   1.508  0.7479 -1.6249 -2.2288
  928MOL0     H25234   5.876   4.129   1.573 -2.9033  0.6586  0.8479
  928MOL0     H25235   5.971   4.046   1.692  1.7880 -0.1320 -0.3181
  928MOL0     H25236   5.792   3.874   1.713  1.2919 -2.2059 -3.0534
  928MOL0     H25237   5.695   3.945   1.586  2.2198  0.7943 -2.0767
  928MOL0     H25238   5.734   4.045   1.874  1.0744  0.2120 -0.0465
  928MOL0     H25239   5.593   3.992   1.797 -0.3323  2.0643  1.1539
  928MOL0     H25240   5.538   4.164   1.944  0.0438  0.4599  0.4785
  928MOL0     H25241   5.392   4.226   2.096 -1.1508 -3.5440  0.1946
  928MOL0     H25242   5.274   4.360   2.078 -0.8328 -1.6458  3.0392
  928MOL0     H25243   5.228   4.191   2.062 -1.1934  1.8212  0.9494
  928MOL0     H25244   4.858   4.185   1.827 -0.2090  1.9741 -3.2462
  928MOL0     H25245   4.628   4.253   1.933 -0.2123 -0.4295  2.0935
  928MOL0     H25246   4.620   4.451   2.284  2.9649  4.0923  0.9527
  928MOL0     H25247   4.588   4.600   2.204 -1.1541  0.5456  1.3510
  928MOL0     H25248   4.359   4.503   2.148 -4.0385 -0.6336  2.0137
  928MOL0     H25249   4.410   4.351   2.207 -0.9937  0.2290 -1.9665
  928MOL0     H25250   4.453   4.556   2.416  1.9015 -1.1179 -1.1150
  928MOL0     H25251   4.378   4.392   2.421  1.2185  1.3187  1.1873
  928MOL0     H25252   4.212   4.567   2.471 -3.2507 -0.8199 -0.3829
  928MOL0     H25253   4.244   4.645   2.313  0.8445 -0.2858 -0.1626
  928MOL0     H25254   4.070   4.406   2.368  0.5126  1.6293  2.4402
  928MOL0     H25255   4.140   4.435   2.203  2.5308  1.3656  0.1551
  928MOL0     H25256   3.925   4.523   2.242  0.1460 -0.0924 -1.6061
  928MOL0     H25257   4.005   4.651   2.347 -0.8880  1.5163 -0.9405
  928MOL0     H25258   4.007   4.636   2.053 -1.7482  1.2241  0.7356
  928MOL0     H25259   4.160   4.688   2.144 -0.0318 -1.0281 -0.7448
  928MOL0     H25260   3.880   4.814   2.171  0.2331 -0.3627  2.3544
  928MOL0     H25261   4.004   4.872   2.062  1.9253 -1.1843 -0.5231
  928MOL0     H25262   4.859   4.548   2.155  4.0151 -0.2476 -1.0879
  928MOL0     H25263   5.046   4.486   2.066  1.9285 -2.5164 -0.2889
  928MOL0     H25264   5.302   4.413   1.588 -0.7832 -0.2890  0.1526
  928MOL0     H25265   5.547   4.321   1.561 -0.6326  5.3492  1.3346
  928MOL0     H25266   5.583   3.239   0.537  0.7432 -3.2205  1.7298
  928MOL0     H25267   5.547   3.091   0.326  3.0307 -0.7510  1.2066
  928MOL0     H25268   5.086   2.989  -0.022 -3.6654 -2.4519  0.6420
  928MOL0     H25269   5.108   2.865  -0.224 -1.5236 -0.5715  0.7978
  928MOL0     H25270   5.051   2.673  -0.306  0.3977  1.1531  0.1045
  928MOL0     H25271   5.153   2.619  -0.430 -0.7250 -1.5608 -0.3240
  928MOL0     H25272   5.122   2.384  -0.392  1.6867 -1.3550  0.8626
  928MOL0     H25273   4.965   2.453  -0.339 -0.2998 -0.6005 -0.0125
  928MOL0     H25274   4.983   2.323  -0.160  0.8861 -2.7827 -0.3566
  928MOL0     H25275   5.098   2.459  -0.103  1.0569 -1.1876 -0.3800
  928MOL0     H25276   5.225   2.253  -0.072  3.7663  0.4357 -0.2108
  928MOL0     H25277   5.290   2.331  -0.212  2.3325 -1.5180  2.7137
  928MOL0     H25278   5.127   1.946  -0.309  1.1589 -0.7236 -0.7310
  928MOL0     H25279   5.377   2.579  -0.036  1.6219  0.8316  1.2294
  928MOL0     H25280   5.358   2.721   0.178 -0.0894  1.7083  0.1070
  929MOL0     O25281   5.932   0.349   0.485 -0.0242  0.9533  0.3051
  929MOL0     C25282   6.018   0.434   0.510 -0.3610 -0.4796 -1.0092
  929MOL0     O25283   6.107   0.428   0.613  0.2697 -1.1263  0.4582
  929MOL0     C25284   6.103   0.329   0.706  0.5063  0.9405  0.8076
  929MOL0     C25285   6.221   0.247   0.734 -0.2746 -0.2635  0.0945
  929MOL0     C25286   6.216   0.135   0.819  0.1799 -0.1655  0.7430
  929MOL0     C25287   6.095   0.098   0.884  0.0698  0.1728 -0.5356
  929MOL0     O25288   6.096  -0.011   0.972 -0.5242  0.0678  0.5965
  929MOL0     C25289   5.980  -0.039   1.043  0.1472  0.0023  0.6053
  929MOL0     C25290   6.002  -0.162   1.138 -0.3496  0.1463  0.4426
  929MOL0     C25291   6.019  -0.291   1.062 -0.5104  0.3356 -0.4640
  929MOL0     C25292   6.016  -0.396   1.162 -0.1577 -0.0105  0.3485
  929MOL0     C25293   6.002  -0.532   1.090 -0.1726  0.4883 -0.0360
  929MOL0     C25294   6.029  -0.646   1.186 -1.1589 -0.2995 -0.4146
  929MOL0     C25295   6.042  -0.783   1.129  1.0876  0.3287 -0.1560
  929MOL0     C25296   6.151  -0.806   1.023  0.2383  0.0147  0.2434
  929MOL0     N25297   6.165  -0.945   0.987  0.6571 -0.0072  0.5788
  929MOL0     C25298   6.277  -1.012   0.967 -0.1813 -0.7854 -0.1826
  929MOL0     C25299   6.256  -1.133   0.938 -0.4214  1.8080  0.9905
  929MOL0     C25300   6.367  -1.238   0.919 -0.5127  0.3187  0.5122
  929MOL0     C25301   6.322  -1.380   0.957 -0.0146  0.2621 -0.4002
  929MOL0     C25302   6.219  -1.463   0.878 -0.7742 -0.0285 -0.0297
  929MOL0     C25303   6.233  -1.471   0.733 -1.4360 -0.2303  0.8017
  929MOL0     O25304   6.358  -1.529   0.695 -0.1912 -0.5127  0.3336
  929MOL0     C25305   6.378  -1.580   0.575  0.1838 -0.2036 -0.1761
  929MOL0     C25306   6.297  -1.560   0.455  1.1548 -0.5450  0.5226
  929MOL0     C25307   6.343  -1.595   0.327 -0.4887  0.5546 -0.7241
  929MOL0     C25308   6.254  -1.562   0.209 -0.6967 -0.7407 -0.5818
  929MOL0     C25309   6.470  -1.660   0.324  0.5742  0.0035 -0.5515
  929MOL0     C25310   6.533  -1.692   0.192 -0.7628  0.8245 -0.7776
  929MOL0     O25311   6.638  -1.783   0.206  0.5112 -0.5582  0.1785
  929MOL0     C25312   6.754  -1.767   0.137 -0.0021  0.2217 -0.1629
  929MOL0     C25313   6.788  -1.660   0.049 -0.2806  0.1057 -0.8511
  929MOL0     C25314   6.909  -1.659  -0.012 -0.8039  0.2297  0.9182
  929MOL0     C25315   6.997  -1.760   0.003 -0.0088  0.2731  0.1939
  929MOL0     O25316   7.107  -1.753  -0.076 -0.6516 -0.6150  0.3672
  929MOL0     C25317   7.225  -1.822  -0.056 -0.2839 -0.3356  0.4364
  929MOL0     C25318   7.300  -1.803  -0.190 -0.6318  0.2958 -0.0983
  929MOL0     C25319   7.219  -1.850  -0.312 -0.3559 -0.3808 -0.5969
  929MOL0     C25320   7.268  -1.793  -0.452  1.7557 -0.1725 -1.1611
  929MOL0     C25321   7.415  -1.826  -0.466 -1.5862  0.5732 -0.1093
  929MOL0     C25322   7.464  -1.808  -0.616  0.7234  0.6569 -0.8643
  929MOL0     C25323   7.448  -1.673  -0.678 -0.2874  0.1842 -0.3926
  929MOL0     C25324   7.509  -1.681  -0.825  0.1309  0.0121 -0.4610
  929MOL0    Cl25325   7.458  -1.516  -0.898  0.0667 -0.4031  0.0895
  929MOL0     C25326   6.963  -1.863   0.088 -0.4025 -0.6384 -0.7752
  929MOL0     C25327   6.842  -1.877   0.153 -0.2795 -0.7227 -0.7367
  929MOL0     O25328   6.503  -1.645   0.082 -0.2828  0.3507 -0.8181
  929MOL0     C25329   6.560  -1.660   0.445  0.6532 -0.3741 -0.2759
  929MOL0     C25330   6.514  -1.614   0.568 -0.8364  0.6434 -0.1494
  929MOL0     N25331   6.119  -1.149   0.927  0.2224  0.2309  0.7052
  929MOL0     N25332   6.066  -1.037   0.971  0.2492 -0.8277  0.2207
  929MOL0     C25333   5.986   0.184   0.861 -0.0464  0.1168 -0.0278
  929MOL0     C25334   5.982   0.285   0.763  0.2404 -0.4800 -0.1811
  929MOL0     C25335   6.013   0.563   0.436  0.7914 -0.0785  0.0163
  929MOL0     C25336   5.897   0.602   0.362  0.2206 -0.4644  0.4118
  929MOL0     C25337   5.890   0.716   0.282 -0.4044 -0.4898  1.2187
  929MOL0     C25338   5.984   0.819   0.301  0.4710 -0.5270  0.7646
  929MOL0     O25339   5.992   0.932   0.220  0.8124  0.7340  0.3236
  929MOL0     C25340   5.864   0.992   0.182  0.3697 -0.3618 -0.3921
  929MOL0     C25341   5.828   0.960   0.036  0.2490 -0.4365  1.0904
  929MOL0     C25342   5.914   1.048  -0.054  0.5286 -0.3856 -0.1132
  929MOL0     C25343   5.896   1.014  -0.200  0.1622  0.0429  0.3829
  929MOL0     C25344   5.760   1.012  -0.236  0.8262 -0.4289  0.6452
  929MOL0     C25345   5.638   1.013  -0.278  0.2950 -0.1506 -0.6162
  929MOL0     C25346   6.088   0.797   0.386 -0.1203  0.4060 -0.0299
  929MOL0     C25347   6.106   0.667   0.446  0.4637  0.5234 -0.5151
  929MOL0     H25348   6.314   0.277   0.688  0.9968 -4.1158 -0.1535
  929MOL0     H25349   6.306   0.075   0.823  0.4460  0.0584 -1.2434
  929MOL0     H25350   5.956   0.053   1.096 -1.2828  1.8821 -3.0214
  929MOL0     H25351   5.905  -0.062   0.967  1.5317 -0.1852 -0.7612
  929MOL0     H25352   6.086  -0.134   1.202 -0.2979  0.3626  0.2826
  929MOL0     H25353   5.918  -0.160   1.208 -0.5871  4.0219  0.3021
  929MOL0     H25354   5.938  -0.306   0.989  0.3639  0.2560 -1.4400
  929MOL0     H25355   6.105  -0.276   0.996 -2.1018  0.4425 -2.6595
  929MOL0     H25356   6.113  -0.397   1.214  0.5293  2.1842 -0.7280
  929MOL0     H25357   5.929  -0.384   1.226  0.4710 -1.1696  1.4722
  929MOL0     H25358   5.903  -0.552   1.048  0.3923 -3.4096  0.1120
  929MOL0     H25359   6.079  -0.548   1.015 -0.8436 -0.5312 -0.5262
  929MOL0     H25360   6.123  -0.622   1.237 -0.7248  1.0043 -1.7554
  929MOL0     H25361   5.952  -0.636   1.263 -0.4133  2.0401  0.1267
  929MOL0     H25362   6.072  -0.849   1.211  0.2287  0.0833 -0.0205
  929MOL0     H25363   5.945  -0.822   1.096  1.1790 -0.4850  0.4927
  929MOL0     H25364   6.252  -0.772   1.045  0.5535  1.3414 -2.7176
  929MOL0     H25365   6.134  -0.748   0.932 -1.0163  1.2075  1.2094
  929MOL0     H25366   6.378  -0.975   0.980 -0.5249 -0.0972  0.5782
  929MOL0     H25367   6.389  -1.232   0.812 -0.6975  1.2355  0.5152
  929MOL0     H25368   6.459  -1.199   0.963  0.5029 -0.4607 -0.8568
  929MOL0     H25369   6.288  -1.366   1.061  4.0008  4.4803  0.6945
  929MOL0     H25370   6.409  -1.445   0.961  0.8972  1.3853  3.9962
  929MOL0     H25371   6.122  -1.422   0.907  1.7799  4.8334  3.0559
  929MOL0     H25372   6.234  -1.561   0.924  3.7125 -0.9045 -2.6855
  929MOL0     H25373   6.231  -1.370   0.691 -2.8101 -0.9040 -0.8733
  929MOL0     H25374   6.148  -1.532   0.699  1.8000 -3.4231 -2.5205
  929MOL0     H25375   6.200  -1.513   0.468  1.5830  0.1992  1.1282
  929MOL0     H25376   6.203  -1.649   0.166 -1.1426 -0.6311 -0.2787
  929MOL0     H25377   6.172  -1.501   0.249 -0.6861  0.1381 -1.8279
  929MOL0     H25378   6.310  -1.496   0.142 -2.3389  1.3106 -0.0287
  929MOL0     H25379   6.730  -1.569   0.046 -1.2087 -0.4555 -0.1713
  929MOL0     H25380   6.938  -1.582  -0.084 -0.5504 -0.8283 -0.1337
  929MOL0     H25381   7.293  -1.790   0.024  1.3733 -4.6010  0.9579
  929MOL0     H25382   7.200  -1.928  -0.048  0.4543 -0.6137 -0.7451
  929MOL0     H25383   7.327  -1.697  -0.203  2.0216 -0.3717 -0.7111
  929MOL0     H25384   7.397  -1.853  -0.183 -0.4847  0.4931 -0.6891
  929MOL0     H25385   7.112  -1.833  -0.304 -0.6338 -2.5305  4.6390
  929MOL0     H25386   7.239  -1.958  -0.316 -1.1435 -0.5054 -1.4182
  929MOL0     H25387   7.229  -1.853  -0.534  3.0346 -0.7272 -1.3886
  929MOL0     H25388   7.238  -1.688  -0.454 -3.0876 -1.3233 -0.4771
  929MOL0     H25389   7.442  -1.929  -0.439 -2.5022  0.3814  0.1021
  929MOL0     H25390   7.481  -1.772  -0.397  1.5635  0.1483 -2.5376
  929MOL0     H25391   7.569  -1.840  -0.616  0.5498  0.0479  0.2958
  929MOL0     H25392   7.404  -1.872  -0.681  0.5058  0.5838 -0.5907
  929MOL0     H25393   7.504  -1.596  -0.625 -0.2173  0.5430 -0.9857
  929MOL0     H25394   7.342  -1.646  -0.683 -0.2895  0.0560 -1.1197
  929MOL0     H25395   7.455  -1.763  -0.874 -2.5955  0.2831  1.8567
  929MOL0     H25396   7.616  -1.703  -0.820  0.0023 -0.4206  0.9951
  929MOL0     H25397   7.034  -1.944   0.102  1.5583  1.1873  0.6231
  929MOL0     H25398   6.817  -1.961   0.217 -0.2472  0.9433  1.5939
  929MOL0     H25399   6.658  -1.704   0.435 -0.4714 -2.4885 -5.1254
  929MOL0     H25400   6.589  -1.614   0.647  1.3964  0.6950 -2.1663
  929MOL0     H25401   5.896   0.167   0.919  0.8643 -1.0868  1.1052
  929MOL0     H25402   5.895   0.347   0.753  0.7767  1.0133  2.9962
  929MOL0     H25403   5.812   0.535   0.349 -0.5637  0.9822 -3.3293
  929MOL0     H25404   5.801   0.731   0.221 -2.2439 -1.4318  3.5189
  929MOL0     H25405   5.780   0.984   0.252  1.2249  2.6463  1.1480
  929MOL0     H25406   5.890   1.098   0.194  2.5040 -0.8543 -0.3776
  929MOL0     H25407   5.724   0.985   0.013 -0.3256 -3.7289 -0.4181
  929MOL0     H25408   5.842   0.854   0.014  2.8049  0.3909 -2.0759
  929MOL0     H25409   6.016   1.024  -0.021  0.6893 -0.6548 -0.7867
  929MOL0     H25410   5.912   1.156  -0.033  4.2787 -0.5423  2.0449
  929MOL0     H25411   5.945   0.918  -0.220  2.1035  0.7827  1.2906
  929MOL0     H25412   5.953   1.079  -0.267  1.8179  0.4711  2.1185
  929MOL0     H25413   5.536   1.008  -0.309  0.6590 -3.2188 -1.7060
  929MOL0     H25414   6.162   0.876   0.391  0.6291 -0.2193 -0.7922
  929MOL0     H25415   6.193   0.649   0.508 -0.6577 -2.6002  0.3509
  930MOL0     O25416   1.777  11.213   5.387  0.8773 -0.3065  0.1688
  930MOL0     C25417   1.713  11.310   5.375 -0.0228  0.6249  0.3355
  930MOL0     O25418   1.675  11.391   5.474  0.4365 -0.0849  0.0194
  930MOL0     C25419   1.721  11.390   5.605  0.5945 -0.2650 -0.1448
  930MOL0     C25420   1.856  11.386   5.635  0.6047  0.2356 -1.1277
  930MOL0     C25421   1.905  11.371   5.764  1.0672 -0.3770 -0.8347
  930MOL0     C25422   1.816  11.364   5.869 -0.5176  1.1140 -0.3771
  930MOL0     O25423   1.870  11.347   5.995  0.1030 -0.5100  0.0878
  930MOL0     C25424   1.963  11.244   6.029 -0.6777  0.0305 -0.2721
  930MOL0     C25425   2.061  11.293   6.138 -0.7446 -0.5848 -0.0799
  930MOL0     C25426   2.008  11.401   6.238  0.8088 -0.3109  0.2446
  930MOL0     C25427   2.093  11.424   6.361 -0.3255  0.2467  0.5666
  930MOL0     C25428   2.108  11.302   6.442 -0.6706 -1.0513 -0.1522
  930MOL0     C25429   2.169  11.336   6.580 -0.0100 -0.4798  0.5171
  930MOL0     C25430   2.171  11.210   6.676 -0.0287 -0.1870  0.4485
  930MOL0     C25431   2.241  11.230   6.808 -0.3365 -1.2772 -0.5303
  930MOL0     N25432   2.383  11.240   6.804 -0.3612  0.9520 -0.3932
  930MOL0     C25433   2.459  11.349   6.850  1.2111 -0.2141 -1.0585
  930MOL0     C25434   2.585  11.322   6.817 -0.2211 -0.1399  0.2650
  930MOL0     C25435   2.702  11.402   6.860 -0.9148 -0.3238  0.2270
  930MOL0     C25436   2.719  11.534   6.777  0.3260 -0.4817  0.7547
  930MOL0     C25437   2.820  11.629   6.844  0.4381  0.0026  0.2689
  930MOL0     C25438   2.848  11.757   6.762 -0.0053  0.6439  0.1491
  930MOL0     O25439   2.746  11.849   6.783 -0.0386  0.6514 -0.3301
  930MOL0     C25440   2.783  11.977   6.757  0.7370 -0.0388 -0.8521
  930MOL0     C25441   2.836  12.027   6.626 -0.2882  0.5210 -0.0849
  930MOL0     C25442   2.861  12.160   6.612  0.6600  1.0044  0.2749
  930MOL0     C25443   2.930  12.206   6.491 -0.2008 -0.8888 -0.0317
  930MOL0     C25444   2.818  12.261   6.706  1.2229 -0.3085 -0.4982
  930MOL0     C25445   2.822  12.408   6.691  0.8967  0.0954  1.3797
  930MOL0     O25446   2.776  12.476   6.794 -0.2076 -0.0131 -0.0642
  930MOL0     C25447   2.787  12.621   6.783 -0.0280 -0.5129 -0.1977
  930MOL0     C25448   2.682  12.687   6.712  0.1239  0.1216  0.1531
  930MOL0     C25449   2.676  12.830   6.707  0.5200  0.3714  0.4895
  930MOL0     C25450   2.780  12.904   6.764 -0.4573  0.3203 -0.8845
  930MOL0     O25451   2.781  13.041   6.759  0.0271 -0.4132  0.3041
  930MOL0     C25452   2.854  13.087   6.647 -0.3382 -0.3101  0.7625
  930MOL0     C25453   2.762  13.185   6.570 -0.4270  0.3476 -0.5280
  930MOL0     C25454   2.783  13.322   6.628  1.5774  0.4572  0.4035
  930MOL0     C25455   2.674  13.417   6.572 -0.4536  0.0315  0.5345
  930MOL0     C25456   2.659  13.541   6.651 -1.5554  0.1580  0.2670
  930MOL0     C25457   2.765  13.655   6.643  0.1515  0.5580 -0.5266
  930MOL0     C25458   2.754  13.741   6.514  0.8482  0.6826  0.0281
  930MOL0     C25459   2.860  13.839   6.513 -0.0549  0.3513  0.6890
  930MOL0    Cl25460   2.836  13.971   6.390 -0.3152 -0.0717 -0.0527
  930MOL0     C25461   2.889  12.835   6.832 -0.0401  0.3097  0.1506
  930MOL0     C25462   2.892  12.700   6.842  0.1304 -0.8303  0.8715
  930MOL0     O25463   2.869  12.461   6.590  0.7776 -0.0974 -0.0166
  930MOL0     C25464   2.764  12.212   6.826 -0.5384 -0.4866  0.2651
  930MOL0     C25465   2.750  12.068   6.859  0.3657 -0.9415  0.6163
  930MOL0     N25466   2.586  11.195   6.760 -0.2780  0.1560 -0.5013
  930MOL0     N25467   2.463  11.150   6.745  0.3587 -0.4423  0.3033
  930MOL0     C25468   1.678  11.369   5.842 -0.3239  0.1683 -0.1563
  930MOL0     C25469   1.634  11.395   5.714 -0.2841  0.8532  0.5254
  930MOL0     C25470   1.642  11.326   5.247 -0.4673 -0.0939  0.6939
  930MOL0     C25471   1.516  11.398   5.239  0.8016  0.5888 -0.8805
  930MOL0     C25472   1.458  11.413   5.115  0.1685  0.4788 -0.0311
  930MOL0     C25473   1.517  11.359   5.000 -0.2979 -1.0748  0.1148
  930MOL0     O25474   1.452  11.381   4.879  0.2106  0.2138  0.4558
  930MOL0     C25475   1.514  11.314   4.764 -0.6083  0.0948 -0.3159
  930MOL0     C25476   1.444  11.320   4.634  0.5768 -0.2083  0.5705
  930MOL0     C25477   1.421  11.468   4.569  1.7890  0.8544 -0.1155
  930MOL0     C25478   1.347  11.464   4.441  0.0964 -0.2186  0.1340
  930MOL0     C25479   1.451  11.482   4.338  0.1370  0.4841 -0.5979
  930MOL0     C25480   1.537  11.493   4.253 -0.0952  0.2486 -0.0411
  930MOL0     C25481   1.649  11.299   5.013  0.5954 -0.1694 -0.4800
  930MOL0     C25482   1.710  11.284   5.130  0.1605 -0.1431 -0.0217
  930MOL0     H25483   1.924  11.386   5.551  0.9952 -1.8881 -0.8620
  930MOL0     H25484   2.011  11.392   5.771  0.4715  2.6439  2.0757
  930MOL0     H25485   1.912  11.154   6.066  3.2460 -2.6660 -0.7263
  930MOL0     H25486   2.026  11.207   5.948 -0.6614  0.2702 -0.3702
  930MOL0     H25487   2.089  11.206   6.200 -0.0968  0.9703  1.9414
  930MOL0     H25488   2.152  11.327   6.088 -0.1343 -3.3491 -1.0539
  930MOL0     H25489   2.001  11.494   6.181 -0.5039  0.5651  1.7731
  930MOL0     H25490   1.906  11.384   6.273  0.1804  3.4191  0.5567
  930MOL0     H25491   2.188  11.460   6.319 -1.1102  1.4194 -0.2874
  930MOL0     H25492   2.051  11.510   6.414 -1.1086  0.7318 -0.7753
  930MOL0     H25493   2.017  11.243   6.458  1.1289 -4.1275 -0.4078
  930MOL0     H25494   2.175  11.233   6.390  1.5105  1.6247 -1.0949
  930MOL0     H25495   2.276  11.355   6.563  0.0432 -0.4239  0.9024
  930MOL0     H25496   2.127  11.429   6.621  1.4750 -0.2502  1.6194
  930MOL0     H25497   2.066  11.183   6.693 -0.2327  0.3480  0.0563
  930MOL0     H25498   2.204  11.121   6.623 -3.9092 -1.6092  0.0599
  930MOL0     H25499   2.199  11.151   6.870 -2.5361 -0.4348 -0.8657
  930MOL0     H25500   2.200  11.322   6.851 -0.8583 -0.6875 -2.1943
  930MOL0     H25501   2.440  11.446   6.895  1.4981 -0.8047  0.4028
  930MOL0     H25502   2.687  11.430   6.964 -0.3572 -1.6574  0.6794
  930MOL0     H25503   2.789  11.337   6.849 -0.1098  0.9854 -2.0239
  930MOL0     H25504   2.627  11.594   6.771  0.0141 -0.7932  2.1213
  930MOL0     H25505   2.765  11.513   6.680 -0.8840 -1.1087  0.2889
  930MOL0     H25506   2.916  11.580   6.857  1.2680  1.1655 -1.2086
  930MOL0     H25507   2.802  11.658   6.948  3.1418  0.9549  0.5516
  930MOL0     H25508   2.840  11.742   6.654 -1.5523  1.1702  0.1578
  930MOL0     H25509   2.940  11.810   6.788  0.4311  1.2980 -2.4542
  930MOL0     H25510   2.880  11.954   6.559  0.4568  1.7284 -0.9739
  930MOL0     H25511   2.948  12.122   6.422  0.5179 -1.1758  0.5004
  930MOL0     H25512   2.888  12.292   6.438  2.0098 -0.7496 -1.6962
  930MOL0     H25513   3.030  12.240   6.515 -1.2770  2.4418  0.1797
  930MOL0     H25514   2.615  12.626   6.653  1.7255  1.4382 -3.3028
  930MOL0     H25515   2.602  12.881   6.646  0.4093 -1.1195 -0.6781
  930MOL0     H25516   2.939  13.148   6.680 -1.4986  1.8667 -0.0568
  930MOL0     H25517   2.891  13.007   6.583 -2.2323 -2.7958  2.5638
  930MOL0     H25518   2.796  13.178   6.467  0.2524 -1.3492 -0.2093
  930MOL0     H25519   2.658  13.151   6.577 -0.3311  0.4177  2.8379
  930MOL0     H25520   2.889  13.345   6.616  1.3005  1.0205 -1.1411
  930MOL0     H25521   2.745  13.314   6.731 -1.7963  3.0169 -0.4607
  930MOL0     H25522   2.705  13.438   6.470  0.1476 -2.5721  0.1051
  930MOL0     H25523   2.580  13.363   6.583 -0.3029 -0.5221 -0.7974
  930MOL0     H25524   2.655  13.507   6.755 -1.4674 -2.7270 -0.5948
  930MOL0     H25525   2.561  13.584   6.628 -1.9921 -0.2736  1.2530
  930MOL0     H25526   2.739  13.715   6.731  0.5833 -0.6030  0.4200
  930MOL0     H25527   2.865  13.611   6.654 -0.6037 -2.2067 -3.3812
  930MOL0     H25528   2.661  13.797   6.526  1.1089  0.7588  2.1778
  930MOL0     H25529   2.751  13.677   6.425  1.2573  0.9430 -0.1765
  930MOL0     H25530   2.948  13.783   6.481 -0.5620  0.8783 -1.8587
  930MOL0     H25531   2.880  13.882   6.612  0.7365  2.3373 -0.2750
  930MOL0     H25532   2.965  12.900   6.874 -0.1495  1.1411 -0.8904
  930MOL0     H25533   2.969  12.660   6.908  0.0776  2.3710  3.1298
  930MOL0     H25534   2.736  12.279   6.907 -5.3483  2.8353 -3.5235
  930MOL0     H25535   2.702  12.030   6.948 -2.9191  2.2474  0.4769
  930MOL0     H25536   1.605  11.384   5.921  0.3595  0.0924  0.5044
  930MOL0     H25537   1.529  11.411   5.694 -0.6299 -1.8801 -0.2835
  930MOL0     H25538   1.470  11.430   5.331 -2.3095 -2.3470 -1.2223
  930MOL0     H25539   1.359  11.457   5.110  0.2329  0.8349  1.3477
  930MOL0     H25540   1.619  11.341   4.753 -0.6668  0.5068  0.1205
  930MOL0     H25541   1.527  11.208   4.789 -1.4637 -0.0889 -0.6102
  930MOL0     H25542   1.349  11.267   4.650  0.0273 -0.6207 -3.0500
  930MOL0     H25543   1.499  11.259   4.562 -0.3415 -0.8876  0.4136
  930MOL0     H25544   1.519  11.517   4.571  0.9278  2.6716  0.2438
  930MOL0     H25545   1.350  11.528   4.628 -0.7284 -1.1223 -0.9794
  930MOL0     H25546   1.266  11.537   4.435 -0.2064 -0.5000  0.7206
  930MOL0     H25547   1.300  11.366   4.428  2.2881 -1.2695 -0.3961
  930MOL0     H25548   1.608  11.492   4.173  0.3328 -1.4400  0.3160
  930MOL0     H25549   1.702  11.260   4.927  1.3747 -2.9677  1.1223
  930MOL0     H25550   1.799  11.224   5.141 -1.5733 -2.7314  0.6940
  931MOL0     O25551   3.301   7.148  11.500  0.3842 -1.0684 -0.5096
  931MOL0     C25552   3.297   7.101  11.392 -0.3254 -0.6692  0.4419
  931MOL0     O25553   3.347   6.983  11.354  0.4902 -0.1480  0.1744
  931MOL0     C25554   3.431   6.912  11.431  0.3298  0.1223 -0.5875
  931MOL0     C25555   3.527   6.966  11.525  1.1543 -0.5606 -0.3412
  931MOL0     C25556   3.613   6.883  11.596  0.8001 -0.3909 -0.6858
  931MOL0     C25557   3.610   6.745  11.574 -0.0689 -1.1692 -0.3312
  931MOL0     O25558   3.695   6.655  11.624 -0.5739 -0.3004  0.5510
  931MOL0     C25559   3.825   6.692  11.657 -0.0468  0.2226  0.0034
  931MOL0     C25560   3.901   6.790  11.570 -0.9220 -0.4772 -0.3751
  931MOL0     C25561   4.053   6.804  11.573 -0.3866 -0.4554 -0.0075
  931MOL0     C25562   4.122   6.772  11.702  0.0265 -0.0866  0.1604
  931MOL0     C25563   4.275   6.766  11.687  0.2919 -0.1182  0.4335
  931MOL0     C25564   4.341   6.745  11.815 -0.2703  0.6670  0.4803
  931MOL0     C25565   4.488   6.718  11.785  0.2727 -0.0886  0.4964
  931MOL0     C25566   4.567   6.674  11.910 -0.2842 -0.1410  1.0327
  931MOL0     N25567   4.710   6.656  11.880  1.1321  0.3901 -0.0881
  931MOL0     C25568   4.798   6.743  11.924 -0.8770  0.6570  0.5985
  931MOL0     C25569   4.911   6.711  11.844  0.2367 -0.1174  0.1343
  931MOL0     C25570   5.036   6.787  11.864  0.0886 -0.0755  0.0130
  931MOL0     C25571   5.069   6.913  11.775 -0.1528 -0.3803 -0.3656
  931MOL0     C25572   5.083   6.898  11.624 -1.1378  0.4754 -0.1082
  931MOL0     C25573   5.184   6.996  11.566  0.1879  0.2174  0.2211
  931MOL0     O25574   5.322   6.963  11.591  0.7732  0.8115  0.1965
  931MOL0     C25575   5.397   6.904  11.493 -0.4124 -0.3844  0.7154
  931MOL0     C25576   5.349   6.802  11.412  1.3924 -0.2937  0.4211
  931MOL0     C25577   5.420   6.743  11.312  0.6123  0.2153  0.7919
  931MOL0     C25578   5.352   6.631  11.242  0.1015  0.4971  0.6776
  931MOL0     C25579   5.556   6.785  11.287 -0.4433  0.1016  0.3867
  931MOL0     C25580   5.649   6.735  11.181 -0.3736  0.3049  0.4131
  931MOL0     O25581   5.762   6.803  11.170 -0.3762 -0.3282 -0.7485
  931MOL0     C25582   5.856   6.767  11.081 -0.0417 -0.7872 -0.4765
  931MOL0     C25583   5.989   6.790  11.123 -0.4056  0.3303 -0.4058
  931MOL0     C25584   6.094   6.755  11.022 -0.2692  0.0193  0.7623
  931MOL0     C25585   6.065   6.709  10.891 -0.7311 -0.4004  0.5416
  931MOL0     O25586   6.153   6.679  10.785  0.0583  0.4950 -0.0211
  931MOL0     C25587   6.283   6.727  10.792  0.3643 -0.9960 -0.6512
  931MOL0     C25588   6.370   6.671  10.682 -0.3943 -0.6614 -0.7714
  931MOL0     C25589   6.523   6.656  10.724  0.0541  0.3010 -0.3036
  931MOL0     C25590   6.581   6.795  10.770  0.6221 -0.3224  0.1587
  931MOL0     C25591   6.731   6.794  10.752 -0.8586  0.0564  1.1666
  931MOL0     C25592   6.792   6.923  10.810 -0.3224 -0.8064  0.4353
  931MOL0     C25593   6.934   6.921  10.775 -0.7782 -0.1288 -0.0783
  931MOL0     C25594   7.007   7.053  10.843  0.5533  0.0041  0.6498
  931MOL0    Cl25595   7.165   7.087  10.775 -0.0831  0.0307 -0.6810
  931MOL0     C25596   5.935   6.676  10.862  0.2519 -0.5610 -0.9988
  931MOL0     C25597   5.834   6.715  10.953 -0.2529  0.1818  0.5322
  931MOL0     O25598   5.624   6.629  11.131  0.3581 -0.5822  0.0981
  931MOL0     C25599   5.610   6.882  11.377  0.7136 -0.4218  0.4565
  931MOL0     C25600   5.520   6.947  11.470  0.4823 -0.0384 -0.0373
  931MOL0     N25601   4.881   6.603  11.770  1.1143  0.1864 -0.5830
  931MOL0     N25602   4.762   6.573  11.788 -0.5691 -1.4941  0.6421
  931MOL0     C25603   3.518   6.691  11.479 -0.5689 -0.0194 -0.8361
  931MOL0     C25604   3.433   6.777  11.412  0.0376  0.1834 -0.2928
  931MOL0     C25605   3.201   7.169  11.304  0.5548 -0.5613 -0.9759
  931MOL0     C25606   3.084   7.233  11.351  0.4535  0.9766 -0.3642
  931MOL0     C25607   2.999   7.305  11.267 -1.0844 -1.0322  0.5836
  931MOL0     C25608   3.030   7.307  11.128 -0.0197  0.0351 -0.2480
  931MOL0     O25609   2.951   7.362  11.033 -0.1209 -0.3839  0.2403
  931MOL0     C25610   2.868   7.465  11.081 -0.0856 -0.9357 -0.5648
  931MOL0     C25611   2.775   7.513  10.978 -0.0686  0.5378 -0.7250
  931MOL0     C25612   2.678   7.622  11.020  0.7240  0.5623 -0.0241
  931MOL0     C25613   2.565   7.630  10.920 -0.1900 -0.5195  0.2327
  931MOL0     C25614   2.497   7.763  10.934 -0.0197  0.1300  0.5023
  931MOL0     C25615   2.434   7.863  10.952  0.7326  0.9706  0.4267
  931MOL0     C25616   3.137   7.228  11.082 -0.1273 -0.5436  0.6901
  931MOL0     C25617   3.226   7.168  11.170 -0.2765 -0.0005  0.8907
  931MOL0     H25618   3.534   7.073  11.546  0.2099 -0.5395 -0.0797
  931MOL0     H25619   3.683   6.932  11.663 -2.5113  3.9161  0.0898
  931MOL0     H25620   3.815   6.742  11.753 -4.8051 -1.6082  0.7653
  931MOL0     H25621   3.885   6.601  11.667 -2.8543 -1.9520 -1.3903
  931MOL0     H25622   3.854   6.774  11.473 -3.3987 -2.3698  1.0061
  931MOL0     H25623   3.876   6.894  11.594 -0.9779 -0.8859  1.5659
  931MOL0     H25624   4.077   6.736  11.490  1.4388  0.3264 -0.1736
  931MOL0     H25625   4.095   6.897  11.535 -3.0260  0.2518 -1.4244
  931MOL0     H25626   4.088   6.846  11.776 -0.1379 -1.4430  1.5027
  931MOL0     H25627   4.096   6.673  11.742  3.0526 -0.3332  1.7897
  931MOL0     H25628   4.284   6.679  11.621  1.1720  0.6978 -0.5628
  931MOL0     H25629   4.318   6.851  11.633 -0.5653 -0.6574 -1.1489
  931MOL0     H25630   4.325   6.827  11.885  0.4665  1.2603 -0.0324
  931MOL0     H25631   4.297   6.654  11.857  0.9818 -1.5404 -2.5722
  931MOL0     H25632   4.507   6.640  11.711  0.9733  0.1708  0.3924
  931MOL0     H25633   4.527   6.812  11.743 -0.1393  0.2885  0.9393
  931MOL0     H25634   4.531   6.576  11.945  2.9993 -1.9271 -0.1213
  931MOL0     H25635   4.563   6.760  11.977  1.2195  1.3545 -0.7051
  931MOL0     H25636   4.777   6.821  11.997  0.9631  0.2773  1.6029
  931MOL0     H25637   5.039   6.818  11.969  0.7277 -0.8625  0.2341
  931MOL0     H25638   5.114   6.711  11.858  0.0898 -0.1463  0.8207
  931MOL0     H25639   5.159   6.947  11.827 -1.8092 -0.9581  3.1234
  931MOL0     H25640   4.987   6.981  11.799 -0.4401 -1.2779  1.3225
  931MOL0     H25641   4.982   6.910  11.584 -1.3332 -0.4274  0.0878
  931MOL0     H25642   5.118   6.794  11.619 -2.3938 -0.1147  2.3509
  931MOL0     H25643   5.166   7.092  11.616  1.3648 -0.5150  2.1653
  931MOL0     H25644   5.166   7.006  11.458 -2.3490  0.0223  0.5508
  931MOL0     H25645   5.248   6.769  11.435 -0.2108  2.2962 -2.1844
  931MOL0     H25646   5.388   6.531  11.270 -2.5715 -1.3651 -1.9922
  931MOL0     H25647   5.245   6.636  11.262 -0.3586  2.8810 -1.8741
  931MOL0     H25648   5.349   6.647  11.134 -0.3245  0.0567  0.6216
  931MOL0     H25649   6.006   6.834  11.221  1.7723 -2.7210  0.7550
  931MOL0     H25650   6.200   6.755  11.045  0.4305 -5.5066 -1.1093
  931MOL0     H25651   6.282   6.835  10.781 -0.5811 -1.0763 -1.4410
  931MOL0     H25652   6.332   6.708  10.888  1.6128  0.0641 -1.0562
  931MOL0     H25653   6.334   6.573  10.649  1.8377 -1.7581 -0.1184
  931MOL0     H25654   6.367   6.742  10.598  3.0780 -1.0442 -1.3710
  931MOL0     H25655   6.577   6.604  10.644 -0.4934 -1.9830  0.7051
  931MOL0     H25656   6.532   6.583  10.806 -0.4911  0.4471 -0.1112
  931MOL0     H25657   6.542   6.877  10.709  0.2706 -1.9347 -1.8948
  931MOL0     H25658   6.559   6.809  10.876 -2.7752  1.8411 -0.6622
  931MOL0     H25659   6.735   6.798  10.643 -1.3099 -2.7933  0.9537
  931MOL0     H25660   6.775   6.706  10.801 -0.3057  1.5253  3.4888
  931MOL0     H25661   6.739   7.013  10.776  1.1091  0.5777  1.7387
  931MOL0     H25662   6.783   6.928  10.919 -0.2119  1.9785  0.3935
  931MOL0     H25663   6.956   6.928  10.668 -0.6558  2.4670  0.0610
  931MOL0     H25664   6.983   6.829  10.810 -0.5807 -0.1204 -0.3316
  931MOL0     H25665   7.018   7.038  10.951  1.8718  1.0210  0.6946
  931MOL0     H25666   6.938   7.137  10.838 -0.4191 -0.8292 -0.2042
  931MOL0     H25667   5.896   6.641  10.767 -1.4388  2.1198 -1.4109
  931MOL0     H25668   5.732   6.719  10.915 -0.2925 -2.2188  0.2591
  931MOL0     H25669   5.707   6.929  11.365  0.1495  0.6979  0.1735
  931MOL0     H25670   5.552   7.034  11.526  0.7469  1.1607 -1.9583
  931MOL0     H25671   3.533   6.587  11.454  1.0180  0.4426 -2.0420
  931MOL0     H25672   3.367   6.734  11.337  2.5446 -1.2392 -1.8114
  931MOL0     H25673   3.056   7.233  11.456 -1.3799  0.5654 -0.8210
  931MOL0     H25674   2.912   7.351  11.314  1.0784  1.7173  2.2096
  931MOL0     H25675   2.803   7.431  11.162  0.0323  1.2059  0.5033
  931MOL0     H25676   2.926   7.553  11.111 -0.6314 -0.9876  0.7078
  931MOL0     H25677   2.722   7.424  10.943 -1.1442  0.7244  0.3643
  931MOL0     H25678   2.836   7.558  10.899 -1.4149  4.2950  0.2184
  931MOL0     H25679   2.729   7.717  11.002 -1.3970  1.3978 -2.1304
  931MOL0     H25680   2.652   7.607  11.125  1.9279 -1.1632  0.0791
  931MOL0     H25681   2.492   7.556  10.955 -1.2959  0.8788  0.9475
  931MOL0     H25682   2.602   7.602  10.820  1.9997  2.1757  0.1810
  931MOL0     H25683   2.385   7.956  10.968  1.1838  0.8113  3.2716
  931MOL0     H25684   3.140   7.209  10.975 -0.3616  2.1878  0.1417
  931MOL0     H25685   3.305   7.101  11.137  0.8776  0.8939  1.7479
  932MOL0     O25686   0.417   9.739   8.559  0.3452 -0.4506  0.6758
  932MOL0     C25687   0.412   9.618   8.558 -0.2807  0.3008 -0.2744
  932MOL0     O25688   0.379   9.535   8.452  0.1232  0.3453  0.3052
  932MOL0     C25689   0.322   9.587   8.331  0.0747  0.4373 -0.2475
  932MOL0     C25690   0.341   9.519   8.212  0.0685  0.5251  0.1882
  932MOL0     C25691   0.316   9.569   8.082 -0.0164 -0.3683 -0.1025
  932MOL0     C25692   0.263   9.689   8.076 -0.1819  0.1544  0.5325
  932MOL0     O25693   0.250   9.739   7.945 -0.2071  0.3620  0.2255
  932MOL0     C25694   0.365   9.817   7.905 -0.1714 -0.6265  0.4911
  932MOL0     C25695   0.357   9.816   7.748 -0.5679 -0.5129  0.6240
  932MOL0     C25696   0.482   9.898   7.696 -0.2578 -0.2605 -1.4841
  932MOL0     C25697   0.537   9.856   7.561 -0.6607  0.4852 -0.2207
  932MOL0     C25698   0.430   9.866   7.449 -0.7819  0.1454  1.0401
  932MOL0     C25699   0.493   9.855   7.307 -0.1805 -0.0850  0.0628
  932MOL0     C25700   0.394   9.807   7.203 -0.2280  0.1658  0.4690
  932MOL0     C25701   0.358   9.650   7.209 -0.3346 -0.6850  0.2567
  932MOL0     N25702   0.289   9.581   7.092  0.3238  0.2622  0.5329
  932MOL0     C25703   0.360   9.520   6.988  0.6729 -0.1872  0.1890
  932MOL0     C25704   0.274   9.478   6.899  1.3021 -0.9610 -0.5304
  932MOL0     C25705   0.310   9.388   6.789  0.0543 -0.7662 -0.5531
  932MOL0     C25706   0.193   9.350   6.684  0.0724  0.1085 -0.3471
  932MOL0     C25707   0.254   9.286   6.553  0.4504  1.0294 -0.3606
  932MOL0     C25708   0.146   9.255   6.446 -0.7647 -0.2248 -0.6540
  932MOL0     O25709   0.069   9.156   6.509 -0.0577 -0.0786  0.0074
  932MOL0     C25710  -0.042   9.106   6.448  0.6176 -0.3998  0.5044
  932MOL0     C25711  -0.103   9.005   6.514 -0.9967  0.2257 -0.1809
  932MOL0     C25712  -0.223   8.956   6.475  0.5528  0.7307 -0.1820
  932MOL0     C25713  -0.293   8.855   6.564  0.8475 -0.1914 -0.7353
  932MOL0     C25714  -0.278   8.986   6.346  0.2782 -0.9309  0.2373
  932MOL0     C25715  -0.398   8.922   6.281  1.2595  0.6137  0.2689
  932MOL0     O25716  -0.398   8.915   6.144  0.0599 -0.2484 -0.4018
  932MOL0     C25717  -0.504   8.861   6.083  0.3343  0.6719 -0.5392
  932MOL0     C25718  -0.599   8.938   6.021  0.1814 -0.1893  0.0031
  932MOL0     C25719  -0.730   8.888   5.990  0.7047 -0.0632 -0.2070
  932MOL0     C25720  -0.744   8.742   5.984 -0.2414  0.4335  1.1575
  932MOL0     O25721  -0.854   8.699   5.916  1.0536  0.1093  0.3553
  932MOL0     C25722  -0.904   8.566   5.942 -0.0760  1.0279 -0.3303
  932MOL0     C25723  -1.047   8.553   5.890 -0.6424 -1.2023 -0.7412
  932MOL0     C25724  -1.143   8.524   6.011 -1.4249 -0.3490  0.1328
  932MOL0     C25725  -1.177   8.639   6.104  0.0777  0.0124  0.5087
  932MOL0     C25726  -1.235   8.600   6.240  0.1409  0.6319 -0.5962
  932MOL0     C25727  -1.374   8.533   6.231 -1.5875 -0.3196  0.1191
  932MOL0     C25728  -1.477   8.620   6.151 -0.2948  0.0601 -0.1773
  932MOL0     C25729  -1.617   8.564   6.190  0.5224 -1.7177  0.2120
  932MOL0    Cl25730  -1.731   8.637   6.081 -0.3711 -0.4687 -0.4558
  932MOL0     C25731  -0.635   8.657   6.018  0.0309  0.0533  0.4373
  932MOL0     C25732  -0.519   8.715   6.071 -0.0014 -0.0929  0.1546
  932MOL0     O25733  -0.490   8.878   6.354 -0.3127 -0.6092 -0.0800
  932MOL0     C25734  -0.204   9.070   6.263 -0.3923  0.4374 -0.0495
  932MOL0     C25735  -0.084   9.130   6.309 -0.2464 -0.4627 -0.0215
  932MOL0     N25736   0.144   9.493   6.950  0.2823  0.3246 -0.4146
  932MOL0     N25737   0.158   9.542   7.072  0.6029  0.3303  0.2140
  932MOL0     C25738   0.211   9.756   8.194 -0.4956 -0.4731  0.6941
  932MOL0     C25739   0.235   9.694   8.318 -0.4466 -1.3319 -0.3692
  932MOL0     C25740   0.446   9.563   8.694 -0.0526  0.2059  0.1626
  932MOL0     C25741   0.482   9.644   8.799  0.5706 -0.3260  0.4991
  932MOL0     C25742   0.520   9.598   8.924 -0.1970 -0.5345 -0.4210
  932MOL0     C25743   0.524   9.462   8.953  1.0662 -0.3451  1.0557
  932MOL0     O25744   0.547   9.406   9.075 -0.9542 -0.4326 -0.6714
  932MOL0     C25745   0.569   9.491   9.189  0.7089 -0.3088  0.9588
  932MOL0     C25746   0.596   9.408   9.315 -0.0941 -1.2250 -0.0323
  932MOL0     C25747   0.744   9.410   9.351  0.0224 -0.3241 -0.8448
  932MOL0     C25748   0.785   9.329   9.472 -0.7241 -0.1550  1.0096
  932MOL0     C25749   0.733   9.361   9.606 -0.0578 -0.5313  0.2340
  932MOL0     C25750   0.689   9.371   9.719 -0.5639 -1.1555  0.4258
  932MOL0     C25751   0.488   9.373   8.842  0.1801 -0.0776 -0.3329
  932MOL0     C25752   0.449   9.425   8.721  0.8808  0.5207  0.9004
  932MOL0     H25753   0.387   9.421   8.209 -0.4909  0.1872  1.6927
  932MOL0     H25754   0.352   9.513   7.996  2.1277  1.1406 -0.2653
  932MOL0     H25755   0.359   9.910   7.961  2.4481 -0.0228 -0.0971
  932MOL0     H25756   0.457   9.766   7.935  1.0192  2.0505  1.6402
  932MOL0     H25757   0.379   9.717   7.707  0.1527 -0.4819  0.9084
  932MOL0     H25758   0.261   9.854   7.713  0.1623  3.1973  2.1709
  932MOL0     H25759   0.464  10.006   7.700  3.3941  0.4416 -0.4170
  932MOL0     H25760   0.563   9.880   7.768 -0.6743 -1.5827 -1.3140
  932MOL0     H25761   0.630   9.902   7.527  0.1839 -1.3394 -0.4884
  932MOL0     H25762   0.564   9.750   7.563 -3.1328 -0.2313  2.5005
  932MOL0     H25763   0.366   9.779   7.462 -0.1412 -0.4187  0.5198
  932MOL0     H25764   0.387   9.965   7.464  2.1942  1.6886  0.2616
  932MOL0     H25765   0.540   9.949   7.274  0.3390 -0.5448 -0.5212
  932MOL0     H25766   0.581   9.791   7.316 -0.3767 -0.1964  1.3497
  932MOL0     H25767   0.307   9.872   7.208  0.6031  1.3348  0.1289
  932MOL0     H25768   0.431   9.821   7.101 -1.4788 -0.0367 -0.0279
  932MOL0     H25769   0.290   9.644   7.294  1.7333  4.9797  2.8178
  932MOL0     H25770   0.450   9.599   7.239  0.0510  1.5172  3.2565
  932MOL0     H25771   0.468   9.528   6.982  0.7655 -2.1657 -3.6826
  932MOL0     H25772   0.391   9.438   6.734 -0.1274 -1.5558 -1.5782
  932MOL0     H25773   0.352   9.300   6.840  1.7010  1.1016  1.4941
  932MOL0     H25774   0.137   9.441   6.662  0.4389 -0.2182 -3.0114
  932MOL0     H25775   0.113   9.287   6.724  1.5667 -0.2955  2.2162
  932MOL0     H25776   0.305   9.194   6.581  0.7308  1.8028  1.9070
  932MOL0     H25777   0.327   9.359   6.515  0.9975  1.8305  2.0539
  932MOL0     H25778   0.187   9.217   6.352 -2.3229 -1.6396 -0.8147
  932MOL0     H25779   0.078   9.340   6.442 -0.0333  0.3828 -0.5104
  932MOL0     H25780  -0.065   8.977   6.611 -0.4482  0.0689 -0.4388
  932MOL0     H25781  -0.331   8.766   6.514 -1.8410 -0.7287  2.0218
  932MOL0     H25782  -0.240   8.808   6.647  0.7263  0.7924 -0.0757
  932MOL0     H25783  -0.377   8.906   6.611 -0.4987 -2.2334 -0.8027
  932MOL0     H25784  -0.594   9.046   6.009 -2.1934 -0.2555 -2.4018
  932MOL0     H25785  -0.797   8.962   5.947  1.7591  1.5360  0.7976
  932MOL0     H25786  -0.843   8.494   5.886 -1.5615 -1.1912  0.7497
  932MOL0     H25787  -0.894   8.545   6.049 -1.4056  0.2426 -0.3376
  932MOL0     H25788  -1.075   8.648   5.842 -1.5832 -1.4480 -0.7132
  932MOL0     H25789  -1.042   8.481   5.808 -1.1244  0.2168 -2.0721
  932MOL0     H25790  -1.092   8.450   6.073 -0.5050 -0.7460 -1.0604
  932MOL0     H25791  -1.237   8.480   5.977 -1.1810 -0.9138  0.1704
  932MOL0     H25792  -1.081   8.690   6.121  1.1705 -2.1563  1.2040
  932MOL0     H25793  -1.252   8.700   6.052  0.8742  0.0591 -0.6150
  932MOL0     H25794  -1.235   8.690   6.302  3.0489  0.5208 -0.2958
  932MOL0     H25795  -1.168   8.528   6.286 -0.5554  0.1746 -0.2883
  932MOL0     H25796  -1.377   8.439   6.175 -1.3895  0.1669 -0.7284
  932MOL0     H25797  -1.414   8.515   6.331 -4.4009  1.4535 -0.5541
  932MOL0     H25798  -1.469   8.606   6.043 -3.6911  0.0349 -0.5392
  932MOL0     H25799  -1.453   8.725   6.173  0.1778 -0.3719  1.5252
  932MOL0     H25800  -1.633   8.575   6.298  0.2197 -3.5737  0.3855
  932MOL0     H25801  -1.607   8.455   6.182  3.0635 -1.8006  2.8356
  932MOL0     H25802  -0.654   8.552   6.001  1.0370 -0.0334 -0.3021
  932MOL0     H25803  -0.434   8.653   6.095  0.4582  0.3870 -0.2129
  932MOL0     H25804  -0.221   9.090   6.158  1.6868 -0.6153 -0.6250
  932MOL0     H25805  -0.019   9.181   6.239 -0.3111 -1.5453 -0.8829
  932MOL0     H25806   0.152   9.847   8.193 -2.9296 -1.9506 -0.9736
  932MOL0     H25807   0.202   9.742   8.410  1.9902 -3.5914  1.8619
  932MOL0     H25808   0.484   9.752   8.787  1.1259 -0.1772  1.7660
  932MOL0     H25809   0.547   9.679   8.991 -3.7507  2.3890 -2.1223
  932MOL0     H25810   0.654   9.555   9.163 -0.9661  0.6277 -2.9360
  932MOL0     H25811   0.484   9.558   9.201  0.9564  1.1442 -3.5243
  932MOL0     H25812   0.557   9.307   9.301 -0.2573 -1.1384 -0.2066
  932MOL0     H25813   0.528   9.464   9.380 -2.7015 -1.2052 -2.5991
  932MOL0     H25814   0.751   9.515   9.380 -6.2201  0.3000 -0.3126
  932MOL0     H25815   0.806   9.392   9.263  0.6385  1.8271 -0.9039
  932MOL0     H25816   0.893   9.346   9.480 -0.8275  4.8800 -3.1310
  932MOL0     H25817   0.755   9.225   9.457 -2.3647  0.5235 -0.8457
  932MOL0     H25818   0.627   9.379   9.806 -0.9774  1.2838 -0.0065
  932MOL0     H25819   0.482   9.267   8.865  0.7035 -0.9942 -3.8220
  932MOL0     H25820   0.441   9.353   8.640  1.1733  1.3728  0.0869
  933MOL0     O25821   3.012   4.736   8.647  0.7900  0.5483  0.1009
  933MOL0     C25822   2.910   4.673   8.673 -0.1893  0.1571 -0.6202
  933MOL0     O25823   2.798   4.721   8.743 -0.8376  0.2057  0.2455
  933MOL0     C25824   2.802   4.861   8.755 -0.5202  0.4936 -1.3232
  933MOL0     C25825   2.850   4.910   8.878  0.1623  0.1252  0.1509
  933MOL0     C25826   2.872   5.049   8.895  0.6710 -0.0076  0.6300
  933MOL0     C25827   2.851   5.135   8.779  0.2574 -1.4947  0.2684
  933MOL0     O25828   2.883   5.267   8.779 -0.2697 -0.4535  0.3666
  933MOL0     C25829   2.837   5.341   8.883 -0.0217 -0.5097 -0.1261
  933MOL0     C25830   2.748   5.450   8.822 -0.6681  0.4126 -0.5191
  933MOL0     C25831   2.655   5.410   8.711  0.4039 -0.0787 -0.3534
  933MOL0     C25832   2.555   5.528   8.670 -0.1746 -0.5462 -0.1650
  933MOL0     C25833   2.479   5.497   8.544  0.4388 -1.0811 -0.1890
  933MOL0     C25834   2.560   5.538   8.418  1.0101  0.7511  0.0732
  933MOL0     C25835   2.583   5.698   8.407  0.2764  0.6989  0.5178
  933MOL0     C25836   2.691   5.725   8.310  0.7164 -0.1263 -0.3285
  933MOL0     N25837   2.677   5.673   8.180 -0.6325  0.0177  0.0902
  933MOL0     C25838   2.766   5.580   8.130  0.8028 -0.2392  0.7885
  933MOL0     C25839   2.699   5.552   8.017 -0.3434 -0.0406 -0.6363
  933MOL0     C25840   2.763   5.452   7.918  0.0453 -0.2036  0.6790
  933MOL0     C25841   2.686   5.431   7.778 -0.0459  0.5848  0.5080
  933MOL0     C25842   2.752   5.312   7.697 -0.0364 -0.6351 -0.7419
  933MOL0     C25843   2.675   5.284   7.573  0.1011 -0.0634  0.3240
  933MOL0     O25844   2.542   5.222   7.610 -0.1442  0.1110 -0.3093
  933MOL0     C25845   2.473   5.167   7.505  0.1726 -0.1387 -0.2180
  933MOL0     C25846   2.384   5.060   7.536  0.0785  1.3415 -0.0404
  933MOL0     C25847   2.310   4.997   7.435  0.2434 -0.0471 -0.0123
  933MOL0     C25848   2.226   4.873   7.477  0.1186  0.4136  0.1874
  933MOL0     C25849   2.307   5.050   7.309  0.3044  0.2896  0.8982
  933MOL0     C25850   2.223   4.984   7.187  1.0809  0.1006 -1.1471
  933MOL0     O25851   2.277   5.000   7.063  0.0824  0.0258  0.1300
  933MOL0     C25852   2.181   4.977   6.961 -0.0976 -0.9785  0.5784
  933MOL0     C25853   2.152   4.852   6.913 -0.4539 -0.0673 -0.8326
  933MOL0     C25854   2.048   4.822   6.830  0.7523  0.0435  0.5452
  933MOL0     C25855   1.952   4.926   6.795 -0.4422  0.8751  1.0871
  933MOL0     O25856   1.838   4.902   6.715 -0.1290 -0.1414 -0.5730
  933MOL0     C25857   1.838   4.781   6.638 -0.4410  0.9633  0.5803
  933MOL0     C25858   1.736   4.798   6.535  0.7725 -1.0919  0.2515
  933MOL0     C25859   1.605   4.714   6.551 -0.4132  0.1294  0.2689
  933MOL0     C25860   1.538   4.652   6.432  0.5075  0.2157 -0.3852
  933MOL0     C25861   1.592   4.526   6.361  0.5320 -0.1426  0.1949
  933MOL0     C25862   1.600   4.397   6.434 -0.6363  0.2579  0.3409
  933MOL0     C25863   1.732   4.317   6.411 -0.1124 -0.4745  0.8076
  933MOL0     C25864   1.717   4.175   6.466 -0.3530 -0.5355 -0.5146
  933MOL0    Cl25865   1.785   4.044   6.356  0.0684 -0.7257 -0.4508
  933MOL0     C25866   1.987   5.050   6.830  0.3161 -0.8248 -1.8758
  933MOL0     C25867   2.093   5.076   6.911 -0.8048  0.1850 -1.3872
  933MOL0     O25868   2.110   4.934   7.211  0.1768  0.0588 -0.2776
  933MOL0     C25869   2.397   5.155   7.275  0.4133 -0.8948  0.5059
  933MOL0     C25870   2.478   5.206   7.373  0.0757 -0.1693  1.0182
  933MOL0     N25871   2.587   5.623   7.997 -0.2298 -0.2403  0.4536
  933MOL0     N25872   2.570   5.692   8.111 -0.0747 -0.0151  0.7951
  933MOL0     C25873   2.807   5.086   8.659 -0.8068  0.0214  0.6428
  933MOL0     C25874   2.775   4.951   8.649  0.0246  0.3854 -0.3449
  933MOL0     C25875   2.888   4.531   8.627 -0.5186  0.7972 -0.2101
  933MOL0     C25876   2.987   4.463   8.564  0.0126  0.4025  1.8067
  933MOL0     C25877   2.975   4.330   8.526  0.7238  0.2926  0.5871
  933MOL0     C25878   2.853   4.256   8.545 -0.0569  0.5297 -0.6701
  933MOL0     O25879   2.843   4.133   8.496  0.5428  0.7510 -0.2268
  933MOL0     C25880   2.762   4.046   8.565 -0.6268  0.6630  0.0097
  933MOL0     C25881   2.812   3.917   8.519  0.9852  0.5043  0.5321
  933MOL0     C25882   2.791   3.883   8.370  0.0723  0.0090  0.7250
  933MOL0     C25883   2.656   3.879   8.304  0.3802 -1.3995 -0.0904
  933MOL0     C25884   2.560   3.839   8.403 -0.3155  0.1141  0.6101
  933MOL0     C25885   2.490   3.817   8.493  0.2799 -0.4499  0.1531
  933MOL0     C25886   2.757   4.328   8.613  0.2470 -0.7125  0.2506
  933MOL0     C25887   2.771   4.459   8.657  1.2923  0.2366  0.8439
  933MOL0     H25888   2.864   4.843   8.963 -0.9039 -1.0295 -0.5546
  933MOL0     H25889   2.905   5.088   8.990  1.0632  4.7970 -1.1723
  933MOL0     H25890   2.791   5.277   8.959 -0.8884 -3.6823 -3.0692
  933MOL0     H25891   2.924   5.386   8.932  0.7745 -0.8749 -1.1775
  933MOL0     H25892   2.682   5.493   8.898 -0.5225  0.2291 -0.2884
  933MOL0     H25893   2.818   5.524   8.782  0.7185 -0.2661  0.5964
  933MOL0     H25894   2.710   5.378   8.622 -2.6772 -1.5259 -1.8810
  933MOL0     H25895   2.602   5.320   8.740 -0.3320  1.3763  3.3276
  933MOL0     H25896   2.482   5.562   8.744 -0.1656 -0.1929 -0.3155
  933MOL0     H25897   2.609   5.622   8.658 -3.6033  1.4718 -1.0467
  933MOL0     H25898   2.444   5.394   8.546 -1.4166 -0.4912  0.2370
  933MOL0     H25899   2.381   5.545   8.554  0.0290 -2.3134  4.5406
  933MOL0     H25900   2.653   5.482   8.408 -1.0200 -2.7197 -0.8864
  933MOL0     H25901   2.499   5.499   8.336  1.0738  2.1120 -0.6478
  933MOL0     H25902   2.500   5.747   8.354  2.1088  1.1211 -2.1674
  933MOL0     H25903   2.606   5.756   8.496 -0.4760 -0.7597  1.7065
  933MOL0     H25904   2.785   5.687   8.350  1.1290  1.9201  0.7726
  933MOL0     H25905   2.699   5.834   8.315 -0.5120 -0.0635  1.0284
  933MOL0     H25906   2.857   5.536   8.170  0.8093 -0.1475  0.8751
  933MOL0     H25907   2.863   5.492   7.902 -1.0136  2.3415 -0.2740
  933MOL0     H25908   2.761   5.363   7.981 -4.5686 -1.1737 -0.4581
  933MOL0     H25909   2.685   5.524   7.720 -1.8719 -0.0567 -0.5524
  933MOL0     H25910   2.582   5.398   7.783 -0.4383  0.1739 -4.7209
  933MOL0     H25911   2.753   5.225   7.763 -2.6829  1.3594  2.2586
  933MOL0     H25912   2.855   5.346   7.679 -0.2582  1.9440  2.0475
  933MOL0     H25913   2.728   5.204   7.520 -0.9337 -0.5860  0.0366
  933MOL0     H25914   2.670   5.367   7.503 -0.2867 -3.4293 -4.0719
  933MOL0     H25915   2.379   5.023   7.638  0.2201  0.5914 -0.3026
  933MOL0     H25916   2.281   4.835   7.564 -0.0704  0.3865  0.2956
  933MOL0     H25917   2.126   4.905   7.508  0.0049  1.4947 -1.1537
  933MOL0     H25918   2.217   4.798   7.398  1.0084  1.2043 -0.6958
  933MOL0     H25919   2.212   4.764   6.933 -1.4681 -0.2154  1.9211
  933MOL0     H25920   2.030   4.721   6.794  1.0212  0.6373 -1.3775
  933MOL0     H25921   1.929   4.763   6.580 -1.6789 -2.3920 -0.6036
  933MOL0     H25922   1.806   4.689   6.688 -1.4292 -0.4868 -2.4570
  933MOL0     H25923   1.708   4.904   6.526  1.1215 -1.0895 -1.0934
  933MOL0     H25924   1.778   4.772   6.437 -0.8491  1.5344 -1.2712
  933MOL0     H25925   1.539   4.784   6.602  2.1580  2.6115  0.4050
  933MOL0     H25926   1.631   4.634   6.621  0.6062 -2.6817 -3.0441
  933MOL0     H25927   1.439   4.635   6.475  1.9005 -3.2940  1.8783
  933MOL0     H25928   1.530   4.730   6.355 -0.3480 -0.5585 -1.0967
  933MOL0     H25929   1.694   4.548   6.327  0.7182 -1.5761 -0.2272
  933MOL0     H25930   1.536   4.504   6.269  0.1022 -0.4517  0.5294
  933MOL0     H25931   1.584   4.419   6.540  0.8950  1.5454  0.3375
  933MOL0     H25932   1.513   4.343   6.397 -1.3133  0.6804  1.2495
  933MOL0     H25933   1.818   4.377   6.443 -1.6604  1.7707  1.0132
  933MOL0     H25934   1.738   4.310   6.302  1.6940 -0.2167  0.8574
  933MOL0     H25935   1.613   4.154   6.490 -0.4791  0.3515 -0.2499
  933MOL0     H25936   1.766   4.163   6.564 -2.2961  0.8260  0.6976
  933MOL0     H25937   1.919   5.127   6.795 -0.8628 -1.7202 -1.5904
  933MOL0     H25938   2.112   5.180   6.936  1.3411 -0.5625  0.4589
  933MOL0     H25939   2.398   5.198   7.174 -1.5180  0.3575  0.9613
  933MOL0     H25940   2.549   5.281   7.338 -0.3544 -0.1039  0.2499
  933MOL0     H25941   2.797   5.150   8.571 -0.9023 -0.8269  0.0252
  933MOL0     H25942   2.746   4.907   8.554  3.1698 -0.3529 -1.0917
  933MOL0     H25943   3.082   4.508   8.537 -0.6390 -0.0469 -1.7282
  933MOL0     H25944   3.055   4.282   8.470 -1.0033 -0.5525 -1.3156
  933MOL0     H25945   2.780   4.048   8.673 -3.9083 -2.5077  0.8323
  933MOL0     H25946   2.653   4.051   8.551 -1.3910 -3.0879  2.9078
  933MOL0     H25947   2.757   3.845   8.580 -0.2273  2.6957  2.1615
  933MOL0     H25948   2.917   3.901   8.546  0.6460  0.0820  1.6560
  933MOL0     H25949   2.841   3.788   8.345 -2.5336 -1.0137 -1.0119
  933MOL0     H25950   2.844   3.965   8.320 -2.6317 -0.2222 -2.8687
  933MOL0     H25951   2.653   3.816   8.215  0.8375  0.1924 -1.2709
  933MOL0     H25952   2.623   3.979   8.275  0.2633 -1.3304  0.2697
  933MOL0     H25953   2.415   3.787   8.563 -2.3235  1.8239 -1.3992
  933MOL0     H25954   2.657   4.293   8.638 -0.6576  2.6488  1.9400
  933MOL0     H25955   2.690   4.499   8.717 -0.5839 -2.9568  0.6918
  934MOL0     O25956   9.626   3.058   5.898 -0.2458 -0.2083  0.3064
  934MOL0     C25957   9.579   3.147   5.967  1.2823 -0.2566 -0.1035
  934MOL0     O25958   9.457   3.147   6.021  0.3061 -0.3390 -0.6251
  934MOL0     C25959   9.365   3.039   6.011 -0.0713  0.5145  0.7390
  934MOL0     C25960   9.272   3.008   6.118 -0.5268  0.0812  0.3756
  934MOL0     C25961   9.193   2.896   6.105  0.7143  0.5727  0.3325
  934MOL0     C25962   9.180   2.829   5.976  0.5461  0.9356 -0.8214
  934MOL0     O25963   9.068   2.739   5.974 -0.5256  0.8083 -0.2299
  934MOL0     C25964   9.047   2.658   5.863  0.5283  0.3396 -0.4575
  934MOL0     C25965   8.971   2.533   5.908  0.2596 -0.8420 -0.7105
  934MOL0     C25966   8.820   2.547   5.939  0.8719 -0.1828  0.1428
  934MOL0     C25967   8.737   2.621   5.830  0.4219 -0.1382 -0.0795
  934MOL0     C25968   8.697   2.541   5.704  0.7029 -0.2131  0.1113
  934MOL0     C25969   8.633   2.405   5.751  0.3565 -0.0639  0.4963
  934MOL0     C25970   8.585   2.329   5.628 -0.5229  0.2161  0.5345
  934MOL0     C25971   8.449   2.379   5.575 -0.1980  0.1164 -0.1297
  934MOL0     N25972   8.408   2.332   5.439  0.6653  0.6486  1.0726
  934MOL0     C25973   8.349   2.216   5.421 -0.5833 -0.3947  1.5729
  934MOL0     C25974   8.327   2.215   5.283 -1.1259  0.1127  0.5154
  934MOL0     C25975   8.298   2.101   5.197 -0.5491  0.9264 -0.4918
  934MOL0     C25976   8.150   2.088   5.163  0.5180  0.5964 -0.5890
  934MOL0     C25977   8.116   1.955   5.088  0.5485  0.0275  0.2532
  934MOL0     C25978   7.967   1.959   5.033 -0.5282  0.2845 -0.2392
  934MOL0     O25979   7.873   1.939   5.136  0.2616  0.0910  0.2000
  934MOL0     C25980   7.747   1.925   5.089 -0.5563 -0.4241 -0.1163
  934MOL0     C25981   7.713   1.893   4.957 -0.3753  0.6386  0.0245
  934MOL0     C25982   7.571   1.865   4.925 -0.5129 -1.0297 -0.2701
  934MOL0     C25983   7.536   1.823   4.779 -0.0662  0.3078 -0.4517
  934MOL0     C25984   7.474   1.901   5.022  0.4025 -0.2156 -0.7236
  934MOL0     C25985   7.329   1.901   5.009 -0.5033 -0.3161 -0.5645
  934MOL0     O25986   7.255   1.978   5.095  0.4845 -0.0846 -0.1611
  934MOL0     C25987   7.120   1.974   5.085 -0.4968  0.8647  0.0068
  934MOL0     C25988   7.049   2.085   5.049 -0.0855 -0.4233 -0.8697
  934MOL0     C25989   6.903   2.084   5.050  0.3347 -1.1904 -0.5121
  934MOL0     C25990   6.838   1.963   5.089  0.0821  0.3870  0.1698
  934MOL0     O25991   6.696   1.963   5.108 -0.3426  0.6282  0.2869
  934MOL0     C25992   6.641   2.065   5.199  0.5413 -0.3538 -0.1947
  934MOL0     C25993   6.540   1.996   5.292  1.2771 -0.3736  0.3148
  934MOL0     C25994   6.423   1.929   5.216 -0.0403  0.6600  0.5307
  934MOL0     C25995   6.327   1.866   5.312 -0.3511  1.2922 -0.6052
  934MOL0     C25996   6.213   1.792   5.241  0.0899 -0.5198 -0.0957
  934MOL0     C25997   6.261   1.642   5.193  0.3106 -0.0856  0.1575
  934MOL0     C25998   6.265   1.533   5.308 -0.1482  0.8994 -0.0768
  934MOL0     C25999   6.338   1.410   5.261 -0.0354  0.0866  0.6703
  934MOL0    Cl26000   6.240   1.321   5.129 -0.0807  0.0800 -0.0503
  934MOL0     C26001   6.922   1.853   5.127 -0.3575 -0.4044  0.7893
  934MOL0     C26002   7.057   1.855   5.113  0.1333  0.2013  0.3361
  934MOL0     O26003   7.274   1.840   4.920  0.4108 -0.2034  0.1465
  934MOL0     C26004   7.520   1.941   5.149 -0.2327 -0.5176 -0.0295
  934MOL0     C26005   7.653   1.955   5.177  0.6985 -0.8286  0.3565
  934MOL0     N26006   8.369   2.341   5.226  0.0115  0.6230 -0.7352
  934MOL0     N26007   8.428   2.401   5.323  0.0698  0.8077  0.6474
  934MOL0     C26008   9.261   2.866   5.874  0.0549 -0.1017 -0.1586
  934MOL0     C26009   9.354   2.968   5.887  0.4231  0.6306 -0.3883
  934MOL0     C26010   9.662   3.272   5.992 -0.0085 -1.0169  0.1148
  934MOL0     C26011   9.743   3.311   5.879 -0.7949  0.0777 -0.6362
  934MOL0     C26012   9.825   3.425   5.887  0.4504  0.6235 -0.5489
  934MOL0     C26013   9.810   3.511   5.998  0.3534 -0.4034  0.0960
  934MOL0     O26014   9.881   3.625   6.020 -0.0971  0.2025  0.8391
  934MOL0     C26015  10.018   3.597   6.047  1.3187 -0.9271 -0.5491
  934MOL0     C26016  10.067   3.700   6.150 -0.8238 -0.1539  0.0090
  934MOL0     C26017  10.011   3.673   6.293 -0.2887  0.6856 -0.2536
  934MOL0     C26018  10.058   3.777   6.394 -0.6832  0.3438  0.3913
  934MOL0     C26019  10.204   3.775   6.417  0.4539  0.4620 -0.4438
  934MOL0     C26020  10.322   3.788   6.407 -0.2710 -0.4118  0.6635
  934MOL0     C26021   9.729   3.477   6.108  0.3685 -0.3378  0.0590
  934MOL0     C26022   9.651   3.361   6.102  0.2134  0.2009  1.4370
  934MOL0     H26023   9.273   3.080   6.199  0.2146  3.4701 -2.3810
  934MOL0     H26024   9.120   2.866   6.180  0.3522  1.3247  0.2892
  934MOL0     H26025   8.987   2.702   5.783 -0.8081 -4.0952 -2.2206
  934MOL0     H26026   9.136   2.630   5.806 -0.3215 -0.3465 -1.5046
  934MOL0     H26027   8.973   2.458   5.828 -1.0012 -1.5386 -0.1214
  934MOL0     H26028   9.019   2.473   5.985  0.3217 -1.1015 -0.9478
  934MOL0     H26029   8.776   2.448   5.956  0.8764 -0.0015  1.3017
  934MOL0     H26030   8.799   2.596   6.035 -2.8133  1.7089 -1.4162
  934MOL0     H26031   8.645   2.648   5.883  0.4211  1.2430 -0.7381
  934MOL0     H26032   8.773   2.715   5.787 -1.6135  0.4048 -0.6825
  934MOL0     H26033   8.618   2.593   5.647 -0.7221 -2.5460 -0.1842
  934MOL0     H26034   8.785   2.537   5.639  2.8709 -1.7787  2.9513
  934MOL0     H26035   8.706   2.337   5.796 -0.5601  0.3196  2.7090
  934MOL0     H26036   8.555   2.429   5.824  1.2245  1.1980  1.0401
  934MOL0     H26037   8.645   2.354   5.540 -1.7067  1.2305 -0.0151
  934MOL0     H26038   8.575   2.226   5.665  0.3019  1.0079  3.2060
  934MOL0     H26039   8.456   2.486   5.557  1.5639  0.5752  2.6328
  934MOL0     H26040   8.367   2.359   5.645  0.4752  1.5327  1.1111
  934MOL0     H26041   8.323   2.147   5.500  1.4762 -0.8625  1.8936
  934MOL0     H26042   8.360   2.107   5.107  0.2198 -3.6258 -0.4985
  934MOL0     H26043   8.333   2.009   5.243 -0.6125  1.8036  1.3965
  934MOL0     H26044   8.116   2.172   5.101  2.3679  1.5785 -0.3548
  934MOL0     H26045   8.082   2.091   5.249  1.3902 -2.5031  0.3444
  934MOL0     H26046   8.137   1.872   5.155 -0.9105 -0.0746  0.6301
  934MOL0     H26047   8.183   1.955   5.002  1.3457  0.7532  0.8550
  934MOL0     H26048   7.965   1.877   4.961  0.6228 -0.0834  0.1193
  934MOL0     H26049   7.948   2.051   4.978 -1.5382  0.4802  0.4105
  934MOL0     H26050   7.785   1.882   4.877  1.1463 -1.6297  1.5859
  934MOL0     H26051   7.628   1.803   4.722  0.8417  1.1485  0.6661
  934MOL0     H26052   7.481   1.730   4.793  1.9256 -0.5959  2.2065
  934MOL0     H26053   7.460   1.890   4.738  0.7405  1.9925  0.7111
  934MOL0     H26054   7.106   2.171   5.015 -1.8117  0.2201 -2.3128
  934MOL0     H26055   6.855   2.172   5.008  3.0729 -1.4282 -4.8154
  934MOL0     H26056   6.709   2.116   5.269 -0.8767  0.9487  0.2901
  934MOL0     H26057   6.600   2.137   5.129  1.7212  0.0833 -0.4602
  934MOL0     H26058   6.595   1.920   5.348  1.5081 -2.5771 -2.7040
  934MOL0     H26059   6.499   2.084   5.344 -0.2577 -1.0168  0.2122
  934MOL0     H26060   6.465   1.848   5.156  1.0536  1.2608  0.4549
  934MOL0     H26061   6.369   2.010   5.166  0.3184  1.7962  1.9021
  934MOL0     H26062   6.367   1.807   5.395 -0.4378 -2.1365 -2.8016
  934MOL0     H26063   6.277   1.952   5.358 -0.1038  2.3049 -2.1794
  934MOL0     H26064   6.189   1.851   5.152  0.8611 -1.1412 -0.7240
  934MOL0     H26065   6.117   1.784   5.293  0.5408  1.8539  1.2149
  934MOL0     H26066   6.192   1.607   5.115  0.2980  0.0550  0.1033
  934MOL0     H26067   6.349   1.643   5.127 -1.9657 -1.9669 -3.2377
  934MOL0     H26068   6.170   1.495   5.348  0.2312 -0.2872 -0.2538
  934MOL0     H26069   6.316   1.577   5.394 -3.1889  0.6794  1.9975
  934MOL0     H26070   6.349   1.337   5.342 -4.6049 -1.4825  0.1562
  934MOL0     H26071   6.434   1.434   5.214 -1.8825  3.2198 -1.8595
  934MOL0     H26072   6.886   1.753   5.147 -0.5985 -0.7243 -1.1291
  934MOL0     H26073   7.110   1.764   5.142  2.0317  1.4780  1.0749
  934MOL0     H26074   7.441   1.968   5.219 -0.9353 -4.4131  0.9054
  934MOL0     H26075   7.686   1.975   5.279  2.4486 -0.8619 -0.1652
  934MOL0     H26076   9.255   2.818   5.777  3.7483  0.0763 -0.6294
  934MOL0     H26077   9.412   2.987   5.797 -0.8616  0.0563 -1.3784
  934MOL0     H26078   9.743   3.247   5.792 -1.9115  2.0377 -2.1707
  934MOL0     H26079   9.874   3.458   5.796  1.9087 -0.7722 -0.3086
  934MOL0     H26080  10.038   3.493   6.075  1.0216 -0.7264  0.4306
  934MOL0     H26081  10.064   3.619   5.950  1.0067 -1.5696 -0.8534
  934MOL0     H26082  10.046   3.806   6.131 -0.7090 -0.1357 -0.0154
  934MOL0     H26083  10.175   3.685   6.154 -0.5928  1.3627  0.2461
  934MOL0     H26084  10.034   3.573   6.332 -1.7396  1.2003  2.1330
  934MOL0     H26085   9.902   3.672   6.292 -0.2881  0.0094 -0.4062
  934MOL0     H26086  10.002   3.782   6.488 -1.1466  2.7626  0.0357
  934MOL0     H26087  10.038   3.877   6.354 -1.4959  0.0990  0.1566
  934MOL0     H26088  10.428   3.795   6.395 -0.3099 -1.0782 -0.1144
  934MOL0     H26089   9.721   3.541   6.194 -0.7017 -0.5606  0.1445
  934MOL0     H26090   9.568   3.336   6.167  0.3587  1.1402  2.0019
  935MOL0     O26091   2.062   1.933   2.834  0.3475 -0.0021 -0.5590
  935MOL0     C26092   1.947   1.893   2.821  0.6275  0.3218  0.0865
  935MOL0     O26093   1.854   1.893   2.920 -0.2928 -0.9440 -0.4711
  935MOL0     C26094   1.862   1.967   3.038 -0.4667  0.3405 -0.5685
  935MOL0     C26095   1.760   1.928   3.129 -0.6317 -0.7451  0.6630
  935MOL0     C26096   1.746   1.998   3.251 -0.0630 -0.1611 -0.1068
  935MOL0     C26097   1.828   2.100   3.286  0.8634 -0.7577  0.1688
  935MOL0     O26098   1.791   2.193   3.382 -0.3631 -0.3300 -0.4120
  935MOL0     C26099   1.727   2.144   3.503 -1.0970 -0.0532 -0.3905
  935MOL0     C26100   1.804   2.184   3.634  0.1328  0.4336  0.6180
  935MOL0     C26101   1.956   2.169   3.649 -0.1635  0.6663  0.9359
  935MOL0     C26102   2.005   2.224   3.781 -0.2155 -0.8601  0.8403
  935MOL0     C26103   2.151   2.203   3.786 -0.0744 -0.0670 -0.4532
  935MOL0     C26104   2.237   2.295   3.688  0.0199  0.5593 -0.9646
  935MOL0     C26105   2.377   2.288   3.722 -0.3440  0.9665 -0.5055
  935MOL0     C26106   2.461   2.381   3.629  0.2647  0.2221  0.4567
  935MOL0     N26107   2.425   2.527   3.653  0.8286  0.2321  0.7770
  935MOL0     C26108   2.369   2.608   3.561 -0.7600 -0.2854  0.4765
  935MOL0     C26109   2.371   2.737   3.615 -0.5696 -0.0385 -0.1814
  935MOL0     C26110   2.306   2.853   3.543 -0.3756  0.7220 -0.1734
  935MOL0     C26111   2.224   2.938   3.640 -0.1358  1.3486 -0.7479
  935MOL0     C26112   2.200   3.077   3.585 -0.0600 -0.3400 -0.2088
  935MOL0     C26113   2.322   3.163   3.627  0.0083  0.2945 -0.5280
  935MOL0     O26114   2.313   3.293   3.572 -0.3350 -0.5870  0.0563
  935MOL0     C26115   2.397   3.312   3.465  0.1430 -0.1862  0.1646
  935MOL0     C26116   2.436   3.219   3.366  0.2229 -0.6316  0.0130
  935MOL0     C26117   2.518   3.249   3.258 -0.5240  0.1838  0.4420
  935MOL0     C26118   2.547   3.135   3.158  0.6803  0.1871  0.4334
  935MOL0     C26119   2.560   3.384   3.237 -0.4841  0.3853  0.2197
  935MOL0     C26120   2.662   3.408   3.128 -0.1824 -0.7069  0.5405
  935MOL0     O26121   2.688   3.543   3.132  0.7639 -0.8690  0.4498
  935MOL0     C26122   2.732   3.624   3.023  0.2559  0.6271 -0.5572
  935MOL0     C26123   2.745   3.581   2.894  0.5704 -0.0716  1.0015
  935MOL0     C26124   2.783   3.663   2.783  0.3351  0.4358  0.5737
  935MOL0     C26125   2.831   3.789   2.814 -0.4874 -0.9541 -0.9400
  935MOL0     O26126   2.876   3.888   2.727 -0.5147 -0.3179 -0.3718
  935MOL0     C26127   2.846   3.865   2.588 -0.2974  0.8603 -0.7214
  935MOL0     C26128   2.879   3.985   2.498 -0.5700  0.0886  0.0197
  935MOL0     C26129   2.983   4.081   2.556  0.2369  0.6985 -0.3566
  935MOL0     C26130   2.932   4.195   2.643  0.6726 -0.0078  0.4127
  935MOL0     C26131   3.043   4.251   2.723  0.1604  0.2810 -0.1567
  935MOL0     C26132   3.002   4.372   2.810  0.4612 -0.0147 -0.1391
  935MOL0     C26133   2.870   4.363   2.886 -0.3065 -0.5209  0.3217
  935MOL0     C26134   2.840   4.493   2.962  0.2944 -0.2985  0.6985
  935MOL0    Cl26135   2.686   4.472   3.062 -0.3169  0.4807 -0.2750
  935MOL0     C26136   2.833   3.838   2.949 -0.5402 -0.2449  0.5178
  935MOL0     C26137   2.774   3.756   3.046 -0.1157  0.2246 -0.2998
  935MOL0     O26138   2.726   3.326   3.069  0.0209  0.3203 -0.8574
  935MOL0     C26139   2.525   3.485   3.334 -0.0112 -0.2386 -0.5913
  935MOL0     C26140   2.442   3.442   3.444  0.5303 -0.1490  0.1550
  935MOL0     N26141   2.431   2.724   3.735 -0.4158 -0.1603 -0.0967
  935MOL0     N26142   2.452   2.600   3.762 -0.1333 -0.2997  0.4323
  935MOL0     C26143   1.931   2.142   3.193 -0.6341 -0.2754 -0.9880
  935MOL0     C26144   1.950   2.071   3.072  0.0860  0.8664  0.0783
  935MOL0     C26145   1.930   1.841   2.684  0.0385 -0.3025 -0.4029
  935MOL0     C26146   1.811   1.804   2.637 -0.7768  0.8575  0.7134
  935MOL0     C26147   1.795   1.755   2.507  0.7576  0.8815  0.5381
  935MOL0     C26148   1.903   1.741   2.413  0.6862 -0.2979  0.3829
  935MOL0     O26149   1.882   1.713   2.278 -0.3828  0.2122 -0.3002
  935MOL0     C26150   1.763   1.639   2.238  0.0400 -1.1021 -0.2856
  935MOL0     C26151   1.767   1.629   2.084  0.1734 -0.6508 -0.8389
  935MOL0     C26152   1.668   1.725   2.015 -0.6532 -0.2367 -0.1361
  935MOL0     C26153   1.717   1.762   1.874  0.0512 -0.1313 -0.5745
  935MOL0     C26154   1.627   1.852   1.790 -0.1468  0.6466  0.0749
  935MOL0     C26155   1.545   1.907   1.718 -0.3813 -0.5866  0.4437
  935MOL0     C26156   2.030   1.786   2.466  0.1968 -0.4335 -0.0211
  935MOL0     C26157   2.042   1.830   2.598 -0.7850  0.9002 -0.3366
  935MOL0     H26158   1.687   1.850   3.111  0.7601 -1.7889 -0.6922
  935MOL0     H26159   1.663   1.968   3.314  1.7401 -2.4413  1.3636
  935MOL0     H26160   1.621   2.172   3.501 -0.7616  1.2904 -0.4301
  935MOL0     H26161   1.733   2.035   3.505  1.8323 -0.0572 -2.2745
  935MOL0     H26162   1.773   2.285   3.662 -0.1784  0.2532  0.9400
  935MOL0     H26163   1.760   2.123   3.714 -0.5220 -2.7296 -1.9603
  935MOL0     H26164   1.982   2.071   3.607 -2.7718  1.1366 -2.1711
  935MOL0     H26165   1.995   2.236   3.571  1.1878  0.7361  1.6365
  935MOL0     H26166   1.999   2.333   3.786 -3.0513 -0.8249 -1.2417
  935MOL0     H26167   1.948   2.173   3.859  2.7523 -3.3392  1.6085
  935MOL0     H26168   2.181   2.230   3.888 -0.4121  0.5676 -0.5204
  935MOL0     H26169   2.181   2.099   3.769  0.6300 -0.1057  0.9007
  935MOL0     H26170   2.223   2.261   3.585  1.2380  0.2251 -1.0388
  935MOL0     H26171   2.201   2.398   3.691  2.6839  1.5510  0.4178
  935MOL0     H26172   2.386   2.321   3.826 -3.7809 -0.0162  0.2256
  935MOL0     H26173   2.420   2.188   3.710 -0.4430  0.7321  0.9225
  935MOL0     H26174   2.440   2.352   3.525 -1.1694 -0.3716  0.8920
  935MOL0     H26175   2.569   2.369   3.644  0.2354  0.4649  0.8746
  935MOL0     H26176   2.319   2.580   3.469  0.5961 -2.1276  0.2475
  935MOL0     H26177   2.386   2.918   3.504  1.8373 -0.6811  1.7441
  935MOL0     H26178   2.245   2.820   3.458 -2.6888 -0.0062  1.6743
  935MOL0     H26179   2.260   2.932   3.743  1.1798  1.7636 -1.1687
  935MOL0     H26180   2.125   2.891   3.647  0.2551  0.8054  2.6241
  935MOL0     H26181   2.113   3.126   3.629  0.0517 -0.2371 -0.0998
  935MOL0     H26182   2.185   3.074   3.477 -1.6493  0.6469 -0.0317
  935MOL0     H26183   2.418   3.118   3.599 -0.5093 -1.4204  0.3515
  935MOL0     H26184   2.329   3.171   3.735 -0.5170 -2.3582 -0.2200
  935MOL0     H26185   2.388   3.124   3.385  0.1458 -0.7273 -0.6397
  935MOL0     H26186   2.653   3.109   3.171  0.8532  1.8644  3.1653
  935MOL0     H26187   2.484   3.046   3.168  3.8356 -2.3948 -0.7747
  935MOL0     H26188   2.526   3.176   3.059  1.5383  0.8888  0.5215
  935MOL0     H26189   2.706   3.482   2.876 -2.7312  1.4449 -1.2370
  935MOL0     H26190   2.774   3.626   2.681  0.3337  2.2158 -0.1091
  935MOL0     H26191   2.906   3.783   2.548  4.1022  3.0039  0.8337
  935MOL0     H26192   2.739   3.846   2.572 -0.4236  0.3620  0.6194
  935MOL0     H26193   2.907   3.941   2.402  3.6740  2.1873  0.0471
  935MOL0     H26194   2.793   4.049   2.479 -0.2671 -0.0438 -1.9583
  935MOL0     H26195   3.024   4.133   2.469 -1.8496 -0.3902 -2.0971
  935MOL0     H26196   3.072   4.033   2.599 -1.2762 -0.4322  1.6906
  935MOL0     H26197   2.890   4.278   2.585  2.1333 -1.0414 -2.2720
  935MOL0     H26198   2.847   4.165   2.705 -0.6412  1.3589 -0.6452
  935MOL0     H26199   3.110   4.282   2.642 -2.2071  1.4256 -1.7692
  935MOL0     H26200   3.099   4.185   2.790  0.7592  1.6845  0.7816
  935MOL0     H26201   3.077   4.374   2.889  0.2366 -1.4455  0.1491
  935MOL0     H26202   3.008   4.468   2.759  2.3413  0.1916  0.3825
  935MOL0     H26203   2.869   4.286   2.964 -1.8192  0.6743  1.5406
  935MOL0     H26204   2.791   4.331   2.817 -0.2804 -0.7202  0.3818
  935MOL0     H26205   2.824   4.555   2.873  0.6015  2.1262  2.2459
  935MOL0     H26206   2.916   4.535   3.028 -0.4888  1.0828  0.7538
  935MOL0     H26207   2.866   3.940   2.968 -1.0087  0.5091 -2.2629
  935MOL0     H26208   2.784   3.780   3.152 -2.3093 -1.3170  0.3371
  935MOL0     H26209   2.551   3.589   3.316 -3.5185  0.6786 -0.9921
  935MOL0     H26210   2.405   3.520   3.509 -3.7657  1.0748 -3.2898
  935MOL0     H26211   2.002   2.220   3.220 -0.7618 -0.0646 -1.2567
  935MOL0     H26212   2.021   2.108   2.999  0.0121  0.5787 -0.1413
  935MOL0     H26213   1.728   1.809   2.707  1.2228  1.3444  3.2115
  935MOL0     H26214   1.692   1.743   2.474  1.1284 -0.3280 -0.2591
  935MOL0     H26215   1.776   1.542   2.287  1.4888 -0.3351  0.9291
  935MOL0     H26216   1.675   1.685   2.283 -1.2067  0.2667 -3.7407
  935MOL0     H26217   1.750   1.529   2.043  1.5703 -1.6812  0.9524
  935MOL0     H26218   1.869   1.662   2.060  0.4210 -1.2354 -0.5926
  935MOL0     H26219   1.676   1.821   2.066  0.4948  0.2569 -1.1993
  935MOL0     H26220   1.566   1.683   2.012 -0.6971 -0.2394  1.0474
  935MOL0     H26221   1.724   1.667   1.820  0.9605  0.1457 -0.9662
  935MOL0     H26222   1.819   1.800   1.886  2.5088 -5.8858 -0.3556
  935MOL0     H26223   1.462   1.956   1.671  1.2867  0.8053 -1.2341
  935MOL0     H26224   2.121   1.792   2.408  0.0214 -1.0558 -0.3723
  935MOL0     H26225   2.135   1.880   2.624  0.8425  0.2484 -4.1789
  936MOL0     O26226  11.324  10.187   6.181 -0.0513  0.3299 -0.8939
  936MOL0     C26227  11.355  10.280   6.256  0.0258 -0.0937  0.5543
  936MOL0     O26228  11.324  10.413   6.226  0.5591 -0.5190  0.0451
  936MOL0     C26229  11.219  10.440   6.139  0.4999 -0.4165  0.4380
  936MOL0     C26230  11.098  10.359   6.136 -1.2609 -0.1052  1.0257
  936MOL0     C26231  10.990  10.392   6.051  0.4088 -0.4092 -0.8176
  936MOL0     C26232  10.988  10.507   5.976  0.0294  0.9450 -0.3483
  936MOL0     O26233  10.885  10.564   5.911 -0.3330  0.4638  0.1757
  936MOL0     C26234  10.775  10.482   5.869  0.4847  0.1466 -0.3182
  936MOL0     C26235  10.805  10.400   5.749 -0.4046 -0.3551 -0.2701
  936MOL0     C26236  10.682  10.313   5.700  0.0139  0.5291  0.3073
  936MOL0     C26237  10.704  10.251   5.557 -0.2484  0.0337 -0.6057
  936MOL0     C26238  10.583  10.198   5.490 -0.1829 -0.2848  0.2396
  936MOL0     C26239  10.601  10.092   5.381  0.2132  0.6568  0.4155
  936MOL0     C26240  10.661  10.154   5.258  0.4479  0.7421  0.1848
  936MOL0     C26241  10.738  10.057   5.165  0.5905 -0.8947  0.5244
  936MOL0     N26242  10.862  10.112   5.105 -0.2715 -0.9353  0.4986
  936MOL0     C26243  10.874  10.136   4.969  0.1688 -0.4319 -0.2480
  936MOL0     C26244  10.998  10.185   4.947  0.1904  0.0003  0.3224
  936MOL0     C26245  11.039  10.226   4.810  0.4033  0.7865  0.4078
  936MOL0     C26246  11.047  10.102   4.715 -0.8727  0.1995 -0.9198
  936MOL0     C26247  11.119  10.135   4.582  0.1942  0.0651  1.2400
  936MOL0     C26248  11.112  10.024   4.480 -0.1239 -0.3550 -0.0547
  936MOL0     O26249  11.153   9.899   4.541 -0.2959 -0.5017 -1.0358
  936MOL0     C26250  11.137   9.781   4.475 -0.6239  0.3758 -0.4614
  936MOL0     C26251  11.144   9.656   4.548  0.5786 -1.6813  0.1552
  936MOL0     C26252  11.123   9.536   4.476 -0.2192  0.1447  0.1224
  936MOL0     C26253  11.132   9.404   4.547 -0.1566 -1.0225  0.6853
  936MOL0     C26254  11.098   9.538   4.335 -0.8616  0.3028 -0.3338
  936MOL0     C26255  11.079   9.408   4.251 -0.4409 -0.7225 -0.3304
  936MOL0     O26256  10.965   9.404   4.172 -0.8680  0.0223 -0.3571
  936MOL0     C26257  10.924   9.272   4.130 -0.7082 -0.0105  0.3081
  936MOL0     C26258  10.837   9.280   4.020  0.0410 -0.3486  1.1673
  936MOL0     C26259  10.775   9.170   3.966  0.2002 -0.2403 -0.1804
  936MOL0     C26260  10.801   9.043   4.030 -0.5462  0.1990  0.4205
  936MOL0     O26261  10.732   8.935   3.967  0.2395 -0.3827 -0.1398
  936MOL0     C26262  10.734   8.820   4.040 -0.2102  0.8096  0.6288
  936MOL0     C26263  10.671   8.700   3.961 -0.3043 -0.1274  0.0767
  936MOL0     C26264  10.748   8.569   3.987 -0.0220 -0.4524 -0.0108
  936MOL0     C26265  10.671   8.462   3.914 -0.6291 -0.7851  0.0813
  936MOL0     C26266  10.729   8.327   3.936  0.6692  0.9687 -0.0131
  936MOL0     C26267  10.843   8.302   3.837 -0.6293  0.2170  0.3015
  936MOL0     C26268  10.896   8.160   3.849  0.1897 -0.1253  0.6762
  936MOL0     C26269  11.027   8.157   3.764 -0.7023  0.3741  0.2053
  936MOL0    Cl26270  11.183   8.191   3.866  0.3833  0.2913 -0.5139
  936MOL0     C26271  10.887   9.034   4.146 -1.3422 -0.7944  0.7575
  936MOL0     C26272  10.936   9.156   4.206 -0.1815 -0.2755 -0.6929
  936MOL0     O26273  11.163   9.318   4.268  0.2487 -0.2547 -0.3878
  936MOL0     C26274  11.089   9.657   4.265 -0.7837 -0.0163 -0.1051
  936MOL0     C26275  11.121   9.771   4.331 -1.7223  0.1969 -0.4553
  936MOL0     N26276  11.069  10.189   5.071 -0.6181 -0.1120 -0.3019
  936MOL0     N26277  10.979  10.143   5.156 -0.4722  0.1586 -0.1906
  936MOL0     C26278  11.107  10.580   5.982 -0.6272  0.2513 -0.4047
  936MOL0     C26279  11.218  10.549   6.054 -0.2898 -0.2163  0.2935
  936MOL0     C26280  11.470  10.261   6.350 -0.6583 -0.1011 -0.5277
  936MOL0     C26281  11.551  10.142   6.361  0.3999  0.2733  1.1085
  936MOL0     C26282  11.659  10.137   6.444 -0.0934  1.2054  0.5804
  936MOL0     C26283  11.700  10.244   6.523  0.3740  0.1869 -0.1755
  936MOL0     O26284  11.808  10.265   6.599  0.2474 -0.5043 -0.5862
  936MOL0     C26285  11.915  10.179   6.574 -0.4807 -0.4958 -0.0469
  936MOL0     C26286  11.975  10.211   6.436 -0.5724  1.1917 -0.2465
  936MOL0     C26287  12.046  10.343   6.434 -0.6293 -0.8550  0.8098
  936MOL0     C26288  12.105  10.365   6.297 -0.0953  0.2505  0.5201
  936MOL0     C26289  12.215  10.272   6.267 -0.1862 -0.2007  0.3888
  936MOL0     C26290  12.298  10.193   6.216  0.4130 -0.2257  0.3593
  936MOL0     C26291  11.613  10.353   6.520 -0.6079  0.2146 -0.4436
  936MOL0     C26292  11.499  10.363   6.441 -0.7436  0.1516 -0.4983
  936MOL0     H26293  11.096  10.268   6.196 -0.6755 -0.1895  0.9237
  936MOL0     H26294  10.906  10.329   6.079  1.3644 -0.8702  1.1965
  936MOL0     H26295  10.745  10.413   5.948  0.4461  1.4226  0.8211
  936MOL0     H26296  10.682  10.538   5.857 -0.3033 -1.1492 -0.3898
  936MOL0     H26297  10.840  10.468   5.671  0.0004 -1.2317 -0.8688
  936MOL0     H26298  10.892  10.336   5.769 -0.2010  0.7318  3.0438
  936MOL0     H26299  10.660  10.226   5.762  2.4110 -0.1197  0.3633
  936MOL0     H26300  10.597  10.382   5.701  2.5468  4.0191 -1.6560
  936MOL0     H26301  10.760  10.322   5.496  0.3850 -0.6029 -0.7792
  936MOL0     H26302  10.780  10.172   5.562 -0.3125 -0.0022 -0.1311
  936MOL0     H26303  10.526  10.153   5.571 -0.4528 -1.5973 -0.6425
  936MOL0     H26304  10.525  10.282   5.448 -2.1751 -2.7407 -2.3156
  936MOL0     H26305  10.657  10.002   5.406 -0.5967 -0.8634 -2.7484
  936MOL0     H26306  10.499  10.063   5.352 -0.2702  1.0795  1.6186
  936MOL0     H26307  10.591  10.210   5.195  0.4056  0.5737  0.0810
  936MOL0     H26308  10.735  10.228   5.289  0.8607  0.3417  0.1731
  936MOL0     H26309  10.678  10.026   5.079  3.4351  2.0178 -2.8483
  936MOL0     H26310  10.776   9.974   5.226  1.4363 -0.7542  0.2002
  936MOL0     H26311  10.806  10.118   4.886  2.4352 -1.1702 -2.0593
  936MOL0     H26312  10.975  10.307   4.774 -1.0240 -0.0779  0.9452
  936MOL0     H26313  11.135  10.276   4.823  0.5038  0.6147  0.3360
  936MOL0     H26314  10.948  10.071   4.681 -0.5412  0.1496 -1.8517
  936MOL0     H26315  11.096  10.027   4.777  2.6257  2.1680 -1.0931
  936MOL0     H26316  11.226  10.153   4.593 -0.1803  1.6413  2.8776
  936MOL0     H26317  11.082  10.228   4.538  1.0673 -1.2793 -2.7611
  936MOL0     H26318  11.177  10.053   4.397  0.3041  2.7678  1.2257
  936MOL0     H26319  11.014  10.021   4.432 -0.6685  2.0700  0.7510
  936MOL0     H26320  11.151   9.651   4.657 -2.4788  0.6508  0.6095
  936MOL0     H26321  11.126   9.427   4.654 -1.6734  3.1206 -0.1075
  936MOL0     H26322  11.049   9.338   4.521  0.3558 -1.8065  1.0270
  936MOL0     H26323  11.223   9.348   4.524 -1.6238 -2.2329 -2.7134
  936MOL0     H26324  10.811   9.377   3.979 -2.2452 -0.3578  2.4419
  936MOL0     H26325  10.697   9.175   3.891 -0.3074  1.0014  0.4077
  936MOL0     H26326  10.839   8.793   4.052 -0.7382 -2.5784 -1.1510
  936MOL0     H26327  10.684   8.813   4.138 -2.5900 -4.6097 -0.5878
  936MOL0     H26328  10.565   8.688   3.987 -0.3496 -1.9752 -0.8574
  936MOL0     H26329  10.669   8.713   3.853 -2.1134 -2.5824 -0.2595
  936MOL0     H26330  10.764   8.553   4.094  2.2213 -0.2970 -0.2686
  936MOL0     H26331  10.841   8.577   3.929 -2.2595 -2.2699 -4.3090
  936MOL0     H26332  10.567   8.474   3.943 -1.1321 -0.8629 -1.5818
  936MOL0     H26333  10.669   8.478   3.806 -1.4805 -3.7159 -0.4319
  936MOL0     H26334  10.649   8.257   3.910  2.0671  0.1793 -2.4351
  936MOL0     H26335  10.754   8.295   4.038 -2.0454 -1.3112  0.0777
  936MOL0     H26336  10.810   8.306   3.733 -2.4077  1.9045  0.8492
  936MOL0     H26337  10.920   8.379   3.843 -1.8028  1.3592  1.4603
  936MOL0     H26338  10.821   8.088   3.815  0.3346 -0.6145  1.3669
  936MOL0     H26339  10.920   8.125   3.950  0.5727 -4.3708 -0.6778
  936MOL0     H26340  11.030   8.215   3.671  0.8318  0.3648  0.2186
  936MOL0     H26341  11.034   8.054   3.726 -2.5001  0.4627 -0.4545
  936MOL0     H26342  10.915   8.944   4.201  4.1042  0.0724 -0.0607
  936MOL0     H26343  10.988   9.153   4.302 -1.4255  0.7915  0.0459
  936MOL0     H26344  11.071   9.652   4.158  0.4246  1.8125 -0.4282
  936MOL0     H26345  11.135   9.860   4.270  0.4483 -2.3816 -4.0806
  936MOL0     H26346  11.099  10.670   5.922  1.5547  0.6391 -0.2193
  936MOL0     H26347  11.301  10.618   6.070  0.8300 -1.6279  0.7780
  936MOL0     H26348  11.542  10.055   6.298  2.1543  0.0193  1.1566
  936MOL0     H26349  11.729  10.054   6.453 -0.2991  1.1076  1.3311
  936MOL0     H26350  11.991  10.197   6.651 -0.3378 -1.4358  0.0396
  936MOL0     H26351  11.884  10.075   6.586 -0.6428 -0.1916  2.9218
  936MOL0     H26352  11.901  10.220   6.357 -1.5217 -1.7801  0.2002
  936MOL0     H26353  12.043  10.127   6.421  0.0155  1.3372  1.3853
  936MOL0     H26354  12.121  10.343   6.514 -0.5842  2.1816  0.8756
  936MOL0     H26355  11.983  10.427   6.463  0.2974  0.1093  0.0704
  936MOL0     H26356  12.152  10.462   6.312 -1.8082  1.0641  0.8717
  936MOL0     H26357  12.028  10.372   6.219  0.0327 -1.6725  0.1794
  936MOL0     H26358  12.354  10.115   6.168 -1.6789 -2.3835  1.2303
  936MOL0     H26359  11.635  10.436   6.586 -0.2738  1.0067 -1.5240
  936MOL0     H26360  11.431  10.447   6.450 -3.2382 -2.0101  3.1152
  937MOL0     O26361   7.703   5.481  10.530 -0.4835  0.8802  0.1624
  937MOL0     C26362   7.758   5.462  10.425  0.9504 -0.4870 -0.2376
  937MOL0     O26363   7.786   5.549  10.333 -0.1398 -0.2501  0.4774
  937MOL0     C26364   7.735   5.678  10.355 -0.8371 -0.2835  0.0693
  937MOL0     C26365   7.811   5.766  10.432 -0.3631  0.0538  0.0836
  937MOL0     C26366   7.760   5.881  10.468 -0.1898  0.2497  0.8601
  937MOL0     C26367   7.629   5.925  10.418  0.1972 -0.4401 -0.8800
  937MOL0     O26368   7.589   6.045  10.470  0.0485 -0.0396  0.4081
  937MOL0     C26369   7.461   6.091  10.427  0.2670  0.2130 -0.0873
  937MOL0     C26370   7.420   6.230  10.495 -0.1508  0.2369  0.2113
  937MOL0     C26371   7.501   6.337  10.432  0.2887 -0.4128  1.3836
  937MOL0     C26372   7.490   6.467  10.516 -0.9732 -0.2217 -0.7284
  937MOL0     C26373   7.620   6.532  10.520 -1.1299  0.3116  0.8932
  937MOL0     C26374   7.617   6.678  10.562 -0.1868 -1.3296 -0.2326
  937MOL0     C26375   7.532   6.694  10.686 -0.0900  0.9882  0.0898
  937MOL0     C26376   7.566   6.819  10.761 -0.2588  0.0471  0.2312
  937MOL0     N26377   7.500   6.816  10.893 -0.0608 -0.5967  0.5204
  937MOL0     C26378   7.364   6.832  10.921 -0.2086 -0.9483 -1.5056
  937MOL0     C26379   7.362   6.844  11.061  0.1455 -0.0421  0.2536
  937MOL0     C26380   7.242   6.874  11.139 -0.6783 -0.8486 -0.0055
  937MOL0     C26381   7.189   6.751  11.215 -0.1542  0.2196 -0.2603
  937MOL0     C26382   7.102   6.668  11.119 -0.2519 -0.4439  0.5559
  937MOL0     C26383   6.959   6.646  11.173 -0.4381 -0.1376  0.1990
  937MOL0     O26384   6.882   6.759  11.126 -0.8144 -0.2471  0.1772
  937MOL0     C26385   6.755   6.771  11.173 -0.5471 -0.5371 -0.0343
  937MOL0     C26386   6.708   6.901  11.207 -0.2267  0.3581 -0.6011
  937MOL0     C26387   6.589   6.930  11.267  0.1377  0.7924  0.1291
  937MOL0     C26388   6.554   7.070  11.311 -0.1647 -0.1378  0.1838
  937MOL0     C26389   6.499   6.815  11.282 -0.9593 -1.0615 -0.5723
  937MOL0     C26390   6.366   6.833  11.344  0.6588 -0.4690 -1.0236
  937MOL0     O26391   6.348   6.936  11.432 -0.4365  1.2589 -0.2346
  937MOL0     C26392   6.224   6.971  11.477 -0.4826 -0.0764  0.7031
  937MOL0     C26393   6.165   7.080  11.422 -0.8118  0.2764 -0.1619
  937MOL0     C26394   6.035   7.126  11.468  0.9940  0.3760 -0.2589
  937MOL0     C26395   5.958   7.042  11.570 -0.0693 -0.8371  0.0093
  937MOL0     O26396   5.837   7.096  11.613  0.1833  0.2146  0.7257
  937MOL0     C26397   5.788   7.055  11.742 -0.7871 -0.5310 -0.2262
  937MOL0     C26398   5.651   7.132  11.773  0.8161 -0.1816 -0.6569
  937MOL0     C26399   5.642   7.131  11.925  0.7960  0.0801 -0.6261
  937MOL0     C26400   5.496   7.111  11.968  0.8243  0.4733  0.3620
  937MOL0     C26401   5.504   7.080  12.119  0.5389  0.6008 -0.2220
  937MOL0     C26402   5.388   7.127  12.199  0.3869 -0.7326 -0.9779
  937MOL0     C26403   5.262   7.054  12.141 -1.5145 -0.4004 -0.7187
  937MOL0     C26404   5.144   7.059  12.238  0.6057  0.2773 -0.4859
  937MOL0    Cl26405   5.022   6.944  12.181 -0.4900 -0.3430 -0.2407
  937MOL0     C26406   6.022   6.928  11.613 -0.3718 -0.6553  0.0461
  937MOL0     C26407   6.147   6.892  11.565  0.0932 -0.4414  0.4564
  937MOL0     O26408   6.281   6.756  11.311  0.0165 -0.0990 -0.4001
  937MOL0     C26409   6.541   6.687  11.240  0.4187 -1.0012 -0.4769
  937MOL0     C26410   6.665   6.660  11.186 -0.1331  0.5929 -1.0872
  937MOL0     N26411   7.500   6.842  11.103  0.2278 -0.5223  0.0680
  937MOL0     N26412   7.573   6.821  11.001  0.3593 -0.6183  0.0498
  937MOL0     C26413   7.553   5.846  10.335 -0.0077  0.6529  0.2357
  937MOL0     C26414   7.608   5.715  10.302  0.2130 -0.7041 -0.8413
  937MOL0     C26415   7.765   5.322  10.388 -0.4150  0.8567  0.4428
  937MOL0     C26416   7.735   5.225  10.484 -0.1438 -0.8414  0.3653
  937MOL0     C26417   7.773   5.087  10.457 -0.4836 -0.0571  0.0032
  937MOL0     C26418   7.842   5.049  10.347 -0.2827  0.3828  0.0109
  937MOL0     O26419   7.852   4.910  10.320 -0.1892 -0.2562  0.2149
  937MOL0     C26420   7.991   4.876  10.304  0.3496 -0.0312  0.0098
  937MOL0     C26421   8.062   4.889  10.445  0.6663 -0.8233  0.3067
  937MOL0     C26422   8.181   4.794  10.467 -0.2715  0.0855 -0.1842
  937MOL0     C26423   8.294   4.802  10.365  0.9068 -0.6211  0.1310
  937MOL0     C26424   8.383   4.908  10.395  0.7847 -0.1372  0.7922
  937MOL0     C26425   8.463   4.995  10.406 -0.1111 -0.2997  0.1873
  937MOL0     C26426   7.878   5.150  10.263  0.0358  0.1165 -0.2647
  937MOL0     C26427   7.846   5.283  10.281  1.0104  0.7697  0.2919
  937MOL0     H26428   7.914   5.744  10.461  0.7080  0.2316 -3.1469
  937MOL0     H26429   7.810   5.940  10.546 -1.2149 -0.1041  1.8060
  937MOL0     H26430   7.473   6.110  10.320  5.2383  0.6028  0.3350
  937MOL0     H26431   7.381   6.019  10.450  2.3268 -1.7232  1.3915
  937MOL0     H26432   7.313   6.252  10.483  0.3454  2.4800 -0.5395
  937MOL0     H26433   7.441   6.223  10.602 -2.4384 -2.3958  0.6114
  937MOL0     H26434   7.605   6.305  10.421 -0.4364 -2.6264  0.2266
  937MOL0     H26435   7.473   6.360  10.329  1.7159 -1.2892  0.7720
  937MOL0     H26436   7.426   6.547  10.476  0.9028  1.3434 -0.7493
  937MOL0     H26437   7.453   6.439  10.615  0.2496 -1.6172 -0.6392
  937MOL0     H26438   7.692   6.468  10.572 -0.9606 -0.7162 -0.5528
  937MOL0     H26439   7.649   6.536  10.414 -1.0649 -0.7839  0.8589
  937MOL0     H26440   7.720   6.711  10.575 -0.2521 -1.3182  0.2679
  937MOL0     H26441   7.570   6.749  10.494 -0.3942  0.0827  1.3209
  937MOL0     H26442   7.428   6.694  10.652 -0.0330  1.9213 -0.1022
  937MOL0     H26443   7.537   6.605  10.750 -0.2336 -0.4245 -1.7910
  937MOL0     H26444   7.527   6.906  10.707  2.9053  0.5966 -1.4463
  937MOL0     H26445   7.673   6.837  10.776 -0.3464  1.3034 -0.5053
  937MOL0     H26446   7.283   6.854  10.853 -2.0387  0.8440  1.0739
  937MOL0     H26447   7.277   6.945  11.214 -1.6537 -0.3106 -0.0413
  937MOL0     H26448   7.176   6.930  11.072  1.2285  2.6565  0.7857
  937MOL0     H26449   7.138   6.779  11.308 -2.3762 -2.0863 -0.6473
  937MOL0     H26450   7.277   6.693  11.244 -1.5144 -1.4148  0.8759
  937MOL0     H26451   7.149   6.569  11.117 -1.1849 -0.8925 -0.1975
  937MOL0     H26452   7.105   6.697  11.013 -0.2580  1.5145  1.0708
  937MOL0     H26453   6.956   6.642  11.282 -2.0749 -1.8396  0.1474
  937MOL0     H26454   6.925   6.547  11.141  1.1632 -1.2407  1.6912
  937MOL0     H26455   6.768   6.991  11.191 -1.4151  1.7421  2.1684
  937MOL0     H26456   6.453   7.095  11.279 -2.2685  0.6044  6.1692
  937MOL0     H26457   6.556   7.061  11.420 -3.2147  1.5534  0.4967
  937MOL0     H26458   6.637   7.130  11.272  0.8622  0.9430  3.6636
  937MOL0     H26459   6.216   7.133  11.342 -1.9457 -1.9933 -2.5383
  937MOL0     H26460   5.986   7.211  11.422 -0.0334 -1.0314 -1.9049
  937MOL0     H26461   5.765   6.950  11.760 -1.6038 -0.8250 -2.6411
  937MOL0     H26462   5.864   7.089  11.812  2.4880 -5.2453 -1.0327
  937MOL0     H26463   5.652   7.232  11.728  1.0298 -2.3039 -6.1651
  937MOL0     H26464   5.571   7.078  11.722  0.1596 -0.7759  0.9418
  937MOL0     H26465   5.670   7.230  11.962  0.3556  0.7370 -1.9789
  937MOL0     H26466   5.709   7.057  11.970  1.9848  1.0585 -0.7433
  937MOL0     H26467   5.430   7.189  11.930 -0.2929 -0.0853  1.0763
  937MOL0     H26468   5.453   7.021  11.922  0.4049 -1.3224  3.8953
  937MOL0     H26469   5.589   7.137  12.156  1.4874 -0.1446 -1.2054
  937MOL0     H26470   5.532   6.976  12.130 -0.4542  0.5283  2.1320
  937MOL0     H26471   5.403   7.106  12.305 -0.4867  0.3403 -0.6250
  937MOL0     H26472   5.386   7.235  12.184  0.0858 -0.4412  0.9593
  937MOL0     H26473   5.291   6.952  12.114 -3.0615 -1.2039  0.5448
  937MOL0     H26474   5.237   7.113  12.052  0.0041  0.5551 -0.5605
  937MOL0     H26475   5.086   7.151  12.250 -0.9946 -0.8921  1.4905
  937MOL0     H26476   5.185   7.032  12.336  0.0617  0.7345 -0.1304
  937MOL0     H26477   5.985   6.870  11.697 -1.2211  0.0152  0.1522
  937MOL0     H26478   6.190   6.798  11.598  3.0059  0.2961 -0.9501
  937MOL0     H26479   6.474   6.602  11.241  0.5203 -1.1209 -1.9084
  937MOL0     H26480   6.681   6.556  11.159 -1.1294 -0.7311  2.8376
  937MOL0     H26481   7.451   5.857  10.300  0.6962  5.5598 -0.9341
  937MOL0     H26482   7.540   5.646  10.253 -2.9472 -0.4336  2.7452
  937MOL0     H26483   7.692   5.245  10.581  3.0712 -0.7277  1.9125
  937MOL0     H26484   7.751   5.005  10.525  1.0287  0.8912  1.7143
  937MOL0     H26485   7.983   4.770  10.277  1.1531 -0.8631  2.7395
  937MOL0     H26486   8.038   4.936  10.226  1.0097 -0.3398  0.1579
  937MOL0     H26487   7.988   4.880  10.525 -1.4874 -0.9909 -1.5957
  937MOL0     H26488   8.111   4.986  10.459  0.0203 -0.8854  4.0096
  937MOL0     H26489   8.140   4.693  10.472 -2.3419  0.9251  2.5257
  937MOL0     H26490   8.215   4.818  10.569 -3.1104  3.8935  0.1148
  937MOL0     H26491   8.256   4.815  10.263  0.0703 -2.7779  0.1209
  937MOL0     H26492   8.363   4.718  10.355  2.6009  0.7956 -0.7734
  937MOL0     H26493   8.534   5.073  10.423 -0.9897  2.0819 -5.0122
  937MOL0     H26494   7.922   5.136  10.164  1.7799  4.4434 -0.3381
  937MOL0     H26495   7.870   5.360  10.208 -2.3806 -0.4114 -2.3169
  938MOL0     O26496   8.763   2.708   0.676  0.8481 -0.3135 -0.5936
  938MOL0     C26497   8.858   2.695   0.753  0.2500 -0.0431  1.2010
  938MOL0     O26498   8.953   2.784   0.789  1.1093 -0.5204  0.4067
  938MOL0     C26499   8.961   2.895   0.705  0.2748  0.2966  0.0599
  938MOL0     C26500   9.004   3.011   0.766 -0.0371 -0.0467 -1.5519
  938MOL0     C26501   9.029   3.126   0.697 -0.0543  0.5161 -0.2614
  938MOL0     C26502   9.021   3.127   0.560  0.0956 -1.2359 -0.2700
  938MOL0     O26503   9.050   3.239   0.488  0.8538  0.5507 -0.6867
  938MOL0     C26504   9.158   3.223   0.397  0.5596  0.3561  0.4481
  938MOL0     C26505   9.214   3.368   0.375  0.0191  0.8972  0.5400
  938MOL0     C26506   9.290   3.385   0.251  1.1039 -0.3729  0.8225
  938MOL0     C26507   9.433   3.351   0.250  0.4821 -0.0275  0.3469
  938MOL0     C26508   9.493   3.342   0.105  0.2873 -0.0049 -1.1198
  938MOL0     C26509   9.634   3.399   0.100 -0.3654 -0.0131 -0.4230
  938MOL0     C26510   9.711   3.381  -0.037 -0.2031 -0.2409 -0.7034
  938MOL0     C26511   9.637   3.471  -0.139  0.3598 -0.4408 -0.5382
  938MOL0     N26512   9.706   3.484  -0.267  0.4537 -0.5553  0.0496
  938MOL0     C26513   9.833   3.536  -0.283 -0.4372 -0.5409 -0.2533
  938MOL0     C26514   9.844   3.556  -0.419 -0.3231  0.4602  0.2160
  938MOL0     C26515   9.972   3.605  -0.470  0.4366  0.6655 -0.6816
  938MOL0     C26516   9.967   3.699  -0.589 -0.1682  0.4798 -0.5532
  938MOL0     C26517  10.099   3.718  -0.663  0.6623 -1.1348  1.6263
  938MOL0     C26518  10.079   3.794  -0.795  0.2752  0.0164  0.8548
  938MOL0     O26519  10.199   3.799  -0.872 -0.0503 -0.5868 -0.1444
  938MOL0     C26520  10.211   3.900  -0.959 -0.5532 -0.1241 -0.1248
  938MOL0     C26521  10.328   3.907  -1.034 -0.7910  0.5978  0.0528
  938MOL0     C26522  10.354   4.011  -1.119 -0.0486 -0.9255  0.3001
  938MOL0     C26523  10.488   4.006  -1.188  0.3207 -0.3489  0.1344
  938MOL0     C26524  10.253   4.116  -1.142 -0.1579  0.3276 -0.0095
  938MOL0     C26525  10.259   4.223  -1.246  0.0956  0.2333 -0.0051
  938MOL0     O26526  10.147   4.278  -1.288  0.0611  0.4181  0.2978
  938MOL0     C26527  10.142   4.371  -1.393  0.0894 -0.0972 -0.3838
  938MOL0     C26528  10.232   4.476  -1.410  0.1996 -0.7225 -0.8032
  938MOL0     C26529  10.196   4.596  -1.485  0.0612  0.3529  0.8006
  938MOL0     C26530  10.064   4.605  -1.546 -0.0780  0.0949  0.3870
  938MOL0     O26531  10.034   4.724  -1.619  0.0186  0.7017 -0.1291
  938MOL0     C26532   9.904   4.744  -1.683 -0.2299 -0.9350  0.0238
  938MOL0     C26533   9.926   4.866  -1.768  0.5412 -0.1000  0.9199
  938MOL0     C26534   9.962   4.986  -1.691 -0.3210  0.0466  0.1595
  938MOL0     C26535   9.906   5.117  -1.749  1.0437  0.4570 -0.2849
  938MOL0     C26536  10.007   5.201  -1.826 -0.5526 -0.3410 -0.4539
  938MOL0     C26537   9.946   5.337  -1.877  0.2164 -0.1572 -0.0743
  938MOL0     C26538   9.854   5.310  -1.992  1.0624  0.4275 -0.3089
  938MOL0     C26539   9.777   5.435  -2.037  0.7512 -0.2970 -0.0579
  938MOL0    Cl26540   9.679   5.509  -1.909  0.3221 -0.1811  0.0777
  938MOL0     C26541   9.993   4.486  -1.536  0.3606 -1.1484  0.6759
  938MOL0     C26542  10.024   4.378  -1.460  0.1622 -0.3950 -0.4771
  938MOL0     O26543  10.370   4.255  -1.283  0.6828 -0.1137  0.1849
  938MOL0     C26544  10.124   4.087  -1.086  0.3507  0.9873 -0.8314
  938MOL0     C26545  10.103   3.984  -1.001  0.1638  0.6592 -0.3764
  938MOL0     N26546   9.728   3.532  -0.484 -0.3284 -0.1361 -0.7602
  938MOL0     N26547   9.642   3.483  -0.393 -0.1487  0.4494  0.1917
  938MOL0     C26548   8.985   3.009   0.491  0.3800 -0.5409  0.4223
  938MOL0     C26549   8.962   2.896   0.562  0.4883 -0.3135  0.1862
  938MOL0     C26550   8.876   2.569   0.815  0.1636 -1.0722 -0.2312
  938MOL0     C26551   8.778   2.465   0.817  0.3603 -1.0352 -0.0742
  938MOL0     C26552   8.773   2.365   0.916  0.3427  0.0834 -0.4728
  938MOL0     C26553   8.891   2.352   0.995  0.7320  0.5973 -0.5874
  938MOL0     O26554   8.920   2.254   1.087  0.6446  0.3185 -0.4275
  938MOL0     C26555   8.839   2.136   1.109  0.1730 -0.5535  0.4311
  938MOL0     C26556   8.913   2.007   1.139 -0.6576  0.3444 -0.1000
  938MOL0     C26557   8.829   1.902   1.203  0.2829 -0.7131 -0.6124
  938MOL0     C26558   8.809   1.949   1.352 -0.1267  0.0600  0.0218
  938MOL0     C26559   8.741   1.847   1.432  0.0850  0.8820  0.2014
  938MOL0     C26560   8.676   1.766   1.488  0.5127 -0.8656  0.4924
  938MOL0     C26561   9.003   2.432   0.971  0.3545 -0.6087 -0.2856
  938MOL0     C26562   8.992   2.550   0.899  0.5384 -0.1010  0.5622
  938MOL0     H26563   9.039   3.018   0.868 -2.2764  1.9876 -0.8260
  938MOL0     H26564   9.064   3.219   0.742  0.4178 -0.3697  1.2649
  938MOL0     H26565   9.233   3.152   0.432  0.0056 -0.9624 -0.9273
  938MOL0     H26566   9.113   3.190   0.303 -1.5826  3.3587  0.2814
  938MOL0     H26567   9.129   3.437   0.375 -1.3421 -0.6614 -1.2779
  938MOL0     H26568   9.279   3.389   0.461 -1.0419  3.7191  0.7539
  938MOL0     H26569   9.234   3.340   0.168  1.5841  1.2485 -0.4439
  938MOL0     H26570   9.284   3.493   0.231  4.1089 -0.2266  0.1866
  938MOL0     H26571   9.475   3.430   0.313  0.6775 -0.0485  0.2454
  938MOL0     H26572   9.447   3.255   0.300 -1.2966  0.3761  1.7414
  938MOL0     H26573   9.486   3.238   0.074  0.0750  0.1023 -1.4360
  938MOL0     H26574   9.418   3.397   0.047  0.4456  2.3268  0.7452
  938MOL0     H26575   9.632   3.506   0.122  1.4701 -0.3238  1.4431
  938MOL0     H26576   9.696   3.345   0.171  0.0329 -1.4776 -1.8128
  938MOL0     H26577   9.816   3.409  -0.040 -0.1704 -0.1599  0.5120
  938MOL0     H26578   9.726   3.277  -0.067  2.1594  0.5538 -2.5863
  938MOL0     H26579   9.642   3.571  -0.096 -1.3093  0.3228 -1.9907
  938MOL0     H26580   9.530   3.453  -0.146 -0.0687  1.7935 -0.4787
  938MOL0     H26581   9.905   3.564  -0.207 -0.4442 -0.5804 -0.2329
  938MOL0     H26582  10.011   3.653  -0.380 -2.7673 -0.6121  1.5850
  938MOL0     H26583  10.035   3.521  -0.501 -0.7705 -1.7758  2.7559
  938MOL0     H26584   9.917   3.789  -0.550  0.3904  0.4031  0.3795
  938MOL0     H26585   9.895   3.659  -0.660 -0.2168 -0.4210 -0.0120
  938MOL0     H26586  10.138   3.621  -0.695 -0.0677 -0.5419 -1.4420
  938MOL0     H26587  10.170   3.775  -0.602  0.1266  3.4502 -1.4818
  938MOL0     H26588  10.046   3.895  -0.767 -1.8478 -0.9798  2.3116
  938MOL0     H26589  10.005   3.742  -0.856  0.8766  2.4461 -2.1542
  938MOL0     H26590  10.400   3.828  -1.015 -0.5137  0.7662 -0.2585
  938MOL0     H26591  10.526   3.903  -1.183  1.7364  0.2114  2.0892
  938MOL0     H26592  10.480   4.041  -1.291 -0.2752  0.6532  0.5085
  938MOL0     H26593  10.558   4.066  -1.128 -3.1719  1.2884  2.9230
  938MOL0     H26594  10.332   4.489  -1.370  1.3868  1.3482 -3.9627
  938MOL0     H26595  10.268   4.678  -1.491  0.1392  0.2048 -0.4685
  938MOL0     H26596   9.869   4.671  -1.757  1.0270 -1.6531  0.1173
  938MOL0     H26597   9.819   4.766  -1.618 -0.3623  3.1970 -1.2133
  938MOL0     H26598  10.007   4.848  -1.840 -0.9774 -1.7098 -0.4837
  938MOL0     H26599   9.838   4.884  -1.832 -1.0542 -0.0060  3.0352
  938MOL0     H26600  10.071   4.993  -1.679 -0.0686 -3.0370  0.4814
  938MOL0     H26601   9.929   4.969  -1.588 -2.7143  1.3779 -0.3090
  938MOL0     H26602   9.821   5.096  -1.815 -0.7190 -0.4000  2.1215
  938MOL0     H26603   9.871   5.168  -1.659  1.1168 -0.3492  0.2165
  938MOL0     H26604  10.056   5.163  -1.916  0.4479  3.5828 -1.7820
  938MOL0     H26605  10.088   5.232  -1.758 -1.5213  0.4844  0.3593
  938MOL0     H26606   9.885   5.390  -1.803  0.0938  1.9655 -1.6250
  938MOL0     H26607  10.028   5.400  -1.913  0.2518  0.3525  0.8596
  938MOL0     H26608   9.783   5.231  -1.968  1.5416  0.1556  0.2640
  938MOL0     H26609   9.917   5.266  -2.069 -2.2604 -0.9464 -2.4560
  938MOL0     H26610   9.712   5.402  -2.118  0.6245 -0.1642 -0.0121
  938MOL0     H26611   9.846   5.511  -2.077 -1.1355  1.6749  0.2528
  938MOL0     H26612   9.912   4.470  -1.606  0.1547 -0.1864  0.6850
  938MOL0     H26613   9.958   4.293  -1.452  0.3023 -0.4232  0.5089
  938MOL0     H26614  10.050   4.162  -1.114 -0.0258  0.7130 -0.5853
  938MOL0     H26615  10.004   3.984  -0.958 -0.1356 -0.6543 -0.9958
  938MOL0     H26616   8.987   3.015   0.383  2.5982 -2.1080  0.2923
  938MOL0     H26617   8.919   2.810   0.511 -3.2086  1.6615 -0.3044
  938MOL0     H26618   8.709   2.476   0.734 -1.6592 -0.0181  1.6756
  938MOL0     H26619   8.693   2.294   0.934  0.2806  0.0301 -0.9530
  938MOL0     H26620   8.768   2.154   1.190 -0.7307  1.1993 -0.6817
  938MOL0     H26621   8.780   2.122   1.018  4.0568  3.3490 -3.1942
  938MOL0     H26622   8.989   2.038   1.211 -0.4076 -1.1108  0.3076
  938MOL0     H26623   8.970   1.959   1.058  1.8478 -0.3519  1.9553
  938MOL0     H26624   8.893   1.813   1.196  1.1606 -0.2451  1.0097
  938MOL0     H26625   8.739   1.884   1.144  0.6988 -0.3373 -1.3765
  938MOL0     H26626   8.740   2.034   1.351 -0.1918  0.2075 -4.8682
  938MOL0     H26627   8.899   1.991   1.398 -0.1243 -0.8275  0.8517
  938MOL0     H26628   8.619   1.693   1.543 -0.8805  0.2509  0.6078
  938MOL0     H26629   9.101   2.415   1.015  0.6534 -1.7150 -1.3257
  938MOL0     H26630   9.081   2.612   0.899  1.5315 -1.3962  2.8600
  939MOL0     O26631   0.779   5.361   8.568  0.4289 -0.3316  0.0008
  939MOL0     C26632   0.896   5.325   8.580 -0.6291 -0.6683  0.3905
  939MOL0     O26633   0.964   5.247   8.494 -0.1172  0.1614 -0.2122
  939MOL0     C26634   0.897   5.196   8.386 -0.1648  0.7335 -0.8278
  939MOL0     C26635   0.945   5.216   8.251  0.6304  0.1873 -0.1028
  939MOL0     C26636   0.876   5.168   8.136 -0.2890 -0.1520  0.6356
  939MOL0     C26637   0.754   5.102   8.146 -0.2875  0.3011  0.7792
  939MOL0     O26638   0.686   5.046   8.044  0.3859 -1.1831  1.5506
  939MOL0     C26639   0.730   5.064   7.911  0.8346  0.1341  0.9697
  939MOL0     C26640   0.611   5.048   7.808  0.6610  0.0553  0.3814
  939MOL0     C26641   0.659   5.025   7.662  0.6831  0.0887  0.1033
  939MOL0     C26642   0.526   5.008   7.572 -0.6836 -0.5129 -0.3961
  939MOL0     C26643   0.476   4.861   7.565  0.9707  0.1140 -0.2239
  939MOL0     C26644   0.578   4.751   7.509 -0.7506 -0.4760 -0.6106
  939MOL0     C26645   0.510   4.614   7.513 -0.2289 -0.7925 -0.0202
  939MOL0     C26646   0.593   4.520   7.421 -0.6289  0.1102  0.5793
  939MOL0     N26647   0.542   4.386   7.417 -0.4125 -0.3547 -0.5555
  939MOL0     C26648   0.526   4.301   7.525  0.6483 -1.2296  0.3465
  939MOL0     C26649   0.483   4.188   7.471  0.3032 -0.2139 -0.1005
  939MOL0     C26650   0.450   4.072   7.555 -0.3008  0.4305  0.2663
  939MOL0     C26651   0.310   4.034   7.582 -0.1616 -0.7180  0.0116
  939MOL0     C26652   0.237   4.131   7.682 -0.1832  0.9285 -0.1970
  939MOL0     C26653   0.102   4.063   7.735  0.1070 -0.1293  0.7881
  939MOL0     O26654   0.114   3.935   7.805  0.3573 -0.6736 -0.8785
  939MOL0     C26655   0.102   3.810   7.736  0.3282 -0.2302 -0.1012
  939MOL0     C26656   0.023   3.785   7.616  0.1156 -0.1154 -0.1728
  939MOL0     C26657   0.004   3.655   7.563 -0.4095 -0.6400 -0.6099
  939MOL0     C26658  -0.102   3.637   7.457  0.6284 -0.0700 -0.0699
  939MOL0     C26659   0.063   3.542   7.627 -0.3669 -0.3134  0.0237
  939MOL0     C26660   0.049   3.403   7.585  0.6300  0.2657  0.9395
  939MOL0     O26661  -0.023   3.326   7.668  0.6415  0.0788  0.3485
  939MOL0     C26662  -0.112   3.368   7.760 -0.3383 -0.0656  0.8435
  939MOL0     C26663  -0.106   3.310   7.883  0.5626 -0.1831 -0.4617
  939MOL0     C26664  -0.194   3.330   7.983 -0.0349 -0.6671 -0.2958
  939MOL0     C26665  -0.300   3.420   7.966  0.3811  0.5598  0.6170
  939MOL0     O26666  -0.403   3.453   8.041  1.2372  0.0634 -0.0163
  939MOL0     C26667  -0.420   3.388   8.164 -0.4113  0.1396 -0.4895
  939MOL0     C26668  -0.554   3.407   8.230  0.2750 -0.6120 -0.4830
  939MOL0     C26669  -0.567   3.549   8.279 -0.0613 -1.0803  0.0263
  939MOL0     C26670  -0.713   3.598   8.267  0.2572  0.3722  0.8736
  939MOL0     C26671  -0.731   3.752   8.294  0.6816 -0.4425 -0.5241
  939MOL0     C26672  -0.879   3.784   8.330 -0.1393  0.4544  0.6442
  939MOL0     C26673  -0.914   3.724   8.475 -0.1276  0.1113  1.1060
  939MOL0     C26674  -1.060   3.701   8.505  0.4915  1.0608  0.1897
  939MOL0    Cl26675  -1.171   3.827   8.469 -0.4059  0.2480  0.1719
  939MOL0     C26676  -0.312   3.469   7.833  0.3298  0.1071  0.9053
  939MOL0     C26677  -0.223   3.430   7.730 -0.3929  0.3183  0.1163
  939MOL0     O26678   0.113   3.353   7.499 -0.2191  0.0207  0.0414
  939MOL0     C26679   0.140   3.569   7.742 -0.0786 -0.0528  0.3087
  939MOL0     C26680   0.161   3.700   7.792  0.2499  0.6044 -0.0078
  939MOL0     N26681   0.493   4.192   7.335 -0.3566  0.2450  0.1980
  939MOL0     N26682   0.528   4.308   7.305 -0.1202 -0.4183  0.9260
  939MOL0     C26683   0.702   5.082   8.279 -1.2391 -0.1738 -0.0948
  939MOL0     C26684   0.773   5.132   8.394  0.6545 -0.0448 -0.3017
  939MOL0     C26685   0.973   5.378   8.691 -0.5544 -0.1522 -0.7472
  939MOL0     C26686   0.908   5.452   8.790  0.4645  0.3313 -0.6854
  939MOL0     C26687   0.986   5.506   8.888 -0.7043  0.9703  0.4468
  939MOL0     C26688   1.127   5.487   8.898 -0.1463  0.6505  0.1709
  939MOL0     O26689   1.207   5.549   8.991  0.0325 -0.7563  0.1622
  939MOL0     C26690   1.189   5.506   9.122 -0.5379 -0.1516  0.2809
  939MOL0     C26691   1.229   5.365   9.150 -0.2831  0.3862  0.7022
  939MOL0     C26692   1.372   5.315   9.102 -0.0865 -0.2534 -0.4634
  939MOL0     C26693   1.479   5.330   9.219 -0.1092 -0.0020  0.6702
  939MOL0     C26694   1.618   5.303   9.174 -0.7002  0.5227 -0.3871
  939MOL0     C26695   1.723   5.294   9.113  0.4522  0.3077 -0.3949
  939MOL0     C26696   1.184   5.404   8.805  1.3212  1.3219  1.0570
  939MOL0     C26697   1.108   5.350   8.700 -1.3930 -0.2149  0.2942
  939MOL0     H26698   1.040   5.265   8.237 -0.4158  2.2938 -0.2595
  939MOL0     H26699   0.926   5.176   8.039 -1.2729  2.2821  0.2495
  939MOL0     H26700   0.779   5.159   7.886 -3.3234  1.3049 -5.0277
  939MOL0     H26701   0.806   4.987   7.895  0.1628  0.0585 -2.7279
  939MOL0     H26702   0.549   4.969   7.851  0.6431  0.7054  1.6121
  939MOL0     H26703   0.549   5.137   7.812 -1.5610 -1.3914 -0.1540
  939MOL0     H26704   0.719   5.112   7.634 -1.0983  1.3408  0.0152
  939MOL0     H26705   0.726   4.939   7.670  1.4947  0.6753 -0.2568
  939MOL0     H26706   0.440   5.062   7.613 -0.9631 -1.1227 -0.1695
  939MOL0     H26707   0.546   5.051   7.473 -1.2591 -1.2307 -0.8395
  939MOL0     H26708   0.434   4.829   7.661  2.3070 -2.2095 -0.3231
  939MOL0     H26709   0.402   4.852   7.486 -1.1412  0.0231  1.6745
  939MOL0     H26710   0.599   4.786   7.407  0.2192  1.1947  0.1173
  939MOL0     H26711   0.672   4.731   7.561 -1.7953 -3.9670  0.1680
  939MOL0     H26712   0.492   4.569   7.612  0.6012  3.2719  2.1971
  939MOL0     H26713   0.406   4.620   7.478 -0.8593 -1.8150  1.5140
  939MOL0     H26714   0.696   4.515   7.456  0.9174  1.7074 -3.1771
  939MOL0     H26715   0.596   4.564   7.320 -2.3361 -2.2631 -0.6039
  939MOL0     H26716   0.532   4.325   7.631  2.7250  0.6844 -0.1244
  939MOL0     H26717   0.484   3.981   7.505 -0.9077  0.2354  0.2088
  939MOL0     H26718   0.502   4.090   7.650  0.9272  3.4726 -0.8335
  939MOL0     H26719   0.308   3.930   7.617  0.9190 -1.0007 -0.7350
  939MOL0     H26720   0.251   4.028   7.490  0.9161  0.9896 -0.8328
  939MOL0     H26721   0.211   4.226   7.634 -0.8386  0.5499 -0.6123
  939MOL0     H26722   0.307   4.150   7.764  1.6537 -0.2651 -1.4181
  939MOL0     H26723   0.025   4.063   7.658  0.2756 -0.2028  0.6197
  939MOL0     H26724   0.060   4.136   7.805 -0.1132 -0.2847  0.8180
  939MOL0     H26725  -0.023   3.871   7.569 -0.0008 -1.4208 -2.6760
  939MOL0     H26726  -0.180   3.564   7.483 -0.6413  0.4911 -2.1133
  939MOL0     H26727  -0.145   3.733   7.429 -1.3152 -0.0822  2.4781
  939MOL0     H26728  -0.045   3.601   7.371 -2.4881 -1.1885 -1.8593
  939MOL0     H26729  -0.030   3.236   7.904 -0.1190 -0.7605  0.0242
  939MOL0     H26730  -0.173   3.297   8.084 -1.2430  0.5499  0.3927
  939MOL0     H26731  -0.411   3.282   8.138 -0.9961  0.2529 -1.2054
  939MOL0     H26732  -0.342   3.423   8.232  0.8128 -0.3309 -1.5959
  939MOL0     H26733  -0.620   3.390   8.144  1.9923  2.8832 -2.7294
  939MOL0     H26734  -0.580   3.338   8.310 -4.1632  0.3677 -0.8200
  939MOL0     H26735  -0.497   3.611   8.222  0.7957 -1.8712  0.2020
  939MOL0     H26736  -0.538   3.559   8.384 -0.3644  1.7741 -0.0697
  939MOL0     H26737  -0.750   3.573   8.167 -2.6931  3.3470  1.0210
  939MOL0     H26738  -0.769   3.536   8.337  0.4073  1.5542  2.0685
  939MOL0     H26739  -0.702   3.807   8.203  3.0792 -1.4395 -0.4545
  939MOL0     H26740  -0.670   3.784   8.379 -1.6687  1.2171  0.6188
  939MOL0     H26741  -0.900   3.891   8.322 -1.2817  0.4298  2.5937
  939MOL0     H26742  -0.947   3.731   8.262 -0.8934 -0.8777  2.3279
  939MOL0     H26743  -0.887   3.804   8.544  2.4747 -0.2544  0.6294
  939MOL0     H26744  -0.843   3.643   8.495 -0.2519 -0.4303 -0.4747
  939MOL0     H26745  -1.067   3.674   8.611  2.4399 -0.9997 -0.1318
  939MOL0     H26746  -1.104   3.617   8.451 -1.6102  0.7342  2.2711
  939MOL0     H26747  -0.395   3.536   7.813 -1.0939 -1.4241  1.5225
  939MOL0     H26748  -0.242   3.463   7.629  3.0113  0.4078 -0.6108
  939MOL0     H26749   0.192   3.484   7.785  1.0516  0.5840  0.2344
  939MOL0     H26750   0.216   3.704   7.886  0.4054 -0.0351 -0.0627
  939MOL0     H26751   0.611   5.031   8.307 -2.4836  2.9273  2.0186
  939MOL0     H26752   0.740   5.111   8.495  6.1888 -2.7659  1.3805
  939MOL0     H26753   0.800   5.464   8.800  0.4448 -1.3514  4.8362
  939MOL0     H26754   0.941   5.563   8.968  1.9645  2.4931  0.9636
  939MOL0     H26755   1.252   5.571   9.184 -2.4879 -0.4042  2.6822
  939MOL0     H26756   1.087   5.528   9.154 -0.9002 -0.5494 -0.5742
  939MOL0     H26757   1.159   5.308   9.087  1.2141  1.8497 -2.5225
  939MOL0     H26758   1.203   5.343   9.254  0.7356  1.9699  1.3175
  939MOL0     H26759   1.396   5.362   9.006 -1.3936 -2.1507 -1.7863
  939MOL0     H26760   1.371   5.206   9.092  0.6877 -0.6810  3.0891
  939MOL0     H26761   1.461   5.263   9.303 -1.1564 -3.9249 -2.3358
  939MOL0     H26762   1.468   5.431   9.257 -2.0887  1.0562 -2.3308
  939MOL0     H26763   1.794   5.292   9.032  0.1467  2.3797 -0.7828
  939MOL0     H26764   1.293   5.398   8.805  1.2521 -0.3926  1.6691
  939MOL0     H26765   1.152   5.294   8.618 -0.5969  0.1990  0.4226
  940MOL0     O26766   9.337   9.751   9.432  0.2032 -0.2107 -0.0624
  940MOL0     C26767   9.375   9.874   9.443  0.2391  0.3680 -0.3391
  940MOL0     O26768   9.398   9.931   9.557 -0.0796  0.7999 -0.0361
  940MOL0     C26769   9.359   9.863   9.675 -0.1061 -0.2249 -0.2696
  940MOL0     C26770   9.454   9.791   9.747 -0.7378 -0.2542 -0.3300
  940MOL0     C26771   9.415   9.709   9.854  0.2058  0.8182  0.2312
  940MOL0     C26772   9.282   9.699   9.904 -0.0267 -0.3120 -0.9377
  940MOL0     O26773   9.262   9.618  10.014  0.2189 -0.9025 -0.5729
  940MOL0     C26774   9.149   9.534  10.020  0.2100  0.0085 -0.1844
  940MOL0     C26775   9.184   9.413   9.937  0.7414  0.3648 -0.9721
  940MOL0     C26776   9.066   9.303   9.936 -0.1606 -0.3858 -0.6973
  940MOL0     C26777   9.130   9.163   9.950 -1.1887 -0.3434 -0.6651
  940MOL0     C26778   9.048   9.043   9.937  0.1686 -0.3461 -0.1018
  940MOL0     C26779   8.917   9.070  10.014 -0.0625 -0.2688 -0.0218
  940MOL0     C26780   8.831   8.947  10.031  0.3564  1.1689 -0.2666
  940MOL0     C26781   8.743   8.900   9.906 -0.7854  0.0396 -0.6498
  940MOL0     N26782   8.794   8.788   9.826  0.2899  0.4539  0.1139
  940MOL0     C26783   8.807   8.784   9.692 -0.1849  0.0004  0.3280
  940MOL0     C26784   8.873   8.665   9.660 -0.5839 -0.4024 -0.2055
  940MOL0     C26785   8.923   8.618   9.523 -0.6987  0.7420 -0.7345
  940MOL0     C26786   8.926   8.737   9.424 -0.6711  0.5359 -0.5175
  940MOL0     C26787   8.895   8.701   9.283 -0.4731  0.0099  0.4574
  940MOL0     C26788   8.760   8.654   9.237 -0.1959  0.1259 -0.6612
  940MOL0     O26789   8.736   8.518   9.272 -0.1657 -0.3368  0.2433
  940MOL0     C26790   8.605   8.470   9.259 -0.3850 -0.6361 -1.2078
  940MOL0     C26791   8.515   8.519   9.163 -0.0174 -0.6051 -0.7732
  940MOL0     C26792   8.391   8.459   9.143 -0.1569 -0.3658  0.8035
  940MOL0     C26793   8.304   8.520   9.031  0.5340 -0.0930  0.4090
  940MOL0     C26794   8.357   8.358   9.230 -0.3216  0.6644  0.4059
  940MOL0     C26795   8.215   8.297   9.245 -0.6250 -0.5227  0.4253
  940MOL0     O26796   8.198   8.179   9.299 -0.2084  0.7234 -0.1497
  940MOL0     C26797   8.087   8.101   9.266 -0.1399 -0.2008 -0.3589
  940MOL0     C26798   7.999   8.126   9.164  1.4891 -0.6689 -0.1652
  940MOL0     C26799   7.881   8.044   9.147 -0.6235 -0.3378  0.0978
  940MOL0     C26800   7.844   7.941   9.235 -1.3741  0.0797 -0.5392
  940MOL0     O26801   7.727   7.872   9.210 -0.0178 -0.3628  0.2361
  940MOL0     C26802   7.653   7.787   9.296  0.8476  0.8808  0.3166
  940MOL0     C26803   7.509   7.801   9.268  0.1917  0.1071  0.1841
  940MOL0     C26804   7.472   7.752   9.123  0.0238 -0.8070 -0.2343
  940MOL0     C26805   7.505   7.860   9.018  0.1298 -0.4139  0.5234
  940MOL0     C26806   7.427   7.823   8.890  0.7022  0.2819  0.2070
  940MOL0     C26807   7.468   7.895   8.754  0.2472 -0.9471 -0.5850
  940MOL0     C26808   7.344   7.904   8.661 -0.6833 -0.2561  0.4308
  940MOL0     C26809   7.338   8.041   8.597  0.1289 -0.5480  0.0642
  940MOL0    Cl26810   7.472   8.056   8.475  0.3605  0.1868  0.5080
  940MOL0     C26811   7.930   7.936   9.349 -0.0817 -0.8160  0.1379
  940MOL0     C26812   8.044   8.015   9.369 -0.8202  0.4678  0.0937
  940MOL0     O26813   8.124   8.378   9.215 -0.5193 -0.6492  0.2450
  940MOL0     C26814   8.448   8.313   9.328  0.0741  0.1450 -0.0424
  940MOL0     C26815   8.571   8.371   9.340  0.6235  0.0125  0.1504
  940MOL0     N26816   8.926   8.619   9.780  0.7197  0.7785  0.4942
  940MOL0     N26817   8.874   8.686   9.875  0.3152  0.6377 -0.0919
  940MOL0     C26818   9.186   9.773   9.837 -0.0824 -0.3383  0.3151
  940MOL0     C26819   9.227   9.849   9.716 -0.3880 -0.1409  0.2559
  940MOL0     C26820   9.420   9.952   9.323 -0.4797  0.5886 -0.2726
  940MOL0     C26821   9.501  10.067   9.335 -0.3854  0.0352 -0.0735
  940MOL0     C26822   9.571  10.124   9.224  1.0737 -0.4480 -0.3947
  940MOL0     C26823   9.546  10.066   9.095 -0.8920 -0.7200  0.7586
  940MOL0     O26824   9.598  10.126   8.985  0.8179 -0.6614 -0.1175
  940MOL0     C26825   9.726  10.194   8.989 -0.4712  0.2268  0.0798
  940MOL0     C26826   9.709  10.346   8.960 -1.1496 -0.1639 -0.3057
  940MOL0     C26827   9.851  10.411   8.969  0.4443 -0.9159  1.1207
  940MOL0     C26828   9.878  10.479   9.108  0.6970 -0.6318 -0.2210
  940MOL0     C26829  10.016  10.521   9.118 -0.7960 -0.6950  0.0687
  940MOL0     C26830  10.131  10.550   9.131  0.5518 -0.3775 -0.5187
  940MOL0     C26831   9.460   9.951   9.078 -0.5320  0.4765  0.0134
  940MOL0     C26832   9.404   9.892   9.191 -0.2289  0.5623 -1.2031
  940MOL0     H26833   9.553   9.783   9.703 -0.0410  1.5215  0.8021
  940MOL0     H26834   9.488   9.645   9.902  0.6193  1.1971  0.1150
  940MOL0     H26835   9.116   9.498  10.118  1.0821 -2.9379 -0.8820
  940MOL0     H26836   9.059   9.580   9.976  0.3081  0.4467  0.0672
  940MOL0     H26837   9.192   9.445   9.832 -3.7390 -0.6228 -1.8208
  940MOL0     H26838   9.272   9.361   9.976  0.1675  1.1761  1.5511
  940MOL0     H26839   8.992   9.314  10.016  1.8939  0.3400  1.2565
  940MOL0     H26840   9.012   9.306   9.842 -0.1869  1.8091 -0.6761
  940MOL0     H26841   9.205   9.156   9.871  1.8747  3.3596  1.5166
  940MOL0     H26842   9.188   9.152  10.043 -0.7713  0.1440 -0.8681
  940MOL0     H26843   9.024   9.032   9.831 -2.5856 -1.4434  0.5614
  940MOL0     H26844   9.110   8.961   9.976 -1.2900  0.1541  3.7553
  940MOL0     H26845   8.945   9.102  10.115  0.7822 -2.6535  0.5609
  940MOL0     H26846   8.848   9.136   9.961 -0.3212 -1.7651 -1.6336
  940MOL0     H26847   8.895   8.866  10.068  0.4399  3.1063  4.4914
  940MOL0     H26848   8.760   8.963  10.112  0.7904 -0.9810  0.5989
  940MOL0     H26849   8.747   8.986   9.839 -1.4968 -0.9632 -2.0162
  940MOL0     H26850   8.639   8.882   9.933 -0.7465  1.7929  0.8874
  940MOL0     H26851   8.774   8.870   9.635 -0.9422 -0.0251  0.7203
  940MOL0     H26852   9.019   8.569   9.537 -0.5690  1.0583 -0.4913
  940MOL0     H26853   8.845   8.546   9.496  0.9193 -1.0339 -0.8285
  940MOL0     H26854   9.025   8.781   9.433 -0.5170  1.2667 -4.0551
  940MOL0     H26855   8.852   8.811   9.457  0.4124  1.3442  0.1669
  940MOL0     H26856   8.969   8.630   9.244  0.0693  1.7458 -1.9085
  940MOL0     H26857   8.923   8.793   9.230  1.4642 -0.4249  0.6510
  940MOL0     H26858   8.768   8.671   9.129 -2.1863  1.0293 -0.7110
  940MOL0     H26859   8.683   8.721   9.278 -0.3904 -0.7756  0.4810
  940MOL0     H26860   8.545   8.597   9.094  0.8086 -1.0990 -0.9973
  940MOL0     H26861   8.248   8.436   8.987 -0.2922  1.7852 -2.3465
  940MOL0     H26862   8.224   8.588   9.061 -2.4111 -2.6769 -0.9750
  940MOL0     H26863   8.363   8.573   8.956 -3.3970  3.3218 -0.6569
  940MOL0     H26864   8.016   8.201   9.087 -0.2816  0.0543  0.0899
  940MOL0     H26865   7.817   8.057   9.061  1.5954  0.5022 -1.5116
  940MOL0     H26866   7.682   7.682   9.284 -1.7046  0.3538 -2.2269
  940MOL0     H26867   7.662   7.813   9.402 -4.3806  0.1322  1.2356
  940MOL0     H26868   7.442   7.751   9.338  0.2282 -1.4566 -0.8495
  940MOL0     H26869   7.487   7.907   9.278  4.4351  0.9523  4.8842
  940MOL0     H26870   7.363   7.752   9.125 -0.1581  3.4098 -1.2297
  940MOL0     H26871   7.510   7.653   9.098  0.7361 -0.6204  0.0850
  940MOL0     H26872   7.459   7.954   9.048 -2.3703 -0.4135 -2.7096
  940MOL0     H26873   7.612   7.873   9.001 -0.3281  0.4808 -2.3455
  940MOL0     H26874   7.321   7.838   8.909  0.5949 -1.0818  0.8499
  940MOL0     H26875   7.423   7.715   8.872 -2.0087  0.3577 -0.0618
  940MOL0     H26876   7.520   7.990   8.767 -1.1603 -0.1045 -0.8653
  940MOL0     H26877   7.552   7.843   8.708  0.1278 -0.8917 -0.8657
  940MOL0     H26878   7.253   7.876   8.715 -0.4916 -1.1914  0.2806
  940MOL0     H26879   7.355   7.827   8.585  2.5584 -0.5160  1.0069
  940MOL0     H26880   7.333   8.127   8.665 -2.4647  1.2581 -2.1948
  940MOL0     H26881   7.251   8.048   8.531  0.2123  0.5633  0.0580
  940MOL0     H26882   7.909   7.856   9.418  1.1675 -1.3897 -0.1305
  940MOL0     H26883   8.109   7.997   9.454  0.5946  1.0362 -0.8376
  940MOL0     H26884   8.425   8.229   9.392 -4.3437  0.5995 -0.7287
  940MOL0     H26885   8.643   8.330   9.410 -1.5468 -2.5957  1.0144
  940MOL0     H26886   9.081   9.768   9.864 -0.0678 -0.7850  0.2889
  940MOL0     H26887   9.154   9.892   9.649 -2.7472 -0.5746  2.4142
  940MOL0     H26888   9.520  10.103   9.436  2.6611 -1.7500  0.1118
  940MOL0     H26889   9.637  10.207   9.246  0.0550  0.8563 -2.0635
  940MOL0     H26890   9.777  10.179   9.084  1.4683 -3.1630 -1.3199
  940MOL0     H26891   9.782  10.159   8.902 -2.7370  0.5257 -1.5926
  940MOL0     H26892   9.647  10.391   9.038  1.4884  0.8260  1.3828
  940MOL0     H26893   9.662  10.368   8.864 -0.5985 -0.6256 -0.6896
  940MOL0     H26894   9.858  10.477   8.882 -0.8317 -2.9895 -0.6823
  940MOL0     H26895   9.934  10.342   8.950  1.9978  1.2945 -0.6760
  940MOL0     H26896   9.850  10.414   9.191  0.9842 -2.1961 -1.2964
  940MOL0     H26897   9.823  10.573   9.100 -0.1376 -1.1809 -1.3373
  940MOL0     H26898  10.234  10.578   9.144 -0.2078  2.4517  0.0120
  940MOL0     H26899   9.441   9.903   8.983  0.5856 -0.3960  0.2104
  940MOL0     H26900   9.335   9.809   9.185  0.4426 -0.5878  3.3286
  941MOL0     O26901   2.211   7.327   2.749 -0.0703 -0.3590 -0.5471
  941MOL0     C26902   2.114   7.272   2.805  0.9626 -0.3098 -0.1907
  941MOL0     O26903   2.110   7.227   2.934 -1.0100 -0.7390 -0.2450
  941MOL0     C26904   2.233   7.204   2.993 -0.0047 -0.5221  0.2117
  941MOL0     C26905   2.275   7.292   3.087  0.4088 -0.6015  0.1999
  941MOL0     C26906   2.384   7.273   3.167  0.6434 -0.2706 -0.1519
  941MOL0     C26907   2.468   7.160   3.140  0.4872 -0.6133 -0.6166
  941MOL0     O26908   2.576   7.158   3.220 -0.7942 -0.0434 -0.1790
  941MOL0     C26909   2.662   7.034   3.216 -0.0184 -0.4819 -0.6835
  941MOL0     C26910   2.701   7.001   3.360  0.1390 -0.6120 -0.1849
  941MOL0     C26911   2.585   6.970   3.449 -0.4825 -0.2273 -0.6629
  941MOL0     C26912   2.633   6.952   3.585 -0.5634  0.4405 -1.1514
  941MOL0     C26913   2.515   6.894   3.676 -0.6068 -0.2494 -0.1568
  941MOL0     C26914   2.559   6.896   3.825 -0.6537 -0.3306  0.7057
  941MOL0     C26915   2.542   7.034   3.898  0.1151  0.4357  0.3787
  941MOL0     C26916   2.579   7.039   4.052 -0.5397 -0.2756  0.6707
  941MOL0     N26917   2.504   6.941   4.116 -0.3098  1.1857 -0.1375
  941MOL0     C26918   2.371   6.947   4.131 -0.4471  0.2781  0.4515
  941MOL0     C26919   2.337   6.829   4.194  0.0772 -0.2045 -0.3635
  941MOL0     C26920   2.185   6.788   4.212 -0.1281  0.5695  1.2101
  941MOL0     C26921   2.147   6.795   4.361 -0.4195 -0.9932  0.7147
  941MOL0     C26922   2.000   6.763   4.393 -0.2685 -0.3819 -0.0320
  941MOL0     C26923   1.901   6.837   4.305 -0.4754 -0.5293 -0.1454
  941MOL0     O26924   1.936   6.975   4.302  0.2838  0.3805 -0.1184
  941MOL0     C26925   1.868   7.031   4.199 -0.2772 -0.5015  0.8506
  941MOL0     C26926   1.913   7.022   4.071  0.2576  0.1798 -0.3303
  941MOL0     C26927   1.835   7.065   3.955 -0.6968  0.0319 -0.5817
  941MOL0     C26928   1.905   7.045   3.825  0.3905  0.2211 -1.0264
  941MOL0     C26929   1.708   7.133   3.983  0.3817  0.6845 -0.1677
  941MOL0     C26930   1.619   7.186   3.874  0.1846  0.5240  0.6501
  941MOL0     O26931   1.666   7.218   3.748 -0.3181 -0.5674 -0.2169
  941MOL0     C26932   1.578   7.282   3.669  0.3543 -0.0018 -0.0341
  941MOL0     C26933   1.546   7.417   3.680  0.8725 -0.9065 -0.3378
  941MOL0     C26934   1.470   7.490   3.587 -0.7483 -0.7558 -0.3780
  941MOL0     C26935   1.405   7.424   3.483  0.7884 -0.3824  0.4052
  941MOL0     O26936   1.327   7.496   3.390 -0.1624  0.1630  0.5805
  941MOL0     C26937   1.228   7.434   3.307 -0.6429 -0.1301 -0.8140
  941MOL0     C26938   1.082   7.425   3.362  0.4018  0.3188  0.6052
  941MOL0     C26939   1.031   7.544   3.431  0.3752  0.8055  0.5624
  941MOL0     C26940   1.031   7.671   3.336 -0.1352  0.3758 -1.2692
  941MOL0     C26941   0.920   7.694   3.230 -0.7562 -1.0264 -0.6414
  941MOL0     C26942   0.774   7.702   3.288 -0.3631  0.4967 -0.3953
  941MOL0     C26943   0.683   7.786   3.194 -0.0593  0.8491 -0.3042
  941MOL0     C26944   0.671   7.751   3.048  0.4299  0.0829 -0.3469
  941MOL0    Cl26945   0.510   7.822   2.989  0.2882 -0.2260  0.1968
  941MOL0     C26946   1.426   7.287   3.468 -0.5592  0.3626 -0.6597
  941MOL0     C26947   1.515   7.221   3.557  0.3621  0.5891 -0.4617
  941MOL0     O26948   1.509   7.188   3.902  0.2017  0.1826 -1.1835
  941MOL0     C26949   1.661   7.131   4.110  0.3682  0.1985  0.2166
  941MOL0     C26950   1.744   7.092   4.211 -0.2436  0.9915 -0.4041
  941MOL0     N26951   2.450   6.766   4.227  0.3786 -0.6623 -1.0839
  941MOL0     N26952   2.546   6.832   4.176 -0.2695 -0.5447 -0.1560
  941MOL0     C26953   2.433   7.072   3.032  0.8212  0.1476 -0.7962
  941MOL0     C26954   2.310   7.091   2.961 -0.2710 -1.1715 -0.4585
  941MOL0     C26955   1.988   7.245   2.732  0.2665  0.8354  0.0286
  941MOL0     C26956   1.889   7.164   2.784  0.8860 -0.0309  0.0937
  941MOL0     C26957   1.778   7.126   2.708  0.4092 -0.7142  0.3445
  941MOL0     C26958   1.758   7.174   2.574 -0.2073  1.1121  0.7271
  941MOL0     O26959   1.647   7.143   2.490 -0.4355  0.3205  0.3897
  941MOL0     C26960   1.619   7.206   2.368 -0.0115 -0.4140  1.0414
  941MOL0     C26961   1.481   7.162   2.325  0.4596  1.3465  0.1901
  941MOL0     C26962   1.472   7.008   2.291  0.4809  0.4430  0.1090
  941MOL0     C26963   1.330   6.974   2.234  0.1973  0.1780 -0.5902
  941MOL0     C26964   1.311   6.827   2.232  0.2811  0.0151  0.1037
  941MOL0     C26965   1.289   6.709   2.218  0.1012  0.5734 -0.5984
  941MOL0     C26966   1.857   7.268   2.533  0.4648  0.1115 -0.3740
  941MOL0     C26967   1.962   7.303   2.612 -0.5933 -0.2051  0.2834
  941MOL0     H26968   2.209   7.377   3.095 -0.1667 -1.0482  0.2324
  941MOL0     H26969   2.408   7.333   3.254 -0.0719  2.0589 -1.4599
  941MOL0     H26970   2.613   6.943   3.181  0.9468 -2.9408  3.5651
  941MOL0     H26971   2.750   7.047   3.154  0.9672  0.3136  0.8211
  941MOL0     H26972   2.769   6.916   3.369  2.3194  1.0767 -0.0030
  941MOL0     H26973   2.762   7.084   3.396  1.4545 -3.1301  4.1988
  941MOL0     H26974   2.504   7.043   3.440 -2.6996 -2.7129 -2.5513
  941MOL0     H26975   2.545   6.875   3.411 -1.6414 -0.0478  0.0415
  941MOL0     H26976   2.717   6.882   3.581  0.9281  2.0960 -0.1589
  941MOL0     H26977   2.680   7.040   3.630 -1.1527  0.5685 -0.7771
  941MOL0     H26978   2.427   6.958   3.658  0.3946  1.6015  1.2190
  941MOL0     H26979   2.482   6.798   3.636  3.2975 -1.9059  0.2521
  941MOL0     H26980   2.493   6.834   3.887 -3.0084  1.3940  0.0720
  941MOL0     H26981   2.663   6.863   3.838  0.6847  2.4545 -1.7125
  941MOL0     H26982   2.609   7.109   3.855 -1.5375  1.4388 -0.5639
  941MOL0     H26983   2.444   7.075   3.872  1.0216  0.7741 -2.9845
  941MOL0     H26984   2.550   7.133   4.101 -1.1286 -1.5906  3.0182
  941MOL0     H26985   2.688   7.033   4.058 -0.4175  1.7382  1.0850
  941MOL0     H26986   2.305   7.024   4.094 -1.4667  0.1649  1.9343
  941MOL0     H26987   2.129   6.847   4.139 -2.2389 -2.1295  0.4685
  941MOL0     H26988   2.178   6.686   4.171  0.4518  0.2782  1.8075
  941MOL0     H26989   2.180   6.888   4.408  1.4043 -1.2964  0.1337
  941MOL0     H26990   2.204   6.727   4.425  0.8184 -0.7207 -0.0643
  941MOL0     H26991   1.990   6.784   4.500  2.5996 -1.2777  0.4914
  941MOL0     H26992   1.983   6.659   4.365  1.5914 -0.0725 -2.6534
  941MOL0     H26993   1.800   6.831   4.345 -0.9169  3.6588 -0.1593
  941MOL0     H26994   1.920   6.780   4.214 -1.3198 -0.7760 -0.1689
  941MOL0     H26995   2.012   6.984   4.049  0.2772  0.5308 -0.8847
  941MOL0     H26996   1.835   7.017   3.746 -0.2829 -1.6733  0.1848
  941MOL0     H26997   1.963   7.135   3.799  1.8057  0.0840  1.3649
  941MOL0     H26998   1.972   6.959   3.824  1.6872  1.1854 -0.4428
  941MOL0     H26999   1.578   7.476   3.765 -2.2360  1.3140 -0.5207
  941MOL0     H27000   1.469   7.599   3.590 -0.2142 -0.7712  0.5653
  941MOL0     H27001   1.232   7.470   3.204  1.7689 -2.8036 -1.7813
  941MOL0     H27002   1.251   7.329   3.288  2.3289 -0.0651  1.7026
  941MOL0     H27003   1.018   7.410   3.275  2.6563  2.4934 -1.5901
  941MOL0     H27004   1.066   7.340   3.429 -2.7428  0.1906 -0.1566
  941MOL0     H27005   1.098   7.553   3.518  1.6389  2.0208 -0.4800
  941MOL0     H27006   0.931   7.528   3.471  0.5914 -1.0801  0.4434
  941MOL0     H27007   1.020   7.759   3.400 -1.4046 -1.8415  1.8047
  941MOL0     H27008   1.125   7.686   3.283  0.5688 -1.0585 -0.4687
  941MOL0     H27009   0.911   7.609   3.161 -1.3739 -2.3038  0.9309
  941MOL0     H27010   0.940   7.791   3.184 -0.9239 -0.5212  0.3242
  941MOL0     H27011   0.741   7.597   3.292 -0.6338  0.5994  2.5258
  941MOL0     H27012   0.780   7.743   3.389  0.8985  1.6165 -0.9062
  941MOL0     H27013   0.710   7.893   3.197 -0.0390  0.8452 -0.3581
  941MOL0     H27014   0.587   7.772   3.244 -0.3542 -0.9782 -1.3104
  941MOL0     H27015   0.668   7.643   3.032  1.5279 -0.2427  1.4039
  941MOL0     H27016   0.762   7.791   3.002  0.1987  0.8292 -0.1622
  941MOL0     H27017   1.389   7.222   3.388  0.6864 -1.7282  0.3826
  941MOL0     H27018   1.520   7.113   3.553 -0.0141  0.6029 -1.5574
  941MOL0     H27019   1.565   7.173   4.140  1.1541  1.1490  1.5061
  941MOL0     H27020   1.723   7.102   4.317  0.3494 -0.3862 -0.1278
  941MOL0     H27021   2.480   6.979   3.003 -1.9966 -1.7144  0.1658
  941MOL0     H27022   2.277   7.021   2.885  0.4621  0.4061 -2.3065
  941MOL0     H27023   1.901   7.131   2.886  0.5728  2.9078  1.1678
  941MOL0     H27024   1.701   7.057   2.741  1.2714 -1.9738 -0.2309
  941MOL0     H27025   1.624   7.315   2.375  1.3654 -0.4020  0.2344
  941MOL0     H27026   1.702   7.192   2.299  1.4735  2.7373  1.9815
  941MOL0     H27027   1.441   7.228   2.248  1.2445  1.6473  0.0355
  941MOL0     H27028   1.410   7.175   2.408 -1.7975  2.9786 -1.8303
  941MOL0     H27029   1.489   6.955   2.385  0.9043 -2.5644 -1.5442
  941MOL0     H27030   1.550   6.967   2.226 -1.8591 -0.6662 -2.2069
  941MOL0     H27031   1.330   7.006   2.129  0.8197  1.6843 -0.1622
  941MOL0     H27032   1.251   7.027   2.287  0.0784 -0.7953  0.2443
  941MOL0     H27033   1.253   6.608   2.215 -0.7033  0.8466 -0.3526
  941MOL0     H27034   1.855   7.303   2.430 -0.6529 -2.2545 -1.2349
  941MOL0     H27035   2.032   7.365   2.558 -2.2588  0.7264 -0.9090
  942MOL0     O27036   8.461   5.518  10.310  0.2477  0.1027  0.3555
  942MOL0     C27037   8.553   5.526  10.226 -0.6591 -0.2107 -0.5881
  942MOL0     O27038   8.612   5.643  10.193  0.0212  0.2287  1.0071
  942MOL0     C27039   8.582   5.761  10.260  0.0447 -0.1734 -0.2806
  942MOL0     C27040   8.567   5.868  10.179 -0.2088  0.2136 -0.3558
  942MOL0     C27041   8.551   6.004  10.225  0.1146  0.5541 -0.1691
  942MOL0     C27042   8.535   6.025  10.367  0.7504 -0.6905 -0.0532
  942MOL0     O27043   8.515   6.145  10.438  0.0493  1.0121  0.0654
  942MOL0     C27044   8.540   6.264  10.367  0.2427  0.1555 -0.5966
  942MOL0     C27045   8.498   6.379  10.465 -0.2559 -0.2525 -0.3145
  942MOL0     C27046   8.598   6.385  10.591  0.3520 -0.1624 -0.0415
  942MOL0     C27047   8.579   6.508  10.685  0.1562  0.6208  0.6577
  942MOL0     C27048   8.595   6.641  10.629 -0.4912  0.2375 -0.0266
  942MOL0     C27049   8.524   6.750  10.701 -0.2353  0.1809  0.3101
  942MOL0     C27050   8.487   6.865  10.603  0.1629 -0.2835  0.3917
  942MOL0     C27051   8.408   6.983  10.666 -0.0822  0.0719  0.3606
  942MOL0     N27052   8.484   7.055  10.767  0.5012  0.6282 -0.4065
  942MOL0     C27053   8.619   7.080  10.775  0.1804 -0.0193  0.2198
  942MOL0     C27054   8.644   7.112  10.900  0.5809 -0.8273 -0.5050
  942MOL0     C27055   8.786   7.122  10.954  0.5185 -0.5719  0.3117
  942MOL0     C27056   8.863   7.248  10.890  0.1396  0.4239  0.1398
  942MOL0     C27057   8.816   7.388  10.937 -0.6681  0.5672  0.1538
  942MOL0     C27058   8.720   7.463  10.851  0.2073 -1.1248 -0.7183
  942MOL0     O27059   8.789   7.495  10.725  0.4564 -0.4109 -0.3287
  942MOL0     C27060   8.719   7.558  10.619  0.8259  0.2837 -0.1718
  942MOL0     C27061   8.761   7.557  10.489 -0.5094 -0.1996  0.1307
  942MOL0     C27062   8.700   7.625  10.385 -0.1081 -0.5201 -0.9580
  942MOL0     C27063   8.773   7.626  10.245  0.0259  0.2015 -0.2465
  942MOL0     C27064   8.582   7.696  10.407  0.3962 -0.4258 -0.2106
  942MOL0     C27065   8.520   7.790  10.313  0.3995  0.3426  0.9514
  942MOL0     O27066   8.383   7.824  10.328 -0.5961 -0.1243 -0.2312
  942MOL0     C27067   8.327   7.923  10.255  0.3242  0.6926 -1.4956
  942MOL0     C27068   8.321   8.044  10.306 -0.9477 -0.2944 -0.0062
  942MOL0     C27069   8.264   8.140  10.228 -0.0625  0.0200  0.2236
  942MOL0     C27070   8.209   8.115  10.103  0.1455 -0.0579 -0.5081
  942MOL0     O27071   8.163   8.220  10.034  0.3018  0.0775 -0.3325
  942MOL0     C27072   8.031   8.222   9.970  0.0626 -0.1138 -0.5746
  942MOL0     C27073   8.021   8.351   9.888 -0.3933 -1.4355  0.8925
  942MOL0     C27074   8.127   8.357   9.781 -0.2700  0.2038  0.8992
  942MOL0     C27075   8.116   8.479   9.698 -0.2790 -0.5847 -0.0354
  942MOL0     C27076   8.223   8.474   9.593 -0.6295 -0.2640  0.5658
  942MOL0     C27077   8.284   8.612   9.556  0.3031  0.6104 -0.7190
  942MOL0     C27078   8.370   8.667   9.668 -0.3959 -1.0850  0.4838
  942MOL0     C27079   8.435   8.803   9.627  0.5950  1.0292  1.0238
  942MOL0    Cl27080   8.305   8.928   9.630 -0.2037 -0.4473  0.4235
  942MOL0     C27081   8.215   7.986  10.051 -0.4851 -0.1605 -0.4275
  942MOL0     C27082   8.272   7.885  10.132 -0.0265 -0.5229 -0.5910
  942MOL0     O27083   8.588   7.824  10.218  0.5792 -0.1321  1.0955
  942MOL0     C27084   8.525   7.679  10.524 -0.2843  0.0204 -1.4995
  942MOL0     C27085   8.587   7.611  10.633 -0.2894  0.2741 -0.5758
  942MOL0     N27086   8.520   7.120  10.967 -0.4181 -0.0886  0.2933
  942MOL0     N27087   8.428   7.090  10.882  0.6299  1.4276 -0.7085
  942MOL0     C27088   8.547   5.913  10.448  1.0198 -0.7976 -0.8477
  942MOL0     C27089   8.570   5.785  10.402 -0.4963  0.0573 -0.5138
  942MOL0     C27090   8.609   5.399  10.165  0.7929  0.3267 -0.0463
  942MOL0     C27091   8.536   5.281  10.185  0.6714 -0.0711  0.2607
  942MOL0     C27092   8.574   5.161  10.127 -0.6141  0.0586 -0.2879
  942MOL0     C27093   8.680   5.152  10.044  0.8874 -0.3578 -0.0571
  942MOL0     O27094   8.703   5.034   9.988  0.7806 -0.4319  0.8401
  942MOL0     C27095   8.832   5.019   9.929 -0.0898  0.4208  0.2552
  942MOL0     C27096   8.831   4.892   9.836  0.3595 -0.8234 -0.2427
  942MOL0     C27097   8.962   4.892   9.745 -0.4403  0.9034  1.0384
  942MOL0     C27098   8.948   4.781   9.636 -0.9860  1.0385  0.0545
  942MOL0     C27099   8.863   4.837   9.528 -0.0925 -0.1137 -0.1086
  942MOL0     C27100   8.776   4.878   9.449  0.3808  0.4972 -0.5745
  942MOL0     C27101   8.759   5.270  10.040  0.5630  0.5024  0.1710
  942MOL0     C27102   8.730   5.389  10.107  0.3106  0.1504 -0.5266
  942MOL0     H27103   8.571   5.844  10.073 -1.4723 -1.5004 -0.0622
  942MOL0     H27104   8.554   6.091  10.160  0.3703  0.9143  0.3188
  942MOL0     H27105   8.650   6.261  10.365  0.3575 -1.3890  2.0814
  942MOL0     H27106   8.489   6.281  10.272  0.2258  1.2726 -0.4025
  942MOL0     H27107   8.493   6.473  10.409  0.6423 -0.4278 -0.7083
  942MOL0     H27108   8.401   6.365  10.514  0.8374  1.2141  2.5190
  942MOL0     H27109   8.588   6.288  10.640  3.4096  0.5202  2.2203
  942MOL0     H27110   8.703   6.386  10.563  1.0494 -1.0070  2.2916
  942MOL0     H27111   8.477   6.496  10.722  0.4890  0.2568  1.4776
  942MOL0     H27112   8.643   6.482  10.770 -2.7770 -0.6029  2.6555
  942MOL0     H27113   8.696   6.674  10.605  0.1722 -1.0413  0.9048
  942MOL0     H27114   8.549   6.635  10.530 -0.7232 -0.8438  0.1303
  942MOL0     H27115   8.437   6.716  10.759 -2.1320  2.0626 -1.2474
  942MOL0     H27116   8.594   6.792  10.773 -3.2070  1.0580  2.9329
  942MOL0     H27117   8.579   6.904  10.557 -0.9392  2.8858  0.5957
  942MOL0     H27118   8.426   6.822  10.523  2.5941 -1.1345 -1.1141
  942MOL0     H27119   8.314   6.946  10.709 -0.5088 -0.0078 -0.6167
  942MOL0     H27120   8.384   7.055  10.587 -2.7676  1.8431  2.5968
  942MOL0     H27121   8.693   7.050  10.702 -0.6554 -0.8181 -0.3356
  942MOL0     H27122   8.785   7.124  11.063  0.8796  1.0182  0.3083
  942MOL0     H27123   8.846   7.033  10.931  1.7168  0.1779  0.4695
  942MOL0     H27124   8.882   7.232  10.783  2.7690 -5.1885  1.1462
  942MOL0     H27125   8.965   7.247  10.929 -0.3037  1.8697  1.4176
  942MOL0     H27126   8.897   7.460  10.947  0.5035 -0.3884 -1.8241
  942MOL0     H27127   8.775   7.373  11.037  1.5189  2.3114  1.3935
  942MOL0     H27128   8.694   7.554  10.906  0.7756 -0.4661 -1.5069
  942MOL0     H27129   8.632   7.403  10.827  0.2214 -1.1134 -0.8025
  942MOL0     H27130   8.842   7.487  10.468 -0.4851  0.4737 -2.3631
  942MOL0     H27131   8.860   7.562  10.229  2.0140  3.0543 -1.7154
  942MOL0     H27132   8.701   7.571  10.183 -0.3158 -0.4354  0.6849
  942MOL0     H27133   8.811   7.724  10.217  1.6791 -0.3502 -0.0106
  942MOL0     H27134   8.353   8.070  10.406  0.1826 -0.0130 -0.4269
  942MOL0     H27135   8.257   8.241  10.267 -2.4296  0.5789 -1.4521
  942MOL0     H27136   8.032   8.141   9.896 -0.5961 -0.1627 -0.5401
  942MOL0     H27137   7.947   8.220  10.040 -0.1421 -1.3508 -0.8318
  942MOL0     H27138   7.928   8.356   9.832  0.8333 -0.4835 -1.1586
  942MOL0     H27139   8.032   8.435   9.958  4.6174 -0.4378 -0.6922
  942MOL0     H27140   8.126   8.265   9.723 -1.1375 -0.2832  1.6589
  942MOL0     H27141   8.221   8.359   9.836 -1.2288  3.3195  2.6991
  942MOL0     H27142   8.015   8.475   9.657 -1.2521  0.5129  2.0803
  942MOL0     H27143   8.119   8.572   9.757 -2.0498 -0.6037  0.1329
  942MOL0     H27144   8.183   8.442   9.495  1.7583  3.0749 -1.7095
  942MOL0     H27145   8.308   8.408   9.611 -0.0444  0.7207  1.4845
  942MOL0     H27146   8.331   8.616   9.458  3.4217  3.0802  0.7254
  942MOL0     H27147   8.197   8.675   9.538 -0.2549 -0.0933 -0.5671
  942MOL0     H27148   8.451   8.595   9.681 -0.4883 -0.8658  2.5530
  942MOL0     H27149   8.334   8.682   9.770  1.6875  1.5697  0.9195
  942MOL0     H27150   8.478   8.800   9.526 -0.1229  0.6076  0.7236
  942MOL0     H27151   8.520   8.829   9.690  1.4371  2.7157 -0.7150
  942MOL0     H27152   8.180   7.978   9.948  0.4951  1.3503 -0.9138
  942MOL0     H27153   8.274   7.782  10.096 -1.4473 -1.2939  1.3638
  942MOL0     H27154   8.426   7.718  10.546  0.0448  2.8325 -4.3012
  942MOL0     H27155   8.529   7.597  10.724 -1.5841 -1.6490 -1.6254
  942MOL0     H27156   8.545   5.929  10.555  0.7176 -0.7936 -0.8531
  942MOL0     H27157   8.583   5.708  10.477 -0.4912  0.6101  0.0682
  942MOL0     H27158   8.434   5.276  10.224 -0.7252  2.0386 -2.7716
  942MOL0     H27159   8.513   5.072  10.138 -0.2121 -0.1704  0.1447
  942MOL0     H27160   8.850   5.108   9.868 -2.1317 -0.4971 -1.8369
  942MOL0     H27161   8.911   5.007  10.003  0.4860 -5.4533 -0.8887
  942MOL0     H27162   8.746   4.894   9.768 -1.2915 -2.9553  1.6079
  942MOL0     H27163   8.822   4.799   9.893  2.8295 -1.2332 -0.4100
  942MOL0     H27164   9.043   4.867   9.814 -2.5243 -0.8942  3.0019
  942MOL0     H27165   8.981   4.987   9.694  0.6768  0.6203  0.9119
  942MOL0     H27166   8.905   4.689   9.676  5.0005 -1.1606  2.6861
  942MOL0     H27167   9.047   4.755   9.599 -1.9020 -1.7574 -0.6986
  942MOL0     H27168   8.704   4.908   9.376  0.2734  1.4810 -0.0798
  942MOL0     H27169   8.847   5.273   9.976 -0.0176  2.1845 -0.6103
  942MOL0     H27170   8.784   5.482  10.094 -0.1688  0.6052  0.6301
  943MOL0     O27171   7.373   5.115   6.708  1.3430  0.1990 -0.0024
  943MOL0     C27172   7.397   5.009   6.666 -0.7963 -0.4289 -0.6608
  943MOL0     O27173   7.460   4.907   6.737 -0.1177  0.7511  0.6529
  943MOL0     C27174   7.519   4.939   6.859  0.7323 -0.3500 -0.2811
  943MOL0     C27175   7.653   4.928   6.869 -1.4358 -0.2875 -0.6873
  943MOL0     C27176   7.713   4.953   6.992 -0.1308  1.1513  0.3772
  943MOL0     C27177   7.643   4.994   7.105 -0.2532 -0.2026  0.3080
  943MOL0     O27178   7.681   5.003   7.238 -0.0724 -0.5202 -0.4079
  943MOL0     C27179   7.825   4.978   7.268  0.0850  0.2514 -1.6081
  943MOL0     C27180   7.851   4.826   7.276 -1.1365 -0.5796  0.7072
  943MOL0     C27181   7.992   4.791   7.320  0.0979  0.2761  1.0201
  943MOL0     C27182   8.014   4.825   7.462  0.3100 -0.5086 -0.2713
  943MOL0     C27183   7.960   4.721   7.562 -0.1498  0.6104 -0.3644
  943MOL0     C27184   7.994   4.746   7.703  0.4999  0.5213  0.0676
  943MOL0     C27185   8.140   4.713   7.741  0.1830 -0.6163  0.7033
  943MOL0     C27186   8.147   4.567   7.765  0.5016 -0.4509 -0.5904
  943MOL0     N27187   8.280   4.523   7.810  0.6315  0.0943 -0.5955
  943MOL0     C27188   8.373   4.607   7.878 -0.0502 -0.6026 -0.3730
  943MOL0     C27189   8.464   4.517   7.923 -0.9119  0.2996  0.5830
  943MOL0     C27190   8.576   4.543   8.031  0.3293  0.4024  0.4756
  943MOL0     C27191   8.663   4.425   8.063  0.2553 -0.6308 -0.7189
  943MOL0     C27192   8.739   4.454   8.194  0.5047  0.0149  0.3548
  943MOL0     C27193   8.811   4.331   8.249  0.0111 -0.5069  0.3450
  943MOL0     O27194   8.729   4.284   8.357 -0.9879  0.5318 -0.1022
  943MOL0     C27195   8.786   4.190   8.442  0.2886  0.1177  0.4246
  943MOL0     C27196   8.864   4.076   8.404  0.1492  1.3410 -1.4011
  943MOL0     C27197   8.892   3.964   8.483 -1.2420  0.2157 -0.0639
  943MOL0     C27198   9.013   3.876   8.439  0.6372 -0.1820  0.2041
  943MOL0     C27199   8.844   3.971   8.612  0.9347  0.1331 -0.5428
  943MOL0     C27200   8.886   3.878   8.723  0.4681  0.1790 -0.0997
  943MOL0     O27201   8.918   3.750   8.689 -0.2967  0.5025  0.3497
  943MOL0     C27202   8.944   3.654   8.783  0.5411  0.7612  0.5484
  943MOL0     C27203   8.874   3.536   8.749  1.0043  0.3569  0.3634
  943MOL0     C27204   8.876   3.427   8.830  1.2679  0.2188 -0.5456
  943MOL0     C27205   8.945   3.431   8.949 -0.1725 -0.1114 -0.2677
  943MOL0     O27206   8.935   3.326   9.031  0.5649  0.0130  0.6881
  943MOL0     C27207   9.020   3.311   9.132  0.3587  0.2389 -0.1068
  943MOL0     C27208   8.977   3.182   9.219 -0.0781  0.1086 -0.1398
  943MOL0     C27209   9.095   3.146   9.311  0.1608 -0.9622 -0.7389
  943MOL0     C27210   9.106   3.240   9.428  0.7268  0.3541 -0.2237
  943MOL0     C27211   9.215   3.189   9.528 -0.1212 -0.3082  0.1392
  943MOL0     C27212   9.253   3.293   9.632 -0.2080  0.4271 -0.4594
  943MOL0     C27213   9.344   3.239   9.746  0.3280 -0.8577 -0.1393
  943MOL0     C27214   9.494   3.198   9.717  0.3803 -0.1926 -0.3701
  943MOL0    Cl27215   9.506   3.043   9.621  0.4192 -0.2056  0.4785
  943MOL0     C27216   9.014   3.548   8.986 -0.3415 -0.6031  0.2159
  943MOL0     C27217   9.009   3.664   8.908  0.2475 -0.4130 -0.3089
  943MOL0     O27218   8.873   3.916   8.839 -0.7564  0.4083  0.5763
  943MOL0     C27219   8.754   4.076   8.657  0.0619 -0.9279  0.2182
  943MOL0     C27220   8.723   4.180   8.573 -0.5671  0.5916  1.1941
  943MOL0     N27221   8.436   4.392   7.859 -0.0256  0.2776  0.2287
  943MOL0     N27222   8.328   4.394   7.794 -0.3480 -0.0827 -0.2588
  943MOL0     C27223   7.508   5.015   7.093 -1.0937  0.6533 -0.8047
  943MOL0     C27224   7.445   4.984   6.971 -0.5232 -0.6977  0.3273
  943MOL0     C27225   7.373   4.984   6.527 -0.9478 -0.2069  0.5093
  943MOL0     C27226   7.427   4.867   6.460  0.1040  1.1723 -0.1308
  943MOL0     C27227   7.405   4.856   6.326  0.6120 -0.0712  1.1930
  943MOL0     C27228   7.340   4.950   6.250 -0.0529 -0.3932 -0.4031
  943MOL0     O27229   7.329   4.921   6.113 -0.6148 -0.2585 -0.3337
  943MOL0     C27230   7.316   5.028   6.012 -0.2163 -0.8605  0.5199
  943MOL0     C27231   7.349   4.968   5.867 -0.6848 -0.1274 -0.4867
  943MOL0     C27232   7.333   5.081   5.768 -0.4509 -0.6830 -0.2988
  943MOL0     C27233   7.413   5.056   5.638 -0.5427  0.1357  0.3724
  943MOL0     C27234   7.404   5.169   5.552  0.0308  0.7843 -0.0156
  943MOL0     C27235   7.398   5.275   5.490  0.1630  0.6283  0.7206
  943MOL0     C27236   7.290   5.063   6.311 -0.4246 -0.2091  0.3541
  943MOL0     C27237   7.297   5.077   6.451 -0.4663  0.2869  0.6658
  943MOL0     H27238   7.709   4.902   6.780  1.0179 -0.7462  0.9227
  943MOL0     H27239   7.818   4.933   6.977 -0.6475 -1.0665 -0.8325
  943MOL0     H27240   7.888   5.028   7.195 -0.9873  3.4045 -0.5546
  943MOL0     H27241   7.838   5.013   7.371 -0.5479 -2.1796 -0.6047
  943MOL0     H27242   7.779   4.774   7.340 -0.0130 -2.6629  0.3427
  943MOL0     H27243   7.838   4.779   7.178  0.5213  0.1999  0.0819
  943MOL0     H27244   8.008   4.683   7.307 -1.8528  0.3044 -5.1161
  943MOL0     H27245   8.069   4.836   7.257 -0.0505  1.3402  1.5742
  943MOL0     H27246   8.123   4.827   7.473  0.3173  3.3413  0.5862
  943MOL0     H27247   7.981   4.927   7.484  1.8316  0.8021 -3.3840
  943MOL0     H27248   7.851   4.713   7.553 -0.2265 -1.0268  1.5001
  943MOL0     H27249   7.987   4.620   7.532  0.6639  0.5435  0.5723
  943MOL0     H27250   7.961   4.843   7.742 -0.7723  0.8336 -1.6804
  943MOL0     H27251   7.941   4.678   7.771  0.4634  2.0702  1.6836
  943MOL0     H27252   8.212   4.753   7.669 -0.6898  0.1596  0.2303
  943MOL0     H27253   8.157   4.777   7.828 -1.5069  1.9334 -0.7058
  943MOL0     H27254   8.122   4.515   7.672  1.9165  2.0524 -2.5059
  943MOL0     H27255   8.074   4.538   7.841  0.5679  1.0410  0.0849
  943MOL0     H27256   8.372   4.708   7.920  5.8254  0.1957 -1.3144
  943MOL0     H27257   8.648   4.613   7.989  1.7488 -1.7171 -0.8339
  943MOL0     H27258   8.528   4.592   8.116 -1.0128 -0.4552  0.2567
  943MOL0     H27259   8.732   4.425   7.978  0.6304  0.2921 -0.4248
  943MOL0     H27260   8.611   4.331   8.082 -1.9871  0.6224 -0.2727
  943MOL0     H27261   8.671   4.493   8.270 -1.0842 -1.4609 -0.2292
  943MOL0     H27262   8.809   4.537   8.186  0.9362 -0.2768  0.9994
  943MOL0     H27263   8.910   4.340   8.295  1.3065 -1.8001 -1.9828
  943MOL0     H27264   8.833   4.253   8.175  1.2703 -1.8948  2.0955
  943MOL0     H27265   8.894   4.072   8.299 -0.6908  1.7434 -1.6683
  943MOL0     H27266   9.082   3.942   8.386 -0.0900 -0.0459 -0.5892
  943MOL0     H27267   9.074   3.834   8.520  0.8896 -2.2303 -0.9783
  943MOL0     H27268   8.984   3.793   8.375 -1.3028 -2.0160  3.1787
  943MOL0     H27269   8.825   3.521   8.653 -1.1301  0.8538  1.3297
  943MOL0     H27270   8.836   3.331   8.800  3.3245 -2.4007  3.9938
  943MOL0     H27271   9.122   3.293   9.099  0.5207 -0.4549  0.7424
  943MOL0     H27272   9.015   3.402   9.193  3.3778  1.0501 -0.9083
  943MOL0     H27273   8.885   3.194   9.279  2.0751  0.4739  3.3906
  943MOL0     H27274   8.975   3.102   9.144 -1.0239 -1.6439  1.6503
  943MOL0     H27275   9.191   3.165   9.261  0.7686  0.1582  0.7553
  943MOL0     H27276   9.088   3.042   9.345 -1.9629 -0.8793 -0.8209
  943MOL0     H27277   9.128   3.344   9.399 -1.0420  1.1372  1.0602
  943MOL0     H27278   9.017   3.252   9.491  0.2825 -0.3179 -0.7242
  943MOL0     H27279   9.307   3.144   9.490  0.2684  1.9716 -1.8479
  943MOL0     H27280   9.167   3.103   9.577 -0.2266 -0.4015 -0.1243
  943MOL0     H27281   9.298   3.383   9.590 -1.1762  1.6939  1.0993
  943MOL0     H27282   9.169   3.335   9.689  0.2973  1.1677 -0.2624
  943MOL0     H27283   9.300   3.152   9.796  0.5149 -0.8243  0.0815
  943MOL0     H27284   9.357   3.312   9.826  1.4375 -0.4777 -0.6422
  943MOL0     H27285   9.533   3.183   9.818 -0.8847 -0.6653  0.0720
  943MOL0     H27286   9.541   3.284   9.668 -2.3631  1.0633 -1.0037
  943MOL0     H27287   9.053   3.568   9.085 -0.2477  0.6131 -0.0520
  943MOL0     H27288   9.062   3.753   8.941  1.1290 -0.8608 -0.4973
  943MOL0     H27289   8.706   4.077   8.754 -3.1287 -1.5835 -1.2059
  943MOL0     H27290   8.645   4.252   8.595 -0.1232  0.4700  3.4405
  943MOL0     H27291   7.441   5.058   7.167 -2.4986  0.5137 -1.9416
  943MOL0     H27292   7.337   4.978   6.975 -0.6332  0.6052 -0.2770
  943MOL0     H27293   7.484   4.791   6.510 -0.7118  2.6977  3.4305
  943MOL0     H27294   7.471   4.783   6.282 -0.1048 -0.3912  0.6336
  943MOL0     H27295   7.210   5.052   6.021 -0.2898  0.1060 -2.2126
  943MOL0     H27296   7.387   5.103   6.048  0.0142 -1.1856  0.7599
  943MOL0     H27297   7.286   4.887   5.831  1.1042 -1.5483 -0.5519
  943MOL0     H27298   7.453   4.935   5.878 -0.6100 -0.0141 -0.8356
  943MOL0     H27299   7.386   5.170   5.804  1.8197 -0.7650 -3.0182
  943MOL0     H27300   7.231   5.118   5.751  0.0263  0.4008 -0.9094
  943MOL0     H27301   7.370   4.964   5.599 -1.7002  0.0446  1.7920
  943MOL0     H27302   7.517   5.039   5.667 -1.2850  1.3905  4.4557
  943MOL0     H27303   7.398   5.357   5.421  1.0657 -0.0993 -0.1746
  943MOL0     H27304   7.242   5.142   6.253  2.7284  1.3048 -0.3716
  943MOL0     H27305   7.255   5.164   6.500 -2.1138 -1.2355  2.0452
  944MOL0     O27306   7.228   9.367   0.392  0.6513 -0.3190  0.4878
  944MOL0     C27307   7.124   9.433   0.396  0.9092 -0.1918  0.2979
  944MOL0     O27308   7.016   9.405   0.316  0.2557 -0.3619 -0.0113
  944MOL0     C27309   6.993   9.271   0.272 -0.7146 -0.2839  0.0673
  944MOL0     C27310   7.067   9.223   0.166 -0.4249 -0.6102 -0.1063
  944MOL0     C27311   7.040   9.103   0.104  0.2030  0.2650  0.1205
  944MOL0     C27312   6.936   9.022   0.154 -0.9097  0.6228 -0.3137
  944MOL0     O27313   6.903   8.888   0.124 -0.1948 -0.3842  0.4246
  944MOL0     C27314   6.918   8.853  -0.017 -0.0975  0.2545 -0.4245
  944MOL0     C27315   6.809   8.756  -0.057  0.0810 -0.2757  0.2064
  944MOL0     C27316   6.815   8.730  -0.211 -0.4993  1.0703  0.2342
  944MOL0     C27317   6.950   8.722  -0.270  0.5570  0.5197  0.4662
  944MOL0     C27318   6.946   8.645  -0.401  0.1652  0.9520  0.3556
  944MOL0     C27319   6.942   8.743  -0.527 -0.6140 -0.2238 -0.5710
  944MOL0     C27320   6.826   8.827  -0.554  0.7398 -0.0282 -0.1014
  944MOL0     C27321   6.860   8.976  -0.541  0.5383  0.6252 -0.3584
  944MOL0     N27322   6.736   9.056  -0.552  0.2658 -0.1828  0.0006
  944MOL0     C27323   6.733   9.188  -0.586 -0.2311  0.0994 -0.6096
  944MOL0     C27324   6.619   9.242  -0.546 -0.5952 -0.0465 -0.4542
  944MOL0     C27325   6.577   9.385  -0.561  0.0296 -0.0956  0.9018
  944MOL0     C27326   6.685   9.479  -0.626 -0.2332 -0.7390  0.6262
  944MOL0     C27327   6.801   9.517  -0.530  0.1726  0.0283  0.2265
  944MOL0     C27328   6.884   9.612  -0.593 -0.9108  0.3649  0.0860
  944MOL0     O27329   6.814   9.735  -0.628 -0.3640  0.8035  0.0956
  944MOL0     C27330   6.849   9.813  -0.736  0.0169  0.3386 -0.6536
  944MOL0     C27331   6.754   9.868  -0.813 -0.0595  0.0321  0.2752
  944MOL0     C27332   6.769   9.976  -0.899 -0.8246  1.4578  0.1713
  944MOL0     C27333   6.647  10.020  -0.973  0.0239 -0.0257 -0.8126
  944MOL0     C27334   6.907  10.012  -0.931 -0.8331  0.0656  0.1122
  944MOL0     C27335   6.950  10.088  -1.046  0.6124 -0.5741  0.0916
  944MOL0     O27336   7.072  10.074  -1.092 -0.7461  0.1452  0.8073
  944MOL0     C27337   7.129  10.170  -1.178 -0.2416 -0.0210  0.4741
  944MOL0     C27338   7.091  10.165  -1.304  0.3092  0.4912 -0.5627
  944MOL0     C27339   7.151  10.247  -1.400 -1.1892  0.2936 -1.1641
  944MOL0     C27340   7.250  10.344  -1.357 -0.2264 -0.7508  0.0074
  944MOL0     O27341   7.300  10.425  -1.459 -0.5078 -0.3928 -0.0064
  944MOL0     C27342   7.354  10.553  -1.423 -0.0445  0.7168 -0.1387
  944MOL0     C27343   7.354  10.650  -1.538  0.1997  0.1457 -0.3676
  944MOL0     C27344   7.456  10.614  -1.648 -0.0869 -0.3201 -0.7681
  944MOL0     C27345   7.448  10.696  -1.781 -0.2479 -0.6780  0.2270
  944MOL0     C27346   7.354  10.626  -1.876 -0.2175 -0.7480  0.2950
  944MOL0     C27347   7.340  10.698  -2.013 -0.2082 -0.5818 -0.1018
  944MOL0     C27348   7.267  10.833  -2.015  0.0583 -0.1137  0.3963
  944MOL0     C27349   7.118  10.822  -2.027 -0.0619  0.9713  0.1458
  944MOL0    Cl27350   7.052  10.955  -2.124  0.0558 -0.0032 -0.1057
  944MOL0     C27351   7.286  10.352  -1.225 -0.2777  1.1167 -0.9998
  944MOL0     C27352   7.227  10.259  -1.127 -0.0109 -0.5594 -0.2181
  944MOL0     O27353   6.873  10.169  -1.102  0.1006 -0.7437 -0.2443
  944MOL0     C27354   7.008   9.953  -0.842 -0.1611 -0.9358 -0.1109
  944MOL0     C27355   6.976   9.864  -0.745  0.3862  0.3746  1.0046
  944MOL0     N27356   6.539   9.132  -0.497 -0.2315 -0.3887  0.6401
  944MOL0     N27357   6.616   9.027  -0.494  0.5055 -0.0411 -0.1899
  944MOL0     C27358   6.866   9.069   0.264 -0.0233 -0.8711  1.1798
  944MOL0     C27359   6.896   9.191   0.327  0.5074  0.2901  0.9785
  944MOL0     C27360   7.118   9.547   0.488  0.3588 -0.7152  0.0677
  944MOL0     C27361   7.210   9.568   0.596  0.9699 -0.2953 -0.0895
  944MOL0     C27362   7.192   9.667   0.687  0.1810 -0.6582 -1.4144
  944MOL0     C27363   7.099   9.763   0.675  0.8228  0.2312 -0.0242
  944MOL0     O27364   7.089   9.854   0.773  0.5631  0.3704 -0.7213
  944MOL0     C27365   7.002   9.971   0.752 -0.0325  0.4172 -0.1640
  944MOL0     C27366   6.873   9.953   0.806 -0.3859 -0.5659  1.8033
  944MOL0     C27367   6.872   9.910   0.951  0.8284 -0.4186 -0.4679
  944MOL0     C27368   6.720   9.891   0.991 -0.5253  1.2917  0.0838
  944MOL0     C27369   6.658   9.779   0.929  0.6883  0.1703 -0.8664
  944MOL0     C27370   6.604   9.701   0.859  0.1084  0.0926 -0.6250
  944MOL0     C27371   7.013   9.755   0.568 -0.3570 -0.0132 -0.1904
  944MOL0     C27372   7.029   9.652   0.476 -0.0926  0.3197  0.7631
  944MOL0     H27373   7.144   9.293   0.135 -0.5062  0.6312  2.3106
  944MOL0     H27374   7.106   9.066   0.026 -0.9988  2.6106 -2.1822
  944MOL0     H27375   6.902   8.942  -0.079 -1.8041  0.4424  0.2324
  944MOL0     H27376   7.019   8.810  -0.010 -0.5233 -0.7945 -0.6030
  944MOL0     H27377   6.813   8.661  -0.003  3.2996 -1.3356 -1.6529
  944MOL0     H27378   6.712   8.797  -0.026  1.2686  3.3166 -0.3545
  944MOL0     H27379   6.764   8.635  -0.227 -1.2484  1.4265  0.4127
  944MOL0     H27380   6.761   8.808  -0.267 -0.4715 -0.8759 -2.7086
  944MOL0     H27381   6.980   8.822  -0.302  0.9243 -0.6056 -3.1722
  944MOL0     H27382   7.028   8.679  -0.207  0.7894 -2.3567 -1.5826
  944MOL0     H27383   7.031   8.576  -0.401  0.8413  1.7407  1.8346
  944MOL0     H27384   6.851   8.591  -0.405 -1.2554  3.1627  2.2129
  944MOL0     H27385   7.027   8.811  -0.524  0.1384 -1.1314  2.8261
  944MOL0     H27386   6.959   8.688  -0.620  0.3861  1.3250 -1.3615
  944MOL0     H27387   6.787   8.808  -0.654 -0.7647 -1.2084  0.6708
  944MOL0     H27388   6.738   8.796  -0.497 -0.4969  2.1301 -0.7056
  944MOL0     H27389   6.935   9.017  -0.609  1.0032  3.2023  1.5909
  944MOL0     H27390   6.903   8.992  -0.442 -0.5990 -4.4791  1.2653
  944MOL0     H27391   6.814   9.246  -0.630 -1.9356  0.8048 -3.0269
  944MOL0     H27392   6.487   9.394  -0.622  1.1933 -2.0885 -1.2394
  944MOL0     H27393   6.545   9.419  -0.462 -0.2517  0.6244  0.5767
  944MOL0     H27394   6.631   9.567  -0.662  0.4831 -1.2323 -1.8232
  944MOL0     H27395   6.717   9.422  -0.714 -3.4780 -2.4189  0.3773
  944MOL0     H27396   6.848   9.423  -0.501 -2.2446 -1.5636 -0.6705
  944MOL0     H27397   6.749   9.558  -0.443  1.5679  2.6603 -0.0889
  944MOL0     H27398   6.927   9.570  -0.685 -0.4566  1.3768 -0.1837
  944MOL0     H27399   6.966   9.644  -0.528 -0.6533  3.5074 -1.5435
  944MOL0     H27400   6.647   9.849  -0.800 -0.6924  1.3258 -2.3849
  944MOL0     H27401   6.623  10.120  -0.933  0.2819 -0.4033  0.3465
  944MOL0     H27402   6.669  10.030  -1.079  0.4846 -1.7454 -0.9031
  944MOL0     H27403   6.555   9.964  -0.954  0.2932  0.3103  1.8812
  944MOL0     H27404   7.020  10.086  -1.326 -0.3320 -0.3397  3.6260
  944MOL0     H27405   7.130  10.243  -1.507  1.9710 -1.3304 -1.8624
  944MOL0     H27406   7.310  10.598  -1.333  1.7149 -0.1662  1.2432
  944MOL0     H27407   7.460  10.546  -1.398 -0.8018 -0.3867  3.4379
  944MOL0     H27408   7.254  10.642  -1.580 -0.4948  0.4452  1.1556
  944MOL0     H27409   7.375  10.752  -1.503 -3.6003  0.6525  0.8400
  944MOL0     H27410   7.438  10.508  -1.666  0.3008 -0.7972  1.3835
  944MOL0     H27411   7.554  10.630  -1.603 -1.6451  1.5149  2.2862
  944MOL0     H27412   7.412  10.795  -1.754 -0.5938 -0.5561 -0.6174
  944MOL0     H27413   7.550  10.711  -1.819 -0.3640  1.5093  0.6574
  944MOL0     H27414   7.257  10.621  -1.825 -1.5075  4.1487 -1.0607
  944MOL0     H27415   7.397  10.528  -1.896  1.3858  0.1413 -0.9082
  944MOL0     H27416   7.438  10.719  -2.056 -1.2606  0.8815 -1.9447
  944MOL0     H27417   7.290  10.624  -2.077  1.2593 -0.8902 -0.9340
  944MOL0     H27418   7.302  10.911  -2.083 -2.1985 -0.0859 -0.8374
  944MOL0     H27419   7.286  10.879  -1.917 -0.9365  1.1696  0.0182
  944MOL0     H27420   7.067  10.824  -1.930 -0.0872  0.0527  0.1600
  944MOL0     H27421   7.099  10.729  -2.083  1.0932  0.5389  0.4506
  944MOL0     H27422   7.355  10.425  -1.183 -2.2014  2.6071 -0.2802
  944MOL0     H27423   7.253  10.247  -1.023 -0.6838 -0.0794  0.0169
  944MOL0     H27424   7.106   9.991  -0.869 -0.9729  2.0532  0.7689
  944MOL0     H27425   7.052   9.818  -0.683  3.7554  0.7193 -2.5095
  944MOL0     H27426   6.797   9.005   0.317 -1.2574  1.1162  2.0934
  944MOL0     H27427   6.838   9.203   0.418 -2.4340 -0.5775 -0.6624
  944MOL0     H27428   7.301   9.510   0.608  2.0558  1.0649 -1.2673
  944MOL0     H27429   7.262   9.675   0.770  0.0792 -2.6655 -1.0763
  944MOL0     H27430   7.063  10.037   0.814 -0.0835 -0.3387  0.7051
  944MOL0     H27431   6.998  10.015   0.652 -1.8275 -1.2298 -0.8779
  944MOL0     H27432   6.826   9.888   0.731 -0.7027  1.5829  0.0244
  944MOL0     H27433   6.819  10.048   0.796  1.7789  0.4431 -2.5114
  944MOL0     H27434   6.920   9.990   1.007  1.1849 -0.4732 -0.6927
  944MOL0     H27435   6.936   9.822   0.959  1.1801 -0.2296 -1.1333
  944MOL0     H27436   6.647   9.959   0.948 -2.7859 -1.0224 -0.0003
  944MOL0     H27437   6.711   9.876   1.099 -2.2581 -1.5948 -0.3495
  944MOL0     H27438   6.572   9.619   0.797 -2.6235 -1.6574  2.7715
  944MOL0     H27439   6.930   9.819   0.538 -1.4823 -1.2918  0.0836
  944MOL0     H27440   6.960   9.646   0.393 -3.0195 -0.9734  3.1276
  945MOL0     O27441   2.196   6.287   7.950  0.0249 -0.1243 -0.8929
  945MOL0     C27442   2.289   6.317   7.878 -0.4510  0.1669 -0.7150
  945MOL0     O27443   2.309   6.264   7.759  0.8558  0.8923  0.1285
  945MOL0     C27444   2.221   6.174   7.709 -0.8163 -0.6385 -0.5383
  945MOL0     C27445   2.276   6.070   7.639 -0.8472 -0.9673  0.1647
  945MOL0     C27446   2.193   5.974   7.581  0.8322  0.3126 -0.3987
  945MOL0     C27447   2.058   5.974   7.579  0.3700  0.5873  0.7136
  945MOL0     O27448   1.996   5.870   7.513 -0.6012  0.4529 -0.5770
  945MOL0     C27449   1.845   5.879   7.507 -0.3709  0.4433 -0.6938
  945MOL0     C27450   1.801   5.801   7.635  0.6014  0.3602 -0.2833
  945MOL0     C27451   1.816   5.661   7.610  0.3926  0.5637 -0.4738
  945MOL0     C27452   1.730   5.607   7.497 -0.7034  0.3082 -0.3841
  945MOL0     C27453   1.770   5.470   7.456  0.4091  0.6961 -0.5873
  945MOL0     C27454   1.738   5.418   7.326 -0.4771 -0.7218  0.0829
  945MOL0     C27455   1.782   5.265   7.322  0.5615 -0.8241  0.1126
  945MOL0     C27456   1.875   5.230   7.211  0.6660 -0.1671  0.7650
  945MOL0     N27457   1.802   5.252   7.080 -1.3646 -0.2426  0.2251
  945MOL0     C27458   1.705   5.165   7.025 -0.5194 -1.2671  0.0156
  945MOL0     C27459   1.682   5.221   6.906 -0.2782 -0.1206 -0.7023
  945MOL0     C27460   1.594   5.173   6.792  0.4719  0.4801  0.3018
  945MOL0     C27461   1.453   5.232   6.806 -0.2341 -0.4158 -0.0211
  945MOL0     C27462   1.369   5.219   6.670 -0.6434  0.0420  0.3284
  945MOL0     C27463   1.216   5.253   6.686  0.1541  0.1801  0.6198
  945MOL0     O27464   1.161   5.258   6.558  0.1504 -0.0031 -0.2770
  945MOL0     C27465   1.028   5.252   6.557 -0.1140 -0.4049  0.0338
  945MOL0     C27466   0.955   5.357   6.613  0.0630 -0.0160 -0.2819
  945MOL0     C27467   0.819   5.334   6.625  0.3065 -0.0729  0.4245
  945MOL0     C27468   0.744   5.442   6.688 -0.4612 -0.3793  0.4261
  945MOL0     C27469   0.754   5.219   6.575  1.1135 -1.0821 -0.5888
  945MOL0     C27470   0.614   5.193   6.609 -0.4124  0.4367  0.2481
  945MOL0     O27471   0.551   5.154   6.504  0.6773  0.4038 -0.7646
  945MOL0     C27472   0.412   5.151   6.505 -0.0477  0.0596 -1.0042
  945MOL0     C27473   0.347   5.055   6.420 -0.1160 -0.5247 -0.9303
  945MOL0     C27474   0.203   5.051   6.434  0.1157  0.0462  0.1409
  945MOL0     C27475   0.125   5.138   6.514  0.0190 -0.8421 -0.1033
  945MOL0     O27476  -0.015   5.132   6.518 -0.7870  0.4240  0.1347
  945MOL0     C27477  -0.101   5.248   6.524  0.6021  0.6387 -0.0232
  945MOL0     C27478  -0.157   5.281   6.666 -0.3919 -0.7689 -0.3368
  945MOL0     C27479  -0.221   5.165   6.730  0.2067  0.7665  0.5375
  945MOL0     C27480  -0.177   5.140   6.878  0.7805 -0.2812  0.3135
  945MOL0     C27481  -0.025   5.104   6.900 -0.0071  0.1959 -0.6344
  945MOL0     C27482   0.014   5.079   7.047 -0.3460 -0.8720 -0.3384
  945MOL0     C27483   0.152   5.014   7.076  0.3719 -0.0593 -1.4295
  945MOL0     C27484   0.184   5.026   7.227 -1.1925 -0.3104 -0.5750
  945MOL0    Cl27485   0.109   4.910   7.347 -0.3887 -0.2965  0.2306
  945MOL0     C27486   0.202   5.235   6.589 -1.0832 -0.2646  0.2542
  945MOL0     C27487   0.341   5.233   6.587 -0.7701  0.3307 -0.9299
  945MOL0     O27488   0.579   5.189   6.726 -0.1703 -0.5472  0.1907
  945MOL0     C27489   0.833   5.113   6.529  0.0508  0.5829  1.0606
  945MOL0     C27490   0.969   5.135   6.516  0.4143  0.3484  0.4460
  945MOL0     N27491   1.762   5.329   6.883 -0.3773  0.1329 -1.1485
  945MOL0     N27492   1.846   5.331   6.981  0.2849  1.0478 -0.5658
  945MOL0     C27493   1.998   6.076   7.651  0.1439  0.6671  0.1668
  945MOL0     C27494   2.072   6.174   7.718 -1.1282 -0.1837 -0.1659
  945MOL0     C27495   2.384   6.420   7.933 -0.1871 -1.1385 -0.2655
  945MOL0     C27496   2.499   6.435   7.858 -0.6285  0.7005 -0.2181
  945MOL0     C27497   2.600   6.523   7.896  0.2128 -0.4098  0.1219
  945MOL0     C27498   2.581   6.595   8.016 -0.1074  0.6166  0.9804
  945MOL0     O27499   2.670   6.691   8.061 -0.3964 -0.8722  0.2942
  945MOL0     C27500   2.810   6.667   8.012  0.3364 -0.5306 -0.1223
  945MOL0     C27501   2.913   6.729   8.109 -0.6055 -0.8465  0.3793
  945MOL0     C27502   2.943   6.642   8.227  0.3808  0.4487 -0.4361
  945MOL0     C27503   3.028   6.530   8.176 -0.0679  0.5435  0.2654
  945MOL0     C27504   3.110   6.476   8.280 -0.1911  0.6724  0.1496
  945MOL0     C27505   3.175   6.442   8.378  0.1161  0.4697  0.0935
  945MOL0     C27506   2.467   6.588   8.087 -0.9023  0.7342 -0.5755
  945MOL0     C27507   2.363   6.495   8.052 -0.0807  0.0888  1.0570
  945MOL0     H27508   2.384   6.068   7.628 -0.9361 -0.8364 -0.8097
  945MOL0     H27509   2.252   5.895   7.536 -0.1528 -0.8682  0.3311
  945MOL0     H27510   1.807   5.981   7.507  0.7076  0.9838  2.9363
  945MOL0     H27511   1.817   5.844   7.407 -4.1180  1.0835 -0.0019
  945MOL0     H27512   1.859   5.827   7.724 -0.4851 -1.0476  0.8910
  945MOL0     H27513   1.696   5.817   7.662 -0.0616 -1.7175 -1.4017
  945MOL0     H27514   1.920   5.648   7.580  0.3838 -0.7139 -0.0307
  945MOL0     H27515   1.807   5.591   7.694  1.9269 -0.5198 -1.1472
  945MOL0     H27516   1.632   5.597   7.544 -0.2707  0.3193  0.5290
  945MOL0     H27517   1.732   5.670   7.407 -0.8123 -0.1615 -0.7228
  945MOL0     H27518   1.876   5.461   7.479  0.1377  1.2900  1.0551
  945MOL0     H27519   1.719   5.403   7.526 -2.0991  1.1055 -1.8848
  945MOL0     H27520   1.630   5.424   7.307 -0.5676 -1.2591  0.4184
  945MOL0     H27521   1.792   5.483   7.256  0.3377  0.4107  1.7149
  945MOL0     H27522   1.822   5.237   7.420  1.6536 -0.3436 -0.1869
  945MOL0     H27523   1.697   5.202   7.295  1.5890 -0.8577 -3.4647
  945MOL0     H27524   1.881   5.121   7.213 -2.4303 -0.4491 -0.3171
  945MOL0     H27525   1.975   5.275   7.212  2.1197 -3.0243 -1.4874
  945MOL0     H27526   1.675   5.071   7.071 -3.0472 -0.8499 -0.6835
  945MOL0     H27527   1.629   5.205   6.693 -2.1445  1.4419 -0.4226
  945MOL0     H27528   1.582   5.065   6.791 -1.4021  0.6228  1.8060
  945MOL0     H27529   1.463   5.338   6.830 -2.9293 -0.0061 -0.3581
  945MOL0     H27530   1.395   5.191   6.889 -1.1159  2.0343  0.6540
  945MOL0     H27531   1.376   5.115   6.636 -0.8509 -0.8015  2.6871
  945MOL0     H27532   1.420   5.287   6.601  3.8924 -3.3504 -0.1140
  945MOL0     H27533   1.210   5.343   6.748  1.3781 -0.2728  1.4285
  945MOL0     H27534   1.169   5.167   6.733 -1.0554 -1.9028 -3.8684
  945MOL0     H27535   0.999   5.449   6.650  3.0055 -1.5274  0.2460
  945MOL0     H27536   0.712   5.409   6.788 -0.1041  0.5908  0.8748
  945MOL0     H27537   0.796   5.537   6.700 -1.1668 -0.2864  3.6910
  945MOL0     H27538   0.660   5.459   6.621 -0.1433 -2.2768 -0.5342
  945MOL0     H27539   0.410   4.996   6.354 -1.0341  1.6940 -4.0757
  945MOL0     H27540   0.153   4.969   6.382  0.2357  0.6041 -0.8791
  945MOL0     H27541  -0.058   5.337   6.477 -1.6665  1.3192 -0.9479
  945MOL0     H27542  -0.179   5.222   6.452  1.0915  0.1048 -0.3638
  945MOL0     H27543  -0.073   5.316   6.727 -1.3330 -1.4074  1.3863
  945MOL0     H27544  -0.230   5.363   6.663  2.2181  1.6631 -1.5431
  945MOL0     H27545  -0.189   5.084   6.663 -1.7702  0.2671  0.1358
  945MOL0     H27546  -0.329   5.183   6.727  0.1583  0.4198 -1.4779
  945MOL0     H27547  -0.187   5.232   6.936 -1.0777 -0.2935  0.0562
  945MOL0     H27548  -0.239   5.060   6.920 -1.5604  1.0341 -0.4650
  945MOL0     H27549   0.023   5.192   6.856 -0.4058  0.7315 -0.0390
  945MOL0     H27550  -0.004   5.010   6.848  0.2413 -0.2378  0.2355
  945MOL0     H27551   0.015   5.174   7.102  0.8778 -2.4473  2.5415
  945MOL0     H27552  -0.056   5.012   7.098  0.4992  0.6937  3.1516
  945MOL0     H27553   0.234   5.057   7.019  2.1708 -1.0475  0.2687
  945MOL0     H27554   0.130   4.911   7.046 -0.9316 -0.6184  1.0966
  945MOL0     H27555   0.162   5.128   7.258  1.3489  0.5137 -1.2763
  945MOL0     H27556   0.292   5.018   7.240 -1.3448 -0.3063  0.8384
  945MOL0     H27557   0.154   5.310   6.651  0.5375 -1.5140  3.2141
  945MOL0     H27558   0.384   5.306   6.655 -0.8008  0.9072 -1.5229
  945MOL0     H27559   0.794   5.015   6.502  1.4987 -0.0744  1.2996
  945MOL0     H27560   1.035   5.054   6.486  0.4600  0.2807  0.7263
  945MOL0     H27561   1.892   6.063   7.671  0.4027  1.3159  2.1568
  945MOL0     H27562   2.026   6.252   7.777  1.7984  0.6987  1.1378
  945MOL0     H27563   2.526   6.382   7.767 -1.1526 -3.0336  1.5859
  945MOL0     H27564   2.694   6.538   7.845  2.0513 -2.1719  2.6869
  945MOL0     H27565   2.827   6.561   7.990 -4.5331 -0.9808 -3.3392
  945MOL0     H27566   2.822   6.731   7.924  2.9731 -0.2743  0.3311
  945MOL0     H27567   2.870   6.823   8.147 -3.0363 -0.2331 -3.2954
  945MOL0     H27568   3.007   6.753   8.059 -0.9212 -0.0279  0.1447
  945MOL0     H27569   2.851   6.604   8.271  1.2951 -1.4152 -0.0388
  945MOL0     H27570   2.991   6.698   8.308  0.6500 -1.2679  0.6451
  945MOL0     H27571   3.100   6.550   8.096  0.0126 -1.9069 -0.3676
  945MOL0     H27572   2.973   6.439   8.149 -0.2891  0.8837 -0.4675
  945MOL0     H27573   3.237   6.416   8.461 -0.0380  2.4644  0.8873
  945MOL0     H27574   2.450   6.648   8.176 -0.0825  2.7625 -1.7134
  945MOL0     H27575   2.270   6.483   8.106 -0.4552  0.6229  0.5405
  946MOL0     O27576   6.698   3.541  10.008  0.6224 -0.0030 -0.2392
  946MOL0     C27577   6.653   3.501   9.903  1.0895 -0.1235 -0.0834
  946MOL0     O27578   6.523   3.509   9.860  0.6504  0.0386 -0.7115
  946MOL0     C27579   6.427   3.588   9.922 -0.1057 -0.8528 -0.4094
  946MOL0     C27580   6.425   3.658  10.053 -0.7539 -0.2049  0.3807
  946MOL0     C27581   6.317   3.737  10.088  0.4046  0.1371 -0.3684
  946MOL0     C27582   6.194   3.735  10.022  0.1542 -0.4460  0.5567
  946MOL0     O27583   6.066   3.779  10.058  0.2737 -0.1403 -0.4591
  946MOL0     C27584   6.047   3.821  10.196 -0.1858 -0.3694 -0.1806
  946MOL0     C27585   5.942   3.925  10.198 -0.0646  0.3637 -0.1430
  946MOL0     C27586   5.933   4.019  10.325  0.0236 -0.0988  0.2018
  946MOL0     C27587   5.807   4.100  10.358  1.0110  0.9217  0.0034
  946MOL0     C27588   5.850   4.203  10.461  0.2348 -0.7816 -0.5196
  946MOL0     C27589   5.741   4.309  10.483 -1.0270 -0.6975  0.0424
  946MOL0     C27590   5.718   4.388  10.357 -0.2115  0.6522  0.7849
  946MOL0     C27591   5.591   4.328  10.289  0.2040 -0.0219 -0.2040
  946MOL0     N27592   5.575   4.390  10.154  0.3462 -1.3943  0.2715
  946MOL0     C27593   5.654   4.372  10.048  0.1247 -0.0665  0.2823
  946MOL0     C27594   5.599   4.437   9.941 -0.1853  0.7573  0.3366
  946MOL0     C27595   5.663   4.452   9.812 -0.6598 -0.1824  0.0862
  946MOL0     C27596   5.712   4.604   9.785  0.6529 -0.1269 -0.5004
  946MOL0     C27597   5.765   4.599   9.640 -0.0028 -0.8156 -0.2064
  946MOL0     C27598   5.799   4.739   9.593  0.3193 -0.8962 -0.1695
  946MOL0     O27599   5.688   4.833   9.607  0.3135 -0.4122 -0.0202
  946MOL0     C27600   5.588   4.846   9.506 -0.6518 -1.1909  0.0658
  946MOL0     C27601   5.601   4.964   9.425 -1.0490  0.1130  0.6426
  946MOL0     C27602   5.514   4.987   9.311  0.8785  0.4044 -0.8309
  946MOL0     C27603   5.550   5.104   9.224 -0.0542  0.4461  0.0956
  946MOL0     C27604   5.409   4.886   9.292 -0.0511  0.3706 -0.8439
  946MOL0     C27605   5.307   4.885   9.185 -0.3912 -0.3079 -1.0450
  946MOL0     O27606   5.333   4.964   9.074  0.3481 -0.2191 -0.5879
  946MOL0     C27607   5.224   5.003   8.994  0.6010  0.3522  0.3222
  946MOL0     C27608   5.248   5.035   8.859 -0.4502 -0.4166 -0.5063
  946MOL0     C27609   5.154   5.102   8.775  0.4808  0.5808 -0.2103
  946MOL0     C27610   5.036   5.138   8.830  0.3085 -0.0642 -0.2640
  946MOL0     O27611   4.952   5.216   8.758 -0.1875 -0.2625 -0.5331
  946MOL0     C27612   4.869   5.152   8.663 -0.7007  0.5953  0.0635
  946MOL0     C27613   4.734   5.107   8.734 -0.6064  0.8328  0.2815
  946MOL0     C27614   4.615   5.188   8.694  0.4108 -0.0535  0.5995
  946MOL0     C27615   4.504   5.160   8.786 -0.1602  0.0176 -0.4405
  946MOL0     C27616   4.359   5.180   8.723 -0.3738 -0.2525 -0.1650
  946MOL0     C27617   4.327   5.319   8.665 -0.2439 -0.0530 -0.0146
  946MOL0     C27618   4.185   5.335   8.616  1.4262 -0.1504 -0.4431
  946MOL0     C27619   4.152   5.236   8.497  0.7221 -0.6757  0.1383
  946MOL0    Cl27620   3.980   5.265   8.453  0.3963  0.3826 -0.0693
  946MOL0     C27621   5.004   5.112   8.962 -0.1865 -0.7574 -0.7994
  946MOL0     C27622   5.096   5.039   9.045 -0.3878  0.0992  0.1181
  946MOL0     O27623   5.197   4.827   9.210 -0.5347 -0.0909  0.4719
  946MOL0     C27624   5.398   4.771   9.379 -0.9666 -0.4696  0.7889
  946MOL0     C27625   5.498   4.751   9.476  0.4018  0.3673  0.4721
  946MOL0     N27626   5.483   4.486   9.982 -0.4980 -0.0110  0.4070
  946MOL0     N27627   5.471   4.465  10.113  0.3251  0.2326  0.8461
  946MOL0     C27628   6.200   3.659   9.900 -1.0089 -0.0600 -0.1624
  946MOL0     C27629   6.313   3.587   9.845 -0.8389 -0.7569  0.0908
  946MOL0     C27630   6.741   3.426   9.813  0.1552  0.0202 -0.0629
  946MOL0     C27631   6.876   3.403   9.849  0.3320 -0.0806 -0.1188
  946MOL0     C27632   6.961   3.345   9.754 -0.0164  0.1426  0.8892
  946MOL0     C27633   6.914   3.316   9.621  0.4584 -0.3447 -0.8274
  946MOL0     O27634   6.998   3.250   9.532  0.6060  0.5920  0.0261
  946MOL0     C27635   6.949   3.196   9.403  0.5688 -0.4837 -0.1029
  946MOL0     C27636   6.839   3.086   9.419 -0.9936  0.5813 -0.4104
  946MOL0     C27637   6.914   2.949   9.419 -0.0119  0.1067 -0.8931
  946MOL0     C27638   6.823   2.837   9.438  0.2791 -0.1771  0.3465
  946MOL0     C27639   6.710   2.811   9.342  0.3765  0.0287  0.6166
  946MOL0     C27640   6.624   2.793   9.261 -0.4536  0.0596 -0.3699
  946MOL0     C27641   6.785   3.358   9.591 -0.2891  0.2986  0.4124
  946MOL0     C27642   6.697   3.391   9.684  0.7740 -0.4935 -0.4948
  946MOL0     H27643   6.516   3.651  10.111  0.7079  0.6468 -1.6765
  946MOL0     H27644   6.330   3.776  10.188  0.2157 -0.1871 -0.2166
  946MOL0     H27645   6.008   3.736  10.253 -0.2264 -0.1840  0.0691
  946MOL0     H27646   6.138   3.857  10.245 -1.3756  0.7480  1.3072
  946MOL0     H27647   5.969   3.992  10.115  2.0244  1.6871  1.5111
  946MOL0     H27648   5.843   3.885  10.171 -0.3196  1.8515 -1.6012
  946MOL0     H27649   5.955   3.943  10.400  0.2719 -0.5845 -0.3553
  946MOL0     H27650   6.019   4.086  10.313 -2.0439  3.0171  1.3841
  946MOL0     H27651   5.781   4.147  10.262  1.1437  1.9895  0.4698
  946MOL0     H27652   5.723   4.037  10.387 -0.0388  1.4049 -1.7980
  946MOL0     H27653   5.865   4.158  10.559  0.5285  1.0771  0.3372
  946MOL0     H27654   5.942   4.253  10.428  1.5003 -2.0775  0.9277
  946MOL0     H27655   5.646   4.279  10.529 -0.9283  1.2445  1.6608
  946MOL0     H27656   5.773   4.379  10.560  0.2257 -0.4549 -0.6655
  946MOL0     H27657   5.703   4.492  10.389  0.5455  1.2457 -0.6877
  946MOL0     H27658   5.800   4.386  10.285  0.5084  2.9730  1.4300
  946MOL0     H27659   5.505   4.362  10.349 -0.2577 -0.2644 -0.7176
  946MOL0     H27660   5.570   4.222  10.278 -1.4084  0.3014 -0.5700
  946MOL0     H27661   5.742   4.308  10.047 -3.8327 -6.5856  2.1167
  946MOL0     H27662   5.743   4.378   9.809 -2.6138 -2.4542  0.7590
  946MOL0     H27663   5.584   4.426   9.740 -0.3434 -1.6131  0.2198
  946MOL0     H27664   5.789   4.634   9.857  0.9567  1.7892 -1.5484
  946MOL0     H27665   5.625   4.667   9.806 -0.3096 -0.9324 -1.9326
  946MOL0     H27666   5.689   4.548   9.581  2.0939 -1.9731 -2.0503
  946MOL0     H27667   5.858   4.544   9.658  0.8426  0.4553 -0.5747
  946MOL0     H27668   5.837   4.741   9.490 -2.1035 -1.7245 -1.1617
  946MOL0     H27669   5.885   4.770   9.652 -0.6207 -3.5481  2.8735
  946MOL0     H27670   5.693   5.020   9.435 -0.8869  0.2868 -1.3862
  946MOL0     H27671   5.629   5.158   9.276  1.8391 -1.6824 -0.4075
  946MOL0     H27672   5.585   5.058   9.131 -1.4672  1.6244 -1.0841
  946MOL0     H27673   5.472   5.171   9.187 -0.0789  0.6356  0.4842
  946MOL0     H27674   5.347   5.015   8.818  0.1350  0.3439  0.4808
  946MOL0     H27675   5.202   5.140   8.685  1.8393 -1.7676 -0.5880
  946MOL0     H27676   4.848   5.232   8.591  0.3564  1.9151  1.1549
  946MOL0     H27677   4.903   5.058   8.620 -3.1925 -0.1785 -0.3598
  946MOL0     H27678   4.723   5.002   8.708 -2.1285  1.3433 -1.3478
  946MOL0     H27679   4.749   5.109   8.842 -0.4378  2.5631  0.2605
  946MOL0     H27680   4.588   5.157   8.593  0.5447 -0.0106  0.5496
  946MOL0     H27681   4.643   5.293   8.705  0.6009 -0.2347  2.0455
  946MOL0     H27682   4.508   5.053   8.807  1.0099 -0.1686 -1.4951
  946MOL0     H27683   4.521   5.204   8.885  0.5864 -1.8288  0.2888
  946MOL0     H27684   4.284   5.155   8.799 -3.0270  1.1658 -2.1254
  946MOL0     H27685   4.343   5.113   8.638  1.7865 -0.6962 -0.2677
  946MOL0     H27686   4.342   5.391   8.747 -1.2516 -0.5637  0.6486
  946MOL0     H27687   4.401   5.343   8.589  0.4484  1.4982  1.0927
  946MOL0     H27688   4.158   5.439   8.599  3.4643  0.8871  1.9783
  946MOL0     H27689   4.112   5.302   8.691  3.1187 -1.4241  0.7405
  946MOL0     H27690   4.161   5.132   8.529  0.6380 -0.1532  1.9728
  946MOL0     H27691   4.225   5.262   8.419  0.7875  0.7545  0.6324
  946MOL0     H27692   4.906   5.148   8.991 -0.0739  3.0169 -4.1904
  946MOL0     H27693   5.069   5.004   9.144  0.1028 -2.9115 -0.7134
  946MOL0     H27694   5.327   4.692   9.357  2.5688 -4.0621  1.3110
  946MOL0     H27695   5.484   4.659   9.532 -0.7420  1.2144  1.6434
  946MOL0     H27696   6.114   3.638   9.837 -1.7587  0.6057  0.6225
  946MOL0     H27697   6.326   3.558   9.741 -0.3841  0.7994 -0.3128
  946MOL0     H27698   6.914   3.433   9.946  2.4399  0.1026 -0.9419
  946MOL0     H27699   7.063   3.332   9.790 -0.7063 -3.1976  1.9454
  946MOL0     H27700   6.923   3.268   9.325  0.3567 -0.2775  0.1540
  946MOL0     H27701   7.041   3.154   9.363  2.8346  3.0537  0.9069
  946MOL0     H27702   6.773   3.089   9.332 -0.5769 -1.4585 -0.8475
  946MOL0     H27703   6.777   3.085   9.509 -0.4442  1.8824  0.0015
  946MOL0     H27704   6.967   2.939   9.514 -1.7365 -1.1984 -0.0086
  946MOL0     H27705   6.983   2.925   9.337  0.2616 -0.0251 -0.6254
  946MOL0     H27706   6.778   2.861   9.534 -1.9854 -2.4422 -0.0228
  946MOL0     H27707   6.884   2.746   9.450 -0.6780 -0.7095  1.3243
  946MOL0     H27708   6.548   2.780   9.187 -1.7187  0.9911  0.7227
  946MOL0     H27709   6.738   3.329   9.498  4.5013 -0.3288 -2.1532
  946MOL0     H27710   6.599   3.397   9.639  1.6174 -1.7281 -2.5987
  947MOL0     O27711   3.281   3.485   2.413  1.3315 -0.8436  1.0528
  947MOL0     C27712   3.214   3.518   2.512  0.7448 -0.4341  0.5673
  947MOL0     O27713   3.175   3.640   2.549 -0.1189 -0.1284  0.4446
  947MOL0     C27714   3.207   3.750   2.476  0.1296 -0.1052 -0.1319
  947MOL0     C27715   3.317   3.826   2.511 -1.1394  0.4363 -0.1695
  947MOL0     C27716   3.356   3.927   2.425  0.6770 -1.1049 -0.5167
  947MOL0     C27717   3.275   3.972   2.319 -1.5054 -0.0590 -0.4482
  947MOL0     O27718   3.310   4.081   2.247  0.3007 -0.0306  0.3296
  947MOL0     C27719   3.345   4.202   2.320 -0.5628  0.4294  0.2862
  947MOL0     C27720   3.336   4.320   2.227 -0.5674 -1.0856 -0.0456
  947MOL0     C27721   3.347   4.467   2.282  0.4760  0.2745 -0.8268
  947MOL0     C27722   3.233   4.492   2.380  0.1740  0.4897 -1.1425
  947MOL0     C27723   3.217   4.641   2.424 -0.7128  0.7977 -0.0927
  947MOL0     C27724   3.121   4.647   2.547 -0.4091  1.1075 -0.9986
  947MOL0     C27725   3.087   4.796   2.592  0.7413  0.1621 -0.1835
  947MOL0     C27726   3.204   4.890   2.608 -0.2514 -0.1453  1.0678
  947MOL0     N27727   3.155   5.032   2.615 -0.1243  0.8339 -0.8682
  947MOL0     C27728   3.142   5.113   2.509 -0.1565  0.2705 -1.3475
  947MOL0     C27729   3.099   5.232   2.555 -0.1913 -0.1255 -0.4356
  947MOL0     C27730   3.068   5.362   2.493 -0.3021  0.2047  0.2158
  947MOL0     C27731   3.197   5.426   2.447  0.0150  0.4118  0.4056
  947MOL0     C27732   3.184   5.585   2.438 -1.3541  0.4440 -0.2617
  947MOL0     C27733   3.322   5.660   2.423 -0.0139  0.0396  0.2972
  947MOL0     O27734   3.401   5.587   2.335  0.5723 -0.4716  0.3822
  947MOL0     C27735   3.507   5.662   2.287 -0.2712  0.4306  0.4409
  947MOL0     C27736   3.497   5.772   2.207  0.2496  0.1102 -0.0577
  947MOL0     C27737   3.611   5.843   2.165  1.2681 -0.0137  0.2005
  947MOL0     C27738   3.585   5.961   2.068  0.6357  0.2548 -0.3389
  947MOL0     C27739   3.740   5.790   2.184 -0.3973 -0.7554  0.3289
  947MOL0     C27740   3.859   5.863   2.134  0.1516 -0.3209  0.2649
  947MOL0     O27741   3.966   5.800   2.088 -0.1719  0.4705 -0.1013
  947MOL0     C27742   4.092   5.851   2.077 -0.2837 -0.4928 -0.5484
  947MOL0     C27743   4.113   5.979   2.021 -0.1340 -0.7428 -0.0423
  947MOL0     C27744   4.229   6.037   2.001 -0.5618 -0.7687 -0.0507
  947MOL0     C27745   4.351   5.958   2.017 -0.3055  1.0329  0.1863
  947MOL0     O27746   4.479   6.020   2.001 -0.2634 -0.1554  0.7044
  947MOL0     C27747   4.599   5.944   2.001 -0.7405 -0.3868  0.3627
  947MOL0     C27748   4.704   6.055   1.948 -0.1470 -0.2069  0.7274
  947MOL0     C27749   4.682   6.099   1.805  0.1447  0.6867 -0.4243
  947MOL0     C27750   4.785   6.202   1.751 -0.3478 -0.3073  0.5243
  947MOL0     C27751   4.779   6.240   1.603  0.6945 -0.5363 -0.7317
  947MOL0     C27752   4.904   6.330   1.563  0.8743  0.9740 -0.8787
  947MOL0     C27753   4.915   6.471   1.626 -0.7883 -0.3815 -0.2709
  947MOL0     C27754   5.052   6.523   1.605 -0.7326  0.2868 -0.5024
  947MOL0    Cl27755   5.092   6.662   1.712  0.0278  0.3212 -0.1083
  947MOL0     C27756   4.332   5.830   2.078  0.4256  0.2173  0.3528
  947MOL0     C27757   4.202   5.784   2.108  0.7479  0.1268  0.4112
  947MOL0     O27758   3.862   5.986   2.162  0.4792 -0.1996 -0.3707
  947MOL0     C27759   3.761   5.672   2.256  1.0541 -0.9876 -0.4449
  947MOL0     C27760   3.635   5.619   2.313 -0.4382 -0.3639  0.3978
  947MOL0     N27761   3.089   5.228   2.691  0.0726 -0.5484 -0.1772
  947MOL0     N27762   3.125   5.106   2.726  0.1047 -0.0265 -0.6628
  947MOL0     C27763   3.160   3.911   2.284  0.0919  1.1116 -0.7788
  947MOL0     C27764   3.132   3.786   2.363 -0.5998 -0.5620 -0.1609
  947MOL0     C27765   3.160   3.396   2.580 -0.7923 -0.0792  0.1208
  947MOL0     C27766   3.076   3.412   2.690 -0.4818 -0.5300  0.6158
  947MOL0     C27767   3.021   3.304   2.745  0.4385  0.2366 -0.2580
  947MOL0     C27768   3.030   3.176   2.688  0.2709  1.2888 -0.1364
  947MOL0     O27769   2.968   3.062   2.733 -0.2979  0.6853  0.3350
  947MOL0     C27770   2.904   3.072   2.858 -0.3356 -0.0142  0.1171
  947MOL0     C27771   2.836   2.940   2.881 -0.1624 -0.3244  0.3245
  947MOL0     C27772   2.933   2.820   2.868  1.4758 -0.2738 -0.3454
  947MOL0     C27773   2.870   2.697   2.939  0.2545 -0.3548  0.4123
  947MOL0     C27774   2.925   2.572   2.877  0.3800 -0.3289  0.8675
  947MOL0     C27775   2.973   2.468   2.827  0.1525 -0.5984 -0.6757
  947MOL0     C27776   3.104   3.161   2.565  0.2732  0.5923  0.6201
  947MOL0     C27777   3.169   3.273   2.511 -0.5213 -0.4968 -0.0790
  947MOL0     H27778   3.374   3.793   2.597  0.8164  2.7229 -0.4588
  947MOL0     H27779   3.457   3.963   2.442  0.1959 -0.5756  1.4737
  947MOL0     H27780   3.275   4.217   2.403 -0.1678  0.2068  0.6610
  947MOL0     H27781   3.447   4.209   2.358 -0.5596  3.0313 -0.0627
  947MOL0     H27782   3.419   4.307   2.158 -0.8571 -1.9161 -0.2538
  947MOL0     H27783   3.252   4.299   2.160  1.7001 -4.0722 -2.2086
  947MOL0     H27784   3.443   4.482   2.332 -0.3545  5.3830 -0.2904
  947MOL0     H27785   3.338   4.544   2.205  2.6269  0.2588 -1.1618
  947MOL0     H27786   3.143   4.462   2.325  0.1460 -0.1241 -0.7720
  947MOL0     H27787   3.254   4.437   2.472 -0.6305  0.9520 -0.6777
  947MOL0     H27788   3.320   4.678   2.425  0.4171 -2.0232 -1.0569
  947MOL0     H27789   3.160   4.695   2.348 -1.2211  0.6957  0.2119
  947MOL0     H27790   3.034   4.582   2.532  0.1330 -0.1327  0.8852
  947MOL0     H27791   3.177   4.591   2.622 -3.4569 -2.4786 -1.1115
  947MOL0     H27792   3.020   4.848   2.523  0.6367 -0.7358 -0.7657
  947MOL0     H27793   3.037   4.789   2.689  1.4964 -3.1428  0.0997
  947MOL0     H27794   3.268   4.882   2.520 -3.1452  0.3001 -1.2203
  947MOL0     H27795   3.259   4.860   2.697  1.2689 -0.6209  0.0098
  947MOL0     H27796   3.167   5.095   2.405 -0.1310  1.8764 -1.6577
  947MOL0     H27797   2.998   5.344   2.411  1.4317 -1.3748 -1.0118
  947MOL0     H27798   3.019   5.429   2.564  0.8678  2.1978 -0.7632
  947MOL0     H27799   3.229   5.385   2.351 -1.7646 -0.4774  0.1417
  947MOL0     H27800   3.277   5.393   2.514 -0.9501 -1.5634  0.6538
  947MOL0     H27801   3.140   5.626   2.529 -1.6014  4.5986 -2.0438
  947MOL0     H27802   3.123   5.602   2.348  0.3564  0.5072 -1.4609
  947MOL0     H27803   3.385   5.656   2.512 -1.4099 -2.7167  1.2942
  947MOL0     H27804   3.295   5.762   2.396 -2.3785 -0.4674  0.4663
  947MOL0     H27805   3.397   5.802   2.180  0.4167  0.7005 -0.0373
  947MOL0     H27806   3.601   6.055   2.122  0.4943 -0.4734  1.0046
  947MOL0     H27807   3.649   5.964   1.979 -1.0584  3.7781 -1.6723
  947MOL0     H27808   3.477   5.960   2.051  0.6045 -0.4612 -0.1282
  947MOL0     H27809   4.028   6.043   1.999 -0.3919 -0.5494  1.4316
  947MOL0     H27810   4.224   6.143   1.977  0.3932 -0.9616 -1.2340
  947MOL0     H27811   4.624   5.919   2.104 -2.3418 -2.2826  0.3525
  947MOL0     H27812   4.590   5.850   1.946 -1.7861 -0.2668  0.2971
  947MOL0     H27813   4.703   6.143   2.012 -0.3134 -0.4698  1.0864
  947MOL0     H27814   4.800   6.002   1.942 -1.5488 -2.8490 -3.8453
  947MOL0     H27815   4.586   6.150   1.801 -0.2612  0.0148  0.2971
  947MOL0     H27816   4.696   6.019   1.732 -0.7815  1.5568 -1.5802
  947MOL0     H27817   4.772   6.294   1.809  0.6254  0.8315 -0.9822
  947MOL0     H27818   4.881   6.164   1.788 -0.5605  0.3757  1.8500
  947MOL0     H27819   4.688   6.296   1.581  0.0622 -1.4339 -0.4097
  947MOL0     H27820   4.774   6.149   1.543  0.1253 -2.5862  2.2579
  947MOL0     H27821   4.995   6.277   1.595 -1.0017  0.3710  4.2823
  947MOL0     H27822   4.919   6.326   1.454  2.0651  0.9475 -0.7358
  947MOL0     H27823   4.896   6.469   1.734 -1.7811  1.0525 -0.3966
  947MOL0     H27824   4.842   6.541   1.585 -0.3304  0.0418 -0.3689
  947MOL0     H27825   5.051   6.562   1.502 -1.7642 -0.6582 -0.8668
  947MOL0     H27826   5.136   6.454   1.616  0.5729  1.8186 -0.5077
  947MOL0     H27827   4.417   5.764   2.089  1.6332  1.8829  1.4479
  947MOL0     H27828   4.195   5.686   2.155  1.0686  0.1124  0.4321
  947MOL0     H27829   3.856   5.626   2.280  1.5971 -0.2815 -1.1720
  947MOL0     H27830   3.641   5.534   2.380  0.6306  0.9282  2.0203
  947MOL0     H27831   3.093   3.958   2.212 -0.5134  1.9066  0.2684
  947MOL0     H27832   3.042   3.734   2.332 -1.5801  2.3195 -2.6063
  947MOL0     H27833   3.066   3.508   2.740 -0.2928 -0.2379  0.1029
  947MOL0     H27834   2.978   3.319   2.843  1.6489  1.1877  0.1593
  947MOL0     H27835   2.972   3.094   2.940 -1.6317 -0.7549  1.4349
  947MOL0     H27836   2.827   3.149   2.867  0.5052  0.8955 -0.2871
  947MOL0     H27837   2.763   2.927   2.800 -0.5393  4.0853 -0.2886
  947MOL0     H27838   2.785   2.939   2.977 -0.6698 -2.5132  0.0856
  947MOL0     H27839   3.028   2.848   2.915  0.6834 -0.1730  1.2579
  947MOL0     H27840   2.932   2.799   2.760 -2.7474  1.7583 -0.9091
  947MOL0     H27841   2.760   2.697   2.935  0.1914  0.2923  1.7697
  947MOL0     H27842   2.895   2.699   3.045  1.6367 -2.2809  0.1666
  947MOL0     H27843   3.030   2.381   2.804 -0.6180 -1.0074 -1.0577
  947MOL0     H27844   3.122   3.061   2.527  0.5613 -0.2796  2.9009
  947MOL0     H27845   3.225   3.267   2.418 -0.3406  5.1181 -0.7125
  948MOL0     O27846   2.423   6.083   2.450 -0.2113  0.1501  0.1006
  948MOL0     C27847   2.364   6.180   2.503  0.0642  0.1400  0.0109
  948MOL0     O27848   2.259   6.178   2.597 -0.1957 -0.1583 -0.0001
  948MOL0     C27849   2.203   6.059   2.634  0.7520 -0.1247  0.6510
  948MOL0     C27850   2.209   6.019   2.768 -1.0287 -0.2307 -0.5819
  948MOL0     C27851   2.143   5.914   2.817 -0.5224  0.1234  0.1674
  948MOL0     C27852   2.063   5.843   2.728 -0.0401 -0.1920  0.1511
  948MOL0     O27853   1.971   5.746   2.754  0.0461 -0.5792 -0.0670
  948MOL0     C27854   1.964   5.674   2.879  0.3685  0.1526 -0.8525
  948MOL0     C27855   1.934   5.521   2.872  0.2674  0.4112 -1.0058
  948MOL0     C27856   1.784   5.498   2.860 -0.2327 -0.2227 -0.1829
  948MOL0     C27857   1.748   5.359   2.904  0.2921  0.2889 -0.8779
  948MOL0     C27858   1.780   5.243   2.807  0.2130 -0.6602 -0.0595
  948MOL0     C27859   1.752   5.105   2.869  0.6220  0.3420 -0.2483
  948MOL0     C27860   1.829   5.069   2.993 -0.2776 -0.4634 -0.1800
  948MOL0     C27861   1.905   4.937   2.990  0.9132 -1.4475  0.1682
  948MOL0     N27862   2.015   4.927   2.897 -0.2151 -0.5572 -0.9747
  948MOL0     C27863   2.145   4.973   2.921  0.9217 -0.1429  0.2919
  948MOL0     C27864   2.199   4.993   2.794  0.4524  0.1296 -0.1265
  948MOL0     C27865   2.343   5.025   2.772  0.9551  0.4714 -0.2748
  948MOL0     C27866   2.435   4.910   2.786 -0.0743  0.5061  0.1514
  948MOL0     C27867   2.576   4.948   2.804  0.1844 -0.9324 -0.9737
  948MOL0     C27868   2.672   4.831   2.801  0.1988 -1.1169 -0.0136
  948MOL0     O27869   2.669   4.754   2.921 -0.5742 -0.5698 -0.5540
  948MOL0     C27870   2.697   4.820   3.035  0.5443  0.2785  0.1673
  948MOL0     C27871   2.620   4.811   3.149 -0.0091 -0.1959  0.4586
  948MOL0     C27872   2.638   4.889   3.262 -0.0460 -0.0598 -0.4959
  948MOL0     C27873   2.544   4.886   3.377  0.0633 -0.2974  0.7314
  948MOL0     C27874   2.758   4.959   3.276 -0.4715 -0.2982  0.4564
  948MOL0     C27875   2.806   5.011   3.404  0.3291  0.9589 -0.4003
  948MOL0     O27876   2.933   5.000   3.431 -0.5330  0.4867 -1.1441
  948MOL0     C27877   2.974   5.036   3.553 -0.3815 -1.1658 -0.9444
  948MOL0     C27878   2.940   4.961   3.665 -1.6070 -1.0775 -0.7598
  948MOL0     C27879   2.987   5.001   3.789  0.0936 -1.1399 -0.1143
  948MOL0     C27880   3.059   5.117   3.805 -0.0547 -0.2776 -0.2834
  948MOL0     O27881   3.098   5.155   3.938  0.2601  0.0202  1.2572
  948MOL0     C27882   3.220   5.225   3.945 -0.5827 -1.2357 -0.1981
  948MOL0     C27883   3.335   5.170   4.035  0.1036  0.2058  0.6587
  948MOL0     C27884   3.286   5.133   4.178  1.0944 -0.0946 -0.3306
  948MOL0     C27885   3.418   5.090   4.262 -0.2801 -1.1401  0.9037
  948MOL0     C27886   3.454   4.940   4.251  0.0782  0.6091 -0.3002
  948MOL0     C27887   3.372   4.859   4.353 -0.0687 -0.2605 -0.3624
  948MOL0     C27888   3.378   4.705   4.312 -0.2406 -0.2411  0.0566
  948MOL0     C27889   3.302   4.612   4.412  0.6004 -0.4821 -0.5938
  948MOL0    Cl27890   3.307   4.442   4.396 -0.2772  0.3473 -0.3688
  948MOL0     C27891   3.083   5.196   3.694 -0.4418  0.4374 -0.5073
  948MOL0     C27892   3.039   5.159   3.568  0.1048 -0.4621  0.4162
  948MOL0     O27893   2.727   5.072   3.472  0.4053  0.4249  0.5800
  948MOL0     C27894   2.851   4.949   3.168 -0.0077 -0.2331 -0.0042
  948MOL0     C27895   2.814   4.890   3.047  0.2403 -0.0531 -0.5068
  948MOL0     N27896   2.111   4.945   2.696  0.7255  0.9673  0.3836
  948MOL0     N27897   2.004   4.914   2.763 -0.2121 -0.4448  0.0244
  948MOL0     C27898   2.054   5.884   2.590 -0.3555  0.0601 -0.7213
  948MOL0     C27899   2.130   5.985   2.537 -0.0232 -0.9195  0.4315
  948MOL0     C27900   2.421   6.321   2.495  0.5975  0.0906 -0.0493
  948MOL0     C27901   2.354   6.433   2.544 -0.0693 -0.6022 -0.3239
  948MOL0     C27902   2.414   6.554   2.565 -0.8037 -0.9008  0.0233
  948MOL0     C27903   2.554   6.572   2.532  0.4181 -0.9976 -0.7756
  948MOL0     O27904   2.610   6.689   2.560 -0.1908 -0.5230  0.1046
  948MOL0     C27905   2.709   6.691   2.667 -0.1704 -0.1220  0.4112
  948MOL0     C27906   2.699   6.809   2.759  0.0889 -0.0552  0.9578
  948MOL0     C27907   2.824   6.814   2.851  0.8480 -0.4285 -0.3876
  948MOL0     C27908   2.801   6.729   2.978  0.1204 -0.2079  1.0108
  948MOL0     C27909   2.925   6.744   3.065 -0.0090  0.6481 -0.7980
  948MOL0     C27910   3.024   6.743   3.131  0.5121 -0.7034 -0.4271
  948MOL0     C27911   2.617   6.466   2.479 -0.2049 -0.0443 -0.9487
  948MOL0     C27912   2.559   6.342   2.462  0.8511  0.9143  0.3774
  948MOL0     H27913   2.259   6.079   2.844  1.9408 -2.1346 -0.8652
  948MOL0     H27914   2.151   5.904   2.925  3.6157  2.6924  0.2977
  948MOL0     H27915   2.063   5.682   2.924 -0.9794 -1.2123  2.6335
  948MOL0     H27916   1.897   5.728   2.946 -0.6102 -0.4520 -1.3063
  948MOL0     H27917   1.976   5.475   2.782 -1.4395 -1.4026 -0.9629
  948MOL0     H27918   1.974   5.475   2.963  4.7303  4.5825 -0.4701
  948MOL0     H27919   1.740   5.584   2.911  3.5065  0.6393  2.0489
  948MOL0     H27920   1.768   5.515   2.753  1.5081  0.2423 -0.4081
  948MOL0     H27921   1.795   5.336   3.001 -3.5827 -2.2267  0.6586
  948MOL0     H27922   1.641   5.364   2.930 -0.2191 -1.2576 -2.4879
  948MOL0     H27923   1.723   5.247   2.714  2.0874  1.1369 -1.2139
  948MOL0     H27924   1.888   5.258   2.795  0.8659 -4.7547 -0.8153
  948MOL0     H27925   1.644   5.105   2.890  0.5316 -0.5483 -0.6714
  948MOL0     H27926   1.755   5.032   2.787 -0.9405  2.3284 -2.2093
  948MOL0     H27927   1.895   5.155   3.012 -1.3165  0.5227 -0.8696
  948MOL0     H27928   1.750   5.060   3.069 -0.5365 -0.9861 -0.5107
  948MOL0     H27929   1.828   4.861   2.977  0.3526 -1.1193  1.4274
  948MOL0     H27930   1.945   4.932   3.092  1.5102  0.0432  0.0312
  948MOL0     H27931   2.189   4.985   3.019 -1.0274  1.4678  1.0480
  948MOL0     H27932   2.352   5.065   2.671  2.8452  2.2047  0.5289
  948MOL0     H27933   2.367   5.101   2.847  0.9365  0.4135 -0.2093
  948MOL0     H27934   2.434   4.842   2.700  0.4124 -0.3753  0.8167
  948MOL0     H27935   2.396   4.847   2.867  0.1170 -0.1936 -0.2883
  948MOL0     H27936   2.578   5.000   2.900  1.5878 -1.9713 -0.4082
  948MOL0     H27937   2.622   5.026   2.742 -0.1145  0.9892  1.0983
  948MOL0     H27938   2.770   4.880   2.795 -1.7298  2.9940 -1.8958
  948MOL0     H27939   2.665   4.775   2.708  0.7328 -0.7479 -0.2825
  948MOL0     H27940   2.534   4.747   3.139 -0.2088 -0.3487  2.7072
  948MOL0     H27941   2.600   4.842   3.460  3.2402 -0.4239 -1.3041
  948MOL0     H27942   2.517   4.988   3.407  1.0764  0.6023 -1.2206
  948MOL0     H27943   2.454   4.826   3.358  0.7904 -0.8830 -1.1613
  948MOL0     H27944   2.885   4.871   3.639 -3.0654  0.2902 -2.7215
  948MOL0     H27945   2.967   4.966   3.890  2.3623  0.0922  0.8398
  948MOL0     H27946   3.273   5.238   3.850 -2.1245  0.8021 -0.8392
  948MOL0     H27947   3.197   5.321   3.991 -0.3734 -0.8071 -0.9662
  948MOL0     H27948   3.351   5.075   3.983 -0.5030  1.1895 -1.4137
  948MOL0     H27949   3.431   5.222   4.029  0.7515 -0.5588  3.2469
  948MOL0     H27950   3.204   5.061   4.174  0.6771  0.3529 -4.7232
  948MOL0     H27951   3.233   5.216   4.226 -0.5216 -0.2244 -1.7742
  948MOL0     H27952   3.499   5.149   4.220 -0.8405  0.3382  1.8021
  948MOL0     H27953   3.398   5.122   4.365 -2.2955 -0.5041  0.3747
  948MOL0     H27954   3.560   4.935   4.279  0.4186  4.0386 -0.4919
  948MOL0     H27955   3.433   4.906   4.149  2.9650  1.3959 -1.2592
  948MOL0     H27956   3.408   4.879   4.455 -0.6538  1.1963 -0.4145
  948MOL0     H27957   3.267   4.889   4.355  0.6355  2.5646 -0.8476
  948MOL0     H27958   3.483   4.675   4.301  0.0523  0.8847 -0.4146
  948MOL0     H27959   3.332   4.695   4.214 -0.9398  2.5998  0.0058
  948MOL0     H27960   3.198   4.647   4.413  0.6454 -0.3430  0.2630
  948MOL0     H27961   3.338   4.643   4.511  0.3250  1.6608 -1.1079
  948MOL0     H27962   3.131   5.294   3.694  0.1478  0.1986 -2.6317
  948MOL0     H27963   3.045   5.231   3.487 -1.0309 -1.9799 -1.1036
  948MOL0     H27964   2.941   5.010   3.173 -1.0976  1.3399  1.5271
  948MOL0     H27965   2.885   4.892   2.964  1.9454 -0.9125  0.8738
  948MOL0     H27966   1.995   5.819   2.526 -1.5801  0.5846 -0.1576
  948MOL0     H27967   2.115   6.028   2.438  0.1820  0.9387  1.1573
  948MOL0     H27968   2.252   6.424   2.579 -0.7350 -1.4167 -2.3208
  948MOL0     H27969   2.361   6.641   2.601  1.9189  1.0085 -0.3092
  948MOL0     H27970   2.703   6.602   2.730 -0.9336  1.8973  3.4408
  948MOL0     H27971   2.809   6.696   2.623 -0.4624 -2.1617 -0.5962
  948MOL0     H27972   2.612   6.810   2.825  0.7420  0.2820  1.8304
  948MOL0     H27973   2.716   6.907   2.714  0.7040 -0.3964  0.4261
  948MOL0     H27974   2.836   6.911   2.900 -0.8958 -1.5521  2.5302
  948MOL0     H27975   2.906   6.779   2.787  0.1664 -0.8622 -1.0288
  948MOL0     H27976   2.780   6.628   2.940 -2.4492  0.7683 -0.3958
  948MOL0     H27977   2.713   6.777   3.021  0.4210  1.6795 -0.3474
  948MOL0     H27978   3.109   6.739   3.197  0.1880 -0.6115  0.0038
  948MOL0     H27979   2.724   6.476   2.462 -0.0945 -0.1190 -0.3186
  948MOL0     H27980   2.616   6.253   2.436  2.3588  2.2821 -1.2480
  949MOL0     O27981   2.868   4.466   0.510 -0.7271 -0.2727  0.5252
  949MOL0     C27982   2.810   4.566   0.543 -0.6964 -1.2440  0.1168
  949MOL0     O27983   2.847   4.695   0.516  0.0594  0.2621  0.1669
  949MOL0     C27984   2.962   4.724   0.444 -0.7112  0.2611  0.0982
  949MOL0     C27985   2.971   4.838   0.363 -0.9856  0.6704 -0.2310
  949MOL0     C27986   3.085   4.875   0.291  0.7793 -0.9232  0.5128
  949MOL0     C27987   3.199   4.801   0.311 -0.2600 -0.2689  1.1721
  949MOL0     O27988   3.308   4.861   0.253 -0.3682  0.1738  0.0045
  949MOL0     C27989   3.432   4.840   0.326 -0.2293 -0.1542  0.2154
  949MOL0     C27990   3.542   4.938   0.313 -0.6192  0.4729  0.1187
  949MOL0     C27991   3.499   5.080   0.258 -0.6444  0.4644  0.3837
  949MOL0     C27992   3.399   5.148   0.354  0.2643  0.2862 -0.3134
  949MOL0     C27993   3.435   5.159   0.505 -0.3902 -0.1849 -0.5671
  949MOL0     C27994   3.365   5.274   0.580  0.4011 -0.4843  0.4811
  949MOL0     C27995   3.428   5.405   0.544  0.0798  0.8008 -0.7315
  949MOL0     C27996   3.495   5.465   0.677  0.0669  0.3130  0.5764
  949MOL0     N27997   3.558   5.601   0.654  0.2244  0.7972 -0.2899
  949MOL0     C27998   3.489   5.712   0.600 -0.5129 -0.7528  0.8156
  949MOL0     C27999   3.574   5.809   0.626 -1.1368 -0.6473 -0.4014
  949MOL0     C28000   3.547   5.954   0.610  0.6149  0.9054 -0.2799
  949MOL0     C28001   3.438   5.998   0.714  1.6889  0.1000  0.2047
  949MOL0     C28002   3.454   5.966   0.859  0.1055  0.3880  0.2792
  949MOL0     C28003   3.594   6.031   0.902 -0.3981  0.0190  0.5109
  949MOL0     O28004   3.586   6.029   1.046  0.2846 -0.1774 -0.1775
  949MOL0     C28005   3.650   5.916   1.092  0.1011 -0.4690  0.3374
  949MOL0     C28006   3.584   5.799   1.126 -0.2252  0.3051 -0.5322
  949MOL0     C28007   3.643   5.695   1.193 -0.1102 -0.1735 -0.7009
  949MOL0     C28008   3.557   5.577   1.219 -0.0986 -0.1683  0.1235
  949MOL0     C28009   3.775   5.703   1.247  0.7589 -0.4915  0.1712
  949MOL0     C28010   3.832   5.602   1.325  0.0426  0.1570 -0.4284
  949MOL0     O28011   3.900   5.492   1.260 -0.1457 -0.1201 -0.2191
  949MOL0     C28012   3.961   5.387   1.340  1.5601 -0.7881  0.6534
  949MOL0     C28013   3.884   5.282   1.392 -0.0002  0.3431  0.3493
  949MOL0     C28014   3.945   5.175   1.459 -0.5135 -0.6872 -0.1820
  949MOL0     C28015   4.088   5.182   1.487 -0.0667 -0.0670 -0.6663
  949MOL0     O28016   4.156   5.081   1.553 -0.1715 -0.2017  0.2946
  949MOL0     C28017   4.087   4.964   1.596  0.1196  1.1309 -0.1627
  949MOL0     C28018   4.174   4.876   1.689 -0.2756 -0.9938 -0.5617
  949MOL0     C28019   4.102   4.752   1.730 -0.9305 -0.4959  0.1496
  949MOL0     C28020   4.207   4.649   1.769 -0.5269 -0.0251  0.1807
  949MOL0     C28021   4.134   4.505   1.808 -0.0560  0.1071 -0.4175
  949MOL0     C28022   4.222   4.429   1.903  0.8578  0.1738 -0.3895
  949MOL0     C28023   4.358   4.380   1.846  0.1513 -0.2860 -0.2166
  949MOL0     C28024   4.341   4.271   1.739  0.9253  0.3325 -0.1454
  949MOL0    Cl28025   4.493   4.183   1.707  0.3351 -0.4665  0.3297
  949MOL0     C28026   4.157   5.283   1.427 -0.3660  0.7544 -1.1197
  949MOL0     C28027   4.092   5.387   1.373 -0.2521  0.2998  1.5439
  949MOL0     O28028   3.795   5.596   1.444 -0.4375  0.0847  0.7070
  949MOL0     C28029   3.842   5.826   1.218  0.1033 -0.4148 -0.0475
  949MOL0     C28030   3.782   5.930   1.142 -0.0731  0.0498 -0.0548
  949MOL0     N28031   3.685   5.767   0.701 -0.0574 -0.7626 -0.9421
  949MOL0     N28032   3.668   5.642   0.716  0.3531 -0.3932 -0.0640
  949MOL0     C28033   3.199   4.690   0.392 -0.2558  0.5442 -0.4225
  949MOL0     C28034   3.083   4.642   0.458 -0.4395 -0.6828 -0.4461
  949MOL0     C28035   2.688   4.537   0.615  0.6538 -0.7941  0.1616
  949MOL0     C28036   2.669   4.418   0.676 -0.4558  0.3283  0.0910
  949MOL0     C28037   2.548   4.377   0.727 -0.2989  0.6169  1.3819
  949MOL0     C28038   2.442   4.466   0.733  0.3861 -0.2056 -0.3921
  949MOL0     O28039   2.323   4.441   0.779 -0.0817  1.3437 -0.5984
  949MOL0     C28040   2.279   4.310   0.839  0.4736 -0.5273  0.0808
  949MOL0     C28041   2.164   4.258   0.748 -0.0718  0.7292 -0.8786
  949MOL0     C28042   2.133   4.104   0.749  0.3973  0.1728  0.1110
  949MOL0     C28043   2.219   4.039   0.634 -0.8222  0.4895 -0.0807
  949MOL0     C28044   2.171   3.909   0.588  0.5351  0.0082  0.7797
  949MOL0     C28045   2.117   3.802   0.561 -0.3413 -0.4888  0.4522
  949MOL0     C28046   2.465   4.595   0.675 -0.3110 -0.6455 -0.1683
  949MOL0     C28047   2.580   4.629   0.606 -0.4496  0.2563  0.8319
  949MOL0     H28048   2.881   4.898   0.368 -1.1329  0.3852  0.8791
  949MOL0     H28049   3.087   4.971   0.240 -0.1871 -1.0442  0.2203
  949MOL0     H28050   3.402   4.838   0.431  0.9277 -0.2736  0.5547
  949MOL0     H28051   3.460   4.737   0.300  2.5815  0.9975 -1.9152
  949MOL0     H28052   3.585   4.942   0.413 -0.9746  0.1583  0.2837
  949MOL0     H28053   3.614   4.894   0.243  0.3697  4.3624 -1.5702
  949MOL0     H28054   3.584   5.146   0.240 -0.4849  0.1206 -0.1571
  949MOL0     H28055   3.457   5.071   0.157  2.5605  0.6180 -1.0822
  949MOL0     H28056   3.383   5.250   0.317  0.7834  0.8914  1.0915
  949MOL0     H28057   3.298   5.107   0.357  1.6430 -3.3566  1.2819
  949MOL0     H28058   3.388   5.067   0.542  0.5159 -0.9234 -1.1911
  949MOL0     H28059   3.541   5.139   0.523 -0.4198 -1.4459 -1.6519
  949MOL0     H28060   3.259   5.273   0.553  0.3031 -0.8352  0.8589
  949MOL0     H28061   3.375   5.236   0.682 -1.9669 -1.9903  0.2370
  949MOL0     H28062   3.493   5.403   0.457  1.3201 -1.0949  0.1671
  949MOL0     H28063   3.349   5.476   0.517 -0.0882  1.4779  1.3371
  949MOL0     H28064   3.577   5.395   0.695 -0.5619 -1.1069 -1.6014
  949MOL0     H28065   3.436   5.459   0.769  1.2684  2.0228  1.4871
  949MOL0     H28066   3.391   5.724   0.555 -0.7596 -2.1269  0.9340
  949MOL0     H28067   3.627   6.028   0.609  0.8657  0.6901 -2.6096
  949MOL0     H28068   3.503   5.951   0.509 -0.7959  0.0912  0.3184
  949MOL0     H28069   3.340   5.959   0.684  1.2024 -0.3240  2.1733
  949MOL0     H28070   3.429   6.106   0.706  5.7235  0.8012  2.5134
  949MOL0     H28071   3.455   5.858   0.874 -0.2166  0.4126  0.4946
  949MOL0     H28072   3.379   6.017   0.921 -1.5683  0.5425 -1.7328
  949MOL0     H28073   3.619   6.131   0.865 -0.3212  0.4935  1.7832
  949MOL0     H28074   3.679   5.974   0.864  1.6472  4.5255 -2.5686
  949MOL0     H28075   3.480   5.792   1.096 -0.3861 -2.5902  0.4703
  949MOL0     H28076   3.501   5.599   1.311  0.9961  2.9603  0.1350
  949MOL0     H28077   3.484   5.565   1.138 -1.1803  0.0160  1.0412
  949MOL0     H28078   3.613   5.484   1.235  1.2402  0.7038  0.6792
  949MOL0     H28079   3.781   5.267   1.361 -0.1584 -1.6060  1.6082
  949MOL0     H28080   3.893   5.085   1.490  2.1360 -1.3593  2.9295
  949MOL0     H28081   3.999   4.999   1.651 -0.5885 -1.1952  0.2938
  949MOL0     H28082   4.060   4.905   1.508  0.3572  1.4088 -0.4254
  949MOL0     H28083   4.253   4.845   1.620 -1.5387 -2.9143 -1.2338
  949MOL0     H28084   4.208   4.931   1.778  2.4902  2.5228 -3.4507
  949MOL0     H28085   4.038   4.711   1.651 -0.9977  0.2049 -0.1617
  949MOL0     H28086   4.037   4.787   1.810  0.3703  2.6906 -0.0599
  949MOL0     H28087   4.276   4.629   1.686  2.0479 -2.1135  2.6579
  949MOL0     H28088   4.280   4.681   1.844  0.3249  2.4187 -1.5420
  949MOL0     H28089   4.117   4.451   1.714 -1.5703  1.2976 -0.8700
  949MOL0     H28090   4.039   4.538   1.852  0.1275  2.0916 -1.4030
  949MOL0     H28091   4.255   4.501   1.978  0.8581 -0.9728  0.7513
  949MOL0     H28092   4.167   4.346   1.948 -0.3995  0.2888 -1.6630
  949MOL0     H28093   4.407   4.334   1.932  0.6320  0.1109 -0.2728
  949MOL0     H28094   4.427   4.458   1.811  2.0262 -1.8147 -0.0705
  949MOL0     H28095   4.305   4.322   1.649  3.2611  1.1006 -0.7252
  949MOL0     H28096   4.265   4.201   1.774 -0.5156  1.4924 -0.8311
  949MOL0     H28097   4.264   5.286   1.449  0.1230  0.2103 -3.1901
  949MOL0     H28098   4.145   5.472   1.333 -1.0523 -0.0466 -0.3761
  949MOL0     H28099   3.942   5.841   1.260 -1.0997  2.3200  2.1586
  949MOL0     H28100   3.842   6.020   1.139  0.2793 -0.1941 -0.4642
  949MOL0     H28101   3.289   4.637   0.424 -1.3866 -0.7005  0.8085
  949MOL0     H28102   3.096   4.565   0.533  0.8641  0.9343  1.0747
  949MOL0     H28103   2.755   4.350   0.673 -1.7825 -1.3838 -1.3272
  949MOL0     H28104   2.556   4.271   0.751 -0.8508  0.3769  0.5521
  949MOL0     H28105   2.362   4.239   0.838  1.2785  0.4099  0.1086
  949MOL0     H28106   2.236   4.330   0.938  1.0595  0.3322  0.1680
  949MOL0     H28107   2.182   4.303   0.649 -0.2952  1.7872 -0.4486
  949MOL0     H28108   2.071   4.299   0.787 -1.5991 -1.2388 -2.2233
  949MOL0     H28109   2.027   4.101   0.722 -0.3178  2.9435  2.2227
  949MOL0     H28110   2.153   4.051   0.843 -0.5243 -1.4279 -0.5519
  949MOL0     H28111   2.318   4.007   0.668 -0.5830  1.6095  0.2940
  949MOL0     H28112   2.234   4.104   0.548  2.3615  1.0316  0.7658
  949MOL0     H28113   2.054   3.718   0.542 -1.7203  0.9034 -1.6767
  949MOL0     H28114   2.392   4.676   0.673  3.0918  2.6962 -1.0932
  949MOL0     H28115   2.586   4.722   0.550 -1.4519  0.6965  1.4240
  950MOL0     O28116   8.873   1.429   2.233  0.0027  0.0786 -0.3188
  950MOL0     C28117   8.916   1.471   2.125 -0.9743 -1.2310 -0.1923
  950MOL0     O28118   9.042   1.531   2.113 -0.5279 -0.4266  0.4071
  950MOL0     C28119   9.115   1.557   2.226  0.9440  0.3363  0.3200
  950MOL0     C28120   9.061   1.630   2.339  0.7352 -0.9938 -0.0176
  950MOL0     C28121   9.162   1.674   2.425 -0.9859  0.5960 -0.6640
  950MOL0     C28122   9.306   1.639   2.416 -1.4003 -0.8037  0.3815
  950MOL0     O28123   9.393   1.706   2.508  0.0753  1.0874  1.0247
  950MOL0     C28124   9.366   1.694   2.643 -0.3393  0.2424  0.6571
  950MOL0     C28125   9.361   1.550   2.714  0.0370 -0.5900 -0.2924
  950MOL0     C28126   9.503   1.499   2.744 -0.8421  0.8240 -0.5177
  950MOL0     C28127   9.505   1.391   2.855  0.4058 -0.1854  0.2134
  950MOL0     C28128   9.646   1.324   2.858 -0.3808  0.4538  0.1390
  950MOL0     C28129   9.760   1.412   2.901  0.9291 -0.4458 -1.0496
  950MOL0     C28130   9.743   1.460   3.046 -1.1631 -0.0800  0.1487
  950MOL0     C28131   9.695   1.601   3.054 -0.1097  0.0115  0.4190
  950MOL0     N28132   9.624   1.642   3.176 -0.3113  0.9093  1.7725
  950MOL0     C28133   9.502   1.699   3.169 -0.2218 -0.6358  0.1543
  950MOL0     C28134   9.463   1.691   3.296  0.1487  0.5363 -0.3044
  950MOL0     C28135   9.326   1.724   3.337  0.4513  0.4142  0.8998
  950MOL0     C28136   9.311   1.808   3.460  0.1257 -0.6642  0.0637
  950MOL0     C28137   9.299   1.713   3.586  0.0424  1.0510 -0.3784
  950MOL0     C28138   9.343   1.776   3.717  0.0800  0.7497 -0.6199
  950MOL0     O28139   9.313   1.681   3.826 -0.9053  0.7656  0.3356
  950MOL0     C28140   9.216   1.697   3.911  1.2717  1.1877  0.3728
  950MOL0     C28141   9.226   1.624   4.031 -0.3288  0.1476  0.6316
  950MOL0     C28142   9.125   1.626   4.120  0.2730 -0.8561 -0.3616
  950MOL0     C28143   9.150   1.541   4.240  0.4230  0.6102  0.2942
  950MOL0     C28144   9.015   1.715   4.102  0.8598  0.5308 -0.2419
  950MOL0     C28145   8.904   1.728   4.193  0.2958  0.1820 -0.2298
  950MOL0     O28146   8.826   1.835   4.171 -0.1795  0.0569  0.1910
  950MOL0     C28147   8.710   1.841   4.238  1.1283  0.1379  0.5924
  950MOL0     C28148   8.699   1.839   4.380  0.9414  0.0664  0.3513
  950MOL0     C28149   8.576   1.869   4.440  0.0289 -0.8395 -0.4782
  950MOL0     C28150   8.454   1.884   4.361 -0.2506  0.0442 -0.2100
  950MOL0     O28151   8.333   1.916   4.426 -0.3207  0.3794 -0.2229
  950MOL0     C28152   8.223   1.909   4.342  0.9281 -1.0172 -1.5773
  950MOL0     C28153   8.177   2.052   4.280  0.1601 -0.6762 -0.9412
  950MOL0     C28154   8.041   2.029   4.217  0.3513  1.4107  0.7837
  950MOL0     C28155   8.024   1.933   4.092 -0.5574  0.0042 -0.1826
  950MOL0     C28156   7.884   1.906   4.055  0.6009 -0.0639  0.8307
  950MOL0     C28157   7.800   1.822   4.160  0.0334 -0.0438  0.6768
  950MOL0     C28158   7.713   1.709   4.104 -0.6636 -0.0130 -0.0509
  950MOL0     C28159   7.635   1.644   4.224 -0.0488 -0.7864  0.3395
  950MOL0    Cl28160   7.527   1.524   4.169 -0.0034 -0.2671 -0.5952
  950MOL0     C28161   8.470   1.901   4.222 -0.0923  1.1570  0.6741
  950MOL0     C28162   8.595   1.875   4.170  0.1931  0.2983 -0.1894
  950MOL0     O28163   8.885   1.640   4.282  0.2099 -0.6450  0.6531
  950MOL0     C28164   9.008   1.785   3.981  0.5177  0.2448  0.6381
  950MOL0     C28165   9.104   1.777   3.889 -1.0841  0.2827 -0.0966
  950MOL0     N28166   9.566   1.637   3.375  0.2860 -0.0563 -0.0979
  950MOL0     N28167   9.662   1.607   3.299 -0.4010 -0.4136 -0.4689
  950MOL0     C28168   9.348   1.563   2.310 -0.5132 -0.1674 -0.2427
  950MOL0     C28169   9.249   1.527   2.217 -0.6558 -0.2683  0.1692
  950MOL0     C28170   8.821   1.475   2.013 -0.8649  0.0251 -0.1787
  950MOL0     C28171   8.842   1.531   1.894 -0.1253  0.4524 -0.1869
  950MOL0     C28172   8.754   1.530   1.791  1.2523  0.0096  0.4666
  950MOL0     C28173   8.627   1.464   1.804  0.3171 -0.5103  0.4716
  950MOL0     O28174   8.535   1.472   1.705 -0.4217  0.0610 -0.0151
  950MOL0     C28175   8.569   1.390   1.592 -0.5550 -0.0018  0.9288
  950MOL0     C28176   8.451   1.290   1.587  0.0341 -0.0271  0.0920
  950MOL0     C28177   8.469   1.181   1.487  1.2570  0.5908 -0.4145
  950MOL0     C28178   8.369   1.065   1.532  0.5212 -0.5399  0.3450
  950MOL0     C28179   8.360   0.961   1.431 -0.4744  0.6848 -0.1430
  950MOL0     C28180   8.358   0.871   1.345  0.0291  0.5342  0.6403
  950MOL0     C28181   8.608   1.405   1.926  0.5539 -0.1051  1.0925
  950MOL0     C28182   8.694   1.409   2.030  0.1098  0.2697 -0.6671
  950MOL0     H28183   8.958   1.662   2.341  1.3834  1.6123 -2.2512
  950MOL0     H28184   9.133   1.733   2.511  4.8840  1.1176  1.4220
  950MOL0     H28185   9.432   1.755   2.706  2.3966 -3.4764  1.7296
  950MOL0     H28186   9.267   1.735   2.665  0.0473  0.8647  1.3134
  950MOL0     H28187   9.300   1.554   2.804  1.7166  1.1377  0.8498
  950MOL0     H28188   9.318   1.474   2.648  0.9068 -0.3033 -1.2188
  950MOL0     H28189   9.549   1.455   2.656  0.0119 -0.3010  0.4660
  950MOL0     H28190   9.566   1.587   2.760  1.3051 -1.0694  2.4536
  950MOL0     H28191   9.459   1.423   2.949 -2.9118  1.1613 -1.6799
  950MOL0     H28192   9.441   1.308   2.823 -0.5703  0.7268 -0.3093
  950MOL0     H28193   9.641   1.234   2.920  0.2385  2.1281  2.7812
  950MOL0     H28194   9.666   1.293   2.755  0.5934 -1.3890  0.8339
  950MOL0     H28195   9.848   1.347   2.904  1.1477 -0.5774  5.4026
  950MOL0     H28196   9.780   1.485   2.822  3.8015 -1.2111 -1.1275
  950MOL0     H28197   9.688   1.386   3.105  1.2213 -1.6650  0.4836
  950MOL0     H28198   9.841   1.462   3.094 -1.2416 -0.8401  0.3459
  950MOL0     H28199   9.625   1.594   2.971  0.5336 -4.3048 -0.0145
  950MOL0     H28200   9.775   1.672   3.035  0.5062 -0.2924  1.7384
  950MOL0     H28201   9.451   1.723   3.077  3.2795  2.2606 -1.3074
  950MOL0     H28202   9.265   1.778   3.264 -1.5498  1.8325  3.4588
  950MOL0     H28203   9.285   1.623   3.355 -0.2320  0.8445  1.8642
  950MOL0     H28204   9.219   1.867   3.462  0.8251  0.4702 -0.2050
  950MOL0     H28205   9.392   1.882   3.466  0.1711 -0.0640 -4.4679
  950MOL0     H28206   9.347   1.615   3.574 -1.5989  0.0569  0.7229
  950MOL0     H28207   9.196   1.677   3.597  1.2101 -2.6538 -0.3275
  950MOL0     H28208   9.291   1.871   3.731 -0.6396  0.3872 -0.7551
  950MOL0     H28209   9.451   1.795   3.718  0.2486  0.4285 -3.6699
  950MOL0     H28210   9.321   1.572   4.042 -1.0481 -0.7424  3.0561
  950MOL0     H28211   9.162   1.611   4.324  0.5196  3.5117 -1.9988
  950MOL0     H28212   9.071   1.466   4.248 -0.3672  1.4822  0.8733
  950MOL0     H28213   9.241   1.480   4.232 -0.2526 -0.1132 -3.2056
  950MOL0     H28214   8.785   1.815   4.441 -0.0137 -0.3081  1.5986
  950MOL0     H28215   8.575   1.859   4.548  2.8607 -2.9198 -0.5167
  950MOL0     H28216   8.229   1.836   4.261  0.0524  1.8643 -4.4504
  950MOL0     H28217   8.147   1.883   4.416  3.2385  0.5712  1.5794
  950MOL0     H28218   8.173   2.135   4.351  1.1549  0.3924 -2.0796
  950MOL0     H28219   8.242   2.085   4.198 -1.8255  1.2002 -1.8709
  950MOL0     H28220   7.989   2.124   4.206 -3.8577 -0.7923 -0.5251
  950MOL0     H28221   7.985   1.979   4.297  4.9711  1.5358  4.5467
  950MOL0     H28222   8.064   1.978   4.000  1.0470  0.2730  0.6028
  950MOL0     H28223   8.085   1.843   4.107  1.1457  1.2390  0.6882
  950MOL0     H28224   7.883   1.855   3.959 -0.1719  2.3497 -0.5359
  950MOL0     H28225   7.832   1.999   4.031  0.8505 -0.1588 -0.1068
  950MOL0     H28226   7.879   1.778   4.223 -0.0681 -0.8398  0.2657
  950MOL0     H28227   7.735   1.885   4.221 -0.8566  0.3636 -0.6660
  950MOL0     H28228   7.787   1.638   4.065 -0.0893  0.5248  0.0322
  950MOL0     H28229   7.651   1.749   4.023 -1.4861  1.9720  1.4766
  950MOL0     H28230   7.565   1.714   4.269 -0.0430 -1.5262  1.5296
  950MOL0     H28231   7.691   1.602   4.308 -4.2851 -3.5121  2.1505
  950MOL0     H28232   8.388   1.928   4.156 -0.2783  0.8408  0.7779
  950MOL0     H28233   8.604   1.888   4.063 -1.9631 -0.9843 -0.5605
  950MOL0     H28234   8.929   1.854   3.951  0.9667  0.1700 -0.8113
  950MOL0     H28235   9.091   1.845   3.805  0.9749 -1.1325 -1.6738
  950MOL0     H28236   9.454   1.547   2.293 -0.3077 -0.3665  1.1217
  950MOL0     H28237   9.286   1.486   2.123 -0.4020  1.0372 -0.3285
  950MOL0     H28238   8.933   1.590   1.897  0.6825 -0.7065  3.5032
  950MOL0     H28239   8.783   1.580   1.699  0.4574 -0.5330 -0.0914
  950MOL0     H28240   8.577   1.451   1.501  0.6787 -0.8588  0.4243
  950MOL0     H28241   8.662   1.333   1.596 -3.4837 -5.4152  1.4749
  950MOL0     H28242   8.353   1.336   1.576 -0.7155 -0.9790  2.3024
  950MOL0     H28243   8.458   1.240   1.684  1.9466  1.9337  1.0555
  950MOL0     H28244   8.565   1.133   1.473 -0.6925 -3.7857 -0.2862
  950MOL0     H28245   8.448   1.229   1.391  4.0471  2.3768 -0.2428
  950MOL0     H28246   8.266   1.098   1.552  0.8307  0.6686 -0.0074
  950MOL0     H28247   8.391   1.029   1.633 -3.4871 -1.9660  0.9310
  950MOL0     H28248   8.346   0.793   1.272  1.3937  1.6422 -0.8432
  950MOL0     H28249   8.511   1.359   1.943  1.2647 -2.2289 -0.2727
  950MOL0     H28250   8.661   1.374   2.128 -0.0478  1.5117 -0.2549
  951MOL0     O28251   5.116   7.707   8.164 -0.3011 -0.1329 -0.1791
  951MOL0     C28252   5.195   7.618   8.145  0.1491  0.6577  0.1346
  951MOL0     O28253   5.231   7.523   8.233  0.0960  0.5121 -0.1503
  951MOL0     C28254   5.199   7.518   8.370 -0.1966 -0.8336  0.3677
  951MOL0     C28255   5.117   7.603   8.441  0.1437 -0.1662  0.2700
  951MOL0     C28256   5.092   7.584   8.570 -0.2514  0.3979 -0.1350
  951MOL0     C28257   5.155   7.479   8.651 -0.1953 -0.7823  0.1744
  951MOL0     O28258   5.139   7.489   8.781 -0.0675  0.2729 -0.1200
  951MOL0     C28259   5.220   7.402   8.869  0.5993  0.0244 -0.5150
  951MOL0     C28260   5.181   7.257   8.902  0.0990 -0.6512 -1.4507
  951MOL0     C28261   5.086   7.247   9.026 -0.3017  0.2210 -0.0201
  951MOL0     C28262   5.068   7.099   9.053 -0.0067  0.2571  0.3862
  951MOL0     C28263   5.021   7.022   8.931  1.0404 -0.0554 -0.2227
  951MOL0     C28264   5.029   6.875   8.959  0.9797 -0.6901 -0.7936
  951MOL0     C28265   4.912   6.791   8.914  0.1339  0.3830  0.0271
  951MOL0     C28266   4.916   6.762   8.761  0.9726 -0.2504 -0.4387
  951MOL0     N28267   4.946   6.876   8.667  0.1846  0.5983  0.2084
  951MOL0     C28268   4.877   6.994   8.645 -0.2087  0.2294 -0.5199
  951MOL0     C28269   4.945   7.051   8.539 -0.2938  0.3593  0.0883
  951MOL0     C28270   4.930   7.177   8.459  0.0529  0.4331 -0.1194
  951MOL0     C28271   4.874   7.129   8.322 -0.6842 -0.8477 -0.5566
  951MOL0     C28272   4.800   7.239   8.242  1.1985  0.7138 -0.3996
  951MOL0     C28273   4.884   7.360   8.202  0.2855  0.0904 -0.5508
  951MOL0     O28274   5.002   7.339   8.124  0.5000 -0.1771  0.0349
  951MOL0     C28275   4.976   7.309   7.992 -0.4881 -0.0820  0.4083
  951MOL0     C28276   4.959   7.415   7.901 -0.3422  0.1615  0.1072
  951MOL0     C28277   4.940   7.387   7.766  0.8412 -0.6848  0.1301
  951MOL0     C28278   4.911   7.497   7.666  0.6414 -0.3171 -0.1148
  951MOL0     C28279   4.928   7.253   7.724  0.4378 -0.8976  0.3353
  951MOL0     C28280   4.893   7.212   7.582  0.2777  0.4074  0.8735
  951MOL0     O28281   4.957   7.277   7.481 -0.0396 -0.7341  0.3533
  951MOL0     C28282   4.966   7.223   7.359 -0.9105 -0.1230 -0.5206
  951MOL0     C28283   5.007   7.316   7.266  0.0487 -0.0049 -1.3252
  951MOL0     C28284   5.011   7.283   7.132 -0.2361  0.1121 -0.1410
  951MOL0     C28285   4.991   7.155   7.092  0.6799  0.8492  1.2135
  951MOL0     O28286   4.995   7.115   6.964 -0.7095 -0.5386 -0.0791
  951MOL0     C28287   5.110   7.045   6.903  0.3108 -1.2111  0.1819
  951MOL0     C28288   5.069   7.010   6.751  0.0570 -1.2037 -0.0784
  951MOL0     C28289   5.042   6.866   6.746  0.7198  0.3483  0.0890
  951MOL0     C28290   5.025   6.825   6.597  0.3612  0.5432 -0.0115
  951MOL0     C28291   4.962   6.685   6.565 -0.5246 -0.4957 -0.1866
  951MOL0     C28292   4.972   6.664   6.411 -0.2395  0.1810  0.2581
  951MOL0     C28293   4.897   6.537   6.375 -0.2551 -0.4399 -0.0180
  951MOL0     C28294   4.961   6.465   6.260 -0.7792  0.1076 -0.0815
  951MOL0    Cl28295   4.931   6.578   6.125  0.2772  0.3279 -0.1261
  951MOL0     C28296   4.964   7.058   7.187  0.2770 -0.9924  0.2051
  951MOL0     C28297   4.937   7.096   7.319  0.1049 -0.4648 -0.5505
  951MOL0     O28298   4.788   7.151   7.570  0.4285 -0.3409 -0.1458
  951MOL0     C28299   4.927   7.156   7.821  0.2893  0.0331  1.0270
  951MOL0     C28300   4.953   7.177   7.955 -0.2883 -0.4889  0.2891
  951MOL0     N28301   5.043   6.961   8.497  0.0110 -0.3007  1.4804
  951MOL0     N28302   5.045   6.864   8.577 -0.0004  0.8434  0.0640
  951MOL0     C28303   5.239   7.389   8.581 -0.6081  0.3144 -0.1712
  951MOL0     C28304   5.256   7.413   8.442 -0.8837  0.7356 -0.2652
  951MOL0     C28305   5.257   7.614   8.012 -0.2792  1.4415  0.2789
  951MOL0     C28306   5.261   7.721   7.924  0.5177 -0.4047 -0.4804
  951MOL0     C28307   5.282   7.705   7.784  0.0904 -0.4056 -0.1354
  951MOL0     C28308   5.326   7.585   7.733 -0.1940  0.3449  0.8627
  951MOL0     O28309   5.337   7.582   7.599  0.4712 -0.0269  0.0199
  951MOL0     C28310   5.376   7.459   7.531  0.3562 -0.1302 -0.4764
  951MOL0     C28311   5.491   7.492   7.437 -0.4570 -0.3288 -0.1464
  951MOL0     C28312   5.612   7.550   7.516  0.4816 -0.3846  0.3632
  951MOL0     C28313   5.716   7.600   7.419 -0.6847 -0.2564 -0.3684
  951MOL0     C28314   5.839   7.630   7.497  0.0464  1.2206 -0.4552
  951MOL0     C28315   5.947   7.640   7.555  0.8947  0.9145  0.6056
  951MOL0     C28316   5.324   7.477   7.822  0.5688 -0.5164  0.1327
  951MOL0     C28317   5.287   7.484   7.957  0.2372 -0.3527  0.3079
  951MOL0     H28318   5.075   7.692   8.395 -1.2356  0.2781  2.2617
  951MOL0     H28319   5.024   7.649   8.623  2.0288  2.8992 -0.0893
  951MOL0     H28320   5.318   7.400   8.821  0.6441 -0.1698 -0.4159
  951MOL0     H28321   5.246   7.448   8.966 -0.3487  1.5362 -0.9380
  951MOL0     H28322   5.134   7.217   8.812  0.2507 -1.0133 -1.3685
  951MOL0     H28323   5.277   7.207   8.915 -0.4552 -1.4922 -0.3310
  951MOL0     H28324   5.121   7.298   9.116  0.9030 -1.1716  0.3481
  951MOL0     H28325   4.991   7.284   8.987 -0.0588 -0.5410 -1.4124
  951MOL0     H28326   5.154   7.053   9.103  0.8609 -0.6023 -1.7827
  951MOL0     H28327   4.985   7.084   9.124  0.0452 -0.3298  0.3312
  951MOL0     H28328   4.921   7.061   8.907  1.2730  1.5816  1.2274
  951MOL0     H28329   5.076   7.026   8.837 -0.3098 -0.6343 -1.0602
  951MOL0     H28330   5.124   6.833   8.923  0.4900 -0.9590 -1.7911
  951MOL0     H28331   5.038   6.859   9.067 -0.3317 -1.7543 -0.8163
  951MOL0     H28332   4.925   6.694   8.962 -0.8420  0.8290  1.2470
  951MOL0     H28333   4.814   6.822   8.951 -0.0949  0.1060 -0.3415
  951MOL0     H28334   4.830   6.705   8.723 -0.8735  1.6386  0.6837
  951MOL0     H28335   4.997   6.689   8.750  0.5125 -0.9880  0.8398
  951MOL0     H28336   4.794   7.034   8.704 -1.1445 -2.5874  0.2272
  951MOL0     H28337   4.856   7.248   8.498  0.3045  1.8061 -1.9781
  951MOL0     H28338   5.032   7.216   8.457  2.0705 -4.1869  0.3221
  951MOL0     H28339   4.803   7.048   8.343 -2.1661 -0.6704 -4.2054
  951MOL0     H28340   4.957   7.091   8.262 -1.7932 -3.3553 -0.6098
  951MOL0     H28341   4.711   7.265   8.300  0.7192 -2.2782  0.3816
  951MOL0     H28342   4.763   7.193   8.150  1.9310  0.8194 -0.7508
  951MOL0     H28343   4.901   7.427   8.287  0.8187 -3.8352  2.7422
  951MOL0     H28344   4.817   7.415   8.135 -1.9302 -3.6377 -1.6712
  951MOL0     H28345   4.965   7.517   7.935 -0.7019  0.5603 -0.9838
  951MOL0     H28346   4.872   7.471   7.567 -0.6620 -0.0565  0.3083
  951MOL0     H28347   4.829   7.559   7.705 -1.3151 -3.3354  0.8778
  951MOL0     H28348   5.005   7.545   7.638  0.1324  1.0051  0.3591
  951MOL0     H28349   5.026   7.419   7.293  2.6645 -0.8501  0.4658
  951MOL0     H28350   5.018   7.357   7.053  0.6084 -1.1203 -1.2686
  951MOL0     H28351   5.198   7.110   6.910 -1.1554  0.8793  0.2950
  951MOL0     H28352   5.131   6.948   6.949 -2.6367 -2.5435 -1.0231
  951MOL0     H28353   4.988   7.071   6.710  0.0159  0.0958  1.8318
  951MOL0     H28354   5.162   7.028   6.696  0.1460  0.7932  0.6402
  951MOL0     H28355   4.954   6.827   6.799  1.4470  1.2818  2.0810
  951MOL0     H28356   5.126   6.809   6.786 -0.5550 -1.3952  0.4030
  951MOL0     H28357   4.962   6.899   6.549  1.1779 -0.0615 -2.1245
  951MOL0     H28358   5.125   6.840   6.554  1.6980  0.9377  2.9686
  951MOL0     H28359   4.860   6.689   6.603 -0.1986 -0.0370  0.6676
  951MOL0     H28360   5.011   6.599   6.611  0.7079  0.4936  0.4117
  951MOL0     H28361   4.939   6.749   6.351  3.7649  1.8984  0.1905
  951MOL0     H28362   5.080   6.660   6.394 -0.7539 -1.6558 -3.7244
  951MOL0     H28363   4.797   6.573   6.348 -0.1891 -0.3673 -0.1684
  951MOL0     H28364   4.887   6.468   6.460  0.4607 -0.2460  0.2256
  951MOL0     H28365   4.917   6.368   6.233 -1.1709 -0.4224  2.2111
  951MOL0     H28366   5.069   6.449   6.272 -0.7629 -1.4727 -1.8794
  951MOL0     H28367   4.944   6.958   7.151 -0.0557 -0.7771 -0.2103
  951MOL0     H28368   4.898   7.025   7.392 -0.3226  0.8648  0.5528
  951MOL0     H28369   4.914   7.052   7.792 -0.5597  0.7614 -1.4813
  951MOL0     H28370   4.966   7.103   8.033 -0.9545 -0.2044  0.6750
  951MOL0     H28371   5.293   7.311   8.634 -0.5603  0.2957 -0.2477
  951MOL0     H28372   5.327   7.360   8.378 -0.3238  1.3923 -0.2080
  951MOL0     H28373   5.236   7.825   7.943 -0.0162 -0.6442  0.1442
  951MOL0     H28374   5.277   7.796   7.724  4.3256  1.1154  1.3897
  951MOL0     H28375   5.414   7.374   7.588 -2.0553 -1.9916 -1.4805
  951MOL0     H28376   5.289   7.423   7.475 -1.0656  3.0586 -0.5554
  951MOL0     H28377   5.459   7.555   7.353 -2.3266  0.3347  1.0095
  951MOL0     H28378   5.526   7.403   7.384  3.8767  0.7253  0.5216
  951MOL0     H28379   5.653   7.476   7.586  3.0973  1.3131  0.7668
  951MOL0     H28380   5.575   7.642   7.562 -0.1129  2.9034 -5.6544
  951MOL0     H28381   5.677   7.684   7.361  0.6475  0.9740  0.4760
  951MOL0     H28382   5.744   7.517   7.354 -0.2113  0.2496 -0.8188
  951MOL0     H28383   6.040   7.658   7.606  1.0363  1.0408  0.3076
  951MOL0     H28384   5.353   7.381   7.781  2.5273  0.4703 -0.9151
  951MOL0     H28385   5.280   7.392   8.015 -2.3869  0.5925  1.7056
  952MOL0     O28386  10.669   7.891  11.075  0.0630  0.1240  0.0558
  952MOL0     C28387  10.658   7.808  10.980  0.4488  0.0736  0.5847
  952MOL0     O28388  10.551   7.766  10.930  0.7053 -0.7869  0.5018
  952MOL0     C28389  10.430   7.813  10.973 -0.7331 -0.2481 -0.6859
  952MOL0     C28390  10.334   7.840  10.873  0.0252 -0.8990  0.5690
  952MOL0     C28391  10.211   7.897  10.907 -0.3380  0.1737  1.2401
  952MOL0     C28392  10.171   7.897  11.031  0.4187  0.8040 -0.5222
  952MOL0     O28393  10.039   7.926  11.053 -0.2178 -0.4491 -0.0308
  952MOL0     C28394   9.990   7.922  11.192  0.5690 -0.3288  0.1473
  952MOL0     C28395   9.833   7.942  11.214 -0.3374  0.9946  0.4848
  952MOL0     C28396   9.785   8.074  11.155 -0.1449  0.2045  0.5619
  952MOL0     C28397   9.705   8.062  11.019  0.3583  1.0230 -0.1502
  952MOL0     C28398   9.675   8.197  10.950  0.4625 -0.2139 -0.4675
  952MOL0     C28399   9.809   8.279  10.915 -0.2381  0.7027 -0.4343
  952MOL0     C28400   9.776   8.380  10.806  0.0613 -0.6439 -0.3962
  952MOL0     C28401   9.705   8.508  10.850  0.1622  0.2981 -0.0210
  952MOL0     N28402   9.808   8.610  10.893  0.8369  0.0727 -0.1981
  952MOL0     C28403   9.854   8.630  11.021  0.1313  1.1271 -0.5504
  952MOL0     C28404   9.951   8.724  11.027 -0.3256 -0.1410 -0.1797
  952MOL0     C28405  10.043   8.772  11.139 -0.0614  0.1444 -0.4870
  952MOL0     C28406  10.186   8.726  11.119 -0.4128  0.9809 -0.6840
  952MOL0     C28407  10.205   8.604  11.017  0.0659  0.2289 -0.6149
  952MOL0     C28408  10.166   8.470  11.094  0.0289 -1.0914 -0.4279
  952MOL0     O28409  10.267   8.374  11.117  0.5592 -0.1537  0.1105
  952MOL0     C28410  10.312   8.302  11.009  0.2194  0.4379 -0.6491
  952MOL0     C28411  10.257   8.299  10.881  0.6320  0.0138  0.5549
  952MOL0     C28412  10.318   8.239  10.768  0.4445  0.6182  0.0692
  952MOL0     C28413  10.269   8.274  10.632 -0.0474  0.0562 -0.1071
  952MOL0     C28414  10.443   8.167  10.782  0.6477  0.6256 -0.2062
  952MOL0     C28415  10.522   8.100  10.672  0.9684 -0.5766  0.4645
  952MOL0     O28416  10.633   8.057  10.712 -0.7984 -0.0360 -0.0595
  952MOL0     C28417  10.715   7.981  10.639 -0.0441  0.3010 -0.0646
  952MOL0     C28418  10.843   8.030  10.610  0.6906 -0.1509  0.0833
  952MOL0     C28419  10.938   7.959  10.535  0.1860 -0.9262 -0.6092
  952MOL0     C28420  10.905   7.837  10.489 -0.6916 -0.4769  0.1553
  952MOL0     O28421  11.005   7.781  10.417  0.4410  1.0898 -0.3787
  952MOL0     C28422  10.994   7.639  10.369 -0.7302 -0.0882 -0.2157
  952MOL0     C28423  11.101   7.618  10.254 -0.2495 -0.3755  0.8386
  952MOL0     C28424  11.241   7.609  10.312 -0.1340 -1.1011  0.2014
  952MOL0     C28425  11.343   7.584  10.197 -0.1723  0.2697 -0.6152
  952MOL0     C28426  11.352   7.433  10.149 -0.4560  0.6106  0.2193
  952MOL0     C28427  11.463   7.423  10.039  0.2153 -0.4511 -0.5794
  952MOL0     C28428  11.464   7.293   9.962 -0.9555 -0.4556 -0.2298
  952MOL0     C28429  11.581   7.301   9.863  0.4683  0.7439 -1.3226
  952MOL0    Cl28430  11.577   7.435   9.728 -0.6280  0.0447 -0.2975
  952MOL0     C28431  10.780   7.780  10.515 -0.3261 -0.0605  0.3194
  952MOL0     C28432  10.687   7.846  10.600 -0.2082  0.1489  0.0147
  952MOL0     O28433  10.495   8.115  10.555  0.0544 -0.5709 -0.1031
  952MOL0     C28434  10.492   8.160  10.919  0.4034 -0.5834 -0.0974
  952MOL0     C28435  10.424   8.228  11.026 -0.4253  0.0850 -0.4503
  952MOL0     N28436   9.952   8.781  10.903 -0.7243  0.4108 -0.6472
  952MOL0     N28437   9.874   8.710  10.826 -0.2305 -0.3186 -0.3735
  952MOL0     C28438  10.257   7.862  11.133  0.0270  0.5694 -0.1512
  952MOL0     C28439  10.381   7.813  11.105 -0.2831  0.5136 -0.1738
  952MOL0     C28440  10.786   7.754  10.940 -0.1602  0.9444 -0.4655
  952MOL0     C28441  10.807   7.621  10.910 -0.3584 -0.2286 -0.7141
  952MOL0     C28442  10.917   7.573  10.844  1.1790 -0.2419  0.2076
  952MOL0     C28443  11.031   7.655  10.811  0.5139 -0.0579 -0.3610
  952MOL0     O28444  11.140   7.595  10.771 -0.2603 -0.0130  0.5420
  952MOL0     C28445  11.259   7.673  10.754 -0.3116  0.1517  0.5396
  952MOL0     C28446  11.324   7.682  10.890  0.1174 -0.3864  0.9645
  952MOL0     C28447  11.382   7.544  10.926  0.0173 -0.1827 -0.2752
  952MOL0     C28448  11.445   7.519  11.063  0.4651 -0.2980  0.6356
  952MOL0     C28449  11.370   7.583  11.166  0.6935 -0.9187 -0.0921
  952MOL0     C28450  11.306   7.632  11.253  0.3404  1.1850  0.9985
  952MOL0     C28451  11.016   7.792  10.851 -0.3085 -0.4837  0.3766
  952MOL0     C28452  10.889   7.840  10.904 -0.1283  0.1991 -0.6236
  952MOL0     H28453  10.367   7.824  10.771 -1.4287 -1.4845  0.1710
  952MOL0     H28454  10.144   7.929  10.828 -1.5703  0.4531  2.3758
  952MOL0     H28455  10.029   7.830  11.238  3.2111  0.3793 -0.4676
  952MOL0     H28456  10.042   7.999  11.249  0.9139  0.1018 -0.7212
  952MOL0     H28457   9.781   7.863  11.160 -0.6035  1.2813  0.3170
  952MOL0     H28458   9.796   7.922  11.314  0.3261 -0.3749  0.4838
  952MOL0     H28459   9.709   8.113  11.222  0.0513  1.0918  0.2722
  952MOL0     H28460   9.876   8.133  11.148  0.9113 -1.4366 -0.4251
  952MOL0     H28461   9.763   8.008  10.944 -0.5051  0.7079 -0.6072
  952MOL0     H28462   9.612   8.008  11.039 -0.2471  2.5793  1.5700
  952MOL0     H28463   9.622   8.167  10.859 -0.3892  0.7739 -0.3273
  952MOL0     H28464   9.612   8.263  11.011 -0.6094 -0.8558 -0.8421
  952MOL0     H28465   9.853   8.318  11.006 -1.1593  1.3503 -0.2460
  952MOL0     H28466   9.879   8.203  10.878 -0.3203  2.2689 -4.3259
  952MOL0     H28467   9.868   8.401  10.750  0.5393 -1.2909  0.1311
  952MOL0     H28468   9.711   8.328  10.735  0.5696 -0.0367 -1.3376
  952MOL0     H28469   9.647   8.485  10.940  2.6357 -1.1837  1.3250
  952MOL0     H28470   9.647   8.546  10.766  0.3349 -1.3254 -0.9200
  952MOL0     H28471   9.826   8.569  11.106 -4.9676  2.8240 -0.6141
  952MOL0     H28472  10.052   8.877  11.168 -0.7042 -0.2951  1.4705
  952MOL0     H28473   9.993   8.722  11.222 -3.1716  3.4115 -0.1359
  952MOL0     H28474  10.223   8.691  11.216 -0.9732  0.6301 -0.5917
  952MOL0     H28475  10.240   8.814  11.084 -0.3996  0.7637 -1.2250
  952MOL0     H28476  10.312   8.598  10.996  0.6647 -1.0468  2.3262
  952MOL0     H28477  10.156   8.617  10.919  1.1562 -0.2504 -1.2368
  952MOL0     H28478  10.074   8.430  11.050 -0.0988 -1.9567  0.6039
  952MOL0     H28479  10.127   8.497  11.192  0.7799 -0.3729 -0.3089
  952MOL0     H28480  10.170   8.362  10.864 -1.5792 -3.0325 -0.2631
  952MOL0     H28481  10.181   8.337  10.624  1.0798  1.4743 -2.6555
  952MOL0     H28482  10.344   8.335  10.581 -0.3920 -0.4645 -1.2758
  952MOL0     H28483  10.249   8.190  10.565 -2.5849  1.1472 -0.8026
  952MOL0     H28484  10.881   8.129  10.634 -0.0181  0.7380 -2.1777
  952MOL0     H28485  11.034   8.003  10.512 -1.3484  2.6393 -0.7551
  952MOL0     H28486  11.016   7.559  10.441 -0.3547 -0.9616 -1.2727
  952MOL0     H28487  10.891   7.618  10.340 -0.3570 -2.9056  0.1780
  952MOL0     H28488  11.088   7.525  10.197  0.6158 -0.5247  0.8697
  952MOL0     H28489  11.091   7.696  10.179  0.6964 -1.7400 -0.7946
  952MOL0     H28490  11.254   7.525  10.381  0.8212 -2.5918 -1.7016
  952MOL0     H28491  11.255   7.711  10.349 -2.2758  0.4638 -2.9154
  952MOL0     H28492  11.318   7.653  10.116 -1.4706 -1.7808 -2.0685
  952MOL0     H28493  11.444   7.609  10.231 -0.3195 -1.0855  0.9592
  952MOL0     H28494  11.262   7.396  10.099  0.0336 -2.7053  1.5656
  952MOL0     H28495  11.377   7.353  10.219 -3.5956 -1.0106 -0.3281
  952MOL0     H28496  11.447   7.506   9.968 -0.8026  0.2343  0.4249
  952MOL0     H28497  11.563   7.439  10.081  0.0491  1.4507 -0.7941
  952MOL0     H28498  11.368   7.277   9.910  0.0322  1.2775 -2.7979
  952MOL0     H28499  11.479   7.211  10.033  0.3324 -0.8549 -0.9220
  952MOL0     H28500  11.602   7.200   9.826 -0.3567  1.0045 -2.5744
  952MOL0     H28501  11.676   7.330   9.910  0.0978  2.5797 -1.6287
  952MOL0     H28502  10.767   7.675  10.492 -2.7211  0.4478 -0.9174
  952MOL0     H28503  10.601   7.784  10.623 -0.4846 -0.0795 -1.5137
  952MOL0     H28504  10.585   8.117  10.954  0.3048  1.0533  2.4429
  952MOL0     H28505  10.461   8.231  11.128 -0.6539  2.1283 -0.3898
  952MOL0     H28506  10.228   7.860  11.237 -1.5199 -0.7467 -0.5596
  952MOL0     H28507  10.456   7.774  11.174  1.2632 -1.4152 -2.7808
  952MOL0     H28508  10.724   7.552  10.920 -0.1187 -0.4571 -0.3148
  952MOL0     H28509  10.928   7.467  10.826  1.3095 -0.2638  0.4038
  952MOL0     H28510  11.327   7.631  10.680 -2.1645 -2.3297  0.0876
  952MOL0     H28511  11.243   7.776  10.723  0.2332  0.4520  1.2297
  952MOL0     H28512  11.251   7.721  10.962 -0.3841  1.9231 -0.6615
  952MOL0     H28513  11.398   7.761  10.880 -1.2331  0.5830 -3.7764
  952MOL0     H28514  11.463   7.525  10.855 -1.4625  2.0056 -2.7312
  952MOL0     H28515  11.307   7.467  10.903 -1.3596  1.6647 -2.3904
  952MOL0     H28516  11.541   7.572  11.060 -0.8687  2.2702  0.5105
  952MOL0     H28517  11.443   7.412  11.083 -1.8161 -0.7478 -1.4777
  952MOL0     H28518  11.242   7.659  11.334 -1.3738 -1.4564  0.6559
  952MOL0     H28519  11.088   7.872  10.837 -0.3942 -0.0781  1.9909
  952MOL0     H28520  10.866   7.945  10.918 -1.5339  0.4298 -3.9030
  953MOL0     O28521   4.213   6.078   0.806 -0.2205  0.4204  0.3019
  953MOL0     C28522   4.208   6.016   0.913 -0.3175  0.2415 -0.2220
  953MOL0     O28523   4.108   6.033   0.998  0.7150  0.2554 -0.0360
  953MOL0     C28524   4.021   6.141   0.995 -0.3524  0.4081  0.5389
  953MOL0     C28525   3.941   6.168   0.882  0.1181 -0.5148 -0.2535
  953MOL0     C28526   3.844   6.275   0.899 -1.7402  0.3311  0.2834
  953MOL0     C28527   3.826   6.348   1.018  0.2248 -1.0608  1.2043
  953MOL0     O28528   3.730   6.446   1.022  0.2828  0.1083  0.4596
  953MOL0     C28529   3.651   6.445   1.142 -0.6799  0.0296 -0.3219
  953MOL0     C28530   3.532   6.534   1.138 -0.3611  0.3740 -0.2527
  953MOL0     C28531   3.454   6.541   1.011  0.5558 -0.6379  0.3760
  953MOL0     C28532   3.408   6.398   0.973 -0.7783  0.1437  0.3740
  953MOL0     C28533   3.288   6.413   0.883  0.4702  0.2704 -0.1405
  953MOL0     C28534   3.242   6.291   0.809 -0.1064  0.4844  0.6503
  953MOL0     C28535   3.098   6.294   0.759  0.3473  0.4647  0.8194
  953MOL0     C28536   3.074   6.184   0.656 -0.5659 -0.4518 -0.3014
  953MOL0     N28537   3.122   6.232   0.529 -0.1248  0.1019 -0.4287
  953MOL0     C28538   3.049   6.312   0.439 -0.0744  0.4334  0.5756
  953MOL0     C28539   3.143   6.334   0.344  0.2950 -0.2202  0.9055
  953MOL0     C28540   3.127   6.438   0.239 -0.9302 -0.5460 -0.3753
  953MOL0     C28541   3.140   6.580   0.282 -0.0558  0.7359 -0.4688
  953MOL0     C28542   3.109   6.680   0.177 -0.1608  0.7574 -0.5735
  953MOL0     C28543   3.138   6.828   0.211  0.8161  0.0751  0.1897
  953MOL0     O28544   3.019   6.908   0.206 -0.2599  0.3746 -0.3151
  953MOL0     C28545   2.962   6.954   0.089 -0.0717  0.4350  0.3785
  953MOL0     C28546   3.004   6.922  -0.043 -0.0468 -0.1135 -0.0034
  953MOL0     C28547   2.939   6.950  -0.161 -0.3959 -1.2562  0.5254
  953MOL0     C28548   2.998   6.898  -0.290  1.3876  0.6437 -0.6401
  953MOL0     C28549   2.819   7.025  -0.150 -0.1358 -0.2078 -0.4492
  953MOL0     C28550   2.736   7.086  -0.260 -0.7960 -0.1613 -0.8853
  953MOL0     O28551   2.744   7.040  -0.394  0.0786  0.6662  0.0378
  953MOL0     C28552   2.650   7.096  -0.484  0.6994  1.0251  0.1697
  953MOL0     C28553   2.693   7.154  -0.609  0.2025 -0.4741  0.2798
  953MOL0     C28554   2.600   7.236  -0.686 -0.7062  0.5236  0.1908
  953MOL0     C28555   2.467   7.248  -0.645  0.3259 -0.6724  0.8404
  953MOL0     O28556   2.373   7.329  -0.702 -0.2910  0.1180 -0.5326
  953MOL0     C28557   2.328   7.280  -0.830  0.2443 -0.0747  0.1378
  953MOL0     C28558   2.231   7.171  -0.814  0.2808 -0.9846 -0.8147
  953MOL0     C28559   2.103   7.182  -0.726 -0.0525 -0.2237 -0.3931
  953MOL0     C28560   2.053   7.038  -0.692  0.6657  0.5740  0.7911
  953MOL0     C28561   1.984   6.966  -0.807  0.7156 -0.3358 -0.4056
  953MOL0     C28562   1.854   7.044  -0.850  0.4302  0.2179  0.2432
  953MOL0     C28563   1.775   6.989  -0.965 -0.7837  0.0080 -0.8532
  953MOL0     C28564   1.617   7.010  -0.952  0.3563  0.5373  0.4054
  953MOL0    Cl28565   1.582   7.181  -0.940  0.1376 -0.0200  0.2061
  953MOL0     C28566   2.429   7.185  -0.520 -0.3536 -0.0190  0.9502
  953MOL0     C28567   2.515   7.102  -0.451 -0.2439  0.3995  0.5582
  953MOL0     O28568   2.675   7.192  -0.231 -0.0884 -0.1085  0.3184
  953MOL0     C28569   2.780   7.065  -0.023 -0.1868  0.0497 -0.4894
  953MOL0     C28570   2.848   7.031   0.095  0.8637  0.4563 -0.5330
  953MOL0     N28571   3.257   6.257   0.368  0.6454 -0.4088  0.4541
  953MOL0     N28572   3.240   6.197   0.475  0.7275  0.1376  0.1806
  953MOL0     C28573   3.914   6.317   1.119 -0.0147 -0.7582 -1.0246
  953MOL0     C28574   4.013   6.226   1.107  0.4042  0.0967  0.0296
  953MOL0     C28575   4.317   5.918   0.965  0.3116 -0.2542  0.0662
  953MOL0     C28576   4.449   5.926   0.937  0.1889 -0.1014  2.1245
  953MOL0     C28577   4.548   5.840   0.988  0.7731  0.0107 -0.2650
  953MOL0     C28578   4.505   5.740   1.075  0.2008  0.6725 -1.0115
  953MOL0     O28579   4.593   5.651   1.139  0.7078 -0.6830  0.1738
  953MOL0     C28580   4.738   5.672   1.140  0.1405 -0.0323 -0.2639
  953MOL0     C28581   4.807   5.565   1.222 -0.6655  0.0945  0.2878
  953MOL0     C28582   4.827   5.611   1.366 -0.0227 -0.1205 -1.1091
  953MOL0     C28583   4.692   5.587   1.445 -0.7481  0.4037 -0.3076
  953MOL0     C28584   4.725   5.633   1.580  0.5070 -0.0858 -0.0424
  953MOL0     C28585   4.747   5.694   1.685 -0.1349  0.6121  0.0293
  953MOL0     C28586   4.370   5.718   1.097 -0.7649 -0.8818  0.4534
  953MOL0     C28587   4.281   5.810   1.038  0.9101 -0.7531 -0.8738
  953MOL0     H28588   3.961   6.129   0.783  1.1165  0.1328 -0.3260
  953MOL0     H28589   3.777   6.320   0.826 -1.9728 -0.5294 -0.0502
  953MOL0     H28590   3.603   6.347   1.150 -0.0932 -0.2050  0.3983
  953MOL0     H28591   3.717   6.450   1.229 -1.3639 -2.2251  0.3934
  953MOL0     H28592   3.468   6.503   1.221 -2.8146  0.2064 -2.0946
  953MOL0     H28593   3.577   6.629   1.168 -2.4681  0.4725  3.2573
  953MOL0     H28594   3.368   6.609   1.022  0.6064 -0.8184  2.2607
  953MOL0     H28595   3.519   6.571   0.928 -1.2963 -1.1561 -1.3367
  953MOL0     H28596   3.482   6.338   0.918  0.6281  0.1965  2.1087
  953MOL0     H28597   3.385   6.355   1.071  0.1171 -3.1626 -0.7058
  953MOL0     H28598   3.204   6.429   0.951  2.2157  0.3753  2.0852
  953MOL0     H28599   3.299   6.491   0.807  1.0034 -2.0729 -2.6065
  953MOL0     H28600   3.301   6.271   0.720 -1.5743 -1.7735  0.1153
  953MOL0     H28601   3.240   6.205   0.878  1.8969 -0.5194 -0.4474
  953MOL0     H28602   3.028   6.279   0.842 -0.9592 -0.6056 -0.4211
  953MOL0     H28603   3.072   6.388   0.710  0.9001 -1.4106 -3.5861
  953MOL0     H28604   2.971   6.150   0.663 -0.8995  0.7928  1.5244
  953MOL0     H28605   3.131   6.105   0.706  0.1392  0.5599  0.5392
  953MOL0     H28606   2.947   6.344   0.419 -1.7738 -5.4914 -2.8078
  953MOL0     H28607   3.212   6.429   0.170  1.0894  0.1443  1.8893
  953MOL0     H28608   3.027   6.436   0.195 -1.4313 -2.0821  0.7478
  953MOL0     H28609   3.238   6.604   0.324 -0.3320 -0.7261  1.1236
  953MOL0     H28610   3.069   6.587   0.364 -0.3805  1.1262 -0.7742
  953MOL0     H28611   3.001   6.676   0.160 -0.4845  0.9475  1.2098
  953MOL0     H28612   3.166   6.652   0.089 -0.1716 -0.4851 -0.2055
  953MOL0     H28613   3.196   6.878   0.133 -2.0757  2.3690 -0.6806
  953MOL0     H28614   3.191   6.844   0.306 -1.7558  0.3940  1.6604
  953MOL0     H28615   3.100   6.876  -0.061 -1.2031 -1.7033 -2.8315
  953MOL0     H28616   2.933   6.819  -0.328  0.6149  0.9773 -0.0227
  953MOL0     H28617   3.018   6.976  -0.364  1.2180  0.7794 -0.5438
  953MOL0     H28618   3.099   6.859  -0.273  0.7867 -2.6731 -3.6116
  953MOL0     H28619   2.796   7.158  -0.642 -0.1218  1.2199 -0.6443
  953MOL0     H28620   2.646   7.284  -0.772  2.1041 -1.6872  0.3083
  953MOL0     H28621   2.271   7.362  -0.874 -2.0783 -0.6779  1.8262
  953MOL0     H28622   2.409   7.256  -0.900  0.0626  2.8535 -1.2289
  953MOL0     H28623   2.190   7.152  -0.913  0.2877 -0.1280 -0.9914
  953MOL0     H28624   2.274   7.073  -0.791 -2.1696 -1.7964  0.6892
  953MOL0     H28625   2.029   7.248  -0.771 -0.3290 -0.0300  0.3307
  953MOL0     H28626   2.122   7.221  -0.626 -2.5590 -2.2045  0.9987
  953MOL0     H28627   2.139   6.974  -0.669  0.4690 -0.3997 -1.0157
  953MOL0     H28628   1.989   7.025  -0.605 -1.1953 -0.8233 -0.7098
  953MOL0     H28629   1.965   6.865  -0.770  1.2876 -0.8744 -1.5447
  953MOL0     H28630   2.052   6.953  -0.891  0.2887  3.7375 -1.5966
  953MOL0     H28631   1.786   7.057  -0.765 -0.8891 -0.3064 -0.6792
  953MOL0     H28632   1.887   7.145  -0.877  0.5928  0.7366  2.2393
  953MOL0     H28633   1.800   6.883  -0.982 -1.4045 -0.3864  0.5849
  953MOL0     H28634   1.818   7.031  -1.056  1.7857 -0.3134  0.1173
  953MOL0     H28635   1.565   6.959  -0.870 -1.2091  3.2183  1.2416
  953MOL0     H28636   1.571   6.972  -1.043  1.0861 -0.5424  0.4744
  953MOL0     H28637   2.326   7.185  -0.488 -1.9224 -0.8198 -3.3515
  953MOL0     H28638   2.468   7.045  -0.371 -1.8114 -1.9194 -1.8328
  953MOL0     H28639   2.690   7.124  -0.010 -0.4681 -0.7171  1.2362
  953MOL0     H28640   2.814   7.039   0.198 -0.7545 -2.1192 -0.7650
  953MOL0     H28641   3.905   6.369   1.215  0.8739 -0.8288 -0.8958
  953MOL0     H28642   4.086   6.201   1.184  2.7691  0.7690 -1.8593
  953MOL0     H28643   4.472   6.015   0.878  1.2080  0.2594  3.0323
  953MOL0     H28644   4.646   5.848   0.943  1.8235 -3.3678  1.2013
  953MOL0     H28645   4.767   5.665   1.035 -1.0378 -1.4937 -0.5210
  953MOL0     H28646   4.756   5.772   1.180  1.1501  0.2088 -1.3026
  953MOL0     H28647   4.908   5.534   1.194 -0.6563 -1.2597  1.6541
  953MOL0     H28648   4.741   5.478   1.230 -0.5939  0.0780  0.7076
  953MOL0     H28649   4.855   5.717   1.371  1.1694 -0.4784  1.1778
  953MOL0     H28650   4.910   5.553   1.407  0.4726  1.7202  0.6547
  953MOL0     H28651   4.659   5.483   1.443  1.5542 -0.4277  0.9414
  953MOL0     H28652   4.610   5.651   1.413 -0.2135  0.7201 -1.0739
  953MOL0     H28653   4.760   5.761   1.768  1.7741  2.0584 -1.3468
  953MOL0     H28654   4.339   5.639   1.164 -1.4146  1.0410  2.5545
  953MOL0     H28655   4.174   5.793   1.044  0.9005 -0.5172 -0.2943
  954MOL0     O28656   0.769   4.212   5.595  0.1804 -0.1539  0.1419
  954MOL0     C28657   0.695   4.169   5.505  0.2779  1.0316  0.2338
  954MOL0     O28658   0.669   4.036   5.482 -0.6001 -0.2605 -0.5914
  954MOL0     C28659   0.701   3.950   5.590 -0.2947  0.8420 -0.3943
  954MOL0     C28660   0.829   3.894   5.597  0.1030 -0.3815 -0.9835
  954MOL0     C28661   0.855   3.805   5.694 -0.1912  0.4670  0.2455
  954MOL0     C28662   0.758   3.768   5.785 -0.5316  0.7041 -0.8923
  954MOL0     O28663   0.782   3.670   5.876  0.5793 -0.6712 -0.4980
  954MOL0     C28664   0.832   3.544   5.818  0.1997 -0.3394 -0.0080
  954MOL0     C28665   0.954   3.513   5.915  0.4220 -0.2156  0.3771
  954MOL0     C28666   1.064   3.454   5.822  0.9450 -0.1681  0.2283
  954MOL0     C28667   1.171   3.392   5.912  0.2081 -0.4448 -0.1176
  954MOL0     C28668   1.277   3.322   5.825  0.6192  0.5838  0.0933
  954MOL0     C28669   1.386   3.261   5.918 -0.0512 -1.2242 -0.2072
  954MOL0     C28670   1.440   3.358   6.028 -0.1521  0.1309  0.6512
  954MOL0     C28671   1.569   3.288   6.093  0.6931  0.2881  0.4929
  954MOL0     N28672   1.557   3.157   6.150  0.4634  0.4339 -0.1802
  954MOL0     C28673   1.550   3.124   6.287 -1.6527  0.3669  0.3748
  954MOL0     C28674   1.555   2.988   6.287  0.5036 -0.5343  0.4082
  954MOL0     C28675   1.542   2.911   6.417  0.2558  0.8718  0.2571
  954MOL0     C28676   1.446   2.795   6.390 -0.4461 -0.3942 -0.1462
  954MOL0     C28677   1.513   2.658   6.348  0.2043 -0.1803  0.0949
  954MOL0     C28678   1.413   2.544   6.345  0.5372 -0.2357  0.0449
  954MOL0     O28679   1.377   2.508   6.478  0.0363 -0.3098 -0.1506
  954MOL0     C28680   1.264   2.429   6.502 -0.3780 -0.8354  0.7407
  954MOL0     C28681   1.272   2.369   6.627 -0.1322 -0.1478  0.6479
  954MOL0     C28682   1.171   2.285   6.674  0.3544 -0.8388 -0.2973
  954MOL0     C28683   1.177   2.251   6.816 -0.3525 -0.0381  1.1704
  954MOL0     C28684   1.067   2.246   6.587  0.6819 -0.9655  1.0223
  954MOL0     C28685   0.963   2.134   6.627  0.7142 -0.7253 -0.5480
  954MOL0     O28686   0.859   2.115   6.534 -0.1211 -0.2460 -0.3692
  954MOL0     C28687   0.763   2.034   6.581 -0.5808  0.2377  0.8059
  954MOL0     C28688   0.758   1.902   6.518  0.5287 -0.4247 -0.4078
  954MOL0     C28689   0.686   1.793   6.571  0.1941  0.1579 -0.1213
  954MOL0     C28690   0.611   1.821   6.679  0.2435  0.8372 -0.8054
  954MOL0     O28691   0.541   1.713   6.724 -0.3301 -0.2899  0.7101
  954MOL0     C28692   0.614   1.610   6.779 -0.1838  0.4181 -0.6934
  954MOL0     C28693   0.538   1.486   6.829 -0.0017 -0.2182 -0.0944
  954MOL0     C28694   0.469   1.415   6.713 -0.3205  0.4495 -1.2572
  954MOL0     C28695   0.377   1.303   6.776  0.0786 -0.1276  0.2690
  954MOL0     C28696   0.301   1.235   6.674 -0.3954  0.2392  0.8354
  954MOL0     C28697   0.162   1.297   6.628 -0.8224 -0.0861  0.2297
  954MOL0     C28698   0.035   1.214   6.679  0.0195  0.0552  0.2024
  954MOL0     C28699   0.027   1.062   6.628  0.1341  0.8689  0.4065
  954MOL0    Cl28700   0.138   1.023   6.495 -0.2392  0.2767  0.3510
  954MOL0     C28701   0.596   1.949   6.733  0.4781 -0.5446  0.4435
  954MOL0     C28702   0.671   2.060   6.681  0.2263 -0.1887  0.5906
  954MOL0     O28703   0.965   2.075   6.731  0.0297 -0.5394 -0.1583
  954MOL0     C28704   1.048   2.326   6.466  0.0937  1.1951 -0.0614
  954MOL0     C28705   1.141   2.415   6.426  0.3598 -0.2979  0.5977
  954MOL0     N28706   1.567   2.948   6.159 -0.2437 -0.2588  0.4640
  954MOL0     N28707   1.578   3.046   6.073 -0.4509  0.8259  0.1444
  954MOL0     C28708   0.633   3.827   5.781  0.5132  0.1577  0.3616
  954MOL0     C28709   0.601   3.924   5.686 -0.2814 -0.1176  0.3216
  954MOL0     C28710   0.637   4.266   5.405 -0.4455  0.5037 -0.4451
  954MOL0     C28711   0.586   4.227   5.282 -0.2418  0.4980  0.4448
  954MOL0     C28712   0.528   4.316   5.193  0.1069  0.1499  0.1763
  954MOL0     C28713   0.520   4.455   5.220  0.4849  0.8366  0.2922
  954MOL0     O28714   0.434   4.545   5.151 -0.3321  0.2405 -0.3226
  954MOL0     C28715   0.383   4.502   5.027  0.6551 -0.2957  0.1450
  954MOL0     C28716   0.371   4.618   4.936 -0.7193 -0.1939  0.2777
  954MOL0     C28717   0.247   4.707   4.963  0.1667 -0.0213 -0.2261
  954MOL0     C28718   0.276   4.849   4.924  0.0372 -0.3211 -0.0281
  954MOL0     C28719   0.239   4.878   4.789  0.4613 -0.5075 -1.0213
  954MOL0     C28720   0.190   4.893   4.684  0.4286  0.0528 -0.1994
  954MOL0     C28721   0.577   4.492   5.346 -0.1044 -0.0929 -0.1695
  954MOL0     C28722   0.637   4.401   5.434  0.0299  1.1638 -0.1574
  954MOL0     H28723   0.902   3.923   5.522  1.2741 -0.7989 -0.0208
  954MOL0     H28724   0.954   3.763   5.703  0.4744  2.0090  0.4289
  954MOL0     H28725   0.755   3.468   5.824 -4.1833  3.7827  3.2084
  954MOL0     H28726   0.863   3.558   5.714  1.2366 -0.0812  0.3134
  954MOL0     H28727   0.993   3.599   5.970 -0.8277  0.9795 -0.5527
  954MOL0     H28728   0.923   3.446   5.996  0.0761  1.5484  1.7641
  954MOL0     H28729   1.027   3.386   5.744  3.3983  0.4908 -1.6764
  954MOL0     H28730   1.122   3.529   5.768  1.6520 -0.0073  1.1874
  954MOL0     H28731   1.216   3.479   5.961 -0.3205 -0.2962  0.1128
  954MOL0     H28732   1.144   3.314   5.984 -0.7620 -0.5239 -0.5501
  954MOL0     H28733   1.238   3.237   5.770 -1.0409  0.7498  0.9748
  954MOL0     H28734   1.327   3.388   5.753  2.4451 -0.7294  0.0911
  954MOL0     H28735   1.341   3.174   5.966 -3.2146  0.9049  1.0401
  954MOL0     H28736   1.476   3.237   5.861  1.1665 -3.1739  2.3394
  954MOL0     H28737   1.469   3.448   5.972 -1.3836 -0.3421 -0.8035
  954MOL0     H28738   1.370   3.386   6.107  1.9479 -0.3630  2.7867
  954MOL0     H28739   1.604   3.352   6.174 -1.5603  0.0902  1.6918
  954MOL0     H28740   1.652   3.293   6.021  0.0669  0.4166 -0.2263
  954MOL0     H28741   1.531   3.194   6.367 -0.9823  4.2288 -2.5129
  954MOL0     H28742   1.630   2.864   6.461 -1.1198  0.8764  3.2599
  954MOL0     H28743   1.511   2.976   6.499  0.6956  4.8940 -2.4508
  954MOL0     H28744   1.362   2.819   6.324 -0.1328  2.9249  0.5030
  954MOL0     H28745   1.411   2.776   6.492  2.9345  0.3478  1.2589
  954MOL0     H28746   1.592   2.625   6.416 -0.0973 -0.5471  0.2682
  954MOL0     H28747   1.536   2.667   6.241 -2.6549 -0.4943 -0.6385
  954MOL0     H28748   1.463   2.456   6.304  4.7369  2.9032 -2.3590
  954MOL0     H28749   1.319   2.562   6.293  0.9058  0.6810 -0.3162
  954MOL0     H28750   1.355   2.394   6.693  1.4427  0.8989 -1.6086
  954MOL0     H28751   1.242   2.320   6.870  3.3620 -1.6098 -0.8805
  954MOL0     H28752   1.076   2.243   6.858 -0.0013 -0.9467  1.8820
  954MOL0     H28753   1.243   2.164   6.813  1.8944  1.5859  0.0233
  954MOL0     H28754   0.806   1.899   6.421  1.3898  0.3310 -0.0291
  954MOL0     H28755   0.693   1.693   6.529 -0.1103 -0.4179  1.1520
  954MOL0     H28756   0.687   1.569   6.708 -0.4959  0.0106 -0.7820
  954MOL0     H28757   0.674   1.655   6.859 -0.5183  0.0927 -0.2521
  954MOL0     H28758   0.612   1.421   6.879  0.0807 -0.8887 -1.0703
  954MOL0     H28759   0.479   1.532   6.908  1.6376 -0.3204  1.2679
  954MOL0     H28760   0.533   1.371   6.637 -1.6970  3.1130 -4.1799
  954MOL0     H28761   0.412   1.495   6.665 -1.3642  0.7404  0.3827
  954MOL0     H28762   0.441   1.237   6.835 -0.3995  0.3599  1.3694
  954MOL0     H28763   0.311   1.350   6.850 -2.1098 -3.4940  0.6637
  954MOL0     H28764   0.291   1.130   6.702 -2.0706 -0.1300 -0.9082
  954MOL0     H28765   0.363   1.234   6.584 -0.9981 -2.7954  0.3491
  954MOL0     H28766   0.151   1.403   6.653 -2.0511  0.0149 -0.6375
  954MOL0     H28767   0.169   1.309   6.520  0.5936  1.2483  0.4252
  954MOL0     H28768  -0.061   1.255   6.649 -0.6452 -2.4193 -1.3068
  954MOL0     H28769   0.043   1.207   6.788  2.1557 -0.4421  0.0660
  954MOL0     H28770  -0.077   1.033   6.607  0.4477  0.6667 -0.9459
  954MOL0     H28771   0.055   0.997   6.711  2.1568 -2.0227 -2.3187
  954MOL0     H28772   0.517   1.968   6.805 -0.5309 -1.2723 -0.4380
  954MOL0     H28773   0.660   2.152   6.738  2.2719  0.8567 -0.6095
  954MOL0     H28774   0.963   2.298   6.405 -0.8896 -1.2902  2.2683
  954MOL0     H28775   1.142   2.455   6.325  1.9087 -1.4016  0.1386
  954MOL0     H28776   0.557   3.782   5.843 -0.6657 -1.2871 -1.9925
  954MOL0     H28777   0.507   3.970   5.657  1.5100  2.2691 -2.1725
  954MOL0     H28778   0.600   4.122   5.256 -1.1985  0.4735 -0.0245
  954MOL0     H28779   0.497   4.277   5.096  3.8957  1.3527 -1.6923
  954MOL0     H28780   0.448   4.441   4.963  0.9038  0.8804 -0.7674
  954MOL0     H28781   0.281   4.466   5.040  0.6693 -1.3362 -2.1249
  954MOL0     H28782   0.372   4.582   4.833 -0.3628  0.1983  0.1415
  954MOL0     H28783   0.461   4.678   4.952 -2.2738  1.5604  3.3073
  954MOL0     H28784   0.222   4.704   5.070 -1.8179  2.0766 -0.5581
  954MOL0     H28785   0.161   4.659   4.915  0.7948 -3.1382  1.4519
  954MOL0     H28786   0.380   4.877   4.944 -0.1521 -0.2482  0.8957
  954MOL0     H28787   0.223   4.914   4.994  1.4967 -0.1217  0.9322
  954MOL0     H28788   0.159   4.926   4.587  2.2856  0.7997 -0.5673
  954MOL0     H28789   0.569   4.595   5.380  1.4960 -0.7465  2.5137
  954MOL0     H28790   0.681   4.441   5.525 -0.3336 -1.9219  1.4997
  955MOL0     O28791   6.371   5.500  10.485 -0.6172  0.2166  0.4115
  955MOL0     C28792   6.308   5.530  10.387 -0.1386  0.9200 -0.1441
  955MOL0     O28793   6.175   5.487  10.367 -0.3897  0.8218 -0.4476
  955MOL0     C28794   6.085   5.481  10.478  1.2684  0.4492 -0.7131
  955MOL0     C28795   5.962   5.413  10.457 -0.5450  0.6073  0.7192
  955MOL0     C28796   5.863   5.394  10.554  0.0752 -0.2954  0.4097
  955MOL0     C28797   5.886   5.440  10.689  0.0252  0.2001  0.1232
  955MOL0     O28798   5.785   5.420  10.779  0.5793 -0.9337  0.5334
  955MOL0     C28799   5.804   5.436  10.924  0.1186 -0.2449  0.4378
  955MOL0     C28800   5.852   5.312  10.999  0.0476  1.1991 -0.5495
  955MOL0     C28801   5.740   5.217  11.028 -0.4077  0.2674 -0.2834
  955MOL0     C28802   5.794   5.081  11.086 -0.6654 -0.7334 -0.3338
  955MOL0     C28803   5.673   4.976  11.091 -0.0737  0.7269  0.0162
  955MOL0     C28804   5.612   4.937  10.959  0.0304 -0.4892 -0.4909
  955MOL0     C28805   5.531   4.805  10.958  0.3108  0.9871 -0.7041
  955MOL0     C28806   5.621   4.672  10.983 -0.0967 -0.1406 -0.2044
  955MOL0     N28807   5.716   4.665  10.871 -0.4663  0.9643  0.3741
  955MOL0     C28808   5.847   4.627  10.887 -0.4066  0.1607 -0.9330
  955MOL0     C28809   5.888   4.614  10.763 -0.8444 -0.2864 -0.2389
  955MOL0     C28810   6.030   4.591  10.719  0.7487 -0.1955  0.6444
  955MOL0     C28811   6.054   4.445  10.685 -0.2182 -0.4550 -1.1760
  955MOL0     C28812   6.118   4.388  10.814 -0.2836 -0.3633 -0.1591
  955MOL0     C28813   6.220   4.281  10.766 -0.9154 -0.1540 -0.5066
  955MOL0     O28814   6.159   4.178  10.702  0.0003  0.2484  0.8667
  955MOL0     C28815   6.233   4.065  10.668  0.4462  0.9998 -0.4416
  955MOL0     C28816   6.168   3.945  10.618  0.3923 -1.0716  0.4075
  955MOL0     C28817   6.232   3.825  10.574 -0.4639 -0.1073 -0.1074
  955MOL0     C28818   6.148   3.724  10.512 -0.3468 -0.1147  0.6559
  955MOL0     C28819   6.378   3.826  10.598  0.2392 -0.3607 -0.2957
  955MOL0     C28820   6.473   3.719  10.548 -0.4494  0.0332  0.3937
  955MOL0     O28821   6.598   3.725  10.589 -0.2055 -0.0392  0.7897
  955MOL0     C28822   6.701   3.706  10.493  0.0507 -0.9400  1.0725
  955MOL0     C28823   6.827   3.652  10.543 -0.6606  0.1524  0.8603
  955MOL0     C28824   6.939   3.635  10.459  0.5272 -0.6481  0.0735
  955MOL0     C28825   6.928   3.660  10.322  0.4996  0.1033  0.6576
  955MOL0     O28826   7.045   3.658  10.254  0.2376 -0.0560  0.6205
  955MOL0     C28827   7.061   3.706  10.116  0.8550  0.5277  0.0274
  955MOL0     C28828   7.198   3.717  10.075 -0.5902 -0.3529  0.0831
  955MOL0     C28829   7.281   3.584  10.058 -1.4071 -1.6032 -0.6773
  955MOL0     C28830   7.209   3.474   9.983 -0.2039 -0.7589 -0.0544
  955MOL0     C28831   7.322   3.389   9.921  1.0929  0.0497 -0.4734
  955MOL0     C28832   7.410   3.324  10.036  0.0757 -0.6300  0.6370
  955MOL0     C28833   7.344   3.197  10.098  0.8847  0.5007  0.4697
  955MOL0     C28834   7.444   3.120  10.185  0.5445  0.1615  0.8593
  955MOL0    Cl28835   7.529   3.027  10.065 -0.1334  0.5263 -0.5033
  955MOL0     C28836   6.799   3.701  10.271  0.3748  0.3889  0.6267
  955MOL0     C28837   6.684   3.715  10.359 -0.3029  0.0794 -0.0306
  955MOL0     O28838   6.426   3.636  10.478 -0.0729  0.2855  0.1499
  955MOL0     C28839   6.433   3.931  10.664 -0.3668  0.8640  0.6855
  955MOL0     C28840   6.369   4.050  10.692  0.0924 -0.2992  0.5727
  955MOL0     N28841   5.795   4.654  10.669 -0.1471 -0.4398  0.3907
  955MOL0     N28842   5.687   4.680  10.737 -0.1117  0.0895  0.4527
  955MOL0     C28843   6.007   5.512  10.709  0.9215  0.5731 -0.9534
  955MOL0     C28844   6.105   5.530  10.612 -0.2829  0.2225 -1.1073
  955MOL0     C28845   6.376   5.597  10.278  0.2043 -0.4402 -0.1096
  955MOL0     C28846   6.313   5.629  10.155 -0.2817 -1.4141  0.5812
  955MOL0     C28847   6.374   5.711  10.060 -0.5936 -0.6759 -0.3018
  955MOL0     C28848   6.505   5.757  10.073 -0.7462  0.3903 -1.5302
  955MOL0     O28849   6.583   5.820   9.983 -0.6513 -0.9970  0.7397
  955MOL0     C28850   6.521   5.863   9.853 -0.1959  0.4648 -0.5033
  955MOL0     C28851   6.611   5.941   9.762  0.1045 -0.0680  0.3556
  955MOL0     C28852   6.636   6.085   9.813 -0.8448  0.5843 -0.7919
  955MOL0     C28853   6.752   6.141   9.722  0.1153  0.0951  0.0007
  955MOL0     C28854   6.793   6.279   9.769  0.8491 -0.4579 -0.3696
  955MOL0     C28855   6.830   6.384   9.817 -0.7183  0.5955  0.2627
  955MOL0     C28856   6.569   5.722  10.184 -0.2097 -0.5658 -0.1201
  955MOL0     C28857   6.508   5.648  10.293  0.2535  0.0683 -0.6837
  955MOL0     H28858   5.948   5.373  10.358 -3.7610 -1.3303  1.7915
  955MOL0     H28859   5.762   5.361  10.530  0.6835 -2.0126  0.0893
  955MOL0     H28860   5.876   5.517  10.939  0.6905 -0.6081 -0.2884
  955MOL0     H28861   5.708   5.462  10.970  1.1144 -0.0563  2.5535
  955MOL0     H28862   5.921   5.260  10.931 -0.4555  0.4019 -0.4561
  955MOL0     H28863   5.902   5.330  11.094  0.6486 -1.7466 -0.1959
  955MOL0     H28864   5.677   5.253  11.110  1.8931 -1.2802  2.3333
  955MOL0     H28865   5.681   5.200  10.938 -0.8920 -0.9055  0.2435
  955MOL0     H28866   5.876   5.038  11.028 -0.7141 -2.6405  0.9357
  955MOL0     H28867   5.830   5.108  11.186 -0.5298 -1.4612 -0.1825
  955MOL0     H28868   5.712   4.883  11.135 -1.7663 -1.3999 -2.6338
  955MOL0     H28869   5.598   5.016  11.159 -3.7325 -3.3439 -1.1523
  955MOL0     H28870   5.550   5.025  10.940 -0.5356 -1.2270 -2.1750
  955MOL0     H28871   5.689   4.933  10.881  0.3645 -1.2731 -0.1313
  955MOL0     H28872   5.459   4.813  11.040  1.6725  1.6592  0.4644
  955MOL0     H28873   5.475   4.810  10.864  2.1556 -0.2372 -1.9223
  955MOL0     H28874   5.575   4.574  10.968 -0.5438  0.4864 -3.7987
  955MOL0     H28875   5.673   4.673  11.080  0.5723 -1.0313 -0.5362
  955MOL0     H28876   5.911   4.610  10.974 -0.2002  0.9126 -0.9297
  955MOL0     H28877   6.048   4.645  10.626 -1.8375 -1.3926 -0.6484
  955MOL0     H28878   6.100   4.644  10.785  1.8964 -1.0587  0.1585
  955MOL0     H28879   6.116   4.439  10.595 -0.6625 -0.5782 -1.4788
  955MOL0     H28880   5.966   4.385  10.659 -1.0515  0.6717 -1.0483
  955MOL0     H28881   6.049   4.339  10.883 -0.4500  1.2710  0.8925
  955MOL0     H28882   6.172   4.462  10.874  0.4022 -2.9689  2.7332
  955MOL0     H28883   6.272   4.249  10.856  0.3226  0.9013 -0.8152
  955MOL0     H28884   6.304   4.320  10.707 -0.8901 -0.2124 -0.5101
  955MOL0     H28885   6.060   3.946  10.621  0.4038  0.3990  2.3155
  955MOL0     H28886   6.064   3.774  10.463  0.3601 -1.0908 -1.6817
  955MOL0     H28887   6.194   3.668  10.430 -0.0876 -3.3068  2.7811
  955MOL0     H28888   6.109   3.646  10.578  0.8147 -2.4350 -1.2286
  955MOL0     H28889   6.824   3.620  10.647 -1.7567  0.8864  1.0802
  955MOL0     H28890   7.027   3.596  10.507  0.9518 -2.4932 -2.0425
  955MOL0     H28891   7.011   3.638  10.047  1.2040  0.0680  0.2253
  955MOL0     H28892   7.007   3.801  10.103  0.8906  0.6096  0.4520
  955MOL0     H28893   7.215   3.776   9.985  2.5470 -0.1544  0.7029
  955MOL0     H28894   7.246   3.771  10.157 -0.1646 -2.2097  1.1286
  955MOL0     H28895   7.297   3.550  10.161  0.9345  1.3664  0.0695
  955MOL0     H28896   7.379   3.608  10.017 -1.5713  0.3015 -0.0367
  955MOL0     H28897   7.143   3.424  10.055  1.5030  1.0984  2.9825
  955MOL0     H28898   7.145   3.507   9.900 -1.0225 -3.3317 -0.5506
  955MOL0     H28899   7.376   3.458   9.854  0.7441  0.3813 -0.4187
  955MOL0     H28900   7.273   3.314   9.857 -1.0439 -0.6799  1.8450
  955MOL0     H28901   7.511   3.293  10.006 -0.1044 -1.1894  0.5836
  955MOL0     H28902   7.433   3.391  10.119 -4.6784  1.1510  0.8313
  955MOL0     H28903   7.298   3.132  10.023  1.1983  1.5114 -0.6333
  955MOL0     H28904   7.270   3.233  10.169  2.4763  1.3638  1.7664
  955MOL0     H28905   7.402   3.052  10.259 -2.0593  2.6172  1.8228
  955MOL0     H28906   7.507   3.199  10.228 -2.0073  4.2657 -2.1562
  955MOL0     H28907   6.770   3.713  10.167  0.7026 -0.4095  0.4405
  955MOL0     H28908   6.590   3.748  10.317 -0.0337  0.4639 -0.3390
  955MOL0     H28909   6.541   3.927  10.669 -0.3048 -1.0569 -1.2147
  955MOL0     H28910   6.428   4.139  10.713 -0.7508  1.8644 -4.6066
  955MOL0     H28911   6.025   5.557  10.806  1.4099 -0.4648 -0.5435
  955MOL0     H28912   6.201   5.577  10.631  1.0113 -1.2790 -3.4493
  955MOL0     H28913   6.217   5.594  10.117  0.5141 -0.7719 -2.2606
  955MOL0     H28914   6.324   5.724   9.965  0.1166 -0.9595 -0.7290
  955MOL0     H28915   6.489   5.771   9.802  2.3463 -2.5426  2.8370
  955MOL0     H28916   6.439   5.934   9.868  0.0914  0.9843 -1.3358
  955MOL0     H28917   6.568   5.940   9.661  1.0252 -0.2867 -0.0482
  955MOL0     H28918   6.703   5.883   9.756  1.2916  1.8636 -2.4542
  955MOL0     H28919   6.655   6.080   9.921 -0.5575 -0.6616 -0.8893
  955MOL0     H28920   6.549   6.148   9.792  0.6608  3.3422  0.5863
  955MOL0     H28921   6.713   6.154   9.620  1.3166  2.1183 -0.2571
  955MOL0     H28922   6.839   6.074   9.717 -0.9037 -1.2604 -0.1646
  955MOL0     H28923   6.861   6.485   9.835  0.1445  0.2276  0.9120
  955MOL0     H28924   6.676   5.738  10.194  0.1013 -0.5131 -2.7709
  955MOL0     H28925   6.573   5.627  10.377  1.1837  0.2097 -1.3476
  956MOL0     O28926   5.111   3.898   3.669 -0.9094 -0.0294  0.0027
  956MOL0     C28927   5.038   3.809   3.691 -1.2470 -0.5868 -1.5679
  956MOL0     O28928   4.965   3.800   3.795 -0.9238  1.0706 -0.1582
  956MOL0     C28929   4.995   3.872   3.902  0.3395  0.5692 -0.3311
  956MOL0     C28930   4.883   3.945   3.953 -0.1781 -0.3019 -0.2875
  956MOL0     C28931   4.898   4.008   4.074 -0.4173 -0.1521 -0.4649
  956MOL0     C28932   5.026   4.026   4.132  0.2386 -0.8405  0.0119
  956MOL0     O28933   5.043   4.098   4.242 -0.1628  0.4471 -0.2803
  956MOL0     C28934   5.018   4.028   4.368 -0.2757  0.2193 -1.0676
  956MOL0     C28935   5.127   3.919   4.412 -0.0850 -0.5256 -0.1465
  956MOL0     C28936   5.092   3.858   4.550  0.3297 -0.0255  0.3067
  956MOL0     C28937   5.214   3.839   4.630  0.9193 -0.5444  0.2990
  956MOL0     C28938   5.213   3.730   4.739  0.0649  0.1903 -0.8532
  956MOL0     C28939   5.341   3.734   4.821 -0.0971 -0.2259  1.0708
  956MOL0     C28940   5.337   3.636   4.935  0.0540 -0.0212 -0.8704
  956MOL0     C28941   5.323   3.709   5.070 -0.3813 -0.4271 -0.1199
  956MOL0     N28942   5.345   3.617   5.180 -0.3609  0.0364 -0.1368
  956MOL0     C28943   5.459   3.532   5.187  0.1760  0.5061 -0.3050
  956MOL0     C28944   5.487   3.528   5.322 -0.9366  0.2680 -1.0731
  956MOL0     C28945   5.603   3.474   5.401  0.1897 -0.6495  1.1242
  956MOL0     C28946   5.742   3.498   5.340  0.1511  0.4149 -0.2969
  956MOL0     C28947   5.807   3.370   5.278  0.8406  0.1647 -0.1175
  956MOL0     C28948   5.797   3.359   5.122 -0.0757 -0.3090 -0.7302
  956MOL0     O28949   5.679   3.320   5.062 -0.2039  0.4798 -0.1741
  956MOL0     C28950   5.655   3.344   4.933 -0.0256 -0.0422 -0.2150
  956MOL0     C28951   5.522   3.328   4.890 -0.1236  0.4582  0.5124
  956MOL0     C28952   5.484   3.364   4.753 -0.6740  0.3103  0.6230
  956MOL0     C28953   5.343   3.330   4.709 -0.2025  0.5298  0.2545
  956MOL0     C28954   5.573   3.437   4.668  0.0483 -0.5105  0.2389
  956MOL0     C28955   5.549   3.488   4.532 -0.2590  0.2770 -0.8290
  956MOL0     O28956   5.424   3.492   4.480  0.0264  0.2342 -0.1525
  956MOL0     C28957   5.410   3.518   4.350  0.1356  0.6719  0.3812
  956MOL0     C28958   5.440   3.420   4.251 -0.2285 -0.4995  0.2075
  956MOL0     C28959   5.403   3.436   4.115  0.7976 -0.5663 -0.1312
  956MOL0     C28960   5.315   3.546   4.082  0.2465 -0.2966 -0.2392
  956MOL0     O28961   5.271   3.552   3.952  0.3286 -0.0605  0.2859
  956MOL0     C28962   5.132   3.502   3.940 -0.2481  0.4455 -0.5072
  956MOL0     C28963   5.139   3.344   3.932  0.0341  0.3682  0.4978
  956MOL0     C28964   5.240   3.279   3.833  0.9576 -0.2238 -0.2564
  956MOL0     C28965   5.236   3.351   3.701 -0.8153 -0.3666 -0.8346
  956MOL0     C28966   5.312   3.254   3.597 -0.8603  0.6221 -0.1294
  956MOL0     C28967   5.301   3.324   3.450 -0.3935  0.7253  0.1456
  956MOL0     C28968   5.342   3.223   3.334  0.4589  0.5406  1.0214
  956MOL0     C28969   5.480   3.259   3.282 -0.1490 -0.4034  0.5327
  956MOL0    Cl28970   5.524   3.153   3.136  0.3825  0.3959 -0.0403
  956MOL0     C28971   5.291   3.646   4.178 -0.3025  0.5304 -0.0974
  956MOL0     C28972   5.333   3.636   4.309 -0.4243  0.1768 -1.2139
  956MOL0     O28973   5.655   3.502   4.468 -0.0472  0.1719 -0.1900
  956MOL0     C28974   5.700   3.458   4.728  0.0331 -0.7321  0.5948
  956MOL0     C28975   5.747   3.409   4.847  1.1957  0.4825 -0.2069
  956MOL0     N28976   5.386   3.599   5.390  0.8754  0.0614  0.1916
  956MOL0     N28977   5.307   3.657   5.304 -0.3878 -0.3156 -0.1072
  956MOL0     C28978   5.138   3.981   4.056 -0.7893 -1.2955 -0.7583
  956MOL0     C28979   5.129   3.880   3.965  1.1086 -0.4874 -0.4674
  956MOL0     C28980   5.019   3.704   3.583  0.4834 -0.5952  0.3886
  956MOL0     C28981   5.077   3.718   3.452 -0.2042  1.0123  0.5154
  956MOL0     C28982   5.045   3.630   3.346  0.0956  0.3771  0.0318
  956MOL0     C28983   4.957   3.525   3.370 -0.1393  0.7950 -0.3761
  956MOL0     O28984   4.930   3.432   3.275  0.2141 -0.2213 -0.1521
  956MOL0     C28985   5.010   3.427   3.157  1.2317 -0.4858 -0.3958
  956MOL0     C28986   4.959   3.313   3.072  0.0886 -0.1376  0.1202
  956MOL0     C28987   5.011   3.300   2.922  0.8571 -0.0664 -0.7028
  956MOL0     C28988   5.170   3.284   2.905  0.0815 -0.4831  0.6740
  956MOL0     C28989   5.254   3.397   2.955  0.1162  0.5122 -0.1284
  956MOL0     C28990   5.313   3.487   3.001 -0.0040 -0.5099 -0.0862
  956MOL0     C28991   4.895   3.505   3.500 -0.7264  0.3374  0.8769
  956MOL0     C28992   4.929   3.597   3.601 -0.9186 -0.5515 -1.0553
  956MOL0     H28993   4.784   3.935   3.910  0.2155  2.9380 -2.2441
  956MOL0     H28994   4.803   4.023   4.126 -0.7289  0.7006 -1.2665
  956MOL0     H28995   5.004   4.097   4.451 -0.6108  1.3606 -2.0526
  956MOL0     H28996   4.916   3.987   4.361  0.2266 -1.5391  0.9172
  956MOL0     H28997   5.134   3.839   4.338  0.3407 -0.3022 -0.3505
  956MOL0     H28998   5.224   3.968   4.412  0.0948 -0.8819 -0.0286
  956MOL0     H28999   5.027   3.929   4.602 -0.3698 -1.8479  2.0851
  956MOL0     H29000   5.038   3.764   4.537 -3.2145  1.8755  0.2642
  956MOL0     H29001   5.294   3.832   4.556 -1.1588  2.5938 -2.5474
  956MOL0     H29002   5.242   3.932   4.680  0.5108  0.5293 -1.4049
  956MOL0     H29003   5.125   3.741   4.803  1.0767 -4.1619  1.7577
  956MOL0     H29004   5.199   3.628   4.700  1.4157 -0.9658  1.4486
  956MOL0     H29005   5.421   3.704   4.752 -0.9029 -1.3954  0.6016
  956MOL0     H29006   5.372   3.835   4.847  0.7335  1.3137 -4.5804
  956MOL0     H29007   5.255   3.565   4.917  0.2361 -0.3129 -0.5622
  956MOL0     H29008   5.433   3.583   4.934 -0.5155 -1.4008  2.7018
  956MOL0     H29009   5.228   3.762   5.063 -0.6263 -1.0585 -2.3962
  956MOL0     H29010   5.402   3.783   5.088 -0.9279  0.0285  0.4563
  956MOL0     H29011   5.533   3.506   5.111  2.0880  0.9652  1.2997
  956MOL0     H29012   5.597   3.506   5.505  0.2545 -1.1712  1.2907
  956MOL0     H29013   5.587   3.366   5.404 -1.5735 -0.5894 -1.6781
  956MOL0     H29014   5.815   3.528   5.416 -1.5928 -0.7545  1.9428
  956MOL0     H29015   5.724   3.574   5.264 -0.2537  0.8139  0.1886
  956MOL0     H29016   5.778   3.288   5.344 -0.3247  1.4551  1.0553
  956MOL0     H29017   5.913   3.382   5.298  0.0840  1.7359  3.8063
  956MOL0     H29018   5.883   3.292   5.110  0.8063 -0.3728  4.0162
  956MOL0     H29019   5.817   3.464   5.100 -0.3759  0.6891  3.0546
  956MOL0     H29020   5.447   3.283   4.955  1.2247 -1.6764  0.7022
  956MOL0     H29021   5.341   3.291   4.607  0.6424 -1.9495  1.1017
  956MOL0     H29022   5.302   3.258   4.781 -0.3959 -1.2098 -1.5221
  956MOL0     H29023   5.284   3.422   4.705 -1.4200 -0.2706 -0.7781
  956MOL0     H29024   5.482   3.323   4.276 -2.3532 -1.1916  1.4116
  956MOL0     H29025   5.414   3.358   4.041 -2.5390  0.3806 -1.8063
  956MOL0     H29026   5.067   3.547   4.016 -1.4084 -0.1522 -1.1202
  956MOL0     H29027   5.084   3.538   3.849  0.1747 -1.0952 -1.3712
  956MOL0     H29028   5.169   3.306   4.031 -2.4630 -1.2265  0.7324
  956MOL0     H29029   5.034   3.319   3.917 -0.7382  0.5923  4.3852
  956MOL0     H29030   5.224   3.171   3.828 -1.2591 -0.0066  1.0051
  956MOL0     H29031   5.342   3.287   3.871  0.6087  0.5448  0.5372
  956MOL0     H29032   5.135   3.376   3.667 -1.2826  0.5814  1.1104
  956MOL0     H29033   5.293   3.443   3.718 -0.5957  0.1065 -3.6296
  956MOL0     H29034   5.256   3.159   3.594  1.0421 -0.5695  0.3864
  956MOL0     H29035   5.415   3.234   3.627 -0.7355 -1.3336 -1.6503
  956MOL0     H29036   5.196   3.352   3.435  0.2220  1.8216 -2.5428
  956MOL0     H29037   5.358   3.415   3.432 -1.4651  1.4192  0.1539
  956MOL0     H29038   5.269   3.228   3.253  0.4023  0.8277  1.0887
  956MOL0     H29039   5.355   3.119   3.363  0.5944  0.4422  0.6103
  956MOL0     H29040   5.557   3.254   3.359 -0.3604 -1.1488  0.7111
  956MOL0     H29041   5.480   3.364   3.252 -2.1096  0.8218  4.1712
  956MOL0     H29042   5.247   3.741   4.149 -0.7596  0.2308 -0.3837
  956MOL0     H29043   5.303   3.711   4.381  1.2867  0.9271 -1.2536
  956MOL0     H29044   5.779   3.498   4.664 -0.9497  0.2104 -0.0652
  956MOL0     H29045   5.849   3.427   4.881  0.3504  3.9453  0.7925
  956MOL0     H29046   5.239   3.985   4.093 -0.8502 -2.2325 -0.4698
  956MOL0     H29047   5.219   3.838   3.922  0.7544  0.6172 -2.3936
  956MOL0     H29048   5.155   3.791   3.433  0.3368  0.5678  1.0058
  956MOL0     H29049   5.110   3.642   3.259 -0.3259 -0.2328 -0.3785
  956MOL0     H29050   4.983   3.520   3.106  2.3472  1.2822  2.0610
  956MOL0     H29051   5.116   3.414   3.179  1.6088  0.7004 -1.3958
  956MOL0     H29052   4.854   3.333   3.053  0.1715  0.5425  0.3497
  956MOL0     H29053   4.978   3.221   3.129  0.6605  0.8471  1.5963
  956MOL0     H29054   4.977   3.392   2.874 -0.2327  0.8038  1.5625
  956MOL0     H29055   4.962   3.221   2.865  0.1181  1.4632 -2.2492
  956MOL0     H29056   5.188   3.265   2.798 -0.2965 -1.9368  0.8457
  956MOL0     H29057   5.210   3.188   2.939  3.7595 -0.0654 -1.8568
  956MOL0     H29058   5.365   3.569   3.045 -0.1942 -0.6219  0.3510
  956MOL0     H29059   4.838   3.417   3.525  0.4382 -0.0057  2.4665
  956MOL0     H29060   4.879   3.587   3.696  0.5793  0.5945 -0.0931
  957MOL0     O29061  10.674  10.696   8.225  0.5571 -0.3271  0.4829
  957MOL0     C29062  10.750  10.786   8.258  0.1646  0.0476 -0.7719
  957MOL0     O29063  10.887  10.775   8.258 -0.7662  0.1741 -0.0021
  957MOL0     C29064  10.947  10.685   8.182  0.4252  0.2707  0.5490
  957MOL0     C29065  11.020  10.728   8.069 -0.1514 -0.2794 -0.7490
  957MOL0     C29066  11.093  10.636   8.000  0.4034 -0.0356 -0.1428
  957MOL0     C29067  11.098  10.501   8.033 -0.0394  0.0561  0.3697
  957MOL0     O29068  11.173  10.417   7.955 -0.2079  0.0950 -0.3950
  957MOL0     C29069  11.096  10.356   7.845 -0.0553  0.3719 -0.9149
  957MOL0     C29070  11.197  10.277   7.758 -0.2348 -0.3270 -0.8454
  957MOL0     C29071  11.130  10.203   7.640 -0.2119  0.2280 -0.2501
  957MOL0     C29072  11.009  10.118   7.687  0.3865 -0.5870  0.1573
  957MOL0     C29073  10.945  10.006   7.596 -0.1657  0.0133  0.1229
  957MOL0     C29074  10.867  10.059   7.474  0.0445 -0.0750 -0.2897
  957MOL0     C29075  10.730  10.130   7.515  0.1245 -0.4794 -0.3739
  957MOL0     C29076  10.634  10.037   7.598 -0.7339 -0.8091  0.2567
  957MOL0     N29077  10.498  10.100   7.622  0.5700  0.0472 -0.1446
  957MOL0     C29078  10.378  10.030   7.600 -0.5386 -0.5252  0.7329
  957MOL0     C29079  10.274  10.115   7.627  1.1849  1.0132 -0.5940
  957MOL0     C29080  10.129  10.074   7.608 -0.4084  0.2589 -0.0909
  957MOL0     C29081  10.103   9.966   7.713  0.3717 -0.3527  0.8528
  957MOL0     C29082  10.127  10.013   7.856  0.4676  0.2189  0.2363
  957MOL0     C29083  10.128   9.898   7.969 -0.2480 -0.6681 -0.1335
  957MOL0     O29084  10.150   9.771   7.908  0.6559 -0.6444  0.5884
  957MOL0     C29085  10.213   9.688   7.990 -0.1262  0.6201  0.2861
  957MOL0     C29086  10.284   9.589   7.914  0.1327 -0.6642 -0.1925
  957MOL0     C29087  10.368   9.503   7.971 -0.4611  1.1995 -0.6824
  957MOL0     C29088  10.454   9.417   7.873  0.0770 -0.3212 -0.5426
  957MOL0     C29089  10.386   9.495   8.114  0.3039 -0.4531  0.4393
  957MOL0     C29090  10.475   9.410   8.190 -0.0222  0.7984 -1.1073
  957MOL0     O29091  10.413   9.340   8.282  0.5039  0.1753 -0.6072
  957MOL0     C29092  10.476   9.250   8.365  0.6697  0.5309  0.5248
  957MOL0     C29093  10.573   9.290   8.452 -0.2689  0.0082 -0.6388
  957MOL0     C29094  10.626   9.203   8.547  0.1699  0.5236  0.7399
  957MOL0     C29095  10.585   9.062   8.546 -1.2275 -0.0292 -0.6536
  957MOL0     O29096  10.647   8.969   8.624 -0.1605  0.1662 -0.3762
  957MOL0     C29097  10.662   8.992   8.758 -0.2949  0.1949 -0.4920
  957MOL0     C29098  10.556   8.922   8.845 -0.4629 -0.2420 -0.6931
  957MOL0     C29099  10.593   8.926   8.990 -0.7275  0.0765  0.4115
  957MOL0     C29100  10.526   8.825   9.086  0.2713  0.4473 -0.2756
  957MOL0     C29101  10.570   8.851   9.224 -0.0691 -0.2519 -0.8750
  957MOL0     C29102  10.700   8.796   9.278 -0.4554  0.7875  0.3004
  957MOL0     C29103  10.723   8.637   9.301  0.0870 -0.3123 -0.4799
  957MOL0     C29104  10.875   8.616   9.302  0.7655  0.4345 -0.7847
  957MOL0    Cl29105  10.941   8.690   9.437 -0.0243  0.3101  0.0082
  957MOL0     C29106  10.493   9.022   8.455 -0.4755 -0.1194 -0.2050
  957MOL0     C29107  10.437   9.114   8.369  0.7120 -0.9972 -0.7425
  957MOL0     O29108  10.596   9.396   8.160  0.9968  0.4655  0.2883
  957MOL0     C29109  10.321   9.599   8.186 -1.2205  0.1711  0.2881
  957MOL0     C29110  10.235   9.685   8.130  0.9111  0.4639  0.3893
  957MOL0     N29111  10.331  10.231   7.666 -0.2067 -0.3965 -0.1232
  957MOL0     N29112  10.469  10.223   7.671  0.3657  1.3158 -0.2149
  957MOL0     C29113  11.042  10.465   8.153 -0.5600 -0.1193  0.5326
  957MOL0     C29114  10.952  10.552   8.228  0.1577  0.2620 -0.0168
  957MOL0     C29115  10.686  10.916   8.300 -0.3774  0.1717  0.2942
  957MOL0     C29116  10.552  10.922   8.323 -0.0324  0.1709  0.6919
  957MOL0     C29117  10.500  11.039   8.376  0.8386 -0.0692 -0.2491
  957MOL0     C29118  10.582  11.146   8.404  0.0456  0.6407 -0.1573
  957MOL0     O29119  10.541  11.260   8.461  0.6658 -0.4456  0.1255
  957MOL0     C29120  10.479  11.247   8.593  0.0330  0.7631  0.4767
  957MOL0     C29121  10.589  11.281   8.698  0.1660  0.0544 -0.4504
  957MOL0     C29122  10.627  11.423   8.694 -0.1326 -0.3047  0.6972
  957MOL0     C29123  10.508  11.507   8.731 -0.0244 -0.5438 -0.1355
  957MOL0     C29124  10.550  11.644   8.755 -0.1337  0.1956 -0.3399
  957MOL0     C29125  10.608  11.748   8.781  0.2827  0.3614  1.0271
  957MOL0     C29126  10.716  11.147   8.362 -0.6739  0.2048 -0.1606
  957MOL0     C29127  10.765  11.023   8.313 -0.3005 -0.0634 -0.5580
  957MOL0     H29128  11.004  10.831   8.039  0.3697  0.8150  2.3216
  957MOL0     H29129  11.154  10.672   7.917 -0.9164  0.8473 -0.7710
  957MOL0     H29130  11.027  10.287   7.895  2.9301 -0.9651  1.7652
  957MOL0     H29131  11.052  10.434   7.783 -0.0704  1.5204  0.4799
  957MOL0     H29132  11.285  10.336   7.732  0.3497 -0.3459  0.9025
  957MOL0     H29133  11.226  10.200   7.830 -2.4588  0.6223  1.2194
  957MOL0     H29134  11.099  10.274   7.562  1.5869  0.1521 -1.0817
  957MOL0     H29135  11.209  10.141   7.597  0.0082  0.7092 -0.5482
  957MOL0     H29136  11.049  10.046   7.759 -0.2017 -0.5042  0.5673
  957MOL0     H29137  10.928  10.180   7.725  1.7373  2.6434 -1.8090
  957MOL0     H29138  11.025   9.937   7.565  1.3415  0.1746  3.2672
  957MOL0     H29139  10.874   9.959   7.665 -1.7020  2.9261  0.6768
  957MOL0     H29140  10.927  10.135   7.423  0.0306 -0.1360 -0.3958
  957MOL0     H29141  10.839   9.978   7.407  0.1347  1.6892 -2.5739
  957MOL0     H29142  10.757  10.213   7.581 -1.4140 -0.1732 -0.1024
  957MOL0     H29143  10.688  10.177   7.426 -0.1381 -1.5388 -0.8242
  957MOL0     H29144  10.680  10.006   7.693 -0.3998 -1.0532  0.0159
  957MOL0     H29145  10.619   9.938   7.554 -0.8478 -2.0040  2.8073
  957MOL0     H29146  10.368   9.936   7.546 -0.0771 -0.1754  0.0330
  957MOL0     H29147  10.061  10.159   7.618 -2.0592 -0.8094 -1.6466
  957MOL0     H29148  10.118  10.024   7.512 -0.6311 -1.0929  0.6111
  957MOL0     H29149  10.148   9.875   7.672 -1.3716 -1.2482  0.8296
  957MOL0     H29150   9.998   9.935   7.711  0.7186 -1.5867 -0.0318
  957MOL0     H29151  10.040  10.076   7.878 -1.2143 -1.1309 -2.1229
  957MOL0     H29152  10.228  10.056   7.859 -0.0370  1.6861 -1.8435
  957MOL0     H29153  10.035   9.903   8.026 -0.4203  1.6761 -0.5465
  957MOL0     H29154  10.205   9.921   8.043  1.8296 -1.5301 -1.9376
  957MOL0     H29155  10.262   9.579   7.808  0.5038 -1.6173 -0.1870
  957MOL0     H29156  10.441   9.433   7.766  0.3523  0.2104 -0.4994
  957MOL0     H29157  10.557   9.435   7.903 -0.8636  2.9364  1.1727
  957MOL0     H29158  10.435   9.312   7.900  1.5505 -0.7853 -1.2187
  957MOL0     H29159  10.597   9.396   8.449 -0.1989 -0.0181 -2.7233
  957MOL0     H29160  10.704   9.234   8.616  0.1013 -2.2714  2.2126
  957MOL0     H29161  10.753   8.936   8.780 -0.8148  0.3772  2.5128
  957MOL0     H29162  10.689   9.093   8.792 -1.1528 -0.1897  1.4688
  957MOL0     H29163  10.464   8.982   8.840 -0.6608  0.1198  3.5464
  957MOL0     H29164  10.545   8.823   8.800 -1.2036 -0.1700 -0.6948
  957MOL0     H29165  10.577   9.028   9.027  1.1229  0.5374  0.0664
  957MOL0     H29166  10.700   8.904   8.991 -0.5571  0.8025 -0.5063
  957MOL0     H29167  10.418   8.843   9.086  0.1932  0.6243  3.0498
  957MOL0     H29168  10.544   8.720   9.060  2.3413  0.6819  0.0483
  957MOL0     H29169  10.490   8.816   9.290  0.6392  0.1242  0.2098
  957MOL0     H29170  10.577   8.960   9.234 -1.9914 -0.2433  1.1923
  957MOL0     H29171  10.770   8.822   9.197 -1.0719 -0.1187 -0.5433
  957MOL0     H29172  10.723   8.843   9.374  0.0462 -1.8068  1.5483
  957MOL0     H29173  10.676   8.575   9.224 -0.1009 -2.6612  1.4144
  957MOL0     H29174  10.692   8.603   9.400  0.9364 -1.7555 -0.6831
  957MOL0     H29175  10.921   8.656   9.211 -3.8886  2.7493 -2.4743
  957MOL0     H29176  10.900   8.510   9.312 -0.5625  0.2861  1.6097
  957MOL0     H29177  10.462   8.918   8.447 -0.9828 -0.2418  2.4020
  957MOL0     H29178  10.362   9.079   8.299 -1.5597 -0.2145  1.1602
  957MOL0     H29179  10.342   9.611   8.292 -1.2064 -2.3670  0.6262
  957MOL0     H29180  10.186   9.757   8.195 -2.8363 -1.3782 -0.1385
  957MOL0     H29181  11.077  10.369   8.190  2.9991  0.6142 -0.5913
  957MOL0     H29182  10.900  10.533   8.320 -1.3856  1.2142 -0.6563
  957MOL0     H29183  10.491  10.833   8.326 -0.4150  0.4202  0.3977
  957MOL0     H29184  10.396  11.050   8.406  1.4002 -1.2307  2.3749
  957MOL0     H29185  10.390  11.310   8.591 -0.9932 -0.6451 -0.9987
  957MOL0     H29186  10.447  11.145   8.617  1.8157  0.5014  1.9610
  957MOL0     H29187  10.680  11.223   8.678  0.8006  1.0417 -0.5304
  957MOL0     H29188  10.543  11.251   8.793 -1.4335 -1.5511 -1.6802
  957MOL0     H29189  10.665  11.455   8.596 -1.9199 -2.8202 -0.9431
  957MOL0     H29190  10.711  11.451   8.758  0.8862 -2.0474  0.2041
  957MOL0     H29191  10.473  11.462   8.824  3.8384  0.1768  1.8804
  957MOL0     H29192  10.427  11.511   8.657 -0.8370 -0.4289  0.7367
  957MOL0     H29193  10.639  11.849   8.801  3.2089 -0.3482  0.4969
  957MOL0     H29194  10.771  11.238   8.381 -0.6011 -0.2472  2.1056
  957MOL0     H29195  10.873  11.027   8.306 -0.3431 -0.4461 -1.5278
  958MOL0     O29196  11.001   6.225   2.158  0.4606  0.3318  0.5594
  958MOL0     C29197  10.973   6.294   2.255 -0.3512  0.1866  0.5172
  958MOL0     O29198  10.957   6.430   2.254  0.8875 -0.3298  0.3502
  958MOL0     C29199  10.997   6.488   2.137 -0.6075 -0.7069  0.0963
  958MOL0     C29200  10.904   6.571   2.076  0.3365  0.0770 -0.4605
  958MOL0     C29201  10.948   6.657   1.977 -0.0937 -0.4698 -0.3787
  958MOL0     C29202  11.080   6.653   1.921  0.5586  0.9057 -0.0412
  958MOL0     O29203  11.107   6.734   1.809  0.6426 -0.0716 -0.0313
  958MOL0     C29204  11.231   6.706   1.741  0.7504 -0.7235  0.6724
  958MOL0     C29205  11.236   6.795   1.616  0.0749 -0.3520 -0.0159
  958MOL0     C29206  11.359   6.776   1.525  0.3450 -0.1752  0.1743
  958MOL0     C29207  11.358   6.870   1.407 -0.2843 -0.7766  0.6933
  958MOL0     C29208  11.496   6.865   1.335  0.3858  0.2285  0.4742
  958MOL0     C29209  11.506   6.939   1.195  0.0442  0.9945  0.6620
  958MOL0     C29210  11.625   6.900   1.114  0.4698  0.6137 -0.3945
  958MOL0     C29211  11.622   6.970   0.980  0.1112  0.4315  0.6308
  958MOL0     N29212  11.747   6.968   0.913 -0.1978 -0.4664 -0.5628
  958MOL0     C29213  11.808   6.859   0.861 -0.3505 -0.3013  0.4109
  958MOL0     C29214  11.914   6.909   0.791 -1.2356  0.1834  0.5407
  958MOL0     C29215  12.011   6.826   0.719  0.2050  0.5787  0.1069
  958MOL0     C29216  11.986   6.823   0.571  1.0011 -0.2119 -0.5080
  958MOL0     C29217  12.091   6.735   0.503  0.9909  0.3141 -0.3098
  958MOL0     C29218  12.081   6.738   0.352  1.3618  0.2366 -0.1575
  958MOL0     O29219  12.197   6.668   0.304  0.0195 -0.6619 -0.2176
  958MOL0     C29220  12.175   6.533   0.264 -0.5385 -0.3877 -0.2428
  958MOL0     C29221  12.270   6.480   0.179 -0.1213 -0.1877  0.0958
  958MOL0     C29222  12.258   6.352   0.120 -0.4577  1.0748  0.0198
  958MOL0     C29223  12.347   6.316   0.001  0.2594 -0.3280 -0.2060
  958MOL0     C29224  12.159   6.259   0.178 -0.3192 -0.8633 -0.5899
  958MOL0     C29225  12.129   6.122   0.125  0.0392 -0.7227  0.6944
  958MOL0     O29226  12.224   6.070   0.044  0.7671 -0.5303  0.6330
  958MOL0     C29227  12.202   5.954  -0.036 -0.0263  0.0560  0.2893
  958MOL0     C29228  12.079   5.904  -0.077 -0.4889  0.1255 -0.1357
  958MOL0     C29229  12.080   5.784  -0.157  0.0634  0.0932  0.0121
  958MOL0     C29230  12.200   5.712  -0.178 -0.2416 -0.6255  0.3897
  958MOL0     O29231  12.201   5.600  -0.259 -0.7984 -0.4061  0.0266
  958MOL0     C29232  12.230   5.483  -0.173 -0.6082  0.0551  0.0857
  958MOL0     C29233  12.099   5.406  -0.135 -0.0729  0.7724 -0.2986
  958MOL0     C29234  12.020   5.353  -0.256 -0.8373 -0.5337 -0.9209
  958MOL0     C29235  11.876   5.308  -0.219 -0.3944  0.2471 -0.3540
  958MOL0     C29236  11.866   5.187  -0.115 -0.6112  0.3390  0.2662
  958MOL0     C29237  11.725   5.129  -0.115 -0.0471  0.2377  0.5485
  958MOL0     C29238  11.698   5.030  -0.003  0.3767 -0.0511 -0.2702
  958MOL0     C29239  11.579   4.932  -0.019 -0.3764  0.2686  0.7297
  958MOL0    Cl29240  11.430   5.028  -0.014 -0.2249 -0.2427 -0.0373
  958MOL0     C29241  12.317   5.765  -0.128  0.4776  0.7397  1.2664
  958MOL0     C29242  12.318   5.889  -0.061 -0.4659  0.5280 -1.1870
  958MOL0     O29243  12.019   6.070   0.146 -1.3469  0.1638 -0.0293
  958MOL0     C29244  12.074   6.308   0.273  0.6058  0.0693 -0.0881
  958MOL0     C29245  12.083   6.445   0.322 -0.2291  0.7346  0.5708
  958MOL0     N29246  11.916   7.044   0.804  0.4754 -0.8556 -0.5561
  958MOL0     N29247  11.806   7.077   0.863  0.0646 -0.7840  0.0567
  958MOL0     C29248  11.169   6.563   1.984 -0.5367  0.0101 -0.4804
  958MOL0     C29249  11.132   6.488   2.104  0.1466  0.4288 -0.1617
  958MOL0     C29250  10.949   6.231   2.383  0.3772 -0.0578  0.3407
  958MOL0     C29251  10.955   6.093   2.392  0.5678  0.7276 -0.2451
  958MOL0     C29252  10.931   6.020   2.514  0.3958  0.3327 -0.4053
  958MOL0     C29253  10.887   6.094   2.627 -1.1035 -0.6920 -0.7864
  958MOL0     O29254  10.844   6.040   2.743 -0.4992  0.1339  0.2237
  958MOL0     C29255  10.830   5.892   2.741 -0.3117 -0.0079 -0.3328
  958MOL0     C29256  10.796   5.834   2.883 -0.1018 -0.9269  0.1116
  958MOL0     C29257  10.650   5.878   2.910 -0.4577  0.4861 -0.4667
  958MOL0     C29258  10.608   5.863   3.056  0.3421  0.5169 -0.5314
  958MOL0     C29259  10.620   5.717   3.106 -0.7813 -0.2628 -0.0927
  958MOL0     C29260  10.614   5.597   3.139  0.9254 -0.8620 -0.3750
  958MOL0     C29261  10.881   6.232   2.618 -0.3919  0.7701 -0.7204
  958MOL0     C29262  10.900   6.293   2.496 -0.5371 -0.3166  0.5742
  958MOL0     H29263  10.806   6.594   2.117 -0.5194 -2.9265 -0.5904
  958MOL0     H29264  10.880   6.727   1.930 -0.6609 -1.2147 -0.6938
  958MOL0     H29265  11.319   6.733   1.799  1.9503  2.1308 -2.1779
  958MOL0     H29266  11.231   6.599   1.718 -1.3251 -0.1921 -2.4829
  958MOL0     H29267  11.144   6.774   1.562  0.5307  1.8116 -1.7596
  958MOL0     H29268  11.232   6.893   1.663 -1.6041 -1.4640  2.4028
  958MOL0     H29269  11.442   6.798   1.593 -0.2618  0.0608  0.8569
  958MOL0     H29270  11.361   6.671   1.495 -0.0597 -0.6037  1.5445
  958MOL0     H29271  11.276   6.843   1.340 -1.8788  3.6731  0.5229
  958MOL0     H29272  11.351   6.977   1.429  0.2515 -0.0467 -2.1827
  958MOL0     H29273  11.563   6.911   1.408 -3.5462  1.5580  3.6187
  958MOL0     H29274  11.518   6.761   1.311 -1.2416 -0.2991  1.1183
  958MOL0     H29275  11.418   6.923   1.133  1.6486 -2.0523 -1.0796
  958MOL0     H29276  11.516   7.043   1.226  0.5724  1.4807 -1.0662
  958MOL0     H29277  11.720   6.920   1.165  0.4390  0.4598 -0.2731
  958MOL0     H29278  11.630   6.794   1.086 -3.2182  1.1673 -4.0724
  958MOL0     H29279  11.602   7.075   1.005 -0.3026  0.4162  0.3740
  958MOL0     H29280  11.537   6.947   0.915 -0.9011  2.3629  1.1789
  958MOL0     H29281  11.777   6.757   0.883 -0.5252 -0.2419  0.4446
  958MOL0     H29282  12.108   6.877   0.726  0.2987  0.3081  0.9113
  958MOL0     H29283  12.029   6.730   0.768  2.0327  2.4906  3.5546
  958MOL0     H29284  11.972   6.919   0.520 -0.2761 -0.9852 -1.7041
  958MOL0     H29285  11.892   6.768   0.559  1.5215 -1.0811 -0.6883
  958MOL0     H29286  12.073   6.634   0.541 -0.3730  1.3136  1.8996
  958MOL0     H29287  12.192   6.754   0.540  0.5628  0.0788  1.0490
  958MOL0     H29288  12.085   6.842   0.319  0.1541  0.2051 -0.4174
  958MOL0     H29289  11.991   6.691   0.312  0.1950 -0.1476  2.6619
  958MOL0     H29290  12.342   6.557   0.152 -0.1964 -0.5663 -1.2934
  958MOL0     H29291  12.412   6.237   0.038  0.5217 -0.3451 -0.6900
  958MOL0     H29292  12.290   6.270  -0.081  3.7272 -1.4499 -2.1836
  958MOL0     H29293  12.400   6.405  -0.036  0.7443 -0.8834 -0.8636
  958MOL0     H29294  11.979   5.942  -0.056  0.4083  3.1443 -0.7472
  958MOL0     H29295  11.994   5.724  -0.187 -2.1697  2.9440  0.2551
  958MOL0     H29296  12.286   5.417  -0.240 -2.6730 -3.7232  1.7354
  958MOL0     H29297  12.286   5.505  -0.082  1.0386  0.1120 -0.8980
  958MOL0     H29298  12.114   5.314  -0.079 -0.9266 -0.6771 -2.3149
  958MOL0     H29299  12.032   5.472  -0.080  1.7567  0.8469  2.0002
  958MOL0     H29300  12.067   5.265  -0.302 -0.0514 -1.0005  0.6868
  958MOL0     H29301  12.025   5.440  -0.322  3.7458  0.6109  0.6006
  958MOL0     H29302  11.815   5.388  -0.177  0.0120  0.3922 -0.0369
  958MOL0     H29303  11.820   5.285  -0.310  0.1215  1.9912 -1.1497
  958MOL0     H29304  11.902   5.213  -0.016 -1.5869  2.3733  0.1614
  958MOL0     H29305  11.933   5.108  -0.148 -1.7343 -1.7479  2.7034
  958MOL0     H29306  11.644   5.202  -0.121 -3.2162 -3.0232 -0.0283
  958MOL0     H29307  11.712   5.074  -0.209 -0.4331  1.0840  0.0956
  958MOL0     H29308  11.677   5.089   0.087  1.5619 -0.3666  0.2301
  958MOL0     H29309  11.787   4.970   0.019  0.1199 -0.1598  0.5122
  958MOL0     H29310  11.565   4.862   0.064  1.4020 -1.4077 -0.2816
  958MOL0     H29311  11.597   4.864  -0.103  1.8805 -1.4084  2.4312
  958MOL0     H29312  12.411   5.711  -0.142  0.3327  0.3311  1.8521
  958MOL0     H29313  12.408   5.926  -0.014 -1.4347  1.0629  0.3293
  958MOL0     H29314  11.994   6.251   0.321  0.7107  1.9280  2.5023
  958MOL0     H29315  11.994   6.476   0.375 -3.7409 -1.8455 -3.1635
  958MOL0     H29316  11.272   6.558   1.951 -1.5930 -0.6057 -4.0805
  958MOL0     H29317  11.205   6.442   2.170 -2.1526  1.9898  3.7528
  958MOL0     H29318  10.971   6.024   2.309  0.2461 -3.2804  2.7237
  958MOL0     H29319  10.939   5.913   2.495 -1.6335  0.3318 -1.6221
  958MOL0     H29320  10.740   5.869   2.684  0.1443 -2.9666 -0.0169
  958MOL0     H29321  10.915   5.839   2.698  0.1431 -0.4180  1.0277
  958MOL0     H29322  10.864   5.883   2.953  2.1372  0.3694 -2.7691
  958MOL0     H29323  10.816   5.728   2.898 -0.0142 -0.9001  0.1814
  958MOL0     H29324  10.587   5.802   2.865  0.1892 -0.3206 -0.0431
  958MOL0     H29325  10.616   5.975   2.873 -2.1158  0.4896  0.9361
  958MOL0     H29326  10.505   5.897   3.071  0.5770  0.8397  0.3816
  958MOL0     H29327  10.675   5.927   3.114 -1.6312  3.4040 -1.2593
  958MOL0     H29328  10.617   5.499   3.183 -1.4729 -0.9152 -0.1980
  958MOL0     H29329  10.846   6.276   2.711 -2.3756 -3.5570  0.8275
  958MOL0     H29330  10.873   6.398   2.487 -4.4169 -1.0759  1.3474
  959MOL0     O29331   3.773   8.162   0.527 -0.8635  0.8920  0.2468
  959MOL0     C29332   3.790   8.282   0.548 -0.3152  0.0007  1.1955
  959MOL0     O29333   3.881   8.362   0.473 -1.2508 -0.5948  0.2241
  959MOL0     C29334   3.939   8.337   0.352  0.7957  0.5786 -0.0722
  959MOL0     C29335   4.028   8.423   0.290 -0.8493  0.7491 -0.4147
  959MOL0     C29336   4.082   8.397   0.163 -0.0906 -0.7017  0.3552
  959MOL0     C29337   4.038   8.291   0.083 -0.0318  0.8497 -0.7794
  959MOL0     O29338   4.101   8.263  -0.036  0.2677  0.4447 -0.0227
  959MOL0     C29339   4.052   8.163  -0.128  1.1319 -0.2856 -0.4241
  959MOL0     C29340   4.074   8.221  -0.270 -0.7379  0.8145 -0.1941
  959MOL0     C29341   3.979   8.331  -0.298 -0.9604  0.2659  0.3160
  959MOL0     C29342   4.003   8.364  -0.441  1.4799  0.2121  0.6947
  959MOL0     C29343   3.899   8.290  -0.531  0.8844  0.9257  0.3429
  959MOL0     C29344   3.747   8.336  -0.516 -0.7961  0.3900 -0.4544
  959MOL0     C29345   3.725   8.490  -0.511 -1.0594 -0.8692 -0.0901
  959MOL0     C29346   3.579   8.527  -0.487 -0.1388  0.5524  1.2759
  959MOL0     N29347   3.527   8.464  -0.362  0.0030 -0.3062 -0.1345
  959MOL0     C29348   3.582   8.454  -0.232 -0.8673  0.3937  0.5031
  959MOL0     C29349   3.505   8.378  -0.163  0.5722  0.2222 -0.0641
  959MOL0     C29350   3.508   8.334  -0.024  0.2566  0.4652  0.5971
  959MOL0     C29351   3.498   8.185   0.014 -0.4408 -0.0003  0.3687
  959MOL0     C29352   3.607   8.093  -0.040 -0.9276 -0.1199  0.6788
  959MOL0     C29353   3.597   8.069  -0.192 -0.4238 -0.1314 -0.0143
  959MOL0     O29354   3.696   7.966  -0.220  0.3492  0.2965 -0.2198
  959MOL0     C29355   3.748   7.940  -0.342  0.5814  0.1168  0.7725
  959MOL0     C29356   3.890   7.907  -0.341  0.3214  0.2843 -0.1077
  959MOL0     C29357   3.961   7.877  -0.465  0.4795  0.0095 -0.3156
  959MOL0     C29358   4.102   7.820  -0.447 -0.9955 -0.3717 -0.7512
  959MOL0     C29359   3.879   7.877  -0.582  0.0764 -0.8703 -0.1475
  959MOL0     C29360   3.939   7.841  -0.715  0.3852 -0.4696 -0.2897
  959MOL0     O29361   4.045   7.757  -0.717  0.1629  0.0398  0.4368
  959MOL0     C29362   4.090   7.723  -0.841 -0.4328  1.3921  0.4073
  959MOL0     C29363   4.180   7.805  -0.907  0.6361 -0.7200 -0.7475
  959MOL0     C29364   4.236   7.773  -1.031  0.1317 -0.4263 -0.3557
  959MOL0     C29365   4.197   7.660  -1.105  0.2351  0.4358 -0.1948
  959MOL0     O29366   4.249   7.620  -1.221  0.1995  0.0838  0.3233
  959MOL0     C29367   4.388   7.639  -1.246  0.1099  1.0510  0.2479
  959MOL0     C29368   4.427   7.586  -1.395  0.2188  0.1942 -0.0844
  959MOL0     C29369   4.339   7.653  -1.505 -0.2873 -0.8701  0.5116
  959MOL0     C29370   4.334   7.806  -1.529 -0.1084  0.3544  0.5274
  959MOL0     C29371   4.466   7.863  -1.587  0.5561 -0.9166 -0.1615
  959MOL0     C29372   4.475   8.016  -1.582 -0.1409 -0.3651  0.4715
  959MOL0     C29373   4.347   8.091  -1.647  0.1337 -0.0299  0.2704
  959MOL0     C29374   4.380   8.238  -1.660 -0.0621 -0.2727  1.0413
  959MOL0    Cl29375   4.482   8.263  -1.799  0.5259 -0.9739  0.1335
  959MOL0     C29376   4.094   7.578  -1.049 -0.1354  0.3445  0.5415
  959MOL0     C29377   4.045   7.610  -0.925  0.2134 -1.4202 -0.5656
  959MOL0     O29378   3.870   7.876  -0.813  0.0573  0.8200  0.0737
  959MOL0     C29379   3.747   7.933  -0.581 -0.8516  0.6180  0.1846
  959MOL0     C29380   3.681   7.962  -0.464 -1.0570  0.1680  0.3877
  959MOL0     N29381   3.388   8.354  -0.239 -0.1988 -0.4529  0.2057
  959MOL0     N29382   3.410   8.398  -0.361 -0.3107 -0.7740  0.1254
  959MOL0     C29383   3.956   8.198   0.151  1.1716 -0.0966  0.2907
  959MOL0     C29384   3.890   8.232   0.269  0.4987 -0.0049 -0.2914
  959MOL0     C29385   3.746   8.360   0.665 -0.9097 -0.6388 -0.3921
  959MOL0     C29386   3.761   8.504   0.676  0.2376  0.5769  0.2616
  959MOL0     C29387   3.727   8.567   0.792  0.1308 -0.1614 -0.0952
  959MOL0     C29388   3.697   8.487   0.909 -0.0791  0.0272  0.1078
  959MOL0     O29389   3.675   8.553   1.022  0.1856  0.2691 -0.4658
  959MOL0     C29390   3.780   8.547   1.124  0.0578  0.1917  0.3369
  959MOL0     C29391   3.896   8.651   1.101  0.0882 -0.3170 -0.1319
  959MOL0     C29392   3.827   8.796   1.091  0.0271 -0.0483  0.4418
  959MOL0     C29393   3.947   8.889   1.070 -0.3113 -0.4080  0.2641
  959MOL0     C29394   4.004   8.883   0.933  0.1850 -0.6911 -0.5200
  959MOL0     C29395   4.048   8.880   0.819  0.2102  0.1028  0.1610
  959MOL0     C29396   3.677   8.352   0.897  0.1592 -0.8430 -0.0623
  959MOL0     C29397   3.703   8.290   0.776  0.1802 -0.0001  0.0647
  959MOL0     H29398   4.054   8.512   0.346  1.9515 -0.6411  0.6945
  959MOL0     H29399   4.158   8.471   0.137 -0.3835 -0.4288  0.2694
  959MOL0     H29400   4.112   8.072  -0.115  1.9387  0.1632 -0.8842
  959MOL0     H29401   3.945   8.144  -0.115  0.9477  0.8325 -0.2357
  959MOL0     H29402   4.172   8.269  -0.261 -0.7736  0.6748  1.1563
  959MOL0     H29403   4.072   8.148  -0.352  2.5735  1.2625 -0.8169
  959MOL0     H29404   3.878   8.295  -0.277 -0.7322 -2.5245 -2.5905
  959MOL0     H29405   4.002   8.417  -0.234 -1.3849 -0.0701  0.9285
  959MOL0     H29406   3.995   8.472  -0.454 -0.5231 -0.0152 -0.4653
  959MOL0     H29407   4.101   8.331  -0.476  0.7277 -2.1415  0.6294
  959MOL0     H29408   3.943   8.314  -0.628  4.0528  3.4001  2.1769
  959MOL0     H29409   3.906   8.183  -0.509  1.2423  0.8129 -0.2956
  959MOL0     H29410   3.689   8.289  -0.596  1.5862  1.0581 -2.7349
  959MOL0     H29411   3.715   8.294  -0.420 -0.2418  0.2203 -0.3399
  959MOL0     H29412   3.776   8.536  -0.425 -3.4935  1.4071  0.2802
  959MOL0     H29413   3.762   8.538  -0.601 -4.2943 -2.7932 -2.6607
  959MOL0     H29414   3.529   8.486  -0.575 -0.5378  0.2894  1.6205
  959MOL0     H29415   3.564   8.635  -0.477 -2.1942  0.2142  2.4338
  959MOL0     H29416   3.681   8.479  -0.198  0.3883  0.1422 -2.6224
  959MOL0     H29417   3.593   8.372   0.033  1.5754 -1.3489 -0.0817
  959MOL0     H29418   3.418   8.376   0.022  1.4012  0.9143  2.5425
  959MOL0     H29419   3.399   8.146  -0.011 -0.3338  0.0292 -0.1240
  959MOL0     H29420   3.503   8.185   0.123  0.9412 -0.3272  0.3292
  959MOL0     H29421   3.609   8.001   0.019 -0.3538  2.4329  5.1436
  959MOL0     H29422   3.702   8.140  -0.013 -1.3217  1.3726 -0.3949
  959MOL0     H29423   3.615   8.152  -0.260  0.3908 -0.0005  0.3556
  959MOL0     H29424   3.495   8.031  -0.208 -0.0508 -1.0950 -0.1403
  959MOL0     H29425   3.954   7.912  -0.253  2.8337 -0.7036 -1.7772
  959MOL0     H29426   4.092   7.716  -0.481  0.6218 -0.1520 -2.0247
  959MOL0     H29427   4.184   7.860  -0.507 -1.8335 -0.0377 -1.7020
  959MOL0     H29428   4.129   7.827  -0.341  0.1731 -1.3672 -0.9697
  959MOL0     H29429   4.215   7.896  -0.860 -2.2666  2.3945 -4.0701
  959MOL0     H29430   4.325   7.827  -1.059 -0.0847 -0.4167 -1.0404
  959MOL0     H29431   4.408   7.746  -1.247 -3.1302  1.7468 -0.1860
  959MOL0     H29432   4.458   7.591  -1.177  1.6265 -2.3106 -3.2329
  959MOL0     H29433   4.532   7.613  -1.406  0.2307  0.2925  0.2545
  959MOL0     H29434   4.426   7.477  -1.407 -0.7111  0.2071 -0.1392
  959MOL0     H29435   4.236   7.634  -1.471  0.5143 -5.1786  1.1021
  959MOL0     H29436   4.358   7.596  -1.596  2.0888 -0.2641  0.5800
  959MOL0     H29437   4.257   7.826  -1.604 -1.0886 -1.0158  1.1367
  959MOL0     H29438   4.302   7.854  -1.436  2.6575  2.4258  0.5495
  959MOL0     H29439   4.472   7.845  -1.694  1.0068  4.8814 -1.4861
  959MOL0     H29440   4.543   7.811  -1.528 -1.2574 -1.1495  2.1434
  959MOL0     H29441   4.502   8.053  -1.483 -2.0621  1.6885  0.3023
  959MOL0     H29442   4.557   8.053  -1.644 -0.6848  1.6747  0.8869
  959MOL0     H29443   4.256   8.071  -1.590  0.8796 -1.5091  1.0385
  959MOL0     H29444   4.330   8.048  -1.746  1.8499 -0.1082 -0.0345
  959MOL0     H29445   4.436   8.266  -1.570  0.3971 -2.3879  1.4794
  959MOL0     H29446   4.290   8.296  -1.680 -0.5294 -2.2289 -4.0656
  959MOL0     H29447   4.071   7.489  -1.107 -0.1495  0.3673  0.5111
  959MOL0     H29448   3.972   7.553  -0.867 -0.0550  1.2981  2.0384
  959MOL0     H29449   3.683   7.931  -0.669 -1.5497 -0.3545  0.7097
  959MOL0     H29450   3.583   8.009  -0.453 -0.3384  1.5633  1.1931
  959MOL0     H29451   3.931   8.103   0.106 -1.5779 -1.4608  4.1713
  959MOL0     H29452   3.817   8.157   0.296  2.3462 -1.6931  0.2725
  959MOL0     H29453   3.791   8.561   0.588  0.9805 -0.9248 -0.4929
  959MOL0     H29454   3.738   8.675   0.792  0.0045 -0.1448 -0.6846
  959MOL0     H29455   3.744   8.559   1.227 -1.9097 -1.7816 -0.0596
  959MOL0     H29456   3.818   8.444   1.127 -0.4430  0.0139  2.4650
  959MOL0     H29457   3.969   8.622   1.024  1.8182 -3.9682  2.5672
  959MOL0     H29458   3.957   8.649   1.192 -3.1472 -1.4102  2.2005
  959MOL0     H29459   3.776   8.827   1.183  0.2770  1.6548  0.0462
  959MOL0     H29460   3.757   8.796   1.007  0.6252  0.6862 -0.0720
  959MOL0     H29461   4.015   8.860   1.151 -1.3831  0.0480  1.3625
  959MOL0     H29462   3.925   8.994   1.088  1.6208 -0.0022  0.4887
  959MOL0     H29463   4.087   8.865   0.720  1.8805  0.6861  0.6961
  959MOL0     H29464   3.630   8.294   0.975 -1.8559  3.0575  1.8996
  959MOL0     H29465   3.692   8.182   0.771  0.6650 -0.2963  3.4054
  960MOL0     O29466   2.030   5.667   9.569  1.2804 -0.7356  0.4506
  960MOL0     C29467   2.130   5.653   9.501 -0.0484 -0.7886  1.0400
  960MOL0     O29468   2.145   5.689   9.369 -0.6277  0.1026  0.1719
  960MOL0     C29469   2.035   5.735   9.305  0.2767  0.3280  0.4346
  960MOL0     C29470   2.004   5.866   9.296 -0.5468  0.0131  0.0890
  960MOL0     C29471   1.886   5.908   9.240  0.3872 -0.1899 -0.0684
  960MOL0     C29472   1.798   5.820   9.172  0.1375 -0.5546 -0.3837
  960MOL0     O29473   1.687   5.868   9.111 -0.4962 -0.5428  0.6915
  960MOL0     C29474   1.600   5.772   9.044  0.1768  0.2799  0.2687
  960MOL0     C29475   1.501   5.849   8.951  0.3665 -0.0788  0.0157
  960MOL0     C29476   1.455   5.983   8.999 -1.1243 -0.7922 -0.2432
  960MOL0     C29477   1.352   6.034   8.897  0.6174  0.5469 -0.3960
  960MOL0     C29478   1.219   5.959   8.877 -0.0824  0.3510  0.0803
  960MOL0     C29479   1.136   6.003   8.755 -0.4265  0.2482 -0.0548
  960MOL0     C29480   0.995   5.944   8.743  0.1920  0.5815  0.5822
  960MOL0     C29481   1.004   5.796   8.689  0.1616 -0.4566 -1.0287
  960MOL0     N29482   1.085   5.759   8.575  0.1365  0.3069  0.5015
  960MOL0     C29483   1.072   5.812   8.456  0.2812 -0.5966 -0.3637
  960MOL0     C29484   1.160   5.738   8.376 -0.1153 -0.7740 -0.7218
  960MOL0     C29485   1.190   5.765   8.236 -0.8363  0.0721  0.6342
  960MOL0     C29486   1.069   5.731   8.148 -0.8936  0.2317  0.1384
  960MOL0     C29487   1.104   5.736   7.999 -0.4387  0.4872 -0.5294
  960MOL0     C29488   1.168   5.601   7.960 -0.3352 -0.5561 -0.0979
  960MOL0     O29489   1.069   5.500   7.976 -1.1144  0.5910 -0.2050
  960MOL0     C29490   1.081   5.381   7.905 -0.6661 -0.1417  0.0665
  960MOL0     C29491   1.164   5.282   7.950 -0.1857  0.0591  0.2738
  960MOL0     C29492   1.178   5.160   7.878 -0.8569  0.6314  0.0622
  960MOL0     C29493   1.274   5.055   7.935  0.1542  0.1724  0.1807
  960MOL0     C29494   1.103   5.132   7.768  0.1911  0.0998  0.2294
  960MOL0     C29495   1.110   5.010   7.677  1.1697 -0.4855 -0.8852
  960MOL0     O29496   1.009   4.995   7.575 -0.0222  0.4368  0.1669
  960MOL0     C29497   1.002   4.887   7.490 -0.8261 -0.0722 -0.7362
  960MOL0     C29498   1.049   4.757   7.524 -0.7553 -0.4878 -1.0530
  960MOL0     C29499   1.033   4.649   7.427 -0.3242 -0.1441 -0.6091
  960MOL0     C29500   0.968   4.662   7.312 -0.4403  0.6517  0.1916
  960MOL0     O29501   0.954   4.552   7.231 -0.4119  1.2397  0.6343
  960MOL0     C29502   0.903   4.567   7.098 -0.1670  0.1062 -0.2960
  960MOL0     C29503   0.797   4.454   7.058 -0.7425 -0.3078 -0.8665
  960MOL0     C29504   0.863   4.326   7.004  0.2401  0.4425 -0.0551
  960MOL0     C29505   0.875   4.314   6.845 -0.0239  0.2030  0.1209
  960MOL0     C29506   1.011   4.378   6.802 -0.2561 -0.5984 -0.9991
  960MOL0     C29507   1.031   4.384   6.645  0.5134 -0.0772  0.4075
  960MOL0     C29508   1.027   4.251   6.575 -0.3852  0.4518  0.5995
  960MOL0     C29509   1.089   4.257   6.429  2.1111 -0.5542 -0.2688
  960MOL0    Cl29510   0.979   4.303   6.292  0.1048 -0.1959 -0.7743
  960MOL0     C29511   0.906   4.785   7.291 -0.1287  0.0489  0.4178
  960MOL0     C29512   0.933   4.893   7.374 -0.1202  0.1306 -0.0633
  960MOL0     O29513   1.210   4.953   7.681  0.1669 -0.8938  0.8589
  960MOL0     C29514   1.012   5.232   7.725 -0.6853 -0.1396 -0.8333
  960MOL0     C29515   0.994   5.357   7.797  0.1352  0.1915 -0.0058
  960MOL0     N29516   1.231   5.653   8.462  0.4265  0.9607 -0.1655
  960MOL0     N29517   1.171   5.650   8.572  0.0833  0.3688 -0.2611
  960MOL0     C29518   1.844   5.692   9.166  0.2107  0.0322 -0.5514
  960MOL0     C29519   1.961   5.644   9.230  0.3596 -0.4479  0.5826
  960MOL0     C29520   2.251   5.597   9.566  0.3727 -0.7397  0.6008
  960MOL0     C29521   2.357   5.545   9.485  0.2071  0.5120 -0.0913
  960MOL0     C29522   2.459   5.469   9.542  0.5271  0.7628 -0.3809
  960MOL0     C29523   2.466   5.457   9.685 -0.7060 -0.5746  0.7185
  960MOL0     O29524   2.556   5.384   9.744  0.3068 -0.3721 -0.4442
  960MOL0     C29525   2.601   5.414   9.882 -0.3952  0.1088  0.4701
  960MOL0     C29526   2.756   5.427   9.888 -1.3011  0.3439 -0.6433
  960MOL0     C29527   2.794   5.572   9.857 -0.3042  0.2364 -0.0290
  960MOL0     C29528   2.935   5.599   9.851  0.3169 -0.2116 -1.2511
  960MOL0     C29529   2.998   5.609   9.989  0.3554  0.0523  1.0009
  960MOL0     C29530   3.035   5.606  10.103  0.1626  0.0571  1.0856
  960MOL0     C29531   2.358   5.516   9.756 -0.7029 -0.3949 -0.7105
  960MOL0     C29532   2.258   5.591   9.704 -0.4042  0.0771 -0.0078
  960MOL0     H29533   2.083   5.938   9.315 -1.5597  1.4393 -0.8868
  960MOL0     H29534   1.866   6.014   9.229 -0.4755 -0.2020  1.1391
  960MOL0     H29535   1.649   5.696   8.982 -2.2942 -0.4457 -0.9442
  960MOL0     H29536   1.549   5.713   9.122 -2.3587  0.3111 -1.2425
  960MOL0     H29537   1.540   5.861   8.849  0.7620 -0.8812  0.0663
  960MOL0     H29538   1.416   5.782   8.932  1.6428 -1.0491 -2.8543
  960MOL0     H29539   1.403   5.960   9.093  0.7901  3.3200  2.1021
  960MOL0     H29540   1.537   6.048   9.031 -1.1921 -1.1010  0.5672
  960MOL0     H29541   1.312   6.127   8.940 -0.5061 -0.6077  1.1720
  960MOL0     H29542   1.407   6.049   8.803  2.7726  2.2724  1.0199
  960MOL0     H29543   1.238   5.853   8.856 -0.9665  0.0496  0.7398
  960MOL0     H29544   1.166   5.967   8.972  1.0117 -3.5763  1.2133
  960MOL0     H29545   1.132   6.112   8.747 -0.0949  0.1434 -5.1840
  960MOL0     H29546   1.199   5.971   8.672 -0.1110 -1.3965  0.7736
  960MOL0     H29547   0.940   5.941   8.837 -2.1458 -1.4024 -0.7246
  960MOL0     H29548   0.935   5.998   8.669 -1.8651 -1.7079  0.4576
  960MOL0     H29549   0.900   5.772   8.665 -0.3892  0.4026  0.3775
  960MOL0     H29550   1.040   5.733   8.771 -3.8540  0.8749  2.1363
  960MOL0     H29551   1.002   5.879   8.407  0.3419 -2.7243 -3.7418
  960MOL0     H29552   1.221   5.869   8.222  3.5938 -1.0656  0.4018
  960MOL0     H29553   1.275   5.710   8.196 -1.7331  0.4901 -2.0427
  960MOL0     H29554   0.993   5.807   8.169 -0.0590  0.7197  1.4911
  960MOL0     H29555   1.025   5.635   8.174  0.9987 -0.2903  1.6571
  960MOL0     H29556   1.171   5.817   7.968  0.8072 -0.3419 -0.0781
  960MOL0     H29557   1.006   5.744   7.952 -0.3006 -2.3070 -1.4559
  960MOL0     H29558   1.259   5.574   8.014  1.4135  0.6860 -2.2388
  960MOL0     H29559   1.200   5.610   7.856  0.6621  0.3456  0.2643
  960MOL0     H29560   1.236   5.296   8.030  0.6063 -3.6614  0.3953
  960MOL0     H29561   1.220   4.963   7.956  2.2771 -0.8043  1.7238
  960MOL0     H29562   1.355   5.028   7.867  2.8263  3.1813  1.8723
  960MOL0     H29563   1.311   5.100   8.028  1.0043  2.6321 -1.2309
  960MOL0     H29564   1.096   4.737   7.619 -1.3697  0.3015 -0.5694
  960MOL0     H29565   1.076   4.550   7.436 -2.5975 -1.0526  1.5325
  960MOL0     H29566   0.856   4.663   7.074  0.9933  1.1572  1.4235
  960MOL0     H29567   0.990   4.569   7.031 -0.0457  3.6208 -0.2437
  960MOL0     H29568   0.744   4.429   7.151  0.1967  0.8184 -0.0009
  960MOL0     H29569   0.727   4.494   6.984 -2.7206 -0.9284  0.5689
  960MOL0     H29570   0.824   4.228   7.036 -0.5997  0.0965 -1.9570
  960MOL0     H29571   0.965   4.310   7.038  0.2856  2.1277  0.6578
  960MOL0     H29572   0.874   4.209   6.816  2.3499  0.4302 -0.9681
  960MOL0     H29573   0.788   4.362   6.799 -1.7369 -2.0837  0.7788
  960MOL0     H29574   1.100   4.336   6.850 -2.4853 -1.3499  2.8855
  960MOL0     H29575   1.001   4.481   6.835 -2.1598 -0.8858 -0.5459
  960MOL0     H29576   0.952   4.445   6.602  0.0256 -1.8009 -1.3014
  960MOL0     H29577   1.127   4.433   6.626  1.0169 -1.2329 -0.1552
  960MOL0     H29578   0.932   4.196   6.582 -0.7038  0.8842 -0.2505
  960MOL0     H29579   1.091   4.181   6.630  1.2301 -0.9738 -2.8285
  960MOL0     H29580   1.124   4.155   6.417  0.1927 -1.5758  1.9929
  960MOL0     H29581   1.175   4.324   6.422  1.8424 -0.2178 -0.3865
  960MOL0     H29582   0.835   4.818   7.215 -0.1121  2.2615  1.2783
  960MOL0     H29583   0.891   4.989   7.343 -1.0097  0.1591  1.1794
  960MOL0     H29584   0.950   5.218   7.638 -1.7766 -1.4765  0.1197
  960MOL0     H29585   0.938   5.449   7.784  3.1635  2.8408  3.5207
  960MOL0     H29586   1.792   5.609   9.121  1.4414 -1.3965  0.5698
  960MOL0     H29587   1.969   5.536   9.238 -2.7704 -0.7965  0.2408
  960MOL0     H29588   2.373   5.554   9.378  1.1504  1.6321  0.1320
  960MOL0     H29589   2.532   5.427   9.473  0.2455 -0.2915 -0.0643
  960MOL0     H29590   2.554   5.506   9.920  2.2323 -0.6609  6.7933
  960MOL0     H29591   2.576   5.327   9.943  0.8459 -0.6447 -0.0673
  960MOL0     H29592   2.813   5.363   9.821  0.5043  0.7394  0.4381
  960MOL0     H29593   2.792   5.399   9.987 -1.1970 -2.2172 -1.3365
  960MOL0     H29594   2.759   5.641   9.935 -1.5164  0.8728 -1.0960
  960MOL0     H29595   2.744   5.588   9.762  0.7820  0.9957 -0.4986
  960MOL0     H29596   2.966   5.693   9.805 -0.9574  2.3331  2.6241
  960MOL0     H29597   2.991   5.515   9.809  1.4095  0.0365 -0.3601
  960MOL0     H29598   3.061   5.612  10.207  0.3298  0.9924  0.9951
  960MOL0     H29599   2.359   5.502   9.864 -2.3955  0.8847 -0.4765
  960MOL0     H29600   2.190   5.647   9.768 -1.0584  1.6695 -1.9696
  961MOL0     O29601   4.334  10.486   6.562 -0.5551 -0.5199  0.7266
  961MOL0     C29602   4.276  10.464   6.450 -0.7099 -0.4808 -1.0735
  961MOL0     O29603   4.155  10.524   6.405 -1.3647  0.2233 -0.3794
  961MOL0     C29604   4.075  10.610   6.473  0.3087 -0.2070  1.0889
  961MOL0     C29605   4.054  10.606   6.608  0.1593 -0.7504 -0.0563
  961MOL0     C29606   3.976  10.708   6.664 -0.6771  0.0045 -0.7600
  961MOL0     C29607   3.903  10.802   6.592 -0.1717  0.1298  0.4540
  961MOL0     O29608   3.817  10.896   6.641 -0.7150 -0.4107  0.2722
  961MOL0     C29609   3.820  10.931   6.781 -0.4627  0.8699  0.0446
  961MOL0     C29610   3.716  11.040   6.808  0.5955  0.4266 -0.3749
  961MOL0     C29611   3.746  11.165   6.724  0.1749  0.1938 -0.6327
  961MOL0     C29612   3.622  11.247   6.706  0.1036  0.6761 -0.4427
  961MOL0     C29613   3.646  11.393   6.643 -0.6751  0.3335 -0.0327
  961MOL0     C29614   3.514  11.461   6.592 -0.1258  0.3564  0.1786
  961MOL0     C29615   3.475  11.412   6.448 -1.1295 -0.2029 -0.3468
  961MOL0     C29616   3.574  11.470   6.341  0.3977 -0.3562  0.2014
  961MOL0     N29617   3.520  11.465   6.206 -0.3003 -0.2663 -0.4389
  961MOL0     C29618   3.418  11.543   6.157 -0.3271 -0.1269 -0.0294
  961MOL0     C29619   3.371  11.471   6.055 -0.1242  0.0592  0.4955
  961MOL0     C29620   3.251  11.505   5.964  0.3778 -0.1190 -0.1641
  961MOL0     C29621   3.289  11.563   5.825 -0.5841 -0.9446  0.6496
  961MOL0     C29622   3.410  11.498   5.756 -1.0902 -0.1463  0.2684
  961MOL0     C29623   3.415  11.554   5.609  0.9784 -0.1875  0.7794
  961MOL0     O29624   3.514  11.659   5.599 -0.4369 -0.0438 -0.3096
  961MOL0     C29625   3.641  11.618   5.585  0.1723  0.2819  0.0739
  961MOL0     C29626   3.729  11.722   5.588  0.7320  0.4084  0.6967
  961MOL0     C29627   3.866  11.702   5.579  0.8724 -0.2081  0.9466
  961MOL0     C29628   3.944  11.827   5.565  0.4161 -0.4792 -0.5445
  961MOL0     C29629   3.915  11.565   5.584  0.6908 -1.3804  0.6577
  961MOL0     C29630   4.060  11.535   5.585 -0.7349  0.0190 -0.1389
  961MOL0     O29631   4.098  11.413   5.535 -0.3564 -0.1037 -0.0611
  961MOL0     C29632   4.225  11.364   5.553 -0.5352 -0.6666  0.5057
  961MOL0     C29633   4.295  11.368   5.677  0.2550 -0.3788 -0.9899
  961MOL0     C29634   4.421  11.336   5.692  0.2058  0.2495  0.7658
  961MOL0     C29635   4.491  11.277   5.589  0.8781  0.6655  0.3978
  961MOL0     O29636   4.620  11.251   5.593 -0.2031  0.2214 -0.1857
  961MOL0     C29637   4.668  11.158   5.691  0.3360 -0.0217  0.1867
  961MOL0     C29638   4.800  11.191   5.769 -0.4038  0.1933 -0.3202
  961MOL0     C29639   4.845  11.074   5.857  0.0130  0.4311  0.6346
  961MOL0     C29640   4.917  11.129   5.979  0.0406  0.4894  0.2871
  961MOL0     C29641   5.058  11.182   5.939 -0.0567 -0.8370 -0.1161
  961MOL0     C29642   5.146  11.195   6.064 -0.2289  0.9191 -0.0294
  961MOL0     C29643   5.296  11.172   6.040  0.8181 -0.1405  0.2253
  961MOL0     C29644   5.373  11.232   6.152 -0.3306 -0.5651 -0.6339
  961MOL0    Cl29645   5.354  11.400   6.131  0.0532 -0.2817  0.0395
  961MOL0     C29646   4.426  11.264   5.465  0.3586  0.3625 -0.1601
  961MOL0     C29647   4.292  11.308   5.442  0.5413 -0.3912 -0.3704
  961MOL0     O29648   4.144  11.618   5.620  0.7993 -0.0205 -0.1267
  961MOL0     C29649   3.822  11.456   5.560  0.2473 -0.0963 -0.2361
  961MOL0     C29650   3.691  11.490   5.570  0.9144  0.0341  0.9653
  961MOL0     N29651   3.450  11.360   6.041  0.9521  0.2445 -0.6985
  961MOL0     N29652   3.535  11.357   6.132  0.2613 -0.7336  0.7263
  961MOL0     C29653   3.912  10.797   6.458 -0.6040  0.1826  0.1204
  961MOL0     C29654   3.998  10.701   6.396  0.0735  1.1219  0.1920
  961MOL0     C29655   4.344  10.371   6.371  0.1721 -0.5797 -0.0578
  961MOL0     C29656   4.308  10.361   6.232  0.4856  0.4006  0.2413
  961MOL0     C29657   4.385  10.285   6.135 -0.4324 -0.3371 -0.6657
  961MOL0     C29658   4.489  10.213   6.184  0.3676  0.0328 -0.2583
  961MOL0     O29659   4.552  10.133   6.095  0.6246  0.4994 -0.3939
  961MOL0     C29660   4.652  10.036   6.125 -0.0449  0.2750  0.5910
  961MOL0     C29661   4.671   9.944   6.006 -0.3809  0.4562  0.1086
  961MOL0     C29662   4.545   9.856   5.982  0.0454  1.2926 -0.2894
  961MOL0     C29663   4.567   9.766   5.863  0.2636  0.0954  0.0496
  961MOL0     C29664   4.454   9.663   5.860 -0.2283 -0.6313 -1.2026
  961MOL0     C29665   4.371   9.589   5.881 -0.1117  0.7020 -0.6762
  961MOL0     C29666   4.526  10.218   6.319  0.1942 -0.3174 -0.1427
  961MOL0     C29667   4.459  10.307   6.415 -0.4227  0.1338  0.2277
  961MOL0     H29668   4.114  10.554   6.682  0.3408  0.4241  0.6472
  961MOL0     H29669   3.971  10.716   6.772  1.1571 -2.0479 -0.4536
  961MOL0     H29670   3.803  10.846   6.848  0.4991 -1.3677 -2.3775
  961MOL0     H29671   3.915  10.970   6.819 -0.7468  1.9934 -0.3782
  961MOL0     H29672   3.618  11.002   6.780  0.6303 -0.0381  0.1130
  961MOL0     H29673   3.721  11.059   6.916 -1.5711 -0.7031 -0.0129
  961MOL0     H29674   3.807  11.227   6.790  1.5325 -0.8943 -0.8370
  961MOL0     H29675   3.786  11.146   6.624  0.4371  3.2397 -1.2031
  961MOL0     H29676   3.560  11.190   6.635 -0.6741 -1.8217  2.0772
  961MOL0     H29677   3.565  11.262   6.798 -1.5334  0.5539 -1.4044
  961MOL0     H29678   3.676  11.459   6.724 -7.2018  0.1919  3.1128
  961MOL0     H29679   3.727  11.394   6.570  2.0988  4.0951  2.7036
  961MOL0     H29680   3.438  11.423   6.661 -0.0181  0.0420  0.1269
  961MOL0     H29681   3.520  11.570   6.602 -1.4637  0.3122  2.1123
  961MOL0     H29682   3.484  11.303   6.446  0.7136 -0.1246  0.9282
  961MOL0     H29683   3.371  11.434   6.422 -1.4247 -1.6156 -0.4699
  961MOL0     H29684   3.668  11.414   6.346 -1.0395 -2.7939  2.6920
  961MOL0     H29685   3.597  11.575   6.362  2.9319 -1.0279  1.1849
  961MOL0     H29686   3.364  11.619   6.212  0.8909 -0.9429  2.4397
  961MOL0     H29687   3.200  11.411   5.941  1.2860 -0.1981 -2.0135
  961MOL0     H29688   3.185  11.579   6.009  2.6315  1.0358  1.4900
  961MOL0     H29689   3.321  11.668   5.834 -0.1388 -0.8716 -1.3141
  961MOL0     H29690   3.205  11.552   5.756 -1.3777 -1.5921  1.6944
  961MOL0     H29691   3.396  11.390   5.763 -2.7513 -0.0481 -0.8196
  961MOL0     H29692   3.497  11.518   5.819 -4.1082  1.3135  4.4225
  961MOL0     H29693   3.318  11.596   5.581  1.5968  1.4042  0.9020
  961MOL0     H29694   3.436  11.471   5.542  1.4701  0.7396 -0.2527
  961MOL0     H29695   3.686  11.821   5.578 -2.3133 -0.9186 -0.6433
  961MOL0     H29696   4.018  11.822   5.485  1.1169  1.5317 -0.0907
  961MOL0     H29697   3.875  11.912   5.556 -1.3405 -1.7590  0.2207
  961MOL0     H29698   4.005  11.840   5.655 -0.3716  0.5580 -0.1366
  961MOL0     H29699   4.258  11.435   5.754  0.3131 -0.4484 -0.9007
  961MOL0     H29700   4.461  11.344   5.792  1.4979  0.3875  0.2622
  961MOL0     H29701   4.589  11.154   5.766  0.7290 -0.7687  0.5631
  961MOL0     H29702   4.689  11.071   5.628 -1.3417  0.3624 -0.9763
  961MOL0     H29703   4.881  11.218   5.700  0.0100 -1.4919 -0.5322
  961MOL0     H29704   4.765  11.271   5.835  1.0715  1.0440 -0.5190
  961MOL0     H29705   4.901  10.991   5.813 -0.0219  0.7756 -0.0794
  961MOL0     H29706   4.751  11.032   5.892 -0.8609  1.5694 -0.2928
  961MOL0     H29707   4.859  11.195   6.044  1.0900 -0.7532  2.5956
  961MOL0     H29708   4.934  11.049   6.051  2.7704  0.8550  0.1605
  961MOL0     H29709   5.063  11.276   5.884  0.9217 -1.7649 -1.6991
  961MOL0     H29710   5.104  11.102   5.880  0.5552 -1.4619  1.1529
  961MOL0     H29711   5.123  11.295   6.102 -0.8770  0.6848  0.2133
  961MOL0     H29712   5.125  11.121   6.142  0.1552 -0.3582 -1.0976
  961MOL0     H29713   5.326  11.205   5.940  3.1183  0.3367  1.0328
  961MOL0     H29714   5.329  11.068   6.043  0.0696 -0.4223  4.3863
  961MOL0     H29715   5.481  11.221   6.149  0.1650  1.6489  2.8606
  961MOL0     H29716   5.338  11.183   6.244 -2.4948  0.9811 -0.5571
  961MOL0     H29717   4.498  11.221   5.396 -0.3116 -0.6552 -0.2439
  961MOL0     H29718   4.243  11.302   5.345 -1.6798  1.6942  0.5311
  961MOL0     H29719   3.849  11.351   5.553 -0.0739 -0.0644 -2.7702
  961MOL0     H29720   3.632  11.402   5.546  0.5147  0.7780 -0.9424
  961MOL0     H29721   3.868  10.874   6.395  1.5396  1.3397 -0.0572
  961MOL0     H29722   4.007  10.695   6.288 -2.1141 -1.0916  0.0170
  961MOL0     H29723   4.226  10.424   6.200  0.6791  0.4328 -0.2006
  961MOL0     H29724   4.377  10.277   6.027  2.5183 -1.6710 -0.8720
  961MOL0     H29725   4.741  10.096   6.145 -1.7762  2.6703  1.6978
  961MOL0     H29726   4.623   9.970   6.207  2.0368 -1.0110  0.3398
  961MOL0     H29727   4.766   9.891   6.016 -1.2161 -1.3073 -0.9148
  961MOL0     H29728   4.678  10.010   5.919 -3.9199 -2.0238 -2.3721
  961MOL0     H29729   4.470   9.930   5.952 -0.3410  0.2617 -1.9844
  961MOL0     H29730   4.524   9.795   6.070 -5.1279 -0.8549 -2.6356
  961MOL0     H29731   4.665   9.717   5.859 -0.0993 -0.6045 -0.4017
  961MOL0     H29732   4.547   9.819   5.770  1.3841 -1.1842 -0.9593
  961MOL0     H29733   4.290   9.525   5.908 -0.0855  1.2689  0.8816
  961MOL0     H29734   4.620  10.171   6.344  0.3961 -1.2549 -2.4112
  961MOL0     H29735   4.512  10.317   6.509  1.3130  2.0364 -0.8556
  962MOL0     O29736   6.143   4.651  10.257 -0.0605 -0.3775  0.1539
  962MOL0     C29737   6.086   4.548  10.225  0.4827  0.3598 -1.1300
  962MOL0     O29738   5.973   4.541  10.169  0.5358 -0.0940  0.1130
  962MOL0     C29739   5.911   4.659  10.124 -0.0778  0.4187  0.2531
  962MOL0     C29740   5.782   4.688  10.145 -0.4389  0.2729  0.2887
  962MOL0     C29741   5.726   4.800  10.078  0.8684  0.9639 -0.1112
  962MOL0     C29742   5.794   4.894   9.990 -0.8056  1.3135 -0.1446
  962MOL0     O29743   5.738   5.006   9.935  0.6213  0.1801  0.5051
  962MOL0     C29744   5.601   5.000   9.909  0.5960  0.1962 -0.2480
  962MOL0     C29745   5.548   5.119   9.825 -0.0719  0.5298 -0.1724
  962MOL0     C29746   5.392   5.126   9.796  0.1568  0.3971  0.1737
  962MOL0     C29747   5.340   4.999   9.745 -0.0189 -0.5384  0.3159
  962MOL0     C29748   5.197   5.016   9.680 -0.7556  0.9790 -0.2543
  962MOL0     C29749   5.163   4.919   9.571 -0.8268  0.1591  0.6363
  962MOL0     C29750   5.016   4.915   9.534  0.0044 -0.4467 -0.0483
  962MOL0     C29751   4.913   4.837   9.610 -0.1734 -0.2147 -0.3362
  962MOL0     N29752   4.944   4.698   9.645 -0.0230  0.3618  0.5918
  962MOL0     C29753   5.062   4.664   9.709 -0.2300 -0.7116 -0.3402
  962MOL0     C29754   5.064   4.529   9.706  0.2552 -0.7025 -1.0570
  962MOL0     C29755   5.171   4.443   9.759 -0.1611  0.1154  0.3503
  962MOL0     C29756   5.273   4.390   9.664 -0.1857  0.6466 -0.7318
  962MOL0     C29757   5.208   4.324   9.549 -0.1757 -0.5812  0.6507
  962MOL0     C29758   5.313   4.255   9.456  0.4573  0.0794 -0.6857
  962MOL0     O29759   5.429   4.337   9.455 -0.2057  0.1778  1.0226
  962MOL0     C29760   5.543   4.274   9.399 -0.3916 -0.6292 -1.3020
  962MOL0     C29761   5.646   4.363   9.359  0.4568  0.2741 -0.5724
  962MOL0     C29762   5.766   4.317   9.307 -0.5050 -0.0050 -0.3272
  962MOL0     C29763   5.873   4.422   9.282  0.1268 -0.2889  0.5251
  962MOL0     C29764   5.795   4.181   9.293  1.1724  0.3096  0.8604
  962MOL0     C29765   5.920   4.123   9.239 -0.5343  0.0596  0.0051
  962MOL0     O29766   5.994   4.178   9.139 -0.8184 -0.6841  0.1393
  962MOL0     C29767   6.091   4.100   9.088 -0.4976 -0.3249  0.4024
  962MOL0     C29768   6.219   4.148   9.115 -0.5253  0.0750  0.1560
  962MOL0     C29769   6.337   4.094   9.075 -0.3007  1.3148  0.8147
  962MOL0     C29770   6.329   3.977   8.998 -0.7958  0.2205 -0.2274
  962MOL0     O29771   6.435   3.895   8.980 -0.1711  0.1390 -0.3062
  962MOL0     C29772   6.462   3.830   8.848 -0.2375 -0.1444 -0.2884
  962MOL0     C29773   6.501   3.676   8.849 -0.1984 -0.2457 -0.1943
  962MOL0     C29774   6.387   3.573   8.872 -0.2867 -0.3080 -0.8198
  962MOL0     C29775   6.314   3.584   9.012 -0.2110 -0.4264  0.3329
  962MOL0     C29776   6.253   3.442   9.035 -1.5513 -0.8086  0.2002
  962MOL0     C29777   6.176   3.455   9.168  0.5778 -0.3725  0.1565
  962MOL0     C29778   6.083   3.326   9.184  0.4038  0.3579 -0.1769
  962MOL0     C29779   6.001   3.320   9.312  0.2181  0.1740  0.0902
  962MOL0    Cl29780   5.952   3.150   9.318  0.0782 -0.5013  0.1941
  962MOL0     C29781   6.200   3.925   8.962  0.0975 -0.8822 -0.6942
  962MOL0     C29782   6.080   3.981   9.005  0.0154  0.4076  0.0451
  962MOL0     O29783   5.953   4.027   9.306  0.3076  0.2563  0.2514
  962MOL0     C29784   5.688   4.092   9.318  0.1525  1.2214  0.2962
  962MOL0     C29785   5.563   4.135   9.376 -0.4548 -0.6192 -0.2566
  962MOL0     N29786   4.959   4.485   9.630  0.3711 -0.1856 -0.0704
  962MOL0     N29787   4.884   4.587   9.605  0.6981  0.7328 -1.2671
  962MOL0     C29788   5.934   4.869   9.992  0.8986  0.8351  0.3144
  962MOL0     C29789   5.987   4.753  10.047  0.5588  0.2857 -0.6817
  962MOL0     C29790   6.158   4.423  10.237  0.4924  0.5108 -0.3956
  962MOL0     C29791   6.254   4.410  10.339 -0.3578 -0.8915 -0.4879
  962MOL0     C29792   6.324   4.289  10.353  0.4835 -0.6395 -0.2900
  962MOL0     C29793   6.298   4.181  10.266 -0.2935 -0.0482 -0.5284
  962MOL0     O29794   6.363   4.060  10.292 -0.1349  0.4367 -0.2925
  962MOL0     C29795   6.500   4.060  10.337 -1.0916 -0.1344 -0.0462
  962MOL0     C29796   6.601   4.098  10.230  0.6743  0.3371  0.1471
  962MOL0     C29797   6.569   4.027  10.101 -0.1498  0.2754 -0.4324
  962MOL0     C29798   6.658   4.076   9.981 -0.3910 -0.3781 -0.0077
  962MOL0     C29799   6.803   4.079  10.021  0.0768  0.0010  0.3396
  962MOL0     C29800   6.919   4.074  10.052 -0.2517  0.0478  0.1563
  962MOL0     C29801   6.198   4.192  10.168 -0.2240  0.6198 -0.0009
  962MOL0     C29802   6.124   4.309  10.159  1.3669 -0.4572  0.1852
  962MOL0     H29803   5.717   4.618  10.197  2.6160 -1.4160  2.1215
  962MOL0     H29804   5.619   4.812  10.091  0.7289 -0.8747  0.7743
  962MOL0     H29805   5.581   4.909   9.851  2.7798 -0.3181 -0.2958
  962MOL0     H29806   5.542   4.992  10.000 -2.6902 -2.5815 -2.3479
  962MOL0     H29807   5.564   5.207   9.889 -1.0983 -0.4753  1.5431
  962MOL0     H29808   5.613   5.122   9.737 -1.3651 -2.1641 -1.3052
  962MOL0     H29809   5.334   5.156   9.884 -1.6775 -0.3022 -0.7565
  962MOL0     H29810   5.371   5.208   9.727  0.3101 -1.0532 -1.6413
  962MOL0     H29811   5.410   4.972   9.665 -2.4983 -1.7912 -1.5447
  962MOL0     H29812   5.344   4.919   9.820 -1.6595 -0.7456  0.2071
  962MOL0     H29813   5.127   5.001   9.763  0.4628 -0.4154  0.5837
  962MOL0     H29814   5.179   5.117   9.644 -6.1026 -0.0647 -1.3931
  962MOL0     H29815   5.202   4.956   9.476 -0.2434 -1.2438  0.3059
  962MOL0     H29816   5.211   4.823   9.593 -2.1122 -0.7411 -0.3277
  962MOL0     H29817   4.991   5.021   9.540 -0.8433 -0.6041 -0.5056
  962MOL0     H29818   5.011   4.884   9.429  0.8769 -1.6936  0.2569
  962MOL0     H29819   4.815   4.841   9.561 -0.8918  1.4673  1.1233
  962MOL0     H29820   4.906   4.884   9.708  2.2139  0.6910 -0.5291
  962MOL0     H29821   5.126   4.722   9.774 -1.7889 -2.5870  3.1546
  962MOL0     H29822   5.206   4.490   9.851  0.1727  0.4572  0.0491
  962MOL0     H29823   5.132   4.364   9.824  0.5043 -1.5487 -1.1896
  962MOL0     H29824   5.335   4.316   9.716  0.8206  1.2001 -1.1120
  962MOL0     H29825   5.344   4.465   9.628  1.4168  0.2189  1.3202
  962MOL0     H29826   5.161   4.399   9.485  1.7645 -0.8043 -1.1758
  962MOL0     H29827   5.133   4.250   9.579 -2.3121  0.7614 -1.0631
  962MOL0     H29828   5.266   4.232   9.360 -3.9828 -2.6962  1.8030
  962MOL0     H29829   5.336   4.156   9.498  1.5955 -0.2060 -1.9124
  962MOL0     H29830   5.630   4.470   9.368  2.4665  0.4205  3.1557
  962MOL0     H29831   5.952   4.408   9.356 -0.6676  3.7683  2.4414
  962MOL0     H29832   5.904   4.417   9.177 -2.2837 -0.9926 -0.2033
  962MOL0     H29833   5.830   4.522   9.297  0.4612 -0.1819  0.7828
  962MOL0     H29834   6.244   4.219   9.193  4.3574 -0.4466 -0.5804
  962MOL0     H29835   6.436   4.128   9.104  0.7989  1.1184 -2.3135
  962MOL0     H29836   6.383   3.855   8.776  0.6198 -0.4835 -1.3565
  962MOL0     H29837   6.542   3.895   8.812 -1.3891  2.4963  1.5001
  962MOL0     H29838   6.550   3.663   8.752 -1.4817  2.0654 -1.2504
  962MOL0     H29839   6.581   3.655   8.921 -0.1516  1.4790  0.3097
  962MOL0     H29840   6.433   3.474   8.876 -1.3049 -0.7671 -0.0793
  962MOL0     H29841   6.310   3.590   8.797 -3.8152  0.8623  2.7099
  962MOL0     H29842   6.396   3.602   9.082  0.1104 -3.3596  0.8109
  962MOL0     H29843   6.248   3.671   9.022  1.0010  0.3786  1.8868
  962MOL0     H29844   6.337   3.374   9.048  0.0126  0.8963 -0.4633
  962MOL0     H29845   6.179   3.430   8.955 -0.5915 -1.8985 -0.5380
  962MOL0     H29846   6.248   3.461   9.250 -0.4383 -0.3824  1.0791
  962MOL0     H29847   6.111   3.543   9.175 -2.4396 -2.3436 -1.1129
  962MOL0     H29848   6.148   3.238   9.185 -0.2665 -0.1826 -1.5225
  962MOL0     H29849   6.014   3.314   9.100  0.2649 -1.6206  0.1648
  962MOL0     H29850   5.914   3.386   9.303  2.9027  3.9698 -0.9688
  962MOL0     H29851   6.055   3.362   9.398 -0.2966 -1.0467  1.0338
  962MOL0     H29852   6.177   3.845   8.892 -0.3113 -1.3483 -0.0439
  962MOL0     H29853   5.984   3.956   8.960 -0.2031  2.1995 -0.5578
  962MOL0     H29854   5.684   3.985   9.304 -1.2716  1.4878 -1.6514
  962MOL0     H29855   5.491   4.057   9.399 -5.0896  3.3665  0.5416
  962MOL0     H29856   6.003   4.938   9.945  2.3449  1.0162  2.5652
  962MOL0     H29857   6.089   4.725  10.025 -0.5396 -2.1315 -3.2643
  962MOL0     H29858   6.282   4.492  10.404 -0.0532  1.3702 -3.2956
  962MOL0     H29859   6.387   4.294  10.441 -1.3197 -2.4196  1.2109
  962MOL0     H29860   6.524   4.107  10.433 -1.2826 -1.9349  0.9179
  962MOL0     H29861   6.510   3.957  10.371 -2.0585  0.2858  1.6504
  962MOL0     H29862   6.704   4.083  10.262  0.8084  1.1938  0.1343
  962MOL0     H29863   6.591   4.205  10.210 -2.1719  0.3329  1.0568
  962MOL0     H29864   6.464   4.040  10.075 -0.4472  2.3299  1.4427
  962MOL0     H29865   6.584   3.919  10.109 -1.1732 -0.6675 -6.3153
  962MOL0     H29866   6.637   4.178   9.948  3.1424 -0.1072 -1.8913
  962MOL0     H29867   6.640   4.013   9.894  2.0089 -0.3846 -0.5679
  962MOL0     H29868   7.020   4.073  10.086  0.5651 -0.9672 -2.0811
  962MOL0     H29869   6.173   4.097  10.121  3.5819 -1.2937  1.4330
  962MOL0     H29870   6.045   4.333  10.089  1.1174 -0.6147  0.4103
  963MOL0     O29871   4.998   8.429   9.381 -0.1699  0.3001  0.3099
  963MOL0     C29872   5.027   8.316   9.343  0.1141  0.4215 -0.0589
  963MOL0     O29873   5.152   8.269   9.317 -0.0453 -0.2031 -0.6703
  963MOL0     C29874   5.255   8.340   9.373 -0.5466 -0.8140  0.1796
  963MOL0     C29875   5.295   8.326   9.500  0.3739 -0.2321 -0.5344
  963MOL0     C29876   5.398   8.407   9.552 -0.0063 -0.7110  0.7577
  963MOL0     C29877   5.470   8.491   9.457 -0.3021  0.5829  0.4375
  963MOL0     O29878   5.574   8.574   9.486 -0.4382 -0.0441 -0.2852
  963MOL0     C29879   5.607   8.615   9.625  1.2288  0.7475  0.0628
  963MOL0     C29880   5.724   8.713   9.643 -0.4226 -0.2359  0.4474
  963MOL0     C29881   5.689   8.864   9.585 -0.2210 -0.0455 -0.7536
  963MOL0     C29882   5.696   8.876   9.432 -1.2073 -0.0560 -0.8682
  963MOL0     C29883   5.829   8.850   9.364 -0.7814  0.0011  0.4725
  963MOL0     C29884   5.824   8.865   9.211  0.5227  0.5488  0.4752
  963MOL0     C29885   5.726   8.774   9.145  0.2710 -0.0100 -0.0309
  963MOL0     C29886   5.736   8.785   9.000  0.4758 -0.3308  0.7118
  963MOL0     N29887   5.693   8.917   8.952 -0.6529  0.1846 -0.0732
  963MOL0     C29888   5.575   8.972   9.000  0.6556  0.1036  0.2493
  963MOL0     C29889   5.581   9.092   8.946  0.0309 -0.0556  0.3328
  963MOL0     C29890   5.486   9.206   8.971  0.3135  0.4561  0.3508
  963MOL0     C29891   5.364   9.166   9.065 -0.0890 -0.2927 -0.6608
  963MOL0     C29892   5.264   9.280   9.081 -0.0940  0.2809 -0.6102
  963MOL0     C29893   5.154   9.248   9.176  0.4098  1.5820 -0.4237
  963MOL0     O29894   5.212   9.224   9.310  0.0100  0.7875 -0.0951
  963MOL0     C29895   5.107   9.212   9.402 -0.1683  0.0078 -0.3317
  963MOL0     C29896   4.976   9.162   9.374  0.5443 -0.1718  0.3669
  963MOL0     C29897   4.890   9.124   9.479 -1.2992 -0.2403  1.1934
  963MOL0     C29898   4.765   9.072   9.433  0.6645  0.5276  0.0203
  963MOL0     C29899   4.924   9.159   9.613  0.0344  0.6062  0.6092
  963MOL0     C29900   4.827   9.148   9.721 -0.3902 -0.7200 -1.0770
  963MOL0     O29901   4.824   9.248   9.822 -0.1673 -0.7892 -0.0698
  963MOL0     C29902   4.793   9.212   9.949 -0.6598  0.0439 -0.6521
  963MOL0     C29903   4.687   9.267  10.006  0.4527 -1.2046 -0.5606
  963MOL0     C29904   4.663   9.236  10.144 -0.3229 -0.1414 -0.7025
  963MOL0     C29905   4.757   9.163  10.221 -0.7207  0.0139  0.4912
  963MOL0     O29906   4.742   9.123  10.352  0.2543  0.2538  1.0399
  963MOL0     C29907   4.614   9.160  10.406 -0.0603  0.3848  0.3733
  963MOL0     C29908   4.596   9.097  10.544 -0.0823  0.1137 -0.8054
  963MOL0     C29909   4.708   9.140  10.646 -0.5988 -0.6489  0.3114
  963MOL0     C29910   4.731   9.303  10.658 -0.2456  0.1035 -0.1140
  963MOL0     C29911   4.624   9.391  10.723 -0.5899  0.0653  0.1388
  963MOL0     C29912   4.549   9.481  10.624  0.6558  0.5732 -0.8092
  963MOL0     C29913   4.423   9.532  10.702 -0.1010  0.0537  0.5445
  963MOL0     C29914   4.299   9.546  10.613 -0.4854  1.5230 -0.8095
  963MOL0    Cl29915   4.324   9.680  10.491  0.3209 -0.0468 -0.9096
  963MOL0     C29916   4.861   9.101  10.159  0.0824 -0.5804  0.1830
  963MOL0     C29917   4.877   9.121  10.018  0.3604 -0.3026  0.9742
  963MOL0     O29918   4.776   9.037   9.732 -0.3253  0.1753 -0.0491
  963MOL0     C29919   5.049   9.214   9.640 -0.5492  0.5155 -0.4333
  963MOL0     C29920   5.144   9.233   9.536  0.1986 -0.7762  0.4125
  963MOL0     N29921   5.702   9.104   8.877  0.9365  0.1605 -0.4518
  963MOL0     N29922   5.766   8.999   8.872  0.3452 -0.3996 -1.2192
  963MOL0     C29923   5.432   8.503   9.322 -0.8010 -0.4546 -0.5897
  963MOL0     C29924   5.323   8.423   9.277 -0.2406 -0.0212 -0.2620
  963MOL0     C29925   4.917   8.222   9.307 -0.4556  0.4928  0.0601
  963MOL0     C29926   4.799   8.216   9.376 -0.3908 -0.3749 -0.3908
  963MOL0     C29927   4.705   8.121   9.354 -0.7543 -0.4869  0.6839
  963MOL0     C29928   4.732   8.013   9.266  0.5461  0.2912  0.2646
  963MOL0     O29929   4.643   7.907   9.259  0.2695 -0.5834 -0.1998
  963MOL0     C29930   4.574   7.867   9.139 -0.7507 -0.3121 -0.2476
  963MOL0     C29931   4.481   7.980   9.089  0.1105  0.4392 -0.3490
  963MOL0     C29932   4.444   7.969   8.939  0.1940  0.1782  0.1628
  963MOL0     C29933   4.297   7.959   8.943 -0.4215  0.5654  0.5455
  963MOL0     C29934   4.236   8.088   8.930  0.4442  0.3410 -0.8055
  963MOL0     C29935   4.179   8.198   8.929  0.3643 -0.4373 -1.1024
  963MOL0     C29936   4.846   8.014   9.192  0.4360  1.0889 -0.7035
  963MOL0     C29937   4.934   8.121   9.206  0.4165  0.0722  0.4586
  963MOL0     H29938   5.232   8.261   9.560 -0.1345  1.4169  0.8079
  963MOL0     H29939   5.433   8.410   9.654 -0.8231  2.6913  1.0489
  963MOL0     H29940   5.515   8.654   9.672  0.6798 -1.5766  1.0780
  963MOL0     H29941   5.625   8.524   9.682 -2.9970  0.8060  1.9217
  963MOL0     H29942   5.749   8.725   9.749  0.8187  0.9209  0.0603
  963MOL0     H29943   5.807   8.665   9.590 -0.4504  0.5456 -0.3224
  963MOL0     H29944   5.591   8.899   9.618  0.4846  0.7889  0.5813
  963MOL0     H29945   5.765   8.936   9.619 -0.1983  0.2459 -1.4047
  963MOL0     H29946   5.623   8.807   9.390 -0.6632 -1.0836 -0.1774
  963MOL0     H29947   5.671   8.980   9.411  0.2516  0.6743  0.7829
  963MOL0     H29948   5.911   8.911   9.404 -2.2839  2.1332  0.4708
  963MOL0     H29949   5.858   8.748   9.391 -0.9257  0.5163  2.8165
  963MOL0     H29950   5.807   8.971   9.189 -1.6662  0.6838  2.4656
  963MOL0     H29951   5.929   8.850   9.183  0.6960 -1.7281  2.0775
  963MOL0     H29952   5.748   8.671   9.174  2.6508  0.4937  0.0994
  963MOL0     H29953   5.628   8.790   9.191  0.4593 -1.7142  1.0778
  963MOL0     H29954   5.675   8.713   8.945  1.5761  1.4187 -3.1485
  963MOL0     H29955   5.838   8.780   8.961  0.1572  0.6138 -0.2746
  963MOL0     H29956   5.504   8.923   9.065 -1.4139 -2.0245 -3.2748
  963MOL0     H29957   5.540   9.286   9.025 -0.5844  2.0339 -0.9898
  963MOL0     H29958   5.445   9.255   8.882  0.7744  2.9985  1.4235
  963MOL0     H29959   5.395   9.129   9.163  0.4501  2.0161  0.1020
  963MOL0     H29960   5.305   9.081   9.032  0.9889 -1.5408  0.5333
  963MOL0     H29961   5.229   9.305   8.980  0.6116  0.0275 -0.9305
  963MOL0     H29962   5.313   9.367   9.126  0.5572 -1.3610  2.0803
  963MOL0     H29963   5.109   9.157   9.135  4.7577 -1.2759  0.4215
  963MOL0     H29964   5.079   9.327   9.175  0.9854  2.3029  2.4328
  963MOL0     H29965   4.946   9.150   9.270  2.1821  2.1481 -0.4692
  963MOL0     H29966   4.753   8.964   9.436  0.0706  0.4929 -2.0411
  963MOL0     H29967   4.684   9.125   9.484  1.0095 -1.1137  2.4191
  963MOL0     H29968   4.744   9.098   9.329  0.5620 -2.4042 -0.7703
  963MOL0     H29969   4.632   9.339   9.946  3.8987  1.6291 -0.6609
  963MOL0     H29970   4.570   9.276  10.183  0.6820  0.4163  1.2051
  963MOL0     H29971   4.607   9.268  10.421 -1.7289  0.3590 -0.0016
  963MOL0     H29972   4.530   9.134  10.341  0.2848  2.1400 -0.8342
  963MOL0     H29973   4.496   9.123  10.578 -1.6190 -1.4163 -3.7739
  963MOL0     H29974   4.601   8.988  10.546  0.0287  0.1156 -0.9446
  963MOL0     H29975   4.801   9.093  10.611  0.1316  1.6687 -1.0948
  963MOL0     H29976   4.679   9.107  10.746 -0.5661 -0.0215  0.5322
  963MOL0     H29977   4.827   9.310  10.711 -1.7136 -0.2069  2.7601
  963MOL0     H29978   4.749   9.340  10.556 -1.4301 -1.2461 -0.8479
  963MOL0     H29979   4.685   9.453  10.790  3.5601 -1.4868 -1.8437
  963MOL0     H29980   4.559   9.332  10.789 -0.0765 -0.4138  0.2254
  963MOL0     H29981   4.616   9.560  10.589  3.7422 -0.1075  2.9227
  963MOL0     H29982   4.499   9.421  10.548 -1.4801  2.1362 -0.7485
  963MOL0     H29983   4.444   9.620  10.764  0.6180 -0.4869  1.0899
  963MOL0     H29984   4.382   9.461  10.775 -1.5540  0.6837  0.3845
  963MOL0     H29985   4.219   9.573  10.683 -0.6520  0.5492 -0.6038
  963MOL0     H29986   4.272   9.450  10.566 -0.9170 -1.6050  4.9257
  963MOL0     H29987   4.936   9.042  10.210  2.7770  3.2084  1.0279
  963MOL0     H29988   4.964   9.072   9.975  0.5906  1.0354 -0.1486
  963MOL0     H29989   5.084   9.209   9.742  0.5199  0.2318 -0.8043
  963MOL0     H29990   5.249   9.257   9.550  0.3301 -2.0292  1.8256
  963MOL0     H29991   5.486   8.560   9.246 -2.3162  3.8386  1.2381
  963MOL0     H29992   5.310   8.415   9.169  3.6358 -2.6253 -0.7594
  963MOL0     H29993   4.779   8.285   9.457 -3.4981 -0.0869 -1.2604
  963MOL0     H29994   4.627   8.129   9.429  0.3342 -1.6222  2.0064
  963MOL0     H29995   4.654   7.861   9.065  1.2704 -0.3456  1.8270
  963MOL0     H29996   4.519   7.773   9.148  0.1949 -0.9339 -0.7145
  963MOL0     H29997   4.527   8.079   9.096  1.4507 -0.0682 -1.6488
  963MOL0     H29998   4.390   7.989   9.150 -1.1136  1.4811 -2.1961
  963MOL0     H29999   4.500   7.885   8.895  0.3596 -0.3202  1.2976
  963MOL0     H30000   4.471   8.061   8.887  1.8971 -0.2448  0.2202
  963MOL0     H30001   4.245   7.907   9.024 -1.0952 -0.7814 -0.6932
  963MOL0     H30002   4.249   7.910   8.858 -0.5704  1.1255  0.3009
  963MOL0     H30003   4.119   8.286   8.937  3.6421  2.0839 -1.9049
  963MOL0     H30004   4.863   7.926   9.131 -0.6117 -0.3259  0.9437
  963MOL0     H30005   5.023   8.110   9.146 -0.8506  0.2337 -1.5271
  964MOL0     O30006   8.763   6.223  11.009 -0.7084  0.1574 -0.2644
  964MOL0     C30007   8.826   6.208  10.904  0.1245 -0.2792 -0.4421
  964MOL0     O30008   8.905   6.302  10.844 -0.0570  0.5721 -0.1622
  964MOL0     C30009   8.944   6.423  10.905 -0.6595  1.0423 -0.5934
  964MOL0     C30010   9.062   6.485  10.854 -0.3541  0.4513  0.4187
  964MOL0     C30011   9.105   6.609  10.900  0.3093 -1.0739  0.0632
  964MOL0     C30012   9.012   6.682  10.979  0.1984 -0.3980  0.2920
  964MOL0     O30013   9.033   6.812  11.029 -0.3936  0.9041  0.1023
  964MOL0     C30014   9.158   6.882  11.013 -0.1966  0.4381  0.1737
  964MOL0     C30015   9.184   6.971  11.131 -0.3034  0.0368 -0.2902
  964MOL0     C30016   9.102   7.097  11.127  0.4563  0.8102  0.0588
  964MOL0     C30017   9.134   7.184  11.237 -0.4847 -0.1522 -0.3334
  964MOL0     C30018   9.047   7.306  11.212 -0.0793  0.1904 -0.1201
  964MOL0     C30019   9.071   7.417  11.328  0.5514  1.3717  0.2224
  964MOL0     C30020   8.971   7.534  11.316 -0.2682  0.3606 -0.6197
  964MOL0     C30021   8.996   7.629  11.431 -0.4896 -0.0683  0.1865
  964MOL0     N30022   8.890   7.734  11.434 -0.4808  0.0587 -0.0648
  964MOL0     C30023   8.914   7.854  11.370 -0.1556  0.1637 -0.4016
  964MOL0     C30024   8.812   7.926  11.411  0.4698  0.4413  0.1131
  964MOL0     C30025   8.793   8.062  11.362 -0.3216 -0.4789 -0.4138
  964MOL0     C30026   8.695   8.054  11.245 -1.1589 -0.5294 -0.9175
  964MOL0     C30027   8.665   8.193  11.198 -0.5789  0.2134  0.2883
  964MOL0     C30028   8.545   8.251  11.273 -0.0121  0.2330  0.1298
  964MOL0     O30029   8.432   8.169  11.259 -0.8120 -0.0998 -0.1688
  964MOL0     C30030   8.348   8.162  11.364  0.1703  0.8634  0.2695
  964MOL0     C30031   8.298   8.036  11.408 -0.6710 -1.1045  0.0985
  964MOL0     C30032   8.179   8.019  11.483  0.2062 -0.5681  0.0474
  964MOL0     C30033   8.121   7.879  11.493  0.5655  0.2160 -0.7338
  964MOL0     C30034   8.134   8.139  11.549  0.0491  0.4603  0.0111
  964MOL0     C30035   8.020   8.154  11.644  0.1729 -0.7470  0.4743
  964MOL0     O30036   7.984   8.275  11.697  0.0371  0.1385  0.9986
  964MOL0     C30037   7.859   8.298  11.748 -0.4151  0.3472 -0.2998
  964MOL0     C30038   7.786   8.200  11.818  0.1458 -0.1785 -0.1136
  964MOL0     C30039   7.667   8.233  11.896 -0.2945 -0.1944  0.6421
  964MOL0     C30040   7.614   8.366  11.878  0.4640 -0.0182  0.6139
  964MOL0     O30041   7.500   8.386  11.949 -1.0157 -0.5475 -0.0060
  964MOL0     C30042   7.509   8.513  12.023  0.5164 -0.2664  1.0122
  964MOL0     C30043   7.417   8.511  12.140  0.3744  0.2111 -0.0164
  964MOL0     C30044   7.459   8.395  12.233 -0.2899 -0.2524  1.1430
  964MOL0     C30045   7.378   8.375  12.353  0.0150 -0.0470  0.1372
  964MOL0     C30046   7.440   8.254  12.442 -0.7511 -0.4937 -0.2337
  964MOL0     C30047   7.372   8.245  12.584 -0.5532 -0.2407  0.1568
  964MOL0     C30048   7.220   8.218  12.579  0.1345 -0.2830  0.6436
  964MOL0     C30049   7.189   8.071  12.551 -0.0000 -0.5677  1.0604
  964MOL0    Cl30050   7.011   8.045  12.584  0.1794  0.1502 -0.0556
  964MOL0     C30051   7.691   8.462  11.809  0.6779 -0.0064  0.1476
  964MOL0     C30052   7.810   8.425  11.752 -0.3130  0.0009 -0.3023
  964MOL0     O30053   7.948   8.053  11.654  0.4170 -0.1578 -0.4521
  964MOL0     C30054   8.190   8.267  11.512 -0.2045 -0.0353 -0.4733
  964MOL0     C30055   8.296   8.280  11.419  0.2257  0.3717 -0.5368
  964MOL0     N30056   8.726   7.851  11.493 -0.0809  0.3625  0.3805
  964MOL0     N30057   8.781   7.739  11.511 -0.4275  0.2110 -0.4548
  964MOL0     C30058   8.891   6.620  11.028  0.3333  0.6285 -0.0557
  964MOL0     C30059   8.858   6.495  10.989  0.3445 -0.6524  0.4133
  964MOL0     C30060   8.808   6.079  10.846  0.0715 -1.1764  0.7370
  964MOL0     C30061   8.842   6.063  10.707 -1.0885  0.0715  1.2107
  964MOL0     C30062   8.835   5.929  10.665  0.0023  0.1272  0.2363
  964MOL0     C30063   8.782   5.820  10.732  0.2061 -0.5886 -0.7756
  964MOL0     O30064   8.777   5.696  10.686  0.3002 -0.4261  1.0004
  964MOL0     C30065   8.860   5.640  10.577  0.1983 -0.0875 -0.0103
  964MOL0     C30066   8.873   5.488  10.618  0.2611  0.3218 -0.3096
  964MOL0     C30067   8.741   5.407  10.610  0.3763 -0.0865 -0.0334
  964MOL0     C30068   8.780   5.259  10.643  0.1668  0.7347 -0.1972
  964MOL0     C30069   8.858   5.190  10.535 -0.0148  1.0882 -0.3197
  964MOL0     C30070   8.926   5.143  10.437  0.1849 -0.0280  0.4251
  964MOL0     C30071   8.742   5.839  10.866  0.3851  0.2669  0.1298
  964MOL0     C30072   8.759   5.972  10.920  0.4783 -1.1160  0.5185
  964MOL0     H30073   9.112   6.436  10.771 -1.8740 -0.1490 -0.1795
  964MOL0     H30074   9.191   6.663  10.861  0.9341 -2.3823 -0.4375
  964MOL0     H30075   9.248   6.823  10.997  1.6427  3.8210 -4.0306
  964MOL0     H30076   9.147   6.945  10.924  0.3077  1.0006  0.5015
  964MOL0     H30077   9.183   6.901  11.216  0.9586 -1.3446 -1.3720
  964MOL0     H30078   9.288   7.003  11.121 -0.0133 -0.5715  0.6262
  964MOL0     H30079   9.125   7.140  11.029  0.7275  1.1101  0.2537
  964MOL0     H30080   8.999   7.062  11.139  0.0679  2.2070  1.0610
  964MOL0     H30081   9.106   7.131  11.329 -0.0723  0.0092 -0.1093
  964MOL0     H30082   9.240   7.214  11.236 -0.5592  0.0899 -1.6847
  964MOL0     H30083   9.076   7.348  11.115  0.2982 -2.5070 -1.2652
  964MOL0     H30084   8.947   7.265  11.223  0.1505 -0.3527 -0.0587
  964MOL0     H30085   9.070   7.370  11.427 -1.9101  0.3909 -0.1939
  964MOL0     H30086   9.168   7.463  11.306  0.5737  0.4405 -1.8543
  964MOL0     H30087   9.001   7.591  11.229 -1.5537  0.6950 -0.8708
  964MOL0     H30088   8.869   7.494  11.321  0.7185 -2.4966 -1.0623
  964MOL0     H30089   9.087   7.683  11.402  0.5975 -2.1494 -0.4525
  964MOL0     H30090   8.999   7.575  11.526  2.8058  1.6711  1.2424
  964MOL0     H30091   8.995   7.882  11.303  1.2409 -1.6277  0.4755
  964MOL0     H30092   8.751   8.126  11.440  1.9054  0.1302  0.3609
  964MOL0     H30093   8.888   8.108  11.332 -1.0407  1.7419  0.4430
  964MOL0     H30094   8.613   7.987  11.271 -3.9036  3.5602  2.1244
  964MOL0     H30095   8.754   8.010  11.164 -1.6542  2.3554 -3.0172
  964MOL0     H30096   8.652   8.181  11.090  1.4839 -3.3466  0.2683
  964MOL0     H30097   8.755   8.254  11.206 -0.6491  1.1547 -3.7868
  964MOL0     H30098   8.525   8.354  11.244  3.4314  0.2467 -2.7902
  964MOL0     H30099   8.579   8.253  11.377  2.2530 -0.3179 -0.5451
  964MOL0     H30100   8.357   7.956  11.368 -0.7859 -1.9088  1.4677
  964MOL0     H30101   8.129   7.845  11.596  0.7350 -1.2435 -1.2071
  964MOL0     H30102   8.019   7.876  11.454  0.1408  4.7062 -0.4676
  964MOL0     H30103   8.181   7.819  11.424  0.9438  1.3744 -1.4356
  964MOL0     H30104   7.832   8.102  11.831 -0.6248 -0.3918  1.1801
  964MOL0     H30105   7.611   8.161  11.955 -1.3653 -1.7712 -2.1084
  964MOL0     H30106   7.613   8.522  12.057  2.4884 -1.7197 -3.6814
  964MOL0     H30107   7.496   8.594  11.950  3.0224 -2.1362 -1.8203
  964MOL0     H30108   7.429   8.599  12.204  2.1804  0.3726 -0.5077
  964MOL0     H30109   7.312   8.492  12.120  0.0485 -0.3685  1.9777
  964MOL0     H30110   7.565   8.417  12.255  0.2474  0.4255 -1.6750
  964MOL0     H30111   7.454   8.299  12.181 -1.8097  0.9337 -1.0581
  964MOL0     H30112   7.384   8.462  12.418  2.4720 -1.8079  2.4938
  964MOL0     H30113   7.276   8.339  12.335  0.2229 -0.9757  0.7609
  964MOL0     H30114   7.544   8.287  12.450 -0.5671 -0.1657 -2.9199
  964MOL0     H30115   7.426   8.159  12.391 -1.5444 -0.5211  0.0256
  964MOL0     H30116   7.420   8.174  12.651  1.4360  1.4707  0.6392
  964MOL0     H30117   7.392   8.336  12.640  1.4774  0.0951 -0.9988
  964MOL0     H30118   7.163   8.272  12.503 -0.2146 -0.7010  0.6031
  964MOL0     H30119   7.171   8.239  12.675  0.5379  1.1140  0.5700
  964MOL0     H30120   7.259   8.015  12.613 -0.0937  0.0562  1.7438
  964MOL0     H30121   7.223   8.055  12.448  1.5518  2.2707  1.0312
  964MOL0     H30122   7.662   8.566  11.797  1.9475  0.3748  0.1899
  964MOL0     H30123   7.871   8.498  11.698  3.1049 -1.5963  1.1110
  964MOL0     H30124   8.161   8.357  11.566 -2.6146 -0.1123 -1.4764
  964MOL0     H30125   8.333   8.376  11.385  0.6329  0.4618  0.1541
  964MOL0     H30126   8.814   6.663  11.090 -1.8452  1.2806 -3.0011
  964MOL0     H30127   8.763   6.454  11.023  0.5567 -0.5427  1.1593
  964MOL0     H30128   8.873   6.147  10.645 -0.8893  0.6304  2.0539
  964MOL0     H30129   8.862   5.905  10.563  1.6333  0.7862  0.4836
  964MOL0     H30130   8.805   5.667  10.486 -2.3394  1.3884  1.8265
  964MOL0     H30131   8.962   5.678  10.568  0.3958 -1.0104 -2.3431
  964MOL0     H30132   8.900   5.482  10.724 -0.0844  1.6793 -0.1274
  964MOL0     H30133   8.945   5.441  10.551 -0.0340  0.5856 -0.8137
  964MOL0     H30134   8.696   5.409  10.511 -1.0037  0.7590  0.5743
  964MOL0     H30135   8.663   5.442  10.679  0.6382 -2.5176  1.6096
  964MOL0     H30136   8.703   5.186  10.669  1.8384 -0.2770  2.3165
  964MOL0     H30137   8.841   5.248  10.733  0.5589 -0.6720 -0.6054
  964MOL0     H30138   8.987   5.134  10.349 -0.7476 -1.7541 -0.0990
  964MOL0     H30139   8.707   5.761  10.932  1.8508  1.3550  2.3153
  964MOL0     H30140   8.726   5.980  11.024 -2.1064 -0.0849 -0.2958
  965MOL0     O30141   5.279   9.446   4.321 -0.0545 -0.1236  0.4543
  965MOL0     C30142   5.300   9.390   4.215 -0.4758 -0.9281  0.6020
  965MOL0     O30143   5.313   9.255   4.201  0.0350 -0.0658 -0.3738
  965MOL0     C30144   5.258   9.179   4.297 -0.0136  1.2919  0.1687
  965MOL0     C30145   5.336   9.097   4.380  0.2131  0.9560 -0.2875
  965MOL0     C30146   5.283   8.984   4.445 -0.3114  0.1266 -0.7907
  965MOL0     C30147   5.148   8.957   4.435  0.0427  0.2912 -0.5099
  965MOL0     O30148   5.091   8.857   4.502  0.8305 -0.4620  0.3630
  965MOL0     C30149   5.116   8.844   4.640 -0.9278  0.2667  0.2638
  965MOL0     C30150   5.090   8.968   4.724  0.9868  0.2854 -0.5737
  965MOL0     C30151   4.939   8.999   4.725  0.4684 -0.3899  0.2023
  965MOL0     C30152   4.908   9.125   4.810 -1.2992  0.5175  1.3708
  965MOL0     C30153   4.919   9.081   4.950  0.3737  0.3754 -0.3205
  965MOL0     C30154   4.854   9.181   5.052 -0.4848  0.3553  0.6229
  965MOL0     C30155   4.722   9.139   5.097 -0.1504 -0.4201 -0.0557
  965MOL0     C30156   4.595   9.150   4.998  0.3342 -0.7536  0.1587
  965MOL0     N30157   4.570   9.292   4.968  0.2079 -0.4200 -0.2310
  965MOL0     C30158   4.565   9.401   5.053  0.4068  1.3762 -0.9962
  965MOL0     C30159   4.531   9.497   4.970 -0.0186  0.3836 -0.6838
  965MOL0     C30160   4.515   9.645   4.994 -0.0451  0.1523 -0.0441
  965MOL0     C30161   4.376   9.691   5.049 -0.3182  0.1675  0.4729
  965MOL0     C30162   4.364   9.665   5.196 -0.8704  0.3474  0.7251
  965MOL0     C30163   4.222   9.716   5.235  0.0976  0.0413 -0.0473
  965MOL0     O30164   4.221   9.709   5.378 -0.2340  0.7460  0.4491
  965MOL0     C30165   4.156   9.811   5.440  0.2121  0.3637  0.9586
  965MOL0     C30166   4.048   9.884   5.395  0.1640 -0.9717 -0.1455
  965MOL0     C30167   4.007  10.002   5.460  0.3779 -0.4307  0.5240
  965MOL0     C30168   3.895  10.076   5.391 -0.0143 -0.7060  0.5355
  965MOL0     C30169   4.064  10.045   5.579 -0.2498  0.4918 -0.5621
  965MOL0     C30170   4.036  10.178   5.647 -0.7805  0.9539  0.3403
  965MOL0     O30171   4.082  10.176   5.778 -0.4565  0.1854  0.0377
  965MOL0     C30172   4.057  10.293   5.842 -0.1972  0.3020 -0.4792
  965MOL0     C30173   3.974  10.298   5.955  0.7160  0.6513 -0.5645
  965MOL0     C30174   3.945  10.413   6.030 -0.3042  0.6552  0.1536
  965MOL0     C30175   3.999  10.530   5.982  1.3943 -0.5307  0.3247
  965MOL0     O30176   3.975  10.652   6.029 -0.9392 -0.5666 -0.2691
  965MOL0     C30177   3.842  10.710   6.028 -0.5513  0.0321  0.1259
  965MOL0     C30178   3.771  10.699   5.890 -0.2581  0.8512 -0.7481
  965MOL0     C30179   3.837  10.789   5.776 -0.1051  1.0425  0.8769
  965MOL0     C30180   3.785  10.739   5.638 -0.2995  0.0983  0.1609
  965MOL0     C30181   3.841  10.759   5.501 -0.0029 -0.5602 -0.1356
  965MOL0     C30182   3.851  10.910   5.478 -0.2073  0.5075 -0.0081
  965MOL0     C30183   3.896  10.948   5.336 -1.3271  1.0006  0.7083
  965MOL0     C30184   3.984  11.079   5.331  0.5337  0.7228 -0.3922
  965MOL0    Cl30185   3.879  11.225   5.331 -0.2788 -0.0988  0.4792
  965MOL0     C30186   4.091  10.536   5.880 -0.6386  0.8004 -0.3135
  965MOL0     C30187   4.114  10.413   5.809  0.9726 -0.1383  0.2154
  965MOL0     O30188   3.974  10.264   5.581  0.4628 -0.2443  0.0341
  965MOL0     C30189   4.170   9.964   5.635  0.5362  0.2607 -0.5054
  965MOL0     C30190   4.209   9.854   5.559  0.0917 -0.5345 -0.4456
  965MOL0     N30191   4.518   9.452   4.845 -0.3307  0.7619  0.6577
  965MOL0     N30192   4.540   9.332   4.843 -1.2732 -0.4734 -0.2630
  965MOL0     C30193   5.070   9.033   4.359  0.7035 -0.0818  0.5126
  965MOL0     C30194   5.121   9.146   4.285 -0.1534  0.4060 -0.4462
  965MOL0     C30195   5.338   9.481   4.107  0.5780  0.6074  0.5312
  965MOL0     C30196   5.354   9.617   4.132 -1.0791 -0.6455 -0.7624
  965MOL0     C30197   5.380   9.698   4.019  0.4121  0.6869  0.5287
  965MOL0     C30198   5.381   9.644   3.893 -0.1438  0.1704  0.8551
  965MOL0     O30199   5.396   9.731   3.791  0.2212  0.2898  0.0176
  965MOL0     C30200   5.391   9.679   3.653  0.4556  0.5259 -1.0717
  965MOL0     C30201   5.439   9.781   3.550  0.6081  0.7331 -1.5616
  965MOL0     C30202   5.352   9.917   3.553  0.0606  0.0221 -0.8944
  965MOL0     C30203   5.295   9.964   3.414  0.1618 -0.0638  0.8258
  965MOL0     C30204   5.211  10.086   3.419  0.2165  0.2588  0.5544
  965MOL0     C30205   5.130  10.177   3.426 -0.1830  0.7443 -0.4718
  965MOL0     C30206   5.352   9.505   3.869 -0.9041 -0.0398 -0.4012
  965MOL0     C30207   5.334   9.431   3.977  0.7605 -0.4444 -0.3186
  965MOL0     H30208   5.444   9.109   4.383  0.7519 -2.2493 -2.3337
  965MOL0     H30209   5.345   8.920   4.506 -0.8257  2.8919  2.9928
  965MOL0     H30210   5.059   8.762   4.682 -1.5504  0.4573 -0.1960
  965MOL0     H30211   5.221   8.811   4.645 -0.6470 -0.6986 -5.0769
  965MOL0     H30212   5.143   8.960   4.819  0.1300  1.6481  0.0458
  965MOL0     H30213   5.144   9.050   4.676  1.1350  0.7300  0.3433
  965MOL0     H30214   4.904   9.028   4.626 -0.7717  1.4535  1.1160
  965MOL0     H30215   4.889   8.907   4.758 -0.7373 -0.3279 -1.3553
  965MOL0     H30216   4.964   9.213   4.781 -4.0552  1.0310 -3.2721
  965MOL0     H30217   4.802   9.143   4.788 -1.4805 -2.2599 -0.5536
  965MOL0     H30218   4.865   8.986   4.955 -0.3869  0.7221 -1.5140
  965MOL0     H30219   5.025   9.062   4.966  0.2213 -1.7380 -1.4501
  965MOL0     H30220   4.927   9.167   5.132  0.1141 -1.4797 -0.1744
  965MOL0     H30221   4.843   9.283   5.015 -0.2505 -0.0244 -0.5563
  965MOL0     H30222   4.718   9.038   5.140 -2.3092  0.2044  1.3939
  965MOL0     H30223   4.707   9.205   5.183 -1.0416  0.7626 -1.0869
  965MOL0     H30224   4.512   9.107   5.055  0.7291 -1.8758 -0.0724
  965MOL0     H30225   4.611   9.102   4.901  0.2019 -0.6557  0.0881
  965MOL0     H30226   4.578   9.411   5.160  1.9545  2.6630 -1.2676
  965MOL0     H30227   4.586   9.683   5.068 -1.8090  0.5766  1.5358
  965MOL0     H30228   4.539   9.693   4.899  0.0695  1.5542  0.6633
  965MOL0     H30229   4.297   9.636   4.996 -3.2342  4.5674 -0.2002
  965MOL0     H30230   4.359   9.797   5.032  1.2768  0.7545  2.2786
  965MOL0     H30231   4.444   9.715   5.251  0.0867 -3.1645  2.7709
  965MOL0     H30232   4.370   9.558   5.216 -0.1778  0.0072 -1.1323
  965MOL0     H30233   4.138   9.662   5.191  0.6867 -0.7707 -0.2184
  965MOL0     H30234   4.203   9.820   5.208 -2.8093 -0.2524  0.5602
  965MOL0     H30235   4.008   9.866   5.296 -0.0973 -0.3363 -0.1579
  965MOL0     H30236   3.930  10.168   5.343 -0.0740 -1.4750 -1.0840
  965MOL0     H30237   3.849  10.025   5.305  0.2435  3.3429 -2.2861
  965MOL0     H30238   3.818  10.110   5.460 -2.1470  1.8522 -2.7523
  965MOL0     H30239   3.934  10.201   5.983  0.5785 -0.0443 -2.9938
  965MOL0     H30240   3.873  10.417   6.111  0.3817 -0.7975  0.8568
  965MOL0     H30241   3.776  10.661   6.099  1.1829 -0.8195  1.2203
  965MOL0     H30242   3.864  10.814   6.054  1.5515 -0.6277  1.2611
  965MOL0     H30243   3.763  10.594   5.862  3.2861 -0.9232  3.6430
  965MOL0     H30244   3.672  10.741   5.909 -0.9442 -0.6527 -0.8663
  965MOL0     H30245   3.946  10.777   5.780 -0.1459  0.1307 -0.1090
  965MOL0     H30246   3.828  10.898   5.779 -0.1745  1.0613  0.1175
  965MOL0     H30247   3.774  10.631   5.646  1.6612  0.0003  3.3377
  965MOL0     H30248   3.681  10.772   5.623  0.1465  1.6155  0.2640
  965MOL0     H30249   3.777  10.716   5.423  1.8207  0.0494 -2.0425
  965MOL0     H30250   3.941  10.718   5.488  2.3109  3.4445  2.7327
  965MOL0     H30251   3.752  10.956   5.485 -0.5048  0.1483 -1.5083
  965MOL0     H30252   3.920  10.956   5.550  2.2252 -1.1395 -1.1628
  965MOL0     H30253   3.804  10.956   5.278 -0.0421  0.6508 -1.5320
  965MOL0     H30254   3.960  10.867   5.300 -2.5913  0.7248 -1.0357
  965MOL0     H30255   4.058  11.075   5.250 -2.2401 -0.5989 -3.0828
  965MOL0     H30256   4.040  11.076   5.424 -3.0638 -1.6509  1.9794
  965MOL0     H30257   4.143  10.627   5.853 -0.0935  0.8037  0.7371
  965MOL0     H30258   4.168  10.403   5.715 -1.1793  2.0732 -1.3667
  965MOL0     H30259   4.224  10.000   5.722 -3.1208  1.7830  1.3507
  965MOL0     H30260   4.291   9.806   5.611  1.5503  0.7681 -1.4523
  965MOL0     H30261   4.964   9.008   4.358 -0.0676  2.7303 -1.5891
  965MOL0     H30262   5.041   9.198   4.234  0.2371  0.0991 -1.3900
  965MOL0     H30263   5.337   9.652   4.233 -1.4570 -0.5386 -0.8605
  965MOL0     H30264   5.392   9.805   4.030 -0.1930  0.8520 -0.3263
  965MOL0     H30265   5.439   9.581   3.653  0.3886  0.4902 -0.7150
  965MOL0     H30266   5.288   9.659   3.622  0.6899  0.6420 -1.9397
  965MOL0     H30267   5.440   9.741   3.448  0.8009  2.6239 -2.3507
  965MOL0     H30268   5.545   9.805   3.563  0.7874 -0.7463 -0.0077
  965MOL0     H30269   5.416   9.992   3.601 -1.3706 -0.0709  1.3026
  965MOL0     H30270   5.282   9.914   3.637 -1.9201  2.9053 -2.2745
  965MOL0     H30271   5.232   9.881   3.381  2.3331 -3.3742  4.2475
  965MOL0     H30272   5.369   9.980   3.336  1.8777 -1.9945  1.9631
  965MOL0     H30273   5.051  10.248   3.447  1.4827  2.6617 -0.3350
  965MOL0     H30274   5.346   9.455   3.773  1.1166  0.9371 -1.0943
  965MOL0     H30275   5.295   9.330   3.966 -1.6742  0.4261 -0.3685
  966MOL0     O30276   0.831   2.460   8.620  0.1674 -0.3475  0.9371
  966MOL0     C30277   0.850   2.490   8.738 -0.2050 -0.5368 -0.1538
  966MOL0     O30278   0.967   2.479   8.816 -0.0897 -0.4754  0.5866
  966MOL0     C30279   1.079   2.426   8.762  0.6345  0.6061  0.0426
  966MOL0     C30280   1.079   2.299   8.717  0.6408  0.1894  0.0642
  966MOL0     C30281   1.197   2.241   8.657 -0.3634  0.0883 -0.2030
  966MOL0     C30282   1.312   2.318   8.635 -0.5489 -0.6528 -0.0410
  966MOL0     O30283   1.422   2.283   8.564  0.6898  0.1948  0.5566
  966MOL0     C30284   1.484   2.165   8.617 -0.0676 -0.2617  0.3585
  966MOL0     C30285   1.627   2.170   8.654 -0.0132 -0.4946  1.6463
  966MOL0     C30286   1.664   2.034   8.714 -0.9723  0.0597  0.9467
  966MOL0     C30287   1.811   2.008   8.712  0.6177  0.2396  0.0466
  966MOL0     C30288   1.855   1.866   8.773  0.1331  0.6345 -0.9165
  966MOL0     C30289   1.861   1.871   8.925  0.7876 -0.0520  0.1197
  966MOL0     C30290   1.962   1.774   8.984  0.3758  0.2530  0.2622
  966MOL0     C30291   2.000   1.834   9.119 -0.3184  0.0822  0.2546
  966MOL0     N30292   2.094   1.756   9.185 -0.2181 -0.3756 -0.6053
  966MOL0     C30293   2.225   1.791   9.201 -0.6001  0.4583  0.3594
  966MOL0     C30294   2.273   1.705   9.287  0.8458  0.7298 -0.2749
  966MOL0     C30295   2.409   1.724   9.345  0.3874 -0.1407 -0.1841
  966MOL0     C30296   2.401   1.819   9.469  0.1217 -0.3294 -0.3279
  966MOL0     C30297   2.505   1.805   9.573 -0.0913 -0.1509  0.1689
  966MOL0     C30298   2.635   1.898   9.558 -0.2364 -0.2819  0.9077
  966MOL0     O30299   2.607   2.041   9.598 -0.3419 -0.3493 -0.1176
  966MOL0     C30300   2.710   2.130   9.596 -0.1490 -0.3863  0.0785
  966MOL0     C30301   2.841   2.112   9.551 -0.1283 -0.2564 -0.2906
  966MOL0     C30302   2.942   2.211   9.562  0.5967  0.0871 -0.4237
  966MOL0     C30303   3.074   2.176   9.511 -0.1360  0.5305 -0.1163
  966MOL0     C30304   2.898   2.335   9.625  0.4702  0.6771 -1.0547
  966MOL0     C30305   3.000   2.438   9.636 -0.1007 -0.5761  0.0755
  966MOL0     O30306   3.070   2.464   9.518 -0.5261  0.9744 -1.0017
  966MOL0     C30307   3.197   2.522   9.519 -0.3878 -1.0610 -0.3591
  966MOL0     C30308   3.300   2.494   9.614 -0.0825 -0.6557 -0.4090
  966MOL0     C30309   3.429   2.537   9.579  0.1772  0.2067 -0.2253
  966MOL0     C30310   3.456   2.614   9.472 -0.7412  0.4436  0.0714
  966MOL0     O30311   3.587   2.667   9.434  1.3423  0.6582 -0.5604
  966MOL0     C30312   3.677   2.671   9.539 -0.9383 -0.9811  0.8919
  966MOL0     C30313   3.778   2.777   9.521 -0.0543  0.5936  0.5507
  966MOL0     C30314   3.881   2.765   9.399 -0.4762  0.0770 -0.5826
  966MOL0     C30315   4.007   2.839   9.422 -0.4666  0.8378  0.0505
  966MOL0     C30316   4.110   2.810   9.305 -0.3057 -0.3748  0.3034
  966MOL0     C30317   4.073   2.893   9.179 -0.3912 -0.4825  0.1669
  966MOL0     C30318   4.168   2.892   9.063  0.4024 -0.1812 -0.0807
  966MOL0     C30319   4.095   2.934   8.934  0.1159 -0.1497 -0.7165
  966MOL0    Cl30320   4.198   2.913   8.792 -0.1740  0.0146  0.0993
  966MOL0     C30321   3.356   2.634   9.380 -0.1903 -0.1911 -0.2843
  966MOL0     C30322   3.228   2.594   9.401  0.6298  0.1956 -0.3778
  966MOL0     O30323   3.031   2.474   9.749 -0.7249  0.5995 -0.5325
  966MOL0     C30324   2.762   2.350   9.672 -0.0146  0.4749  0.0229
  966MOL0     C30325   2.680   2.247   9.653 -0.0864  0.5335  0.5180
  966MOL0     N30326   2.165   1.621   9.331  0.7250 -0.5366  0.2508
  966MOL0     N30327   2.054   1.655   9.268  0.6482  0.2584 -1.2434
  966MOL0     C30328   1.307   2.448   8.675  0.4689  0.5799 -0.0434
  966MOL0     C30329   1.185   2.506   8.729 -0.0491  0.4594  0.3978
  966MOL0     C30330   0.730   2.527   8.810  0.7464 -0.3948 -0.4633
  966MOL0     C30331   0.740   2.596   8.930 -0.0412 -0.1212  0.6975
  966MOL0     C30332   0.632   2.620   9.018 -0.5964  0.7057 -0.0491
  966MOL0     C30333   0.504   2.590   8.985  0.2520  0.4121 -0.3541
  966MOL0     O30334   0.403   2.614   9.068 -0.1121  0.1709  0.2352
  966MOL0     C30335   0.274   2.552   9.051 -0.2450 -0.3142 -0.4241
  966MOL0     C30336   0.190   2.600   9.174  0.5780  0.8847  0.4705
  966MOL0     C30337   0.128   2.726   9.138 -0.2801 -1.3566  0.3621
  966MOL0     C30338   0.087   2.804   9.261 -0.1542 -0.0447 -0.6575
  966MOL0     C30339  -0.005   2.724   9.347  0.3626 -0.8979 -0.6825
  966MOL0     C30340  -0.079   2.663   9.417  0.4475 -0.2178 -0.3175
  966MOL0     C30341   0.487   2.522   8.861 -0.3590 -0.7786 -0.0313
  966MOL0     C30342   0.595   2.480   8.775 -1.0789  0.2571 -0.6234
  966MOL0     H30343   0.994   2.233   8.726  2.0900 -2.1073 -1.8854
  966MOL0     H30344   1.195   2.139   8.619  3.5282 -0.0561 -0.3932
  966MOL0     H30345   1.444   2.126   8.711  0.4928 -1.6676  0.0348
  966MOL0     H30346   1.461   2.096   8.535  2.2107  0.6181 -1.1115
  966MOL0     H30347   1.681   2.208   8.566  1.9969 -1.1701  2.5286
  966MOL0     H30348   1.644   2.242   8.735  0.1938 -1.1574  2.1929
  966MOL0     H30349   1.625   2.021   8.816 -0.4217 -0.5225  1.0912
  966MOL0     H30350   1.615   1.950   8.665  0.5081 -0.6836  0.6640
  966MOL0     H30351   1.833   2.002   8.605 -1.0839  0.7580 -0.3681
  966MOL0     H30352   1.874   2.084   8.758  0.5093  0.7650 -0.6447
  966MOL0     H30353   1.789   1.780   8.756  1.1982 -0.1024 -1.4103
  966MOL0     H30354   1.951   1.844   8.725 -0.5949  1.0906 -2.6577
  966MOL0     H30355   1.891   1.972   8.954  1.5452  0.9679 -3.7725
  966MOL0     H30356   1.761   1.844   8.963  2.7099 -0.4807  5.8432
  966MOL0     H30357   1.918   1.675   8.991  0.5766  0.1889  0.6202
  966MOL0     H30358   2.042   1.779   8.910 -2.1934 -2.0557 -2.9651
  966MOL0     H30359   1.912   1.856   9.179 -0.8594  0.7209 -0.7516
  966MOL0     H30360   2.050   1.927   9.091 -1.5195  0.7759  0.3987
  966MOL0     H30361   2.278   1.877   9.162  4.4533 -1.6057  1.7942
  966MOL0     H30362   2.438   1.638   9.406 -3.2179 -2.4182 -1.4312
  966MOL0     H30363   2.483   1.760   9.272  0.6923 -4.7851 -2.5360
  966MOL0     H30364   2.304   1.825   9.519  0.8929  1.0086  1.0871
  966MOL0     H30365   2.401   1.914   9.414 -5.3603  0.7564  0.9354
  966MOL0     H30366   2.540   1.701   9.577  1.8365  0.3703 -1.4196
  966MOL0     H30367   2.472   1.833   9.673  1.3173  0.0884  0.5959
  966MOL0     H30368   2.670   1.897   9.455  3.5742 -0.0376  2.0577
  966MOL0     H30369   2.713   1.859   9.624  0.8240  0.6560  0.2388
  966MOL0     H30370   2.867   2.018   9.502  3.5933  1.1018 -1.2546
  966MOL0     H30371   3.080   2.080   9.459  1.1813  0.1503  0.6876
  966MOL0     H30372   3.102   2.237   9.425  1.0167 -1.0952 -0.9545
  966MOL0     H30373   3.148   2.180   9.591  3.1449  3.0242 -2.9402
  966MOL0     H30374   3.284   2.443   9.707 -2.9559 -2.0038 -1.5350
  966MOL0     H30375   3.505   2.508   9.650  1.9280  2.1487 -1.2118
  966MOL0     H30376   3.618   2.702   9.626  1.9595  0.6006  2.4583
  966MOL0     H30377   3.723   2.572   9.546 -0.9875 -1.0911 -0.1495
  966MOL0     H30378   3.727   2.873   9.518  1.7617  1.5927  0.4729
  966MOL0     H30379   3.840   2.782   9.611  2.4287  3.1687 -1.1352
  966MOL0     H30380   3.839   2.806   9.307  3.5817  0.1436 -2.6204
  966MOL0     H30381   3.897   2.659   9.375  3.2075  0.3550  0.1389
  966MOL0     H30382   3.983   2.946   9.428  2.2843  1.5416 -0.1691
  966MOL0     H30383   4.046   2.804   9.518 -1.3623 -1.3682 -0.3387
  966MOL0     H30384   4.111   2.704   9.278  1.1710 -0.5136  0.8357
  966MOL0     H30385   4.208   2.838   9.344  0.3550 -2.0548 -0.0689
  966MOL0     H30386   3.971   2.869   9.147  0.2323 -3.2211  0.0097
  966MOL0     H30387   4.069   2.998   9.209  1.1647 -0.6137  0.9161
  966MOL0     H30388   4.208   2.790   9.058 -0.8488 -0.6461 -1.1219
  966MOL0     H30389   4.252   2.958   9.087 -0.8711  2.0066 -1.3035
  966MOL0     H30390   4.066   3.040   8.928 -0.3935 -0.2020  0.5409
  966MOL0     H30391   4.013   2.866   8.913 -0.0304 -0.6522  1.2902
  966MOL0     H30392   3.383   2.672   9.282 -2.4207  0.9568 -0.5323
  966MOL0     H30393   3.141   2.596   9.336 -0.2546  2.4998  0.7572
  966MOL0     H30394   2.720   2.440   9.715 -0.7280 -0.0744  0.4942
  966MOL0     H30395   2.580   2.256   9.695 -0.6605  2.1321 -1.0763
  966MOL0     H30396   1.398   2.505   8.657  0.3662  1.5103  2.1209
  966MOL0     H30397   1.180   2.613   8.750 -0.8921  0.6850 -0.8173
  966MOL0     H30398   0.837   2.631   8.962  0.6072 -1.5351  0.3473
  966MOL0     H30399   0.639   2.679   9.109 -2.4254  1.4534 -0.3399
  966MOL0     H30400   0.222   2.567   8.956  0.4840 -0.3125 -0.8275
  966MOL0     H30401   0.303   2.446   9.048  1.5036  0.0547  1.3974
  966MOL0     H30402   0.259   2.624   9.255 -0.1201  3.8860  0.3072
  966MOL0     H30403   0.114   2.525   9.195 -0.5555  1.2249 -1.9993
  966MOL0     H30404   0.045   2.719   9.068  1.1543 -1.8149 -1.3564
  966MOL0     H30405   0.210   2.780   9.091  1.0534 -1.1637  2.7744
  966MOL0     H30406   0.047   2.901   9.232  0.4726  1.3135  2.5989
  966MOL0     H30407   0.176   2.832   9.316 -0.4783  1.0528 -0.6717
  966MOL0     H30408  -0.153   2.616   9.478 -1.3874 -0.4522 -2.5987
  966MOL0     H30409   0.390   2.497   8.820 -0.4869 -0.8308  0.3042
  966MOL0     H30410   0.563   2.432   8.683 -1.1729 -0.2092 -0.3543
  967MOL0     O30411   9.753   3.974   7.752  0.3148  0.0354  1.1887
  967MOL0     C30412   9.723   4.037   7.849 -0.0097 -0.8379  0.2742
  967MOL0     O30413   9.753   4.016   7.981  0.1412 -0.0401 -0.1809
  967MOL0     C30414   9.857   3.926   7.992  0.0352 -0.0406  0.1885
  967MOL0     C30415   9.838   3.819   8.077 -0.8324  0.1141 -0.9867
  967MOL0     C30416   9.944   3.722   8.079  1.9252  0.3478  0.6560
  967MOL0     C30417  10.060   3.733   8.009 -0.1075 -0.6447  0.0479
  967MOL0     O30418  10.167   3.656   8.027 -0.0882 -0.2560  0.1262
  967MOL0     C30419  10.158   3.520   8.009  0.7230  0.1770  0.3937
  967MOL0     C30420  10.300   3.454   7.990  0.3287 -0.1146  0.7040
  967MOL0     C30421  10.385   3.518   7.876 -0.5271 -0.0089  0.5083
  967MOL0     C30422  10.516   3.449   7.846  0.4589 -1.0552  0.9555
  967MOL0     C30423  10.571   3.507   7.717  0.7140  1.2153 -0.8904
  967MOL0     C30424  10.611   3.399   7.625 -0.4944  0.4691 -0.5064
  967MOL0     C30425  10.734   3.315   7.674  0.2460  0.6274 -0.5182
  967MOL0     C30426  10.861   3.395   7.716  0.8133  0.7804  0.5181
  967MOL0     N30427  10.942   3.397   7.589  0.2095  0.0035 -0.1886
  967MOL0     C30428  11.023   3.289   7.546  0.0274  0.1877 -0.1311
  967MOL0     C30429  11.099   3.329   7.449 -0.1835  0.2497  0.0837
  967MOL0     C30430  11.202   3.265   7.361 -0.8520  0.0332  0.1353
  967MOL0     C30431  11.233   3.122   7.414  0.4255  0.4469  0.4270
  967MOL0     C30432  11.344   3.054   7.328  0.1688  0.5302 -0.9285
  967MOL0     C30433  11.470   3.045   7.402 -0.7324  0.4395 -0.5586
  967MOL0     O30434  11.577   2.966   7.339 -0.7901  0.1038  0.9062
  967MOL0     C30435  11.617   3.010   7.215  0.7855  0.1240 -0.0385
  967MOL0     C30436  11.631   2.915   7.113  0.6175 -0.2057 -0.3434
  967MOL0     C30437  11.677   2.944   6.988 -0.0967  0.2776 -0.8654
  967MOL0     C30438  11.681   2.836   6.876  0.2817  0.2006  0.1016
  967MOL0     C30439  11.728   3.078   6.960 -0.1926  0.1262 -0.4747
  967MOL0     C30440  11.777   3.131   6.834 -0.0051  1.1366  0.0140
  967MOL0     O30441  11.754   3.066   6.723  0.2954  0.0865 -0.8581
  967MOL0     C30442  11.831   3.103   6.615 -0.1434 -0.0174  0.4205
  967MOL0     C30443  11.785   3.198   6.518  0.2152  0.3443 -0.1168
  967MOL0     C30444  11.868   3.238   6.418 -0.0225 -0.3667 -0.1775
  967MOL0     C30445  12.000   3.191   6.401 -0.7126  0.9017 -0.1379
  967MOL0     O30446  12.075   3.232   6.294 -0.4367  0.1693  0.3880
  967MOL0     C30447  12.215   3.244   6.301 -0.2823  0.3311  0.9315
  967MOL0     C30448  12.264   3.356   6.204 -0.6623  1.0394  0.2765
  967MOL0     C30449  12.210   3.487   6.220  1.1034  0.4103 -0.4174
  967MOL0     C30450  12.056   3.499   6.195  1.0492 -1.1310 -0.7613
  967MOL0     C30451  12.011   3.638   6.161  0.2512 -0.7352  0.2375
  967MOL0     C30452  12.008   3.733   6.276  0.1820 -0.1168  0.1190
  967MOL0     C30453  11.946   3.877   6.233  0.2061  0.3345  0.7500
  967MOL0     C30454  11.928   3.954   6.357  0.2736  0.2000 -0.1296
  967MOL0    Cl30455  11.901   4.117   6.320 -0.0984 -0.3991 -0.3035
  967MOL0     C30456  12.045   3.098   6.501 -0.2183  0.4917 -0.2501
  967MOL0     C30457  11.957   3.051   6.605 -0.3836 -0.1135 -0.7029
  967MOL0     O30458  11.850   3.226   6.840  0.0918 -0.3735  0.0777
  967MOL0     C30459  11.722   3.171   7.066  0.2659  0.4858  0.2289
  967MOL0     C30460  11.673   3.137   7.191 -0.3480  0.8086  0.5041
  967MOL0     N30461  11.046   3.456   7.420  0.2460 -0.3747 -0.0635
  967MOL0     N30462  10.970   3.504   7.514  0.0211  0.8772 -0.8111
  967MOL0     C30463  10.073   3.842   7.928  0.4929  0.3627 -0.3165
  967MOL0     C30464   9.976   3.940   7.909 -0.2326  0.5522 -0.4682
  967MOL0     C30465   9.653   4.166   7.817  0.0939 -0.2757  1.0227
  967MOL0     C30466   9.643   4.219   7.687 -1.0902  0.6019  0.0688
  967MOL0     C30467   9.578   4.336   7.654  0.3723 -0.0885 -0.8690
  967MOL0     C30468   9.528   4.411   7.760 -0.4668 -0.4860 -0.0226
  967MOL0     O30469   9.463   4.533   7.746 -0.5910 -1.1657  0.4421
  967MOL0     C30470   9.412   4.574   7.621 -0.8079  0.8209 -0.3673
  967MOL0     C30471   9.292   4.663   7.627 -1.2631  0.0294  1.1520
  967MOL0     C30472   9.207   4.661   7.503 -0.1859 -0.2321 -0.1829
  967MOL0     C30473   9.225   4.796   7.418  0.0668 -0.4803  0.3795
  967MOL0     C30474   9.158   4.906   7.480  0.5025 -1.2619 -0.0091
  967MOL0     C30475   9.116   5.013   7.507 -0.2161 -0.2400  0.0119
  967MOL0     C30476   9.529   4.368   7.893  0.3636 -0.2317 -0.0640
  967MOL0     C30477   9.582   4.236   7.919 -0.0210  0.5625  0.2278
  967MOL0     H30478   9.749   3.813   8.138 -2.0418  0.3629 -2.6591
  967MOL0     H30479   9.930   3.642   8.151  2.1657  0.0926  0.4209
  967MOL0     H30480  10.104   3.481   8.097  0.1746  1.7603  0.7957
  967MOL0     H30481  10.092   3.503   7.924  1.8687 -0.9792 -0.2843
  967MOL0     H30482  10.362   3.465   8.079  0.3323 -1.6281  0.9146
  967MOL0     H30483  10.278   3.352   7.956  2.2765 -0.9044  1.6890
  967MOL0     H30484  10.321   3.507   7.788 -0.5693  2.9071  0.0789
  967MOL0     H30485  10.402   3.624   7.893 -1.1299 -0.0654  1.5415
  967MOL0     H30486  10.601   3.467   7.913  3.2743  0.3740 -2.6489
  967MOL0     H30487  10.493   3.343   7.832  0.7049 -1.0798  0.7091
  967MOL0     H30488  10.491   3.560   7.663 -2.2654  1.5387  3.3575
  967MOL0     H30489  10.647   3.583   7.733  0.3146  1.4556 -0.1291
  967MOL0     H30490  10.518   3.343   7.611 -0.0668 -0.9391  1.7359
  967MOL0     H30491  10.638   3.450   7.532 -2.0511  3.5257  0.5942
  967MOL0     H30492  10.705   3.253   7.759 -0.5830 -0.5625 -1.6219
  967MOL0     H30493  10.761   3.243   7.596 -1.5625  1.4546 -1.9780
  967MOL0     H30494  10.920   3.341   7.791  2.3380 -1.4931 -2.1436
  967MOL0     H30495  10.845   3.496   7.757  1.6351  0.8983  0.5660
  967MOL0     H30496  11.027   3.189   7.588 -0.2734 -0.1589 -0.9149
  967MOL0     H30497  11.160   3.256   7.260 -0.5674 -0.3034  0.0447
  967MOL0     H30498  11.299   3.314   7.354 -0.8209  0.5765  3.2372
  967MOL0     H30499  11.142   3.062   7.409  1.0666 -0.5734  0.5661
  967MOL0     H30500  11.252   3.119   7.522 -0.8030  3.2633  0.7949
  967MOL0     H30501  11.362   3.098   7.229  0.9872  0.1902 -0.9466
  967MOL0     H30502  11.324   2.948   7.310  4.7488 -0.4409 -1.6066
  967MOL0     H30503  11.441   2.994   7.494  0.7235  1.3162  0.4164
  967MOL0     H30504  11.513   3.143   7.423 -0.2884  0.1675 -0.1850
  967MOL0     H30505  11.598   2.814   7.134  1.9383 -0.4213  0.8609
  967MOL0     H30506  11.644   2.863   6.777  2.8025  2.0540 -0.4166
  967MOL0     H30507  11.787   2.823   6.851  0.7427  2.5716  0.6094
  967MOL0     H30508  11.637   2.739   6.902  2.9939 -0.7221  1.7258
  967MOL0     H30509  11.685   3.233   6.543 -0.2207 -1.4568  0.7646
  967MOL0     H30510  11.830   3.310   6.346  1.8690  0.2985 -0.5748
  967MOL0     H30511  12.236   3.277   6.403  2.5756 -2.1492  1.2703
  967MOL0     H30512  12.255   3.145   6.277  2.3868  1.6757 -0.6123
  967MOL0     H30513  12.370   3.362   6.228 -0.1648 -1.4072 -0.9526
  967MOL0     H30514  12.253   3.327   6.099  1.9325  0.9357 -0.0358
  967MOL0     H30515  12.270   3.550   6.152  0.3378  2.6249  0.8572
  967MOL0     H30516  12.237   3.524   6.319 -0.3148  0.6947 -0.1133
  967MOL0     H30517  12.032   3.444   6.104 -0.6263 -1.6478 -0.0465
  967MOL0     H30518  12.000   3.465   6.282  1.0399  0.1131 -0.2521
  967MOL0     H30519  11.910   3.639   6.119  1.2832  1.0496 -2.4332
  967MOL0     H30520  12.077   3.670   6.080 -0.1020 -1.4337 -0.3394
  967MOL0     H30521  11.950   3.695   6.361  0.1076  1.7978  0.9854
  967MOL0     H30522  12.109   3.764   6.305 -0.5085 -0.0398  2.7319
  967MOL0     H30523  11.846   3.857   6.195  0.4138 -0.5336  0.6270
  967MOL0     H30524  12.000   3.927   6.152  1.0967 -2.2007 -0.3487
  967MOL0     H30525  12.018   3.957   6.420 -2.7534  3.7079  4.7866
  967MOL0     H30526  11.854   3.910   6.423  2.6711 -0.1490  2.5143
  967MOL0     H30527  12.142   3.049   6.500 -0.3836  0.1465 -1.7006
  967MOL0     H30528  11.994   2.976   6.674 -0.2019  1.6535  1.2331
  967MOL0     H30529  11.746   3.274   7.043  0.3840  1.0759  2.6794
  967MOL0     H30530  11.682   3.206   7.274 -0.2683  0.0345  1.1475
  967MOL0     H30531  10.171   3.852   7.883  0.7654  0.7026  0.3315
  967MOL0     H30532   9.992   4.027   7.846 -0.2723 -0.9201 -2.6097
  967MOL0     H30533   9.670   4.160   7.599 -1.3088 -2.1800  1.7327
  967MOL0     H30534   9.563   4.373   7.553 -3.5433  1.8856  0.2260
  967MOL0     H30535   9.481   4.597   7.539 -1.9841  0.8341 -1.3798
  967MOL0     H30536   9.378   4.479   7.578  0.0610  0.6620 -0.7354
  967MOL0     H30537   9.314   4.769   7.642 -0.1847  0.0308 -0.2130
  967MOL0     H30538   9.242   4.628   7.718 -0.0861 -1.9052  1.1114
  967MOL0     H30539   9.104   4.656   7.539 -0.8367  4.2345 -0.8689
  967MOL0     H30540   9.233   4.571   7.447  0.5474 -0.8184  1.0471
  967MOL0     H30541   9.184   4.781   7.318 -2.1500 -0.5100  1.2365
  967MOL0     H30542   9.333   4.808   7.407  0.2712 -2.9755 -0.8689
  967MOL0     H30543   9.079   5.101   7.557 -0.5770 -0.3730 -0.0216
  967MOL0     H30544   9.479   4.430   7.967 -0.2389 -1.4902  0.6101
  967MOL0     H30545   9.551   4.183   8.009 -2.3744 -1.9361 -1.8745
  968MOL0     O30546   6.363  11.343   1.368 -0.3620  0.1810 -0.3287
  968MOL0     C30547   6.279  11.425   1.407  1.0262 -0.1559 -0.1924
  968MOL0     O30548   6.191  11.405   1.509  0.3885  0.3956 -0.0778
  968MOL0     C30549   6.188  11.278   1.556  0.4385 -0.1368 -0.3417
  968MOL0     C30550   6.106  11.184   1.487  0.0675 -0.3050  0.3330
  968MOL0     C30551   6.115  11.052   1.526 -0.6548  0.3303  0.3850
  968MOL0     C30552   6.194  11.006   1.627  0.4585  0.4071 -0.3587
  968MOL0     O30553   6.191  10.868   1.647 -0.3579  0.2755  0.0136
  968MOL0     C30554   6.286  10.806   1.729  0.9767  0.3615 -0.3176
  968MOL0     C30555   6.235  10.655   1.750  0.5735 -0.3383  0.2976
  968MOL0     C30556   6.100  10.655   1.822 -0.1049  0.5727  0.2205
  968MOL0     C30557   6.046  10.505   1.852 -0.1138 -0.2572 -0.1875
  968MOL0     C30558   5.911  10.522   1.905  1.1908  0.4902 -0.5720
  968MOL0     C30559   5.851  10.374   1.924 -0.6495 -0.3023 -0.1318
  968MOL0     C30560   5.728  10.384   2.021  0.3034  0.9527  0.3420
  968MOL0     C30561   5.762  10.426   2.165  0.1106  0.5880 -0.2196
  968MOL0     N30562   5.649  10.385   2.252  0.2534  0.5733 -0.7243
  968MOL0     C30563   5.514  10.422   2.242 -0.5676  0.1108 -0.3025
  968MOL0     C30564   5.458  10.343   2.332 -0.4450  0.0923 -0.6092
  968MOL0     C30565   5.317  10.353   2.392  0.2488  1.3057  0.5402
  968MOL0     C30566   5.307  10.429   2.524  0.1908  0.5710  0.6039
  968MOL0     C30567   5.306  10.582   2.516  0.3625 -1.8066 -0.0675
  968MOL0     C30568   5.369  10.639   2.645  0.4048  0.0816 -0.1312
  968MOL0     O30569   5.287  10.608   2.758 -0.2054  0.7552 -0.6625
  968MOL0     C30570   5.178  10.685   2.791  0.2137 -0.1116  0.1965
  968MOL0     C30571   5.130  10.662   2.920 -0.7998 -0.1027 -0.0055
  968MOL0     C30572   5.042  10.747   2.973  0.8742 -0.0858 -0.9609
  968MOL0     C30573   4.998  10.715   3.111 -0.1902  0.0437  0.4342
  968MOL0     C30574   4.973  10.842   2.900 -0.1539  0.3205 -0.0008
  968MOL0     C30575   4.857  10.929   2.947  0.1062  0.7320 -0.9218
  968MOL0     O30576   4.804  10.998   2.846  0.3263 -0.4047  0.0821
  968MOL0     C30577   4.705  11.089   2.863 -0.6057  0.0812  0.4644
  968MOL0     C30578   4.708  11.193   2.966  0.1392 -0.1214  0.7913
  968MOL0     C30579   4.616  11.303   2.939 -0.1281  0.1397 -1.1095
  968MOL0     C30580   4.521  11.303   2.836 -0.2833  0.5410 -0.4321
  968MOL0     O30581   4.434  11.405   2.803 -0.6385 -0.0845 -0.1862
  968MOL0     C30582   4.307  11.371   2.749  0.4393 -0.5216 -0.0875
  968MOL0     C30583   4.205  11.469   2.804  0.3486  0.3129 -0.7626
  968MOL0     C30584   4.229  11.619   2.781 -0.8226 -0.0991 -0.0188
  968MOL0     C30585   4.094  11.695   2.816  0.2503 -0.7317 -0.6744
  968MOL0     C30586   4.111  11.849   2.846  0.5178 -0.4807 -0.5185
  968MOL0     C30587   3.988  11.934   2.828  0.8660 -0.2844 -1.2316
  968MOL0     C30588   3.969  12.056   2.918  0.4172  0.1736 -0.3603
  968MOL0     C30589   3.826  12.106   2.925 -0.5484 -0.3193  0.3421
  968MOL0    Cl30590   3.803  12.224   2.790  0.2463  0.1204 -0.0703
  968MOL0     C30591   4.523  11.194   2.742 -0.4899 -0.3152  0.3907
  968MOL0     C30592   4.621  11.091   2.756 -0.3022  0.8911  0.3088
  968MOL0     O30593   4.825  10.928   3.060  1.0076 -0.4017  0.8231
  968MOL0     C30594   5.023  10.858   2.762  0.5061 -0.9684  0.9667
  968MOL0     C30595   5.124  10.780   2.706 -1.3053  0.1969  0.9872
  968MOL0     N30596   5.548  10.285   2.408  0.3568  1.0545 -0.4291
  968MOL0     N30597   5.665  10.305   2.358 -0.0378 -0.5365  0.2141
  968MOL0     C30598   6.274  11.101   1.699  0.1146  0.8884  0.1081
  968MOL0     C30599   6.270  11.236   1.657  0.3133 -0.4786 -0.2403
  968MOL0     C30600   6.272  11.547   1.327 -0.2203 -0.4190 -0.7440
  968MOL0     C30601   6.170  11.644   1.356 -1.4607 -0.0349 -0.1193
  968MOL0     C30602   6.174  11.773   1.291  0.6025  0.3077  0.4195
  968MOL0     C30603   6.260  11.800   1.194 -1.2673 -0.0710 -0.0010
  968MOL0     O30604   6.253  11.919   1.132  0.6649 -0.3517  1.2835
  968MOL0     C30605   6.358  11.956   1.039 -0.0967  0.0520  0.4847
  968MOL0     C30606   6.465  12.032   1.116  0.4168  0.1451 -0.1524
  968MOL0     C30607   6.408  12.135   1.220  0.0520  0.5736 -0.3903
  968MOL0     C30608   6.525  12.197   1.292  0.1411  0.6169 -0.2706
  968MOL0     C30609   6.559  12.133   1.418 -1.6223  0.2752  0.5937
  968MOL0     C30610   6.593  12.082   1.521  0.2267  0.1011  1.1071
  968MOL0     C30611   6.350  11.694   1.166  0.6156 -0.0203  0.5618
  968MOL0     C30612   6.363  11.570   1.227  0.3085  0.5642 -0.6311
  968MOL0     H30613   6.043  11.228   1.411  1.1682 -1.5642 -1.3737
  968MOL0     H30614   6.056  10.982   1.468 -0.2606 -0.1609  0.5683
  968MOL0     H30615   6.389  10.813   1.692  1.7391  0.7268  1.7375
  968MOL0     H30616   6.287  10.856   1.826  0.7310 -2.7316  1.3935
  968MOL0     H30617   6.227  10.609   1.651 -1.3906  0.2563  0.1418
  968MOL0     H30618   6.312  10.599   1.804 -1.2106 -1.0000  2.2864
  968MOL0     H30619   6.112  10.709   1.916 -2.1048 -1.6685  1.8910
  968MOL0     H30620   6.026  10.697   1.754  0.0970 -1.3000 -1.2327
  968MOL0     H30621   6.036  10.455   1.755  4.4094  0.4491 -1.2564
  968MOL0     H30622   6.118  10.449   1.911 -1.5305  0.1908  2.0647
  968MOL0     H30623   5.922  10.574   2.000  0.0190 -0.4876  0.1352
  968MOL0     H30624   5.842  10.581   1.844 -1.5672 -4.1990 -2.5850
  968MOL0     H30625   5.823  10.325   1.830  1.5157 -2.3705  0.1812
  968MOL0     H30626   5.925  10.306   1.968 -1.5517 -0.4603  1.2203
  968MOL0     H30627   5.643  10.439   1.979  0.4775  0.7040 -0.3522
  968MOL0     H30628   5.695  10.280   2.019  3.0677  0.0077 -1.4677
  968MOL0     H30629   5.771  10.535   2.156  0.3266  0.7319  1.4030
  968MOL0     H30630   5.855  10.381   2.200  0.7637  0.0652 -2.4279
  968MOL0     H30631   5.471  10.489   2.168 -0.2983 -1.4775 -1.9933
  968MOL0     H30632   5.255  10.417   2.329  1.3352  1.0820 -0.8033
  968MOL0     H30633   5.274  10.253   2.405  1.8645  0.2761 -1.4108
  968MOL0     H30634   5.384  10.390   2.591 -1.6839 -0.9505  1.9885
  968MOL0     H30635   5.213  10.413   2.577 -0.6732  2.7264 -0.1433
  968MOL0     H30636   5.203  10.614   2.496  0.7948 -1.2896 -1.5740
  968MOL0     H30637   5.361  10.623   2.431  0.5965  0.5041  1.1199
  968MOL0     H30638   5.381  10.748   2.639 -3.5544  0.7106  0.5989
  968MOL0     H30639   5.463  10.584   2.656 -1.1275 -2.8919 -0.9762
  968MOL0     H30640   5.175  10.580   2.974  3.6226  0.5670 -2.2161
  968MOL0     H30641   5.036  10.791   3.180 -2.7416 -0.3657  2.4194
  968MOL0     H30642   4.890  10.702   3.114 -0.0865 -1.3590 -0.7533
  968MOL0     H30643   5.034  10.618   3.147  1.9954  1.3774  2.1610
  968MOL0     H30644   4.780  11.208   3.047 -0.7581  3.8358  1.0511
  968MOL0     H30645   4.623  11.384   3.012 -1.7941 -2.0762  1.7256
  968MOL0     H30646   4.301  11.383   2.640 -0.1625 -0.4114 -0.0476
  968MOL0     H30647   4.273  11.272   2.782 -0.4703  0.0603  0.7824
  968MOL0     H30648   4.110  11.441   2.757  0.7581 -0.2836 -1.2560
  968MOL0     H30649   4.183  11.453   2.910  3.3190 -3.3981 -0.5247
  968MOL0     H30650   4.268  11.634   2.679  2.4198 -2.6740  0.6314
  968MOL0     H30651   4.314  11.648   2.844  0.4991  0.3834 -1.9217
  968MOL0     H30652   4.029  11.679   2.730  0.7466 -1.2497 -0.9634
  968MOL0     H30653   4.054  11.648   2.907  0.8058 -0.5107 -0.3101
  968MOL0     H30654   4.173  11.889   2.765  0.7071 -0.6498 -0.4581
  968MOL0     H30655   4.167  11.858   2.939  4.3479  3.2326 -2.8021
  968MOL0     H30656   3.969  11.971   2.727 -1.6404 -1.6924 -1.3517
  968MOL0     H30657   3.905  11.874   2.867 -1.3973  3.5770  0.5470
  968MOL0     H30658   4.039  12.134   2.886 -0.1440  0.8183 -0.0396
  968MOL0     H30659   4.013  12.018   3.011  4.5279  1.1695 -1.7098
  968MOL0     H30660   3.816  12.167   3.015  1.1996 -1.5847  1.4586
  968MOL0     H30661   3.756  12.022   2.924  2.1129 -2.6473  0.2393
  968MOL0     H30662   4.460  11.202   2.654  0.4362  1.8159 -0.1401
  968MOL0     H30663   4.635  11.025   2.671 -3.0115  0.0960  0.3922
  968MOL0     H30664   4.982  10.939   2.703  1.5846 -0.0619  1.4371
  968MOL0     H30665   5.137  10.785   2.599 -3.9432 -2.8356  0.3766
  968MOL0     H30666   6.339  11.059   1.774 -0.0290 -1.6946 -1.0999
  968MOL0     H30667   6.350  11.294   1.701  0.3592 -2.9726  3.4143
  968MOL0     H30668   6.090  11.616   1.424 -0.3697  2.5035  2.4054
  968MOL0     H30669   6.113  11.856   1.326  0.8618 -0.5173  3.0132
  968MOL0     H30670   6.407  11.871   0.992  0.0491 -0.8337  2.1443
  968MOL0     H30671   6.321  12.008   0.951  1.4125  2.1589  1.0003
  968MOL0     H30672   6.533  12.080   1.044  3.4446 -1.1802  1.5985
  968MOL0     H30673   6.527  11.964   1.175 -0.9314 -0.3095  0.7544
  968MOL0     H30674   6.338  12.089   1.291  1.0578 -0.9930 -0.3486
  968MOL0     H30675   6.351  12.213   1.170  2.1523  1.5299 -1.4108
  968MOL0     H30676   6.508  12.301   1.323  1.7915  1.1106 -0.9252
  968MOL0     H30677   6.612  12.197   1.226  0.1572  1.1485 -0.2529
  968MOL0     H30678   6.610  12.030   1.613 -0.9916  0.1351  1.3765
  968MOL0     H30679   6.434  11.710   1.100  0.3949 -0.6166  0.1243
  968MOL0     H30680   6.444  11.502   1.200  2.2553  1.5179  2.2178
  969MOL0     O30681   2.879   9.040  10.925  0.3143 -0.2854 -0.1466
  969MOL0     C30682   2.962   9.010  11.009 -0.0951  0.5458  0.3670
  969MOL0     O30683   3.061   8.903  11.011 -0.4621  0.2281 -0.5469
  969MOL0     C30684   3.115   8.851  10.892  0.7612 -0.8278 -0.2680
  969MOL0     C30685   3.078   8.893  10.764 -0.0650 -0.5936  0.1748
  969MOL0     C30686   3.142   8.825  10.660 -0.6948 -0.2556  1.0038
  969MOL0     C30687   3.234   8.723  10.677  0.2486  0.3976  0.1050
  969MOL0     O30688   3.313   8.672  10.571 -0.6435 -1.2339 -0.1665
  969MOL0     C30689   3.271   8.678  10.430 -0.2801 -0.7248  0.6294
  969MOL0     C30690   3.369   8.594  10.338  0.2044 -0.4965 -0.2559
  969MOL0     C30691   3.323   8.588  10.191  0.8252 -0.5191  0.1511
  969MOL0     C30692   3.430   8.523  10.099 -0.5497 -0.1307 -0.6619
  969MOL0     C30693   3.380   8.489   9.966  0.5267  0.3346 -0.2653
  969MOL0     C30694   3.476   8.402   9.880 -0.1990 -0.4387  0.5820
  969MOL0     C30695   3.411   8.304   9.781 -0.0448  0.8080 -0.5174
  969MOL0     C30696   3.344   8.381   9.662  0.2688 -0.1145  1.1653
  969MOL0     N30697   3.285   8.289   9.571  0.2597 -0.5903 -0.2394
  969MOL0     C30698   3.345   8.264   9.446  0.0760 -0.3411 -0.1547
  969MOL0     C30699   3.268   8.164   9.404  0.4779 -0.4850 -0.0767
  969MOL0     C30700   3.294   8.088   9.277 -0.4115  0.0802  0.4566
  969MOL0     C30701   3.177   8.085   9.180  0.3985 -0.5729  0.2854
  969MOL0     C30702   3.206   8.111   9.037 -0.8883  0.0673  0.7240
  969MOL0     C30703   3.236   8.255   9.029  0.4553  0.1395 -0.5021
  969MOL0     O30704   3.232   8.274   8.885 -0.2993 -0.0833  0.6175
  969MOL0     C30705   3.278   8.397   8.853 -0.6325 -0.5681  0.2769
  969MOL0     C30706   3.208   8.516   8.842 -0.1382 -0.3238 -0.3164
  969MOL0     C30707   3.270   8.641   8.803 -0.7132  0.1641  0.3381
  969MOL0     C30708   3.184   8.760   8.778  0.5315  0.0533  1.0453
  969MOL0     C30709   3.416   8.641   8.774  0.4195  1.1796  0.1698
  969MOL0     C30710   3.491   8.737   8.699  0.8809 -0.1758 -0.1400
  969MOL0     O30711   3.623   8.711   8.661 -0.3125  0.3963 -0.3523
  969MOL0     C30712   3.687   8.777   8.562  0.0165  0.9647  0.4033
  969MOL0     C30713   3.807   8.712   8.503  0.9901  0.4516 -0.0974
  969MOL0     C30714   3.882   8.777   8.406  0.1224 -0.8457  0.7714
  969MOL0     C30715   3.853   8.905   8.360  0.6537  0.3559  0.3925
  969MOL0     O30716   3.940   8.956   8.258  0.6758  0.1375 -0.8094
  969MOL0     C30717   3.910   9.087   8.205  0.5033  0.3497  0.7388
  969MOL0     C30718   4.029   9.146   8.135 -0.4470 -0.5121 -0.2268
  969MOL0     C30719   4.122   9.226   8.225 -0.2058 -0.3043  0.8350
  969MOL0     C30720   4.248   9.264   8.141  0.0274 -0.7699 -0.9237
  969MOL0     C30721   4.333   9.355   8.235 -0.5958 -0.2506 -0.0076
  969MOL0     C30722   4.476   9.376   8.190 -0.6900  0.3820 -0.1462
  969MOL0     C30723   4.569   9.247   8.184  1.3351 -0.4052 -0.4618
  969MOL0     C30724   4.714   9.290   8.219  0.5608 -0.0656 -1.0780
  969MOL0    Cl30725   4.804   9.145   8.280  0.3720 -0.1202  0.2309
  969MOL0     C30726   3.734   8.964   8.412  0.5717  0.8794  0.2710
  969MOL0     C30727   3.650   8.899   8.503 -0.2487 -0.0450 -0.4349
  969MOL0     O30728   3.431   8.838   8.669 -0.7809  0.1156 -0.1702
  969MOL0     C30729   3.483   8.520   8.792  0.1595 -0.2576 -0.4481
  969MOL0     C30730   3.414   8.405   8.832  0.3550  0.5296 -0.4412
  969MOL0     N30731   3.160   8.148   9.488  0.7611 -0.3515  0.3779
  969MOL0     N30732   3.165   8.221   9.585  0.1003 -0.4787 -0.2532
  969MOL0     C30733   3.256   8.677  10.801 -0.8726 -0.4107 -0.2388
  969MOL0     C30734   3.187   8.741  10.914 -0.0968  0.1705  0.5547
  969MOL0     C30735   2.939   9.072  11.140 -0.3076  0.0572  0.6606
  969MOL0     C30736   2.840   9.164  11.154  0.0371 -0.0302 -0.0297
  969MOL0     C30737   2.797   9.204  11.280 -0.6869  0.3907 -0.9115
  969MOL0     C30738   2.869   9.156  11.393 -0.0078  0.2537 -0.3371
  969MOL0     O30739   2.825   9.177  11.513  0.4739  0.2204 -0.1927
  969MOL0     C30740   2.724   9.267  11.552  0.3665  0.8389 -0.1704
  969MOL0     C30741   2.665   9.248  11.689  0.6737 -0.1648 -1.0617
  969MOL0     C30742   2.766   9.279  11.795 -0.7824 -1.2392 -0.6586
  969MOL0     C30743   2.788   9.428  11.814  0.2374  1.0618 -0.1926
  969MOL0     C30744   2.901   9.436  11.914 -0.1043 -0.3883 -0.6409
  969MOL0     C30745   2.991   9.445  11.996 -0.7170  0.5006  0.0794
  969MOL0     C30746   2.975   9.067  11.374 -0.0218 -0.1146  0.5133
  969MOL0     C30747   3.007   9.016  11.250  0.2123  0.0241 -0.0930
  969MOL0     H30748   3.019   8.983  10.750  0.4505 -0.4066 -0.9607
  969MOL0     H30749   3.121   8.870  10.564 -0.2615 -0.8917  0.6115
  969MOL0     H30750   3.179   8.619  10.424 -0.7181  0.0500 -0.6527
  969MOL0     H30751   3.263   8.784  10.404 -0.1631 -0.6997  0.6966
  969MOL0     H30752   3.471   8.633  10.343  0.2349 -0.5588 -0.3847
  969MOL0     H30753   3.378   8.493  10.379  3.3678  1.1914  3.9949
  969MOL0     H30754   3.233   8.527  10.185 -0.2473  0.8244  1.6090
  969MOL0     H30755   3.302   8.691  10.158 -0.3785 -0.5835  0.6502
  969MOL0     H30756   3.510   8.597  10.092  0.8622 -1.4492  0.9352
  969MOL0     H30757   3.474   8.434  10.143 -1.2828 -1.0029 -1.6319
  969MOL0     H30758   3.285   8.439   9.987  1.3347 -1.5593 -0.8785
  969MOL0     H30759   3.349   8.580   9.913  0.5668 -1.6684 -4.0690
  969MOL0     H30760   3.555   8.458   9.828 -0.6894  0.6756  1.0061
  969MOL0     H30761   3.532   8.337   9.948 -0.3941 -0.9732  0.2373
  969MOL0     H30762   3.478   8.231   9.736  1.4883  4.0578 -4.0258
  969MOL0     H30763   3.340   8.249   9.844  0.9741  0.9676  0.8206
  969MOL0     H30764   3.425   8.431   9.609 -1.4814  1.4603 -0.1723
  969MOL0     H30765   3.276   8.464   9.687  0.0181 -0.6951  2.4971
  969MOL0     H30766   3.438   8.298   9.401  0.4472  0.3554  1.0894
  969MOL0     H30767   3.388   8.115   9.228 -1.7247 -0.2888 -2.4752
  969MOL0     H30768   3.297   7.980   9.292 -0.2750  0.2313  1.5416
  969MOL0     H30769   3.107   8.164   9.208  0.5332 -0.4121  0.1731
  969MOL0     H30770   3.122   7.991   9.185  0.6089 -1.2485 -4.7890
  969MOL0     H30771   3.117   8.091   8.978 -1.1443  3.8169 -0.4164
  969MOL0     H30772   3.292   8.056   8.996 -0.1891  0.9461  0.9735
  969MOL0     H30773   3.339   8.270   9.062  1.2183 -1.6665 -1.8943
  969MOL0     H30774   3.160   8.321   9.074  3.2587  3.1063  0.2515
  969MOL0     H30775   3.106   8.514   8.880 -0.8356 -1.0611 -2.1045
  969MOL0     H30776   3.160   8.776   8.673  0.1224 -2.3032  0.7336
  969MOL0     H30777   3.092   8.758   8.837  1.1348  1.9535  2.1805
  969MOL0     H30778   3.233   8.851   8.815 -2.1516  3.0526 -2.0720
  969MOL0     H30779   3.836   8.614   8.541 -0.4378 -0.4165 -1.1197
  969MOL0     H30780   3.972   8.729   8.369  0.3571 -3.7802  4.5971
  969MOL0     H30781   3.827   9.078   8.134  2.3423 -0.0215 -1.4603
  969MOL0     H30782   3.878   9.160   8.281  0.7683  2.3578 -0.9766
  969MOL0     H30783   4.089   9.070   8.084 -0.6270 -0.5502 -0.3860
  969MOL0     H30784   3.983   9.216   8.064  0.1401 -1.9834 -2.1528
  969MOL0     H30785   4.145   9.157   8.307 -2.0273 -1.1378  0.6872
  969MOL0     H30786   4.075   9.316   8.266 -0.6558 -0.6846  1.1678
  969MOL0     H30787   4.302   9.176   8.105  0.0722 -0.6244 -1.2126
  969MOL0     H30788   4.226   9.329   8.056 -2.1727  2.6132  1.9351
  969MOL0     H30789   4.322   9.321   8.338 -1.9417  2.6227  0.8998
  969MOL0     H30790   4.280   9.451   8.234 -0.6560 -0.2826  0.1391
  969MOL0     H30791   4.478   9.432   8.096  1.5626  3.4944  1.5786
  969MOL0     H30792   4.517   9.437   8.271  0.2487 -1.8629  1.1528
  969MOL0     H30793   4.584   9.198   8.087 -1.9860 -0.0114 -1.3067
  969MOL0     H30794   4.524   9.185   8.262  0.0885 -0.4201 -1.1620
  969MOL0     H30795   4.716   9.361   8.302  2.2154  1.1186 -2.0659
  969MOL0     H30796   4.767   9.333   8.133  1.6805 -0.6278 -0.6803
  969MOL0     H30797   3.705   9.056   8.363 -0.3771  0.1923 -0.4884
  969MOL0     H30798   3.568   8.958   8.541 -3.1066 -2.6501 -2.1473
  969MOL0     H30799   3.591   8.518   8.774  0.1549 -1.3193 -0.4286
  969MOL0     H30800   3.468   8.312   8.838  2.1956  1.6495  2.2081
  969MOL0     H30801   3.316   8.590  10.825  0.2841 -0.2684 -2.3490
  969MOL0     H30802   3.219   8.700  11.009  0.2861 -3.9235 -1.1328
  969MOL0     H30803   2.785   9.205  11.070  1.6776 -0.9713 -1.6290
  969MOL0     H30804   2.713   9.268  11.306  0.8340  1.0652  3.2233
  969MOL0     H30805   2.767   9.366  11.533  0.4395  0.8500  0.0524
  969MOL0     H30806   2.639   9.246  11.486  0.4820  0.4939 -0.2123
  969MOL0     H30807   2.622   9.148  11.681 -0.6251  0.3990 -1.4553
  969MOL0     H30808   2.590   9.325  11.710  0.4103 -0.3960 -1.1402
  969MOL0     H30809   2.859   9.230  11.765  2.2145  3.5273 -0.0775
  969MOL0     H30810   2.740   9.230  11.890  1.4484  1.8826  1.7450
  969MOL0     H30811   2.696   9.477  11.846  1.7272  4.3377 -0.5950
  969MOL0     H30812   2.818   9.477  11.721  1.5297 -1.8988 -1.4779
  969MOL0     H30813   3.072   9.454  12.065  0.4028 -1.5763 -0.8940
  969MOL0     H30814   3.028   9.031  11.462  2.0743  3.7028  1.0618
  969MOL0     H30815   3.084   8.941  11.234 -0.0679  0.2428 -2.9283
  970MOL0     O30816   7.228   8.897   6.774  0.0797  0.1577 -0.1374
  970MOL0     C30817   7.231   8.996   6.853 -0.5313 -0.2854 -0.1777
  970MOL0     O30818   7.175   9.004   6.979 -0.4107  0.1209 -0.1761
  970MOL0     C30819   7.083   8.914   7.028  0.4113  0.9209 -0.6757
  970MOL0     C30820   7.070   8.898   7.166 -1.2189  0.0030 -0.5260
  970MOL0     C30821   6.992   8.802   7.236  0.7087 -0.0510 -0.6992
  970MOL0     C30822   6.922   8.709   7.157  0.2067 -0.2153 -1.3273
  970MOL0     O30823   6.850   8.605   7.213  0.4970 -1.4437 -0.1838
  970MOL0     C30824   6.872   8.567   7.344 -0.1875  0.3365 -0.0635
  970MOL0     C30825   6.806   8.439   7.362 -0.0284 -0.8112 -0.8549
  970MOL0     C30826   6.884   8.371   7.473 -0.2628 -0.3573  0.6869
  970MOL0     C30827   6.823   8.236   7.496 -0.2745  0.2073  0.6857
  970MOL0     C30828   6.891   8.165   7.624 -0.4064 -0.8116  0.4690
  970MOL0     C30829   6.820   8.034   7.659  0.9939  0.2163  0.2307
  970MOL0     C30830   6.785   7.930   7.546  0.7989 -0.7877 -0.4856
  970MOL0     C30831   6.742   7.794   7.598  0.4295 -0.0974 -0.4292
  970MOL0     N30832   6.610   7.795   7.672 -0.6004 -0.2066  1.0361
  970MOL0     C30833   6.583   7.846   7.794  1.1298 -0.0643 -0.4712
  970MOL0     C30834   6.466   7.786   7.831 -0.8305 -1.1992  0.6045
  970MOL0     C30835   6.374   7.812   7.952 -0.3476 -0.1669  0.2002
  970MOL0     C30836   6.439   7.880   8.073  1.0529 -0.0139 -0.2430
  970MOL0     C30837   6.437   8.031   8.054 -0.4195 -0.6434 -0.1554
  970MOL0     C30838   6.556   8.101   8.129 -0.3027 -1.1475  0.5635
  970MOL0     O30839   6.679   8.086   8.059 -1.0913 -0.0021 -0.4380
  970MOL0     C30840   6.789   8.158   8.103  0.5717  0.6912  0.1596
  970MOL0     C30841   6.903   8.144   8.019 -0.5373 -0.0305 -0.5801
  970MOL0     C30842   7.022   8.219   8.039  0.0491  1.2816  0.3781
  970MOL0     C30843   7.142   8.201   7.948 -0.1979 -0.5539 -1.0165
  970MOL0     C30844   7.027   8.293   8.165 -0.7068  0.2755 -0.1762
  970MOL0     C30845   7.148   8.371   8.215  0.7928 -0.4667  0.8584
  970MOL0     O30846   7.169   8.377   8.352  0.2383 -1.2180 -0.1537
  970MOL0     C30847   7.236   8.491   8.399  0.1624  1.0872 -0.3305
  970MOL0     C30848   7.200   8.623   8.367 -0.3655  0.2210  0.4194
  970MOL0     C30849   7.273   8.737   8.403 -0.6213 -0.3363  0.7035
  970MOL0     C30850   7.385   8.716   8.481 -0.5164 -0.2784 -0.7563
  970MOL0     O30851   7.468   8.817   8.524  0.5880 -0.7225  0.2207
  970MOL0     C30852   7.423   8.902   8.630 -0.9975  0.2049  0.4748
  970MOL0     C30853   7.536   8.993   8.647  0.5197  0.6820 -0.5195
  970MOL0     C30854   7.493   9.126   8.708 -0.7485 -1.0014 -0.1011
  970MOL0     C30855   7.605   9.200   8.781 -0.1810  0.0326  0.0579
  970MOL0     C30856   7.571   9.333   8.836 -0.0331 -0.2174 -0.2973
  970MOL0     C30857   7.705   9.405   8.879  0.2249 -0.2960  0.6327
  970MOL0     C30858   7.774   9.335   9.008  0.5394  0.1150  0.1519
  970MOL0     C30859   7.890   9.410   9.066 -0.3405 -0.4617  0.0886
  970MOL0    Cl30860   8.031   9.412   8.957 -0.0960  0.6336 -0.0453
  970MOL0     C30861   7.435   8.587   8.514  0.1308 -0.0291 -0.1234
  970MOL0     C30862   7.355   8.482   8.462  0.3135  0.2230  0.5184
  970MOL0     O30863   7.210   8.434   8.127 -1.5935 -0.2352 -0.4104
  970MOL0     C30864   6.908   8.305   8.248  0.1205 -0.4347  0.4683
  970MOL0     C30865   6.789   8.252   8.210 -0.6299  0.0267  0.5161
  970MOL0     N30866   6.417   7.712   7.723  0.5705 -1.0610  0.6822
  970MOL0     N30867   6.502   7.721   7.628  0.2292 -0.2547  0.8055
  970MOL0     C30868   6.922   8.727   7.020 -0.0882 -0.5624  0.5193
  970MOL0     C30869   7.003   8.828   6.955 -0.0258  0.3602 -0.0663
  970MOL0     C30870   7.312   9.110   6.804 -0.1313 -0.8796 -1.5030
  970MOL0     C30871   7.375   9.106   6.681  0.0131 -0.5808 -0.2791
  970MOL0     C30872   7.440   9.218   6.633 -0.7766 -0.6140  0.8822
  970MOL0     C30873   7.441   9.328   6.711 -0.0202  0.1858 -0.6443
  970MOL0     O30874   7.515   9.429   6.669  0.3601 -0.6690  0.6829
  970MOL0     C30875   7.433   9.547   6.633 -0.2795  0.5905 -0.1436
  970MOL0     C30876   7.514   9.633   6.538  0.0289 -0.3785 -0.4497
  970MOL0     C30877   7.641   9.695   6.603  0.0667 -0.0543  0.4828
  970MOL0     C30878   7.731   9.768   6.504  0.0239 -0.2449  0.7188
  970MOL0     C30879   7.660   9.893   6.463  0.0058 -1.0612 -0.2204
  970MOL0     C30880   7.591   9.979   6.412  0.9163  0.3788 -0.3763
  970MOL0     C30881   7.395   9.333   6.842  0.7439 -0.6517 -0.6981
  970MOL0     C30882   7.318   9.227   6.885 -0.4418  0.0375  0.1447
  970MOL0     H30883   7.123   8.972   7.226 -2.3537  1.2250 -0.9735
  970MOL0     H30884   6.976   8.802   7.343 -1.8370  0.0904 -1.0279
  970MOL0     H30885   6.976   8.560   7.379 -0.3704 -1.5336  0.1789
  970MOL0     H30886   6.829   8.644   7.409  1.2634  3.2547 -2.3612
  970MOL0     H30887   6.706   8.469   7.395  0.7482  3.2160 -1.6666
  970MOL0     H30888   6.806   8.373   7.274  3.9252  0.2000 -1.8165
  970MOL0     H30889   6.985   8.360   7.434 -0.6826  2.4335 -1.5097
  970MOL0     H30890   6.893   8.432   7.564  2.9345  0.0525  0.1867
  970MOL0     H30891   6.715   8.250   7.506 -0.4345  2.5925 -2.6886
  970MOL0     H30892   6.852   8.179   7.408  1.9456  3.3608 -0.8318
  970MOL0     H30893   6.999   8.158   7.613 -0.0753  4.0532 -1.9563
  970MOL0     H30894   6.881   8.243   7.700  1.6497  0.0781 -0.1329
  970MOL0     H30895   6.885   7.970   7.720 -0.0173 -1.9546 -0.8409
  970MOL0     H30896   6.736   8.066   7.720  1.6085  0.5083  0.9350
  970MOL0     H30897   6.709   7.976   7.483  3.5518  2.8736 -1.5417
  970MOL0     H30898   6.872   7.913   7.482  1.2941 -1.1923  0.2786
  970MOL0     H30899   6.820   7.744   7.657 -1.4735 -0.9716  1.4925
  970MOL0     H30900   6.728   7.731   7.510 -2.7495 -0.5545  0.2697
  970MOL0     H30901   6.648   7.907   7.856  1.3629 -2.1466  1.4941
  970MOL0     H30902   6.285   7.864   7.917 -0.1027 -0.8816 -1.6151
  970MOL0     H30903   6.351   7.710   7.984 -0.1620 -1.8583 -4.2938
  970MOL0     H30904   6.538   7.844   8.105 -0.0043 -2.8120  0.1900
  970MOL0     H30905   6.380   7.848   8.159 -0.3083  0.6701 -0.8851
  970MOL0     H30906   6.346   8.079   8.091 -0.7162 -1.1513 -0.2167
  970MOL0     H30907   6.445   8.041   7.945  2.7561 -2.8419 -0.2684
  970MOL0     H30908   6.564   8.059   8.229 -0.6026  2.3215  2.1804
  970MOL0     H30909   6.529   8.207   8.133  1.1206 -0.4834 -2.9867
  970MOL0     H30910   6.887   8.075   7.937  0.7378 -0.8289 -0.1889
  970MOL0     H30911   7.186   8.299   7.927  2.2882 -1.4989 -0.5029
  970MOL0     H30912   7.216   8.141   8.000  0.0239  0.4927 -0.0924
  970MOL0     H30913   7.112   8.145   7.859 -1.2421 -1.9158  0.1540
  970MOL0     H30914   7.113   8.639   8.304 -0.5259  1.4210  0.9078
  970MOL0     H30915   7.235   8.837   8.388 -1.3205 -0.4014  1.9058
  970MOL0     H30916   7.341   8.966   8.596  0.9376  1.7258 -1.6356
  970MOL0     H30917   7.404   8.848   8.723 -1.2325  1.8651  1.4337
  970MOL0     H30918   7.596   8.950   8.727 -0.5741  0.6546  0.3109
  970MOL0     H30919   7.604   9.002   8.561  2.3482  0.7894  0.8732
  970MOL0     H30920   7.409   9.102   8.775 -1.4463  0.4289 -0.4432
  970MOL0     H30921   7.453   9.180   8.623 -0.3820 -3.2590 -1.8051
  970MOL0     H30922   7.641   9.142   8.866  0.8284  2.1990  1.1853
  970MOL0     H30923   7.691   9.209   8.713  1.0427  1.1127  1.6802
  970MOL0     H30924   7.494   9.333   8.914  1.7082  1.7024  1.5758
  970MOL0     H30925   7.517   9.387   8.758 -1.3563 -3.6023 -1.9044
  970MOL0     H30926   7.772   9.411   8.793  0.3759  2.1757  0.8507
  970MOL0     H30927   7.680   9.505   8.916 -4.9261 -0.7457 -0.9056
  970MOL0     H30928   7.827   9.245   8.976  2.1802  2.2422 -3.9115
  970MOL0     H30929   7.698   9.327   9.086  0.0795  3.1055  0.1381
  970MOL0     H30930   7.935   9.365   9.154 -0.4664 -1.5083 -0.3722
  970MOL0     H30931   7.863   9.510   9.102  2.2436 -0.6032  2.8100
  970MOL0     H30932   7.527   8.573   8.569 -0.8102 -0.9655  1.2908
  970MOL0     H30933   7.387   8.379   8.474  3.4031  1.0456  0.3745
  970MOL0     H30934   6.911   8.352   8.346 -1.5067  0.2749  0.2159
  970MOL0     H30935   6.704   8.276   8.273  0.0823  0.3920  1.3617
  970MOL0     H30936   6.864   8.659   6.958  2.4156 -1.9223 -0.4645
  970MOL0     H30937   7.019   8.822   6.848 -0.4846  0.0685 -0.1203
  970MOL0     H30938   7.370   9.028   6.606 -1.8998  0.3428 -1.1677
  970MOL0     H30939   7.487   9.221   6.536 -0.5601  2.1588  0.9854
  970MOL0     H30940   7.342   9.508   6.588 -1.4578 -0.6157  2.9794
  970MOL0     H30941   7.411   9.591   6.731  0.3926 -1.0658  0.8104
  970MOL0     H30942   7.459   9.721   6.506 -3.1363 -1.9929  0.1505
  970MOL0     H30943   7.540   9.573   6.451  2.6682  0.3493 -0.2526
  970MOL0     H30944   7.698   9.615   6.651 -3.3150 -1.1481  3.0131
  970MOL0     H30945   7.618   9.765   6.683  0.5360  2.9052 -1.7959
  970MOL0     H30946   7.765   9.711   6.417 -2.0794 -1.5233  0.6674
  970MOL0     H30947   7.829   9.788   6.549  0.1512  1.8429 -0.3445
  970MOL0     H30948   7.515  10.045   6.376  1.2299  1.0573  0.1911
  970MOL0     H30949   7.399   9.425   6.901  0.6633 -1.1793  0.1481
  970MOL0     H30950   7.276   9.243   6.983  0.3176  2.3096  0.1392
  971MOL0     O30951   7.056  11.176   1.956 -0.2961  0.8971 -0.0404
  971MOL0     C30952   6.987  11.156   2.046  0.5232 -0.4453  0.4818
  971MOL0     O30953   6.874  11.228   2.078 -0.0133  0.1286  0.5668
  971MOL0     C30954   6.826  11.331   1.997  0.8107  0.3722 -0.9690
  971MOL0     C30955   6.784  11.306   1.866  0.0904 -0.3803  0.9449
  971MOL0     C30956   6.737  11.413   1.797  0.3065 -0.3948 -0.0914
  971MOL0     C30957   6.730  11.540   1.849  0.8689 -0.2246  0.8797
  971MOL0     O30958   6.684  11.650   1.790  0.2016 -0.2946 -0.1113
  971MOL0     C30959   6.744  11.676   1.658 -0.3000 -0.0209  0.5619
  971MOL0     C30960   6.657  11.630   1.539 -0.6845 -0.3313 -0.2074
  971MOL0     C30961   6.708  11.717   1.408  0.8716  0.2822  0.7043
  971MOL0     C30962   6.820  11.645   1.328 -0.6410  0.7353 -0.7016
  971MOL0     C30963   6.905  11.731   1.236 -1.4464 -0.4866  0.7702
  971MOL0     C30964   6.829  11.792   1.116  0.6990  0.6961 -0.1982
  971MOL0     C30965   6.923  11.838   1.013  0.7575 -0.2469  1.2321
  971MOL0     C30966   6.843  11.859   0.874  0.5363 -1.1401 -0.4296
  971MOL0     N30967   6.793  11.755   0.781 -0.9946  0.0153  0.5010
  971MOL0     C30968   6.873  11.688   0.702 -1.1682  0.6249  0.1133
  971MOL0     C30969   6.795  11.629   0.610  0.0698  0.4461  0.1416
  971MOL0     C30970   6.854  11.537   0.506  0.7036 -0.3144  0.0631
  971MOL0     C30971   6.917  11.631   0.405 -0.2246 -0.2579  1.4422
  971MOL0     C30972   6.839  11.692   0.285 -0.1294  0.5595  0.2097
  971MOL0     C30973   6.939  11.749   0.182  0.7041 -0.0668  0.6741
  971MOL0     O30974   6.861  11.840   0.098 -0.0382  0.6935  0.2255
  971MOL0     C30975   6.770  11.787   0.009  0.6341  0.2127  0.1909
  971MOL0     C30976   6.635  11.837   0.003  1.1948 -0.4065  0.3692
  971MOL0     C30977   6.546  11.784  -0.097  0.1621  0.1950  0.3941
  971MOL0     C30978   6.392  11.828  -0.092 -0.0570  0.0274 -0.1671
  971MOL0     C30979   6.587  11.670  -0.174 -0.0475  0.1236 -0.1205
  971MOL0     C30980   6.490  11.589  -0.261  0.4673 -0.5454 -0.4127
  971MOL0     O30981   6.369  11.640  -0.315 -0.2152 -0.3596  1.2868
  971MOL0     C30982   6.305  11.566  -0.416  0.4195 -0.3688  0.0498
  971MOL0     C30983   6.191  11.499  -0.385  0.3548 -0.2837 -0.5013
  971MOL0     C30984   6.133  11.404  -0.483 -0.0167 -0.3321  0.6967
  971MOL0     C30985   6.219  11.361  -0.588  0.0373  0.5773 -0.7166
  971MOL0     O30986   6.179  11.249  -0.643  0.0758 -0.0264 -0.0418
  971MOL0     C30987   6.155  11.258  -0.785  0.7818  0.2946  0.2856
  971MOL0     C30988   6.259  11.177  -0.863  1.7191  0.2891 -0.3046
  971MOL0     C30989   6.206  11.157  -0.998  0.5430  0.3431  0.2062
  971MOL0     C30990   6.308  11.088  -1.097 -0.3808  0.1156 -0.8394
  971MOL0     C30991   6.275  11.126  -1.243  0.7025 -0.6201 -0.3976
  971MOL0     C30992   6.339  11.258  -1.275  0.8935  0.4470 -0.2137
  971MOL0     C30993   6.326  11.297  -1.418 -0.8861  0.3587 -0.1909
  971MOL0     C30994   6.445  11.398  -1.470  0.7944 -0.3926 -0.4298
  971MOL0    Cl30995   6.389  11.559  -1.420 -0.0652 -0.2481  0.0593
  971MOL0     C30996   6.341  11.417  -0.612  1.0973  1.7937 -0.1830
  971MOL0     C30997   6.376  11.530  -0.529  0.3332 -0.4030  0.1187
  971MOL0     O30998   6.528  11.480  -0.274  0.4011  0.4387  0.2489
  971MOL0     C30999   6.725  11.617  -0.161 -1.1250  0.1001 -0.2535
  971MOL0     C31000   6.811  11.684  -0.076 -0.2317  0.2424 -0.8671
  971MOL0     N31001   6.661  11.664   0.641 -0.2494  0.3336  1.1039
  971MOL0     N31002   6.670  11.738   0.746 -0.0965 -0.1957 -0.6044
  971MOL0     C31003   6.773  11.560   1.981 -0.0694 -1.0211  0.3699
  971MOL0     C31004   6.824  11.458   2.048 -0.1512 -0.4177 -1.3901
  971MOL0     C31005   7.025  11.043   2.131  0.1213 -0.3921 -0.3456
  971MOL0     C31006   6.942  10.997   2.231  0.7527 -0.0834 -0.3629
  971MOL0     C31007   6.979  10.875   2.299 -0.5589  0.0524 -0.2705
  971MOL0     C31008   7.105  10.805   2.275 -0.5267  0.9914 -0.4376
  971MOL0     O31009   7.134  10.694   2.353  0.5439 -0.2613  0.6475
  971MOL0     C31010   7.247  10.613   2.331 -0.2187  0.3713 -0.1538
  971MOL0     C31011   7.378  10.681   2.396  0.5037 -0.4475  0.4046
  971MOL0     C31012   7.377  10.703   2.539 -0.4024 -0.0970 -0.5085
  971MOL0     C31013   7.502  10.787   2.594 -1.0839  0.6401  0.1837
  971MOL0     C31014   7.493  10.814   2.741 -0.1546 -0.3293 -0.4781
  971MOL0     C31015   7.486  10.866   2.855  0.2277  0.0625 -0.0739
  971MOL0     C31016   7.186  10.852   2.169  0.7017  0.0631 -0.4993
  971MOL0     C31017   7.151  10.974   2.118 -0.2016 -0.5062  0.0119
  971MOL0     H31018   6.790  11.212   1.812  0.8880  1.7802 -3.1777
  971MOL0     H31019   6.708  11.385   1.696  0.2004 -1.6281  0.2661
  971MOL0     H31020   6.761  11.782   1.635 -1.1665 -0.0029 -0.0682
  971MOL0     H31021   6.846  11.637   1.656  1.4564  3.9749 -1.0112
  971MOL0     H31022   6.659  11.521   1.532 -3.0972 -0.6279  2.1477
  971MOL0     H31023   6.550  11.651   1.544 -0.6468  0.1984 -1.3508
  971MOL0     H31024   6.629  11.757   1.344  2.6186  1.0788 -1.0872
  971MOL0     H31025   6.767  11.805   1.436 -0.9542  1.8361 -0.0986
  971MOL0     H31026   6.892  11.612   1.402  1.9485 -1.2238 -3.8409
  971MOL0     H31027   6.795  11.553   1.275  4.8205 -2.8355  2.0802
  971MOL0     H31028   6.953  11.807   1.299 -3.3154  0.1461  1.4822
  971MOL0     H31029   6.982  11.665   1.194 -2.5944 -0.7539 -1.0056
  971MOL0     H31030   6.773  11.709   1.071 -0.9254  2.1511 -0.9402
  971MOL0     H31031   6.770  11.878   1.148  0.7964  0.5512  0.3964
  971MOL0     H31032   6.971  11.931   1.043  1.4422  0.4828 -1.7474
  971MOL0     H31033   7.010  11.775   0.990 -0.3757 -0.7288 -2.3550
  971MOL0     H31034   6.892  11.922   0.799 -0.8957  2.1865  1.1960
  971MOL0     H31035   6.757  11.917   0.909  1.7236 -0.6353  1.8419
  971MOL0     H31036   6.980  11.679   0.718 -1.3646 -2.1745  0.3522
  971MOL0     H31037   6.935  11.471   0.539  0.8582 -0.4764 -0.6176
  971MOL0     H31038   6.773  11.486   0.453 -0.6699  1.9100 -0.1310
  971MOL0     H31039   7.003  11.580   0.362 -0.4684  0.7831 -0.3868
  971MOL0     H31040   6.954  11.717   0.462 -1.2534  2.8089 -2.1243
  971MOL0     H31041   6.767  11.771   0.312  0.7208  1.4247  0.0104
  971MOL0     H31042   6.788  11.608   0.238  1.5341 -1.7040  2.2082
  971MOL0     H31043   6.974  11.665   0.121 -3.1538 -0.1136 -1.8323
  971MOL0     H31044   7.029  11.798   0.221 -1.5931  2.9117  2.6229
  971MOL0     H31045   6.605  11.924   0.061 -1.1099  1.0423 -2.6818
  971MOL0     H31046   6.363  11.903  -0.167  1.4035 -1.7823 -2.6776
  971MOL0     H31047   6.342  11.734  -0.117  1.7059 -0.3976 -2.4633
  971MOL0     H31048   6.365  11.868   0.006  0.9405  1.7965 -0.5651
  971MOL0     H31049   6.150  11.530  -0.290 -0.4058 -1.1002 -0.5414
  971MOL0     H31050   6.034  11.363  -0.465 -0.9716  1.2070 -0.7699
  971MOL0     H31051   6.056  11.217  -0.806  0.5274  1.4232 -0.8479
  971MOL0     H31052   6.153  11.364  -0.814  0.3464  1.4002  3.8133
  971MOL0     H31053   6.357  11.226  -0.865  2.9900 -2.1237 -0.2779
  971MOL0     H31054   6.273  11.078  -0.819  0.8189  0.6245  0.7752
  971MOL0     H31055   6.161  11.249  -1.037 -3.1935 -1.8431 -1.2238
  971MOL0     H31056   6.113  11.099  -0.998  0.3132  0.6120 -1.8273
  971MOL0     H31057   6.410  11.112  -1.065 -0.5275  1.2516 -1.1701
  971MOL0     H31058   6.310  10.979  -1.093  0.9630  0.1526  0.4285
  971MOL0     H31059   6.168  11.137  -1.261  0.1722 -3.4789  0.4788
  971MOL0     H31060   6.325  11.059  -1.313 -0.9400 -1.7150 -0.5766
  971MOL0     H31061   6.291  11.341  -1.221 -2.4831 -0.5007 -1.5352
  971MOL0     H31062   6.442  11.242  -1.243  1.1352  4.2154  1.5610
  971MOL0     H31063   6.226  11.337  -1.441 -1.2611  0.6721  1.7938
  971MOL0     H31064   6.333  11.206  -1.478 -0.5600  0.7739 -0.7976
  971MOL0     H31065   6.452  11.388  -1.579  2.1021  0.9551 -0.5027
  971MOL0     H31066   6.539  11.373  -1.420  1.2745  3.8262  1.1804
  971MOL0     H31067   6.413  11.365  -0.674  2.6256  0.3809  2.5992
  971MOL0     H31068   6.475  11.571  -0.550 -0.2015 -0.5782 -3.4624
  971MOL0     H31069   6.761  11.529  -0.214  1.7162  3.1100 -3.8419
  971MOL0     H31070   6.910  11.640  -0.070 -0.3149  0.2038  2.1080
  971MOL0     H31071   6.761  11.664   2.008  1.9100 -0.6073 -0.1395
  971MOL0     H31072   6.866  11.476   2.147 -4.5151 -1.6515  0.9347
  971MOL0     H31073   6.845  11.040   2.255 -0.1648 -1.9842 -0.5058
  971MOL0     H31074   6.912  10.830   2.371 -0.3897 -1.2490 -0.8906
  971MOL0     H31075   7.222  10.511   2.362 -2.7750 -0.4227 -4.1373
  971MOL0     H31076   7.266  10.592   2.226 -2.8554 -1.3999 -0.3731
  971MOL0     H31077   7.400  10.770   2.338  1.2767 -0.9802 -0.1314
  971MOL0     H31078   7.449  10.600   2.375 -0.7045 -1.6458  0.7741
  971MOL0     H31079   7.403  10.609   2.589  0.1472  0.3155 -0.0007
  971MOL0     H31080   7.288  10.759   2.571 -0.4826  0.5035 -1.7079
  971MOL0     H31081   7.516  10.874   2.530 -0.2376 -0.5963 -1.3920
  971MOL0     H31082   7.594  10.732   2.573 -1.6375  0.7133 -3.0385
  971MOL0     H31083   7.487  10.899   2.957 -2.9739  0.5099 -0.0817
  971MOL0     H31084   7.273  10.804   2.126 -0.1275  0.0912 -2.2760
  971MOL0     H31085   7.225  11.028   2.061  0.0325 -0.3407  0.4688
  972MOL0     O31086   9.673  11.182   4.001 -0.0910  0.0550 -0.2032
  972MOL0     C31087   9.668  11.071   3.950 -0.1925 -0.2525 -0.2653
  972MOL0     O31088   9.588  11.042   3.840  0.0444 -0.0151 -0.1843
  972MOL0     C31089   9.505  11.132   3.792 -0.8432  0.3604  0.0210
  972MOL0     C31090   9.386  11.162   3.858 -0.5246  0.5651 -0.2601
  972MOL0     C31091   9.299  11.255   3.797 -0.9557  0.8832  0.0958
  972MOL0     C31092   9.335  11.323   3.682 -0.2812 -0.8737  0.8818
  972MOL0     O31093   9.247  11.412   3.637  0.8708  0.0999 -0.2550
  972MOL0     C31094   9.256  11.442   3.493 -0.4465  0.4486  0.2473
  972MOL0     C31095   9.147  11.536   3.440 -0.9294  0.3310  0.8212
  972MOL0     C31096   9.008  11.467   3.448 -0.1060  0.9214  0.2961
  972MOL0     C31097   8.888  11.553   3.395 -0.5936  0.9440  0.0748
  972MOL0     C31098   8.749  11.502   3.441  0.1512  0.1373 -0.2636
  972MOL0     C31099   8.717  11.366   3.375 -0.1145  0.2142  0.8718
  972MOL0     C31100   8.567  11.318   3.381  0.7598  0.5564  0.5780
  972MOL0     C31101   8.527  11.313   3.527  0.1307  0.0607  0.0348
  972MOL0     N31102   8.416  11.225   3.552  0.3980  0.7702 -0.1400
  972MOL0     C31103   8.326  11.251   3.649  0.6152  0.3313 -0.9293
  972MOL0     C31104   8.230  11.152   3.618  0.0311  0.4422  0.5101
  972MOL0     C31105   8.102  11.150   3.685  0.3332  1.0389  0.1964
  972MOL0     C31106   7.971  11.133   3.600 -0.2408  0.5931 -0.2448
  972MOL0     C31107   7.937  11.243   3.496  0.1959 -0.0426 -0.1760
  972MOL0     C31108   8.039  11.270   3.393 -0.3661 -0.3209 -0.2049
  972MOL0     O31109   7.981  11.319   3.270 -0.1499  0.4678 -0.1664
  972MOL0     C31110   7.987  11.465   3.255 -0.5454  0.1690  0.7437
  972MOL0     C31111   7.963  11.507   3.121 -0.1318  1.2072  0.0738
  972MOL0     C31112   7.967  11.640   3.083  1.1074  0.9155 -0.0985
  972MOL0     C31113   7.944  11.670   2.934  0.0531  0.6800 -0.3294
  972MOL0     C31114   7.980  11.742   3.178 -0.7101  0.5013  0.0437
  972MOL0     C31115   7.994  11.898   3.153  0.8599  0.6500  0.1162
  972MOL0     O31116   8.067  11.934   3.045  0.1499 -0.2214 -0.7362
  972MOL0     C31117   8.046  12.057   3.010  0.6312  0.1035  1.3307
  972MOL0     C31118   8.112  12.169   3.058 -0.3253 -0.7129 -1.3034
  972MOL0     C31119   8.092  12.294   3.001 -0.2040  0.8582  0.5303
  972MOL0     C31120   8.006  12.305   2.885 -0.4944  0.2077 -0.6899
  972MOL0     O31121   7.969  12.426   2.828 -0.3685  0.5069 -0.7259
  972MOL0     C31122   8.036  12.542   2.879 -1.1517  0.6110 -0.2186
  972MOL0     C31123   7.986  12.663   2.805  0.1251 -0.8553 -1.4547
  972MOL0     C31124   8.025  12.804   2.869 -0.2818  0.0623  0.5231
  972MOL0     C31125   7.934  12.916   2.814 -0.3535 -0.2609 -0.6204
  972MOL0     C31126   8.025  13.042   2.843  0.3215 -0.3646  0.9573
  972MOL0     C31127   7.973  13.163   2.771  0.8443 -0.2666  0.6337
  972MOL0     C31128   8.072  13.275   2.735 -0.0600 -0.7588 -0.4679
  972MOL0     C31129   8.160  13.327   2.863  0.2868 -0.1275  0.1053
  972MOL0    Cl31130   8.055  13.354   3.005  0.2662  0.0201  0.5879
  972MOL0     C31131   7.943  12.185   2.839  0.6179 -1.1651  1.0057
  972MOL0     C31132   7.967  12.062   2.896  0.3618  0.2267  0.0657
  972MOL0     O31133   7.937  11.976   3.230  0.4174 -0.1534  0.5400
  972MOL0     C31134   7.999  11.694   3.315 -0.1051 -0.7300  0.6195
  972MOL0     C31135   8.004  11.559   3.354  0.9822 -0.3412 -1.6233
  972MOL0     N31136   8.279  11.071   3.517 -0.2639 -0.0245 -0.3869
  972MOL0     N31137   8.385  11.121   3.472  0.6038  1.0778  0.2417
  972MOL0     C31138   9.464  11.305   3.627  0.2034  0.1251 -0.9542
  972MOL0     C31139   9.543  11.203   3.682  0.1699  0.6512 -0.2381
  972MOL0     C31140   9.760  10.964   4.001  0.6754 -0.5185  0.0384
  972MOL0     C31141   9.767  10.839   3.936 -0.2766 -0.5513  0.2891
  972MOL0     C31142   9.860  10.752   3.981  0.1958  0.0064 -0.2372
  972MOL0     C31143   9.953  10.784   4.081  0.6580  0.0268 -0.8892
  972MOL0     O31144  10.056  10.691   4.112 -0.7160  0.8231 -0.4684
  972MOL0     C31145  10.097  10.613   3.998  0.0186 -1.5726  0.3649
  972MOL0     C31146  10.241  10.595   4.004  0.2654 -0.7677  0.7282
  972MOL0     C31147  10.290  10.518   3.881  0.4848  0.1403  0.2915
  972MOL0     C31148  10.427  10.462   3.879  0.6510  0.1129  0.0235
  972MOL0     C31149  10.452  10.376   3.765 -0.3003  0.5952  0.1506
  972MOL0     C31150  10.483  10.304   3.668  0.4946  0.5936 -1.3048
  972MOL0     C31151   9.937  10.909   4.151 -0.4392 -0.5421 -0.3658
  972MOL0     C31152   9.847  11.002   4.109 -0.2337 -0.9982 -0.5242
  972MOL0     H31153   9.356  11.123   3.955  2.8228 -0.4850  0.4794
  972MOL0     H31154   9.198  11.269   3.834  0.1129 -3.0630  5.8995
  972MOL0     H31155   9.355  11.487   3.476  0.8728 -1.6753  1.8360
  972MOL0     H31156   9.251  11.352   3.431  3.9229  1.8180 -2.6289
  972MOL0     H31157   9.140  11.621   3.509 -0.7279  1.7067 -0.7780
  972MOL0     H31158   9.171  11.564   3.337 -1.4907  0.6923  0.7851
  972MOL0     H31159   9.013  11.376   3.388 -0.1059  0.3042  1.2274
  972MOL0     H31160   8.995  11.450   3.555  1.2544 -0.9636  0.2034
  972MOL0     H31161   8.901  11.652   3.441 -1.4189 -0.0147  2.5590
  972MOL0     H31162   8.891  11.563   3.286  0.0546  1.3313  0.1190
  972MOL0     H31163   8.754  11.497   3.550  1.1488 -0.8003 -0.3336
  972MOL0     H31164   8.671  11.576   3.422 -2.1654 -0.6342  4.6440
  972MOL0     H31165   8.739  11.377   3.268  0.0277  0.4774  0.9286
  972MOL0     H31166   8.782  11.288   3.418  2.6585  0.9937 -1.5661
  972MOL0     H31167   8.493  11.375   3.323 -2.6882 -3.4449  0.5603
  972MOL0     H31168   8.564  11.215   3.345 -0.3774  0.8573 -0.2465
  972MOL0     H31169   8.500  11.415   3.559 -1.1094 -0.9911  2.6101
  972MOL0     H31170   8.598  11.284   3.605  1.2478  0.6378 -0.7455
  972MOL0     H31171   8.317  11.331   3.721  1.2285  2.2362 -2.8759
  972MOL0     H31172   8.099  11.065   3.754 -3.3475  0.5319 -0.3808
  972MOL0     H31173   8.094  11.242   3.744 -2.4314  0.4482  0.8789
  972MOL0     H31174   7.884  11.128   3.667  0.0544  0.6975  0.1535
  972MOL0     H31175   7.968  11.044   3.537  1.4131 -2.1357  3.1644
  972MOL0     H31176   7.898  11.334   3.542 -0.8195 -0.4643 -0.1820
  972MOL0     H31177   7.846  11.205   3.450 -0.8735  0.8672  1.1133
  972MOL0     H31178   8.096  11.180   3.369 -0.3731 -0.7275  1.2067
  972MOL0     H31179   8.110  11.339   3.440 -1.4772  0.2342  0.6979
  972MOL0     H31180   7.937  11.441   3.038  1.4318 -0.3218  0.7246
  972MOL0     H31181   7.847  11.717   2.915  0.0753  0.7158 -0.3567
  972MOL0     H31182   8.016  11.736   2.883 -0.7838  1.1819 -0.8982
  972MOL0     H31183   7.958  11.578   2.877 -3.5111 -0.1189 -0.1508
  972MOL0     H31184   8.177  12.155   3.144  0.8931 -1.0477 -2.2594
  972MOL0     H31185   8.130  12.383   3.051  2.0346 -0.5358  1.4480
  972MOL0     H31186   8.029  12.561   2.986 -0.0488  1.5352 -0.3025
  972MOL0     H31187   8.144  12.533   2.865 -0.8056  2.4623  0.9896
  972MOL0     H31188   8.024  12.650   2.703 -0.5448 -3.3991 -1.4392
  972MOL0     H31189   7.877  12.659   2.803 -0.0427 -0.3466  1.6020
  972MOL0     H31190   8.130  12.826   2.847 -0.4948  4.2778  2.7068
  972MOL0     H31191   8.018  12.808   2.978 -1.6719  1.2842  0.4109
  972MOL0     H31192   7.907  12.897   2.710 -1.9560 -0.9625 -0.1081
  972MOL0     H31193   7.839  12.925   2.867 -1.7908  0.7059 -3.1520
  972MOL0     H31194   8.119  13.019   2.791 -0.2186  1.5511 -1.0368
  972MOL0     H31195   8.032  13.052   2.952 -0.9010  1.4185  0.9146
  972MOL0     H31196   7.956  13.123   2.670  1.0757  2.0143 -0.3744
  972MOL0     H31197   7.873  13.187   2.808  0.4215 -3.9933  2.3504
  972MOL0     H31198   7.999  13.350   2.705  0.7906 -0.2895 -1.4168
  972MOL0     H31199   8.145  13.249   2.658  0.1677  0.2691 -0.6099
  972MOL0     H31200   8.201  13.423   2.832  1.3102  0.3022  2.5926
  972MOL0     H31201   8.242  13.258   2.885 -0.9227 -3.1387 -3.6840
  972MOL0     H31202   7.884  12.201   2.749  1.4474 -0.0689  0.6260
  972MOL0     H31203   7.940  11.972   2.842  0.8959  1.8665 -3.1836
  972MOL0     H31204   8.016  11.767   3.393  1.3309 -1.8175  1.3995
  972MOL0     H31205   8.008  11.535   3.460  0.1397 -0.5633 -1.6336
  972MOL0     H31206   9.495  11.356   3.536 -1.3834 -3.1264 -3.5428
  972MOL0     H31207   9.645  11.195   3.645 -0.4243 -2.1141 -1.5581
  972MOL0     H31208   9.694  10.810   3.862 -1.4752  0.5119  1.0039
  972MOL0     H31209   9.862  10.651   3.942 -0.3302 -0.2394  0.3790
  972MOL0     H31210  10.037  10.523   3.991 -2.3050 -0.5316  4.0449
  972MOL0     H31211  10.068  10.654   3.901 -3.3834 -0.8316  1.5680
  972MOL0     H31212  10.268  10.545   4.098  0.8113  0.3554  1.1861
  972MOL0     H31213  10.295  10.690   3.993  0.2065 -0.6889  1.0921
  972MOL0     H31214  10.290  10.591   3.799 -0.3329  2.0617  1.9188
  972MOL0     H31215  10.217  10.437   3.866  0.2299  0.3636  0.3124
  972MOL0     H31216  10.454  10.407   3.969  3.3514  1.5532  0.1989
  972MOL0     H31217  10.496  10.547   3.876 -0.5214  1.0713 -1.4521
  972MOL0     H31218  10.489  10.232   3.589 -4.1928 -1.2364 -0.3325
  972MOL0     H31219   9.993  10.938   4.239 -0.5723 -0.0425 -0.4427
  972MOL0     H31220   9.840  11.093   4.167  3.1458  0.4631 -2.1974
  973MOL0     O31221   9.773   4.217   2.043  0.7252 -1.2118  0.1243
  973MOL0     C31222   9.748   4.326   2.090  0.5502 -0.2521  0.6565
  973MOL0     O31223   9.710   4.343   2.214  0.5360 -0.5968  0.7883
  973MOL0     C31224   9.710   4.243   2.314  0.6814  0.1568  1.0198
  973MOL0     C31225   9.641   4.271   2.434 -0.4650  0.1744 -0.0143
  973MOL0     C31226   9.651   4.182   2.542  0.1282 -0.7191 -0.2398
  973MOL0     C31227   9.710   4.053   2.538 -0.3560 -0.1389 -0.4387
  973MOL0     O31228   9.705   3.959   2.638 -0.1546 -0.2571  0.1155
  973MOL0     C31229   9.815   3.869   2.662  0.4432  0.0605 -0.1075
  973MOL0     C31230   9.822   3.848   2.815 -0.5872  0.1221  1.0104
  973MOL0     C31231   9.721   3.741   2.859  0.0580 -1.1063  0.7255
  973MOL0     C31232   9.711   3.744   3.010  0.5270  1.1058  0.1311
  973MOL0     C31233   9.605   3.641   3.051  0.0619  0.2814 -0.0968
  973MOL0     C31234   9.647   3.496   3.016 -0.4570  0.4731  0.2016
  973MOL0     C31235   9.560   3.408   3.111 -0.6594 -0.1890 -0.0910
  973MOL0     C31236   9.419   3.397   3.048 -0.0779 -0.4586 -0.1677
  973MOL0     N31237   9.406   3.305   2.927  0.0865 -0.3765  0.6027
  973MOL0     C31238   9.510   3.218   2.893  0.5953  0.8747  0.7461
  973MOL0     C31239   9.458   3.148   2.790  0.6731 -0.5293 -0.1026
  973MOL0     C31240   9.507   3.024   2.716  0.0114 -0.2040  0.3702
  973MOL0     C31241   9.654   3.042   2.662 -0.2212 -0.1650  0.5761
  973MOL0     C31242   9.652   3.140   2.549  0.0284  0.8850  0.1182
  973MOL0     C31243   9.701   3.079   2.419 -0.6220  0.0147  0.5526
  973MOL0     O31244   9.675   3.164   2.309 -0.3477 -1.1020 -0.8692
  973MOL0     C31245   9.676   3.114   2.180  0.2202 -0.5456 -0.7934
  973MOL0     C31246   9.744   2.998   2.138 -0.3429 -0.0859  0.4759
  973MOL0     C31247   9.752   2.960   2.003 -0.0484  0.0166  0.8877
  973MOL0     C31248   9.844   2.847   1.968 -0.0486 -1.5452  0.0035
  973MOL0     C31249   9.696   3.049   1.908  0.0375 -0.1481  0.4425
  973MOL0     C31250   9.708   3.025   1.766 -0.4441  0.2287  0.4264
  973MOL0     O31251   9.599   2.958   1.712 -0.2995  0.2507  0.9359
  973MOL0     C31252   9.630   2.903   1.583 -0.8543  0.2597  0.2835
  973MOL0     C31253   9.600   2.768   1.575  0.2625  0.1674 -0.1910
  973MOL0     C31254   9.608   2.707   1.455  0.6249  0.3139  0.5309
  973MOL0     C31255   9.645   2.774   1.337 -0.4591  0.1803 -1.1039
  973MOL0     O31256   9.665   2.707   1.218 -0.7213 -0.0645  0.2623
  973MOL0     C31257   9.563   2.619   1.179 -0.1934  0.0411 -0.1098
  973MOL0     C31258   9.607   2.556   1.040  0.6730 -0.4695 -0.7254
  973MOL0     C31259   9.508   2.459   0.981 -0.3905  0.7907 -0.0626
  973MOL0     C31260   9.494   2.329   1.063 -0.1886 -0.7045 -0.2876
  973MOL0     C31261   9.430   2.222   0.968  0.3985 -0.3851 -0.2269
  973MOL0     C31262   9.444   2.091   1.039 -0.0757  0.0167 -0.4632
  973MOL0     C31263   9.340   2.075   1.156 -1.4553  0.3908  0.0710
  973MOL0     C31264   9.388   1.967   1.254  0.2495  0.0084  1.1480
  973MOL0    Cl31265   9.305   1.968   1.420 -0.2725 -0.0937 -0.1966
  973MOL0     C31266   9.695   2.904   1.355 -0.5450  1.4612 -0.4568
  973MOL0     C31267   9.676   2.973   1.470 -0.4451  0.9596 -1.3425
  973MOL0     O31268   9.813   3.055   1.707  1.0529 -0.1445 -0.6420
  973MOL0     C31269   9.616   3.160   1.946 -0.3955 -0.0994  0.3427
  973MOL0     C31270   9.604   3.193   2.081  0.3120 -1.2733  0.0845
  973MOL0     N31271   9.335   3.207   2.756 -0.2915  1.1550  1.4198
  973MOL0     N31272   9.297   3.303   2.836  0.3304 -0.2082  0.6336
  973MOL0     C31273   9.787   4.034   2.421 -0.3386 -0.3139  0.5501
  973MOL0     C31274   9.790   4.123   2.315  0.3142 -0.1909  0.1805
  973MOL0     C31275   9.757   4.445   1.999  0.9624  1.0227 -0.3670
  973MOL0     C31276   9.743   4.573   2.051  0.5050 -0.3988  0.2014
  973MOL0     C31277   9.764   4.687   1.967 -0.2596 -0.8897  0.3371
  973MOL0     C31278   9.783   4.679   1.834 -1.2660 -0.3579 -0.2658
  973MOL0     O31279   9.787   4.802   1.770  0.4014  0.2736 -0.4138
  973MOL0     C31280   9.814   4.806   1.632  0.2238 -0.3678 -0.3307
  973MOL0     C31281   9.677   4.817   1.553  1.0364  0.0807 -0.4802
  973MOL0     C31282   9.589   4.936   1.608  0.1302  0.9996 -0.3152
  973MOL0     C31283   9.663   5.072   1.608  0.0055 -0.4026  0.1255
  973MOL0     C31284   9.721   5.118   1.479 -0.3154  0.4721 -0.2384
  973MOL0     C31285   9.767   5.159   1.376  0.4986  0.2945  0.9461
  973MOL0     C31286   9.800   4.550   1.783  0.1645 -0.1243 -1.2095
  973MOL0     C31287   9.791   4.437   1.863  0.0391  0.2978 -0.7500
  973MOL0     H31288   9.602   4.372   2.445  1.4111  0.7293  2.0916
  973MOL0     H31289   9.599   4.218   2.631  1.0488 -2.7705  1.2131
  973MOL0     H31290   9.805   3.771   2.613 -1.5366  0.7162 -1.1078
  973MOL0     H31291   9.906   3.915   2.621  1.3741  0.3865  2.1682
  973MOL0     H31292   9.921   3.812   2.845 -0.6596 -0.6057  0.3989
  973MOL0     H31293   9.806   3.939   2.874  0.9051  0.9553  0.1792
  973MOL0     H31294   9.626   3.774   2.815  1.4618 -1.6810 -3.1644
  973MOL0     H31295   9.751   3.644   2.817  0.1860 -1.4385  1.5729
  973MOL0     H31296   9.805   3.705   3.049  1.3344  3.7884  1.0849
  973MOL0     H31297   9.686   3.840   3.056  0.2251  1.2248 -0.2756
  973MOL0     H31298   9.597   3.648   3.160  0.0039 -0.3111 -0.0591
  973MOL0     H31299   9.504   3.661   3.013  0.2204  2.6558  0.5707
  973MOL0     H31300   9.650   3.460   2.913  3.6466 -0.5996  0.5416
  973MOL0     H31301   9.749   3.480   3.050 -0.3087  2.1934  0.6950
  973MOL0     H31302   9.602   3.308   3.130 -1.2292 -0.4679 -0.2679
  973MOL0     H31303   9.545   3.459   3.207 -0.7011  0.9022 -0.6695
  973MOL0     H31304   9.369   3.491   3.023  2.3848  0.1523 -3.5219
  973MOL0     H31305   9.347   3.354   3.118 -1.0978  0.1991 -0.7811
  973MOL0     H31306   9.608   3.197   2.933  1.7006 -0.1485 -2.2170
  973MOL0     H31307   9.489   2.935   2.777 -4.5365  0.4205  0.3399
  973MOL0     H31308   9.451   3.006   2.624  0.1877  1.4507 -0.1011
  973MOL0     H31309   9.683   2.941   2.631 -1.3068 -2.8611  6.7826
  973MOL0     H31310   9.717   3.077   2.744 -1.8403  2.8549  0.6806
  973MOL0     H31311   9.732   3.213   2.568  3.1070 -1.8303 -1.3140
  973MOL0     H31312   9.561   3.197   2.529  1.7260  2.9929 -2.4803
  973MOL0     H31313   9.656   2.979   2.408  0.1269 -0.5566  2.3074
  973MOL0     H31314   9.807   3.051   2.418 -0.6123  0.0411  0.8555
  973MOL0     H31315   9.785   2.936   2.217 -2.2311 -1.1516  0.6643
  973MOL0     H31316   9.913   2.818   2.047  0.4077  0.8912  0.5852
  973MOL0     H31317   9.784   2.763   1.932 -2.2867  0.3974 -1.0556
  973MOL0     H31318   9.895   2.871   1.874  0.3396  3.8495  1.2622
  973MOL0     H31319   9.559   2.719   1.664  0.0062 -0.8407 -0.8431
  973MOL0     H31320   9.588   2.600   1.451 -1.5447  0.6792  0.3767
  973MOL0     H31321   9.567   2.541   1.255  2.0765 -1.3899 -1.5547
  973MOL0     H31322   9.465   2.668   1.176  0.5692  1.7657  1.1602
  973MOL0     H31323   9.631   2.636   0.970  2.4060  2.1669  2.5440
  973MOL0     H31324   9.698   2.499   1.062  1.5762  1.0872 -0.2819
  973MOL0     H31325   9.544   2.433   0.881  0.8730 -1.7135  0.9539
  973MOL0     H31326   9.406   2.500   0.982 -1.4262 -1.5636 -0.1979
  973MOL0     H31327   9.594   2.292   1.087 -0.2451 -1.9058 -1.7530
  973MOL0     H31328   9.428   2.338   1.149 -0.1353  1.1637 -0.3956
  973MOL0     H31329   9.488   2.203   0.877  1.1422  0.2617  0.0979
  973MOL0     H31330   9.325   2.229   0.939 -0.2264 -2.1184  1.4717
  973MOL0     H31331   9.422   2.012   0.967 -1.7881  0.1092 -0.0979
  973MOL0     H31332   9.547   2.083   1.073  1.4066  1.6727 -4.0285
  973MOL0     H31333   9.247   2.037   1.112 -0.8398 -2.1243  0.7763
  973MOL0     H31334   9.342   2.172   1.207  2.2297  0.5017 -0.0220
  973MOL0     H31335   9.492   1.989   1.278  1.6680 -4.1385 -0.4079
  973MOL0     H31336   9.380   1.865   1.215  0.0319 -0.2744  1.8958
  973MOL0     H31337   9.743   2.945   1.266 -1.8018  2.1219 -0.8459
  973MOL0     H31338   9.696   3.080   1.468  1.0105  0.8507  1.6378
  973MOL0     H31339   9.558   3.210   1.870  1.2084 -0.5767 -1.2755
  973MOL0     H31340   9.544   3.272   2.126 -1.9690 -0.3650 -4.1010
  973MOL0     H31341   9.839   3.939   2.415  0.0808 -0.0813  0.4025
  973MOL0     H31342   9.857   4.095   2.235 -1.8132 -0.8557 -1.4871
  973MOL0     H31343   9.729   4.590   2.157  1.9508  0.8927  0.2185
  973MOL0     H31344   9.771   4.786   2.011  3.3547 -0.3737 -1.1002
  973MOL0     H31345   9.869   4.899   1.616 -0.1474 -0.1348 -0.2771
  973MOL0     H31346   9.880   4.731   1.588  0.7731  0.0697 -0.2738
  973MOL0     H31347   9.617   4.726   1.553  0.4189  0.4824 -0.0145
  973MOL0     H31348   9.709   4.846   1.452  0.5659  1.0579 -0.3613
  973MOL0     H31349   9.554   4.918   1.710  1.8520  3.1611  0.7575
  973MOL0     H31350   9.503   4.939   1.540  0.1188 -2.5578 -0.6285
  973MOL0     H31351   9.748   5.071   1.677 -1.0102 -0.6792  1.4132
  973MOL0     H31352   9.591   5.148   1.642  0.9651  0.8800 -0.5934
  973MOL0     H31353   9.808   5.179   1.279  2.0639 -0.3835  1.4388
  973MOL0     H31354   9.828   4.534   1.679 -0.6934 -4.5131 -0.9854
  973MOL0     H31355   9.799   4.344   1.807  4.5946 -0.9209  1.4695
  974MOL0     O31356   7.063   5.329   8.056  1.1511  0.2870  0.2611
  974MOL0     C31357   6.962   5.295   8.125  0.3944  0.2109  1.1137
  974MOL0     O31358   6.945   5.303   8.261  0.5434  0.7553  0.1504
  974MOL0     C31359   7.030   5.397   8.318  0.5775 -0.2857 -1.1124
  974MOL0     C31360   7.041   5.526   8.264 -1.0955 -0.4203 -0.5568
  974MOL0     C31361   7.132   5.618   8.320  0.2361 -0.3972  0.4973
  974MOL0     C31362   7.198   5.585   8.441 -0.4605 -0.5894  0.5001
  974MOL0     O31363   7.266   5.677   8.514  0.1806  0.7975  0.5725
  974MOL0     C31364   7.272   5.813   8.471  0.3787  0.2791  1.6136
  974MOL0     C31365   7.342   5.892   8.573 -0.0273  0.5630  0.9566
  974MOL0     C31366   7.369   6.039   8.530  0.5886  0.1742 -0.8885
  974MOL0     C31367   7.271   6.140   8.603 -0.0714 -0.2123  0.6119
  974MOL0     C31368   7.347   6.275   8.617 -0.1424  0.1953 -0.3971
  974MOL0     C31369   7.338   6.357   8.486 -0.7367  0.3036 -0.6664
  974MOL0     C31370   7.393   6.499   8.491 -0.3555  0.2035 -0.2107
  974MOL0     C31371   7.547   6.506   8.522 -0.2743  0.5902 -0.6787
  974MOL0     N31372   7.628   6.446   8.414  0.9263  0.2513  0.1355
  974MOL0     C31373   7.669   6.315   8.404  0.5183 -0.3670 -1.2337
  974MOL0     C31374   7.719   6.304   8.283  0.8247 -0.5891 -0.3372
  974MOL0     C31375   7.759   6.174   8.214 -0.5306  0.4624 -0.0253
  974MOL0     C31376   7.649   6.124   8.121 -0.1220  0.2974 -0.8653
  974MOL0     C31377   7.541   6.050   8.209  0.7203 -0.2093  0.2875
  974MOL0     C31378   7.440   5.968   8.108 -0.3171  0.1945 -0.1617
  974MOL0     O31379   7.511   5.897   8.014 -0.2320 -0.9434  0.6145
  974MOL0     C31380   7.457   5.773   7.985  0.6494 -0.0272  1.1334
  974MOL0     C31381   7.546   5.695   7.918 -0.1916 -0.2632  0.4713
  974MOL0     C31382   7.511   5.577   7.854 -0.1865 -0.6627  0.0949
  974MOL0     C31383   7.617   5.530   7.758 -0.1264  0.0239  0.2114
  974MOL0     C31384   7.382   5.531   7.873 -0.1071  0.0252 -0.0339
  974MOL0     C31385   7.332   5.403   7.813 -0.2908  0.2898  0.4196
  974MOL0     O31386   7.223   5.422   7.732 -0.6302  0.5003 -0.5673
  974MOL0     C31387   7.164   5.316   7.670  0.5793 -1.1234 -0.2934
  974MOL0     C31388   7.107   5.199   7.728 -0.5844 -0.4212 -1.0236
  974MOL0     C31389   7.049   5.100   7.657  0.1593  0.0756  0.2589
  974MOL0     C31390   7.046   5.112   7.520  0.7010 -0.5201 -0.1212
  974MOL0     O31391   6.989   5.006   7.457 -0.8759 -0.9383 -0.4798
  974MOL0     C31392   7.036   4.961   7.321  0.1241  0.3795  0.9162
  974MOL0     C31393   7.179   4.915   7.308  0.2999  0.0392 -0.3802
  974MOL0     C31394   7.214   4.804   7.411 -0.1856 -0.1868 -1.0522
  974MOL0     C31395   7.358   4.762   7.402  0.0674 -0.1353 -0.0119
  974MOL0     C31396   7.460   4.872   7.430  0.3810  0.2600  0.0524
  974MOL0     C31397   7.439   4.922   7.581  0.9896  0.2961  0.6286
  974MOL0     C31398   7.567   5.003   7.614  0.1076  0.1710 -0.3385
  974MOL0     C31399   7.569   5.136   7.547 -0.7058  0.5831  0.5548
  974MOL0    Cl31400   7.722   5.214   7.598  0.4882  0.3176  0.5166
  974MOL0     C31401   7.091   5.230   7.451 -0.7457 -0.0447  0.5741
  974MOL0     C31402   7.162   5.319   7.528  0.0049 -0.6267 -0.1444
  974MOL0     O31403   7.397   5.300   7.821  1.3203  0.5070  0.4628
  974MOL0     C31404   7.292   5.604   7.948 -0.3347 -0.2037 -0.7599
  974MOL0     C31405   7.327   5.722   8.014  0.5568 -0.1931 -0.1396
  974MOL0     N31406   7.709   6.434   8.215 -1.3205 -0.1883  0.1255
  974MOL0     N31407   7.652   6.510   8.289  0.2061 -0.3935  0.0510
  974MOL0     C31408   7.190   5.456   8.488  0.0723  0.2429 -0.0574
  974MOL0     C31409   7.110   5.360   8.432  0.6322 -0.2103 -0.1235
  974MOL0     C31410   6.857   5.237   8.044  0.1698  0.0312 -1.1785
  974MOL0     C31411   6.791   5.126   8.096  0.3674 -0.7678  0.5109
  974MOL0     C31412   6.714   5.056   7.993 -0.3281  0.6783 -0.3074
  974MOL0     C31413   6.699   5.095   7.856 -0.6231  0.1055 -0.2566
  974MOL0     O31414   6.616   5.026   7.773 -0.8677  0.0514 -0.6911
  974MOL0     C31415   6.521   5.090   7.686 -0.7813 -0.1127  0.3350
  974MOL0     C31416   6.572   5.072   7.535  1.1416 -0.0802 -0.2319
  974MOL0     C31417   6.543   4.935   7.485 -0.6116  0.3105  0.5078
  974MOL0     C31418   6.575   4.922   7.328  0.5928 -0.4541 -0.7273
  974MOL0     C31419   6.567   4.781   7.285  0.6589  0.8807 -0.0611
  974MOL0     C31420   6.566   4.661   7.269 -0.5738 -0.7071 -0.3252
  974MOL0     C31421   6.775   5.201   7.813  0.0221 -0.7097 -0.1774
  974MOL0     C31422   6.848   5.272   7.908 -0.5162  0.4189 -0.8268
  974MOL0     H31423   6.980   5.557   8.179 -0.2522 -0.3453 -1.1439
  974MOL0     H31424   7.140   5.718   8.278 -4.7116  1.1603  2.4700
  974MOL0     H31425   7.339   5.812   8.384 -0.8564  0.9134  0.6357
  974MOL0     H31426   7.171   5.843   8.442  1.5056  0.9478 -2.2042
  974MOL0     H31427   7.290   5.885   8.669 -0.2540 -1.7826  0.7214
  974MOL0     H31428   7.434   5.835   8.589  0.2235 -0.4987 -3.1471
  974MOL0     H31429   7.471   6.072   8.552  0.7772 -0.6506 -0.4886
  974MOL0     H31430   7.352   6.049   8.422  3.2873 -0.4782 -1.4614
  974MOL0     H31431   7.181   6.166   8.548 -2.5116 -1.0959  3.8730
  974MOL0     H31432   7.244   6.097   8.700 -1.2933  0.9940  0.8343
  974MOL0     H31433   7.291   6.341   8.685  1.1228 -1.3771  2.3628
  974MOL0     H31434   7.449   6.251   8.651 -1.2471 -2.4856  1.3982
  974MOL0     H31435   7.383   6.295   8.408 -2.1629 -2.3368  0.4593
  974MOL0     H31436   7.236   6.374   8.450 -0.3037  2.3408 -1.0293
  974MOL0     H31437   7.374   6.557   8.400 -2.5866  1.6912  1.1214
  974MOL0     H31438   7.345   6.545   8.578  0.4099  3.0656 -1.2033
  974MOL0     H31439   7.555   6.433   8.603 -1.6197 -0.7569 -1.6996
  974MOL0     H31440   7.569   6.606   8.561 -2.1531  0.5795  0.5252
  974MOL0     H31441   7.642   6.232   8.469  2.4490 -1.2557 -1.4794
  974MOL0     H31442   7.851   6.190   8.157  0.8417  1.4148  2.2803
  974MOL0     H31443   7.789   6.094   8.283  1.0407 -1.0341 -2.2924
  974MOL0     H31444   7.689   6.050   8.051  1.6395  1.1117 -0.7690
  974MOL0     H31445   7.605   6.209   8.067 -1.1846  1.1904  1.2824
  974MOL0     H31446   7.479   6.119   8.266  2.7073 -0.0650  2.4579
  974MOL0     H31447   7.584   5.983   8.284  1.7538  0.9498  0.7720
  974MOL0     H31448   7.372   6.032   8.051  0.0392  1.7363  1.0699
  974MOL0     H31449   7.393   5.899   8.179 -3.0536  1.9600 -0.1172
  974MOL0     H31450   7.642   5.745   7.906 -0.2855 -0.3623 -0.8436
  974MOL0     H31451   7.643   5.602   7.679  1.9703 -0.0579  0.7466
  974MOL0     H31452   7.704   5.509   7.821  0.4258 -0.4626 -0.6891
  974MOL0     H31453   7.580   5.437   7.715 -0.1965  0.4522 -0.6716
  974MOL0     H31454   7.105   5.182   7.835 -0.2971 -0.6748 -1.0550
  974MOL0     H31455   7.004   5.011   7.701  3.6769 -1.6912  0.6466
  974MOL0     H31456   6.980   4.874   7.287  1.5989 -0.8547  1.5148
  974MOL0     H31457   7.022   5.042   7.249 -1.1232  0.7716  1.5584
  974MOL0     H31458   7.210   4.872   7.212  1.5435 -1.0280  0.4561
  974MOL0     H31459   7.237   5.003   7.339  0.2332 -1.1920  3.8262
  974MOL0     H31460   7.159   4.710   7.398 -0.5952  0.2509 -2.7752
  974MOL0     H31461   7.198   4.831   7.516  2.4523 -1.0964 -0.3227
  974MOL0     H31462   7.389   4.688   7.476  0.0146 -1.6759 -1.4770
  974MOL0     H31463   7.374   4.721   7.302  2.0026  0.5351 -0.0212
  974MOL0     H31464   7.441   4.959   7.368  0.8112 -1.0460 -1.9999
  974MOL0     H31465   7.563   4.838   7.417  0.3511  0.0436  0.3603
  974MOL0     H31466   7.356   4.992   7.590 -1.2586 -2.1297 -0.0902
  974MOL0     H31467   7.427   4.834   7.645  0.3878 -1.2693 -1.5008
  974MOL0     H31468   7.651   4.942   7.580 -2.0576 -1.1870 -3.7385
  974MOL0     H31469   7.570   5.014   7.723  0.6098 -1.7805 -0.1152
  974MOL0     H31470   7.488   5.203   7.576 -0.0295  1.7595 -0.1992
  974MOL0     H31471   7.556   5.125   7.439  2.9066  0.4587  0.0092
  974MOL0     H31472   7.079   5.241   7.344  0.4976  0.8318  0.4895
  974MOL0     H31473   7.210   5.408   7.488  2.2286 -1.3754  0.6740
  974MOL0     H31474   7.195   5.562   7.971 -0.3708  0.8866  1.3754
  974MOL0     H31475   7.247   5.772   8.068 -1.0217 -1.2476 -1.4035
  974MOL0     H31476   7.241   5.418   8.577 -1.5849 -1.2289  0.3317
  974MOL0     H31477   7.102   5.264   8.482  2.9475  0.1702  1.1283
  974MOL0     H31478   6.796   5.087   8.197 -0.6157  0.1053  0.9183
  974MOL0     H31479   6.642   4.980   8.023 -1.7017 -0.0723 -4.7384
  974MOL0     H31480   6.425   5.039   7.697 -0.5090 -0.2012  3.0891
  974MOL0     H31481   6.515   5.197   7.707  0.7181  0.5451 -2.1786
  974MOL0     H31482   6.679   5.094   7.538  1.0638  1.2574 -3.5723
  974MOL0     H31483   6.520   5.151   7.481  0.9483  0.4290  0.6674
  974MOL0     H31484   6.437   4.922   7.507 -0.3074 -2.6362  0.5295
  974MOL0     H31485   6.602   4.865   7.544  0.3260 -0.1969 -0.9669
  974MOL0     H31486   6.681   4.947   7.312  0.0949  2.1620 -0.4145
  974MOL0     H31487   6.523   4.994   7.264  1.6337  2.4834  1.4876
  974MOL0     H31488   6.576   4.558   7.239  1.3183 -0.2400 -1.5237
  974MOL0     H31489   6.785   5.231   7.709  1.9060 -1.8475 -0.3792
  974MOL0     H31490   6.913   5.349   7.868 -1.7859  1.1419 -1.5600
  975MOL0     O31491  10.693   2.182   6.658 -0.6560 -0.0021 -0.0390
  975MOL0     C31492  10.681   2.149   6.542  0.8384  0.5253  0.3032
  975MOL0     O31493  10.594   2.055   6.494 -0.1030 -0.2948 -0.5765
  975MOL0     C31494  10.527   1.976   6.577  0.4551  0.6185 -2.0868
  975MOL0     C31495  10.423   2.028   6.666 -0.5344 -0.1921  1.1779
  975MOL0     C31496  10.334   1.948   6.721  0.1809  0.4241  0.2944
  975MOL0     C31497  10.354   1.807   6.721  0.5117 -1.0525  0.1131
  975MOL0     O31498  10.263   1.725   6.773  0.9364 -0.2631 -0.6089
  975MOL0     C31499  10.124   1.761   6.785  0.0927  0.4977 -0.2499
  975MOL0     C31500  10.035   1.646   6.813  0.4696  0.8347  0.0667
  975MOL0     C31501  10.066   1.507   6.748 -0.6102 -0.1960 -0.0076
  975MOL0     C31502   9.946   1.409   6.777 -0.4029  0.2199  0.4302
  975MOL0     C31503   9.947   1.279   6.701  0.2597 -0.6674  0.1603
  975MOL0     C31504   9.833   1.177   6.741 -1.2655 -0.5340 -0.2172
  975MOL0     C31505   9.704   1.184   6.660 -0.4890 -0.4111 -0.5156
  975MOL0     C31506   9.596   1.093   6.729 -0.4872  0.1297 -0.9836
  975MOL0     N31507   9.614   0.954   6.718 -0.2697 -0.0322  0.3393
  975MOL0     C31508   9.573   0.875   6.613 -0.0283  0.5178 -0.4482
  975MOL0     C31509   9.615   0.753   6.635 -0.1571  1.0177 -0.6511
  975MOL0     C31510   9.609   0.617   6.569 -0.1287 -1.4736  0.0586
  975MOL0     C31511   9.520   0.518   6.635  0.1044 -0.4814 -0.3665
  975MOL0     C31512   9.374   0.554   6.616  0.1496  0.1475 -0.2231
  975MOL0     C31513   9.277   0.464   6.689  0.7293 -0.3751 -0.2273
  975MOL0     O31514   9.308   0.323   6.656 -0.5774 -0.1653  0.3538
  975MOL0     C31515   9.226   0.256   6.561 -0.3040 -0.3291  0.3325
  975MOL0     C31516   9.133   0.321   6.477 -0.3498 -0.9876 -0.1507
  975MOL0     C31517   9.034   0.256   6.395 -0.2012 -0.5586 -0.4666
  975MOL0     C31518   8.921   0.347   6.332  0.6446  0.1512 -0.6972
  975MOL0     C31519   9.045   0.112   6.389 -0.1629 -0.4242  0.1316
  975MOL0     C31520   8.955   0.036   6.298 -0.3564 -0.6871 -0.1110
  975MOL0     O31521   8.938  -0.082   6.340  0.4573  0.5410  0.4354
  975MOL0     C31522   8.859  -0.177   6.274 -0.3562 -0.2515 -1.1628
  975MOL0     C31523   8.796  -0.283   6.345 -0.7664  0.0560 -0.4302
  975MOL0     C31524   8.727  -0.386   6.283 -0.4983  0.2633  0.4439
  975MOL0     C31525   8.714  -0.384   6.142 -0.0735 -0.0642  1.2308
  975MOL0     O31526   8.657  -0.488   6.073 -0.4235 -0.1456  0.0663
  975MOL0     C31527   8.742  -0.550   5.966  0.3814 -0.4090  0.4645
  975MOL0     C31528   8.677  -0.688   5.938 -0.1720 -0.5571  1.1655
  975MOL0     C31529   8.672  -0.781   6.058  0.8217 -0.5295 -0.0140
  975MOL0     C31530   8.819  -0.818   6.108 -0.3320 -0.1919  0.0316
  975MOL0     C31531   8.866  -0.739   6.235  0.0803  0.4168  0.5086
  975MOL0     C31532   8.993  -0.795   6.287  0.0569 -0.3222  0.0307
  975MOL0     C31533   9.047  -0.696   6.389  0.0211 -0.0612 -0.8797
  975MOL0     C31534   9.194  -0.737   6.414  0.0460  0.2902  0.3940
  975MOL0    Cl31535   9.216  -0.900   6.489 -0.0033  0.2491  0.0862
  975MOL0     C31536   8.784  -0.284   6.073  0.1685  0.2504  0.4550
  975MOL0     C31537   8.855  -0.187   6.132  1.1205 -0.6127  1.1337
  975MOL0     O31538   8.908   0.095   6.195  0.1838  0.4937  0.1453
  975MOL0     C31539   9.141   0.052   6.466  0.1921  0.4489 -0.2346
  975MOL0     C31540   9.230   0.116   6.555  0.6530  0.3452 -0.7572
  975MOL0     N31541   9.685   0.759   6.757  0.3953  0.5785  1.1788
  975MOL0     N31542   9.690   0.876   6.795  0.4831  0.3088  0.4315
  975MOL0     C31543  10.472   1.754   6.655  2.0012  0.1528  0.3498
  975MOL0     C31544  10.551   1.835   6.585  0.2888 -0.0317 -0.0385
  975MOL0     C31545  10.768   2.221   6.452  0.5043  0.9044  0.5188
  975MOL0     C31546  10.871   2.308   6.483 -0.4464 -0.4585 -0.0831
  975MOL0     C31547  10.967   2.365   6.384  0.0048  0.4247  0.1558
  975MOL0     C31548  10.946   2.329   6.250 -0.3209 -0.5170 -0.6208
  975MOL0     O31549  11.041   2.375   6.163 -0.0175  0.4714 -0.0938
  975MOL0     C31550  10.985   2.480   6.083 -0.9039  0.1116 -0.5171
  975MOL0     C31551  10.934   2.601   6.156 -0.0699 -0.0348 -0.7303
  975MOL0     C31552  10.927   2.723   6.066  0.6457 -0.0358  0.3209
  975MOL0     C31553  10.849   2.715   5.934 -0.1112 -0.5351 -0.5818
  975MOL0     C31554  10.890   2.840   5.858 -0.1636 -0.0275  0.0772
  975MOL0     C31555  10.931   2.951   5.804 -0.0130 -0.5213 -1.0816
  975MOL0     C31556  10.843   2.246   6.216 -1.0544 -0.4029  1.2153
  975MOL0     C31557  10.763   2.184   6.320  0.1061 -0.5465 -0.2444
  975MOL0     H31558  10.405   2.135   6.661 -2.3369 -0.4016  2.2737
  975MOL0     H31559  10.245   1.989   6.768 -0.1766  0.4950 -0.4320
  975MOL0     H31560  10.121   1.836   6.864  3.1661 -0.5625  1.0393
  975MOL0     H31561  10.104   1.810   6.690 -1.7575  0.2348 -0.0363
  975MOL0     H31562  10.013   1.640   6.920 -1.6141  1.1728 -0.3079
  975MOL0     H31563   9.945   1.675   6.759 -1.2873 -3.8865 -0.0076
  975MOL0     H31564  10.096   1.517   6.643 -1.9005  2.0925 -0.2382
  975MOL0     H31565  10.145   1.457   6.806 -3.6843 -0.4871  4.3856
  975MOL0     H31566   9.924   1.390   6.882  1.6110  0.0232  0.8451
  975MOL0     H31567   9.850   1.452   6.746 -1.1617 -2.6457 -1.6245
  975MOL0     H31568   9.950   1.296   6.593  1.3192  1.1860  0.4445
  975MOL0     H31569  10.040   1.222   6.714 -0.0948 -1.8671 -2.0486
  975MOL0     H31570   9.879   1.078   6.739  0.8707  0.3971  0.1353
  975MOL0     H31571   9.806   1.187   6.846  1.5600 -5.3680  1.2781
  975MOL0     H31572   9.666   1.285   6.680 -1.0422 -0.7897  0.4256
  975MOL0     H31573   9.726   1.167   6.554  1.1872  1.7820 -0.5789
  975MOL0     H31574   9.500   1.127   6.690 -0.3502 -0.1020 -1.5425
  975MOL0     H31575   9.609   1.109   6.836  0.9310 -0.4646 -1.0461
  975MOL0     H31576   9.515   0.891   6.523 -1.9800 -2.3791  0.1362
  975MOL0     H31577   9.575   0.636   6.467  1.1760 -1.5560 -0.4121
  975MOL0     H31578   9.712   0.582   6.557  0.5326  0.1984  0.5516
  975MOL0     H31579   9.541   0.506   6.742  1.1526  0.4689 -0.4584
  975MOL0     H31580   9.527   0.415   6.597 -1.6140 -0.3441 -1.1622
  975MOL0     H31581   9.355   0.549   6.509  2.5823  0.8354 -0.7415
  975MOL0     H31582   9.351   0.656   6.650 -0.9719 -0.3787  0.6817
  975MOL0     H31583   9.172   0.486   6.667  1.1210  0.1013 -1.7040
  975MOL0     H31584   9.283   0.473   6.798 -1.0063 -1.5550  0.0123
  975MOL0     H31585   9.145   0.428   6.468 -0.4252 -1.0211 -0.6560
  975MOL0     H31586   8.843   0.296   6.274  1.2125  1.2553 -2.5178
  975MOL0     H31587   8.880   0.410   6.411  0.3433 -1.2047  0.2540
  975MOL0     H31588   8.965   0.405   6.250 -0.3093 -1.4450 -2.4231
  975MOL0     H31589   8.810  -0.280   6.453 -3.0594  2.7019 -0.0906
  975MOL0     H31590   8.672  -0.462   6.338 -0.1970 -0.2566  0.0321
  975MOL0     H31591   8.741  -0.497   5.871  2.1943 -1.4311 -0.1693
  975MOL0     H31592   8.849  -0.556   5.988  1.5317  1.1513 -3.7735
  975MOL0     H31593   8.574  -0.670   5.906 -0.8887 -1.3541  2.8963
  975MOL0     H31594   8.727  -0.746   5.859  1.3833  0.5907  1.2674
  975MOL0     H31595   8.620  -0.872   6.028  0.7498 -0.5870  0.2852
  975MOL0     H31596   8.610  -0.738   6.136  1.1764  3.1315 -1.5554
  975MOL0     H31597   8.814  -0.925   6.129 -1.3027 -0.3393 -0.8396
  975MOL0     H31598   8.892  -0.813   6.027  0.0850  0.9302  0.4633
  975MOL0     H31599   8.784  -0.723   6.306 -0.1041 -0.2073  0.4421
  975MOL0     H31600   8.899  -0.642   6.198  0.6769  0.3513  0.8697
  975MOL0     H31601   8.970  -0.892   6.331 -0.1945 -0.6103 -0.7164
  975MOL0     H31602   9.065  -0.821   6.208 -1.2635 -3.2359 -0.3402
  975MOL0     H31603   9.007  -0.709   6.490 -3.5803  0.3987 -2.0913
  975MOL0     H31604   9.038  -0.591   6.361  2.1041  1.5244  3.5094
  975MOL0     H31605   9.234  -0.656   6.476  2.8681  1.0930 -2.2410
  975MOL0     H31606   9.252  -0.729   6.322  0.9067 -0.5623  0.8521
  975MOL0     H31607   8.779  -0.291   5.965  1.0645  0.4565  0.3902
  975MOL0     H31608   8.906  -0.116   6.068 -1.3343 -0.0363 -0.3394
  975MOL0     H31609   9.151  -0.056   6.457  3.3621  0.6082  0.3159
  975MOL0     H31610   9.295   0.059   6.621 -0.1751 -0.1392 -0.3330
  975MOL0     H31611  10.485   1.647   6.672 -2.5680 -0.9243 -1.5293
  975MOL0     H31612  10.638   1.791   6.538  1.5297  2.0612  0.1841
  975MOL0     H31613  10.867   2.353   6.581 -3.1710  2.0498 -1.1788
  975MOL0     H31614  11.056   2.422   6.406  0.4169  0.1434 -0.7602
  975MOL0     H31615  11.057   2.519   6.011 -2.4803  0.3409 -2.0471
  975MOL0     H31616  10.909   2.428   6.024 -0.0538  0.5798 -2.0883
  975MOL0     H31617  11.005   2.628   6.235  1.4309  1.3777 -2.4816
  975MOL0     H31618  10.839   2.584   6.209 -1.4808  1.5509 -2.6067
  975MOL0     H31619  11.030   2.735   6.032  0.1292 -1.6308 -1.9752
  975MOL0     H31620  10.907   2.812   6.126  1.1217 -0.7896  1.6363
  975MOL0     H31621  10.741   2.725   5.948 -0.0124 -1.8594  1.6853
  975MOL0     H31622  10.872   2.625   5.876  3.0347  1.1234 -2.2088
  975MOL0     H31623  10.968   3.046   5.768 -3.3404  1.3574  0.0080
  975MOL0     H31624  10.837   2.218   6.112 -0.6122  4.9510 -0.5595
  975MOL0     H31625  10.691   2.108   6.294 -2.3877  1.6102 -0.0386
  976MOL0     O31626   9.275   6.482   2.256 -0.0520  0.2297  0.0680
  976MOL0     C31627   9.304   6.600   2.284 -0.5974 -1.1620 -0.2867
  976MOL0     O31628   9.382   6.639   2.387 -0.1104  0.2203 -0.3170
  976MOL0     C31629   9.479   6.552   2.422 -0.7731  0.1493 -1.0699
  976MOL0     C31630   9.539   6.449   2.342 -0.8336  0.5202 -0.6693
  976MOL0     C31631   9.639   6.370   2.395  0.2564  0.1955  0.8855
  976MOL0     C31632   9.677   6.389   2.526  0.3457  0.9073  0.2632
  976MOL0     O31633   9.775   6.316   2.584  0.3079 -0.0841 -0.7287
  976MOL0     C31634   9.717   6.222   2.675 -1.2724 -1.5625 -1.0705
  976MOL0     C31635   9.764   6.090   2.633  0.8425  0.5330  0.1895
  976MOL0     C31636   9.917   6.061   2.679  0.3702 -0.5437  0.2576
  976MOL0     C31637   9.986   5.956   2.617 -0.5466  0.2296 -0.1933
  976MOL0     C31638  10.122   5.933   2.676  0.4219 -0.0805 -0.7764
  976MOL0     C31639  10.219   5.828   2.606  0.7650 -0.5739  0.5582
  976MOL0     C31640  10.324   5.782   2.709  0.3672  0.1017 -0.1512
  976MOL0     C31641  10.429   5.698   2.630  0.7242  0.2716 -0.2323
  976MOL0     N31642  10.509   5.770   2.528  0.4474 -0.0354  0.1805
  976MOL0     C31643  10.546   5.907   2.528  0.0810  0.8512  0.5214
  976MOL0     C31644  10.594   5.924   2.405 -0.3120 -0.0665 -0.0141
  976MOL0     C31645  10.627   6.061   2.348 -1.4146  0.0715 -0.4754
  976MOL0     C31646  10.500   6.117   2.277  0.3330 -0.3505  0.0264
  976MOL0     C31647  10.532   6.246   2.196  0.8986 -0.4325  0.0507
  976MOL0     C31648  10.626   6.241   2.076  0.3662 -0.3903 -0.2555
  976MOL0     O31649  10.601   6.126   1.986  0.0866 -0.1375  0.1703
  976MOL0     C31650  10.638   6.141   1.853  0.2450  0.2239  0.8523
  976MOL0     C31651  10.728   6.228   1.796  0.1120 -0.0816  0.4234
  976MOL0     C31652  10.745   6.230   1.657 -0.5457  0.0773 -0.6722
  976MOL0     C31653  10.843   6.339   1.604  1.0480 -0.1999  0.5110
  976MOL0     C31654  10.668   6.146   1.571 -0.2275 -0.8190 -1.7108
  976MOL0     C31655  10.682   6.138   1.428 -0.1108  0.7711  0.5170
  976MOL0     O31656  10.594   6.051   1.367 -0.1377  0.6615 -0.2632
  976MOL0     C31657  10.626   5.994   1.247  0.4339  0.4296  0.4837
  976MOL0     C31658  10.707   5.878   1.240  0.2045 -0.6159  0.2684
  976MOL0     C31659  10.754   5.835   1.113 -0.0676 -0.0666  0.0151
  976MOL0     C31660  10.729   5.914   0.994 -0.2452  0.7120 -1.1081
  976MOL0     O31661  10.774   5.867   0.871 -0.0052 -0.5114  0.8565
  976MOL0     C31662  10.902   5.816   0.852 -0.4112  1.3173 -0.9363
  976MOL0     C31663  10.893   5.669   0.816 -0.1454 -0.3058  0.6070
  976MOL0     C31664  10.806   5.649   0.698  0.3433 -0.2429 -0.5173
  976MOL0     C31665  10.891   5.672   0.568 -0.3415 -0.2823 -0.4311
  976MOL0     C31666  10.816   5.649   0.441  0.2769  0.3177  1.0464
  976MOL0     C31667  10.919   5.665   0.329 -0.9160 -0.4185 -0.3433
  976MOL0     C31668  10.866   5.633   0.188  0.2098 -0.3365  0.0512
  976MOL0     C31669  10.958   5.680   0.070 -0.3871  0.2569 -0.5266
  976MOL0    Cl31670  10.994   5.851   0.072 -0.1093  0.2914  0.0041
  976MOL0     C31671  10.661   6.030   1.008 -0.3005 -0.1403  0.4840
  976MOL0     C31672  10.600   6.065   1.126  0.0735 -1.0904  0.4328
  976MOL0     O31673  10.740   6.228   1.365  0.2988  0.5534  0.0944
  976MOL0     C31674  10.581   6.055   1.636  0.5326  0.7680  0.9239
  976MOL0     C31675  10.568   6.052   1.775 -0.2069  0.3559  0.0663
  976MOL0     N31676  10.575   5.813   2.324  0.0735  0.8318 -0.7112
  976MOL0     N31677  10.511   5.725   2.393  0.0954 -0.0003 -0.7013
  976MOL0     C31678   9.610   6.486   2.609 -0.8598  0.4292  0.4686
  976MOL0     C31679   9.516   6.568   2.559 -0.7142  0.6222  0.2080
  976MOL0     C31680   9.255   6.705   2.193  0.2648 -0.4519  1.0300
  976MOL0     C31681   9.234   6.673   2.048  0.1096 -0.5454 -0.1862
  976MOL0     C31682   9.185   6.769   1.956 -0.2908 -0.2813 -0.2441
  976MOL0     C31683   9.174   6.899   1.991  1.2724 -0.5498  0.2005
  976MOL0     O31684   9.120   7.004   1.908 -0.5615 -0.3450  0.4356
  976MOL0     C31685   8.977   7.000   1.885 -0.5482  0.4704  0.3416
  976MOL0     C31686   8.926   6.915   1.773 -0.3287  0.1658  0.7578
  976MOL0     C31687   8.968   6.957   1.627  0.5441  0.9293 -0.0523
  976MOL0     C31688   8.877   6.901   1.517 -0.0648 -0.3984 -0.0322
  976MOL0     C31689   8.906   6.759   1.494 -0.3968 -0.2635  0.5915
  976MOL0     C31690   8.932   6.637   1.487  0.5478 -1.1207 -0.0457
  976MOL0     C31691   9.206   6.943   2.118 -0.9120  0.4907 -1.5983
  976MOL0     C31692   9.247   6.844   2.221 -0.4519 -0.7461  0.7676
  976MOL0     H31693   9.525   6.449   2.234 -2.7794  0.9622 -0.4559
  976MOL0     H31694   9.678   6.290   2.332 -0.8231  0.0920  0.3295
  976MOL0     H31695   9.761   6.237   2.774 -0.5618 -0.9851 -1.4709
  976MOL0     H31696   9.611   6.227   2.705 -0.0739 -0.1434  3.9427
  976MOL0     H31697   9.699   6.018   2.683  1.7856  0.8581  1.9462
  976MOL0     H31698   9.756   6.085   2.524 -1.1672 -0.7770  0.3477
  976MOL0     H31699   9.983   6.145   2.656 -1.5224  0.3727 -2.2407
  976MOL0     H31700   9.901   6.051   2.787 -6.6804 -0.0384 -0.2649
  976MOL0     H31701   9.922   5.868   2.618  0.0026 -0.2554 -2.3937
  976MOL0     H31702  10.007   5.984   2.513  1.8004  0.5308  0.3016
  976MOL0     H31703  10.169   6.029   2.696 -0.6810  0.2374  0.4792
  976MOL0     H31704  10.102   5.893   2.776  0.8788  2.5649  0.4432
  976MOL0     H31705  10.158   5.743   2.574 -2.4287  1.3470  1.0447
  976MOL0     H31706  10.251   5.890   2.521 -3.3000  0.7456 -0.2336
  976MOL0     H31707  10.375   5.867   2.754 -0.9618 -0.2102  2.1241
  976MOL0     H31708  10.281   5.719   2.789 -0.3827 -0.8888 -1.2947
  976MOL0     H31709  10.379   5.610   2.589  1.1003  0.5577 -1.3384
  976MOL0     H31710  10.506   5.659   2.697 -0.6289 -0.2808  1.0751
  976MOL0     H31711  10.541   5.982   2.607 -0.8967  1.7483 -0.3599
  976MOL0     H31712  10.648   6.128   2.432  4.5045 -1.1042 -0.6217
  976MOL0     H31713  10.712   6.063   2.280 -0.0420  1.0055  1.1977
  976MOL0     H31714  10.420   6.134   2.350 -1.0560 -0.4332 -1.3983
  976MOL0     H31715  10.471   6.042   2.202 -1.3423 -0.1725  0.4468
  976MOL0     H31716  10.561   6.330   2.260 -0.2381 -0.2071  0.2917
  976MOL0     H31717  10.434   6.287   2.169  2.3319  4.9134  1.9175
  976MOL0     H31718  10.727   6.234   2.117 -0.8242 -3.1453  2.5684
  976MOL0     H31719  10.614   6.340   2.029 -0.4488 -0.9526 -1.2849
  976MOL0     H31720  10.782   6.296   1.861 -0.5170  0.2252  0.6320
  976MOL0     H31721  10.918   6.303   1.533 -0.6150 -1.5127 -0.6735
  976MOL0     H31722  10.795   6.410   1.536  2.7008  0.9096  0.4560
  976MOL0     H31723  10.891   6.380   1.693 -1.5276  2.2254  0.9199
  976MOL0     H31724  10.740   5.820   1.326  1.7773 -2.6786 -1.5972
  976MOL0     H31725  10.817   5.748   1.103  0.8161  0.4408  1.0694
  976MOL0     H31726  10.952   5.874   0.774  0.3635 -0.9059 -2.1785
  976MOL0     H31727  10.956   5.829   0.946  0.0517 -1.8926 -0.6460
  976MOL0     H31728  10.988   5.622   0.791 -1.2014 -1.7183 -0.9041
  976MOL0     H31729  10.847   5.607   0.893 -2.0413 -1.2501 -1.1823
  976MOL0     H31730  10.718   5.714   0.702 -0.2728 -0.9982 -1.5047
  976MOL0     H31731  10.779   5.544   0.686  1.2029 -0.5073 -0.2013
  976MOL0     H31732  10.928   5.775   0.559 -2.8066  0.7296  0.1292
  976MOL0     H31733  10.974   5.602   0.559  1.1362  1.5823 -2.2059
  976MOL0     H31734  10.731   5.716   0.421  0.6803  0.2888 -1.0307
  976MOL0     H31735  10.780   5.546   0.431  0.7100  0.1249  1.4720
  976MOL0     H31736  10.966   5.764   0.330 -1.8795  0.0473  0.1937
  976MOL0     H31737  10.995   5.590   0.355 -1.5820 -0.8266  0.4921
  976MOL0     H31738  10.771   5.688   0.182  0.3661 -0.1569 -0.9125
  976MOL0     H31739  10.847   5.525   0.187 -1.9666 -0.0049  0.2320
  976MOL0     H31740  10.903   5.661  -0.022 -1.7731 -1.5597  0.5873
  976MOL0     H31741  11.051   5.623   0.061  0.2641  1.2699 -0.3306
  976MOL0     H31742  10.626   6.071   0.913  0.6766 -1.4441 -0.4861
  976MOL0     H31743  10.526   6.144   1.137 -0.9246 -2.0268  0.6207
  976MOL0     H31744  10.513   5.993   1.578  0.4841  0.4560  1.3080
  976MOL0     H31745  10.484   5.991   1.807  0.4185 -0.7283 -0.2927
  976MOL0     H31746   9.653   6.509   2.706  1.5388  5.7158 -1.4474
  976MOL0     H31747   9.468   6.645   2.619  0.2517  2.0557 -0.7811
  976MOL0     H31748   9.248   6.569   2.021  2.0722 -0.1876 -0.7278
  976MOL0     H31749   9.161   6.739   1.855 -1.1394  1.3975 -0.5854
  976MOL0     H31750   8.941   6.948   1.974  1.6172 -1.3471  0.2455
  976MOL0     H31751   8.929   7.098   1.878 -0.8320  0.2273 -3.7573
  976MOL0     H31752   8.819   6.938   1.776 -0.5400  0.0039 -2.1970
  976MOL0     H31753   8.940   6.807   1.779 -1.1084 -0.1184 -1.5533
  976MOL0     H31754   9.070   6.916   1.620  0.0745 -0.4774  0.7932
  976MOL0     H31755   8.979   7.065   1.615  2.0753  0.5462 -2.9405
  976MOL0     H31756   8.908   6.951   1.425 -1.9047 -0.3531 -0.6744
  976MOL0     H31757   8.773   6.930   1.532  0.5178  2.2584 -0.6303
  976MOL0     H31758   8.966   6.536   1.479  2.5290 -0.3903 -1.8197
  976MOL0     H31759   9.192   7.046   2.151  1.3589  0.9969 -2.0748
  976MOL0     H31760   9.270   6.880   2.320  0.1441  1.2378 -0.0356
  977MOL0     O31761   9.314   1.673   1.837  0.5463 -0.2049  0.0369
  977MOL0     C31762   9.228   1.722   1.763  0.9568 -0.2846 -0.1887
  977MOL0     O31763   9.206   1.679   1.631 -0.6116 -0.2719  0.6032
  977MOL0     C31764   9.306   1.603   1.575 -0.3861 -0.6860 -0.1112
  977MOL0     C31765   9.282   1.484   1.514  0.6107  0.2938 -0.1038
  977MOL0     C31766   9.373   1.424   1.429  0.6340  0.8367  0.2878
  977MOL0     C31767   9.507   1.478   1.422  0.5987  1.0664  0.3865
  977MOL0     O31768   9.615   1.417   1.359  0.3043 -0.6778 -0.3928
  977MOL0     C31769   9.619   1.285   1.321 -0.3556 -0.4871  0.6509
  977MOL0     C31770   9.773   1.264   1.286  0.2507 -0.3113  0.1774
  977MOL0     C31771   9.815   1.112   1.309 -0.6197 -1.0358  0.1347
  977MOL0     C31772   9.934   1.071   1.226 -0.0014 -0.2478 -0.1233
  977MOL0     C31773  10.061   1.145   1.267  0.0185  0.0320 -0.2984
  977MOL0     C31774  10.177   1.056   1.219  0.4126  0.8234 -0.2145
  977MOL0     C31775  10.299   1.157   1.212  0.8324  0.0836 -0.4696
  977MOL0     C31776  10.432   1.094   1.189  0.6686  0.4398  0.1097
  977MOL0     N31777  10.525   1.186   1.123 -0.2648 -0.8037 -0.0595
  977MOL0     C31778  10.562   1.311   1.168 -0.4436 -0.3729 -0.2439
  977MOL0     C31779  10.641   1.366   1.070 -0.5106 -0.2938 -0.4829
  977MOL0     C31780  10.717   1.502   1.088  0.2263 -0.7517 -0.7555
  977MOL0     C31781  10.634   1.610   1.013 -0.1248 -0.1896  0.1061
  977MOL0     C31782  10.683   1.745   1.063 -0.2566  0.6206 -0.2152
  977MOL0     C31783  10.603   1.853   0.983 -0.3143 -0.4758  0.1571
  977MOL0     O31784  10.644   1.847   0.843  1.0486  0.1281 -0.4687
  977MOL0     C31785  10.772   1.875   0.807 -0.6610  1.4009  0.0274
  977MOL0     C31786  10.852   1.976   0.865  0.6395  0.4756  0.1292
  977MOL0     C31787  10.979   1.998   0.826 -0.5299  0.8219 -0.8606
  977MOL0     C31788  11.047   2.114   0.898 -0.1911 -0.8563  0.0002
  977MOL0     C31789  11.033   1.923   0.715 -0.2068  0.2287 -0.3086
  977MOL0     C31790  11.161   1.945   0.656  1.0619  0.1567 -0.0719
  977MOL0     O31791  11.183   1.848   0.564 -0.2790 -0.2255  0.1865
  977MOL0     C31792  11.309   1.788   0.546 -0.1861  0.4663  0.2613
  977MOL0     C31793  11.420   1.833   0.609  0.4646 -0.0132 -0.1518
  977MOL0     C31794  11.535   1.754   0.602 -0.6104 -0.5041  0.1956
  977MOL0     C31795  11.547   1.631   0.529  0.3628 -0.7359  0.6511
  977MOL0     O31796  11.659   1.557   0.505 -0.3964  0.1051  0.1000
  977MOL0     C31797  11.777   1.541   0.581  0.6698  0.7025 -1.2989
  977MOL0     C31798  11.792   1.403   0.642  0.6003  0.4017  0.6096
  977MOL0     C31799  11.793   1.301   0.524  0.1890 -0.0278 -0.0135
  977MOL0     C31800  11.827   1.163   0.566  0.1716  0.0472  0.6355
  977MOL0     C31801  11.770   1.053   0.482  0.2054  0.1342  1.5512
  977MOL0     C31802  11.803   0.914   0.540  0.5372 -0.5287  0.2803
  977MOL0     C31803  11.834   0.818   0.425  0.2565 -1.4110 -0.2381
  977MOL0     C31804  11.839   0.658   0.465 -0.2626 -0.0016 -0.2373
  977MOL0    Cl31805  11.914   0.543   0.345 -0.2266 -0.2426  0.2164
  977MOL0     C31806  11.434   1.600   0.450 -1.4220 -0.7847 -0.4018
  977MOL0     C31807  11.314   1.676   0.463  0.1937  1.0562  0.5379
  977MOL0     O31808  11.229   2.041   0.691  0.7492  0.0104 -0.0364
  977MOL0     C31809  10.946   1.829   0.662 -0.0959  0.6370  0.1883
  977MOL0     C31810  10.821   1.805   0.705 -0.1453 -0.3937  0.7107
  977MOL0     N31811  10.628   1.281   0.964 -0.5208 -0.2786 -0.3409
  977MOL0     N31812  10.553   1.176   0.991 -1.0357  0.4555  0.8606
  977MOL0     C31813   9.541   1.589   1.500 -0.0146  0.2518 -1.1946
  977MOL0     C31814   9.435   1.653   1.568 -0.3234  0.8278  0.3725
  977MOL0     C31815   9.120   1.808   1.828  0.4513 -0.1817  0.2718
  977MOL0     C31816   9.031   1.863   1.746 -0.3135 -0.9041 -0.0338
  977MOL0     C31817   8.919   1.942   1.799 -0.8348 -0.3313 -0.2022
  977MOL0     C31818   8.904   1.949   1.942 -0.1984  0.3945 -0.2955
  977MOL0     O31819   8.794   2.020   1.984  0.2191  0.3750  0.3929
  977MOL0     C31820   8.733   1.983   2.114  0.0857  1.1061  0.1212
  977MOL0     C31821   8.705   1.835   2.143  0.0084  0.8769  0.2807
  977MOL0     C31822   8.618   1.776   2.038  0.3514 -0.3256 -0.2653
  977MOL0     C31823   8.482   1.851   2.016  0.9428 -0.5959 -0.2810
  977MOL0     C31824   8.403   1.868   2.145 -0.6290 -0.7874 -0.3166
  977MOL0     C31825   8.351   1.885   2.253  0.2365  0.4274 -0.6090
  977MOL0     C31826   9.002   1.884   2.020  0.0376 -0.0094 -0.1787
  977MOL0     C31827   9.118   1.819   1.965  1.3143 -1.0844 -0.2914
  977MOL0     H31828   9.182   1.441   1.515  0.1304  1.2227 -2.0151
  977MOL0     H31829   9.349   1.332   1.377 -1.2024  2.5933 -2.2034
  977MOL0     H31830   9.588   1.221   1.404  1.7890 -0.7249  1.3143
  977MOL0     H31831   9.564   1.254   1.231  0.1247 -0.1566  0.2385
  977MOL0     H31832   9.788   1.290   1.181  0.8786 -1.5336 -0.0566
  977MOL0     H31833   9.823   1.326   1.361  0.2466 -3.4680  3.0580
  977MOL0     H31834   9.825   1.086   1.415 -1.8187 -3.3775 -0.2515
  977MOL0     H31835   9.729   1.049   1.285 -3.7174  1.9490  2.5612
  977MOL0     H31836   9.947   0.967   1.257 -0.4938 -0.0425  0.8058
  977MOL0     H31837   9.921   1.080   1.118  3.4305 -3.2282 -0.9719
  977MOL0     H31838  10.053   1.242   1.217  0.0323 -0.4681 -1.2923
  977MOL0     H31839  10.081   1.169   1.372  1.3491  1.2676 -0.7993
  977MOL0     H31840  10.185   0.972   1.289 -1.8071 -0.0945 -0.9872
  977MOL0     H31841  10.152   1.008   1.124 -3.6818  1.4363  0.4044
  977MOL0     H31842  10.274   1.230   1.135 -1.3848 -1.6544 -1.4987
  977MOL0     H31843  10.302   1.224   1.299 -0.8857  1.0321 -1.0848
  977MOL0     H31844  10.429   1.001   1.133  3.5276 -1.7641  3.1797
  977MOL0     H31845  10.478   1.076   1.287  0.9691 -2.0823 -0.4246
  977MOL0     H31846  10.545   1.343   1.271  0.4421 -2.7668  0.7235
  977MOL0     H31847  10.732   1.521   1.195  1.7636  0.0244 -1.0829
  977MOL0     H31848  10.815   1.517   1.043  0.7678  2.7538  1.2299
  977MOL0     H31849  10.525   1.599   1.015 -0.2398  0.1656 -1.7706
  977MOL0     H31850  10.653   1.611   0.905  1.4429 -1.4793  0.3255
  977MOL0     H31851  10.791   1.761   1.056  0.5320 -0.8062  4.5974
  977MOL0     H31852  10.658   1.737   1.169  0.7523 -2.1348 -0.1057
  977MOL0     H31853  10.609   1.954   1.025 -2.4961  0.9106 -2.5326
  977MOL0     H31854  10.499   1.827   1.008 -0.9273  0.1558 -1.5957
  977MOL0     H31855  10.803   2.025   0.948  2.7843 -2.6494  3.5866
  977MOL0     H31856  11.045   2.190   0.820 -1.8045  0.2843  1.0898
  977MOL0     H31857  10.997   2.153   0.987 -0.5373 -1.1854 -0.0460
  977MOL0     H31858  11.149   2.089   0.930 -0.2884  0.6627  1.6295
  977MOL0     H31859  11.433   1.919   0.674  2.0328  1.3487 -2.1629
  977MOL0     H31860  11.615   1.785   0.669 -1.5856  3.4179 -0.1617
  977MOL0     H31861  11.865   1.554   0.517  0.8172  1.3566 -0.9685
  977MOL0     H31862  11.784   1.616   0.660  3.1858 -2.3740  1.6770
  977MOL0     H31863  11.886   1.378   0.693 -0.6072 -2.6040  1.5879
  977MOL0     H31864  11.704   1.403   0.707 -1.1445  1.7857 -1.5855
  977MOL0     H31865  11.852   1.337   0.439 -2.7595 -0.0136 -2.2216
  977MOL0     H31866  11.690   1.303   0.487  1.1143 -3.7395 -3.5242
  977MOL0     H31867  11.934   1.144   0.557  0.0082 -4.2580  4.1510
  977MOL0     H31868  11.801   1.147   0.671  2.3088 -0.2993  1.1597
  977MOL0     H31869  11.816   1.051   0.383 -0.8633  0.7771  1.0237
  977MOL0     H31870  11.663   1.066   0.465  0.0709 -3.1033 -1.0274
  977MOL0     H31871  11.890   0.923   0.606 -0.3656 -0.6531  1.5359
  977MOL0     H31872  11.726   0.862   0.598  0.9463 -3.2606 -1.4195
  977MOL0     H31873  11.938   0.842   0.401  0.5844 -2.7965 -0.2898
  977MOL0     H31874  11.755   0.834   0.351 -1.8555  1.1911  2.3726
  977MOL0     H31875  11.736   0.628   0.488 -0.3585  0.7316  0.3384
  977MOL0     H31876  11.903   0.655   0.554  1.1511  0.1307 -1.2075
  977MOL0     H31877  11.453   1.521   0.378  4.1883 -2.1972  2.0885
  977MOL0     H31878  11.223   1.648   0.411 -0.1398  0.3099  1.4884
  977MOL0     H31879  10.977   1.777   0.571  1.8349 -0.8968  1.6493
  977MOL0     H31880  10.764   1.734   0.647  0.7974  0.2285 -1.0562
  977MOL0     H31881   9.640   1.635   1.501  0.3068  0.0540  3.6179
  977MOL0     H31882   9.456   1.749   1.614  1.5754 -0.2919  1.9771
  977MOL0     H31883   9.039   1.862   1.638  1.1689  4.0712 -0.1930
  977MOL0     H31884   8.860   1.998   1.727  2.1431  2.1300 -0.9708
  977MOL0     H31885   8.786   2.018   2.202 -0.5940 -1.2088  1.5301
  977MOL0     H31886   8.632   2.027   2.116 -0.0540  0.7797  2.3105
  977MOL0     H31887   8.656   1.826   2.241 -3.1543  1.1002 -1.1631
  977MOL0     H31888   8.795   1.774   2.153  0.9671  2.0901 -0.6933
  977MOL0     H31889   8.600   1.672   2.066 -0.6746  0.2149  1.2416
  977MOL0     H31890   8.672   1.765   1.944  2.3049 -3.0877  1.0483
  977MOL0     H31891   8.424   1.788   1.947  0.0476  0.1855 -0.2541
  977MOL0     H31892   8.511   1.945   1.968  1.5948 -0.4373  0.3933
  977MOL0     H31893   8.305   1.902   2.348  0.6896 -0.9661 -0.1239
  977MOL0     H31894   9.006   1.910   2.126  2.0631 -0.5787 -0.0687
  977MOL0     H31895   9.183   1.763   2.031 -0.9347 -2.0366  1.2394
  978MOL0     O31896   1.309   4.941   6.961 -0.5540  0.2237 -0.0770
  978MOL0     C31897   1.192   4.963   6.988 -0.3825 -0.5373  0.9621
  978MOL0     O31898   1.148   5.025   7.103  0.5099 -0.1932  0.8246
  978MOL0     C31899   1.222   5.078   7.202  0.3580 -0.5590 -0.1302
  978MOL0     C31900   1.252   5.003   7.317  0.2269  0.3137  0.1607
  978MOL0     C31901   1.320   5.061   7.425  0.1824  0.3139 -0.0378
  978MOL0     C31902   1.339   5.200   7.425 -0.8287  0.5843  0.1580
  978MOL0     O31903   1.390   5.278   7.526  0.2389 -0.7318  0.3423
  978MOL0     C31904   1.459   5.242   7.649  0.1448  0.1982  0.6382
  978MOL0     C31905   1.469   5.359   7.737 -0.9828 -0.5498  0.2855
  978MOL0     C31906   1.535   5.341   7.874  0.3069  0.3610 -0.5119
  978MOL0     C31907   1.584   5.476   7.932  0.7913 -0.5811 -0.2079
  978MOL0     C31908   1.627   5.462   8.073  0.5330  1.1732  0.0390
  978MOL0     C31909   1.763   5.392   8.086 -0.1409  0.5170  0.3093
  978MOL0     C31910   1.822   5.398   8.221 -0.0093  0.0280 -0.6716
  978MOL0     C31911   1.749   5.307   8.311  0.0747  1.5998 -0.1010
  978MOL0     N31912   1.797   5.168   8.303  0.1687  0.0973  0.5198
  978MOL0     C31913   1.930   5.125   8.328 -0.0966  0.5331  0.0579
  978MOL0     C31914   1.915   4.991   8.311  0.0934  0.5020 -0.2860
  978MOL0     C31915   2.020   4.889   8.337 -0.0545 -0.8664 -0.2502
  978MOL0     C31916   1.993   4.823   8.472 -0.1831 -0.0720  0.2545
  978MOL0     C31917   1.879   4.714   8.464 -0.0470 -0.3781 -0.6050
  978MOL0     C31918   1.912   4.606   8.372  0.9305  0.1246 -1.3668
  978MOL0     O31919   1.814   4.500   8.401  0.6886 -0.3775 -0.7552
  978MOL0     C31920   1.754   4.451   8.300 -0.9153  0.9061  1.1068
  978MOL0     C31921   1.824   4.354   8.222  0.1193 -0.3195  0.0376
  978MOL0     C31922   1.752   4.280   8.124  0.1098 -0.0305 -1.0868
  978MOL0     C31923   1.827   4.167   8.055  0.1404  0.3563 -0.4112
  978MOL0     C31924   1.613   4.298   8.111 -0.2400  0.3348 -0.0103
  978MOL0     C31925   1.529   4.222   8.016  0.5760  0.1195 -0.5735
  978MOL0     O31926   1.580   4.199   7.893  0.2067  0.2246  0.2623
  978MOL0     C31927   1.515   4.100   7.822 -0.5362 -0.2019 -0.2150
  978MOL0     C31928   1.564   3.970   7.825 -0.7501  0.4783  0.6263
  978MOL0     C31929   1.504   3.873   7.745  0.3307  0.3095 -0.2678
  978MOL0     C31930   1.406   3.916   7.661 -0.2880  0.8257  0.4932
  978MOL0     O31931   1.365   3.815   7.580 -0.4205  0.0614 -0.0754
  978MOL0     C31932   1.247   3.840   7.505 -0.0634 -0.0881  0.0651
  978MOL0     C31933   1.225   3.733   7.410 -0.4869  0.4480 -0.8488
  978MOL0     C31934   1.198   3.594   7.460 -0.6068  0.2910 -0.5051
  978MOL0     C31935   1.285   3.552   7.581  0.7146 -0.4542 -0.3362
  978MOL0     C31936   1.232   3.414   7.642 -0.7661 -0.1993  0.3447
  978MOL0     C31937   1.297   3.284   7.591 -0.6556 -0.1033  0.6323
  978MOL0     C31938   1.225   3.158   7.657  0.1117 -1.0867 -0.3052
  978MOL0     C31939   1.288   3.031   7.609 -0.3025 -0.0279  0.2021
  978MOL0    Cl31940   1.472   3.016   7.622  0.3415 -0.4803  0.2402
  978MOL0     C31941   1.349   4.043   7.653 -0.2523  0.0637  0.5011
  978MOL0     C31942   1.408   4.137   7.738  0.4339 -0.3926  0.0135
  978MOL0     O31943   1.428   4.174   8.065 -0.2468 -0.0252 -0.0503
  978MOL0     C31944   1.545   4.383   8.197  0.8550 -0.2560 -0.3858
  978MOL0     C31945   1.614   4.467   8.285 -0.0714 -0.8821 -0.3730
  978MOL0     N31946   1.784   4.961   8.292 -0.8694  0.4168 -1.0037
  978MOL0     N31947   1.713   5.063   8.285 -1.2547 -0.4554 -0.1609
  978MOL0     C31948   1.310   5.275   7.307  0.8994 -0.3306 -0.4596
  978MOL0     C31949   1.242   5.216   7.201  0.4791  0.2410  0.6769
  978MOL0     C31950   1.092   4.922   6.881 -0.7965 -0.5764 -0.5932
  978MOL0     C31951   0.954   4.923   6.903  0.2895 -0.7625  0.6546
  978MOL0     C31952   0.860   4.874   6.810 -0.6495  0.1228 -0.7500
  978MOL0     C31953   0.914   4.809   6.694  0.7453  0.2159 -0.3653
  978MOL0     O31954   0.836   4.744   6.605  0.1370 -0.5120  0.0194
  978MOL0     C31955   0.713   4.690   6.659 -0.2909 -0.6738 -1.0145
  978MOL0     C31956   0.640   4.601   6.561  0.0127  0.9037 -0.0733
  978MOL0     C31957   0.683   4.599   6.418 -0.0135  0.2415  0.8128
  978MOL0     C31958   0.583   4.551   6.315 -0.3154  0.8939  0.9712
  978MOL0     C31959   0.503   4.661   6.263  0.4887 -0.6506 -0.2689
  978MOL0     C31960   0.438   4.753   6.209  0.4459  0.3986 -0.2432
  978MOL0     C31961   1.049   4.814   6.665  1.0723  0.6856 -0.5003
  978MOL0     C31962   1.138   4.861   6.761  0.6176 -0.0351 -0.1415
  978MOL0     H31963   1.242   4.896   7.303  0.1211  0.1156  1.6392
  978MOL0     H31964   1.362   5.000   7.504  0.4822  0.7648  0.1569
  978MOL0     H31965   1.404   5.167   7.706  0.9163 -0.6515  0.2832
  978MOL0     H31966   1.555   5.198   7.622  0.7305  1.7307  0.0768
  978MOL0     H31967   1.534   5.436   7.693 -0.6605 -1.0941 -0.2100
  978MOL0     H31968   1.369   5.401   7.753 -1.6119 -2.5386  1.8996
  978MOL0     H31969   1.449   5.314   7.937 -1.6787 -0.2077 -3.2996
  978MOL0     H31970   1.614   5.266   7.876 -0.5599 -0.5663  0.3020
  978MOL0     H31971   1.670   5.506   7.871 -0.3139 -0.6243 -1.8373
  978MOL0     H31972   1.512   5.559   7.929  2.6396  1.0853 -0.4578
  978MOL0     H31973   1.631   5.555   8.130  3.0095  0.6157  0.9499
  978MOL0     H31974   1.556   5.399   8.127  1.5646  1.7907  2.2331
  978MOL0     H31975   1.750   5.287   8.060 -3.6208  1.4646 -2.6124
  978MOL0     H31976   1.825   5.424   8.001 -1.9970 -0.6253 -1.5758
  978MOL0     H31977   1.932   5.391   8.221  0.3034  1.9416 -4.4508
  978MOL0     H31978   1.809   5.500   8.259  0.0068 -0.7651  1.5725
  978MOL0     H31979   1.645   5.309   8.276 -0.1517  2.1291  0.5825
  978MOL0     H31980   1.747   5.357   8.408 -0.0946 -1.2271  1.4740
  978MOL0     H31981   2.019   5.187   8.344  0.2024  0.1083  0.0512
  978MOL0     H31982   2.034   4.823   8.251  0.3609 -2.1005  0.7426
  978MOL0     H31983   2.116   4.940   8.342 -0.6800  0.9197 -3.4985
  978MOL0     H31984   1.958   4.896   8.545 -2.2345  1.1760 -1.8622
  978MOL0     H31985   2.083   4.768   8.503 -0.2446 -2.7476 -3.5804
  978MOL0     H31986   1.776   4.742   8.437 -0.6299 -0.4163  1.4063
  978MOL0     H31987   1.883   4.682   8.569 -0.3176  0.9285 -0.1772
  978MOL0     H31988   2.013   4.566   8.385  0.5341 -0.7512 -0.8425
  978MOL0     H31989   1.893   4.634   8.268  1.2485 -0.0296 -1.4713
  978MOL0     H31990   1.928   4.332   8.242  0.3295 -0.7143 -1.3869
  978MOL0     H31991   1.765   4.099   7.996  0.1676  0.8419 -1.0129
  978MOL0     H31992   1.896   4.204   7.978  1.6880  0.0645  0.7801
  978MOL0     H31993   1.893   4.122   8.130  1.3014  1.5406 -0.6741
  978MOL0     H31994   1.647   3.947   7.891 -0.6473  2.0630  1.1000
  978MOL0     H31995   1.539   3.771   7.756 -1.7051 -0.4287 -0.2386
  978MOL0     H31996   1.165   3.866   7.572  0.3683 -1.5883  1.2612
  978MOL0     H31997   1.254   3.931   7.445  1.2683  1.2815  2.1717
  978MOL0     H31998   1.147   3.759   7.337  0.4695  3.7680 -0.8537
  978MOL0     H31999   1.312   3.743   7.345 -0.6745 -1.0713 -1.3805
  978MOL0     H32000   1.193   3.513   7.387 -0.4491 -0.2984  0.1277
  978MOL0     H32001   1.093   3.598   7.492 -0.4381  4.1185  0.1046
  978MOL0     H32002   1.388   3.548   7.545  1.1729  1.9429  0.5587
  978MOL0     H32003   1.279   3.616   7.670 -1.7688 -2.0271  0.7250
  978MOL0     H32004   1.123   3.410   7.637 -0.9550  2.8203  0.4285
  978MOL0     H32005   1.253   3.413   7.750  2.3309  2.9917 -0.0549
  978MOL0     H32006   1.277   3.279   7.484 -0.6478  1.0617  0.5681
  978MOL0     H32007   1.405   3.289   7.610 -0.5975  2.3315 -0.0377
  978MOL0     H32008   1.117   3.153   7.636  0.1575  1.9237 -1.8735
  978MOL0     H32009   1.240   3.148   7.764 -0.7292 -0.3796 -0.1048
  978MOL0     H32010   1.265   3.008   7.504  2.8488 -0.1826 -0.5480
  978MOL0     H32011   1.240   2.950   7.665 -1.4795  0.8574  0.5121
  978MOL0     H32012   1.264   4.067   7.590 -0.9397 -1.2252  0.8867
  978MOL0     H32013   1.365   4.237   7.738  3.1952  0.9049  0.7725
  978MOL0     H32014   1.438   4.385   8.178  0.4138  0.5515  1.9469
  978MOL0     H32015   1.561   4.532   8.353  0.9836 -2.4722  2.1066
  978MOL0     H32016   1.331   5.381   7.295 -2.4135  0.6215  1.0931
  978MOL0     H32017   1.218   5.259   7.104  2.7105  0.8465  0.3548
  978MOL0     H32018   0.910   4.972   6.989  1.4595 -0.1664  0.9383
  978MOL0     H32019   0.756   4.894   6.833 -1.4116 -3.1711 -0.8230
  978MOL0     H32020   0.739   4.635   6.750 -2.3357  1.3491  0.9325
  978MOL0     H32021   0.644   4.770   6.689 -1.9005 -2.9787  2.0397
  978MOL0     H32022   0.535   4.628   6.548 -0.2201  0.3125  0.4839
  978MOL0     H32023   0.651   4.504   6.612 -1.8925  0.6906 -0.0263
  978MOL0     H32024   0.774   4.540   6.398  1.5093  3.8164 -4.9174
  978MOL0     H32025   0.723   4.697   6.391  2.1650 -0.8202 -0.0768
  978MOL0     H32026   0.512   4.473   6.343  1.9232 -0.6069  2.7971
  978MOL0     H32027   0.639   4.514   6.229 -1.9115  2.5798 -0.9170
  978MOL0     H32028   0.368   4.817   6.159  0.0054  1.2862  1.4049
  978MOL0     H32029   1.091   4.781   6.571  4.1075  0.8846  0.6730
  978MOL0     H32030   1.244   4.842   6.745  0.4566 -0.6084 -0.5160
  979MOL0     O32031  10.607   7.603   0.059  0.0608  0.2850  0.9300
  979MOL0     C32032  10.634   7.697  -0.010  0.2863 -0.8116  0.1848
  979MOL0     O32033  10.744   7.715  -0.092  0.6711 -0.3501  0.4986
  979MOL0     C32034  10.830   7.623  -0.133 -0.5200 -0.1141 -1.0557
  979MOL0     C32035  10.904   7.660  -0.246  0.4835 -0.3131 -1.0253
  979MOL0     C32036  10.989   7.577  -0.307 -0.0915  0.1463  0.1488
  979MOL0     C32037  11.004   7.440  -0.256  0.6035 -0.3604  0.9300
  979MOL0     O32038  11.089   7.350  -0.310 -0.3245 -0.1643 -0.5734
  979MOL0     C32039  11.062   7.326  -0.447 -0.7129  0.8374 -0.1405
  979MOL0     C32040  11.121   7.202  -0.508 -0.7217  0.2712 -0.3373
  979MOL0     C32041  11.037   7.075  -0.480  0.3671 -0.9407  0.0246
  979MOL0     C32042  11.073   6.965  -0.582 -0.4931  0.2443  0.0472
  979MOL0     C32043  10.986   6.842  -0.557  0.0606  0.0748 -0.3969
  979MOL0     C32044  10.987   6.748  -0.678  0.3684 -0.1818 -0.8632
  979MOL0     C32045  11.116   6.664  -0.687 -0.4080  0.1480 -0.4046
  979MOL0     C32046  11.097   6.543  -0.773 -0.2697 -0.2421  0.3425
  979MOL0     N32047  11.036   6.594  -0.900 -0.6408  0.2868  0.4291
  979MOL0     C32048  11.100   6.645  -1.011 -0.5571  0.9050  0.3750
  979MOL0     C32049  11.001   6.666  -1.105 -0.2935 -0.2530 -0.0387
  979MOL0     C32050  11.008   6.727  -1.249 -0.4365 -0.7545 -0.2831
  979MOL0     C32051  11.068   6.617  -1.345  0.4927 -0.0168 -0.0365
  979MOL0     C32052  11.100   6.680  -1.469 -0.5110 -1.2735 -0.1131
  979MOL0     C32053  11.205   6.601  -1.561  0.6744 -0.7089 -1.0611
  979MOL0     O32054  11.146   6.481  -1.619 -0.1347  0.2661  0.3041
  979MOL0     C32055  11.237   6.414  -1.695 -0.0878 -0.9850 -0.8391
  979MOL0     C32056  11.185   6.354  -1.806  0.9088 -0.7150 -0.0859
  979MOL0     C32057  11.261   6.292  -1.896  0.5642  0.2428  0.8848
  979MOL0     C32058  11.178   6.210  -2.002 -0.2972 -0.3457  0.1984
  979MOL0     C32059  11.397   6.288  -1.883  0.9213  0.3179 -0.1373
  979MOL0     C32060  11.488   6.226  -1.977  0.2957  0.3621  0.5192
  979MOL0     O32061  11.622   6.228  -1.947  0.4725 -0.9505 -0.3890
  979MOL0     C32062  11.694   6.180  -2.048 -0.4282  0.0512 -0.3565
  979MOL0     C32063  11.753   6.054  -2.030 -0.3028  0.4812 -0.2520
  979MOL0     C32064  11.834   5.995  -2.129  0.8069  0.2064 -0.5836
  979MOL0     C32065  11.866   6.064  -2.243  0.6908 -0.0213  0.2952
  979MOL0     O32066  11.938   6.009  -2.346 -0.2013 -0.5836  0.8025
  979MOL0     C32067  12.016   5.887  -2.323  0.2819  0.3950  0.6495
  979MOL0     C32068  12.081   5.838  -2.458  0.6448 -0.2753  0.4086
  979MOL0     C32069  12.139   5.689  -2.474  0.3868 -0.7757 -0.0389
  979MOL0     C32070  12.031   5.581  -2.428 -0.9197 -0.1448 -0.5284
  979MOL0     C32071  12.055   5.446  -2.508  0.0238  0.6302 -0.9770
  979MOL0     C32072  12.001   5.453  -2.644  1.0837 -0.7379 -0.5553
  979MOL0     C32073  12.015   5.314  -2.707  0.3902 -0.5991  0.5930
  979MOL0     C32074  11.949   5.299  -2.850 -0.4653  0.6780 -0.4134
  979MOL0    Cl32075  11.777   5.356  -2.841 -0.4998  0.2265 -0.0944
  979MOL0     C32076  11.823   6.193  -2.258 -0.1556  0.2195 -0.2501
  979MOL0     C32077  11.734   6.257  -2.165  0.0945  0.1556 -0.7129
  979MOL0     O32078  11.437   6.181  -2.078  0.3407 -0.7623  0.8263
  979MOL0     C32079  11.454   6.334  -1.763  0.2180  0.0382 -0.4343
  979MOL0     C32080  11.379   6.397  -1.670 -0.1957 -0.2405 -0.3360
  979MOL0     N32081  10.885   6.620  -1.052  0.5538 -0.2577  0.0666
  979MOL0     N32082  10.905   6.579  -0.938 -0.2876  0.7585  0.4552
  979MOL0     C32083  10.930   7.400  -0.138 -0.3417 -0.1996 -0.3354
  979MOL0     C32084  10.844   7.493  -0.073 -0.0269 -0.5125 -0.4876
  979MOL0     C32085  10.554   7.826   0.004  0.0058 -0.1530  0.3406
  979MOL0     C32086  10.461   7.844   0.106  0.1858 -0.4858 -0.3477
  979MOL0     C32087  10.376   7.957   0.114 -0.3638 -0.9026  0.4026
  979MOL0     C32088  10.379   8.056   0.011 -0.4669 -0.1284 -1.5471
  979MOL0     O32089  10.285   8.158   0.035  0.0497  0.1449  0.0265
  979MOL0     C32090  10.297   8.270  -0.052  0.4168 -0.4019  0.0174
  979MOL0     C32091  10.184   8.365  -0.014 -0.8938 -0.2939 -0.9548
  979MOL0     C32092  10.042   8.324  -0.038 -0.1975  0.6238  0.8908
  979MOL0     C32093   9.960   8.266   0.085  0.0825  0.9794 -0.3723
  979MOL0     C32094   9.827   8.202   0.060 -1.3646  0.0706 -0.1447
  979MOL0     C32095   9.726   8.146   0.031  0.2614 -0.1674  0.2745
  979MOL0     C32096  10.472   8.045  -0.091  0.6077  0.9256  0.3037
  979MOL0     C32097  10.558   7.930  -0.091 -0.2990  0.4780 -0.8273
  979MOL0     H32098  10.887   7.756  -0.293 -0.2410  0.9706  1.6348
  979MOL0     H32099  11.031   7.608  -0.402 -0.3732  3.9149  1.0925
  979MOL0     H32100  10.954   7.316  -0.457 -0.9249 -0.7413  2.6454
  979MOL0     H32101  11.110   7.406  -0.505  1.5313  0.8901  1.6586
  979MOL0     H32102  11.139   7.219  -0.615  0.6678  0.6779 -0.0545
  979MOL0     H32103  11.224   7.179  -0.478 -1.2103 -1.3348  0.1840
  979MOL0     H32104  11.050   7.039  -0.378  1.1710  0.3261  0.4088
  979MOL0     H32105  10.932   7.104  -0.488  0.9228  1.1608 -0.2986
  979MOL0     H32106  11.066   7.010  -0.681  1.3895 -0.5393 -0.4726
  979MOL0     H32107  11.179   6.945  -0.563  0.2591  3.9731  0.4368
  979MOL0     H32108  11.011   6.784  -0.468  0.4236 -2.5608 -2.1036
  979MOL0     H32109  10.882   6.874  -0.548 -0.8658 -2.4517 -1.1414
  979MOL0     H32110  10.898   6.685  -0.672 -0.8157  1.4439 -0.9784
  979MOL0     H32111  10.974   6.813  -0.764  1.2220  3.2846  1.4249
  979MOL0     H32112  11.208   6.716  -0.715  1.8870 -1.2669  3.6219
  979MOL0     H32113  11.132   6.618  -0.589  3.6155  1.8497 -0.0579
  979MOL0     H32114  11.034   6.465  -0.729 -0.6710 -2.1227 -3.1150
  979MOL0     H32115  11.190   6.486  -0.784 -1.4948 -2.0997 -1.0265
  979MOL0     H32116  11.208   6.645  -1.026 -0.7375 -1.3578 -1.5057
  979MOL0     H32117  10.918   6.774  -1.289  0.6414  0.9170 -0.8546
  979MOL0     H32118  11.072   6.816  -1.254 -0.1821 -0.6517  2.7581
  979MOL0     H32119  10.983   6.552  -1.368 -1.4175  1.9911  0.9531
  979MOL0     H32120  11.159   6.571  -1.305  0.7487  0.8030  0.3650
  979MOL0     H32121  11.136   6.780  -1.446 -1.6460 -0.2682 -2.4016
  979MOL0     H32122  11.008   6.701  -1.524 -0.1303  0.9727  0.0367
  979MOL0     H32123  11.295   6.589  -1.500 -0.3986  0.2687  0.8161
  979MOL0     H32124  11.222   6.666  -1.648 -1.0053 -0.2718 -1.1070
  979MOL0     H32125  11.078   6.364  -1.820  0.8991 -2.4462 -1.7119
  979MOL0     H32126  11.183   6.102  -1.986 -4.7893 -0.9392 -1.0664
  979MOL0     H32127  11.073   6.238  -1.998 -0.0515  0.4441  1.4663
  979MOL0     H32128  11.215   6.242  -2.100 -0.7337  2.7976  0.9586
  979MOL0     H32129  11.731   5.992  -1.943  0.1383  1.4847  0.6061
  979MOL0     H32130  11.869   5.895  -2.105  0.1174  0.2543  0.6795
  979MOL0     H32131  12.089   5.888  -2.242  3.5605 -2.2382 -1.9411
  979MOL0     H32132  11.962   5.796  -2.296  2.3154 -0.8302  0.7478
  979MOL0     H32133  11.999   5.840  -2.530 -0.5843  1.9610  1.7572
  979MOL0     H32134  12.153   5.914  -2.491 -0.5706  0.5688 -0.3912
  979MOL0     H32135  12.229   5.688  -2.412  1.9806  0.2827 -2.2180
  979MOL0     H32136  12.159   5.681  -2.581  0.4246 -1.0094 -0.0137
  979MOL0     H32137  12.060   5.551  -2.327  0.9635 -0.5191 -1.1301
  979MOL0     H32138  11.927   5.607  -2.446 -1.9504 -3.3611  0.0924
  979MOL0     H32139  12.023   5.355  -2.456  1.1691  0.2581 -0.9050
  979MOL0     H32140  12.164   5.435  -2.515 -0.1930 -1.9204 -1.2418
  979MOL0     H32141  11.900   5.496  -2.647  1.3303 -0.1302 -0.2710
  979MOL0     H32142  12.064   5.530  -2.691 -1.1698  1.9577  0.5393
  979MOL0     H32143  11.970   5.245  -2.635  3.2822 -0.8849  2.2802
  979MOL0     H32144  12.122   5.305  -2.725  1.3181  3.5125  2.7610
  979MOL0     H32145  11.944   5.192  -2.869  1.4687  0.5323 -0.3006
  979MOL0     H32146  12.015   5.350  -2.921 -0.3341 -0.2512 -0.9623
  979MOL0     H32147  11.860   6.250  -2.343  0.0517 -0.9980 -0.9953
  979MOL0     H32148  11.703   6.361  -2.168  1.1803  0.4975 -0.6699
  979MOL0     H32149  11.559   6.330  -1.737 -0.2839 -0.9504  1.6182
  979MOL0     H32150  11.429   6.429  -1.579 -0.9476 -2.1558  0.8126
  979MOL0     H32151  10.933   7.301  -0.093 -1.5606  0.6096  1.6741
  979MOL0     H32152  10.803   7.452   0.019  2.9795  0.2833  1.3790
  979MOL0     H32153  10.449   7.764   0.178  0.2921 -0.0674  0.1400
  979MOL0     H32154  10.307   7.969   0.197 -0.2237  0.8653  0.3070
  979MOL0     H32155  10.394   8.317  -0.035 -0.5915  1.0016  2.3398
  979MOL0     H32156  10.291   8.236  -0.155  1.4341 -1.9900  0.4390
  979MOL0     H32157  10.191   8.456  -0.074 -2.3018  2.0737  2.2182
  979MOL0     H32158  10.196   8.394   0.091 -2.4835  2.8237 -1.5057
  979MOL0     H32159  10.031   8.251  -0.118  1.5709 -1.3618  2.3353
  979MOL0     H32160   9.987   8.414  -0.068  0.4270  1.6155  2.5656
  979MOL0     H32161   9.957   8.352   0.153  1.7569  1.5482 -0.9571
  979MOL0     H32162  10.014   8.181   0.128 -1.6916  1.1686  2.5136
  979MOL0     H32163   9.638   8.088   0.012 -1.6754  1.8145  2.6195
  979MOL0     H32164  10.470   8.123  -0.167  2.4597  1.3422  0.6290
  979MOL0     H32165  10.630   7.916  -0.172  2.9372  3.2232  1.3178
  980MOL0     O32166   4.433  10.993   2.295 -0.6726 -0.3298  0.5261
  980MOL0     C32167   4.496  11.069   2.361  0.6435  0.0503  1.0615
  980MOL0     O32168   4.624  11.042   2.401  0.0919  0.0329  0.0519
  980MOL0     C32169   4.676  10.912   2.403 -0.2765 -1.5903 -0.9218
  980MOL0     C32170   4.597  10.793   2.419 -1.3017 -0.2052  0.9400
  980MOL0     C32171   4.665  10.677   2.415  0.1067 -0.6397 -0.7774
  980MOL0     C32172   4.801  10.669   2.397 -0.8232  0.8151  0.4134
  980MOL0     O32173   4.880  10.557   2.410  0.0622  0.2112  0.8850
  980MOL0     C32174   4.848  10.439   2.335 -0.3498  0.3076  0.3766
  980MOL0     C32175   4.862  10.316   2.428 -0.9796  0.3052  0.5450
  980MOL0     C32176   4.925  10.198   2.348 -0.2584  0.6663 -0.8129
  980MOL0     C32177   4.963  10.082   2.435  0.0776 -0.3072  0.0727
  980MOL0     C32178   5.042   9.989   2.353 -0.5179  0.0713  1.3070
  980MOL0     C32179   5.061   9.852   2.413  0.3750 -0.7998  0.1200
  980MOL0     C32180   5.178   9.768   2.356  0.4300 -0.2858 -1.0671
  980MOL0     C32181   5.194   9.623   2.417 -0.2817 -0.4644 -0.7646
  980MOL0     N32182   5.277   9.533   2.336 -0.3163 -0.8447 -0.1131
  980MOL0     C32183   5.225   9.441   2.257 -0.7466  0.5278 -0.0902
  980MOL0     C32184   5.334   9.373   2.207  0.1946 -0.0381  0.1995
  980MOL0     C32185   5.334   9.245   2.121 -0.4833 -0.6930 -0.3984
  980MOL0     C32186   5.372   9.134   2.212  0.4866 -0.1802  0.2532
  980MOL0     C32187   5.423   9.019   2.130  0.6664  0.2580  0.2359
  980MOL0     C32188   5.470   8.909   2.220  0.3805  0.1660  0.0713
  980MOL0     O32189   5.411   8.918   2.350  0.1705  0.2208  0.8426
  980MOL0     C32190   5.418   8.805   2.420  1.2920 -0.4498  1.4863
  980MOL0     C32191   5.296   8.750   2.464  1.0242  0.2683  0.1063
  980MOL0     C32192   5.293   8.620   2.523  0.2035 -0.7027  0.5894
  980MOL0     C32193   5.157   8.583   2.574 -1.1954  0.5447 -1.1356
  980MOL0     C32194   5.414   8.550   2.536  0.4767 -0.1345  0.4401
  980MOL0     C32195   5.418   8.407   2.590  0.6613 -0.4006 -0.6515
  980MOL0     O32196   5.540   8.362   2.623 -0.1989 -0.5068  0.1444
  980MOL0     C32197   5.552   8.253   2.702 -0.6259 -0.8632 -0.5975
  980MOL0     C32198   5.638   8.153   2.665  0.7707  0.2953 -1.6153
  980MOL0     C32199   5.639   8.040   2.746 -0.4253 -0.0418  0.7740
  980MOL0     C32200   5.562   8.022   2.859 -0.1764 -0.5702 -0.5774
  980MOL0     O32201   5.577   7.909   2.929  0.6613  0.3934 -0.6715
  980MOL0     C32202   5.626   7.919   3.060  0.1670  0.0849 -0.6010
  980MOL0     C32203   5.546   7.820   3.148  0.2502 -0.2248 -0.1721
  980MOL0     C32204   5.545   7.679   3.101 -0.3667  0.9635  0.5514
  980MOL0     C32205   5.454   7.585   3.176  0.3599 -0.3755 -0.5596
  980MOL0     C32206   5.469   7.436   3.140 -0.1185 -0.3332 -0.6682
  980MOL0     C32207   5.362   7.355   3.203 -0.0369 -0.5738 -0.2301
  980MOL0     C32208   5.383   7.206   3.169 -0.1245 -0.8508  0.2667
  980MOL0     C32209   5.256   7.115   3.185  0.1372  0.2533 -0.3610
  980MOL0    Cl32210   5.189   7.092   3.346 -0.1460 -0.4061  0.0777
  980MOL0     C32211   5.467   8.115   2.889  0.5350  0.7252  1.1261
  980MOL0     C32212   5.461   8.233   2.811  0.1510  0.0403  0.1457
  980MOL0     O32213   5.307   8.341   2.588 -0.1828  0.3980 -0.0681
  980MOL0     C32214   5.538   8.608   2.496  0.1593  0.1190  0.1795
  980MOL0     C32215   5.537   8.737   2.443 -0.3890  0.0157  0.6875
  980MOL0     N32216   5.441   9.445   2.252  0.8769  0.0613  1.1275
  980MOL0     N32217   5.416   9.537   2.328  0.2440  0.4310 -0.3269
  980MOL0     C32218   4.879  10.783   2.373  0.6406  0.9747 -0.2667
  980MOL0     C32219   4.810  10.906   2.379  0.2349 -0.8066  0.1528
  980MOL0     C32220   4.449  11.206   2.354 -0.1408  0.7634 -0.5723
  980MOL0     C32221   4.320  11.242   2.316 -0.4735  0.0635  0.8844
  980MOL0     C32222   4.283  11.381   2.307 -0.9905  0.9509  0.8369
  980MOL0     C32223   4.374  11.477   2.353 -0.5365 -0.1768  0.9320
  980MOL0     O32224   4.320  11.599   2.348  0.0604 -0.0722 -0.3557
  980MOL0     C32225   4.405  11.716   2.367 -0.1486  0.4999  0.6266
  980MOL0     C32226   4.321  11.848   2.369 -0.3770 -0.1672  0.0624
  980MOL0     C32227   4.254  11.889   2.501 -0.3667  1.0243  1.1440
  980MOL0     C32228   4.232  12.039   2.502 -0.6126 -0.5191  0.4571
  980MOL0     C32229   4.157  12.086   2.382  0.1697 -0.7505 -0.1915
  980MOL0     C32230   4.104  12.150   2.293 -0.2356  0.0471  0.4368
  980MOL0     C32231   4.503  11.436   2.389  0.2374 -0.9901  0.4321
  980MOL0     C32232   4.545  11.308   2.388  0.4334 -0.1405 -0.0678
  980MOL0     H32233   4.488  10.794   2.420 -1.3593  2.5424  1.0217
  980MOL0     H32234   4.605  10.588   2.429  4.1834 -3.3463  1.6864
  980MOL0     H32235   4.749  10.446   2.289  0.5376  2.6318 -1.3411
  980MOL0     H32236   4.935  10.444   2.269  1.2259 -1.1627  2.2175
  980MOL0     H32237   4.945  10.340   2.495 -0.1427  1.1047 -0.7180
  980MOL0     H32238   4.766  10.289   2.471  0.3749 -2.6096  2.0327
  980MOL0     H32239   4.846  10.161   2.282 -0.3377 -0.3949 -0.1404
  980MOL0     H32240   5.015  10.241   2.304  0.8534  0.5616  1.2518
  980MOL0     H32241   5.025  10.109   2.521 -0.9477 -3.1223  1.8821
  980MOL0     H32242   4.884  10.018   2.476  0.6063 -1.5867 -0.8234
  980MOL0     H32243   5.007   9.965   2.253  4.0250  0.4239 -0.6194
  980MOL0     H32244   5.136  10.046   2.348 -0.2640 -0.4387 -1.6736
  980MOL0     H32245   5.078   9.868   2.520 -2.0449  1.0215  0.3329
  980MOL0     H32246   4.968   9.801   2.384 -2.4431  2.5314  2.5193
  980MOL0     H32247   5.168   9.754   2.248  1.2180  0.8190 -1.2944
  980MOL0     H32248   5.271   9.823   2.366 -0.3445  1.1262 -1.4388
  980MOL0     H32249   5.104   9.572   2.454 -0.3526 -1.4856 -2.2698
  980MOL0     H32250   5.254   9.637   2.507  2.5982 -0.1799 -2.5820
  980MOL0     H32251   5.123   9.404   2.253 -0.8918  1.0073 -1.2281
  980MOL0     H32252   5.234   9.224   2.081 -0.8367  3.0656 -1.8955
  980MOL0     H32253   5.401   9.262   2.037 -0.5099 -2.2256 -0.7626
  980MOL0     H32254   5.281   9.103   2.263  2.0975 -2.6096  1.8386
  980MOL0     H32255   5.443   9.163   2.289 -0.3837  0.0307  0.9897
  980MOL0     H32256   5.500   9.046   2.057  2.4940  2.2402  2.7059
  980MOL0     H32257   5.344   8.974   2.069 -0.9962  1.5924  1.3308
  980MOL0     H32258   5.578   8.913   2.231  0.5199 -1.8229 -0.1158
  980MOL0     H32259   5.439   8.815   2.172 -1.1216 -0.5696  2.3448
  980MOL0     H32260   5.206   8.811   2.466  2.1537  1.9824  1.3632
  980MOL0     H32261   5.172   8.524   2.665 -1.7640  2.8562  0.5441
  980MOL0     H32262   5.094   8.670   2.596 -0.4686  1.0125 -0.8815
  980MOL0     H32263   5.102   8.523   2.500 -1.1021 -1.9695  0.6665
  980MOL0     H32264   5.708   8.171   2.585  0.0620  1.6648 -1.9530
  980MOL0     H32265   5.705   7.957   2.726 -0.4478  0.1494 -0.1587
  980MOL0     H32266   5.735   7.904   3.057  0.5366  2.4965 -2.8606
  980MOL0     H32267   5.605   8.014   3.110 -2.4881 -0.7405 -0.0128
  980MOL0     H32268   5.591   7.819   3.248  0.0509 -1.3018 -0.0775
  980MOL0     H32269   5.441   7.850   3.159  0.6506  0.7217  1.3457
  980MOL0     H32270   5.641   7.628   3.091 -2.6619 -3.5249 -2.1098
  980MOL0     H32271   5.509   7.683   2.997  1.8003 -2.7657 -0.5538
  980MOL0     H32272   5.472   7.599   3.283 -1.0538 -3.2938  0.1601
  980MOL0     H32273   5.356   7.630   3.160  0.6603  0.1431 -0.9847
  980MOL0     H32274   5.554   7.397   3.197 -2.3370 -0.3550  2.8834
  980MOL0     H32275   5.484   7.430   3.031  1.5946 -1.4944 -0.4233
  980MOL0     H32276   5.378   7.365   3.310  3.1123 -0.7947 -0.6038
  980MOL0     H32277   5.266   7.393   3.165  1.7468  1.0578 -3.5666
  980MOL0     H32278   5.468   7.167   3.227  2.2441  0.2764 -2.2322
  980MOL0     H32279   5.424   7.200   3.068  3.4673  0.7660  1.4474
  980MOL0     H32280   5.262   7.009   3.156 -0.9603 -0.2679  1.1799
  980MOL0     H32281   5.169   7.146   3.126 -2.7004 -2.6558  1.9497
  980MOL0     H32282   5.396   8.114   2.971  0.1646 -0.0762  0.7984
  980MOL0     H32283   5.380   8.303   2.829  3.3507  3.4939  2.6255
  980MOL0     H32284   5.631   8.554   2.501 -0.4460 -0.9272  0.2995
  980MOL0     H32285   5.627   8.782   2.403 -0.3904 -1.8276 -1.6442
  980MOL0     H32286   4.986  10.775   2.357  0.8620  0.4012  1.3116
  980MOL0     H32287   4.870  10.995   2.364  1.0318 -1.0594  1.6615
  980MOL0     H32288   4.248  11.169   2.280 -2.0893  2.4404 -0.9709
  980MOL0     H32289   4.186  11.414   2.270  0.6900  3.3250 -1.8393
  980MOL0     H32290   4.455  11.701   2.463  0.9512 -0.6990 -0.0851
  980MOL0     H32291   4.480  11.725   2.287  2.8770  0.6664  3.2908
  980MOL0     H32292   4.241  11.836   2.297  0.6621 -0.9439 -0.9934
  980MOL0     H32293   4.377  11.930   2.323 -2.5548  0.0663 -2.3809
  980MOL0     H32294   4.329  11.873   2.579  1.5568  0.2570 -0.7734
  980MOL0     H32295   4.160  11.836   2.522 -0.4629  0.9586  0.5512
  980MOL0     H32296   4.333  12.079   2.499  0.3676 -2.6941  1.8309
  980MOL0     H32297   4.176  12.070   2.591  2.1160 -0.8857  2.4142
  980MOL0     H32298   4.054  12.183   2.204 -1.7597  0.9233  1.5833
  980MOL0     H32299   4.574  11.513   2.417 -2.5468  0.9387  2.7636
  980MOL0     H32300   4.638  11.278   2.434 -1.7681 -0.6358  4.6459
  981MOL0     O32301   3.213  10.556   1.050  0.0518  0.2958 -0.0926
  981MOL0     C32302   3.329  10.577   1.015  0.3482  0.4657  0.6472
  981MOL0     O32303   3.429  10.612   1.101 -0.0543  0.3076 -0.0338
  981MOL0     C32304   3.406  10.601   1.237  0.1738  0.1549 -0.0025
  981MOL0     C32305   3.433  10.483   1.300  0.1179 -0.4525  0.0104
  981MOL0     C32306   3.413  10.476   1.440  0.9140 -0.2009 -0.3781
  981MOL0     C32307   3.371  10.594   1.502  0.7501 -0.8086 -0.4824
  981MOL0     O32308   3.360  10.574   1.631  0.7302 -0.3860  0.0571
  981MOL0     C32309   3.249  10.642   1.691  0.8917 -0.3834  0.5820
  981MOL0     C32310   3.207  10.584   1.820 -1.2967 -0.2891  0.1860
  981MOL0     C32311   3.093  10.666   1.893 -0.2167  0.2465  0.0324
  981MOL0     C32312   2.950  10.626   1.835  0.0548 -0.2140 -0.7003
  981MOL0     C32313   2.852  10.712   1.915  0.6362 -0.2656 -0.2368
  981MOL0     C32314   2.864  10.867   1.907  0.3212  0.1342  0.7578
  981MOL0     C32315   2.854  10.933   1.763 -0.8641  0.2311 -0.2564
  981MOL0     C32316   2.722  10.938   1.703 -0.6150 -0.6138  0.1512
  981MOL0     N32317   2.636  11.044   1.770  0.6282 -0.1740  0.5285
  981MOL0     C32318   2.644  11.181   1.751  0.4201  0.3884 -0.9210
  981MOL0     C32319   2.541  11.227   1.827  0.5846 -0.1162 -0.4381
  981MOL0     C32320   2.509  11.374   1.861  0.6000 -0.0339  0.4223
  981MOL0     C32321   2.457  11.374   2.004  0.6282  0.2177  0.6335
  981MOL0     C32322   2.411  11.515   2.036 -0.8761 -0.5384 -0.7114
  981MOL0     C32323   2.332  11.522   2.165  0.0063  0.0531  0.1755
  981MOL0     O32324   2.408  11.457   2.264 -0.1497  0.2409 -0.2529
  981MOL0     C32325   2.391  11.476   2.398 -1.3438 -0.2348 -0.3664
  981MOL0     C32326   2.502  11.451   2.484  0.3571 -0.0358  0.5433
  981MOL0     C32327   2.490  11.464   2.620 -0.5132 -0.3517 -0.0023
  981MOL0     C32328   2.593  11.399   2.696 -0.7820  0.9007  0.1602
  981MOL0     C32329   2.372  11.525   2.679 -0.1768  1.0491  0.8243
  981MOL0     C32330   2.361  11.561   2.823 -1.0529  0.2824  0.3594
  981MOL0     O32331   2.478  11.607   2.885  0.1223  0.4539 -0.5837
  981MOL0     C32332   2.467  11.695   2.986 -0.8803 -0.4793 -0.0957
  981MOL0     C32333   2.457  11.829   2.963  0.6878  0.1373 -0.3014
  981MOL0     C32334   2.452  11.921   3.065  0.1352  0.0305  0.2660
  981MOL0     C32335   2.452  11.890   3.205 -0.2779  0.2189  0.3724
  981MOL0     O32336   2.446  11.987   3.304 -0.5326  0.1469  0.5720
  981MOL0     C32337   2.371  12.107   3.269  0.7249 -0.1891 -1.2946
  981MOL0     C32338   2.298  12.151   3.402 -0.5441 -0.3704 -0.2419
  981MOL0     C32339   2.410  12.169   3.510 -0.0294  0.0240 -0.1294
  981MOL0     C32340   2.355  12.218   3.641  0.2789  0.9565 -0.2018
  981MOL0     C32341   2.299  12.110   3.743 -0.2034  0.3094 -1.2969
  981MOL0     C32342   2.227  12.172   3.862  0.5594 -0.0961 -1.1240
  981MOL0     C32343   2.110  12.266   3.830  0.2437  0.0760  0.3731
  981MOL0     C32344   2.017  12.272   3.956  0.5614 -0.6778 -0.8816
  981MOL0    Cl32345   1.907  12.411   3.951  0.2508 -0.6791 -0.1901
  981MOL0     C32346   2.454  11.748   3.229 -0.3823 -0.4184  0.1253
  981MOL0     C32347   2.467  11.650   3.123  0.3956  1.0144 -0.0722
  981MOL0     O32348   2.253  11.567   2.876 -0.5211 -0.2029  0.7158
  981MOL0     C32349   2.267  11.554   2.588  0.1845 -0.2436  0.1812
  981MOL0     C32350   2.276  11.535   2.450  0.2161  0.3035 -0.1890
  981MOL0     N32351   2.471  11.119   1.874  0.2805 -0.4312  0.7286
  981MOL0     N32352   2.530  11.008   1.841  0.2619 -0.4291 -0.0575
  981MOL0     C32353   3.346  10.713   1.437  0.1189 -0.9989 -1.1553
  981MOL0     C32354   3.372  10.720   1.305 -0.0365  0.1707 -0.5603
  981MOL0     C32355   3.349  10.576   0.873 -0.8615 -0.0168  0.1137
  981MOL0     C32356   3.243  10.554   0.779 -0.0750 -0.0210  0.4247
  981MOL0     C32357   3.266  10.557   0.638  0.0719  0.2702 -0.6758
  981MOL0     C32358   3.385  10.603   0.581 -0.7770  0.4034 -0.6508
  981MOL0     O32359   3.414  10.641   0.457 -0.7176 -0.3387 -0.7082
  981MOL0     C32360   3.488  10.562   0.369 -0.8869 -0.6108 -0.1442
  981MOL0     C32361   3.476  10.614   0.225 -0.2883 -1.1375  0.4560
  981MOL0     C32362   3.514  10.757   0.196 -0.0860  0.2017 -0.1240
  981MOL0     C32363   3.415  10.820   0.098  0.6685 -0.2952 -1.2269
  981MOL0     C32364   3.446  10.773  -0.037 -0.3386 -0.6837  0.0496
  981MOL0     C32365   3.452  10.717  -0.143 -0.2493 -0.0569 -0.5188
  981MOL0     C32366   3.488  10.633   0.684  0.0643 -0.4578  0.1908
  981MOL0     C32367   3.472  10.609   0.819 -0.4147  0.8113 -0.1248
  981MOL0     H32368   3.457  10.403   1.231  1.4324 -0.6840  0.7196
  981MOL0     H32369   3.424  10.390   1.506 -0.4733 -0.5638 -0.5814
  981MOL0     H32370   3.263  10.750   1.704  2.5740 -0.1498 -2.1794
  981MOL0     H32371   3.171  10.621   1.618 -1.5914 -0.5295  3.1304
  981MOL0     H32372   3.189  10.477   1.803 -3.0011 -0.1941  1.1225
  981MOL0     H32373   3.294  10.586   1.887 -0.8654  0.4570 -0.3876
  981MOL0     H32374   3.091  10.629   1.995  4.3184 -2.6126 -0.6318
  981MOL0     H32375   3.111  10.772   1.915 -1.3693 -0.0009  2.4589
  981MOL0     H32376   2.929  10.645   1.729  1.5566 -1.7140 -1.3110
  981MOL0     H32377   2.936  10.519   1.849  3.6347 -0.8078 -0.6087
  981MOL0     H32378   2.751  10.680   1.892  0.9367 -1.0008 -0.5492
  981MOL0     H32379   2.857  10.691   2.022 -0.6513 -1.4101 -0.3822
  981MOL0     H32380   2.785  10.923   1.957 -0.3388  1.5408 -1.6704
  981MOL0     H32381   2.958  10.893   1.956 -1.3574  0.2104  4.2184
  981MOL0     H32382   2.883  11.038   1.773 -2.4037  0.8823 -2.0357
  981MOL0     H32383   2.922  10.883   1.694  2.8037  2.2952  1.5343
  981MOL0     H32384   2.685  10.837   1.722  0.3304 -1.1452 -0.7380
  981MOL0     H32385   2.725  10.959   1.595 -2.4474  1.0087  0.3591
  981MOL0     H32386   2.723  11.240   1.706  0.4879 -0.3422 -1.8074
  981MOL0     H32387   2.587  11.452   1.857  0.1044  0.4164 -2.6432
  981MOL0     H32388   2.427  11.408   1.798 -2.4069  0.0874  4.0441
  981MOL0     H32389   2.547  11.346   2.060  1.7541  0.4313 -0.9949
  981MOL0     H32390   2.372  11.304   2.010  0.6456  0.1509  0.1623
  981MOL0     H32391   2.344  11.564   1.964 -1.5538  1.2137  1.0158
  981MOL0     H32392   2.495  11.584   2.049 -1.8752  0.3935  1.2772
  981MOL0     H32393   2.236  11.473   2.148 -0.7786  0.9413  1.7553
  981MOL0     H32394   2.305  11.624   2.195 -1.9224 -0.8028  1.5592
  981MOL0     H32395   2.581  11.404   2.427 -0.1060 -2.9370  2.0792
  981MOL0     H32396   2.678  11.467   2.712 -1.0634  1.6054 -1.1402
  981MOL0     H32397   2.555  11.370   2.794 -0.5856 -0.6791 -0.2046
  981MOL0     H32398   2.624  11.303   2.654 -1.5038  0.5094  0.5167
  981MOL0     H32399   2.461  11.848   2.857 -0.9243 -2.2619 -0.8801
  981MOL0     H32400   2.469  12.023   3.031 -0.3842  0.0523  0.0747
  981MOL0     H32401   2.440  12.181   3.228 -0.2199  0.7464 -1.2572
  981MOL0     H32402   2.290  12.079   3.200 -0.2105 -1.5661  0.2798
  981MOL0     H32403   2.249  12.244   3.370 -2.8958 -0.9988  1.2813
  981MOL0     H32404   2.218  12.084   3.435 -0.6434 -0.3273 -0.3925
  981MOL0     H32405   2.472  12.245   3.461 -0.9850  1.2049  0.4560
  981MOL0     H32406   2.469  12.080   3.532 -0.6554 -0.6981 -1.2824
  981MOL0     H32407   2.442  12.256   3.696  1.4965 -1.8318 -0.0408
  981MOL0     H32408   2.289  12.304   3.623 -0.2906  0.0782 -2.6337
  981MOL0     H32409   2.379  12.045   3.779 -1.0026  0.4279  0.8470
  981MOL0     H32410   2.232  12.040   3.692 -1.2774 -1.8321  2.5895
  981MOL0     H32411   2.186  12.089   3.920 -1.1991  1.3017 -0.2758
  981MOL0     H32412   2.283  12.230   3.936 -2.8234  0.8491  0.9166
  981MOL0     H32413   2.073  12.232   3.733 -0.7562 -1.6822  1.3150
  981MOL0     H32414   2.149  12.367   3.813 -0.9517  0.0244 -3.8526
  981MOL0     H32415   2.071  12.265   4.052  0.4715 -2.7751 -0.9374
  981MOL0     H32416   1.963  12.178   3.945 -2.2861  0.8002 -0.3543
  981MOL0     H32417   2.450  11.701   3.327 -1.8288 -0.6769 -0.0457
  981MOL0     H32418   2.488  11.547   3.149  2.8529  0.8733 -2.1624
  981MOL0     H32419   2.177  11.596   2.633  1.8793  0.4644  3.1482
  981MOL0     H32420   2.193  11.557   2.384 -1.2743  1.3738  1.9591
  981MOL0     H32421   3.318  10.803   1.491  1.7167 -0.1381 -1.6988
  981MOL0     H32422   3.366  10.814   1.250  0.9230 -1.2095 -3.2019
  981MOL0     H32423   3.148  10.520   0.818  0.0281 -1.1434 -0.2299
  981MOL0     H32424   3.180  10.545   0.574 -0.2586  2.9809 -0.8520
  981MOL0     H32425   3.594  10.561   0.395 -0.6894 -0.0298 -0.8688
  981MOL0     H32426   3.455  10.458   0.375  0.2362 -0.9783  0.0113
  981MOL0     H32427   3.376  10.597   0.183  0.4713 -3.9805 -0.4397
  981MOL0     H32428   3.535  10.539   0.172  2.2312 -1.4146  3.4162
  981MOL0     H32429   3.619  10.767   0.167  0.8782 -1.2215  2.5493
  981MOL0     H32430   3.511  10.814   0.290  1.6793 -1.6728  1.1507
  981MOL0     H32431   3.409  10.929   0.102 -4.9365 -0.3333  1.0516
  981MOL0     H32432   3.313  10.797   0.131  0.6841 -1.8965 -2.2002
  981MOL0     H32433   3.452  10.681  -0.244 -0.6771  5.2190 -2.7753
  981MOL0     H32434   3.575  10.683   0.642 -1.9009  0.9245 -2.4911
  981MOL0     H32435   3.559  10.636   0.878 -0.0327  3.6721 -1.8118
  982MOL0     O32436   5.346   6.555   1.191  0.3618 -0.3000 -0.3581
  982MOL0     C32437   5.244   6.510   1.149  0.1980 -0.1029 -0.0469
  982MOL0     O32438   5.180   6.546   1.028  0.6305 -0.1096 -0.5292
  982MOL0     C32439   5.251   6.589   0.916  0.1923 -1.1097  0.0809
  982MOL0     C32440   5.212   6.541   0.782 -0.9546 -0.4578 -0.4071
  982MOL0     C32441   5.276   6.595   0.670 -0.7879  0.0592 -0.1012
  982MOL0     C32442   5.384   6.680   0.680  0.1974 -0.1655 -0.3447
  982MOL0     O32443   5.471   6.716   0.577 -0.6237 -0.0881 -0.5747
  982MOL0     C32444   5.427   6.712   0.441  0.8242  0.3065 -0.2618
  982MOL0     C32445   5.534   6.744   0.343 -0.0700  0.2349  0.5066
  982MOL0     C32446   5.628   6.627   0.327 -0.6313  0.0018 -0.2001
  982MOL0     C32447   5.768   6.673   0.265 -0.0674  0.3858 -0.5000
  982MOL0     C32448   5.843   6.551   0.205  0.1503 -0.0468  1.6350
  982MOL0     C32449   5.890   6.452   0.307  0.2859  0.6719 -0.0166
  982MOL0     C32450   5.883   6.312   0.266  1.5222  0.1632  0.9791
  982MOL0     C32451   5.745   6.255   0.282 -0.0426  0.0208 -0.1010
  982MOL0     N32452   5.740   6.113   0.248 -0.3119 -0.0942 -0.0656
  982MOL0     C32453   5.824   6.011   0.285  0.0602  0.6767 -0.5494
  982MOL0     C32454   5.749   5.907   0.242  0.1772 -0.3788  0.2761
  982MOL0     C32455   5.776   5.760   0.280 -0.5961 -0.0529  0.4634
  982MOL0     C32456   5.774   5.671   0.157 -1.2808 -0.1529  0.5154
  982MOL0     C32457   5.807   5.521   0.207  0.2116 -0.6165  0.1970
  982MOL0     C32458   5.822   5.446   0.084  0.3720 -0.6653 -0.2791
  982MOL0     O32459   5.868   5.318   0.124 -0.6398 -0.5053  0.5194
  982MOL0     C32460   5.934   5.242   0.032 -0.2232 -0.3068 -0.2175
  982MOL0     C32461   5.949   5.109   0.077  1.1184  0.0444 -0.3413
  982MOL0     C32462   6.003   5.003   0.010  1.1137 -0.2627  0.0954
  982MOL0     C32463   5.986   4.858   0.072 -2.0976 -0.0448  0.8121
  982MOL0     C32464   6.054   5.027  -0.117 -1.0132  0.3025 -0.2660
  982MOL0     C32465   6.101   4.921  -0.204 -0.1784 -0.1748  0.0357
  982MOL0     O32466   6.044   4.799  -0.200 -0.3374  0.5544 -0.8782
  982MOL0     C32467   6.100   4.680  -0.244 -0.6860 -1.5785  0.6348
  982MOL0     C32468   6.013   4.565  -0.241 -1.1523  0.0644 -0.1058
  982MOL0     C32469   6.054   4.433  -0.251  0.0116  0.7863 -0.5011
  982MOL0     C32470   6.196   4.415  -0.277 -0.2423 -0.4638 -0.5249
  982MOL0     O32471   6.244   4.289  -0.317  0.0984  0.3433  0.3043
  982MOL0     C32472   6.148   4.183  -0.336  0.3119 -0.5495  0.8709
  982MOL0     C32473   6.221   4.059  -0.391 -0.4573 -0.1344  0.0973
  982MOL0     C32474   6.105   3.958  -0.421 -0.6304 -0.7865  0.1643
  982MOL0     C32475   6.162   3.852  -0.513 -0.2912 -0.8742  0.5599
  982MOL0     C32476   6.103   3.707  -0.526 -0.5680  1.1971 -0.3995
  982MOL0     C32477   5.956   3.721  -0.577  0.5528  0.4476  0.0417
  982MOL0     C32478   5.914   3.576  -0.617  0.2988  1.4259  0.3530
  982MOL0     C32479   5.947   3.462  -0.520 -0.4027 -0.5601  1.0511
  982MOL0    Cl32480   5.875   3.510  -0.355 -0.3610 -0.2171 -0.0240
  982MOL0     C32481   6.282   4.525  -0.285 -0.6993 -0.8773 -0.0970
  982MOL0     C32482   6.240   4.655  -0.261 -0.8224  0.8588  1.0582
  982MOL0     O32483   6.192   4.950  -0.280  0.8384 -0.7783 -0.1850
  982MOL0     C32484   6.048   5.163  -0.156  0.3584 -0.3437 -0.2549
  982MOL0     C32485   5.989   5.269  -0.087 -0.6706  0.5627  1.1165
  982MOL0     N32486   5.639   5.941   0.170 -0.5307 -0.9173 -0.1966
  982MOL0     N32487   5.638   6.068   0.169  0.8486  0.2196 -0.5293
  982MOL0     C32488   5.441   6.718   0.805 -0.0594  0.9628  0.3524
  982MOL0     C32489   5.364   6.678   0.920  0.3674  0.7180  0.0416
  982MOL0     C32490   5.193   6.381   1.217 -0.1813  0.8263 -1.2626
  982MOL0     C32491   5.257   6.336   1.330  0.8082  0.3580 -0.3705
  982MOL0     C32492   5.216   6.211   1.382 -0.2250  0.3643 -0.4779
  982MOL0     C32493   5.115   6.142   1.327 -0.0550  0.7078  0.8005
  982MOL0     O32494   5.063   6.024   1.381 -0.4376  0.2757 -0.5164
  982MOL0     C32495   5.130   5.959   1.495  0.2574  0.3656 -0.3406
  982MOL0     C32496   5.077   5.818   1.521  0.5068  0.8118 -0.4208
  982MOL0     C32497   5.158   5.768   1.643  0.3263  0.3661  0.0808
  982MOL0     C32498   5.145   5.620   1.663 -0.1582  0.8266  0.7016
  982MOL0     C32499   5.258   5.576   1.755  0.4082  0.6207 -0.1459
  982MOL0     C32500   5.365   5.574   1.819 -0.6736  0.8082  0.8848
  982MOL0     C32501   5.047   6.187   1.216 -0.1965 -0.4239 -0.5367
  982MOL0     C32502   5.093   6.303   1.157  0.9762 -0.7425  0.5342
  982MOL0     H32503   5.130   6.471   0.778 -0.7470 -0.6643 -2.1495
  982MOL0     H32504   5.241   6.552   0.576 -1.7003 -1.9269  1.0891
  982MOL0     H32505   5.388   6.615   0.410 -0.0020  0.4912  0.1796
  982MOL0     H32506   5.341   6.779   0.442 -0.2807 -0.7556  5.3322
  982MOL0     H32507   5.502   6.764   0.240  0.0201 -3.3902 -0.3542
  982MOL0     H32508   5.591   6.828   0.383  1.2338  1.1187 -2.8650
  982MOL0     H32509   5.655   6.582   0.423  0.2948  0.4919 -0.2250
  982MOL0     H32510   5.582   6.549   0.265 -2.2204  0.0651  0.8546
  982MOL0     H32511   5.753   6.750   0.188  1.2948  1.5943  0.4009
  982MOL0     H32512   5.829   6.730   0.335 -0.3456  3.6508 -2.6811
  982MOL0     H32513   5.776   6.510   0.129  1.5061 -1.4858  1.1780
  982MOL0     H32514   5.930   6.583   0.148 -2.4197  1.6420 -1.7515
  982MOL0     H32515   5.993   6.484   0.326  0.9798 -1.2831 -0.2546
  982MOL0     H32516   5.839   6.459   0.403 -0.2784 -1.7140 -0.0868
  982MOL0     H32517   5.900   6.287   0.160 -1.3720 -2.5577  0.9868
  982MOL0     H32518   5.956   6.259   0.327  2.8859 -3.4783 -3.2477
  982MOL0     H32519   5.674   6.320   0.231 -0.8945 -0.0126  1.0078
  982MOL0     H32520   5.715   6.269   0.386  0.8485  0.2910  0.1297
  982MOL0     H32521   5.913   6.014   0.346 -0.7178  2.4660  0.5591
  982MOL0     H32522   5.880   5.753   0.313  0.2186 -1.4242 -2.1545
  982MOL0     H32523   5.709   5.718   0.356 -1.6544  1.3382  0.3318
  982MOL0     H32524   5.849   5.700   0.084 -3.5594  1.6623 -1.2381
  982MOL0     H32525   5.673   5.687   0.118 -1.4262  0.6180  1.1677
  982MOL0     H32526   5.723   5.488   0.269 -2.8356  4.8002 -0.4190
  982MOL0     H32527   5.897   5.513   0.268  0.1044 -0.8550  0.3274
  982MOL0     H32528   5.902   5.493   0.026  1.9237 -1.8512  0.8050
  982MOL0     H32529   5.734   5.435   0.021  1.2403  0.0650 -1.6536
  982MOL0     H32530   5.907   5.093   0.176  1.7462  2.5452  0.4013
  982MOL0     H32531   5.911   4.806   0.012 -2.8404  1.2604  0.5752
  982MOL0     H32532   6.083   4.809   0.062 -2.5379 -0.7638 -0.2028
  982MOL0     H32533   5.957   4.859   0.177 -0.0053 -0.5894  1.4358
  982MOL0     H32534   5.906   4.581  -0.236 -1.1548  1.3156 -2.4985
  982MOL0     H32535   5.994   4.342  -0.242  2.7236 -0.9586  1.6886
  982MOL0     H32536   6.096   4.167  -0.241  0.7071 -1.8019  0.9030
  982MOL0     H32537   6.070   4.223  -0.401  0.8831  0.1246  0.5862
  982MOL0     H32538   6.271   4.075  -0.487 -2.2599 -0.2617 -0.9193
  982MOL0     H32539   6.299   4.024  -0.323  2.0762  0.2916 -2.3850
  982MOL0     H32540   6.015   4.008  -0.459  0.4500  0.3950 -0.9692
  982MOL0     H32541   6.081   3.919  -0.322 -0.4414  0.5771  0.7685
  982MOL0     H32542   6.160   3.896  -0.613 -3.9682 -1.7323  0.1138
  982MOL0     H32543   6.265   3.829  -0.484  0.0602 -0.1793 -0.0985
  982MOL0     H32544   6.103   3.668  -0.424  2.1752  1.6249 -0.1656
  982MOL0     H32545   6.166   3.651  -0.595 -1.8831  1.1620 -1.6235
  982MOL0     H32546   5.886   3.752  -0.498 -2.0017 -2.5443 -0.8468
  982MOL0     H32547   5.946   3.785  -0.665 -0.9182  0.1356 -0.0484
  982MOL0     H32548   5.962   3.550  -0.712  2.8076 -2.0493  2.3228
  982MOL0     H32549   5.806   3.566  -0.624  0.4800  0.1741 -1.4752
  982MOL0     H32550   6.055   3.445  -0.516  0.0650  1.5383 -0.8924
  982MOL0     H32551   5.911   3.364  -0.552 -1.2575 -0.8756  2.8498
  982MOL0     H32552   6.390   4.518  -0.293 -0.3880 -1.2999  3.1768
  982MOL0     H32553   6.310   4.738  -0.267 -1.8399  1.6887 -0.0382
  982MOL0     H32554   6.085   5.199  -0.252  0.5714  1.4810  0.4753
  982MOL0     H32555   5.986   5.367  -0.134 -1.4003  0.5688  1.1645
  982MOL0     H32556   5.523   6.788   0.813 -0.0004  1.4118 -2.7762
  982MOL0     H32557   5.398   6.710   1.018 -1.5559  0.6445  0.7694
  982MOL0     H32558   5.347   6.388   1.362  2.2639 -2.4082  0.3061
  982MOL0     H32559   5.278   6.167   1.459  0.9044 -0.9843 -2.0872
  982MOL0     H32560   5.235   5.958   1.465  1.3544  1.6384  2.9108
  982MOL0     H32561   5.114   6.027   1.580  0.7988 -0.3880  0.3866
  982MOL0     H32562   5.094   5.753   1.434  3.5439 -1.8637  1.9090
  982MOL0     H32563   4.970   5.817   1.540 -0.1067 -2.0416 -3.1650
  982MOL0     H32564   5.109   5.815   1.729 -1.7299  0.4536 -1.0825
  982MOL0     H32565   5.262   5.799   1.627  0.1444  0.2914 -1.3282
  982MOL0     H32566   5.138   5.576   1.563  0.0170  0.1122  0.9988
  982MOL0     H32567   5.047   5.604   1.708  0.1833  1.2638  1.6328
  982MOL0     H32568   5.444   5.559   1.890 -2.2775 -2.7095  2.1703
  982MOL0     H32569   4.970   6.129   1.167  1.7150 -1.3594 -2.6166
  982MOL0     H32570   5.036   6.327   1.067  0.0253 -0.3553  1.2174
  983MOL0     O32571   1.477   5.958   6.544  0.4205  0.3725 -1.0395
  983MOL0     C32572   1.452   5.885   6.450 -0.2591  0.0166 -0.5949
  983MOL0     O32573   1.546   5.807   6.385 -0.3176  0.5030 -0.2477
  983MOL0     C32574   1.656   5.761   6.460 -0.5617 -0.2352  0.5349
  983MOL0     C32575   1.620   5.697   6.585 -0.1971  0.3068  0.4739
  983MOL0     C32576   1.719   5.639   6.663 -0.3765  0.8467 -0.1667
  983MOL0     C32577   1.849   5.630   6.615 -0.5536 -0.5972  0.1362
  983MOL0     O32578   1.954   5.567   6.677 -1.3756  0.8780  0.1419
  983MOL0     C32579   1.989   5.598   6.813 -0.1183  0.2725  0.8130
  983MOL0     C32580   2.133   5.542   6.838 -0.1067  0.4554  0.1896
  983MOL0     C32581   2.255   5.626   6.783 -0.3604 -0.3214 -0.3974
  983MOL0     C32582   2.273   5.778   6.817 -0.1219 -1.0334 -0.8356
  983MOL0     C32583   2.392   5.855   6.748  1.4099 -0.2141 -0.1739
  983MOL0     C32584   2.395   5.998   6.810 -0.2252  0.0608  0.4532
  983MOL0     C32585   2.459   5.983   6.950 -0.9701  0.5746  0.5932
  983MOL0     C32586   2.517   6.104   7.030 -1.2109 -1.4334  0.3262
  983MOL0     N32587   2.568   6.076   7.160 -0.3570  0.1261  0.2322
  983MOL0     C32588   2.494   6.018   7.259 -1.1927  0.1167  0.5526
  983MOL0     C32589   2.591   5.943   7.323  0.9257  0.2698 -1.8127
  983MOL0     C32590   2.566   5.855   7.440  0.4797 -0.1697 -0.8967
  983MOL0     C32591   2.645   5.720   7.444  0.7938  0.3612  0.0704
  983MOL0     C32592   2.795   5.726   7.479  0.1547 -0.2555  0.1712
  983MOL0     C32593   2.842   5.827   7.596  0.1903 -0.1981  0.5615
  983MOL0     O32594   2.978   5.814   7.635  0.2021 -0.0603  0.3671
  983MOL0     C32595   3.088   5.857   7.565  1.1013 -0.0046  0.3401
  983MOL0     C32596   3.089   5.911   7.432 -0.2543 -0.2391  0.2462
  983MOL0     C32597   3.200   5.975   7.374  1.4257 -0.1616 -1.3583
  983MOL0     C32598   3.179   6.047   7.248  0.9830  0.3192  1.0343
  983MOL0     C32599   3.325   5.953   7.445  1.0252  0.2510 -0.2588
  983MOL0     C32600   3.462   5.988   7.390  0.3289  0.2758 -0.5433
  983MOL0     O32601   3.567   5.986   7.481  1.2738  0.8266  0.2966
  983MOL0     C32602   3.692   6.031   7.461  0.0306  0.1920  0.1994
  983MOL0     C32603   3.706   6.171   7.467 -0.7975 -0.6163 -0.3439
  983MOL0     C32604   3.830   6.225   7.432  0.3313 -0.5674 -0.6362
  983MOL0     C32605   3.941   6.144   7.413 -0.4837 -0.1273 -0.4590
  983MOL0     O32606   4.062   6.198   7.373 -0.2187 -0.2379  0.1289
  983MOL0     C32607   4.110   6.311   7.460  0.0462 -0.3198 -0.7595
  983MOL0     C32608   4.253   6.370   7.433 -0.6484 -0.8323 -0.1549
  983MOL0     C32609   4.327   6.289   7.315 -0.7198 -0.0157 -0.4755
  983MOL0     C32610   4.465   6.373   7.304  0.0337  1.1817 -0.2671
  983MOL0     C32611   4.450   6.489   7.206 -0.4427  0.2855  0.0784
  983MOL0     C32612   4.560   6.472   7.091 -0.3303 -0.4037 -0.7148
  983MOL0     C32613   4.573   6.597   7.004  0.4180 -0.2220  0.5012
  983MOL0     C32614   4.673   6.706   7.061 -1.2611 -0.8863  0.3604
  983MOL0    Cl32615   4.694   6.839   6.953  0.0461  0.1911  0.6063
  983MOL0     C32616   3.919   6.005   7.414  0.2215  0.2554 -0.3103
  983MOL0     C32617   3.797   5.944   7.436  0.0995 -0.7743 -0.3778
  983MOL0     O32618   3.476   5.992   7.269 -0.7461 -0.6863  0.0202
  983MOL0     C32619   3.324   5.881   7.568  0.6034  0.1472  1.5331
  983MOL0     C32620   3.209   5.841   7.634 -0.2029 -0.4246  0.4441
  983MOL0     N32621   2.716   5.950   7.270 -0.1318 -0.1070  0.0026
  983MOL0     N32622   2.697   6.027   7.165 -0.2503  0.6295 -0.3552
  983MOL0     C32623   1.883   5.691   6.492 -0.1294  0.6907  0.3624
  983MOL0     C32624   1.787   5.749   6.407  0.1227 -0.3408 -1.0714
  983MOL0     C32625   1.323   5.909   6.372 -1.6169 -0.1184 -0.3759
  983MOL0     C32626   1.313   5.861   6.239  0.4454 -0.1328 -1.3184
  983MOL0     C32627   1.198   5.884   6.168  0.0594 -0.6578  0.8956
  983MOL0     C32628   1.080   5.930   6.229 -0.6895  0.3111 -0.2773
  983MOL0     O32629   0.959   5.935   6.162 -0.2627 -0.5429 -0.4615
  983MOL0     C32630   0.836   5.989   6.225 -1.2862  0.8614  0.2923
  983MOL0     C32631   0.726   5.980   6.124  0.6430  1.1159  0.1506
  983MOL0     C32632   0.739   6.078   6.009 -0.3813  0.1179  0.7873
  983MOL0     C32633   0.676   6.019   5.885  0.6391  0.9891  0.8554
  983MOL0     C32634   0.531   6.041   5.877 -0.0849  0.4754  0.9467
  983MOL0     C32635   0.413   6.051   5.853 -0.4086  0.6075 -0.1568
  983MOL0     C32636   1.085   5.961   6.366  0.2121  1.2125  0.5557
  983MOL0     C32637   1.205   5.953   6.438  0.5230  0.3077  0.2621
  983MOL0     H32638   1.518   5.694   6.620 -0.0396 -2.7403  0.8822
  983MOL0     H32639   1.693   5.575   6.748  0.3941 -0.5004 -0.9091
  983MOL0     H32640   1.986   5.707   6.828  2.3074  0.3982  0.8133
  983MOL0     H32641   1.923   5.544   6.881  2.2610 -5.3164 -0.7647
  983MOL0     H32642   2.145   5.531   6.946 -0.7166 -0.0898  0.2145
  983MOL0     H32643   2.134   5.436   6.808 -0.1338 -0.2082  2.3507
  983MOL0     H32644   2.347   5.580   6.821  2.2840  1.4271 -4.0126
  983MOL0     H32645   2.251   5.626   6.673  0.8608  1.2864 -0.4908
  983MOL0     H32646   2.182   5.830   6.787 -0.9866 -1.1574  1.4019
  983MOL0     H32647   2.267   5.790   6.926 -1.0408  2.4617 -1.1451
  983MOL0     H32648   2.487   5.804   6.766  1.3946 -0.0949  0.2737
  983MOL0     H32649   2.378   5.857   6.640 -0.8151  1.8955  0.0575
  983MOL0     H32650   2.461   6.065   6.754  2.2576  0.4041  3.5253
  983MOL0     H32651   2.299   6.051   6.819  0.5090  1.4733  0.2808
  983MOL0     H32652   2.381   5.941   7.013 -2.8145 -0.6658 -2.3228
  983MOL0     H32653   2.542   5.912   6.945 -1.3157  0.1736  0.5626
  983MOL0     H32654   2.441   6.183   7.036 -0.7396 -0.9741  0.3206
  983MOL0     H32655   2.600   6.154   6.980 -1.4220 -0.7905  0.5948
  983MOL0     H32656   2.386   6.022   7.265 -1.1315  1.9762  0.6941
  983MOL0     H32657   2.596   5.900   7.536  0.3705 -0.4538 -0.7273
  983MOL0     H32658   2.459   5.837   7.435 -0.2072  3.0412 -0.0064
  983MOL0     H32659   2.641   5.677   7.343 -1.4157 -0.5345  0.4938
  983MOL0     H32660   2.601   5.642   7.506 -3.4004  3.1153  0.9907
  983MOL0     H32661   2.847   5.745   7.385 -0.0352  0.1285  0.1443
  983MOL0     H32662   2.826   5.626   7.511 -1.6128 -1.4596 -1.6672
  983MOL0     H32663   2.783   5.810   7.686 -0.0044  1.4027  0.7611
  983MOL0     H32664   2.834   5.931   7.562  0.5132  0.2223  1.7145
  983MOL0     H32665   2.990   5.924   7.389 -0.3339  0.0928  0.5234
  983MOL0     H32666   3.073   6.055   7.222  0.7330  0.1337  1.9514
  983MOL0     H32667   3.224   6.147   7.253  2.5059 -0.3140  0.5732
  983MOL0     H32668   3.226   5.988   7.169  1.1689 -0.1954  1.5179
  983MOL0     H32669   3.626   6.243   7.479  0.9186  1.2466  0.5441
  983MOL0     H32670   3.832   6.332   7.413 -0.6904 -0.0834  1.5834
  983MOL0     H32671   4.042   6.396   7.459  1.4289  0.8300 -2.7342
  983MOL0     H32672   4.121   6.276   7.564 -1.1843  1.1315 -0.1123
  983MOL0     H32673   4.251   6.479   7.430 -1.4466 -0.7241  2.2561
  983MOL0     H32674   4.323   6.355   7.515 -0.6418  0.1506  0.0348
  983MOL0     H32675   4.264   6.308   7.227 -0.4002  0.3399 -0.6327
  983MOL0     H32676   4.347   6.184   7.340  1.5360  0.1574 -1.3400
  983MOL0     H32677   4.511   6.393   7.402 -0.5030  1.2823 -0.0328
  983MOL0     H32678   4.537   6.305   7.258 -1.8628  0.2394 -2.0002
  983MOL0     H32679   4.467   6.585   7.257 -2.2269  1.4558 -1.3966
  983MOL0     H32680   4.350   6.504   7.165  0.8343  3.6802 -2.2396
  983MOL0     H32681   4.657   6.472   7.142  0.3370  2.0878 -1.7935
  983MOL0     H32682   4.540   6.381   7.034 -2.1957 -0.8655  0.6056
  983MOL0     H32683   4.474   6.641   6.986 -0.5761 -2.2410  0.7009
  983MOL0     H32684   4.615   6.560   6.910  1.4302  0.4736  0.6634
  983MOL0     H32685   4.775   6.666   7.069  1.1105  4.4805  0.7222
  983MOL0     H32686   4.646   6.752   7.156 -1.7796 -2.3631  0.9718
  983MOL0     H32687   4.008   5.943   7.411  0.4189  0.3854  1.6236
  983MOL0     H32688   3.794   5.836   7.439  0.8703 -0.7979 -0.1762
  983MOL0     H32689   3.416   5.858   7.621 -0.1233 -2.3180  1.8384
  983MOL0     H32690   3.212   5.808   7.737 -0.0090  0.0336  0.5890
  983MOL0     H32691   1.989   5.681   6.470  0.1571  3.0228  0.5053
  983MOL0     H32692   1.805   5.781   6.305 -1.0193 -3.0504 -2.2190
  983MOL0     H32693   1.405   5.811   6.210  0.8262 -1.1822  1.3736
  983MOL0     H32694   1.192   5.847   6.066  1.7187  0.6380  0.2902
  983MOL0     H32695   0.801   5.927   6.308  0.8946 -0.6753  0.1412
  983MOL0     H32696   0.860   6.092   6.255 -0.0309 -0.5625  4.9463
  983MOL0     H32697   0.629   5.999   6.173 -0.1263  1.7623 -1.5490
  983MOL0     H32698   0.726   5.878   6.085  0.3149  0.5988  1.4279
  983MOL0     H32699   0.845   6.084   5.986 -0.5350 -2.3010 -0.8921
  983MOL0     H32700   0.699   6.178   6.031  0.8889  0.4857  1.4781
  983MOL0     H32701   0.688   5.910   5.875  0.4935  1.1320 -1.4991
  983MOL0     H32702   0.716   6.062   5.793 -0.7298  1.1957  0.3321
  983MOL0     H32703   0.307   6.037   5.843 -0.2941 -0.2238 -0.2695
  983MOL0     H32704   0.994   5.980   6.424  0.1832  5.1671 -0.4574
  983MOL0     H32705   1.200   5.958   6.546  0.1324  1.6995  0.1936
  984MOL0     O32706   2.242   5.776   3.219 -0.3941 -1.1085  0.2007
  984MOL0     C32707   2.295   5.728   3.316 -0.1874 -0.2965 -0.1053
  984MOL0     O32708   2.236   5.638   3.403  0.3289 -0.1952 -0.2034
  984MOL0     C32709   2.109   5.589   3.394  0.8391  0.4014 -0.5990
  984MOL0     C32710   2.055   5.521   3.509  0.3006 -0.6171 -0.5205
  984MOL0     C32711   1.930   5.463   3.508  0.2078 -0.0843  0.3899
  984MOL0     C32712   1.858   5.468   3.391 -1.1747  1.2215  0.0396
  984MOL0     O32713   1.741   5.404   3.367  1.0228  0.6366 -0.1705
  984MOL0     C32714   1.667   5.334   3.465  0.5983 -0.7915 -0.2822
  984MOL0     C32715   1.719   5.193   3.489 -0.3320  1.2656  0.8280
  984MOL0     C32716   1.706   5.089   3.375  1.0142 -0.5546  0.5212
  984MOL0     C32717   1.778   4.956   3.390 -0.1760  1.1628 -0.1460
  984MOL0     C32718   1.714   4.848   3.311 -0.0760 -0.3719  0.3686
  984MOL0     C32719   1.578   4.803   3.369 -0.6082  0.1663  0.3750
  984MOL0     C32720   1.555   4.659   3.335 -0.5474  1.1536  0.4335
  984MOL0     C32721   1.414   4.601   3.344  0.8948  0.1781 -0.0559
  984MOL0     N32722   1.413   4.452   3.384  0.2875  0.2191  1.1744
  984MOL0     C32723   1.465   4.401   3.497  0.4859  0.2912  0.4145
  984MOL0     C32724   1.450   4.262   3.487  0.6512  0.0726 -0.4097
  984MOL0     C32725   1.480   4.157   3.593  0.6277  0.1504  1.0876
  984MOL0     C32726   1.343   4.111   3.646  0.7752 -0.0192  0.2796
  984MOL0     C32727   1.343   4.107   3.794  0.0205  0.0593 -0.5472
  984MOL0     C32728   1.443   4.017   3.858 -0.5275  0.9413 -0.1231
  984MOL0     O32729   1.461   3.876   3.809 -0.1203  0.4536 -0.7372
  984MOL0     C32730   1.501   3.770   3.881  0.4502  0.7741 -0.0989
  984MOL0     C32731   1.431   3.650   3.866 -0.0936 -0.4212  0.6501
  984MOL0     C32732   1.468   3.532   3.923  0.5262  0.8848 -0.1458
  984MOL0     C32733   1.391   3.410   3.885  0.8439  0.6847 -0.0863
  984MOL0     C32734   1.572   3.542   4.022 -0.1735 -0.6715  0.6186
  984MOL0     C32735   1.623   3.416   4.084  0.4091  1.4398 -0.5796
  984MOL0     O32736   1.645   3.304   4.010 -0.3625 -0.0384 -0.2845
  984MOL0     C32737   1.694   3.192   4.074  0.4373 -0.7055 -0.0798
  984MOL0     C32738   1.821   3.180   4.136 -0.3717 -0.2309 -0.0719
  984MOL0     C32739   1.856   3.074   4.223  0.0451  0.0417  0.2338
  984MOL0     C32740   1.763   2.971   4.250  0.5353  0.1410 -0.2616
  984MOL0     O32741   1.800   2.887   4.351 -0.5762 -0.7623  0.0778
  984MOL0     C32742   1.713   2.777   4.386 -0.0115 -0.7873 -0.8143
  984MOL0     C32743   1.790   2.643   4.361 -0.1357  0.4360  1.6051
  984MOL0     C32744   1.808   2.610   4.211  1.0873 -0.7480 -0.1904
  984MOL0     C32745   1.856   2.471   4.188 -0.0104  0.7515 -0.2333
  984MOL0     C32746   1.741   2.357   4.193 -0.4965 -0.8057  0.1745
  984MOL0     C32747   1.808   2.225   4.190 -0.0981  0.3502 -0.6622
  984MOL0     C32748   1.690   2.136   4.161 -0.3575 -0.0112  0.9492
  984MOL0     C32749   1.732   1.986   4.147 -0.5615 -0.4833  0.0979
  984MOL0    Cl32750   1.769   1.900   4.294 -0.1467 -0.3118  0.0493
  984MOL0     C32751   1.630   2.982   4.188 -0.0509  0.1470 -0.2168
  984MOL0     C32752   1.598   3.097   4.111 -0.2679 -1.0558  0.4161
  984MOL0     O32753   1.665   3.438   4.195  0.8944  0.0413  0.4080
  984MOL0     C32754   1.639   3.669   4.039 -0.4408 -0.1278  0.4016
  984MOL0     C32755   1.613   3.782   3.973  0.4724 -0.2937 -0.1881
  984MOL0     N32756   1.394   4.237   3.362 -0.0106  0.2153  1.3377
  984MOL0     N32757   1.371   4.348   3.304 -0.4443 -0.0074 -0.0836
  984MOL0     C32758   1.895   5.537   3.278 -0.8167 -0.3250 -0.2673
  984MOL0     C32759   2.015   5.599   3.281  0.0263  0.5699 -0.9628
  984MOL0     C32760   2.431   5.761   3.329 -0.9145  0.6947 -0.3454
  984MOL0     C32761   2.499   5.837   3.227  0.8956 -0.7057  0.6419
  984MOL0     C32762   2.627   5.871   3.244  0.7475  0.0536 -0.6047
  984MOL0     C32763   2.697   5.832   3.354 -0.1932 -0.2934  0.2431
  984MOL0     O32764   2.833   5.866   3.357 -0.0286  0.6292  0.5397
  984MOL0     C32765   2.918   5.774   3.428  0.1553 -0.2246  0.6336
  984MOL0     C32766   3.068   5.815   3.405  0.4754 -0.1525  0.2732
  984MOL0     C32767   3.174   5.698   3.417 -0.8155  0.2530  0.2404
  984MOL0     C32768   3.201   5.645   3.566  0.1484 -0.1893  0.4046
  984MOL0     C32769   3.089   5.571   3.617  0.3323 -0.8289  0.2078
  984MOL0     C32770   2.986   5.528   3.665 -0.7053  0.0453 -0.2279
  984MOL0     C32771   2.632   5.772   3.461  0.3210 -0.0231 -0.1550
  984MOL0     C32772   2.497   5.718   3.442 -0.1071  0.1774  0.7067
  984MOL0     H32773   2.117   5.527   3.598 -0.7594  0.9745  0.1661
  984MOL0     H32774   1.894   5.420   3.601 -2.0738 -2.2650 -1.3658
  984MOL0     H32775   1.668   5.388   3.560  1.9935 -1.1075 -0.0952
  984MOL0     H32776   1.560   5.331   3.440 -0.3445  1.2765  2.9242
  984MOL0     H32777   1.826   5.196   3.514 -1.1272  1.8012  4.8992
  984MOL0     H32778   1.672   5.145   3.575 -3.4445  1.4195 -0.6409
  984MOL0     H32779   1.598   5.082   3.357  0.7279  1.7901  0.9678
  984MOL0     H32780   1.729   5.137   3.280 -1.6745 -1.2293 -0.5797
  984MOL0     H32781   1.878   4.975   3.349 -1.1783  2.7933 -2.0365
  984MOL0     H32782   1.778   4.926   3.495 -1.2123 -0.4863 -0.5755
  984MOL0     H32783   1.704   4.876   3.206 -3.3715 -0.1544  0.6222
  984MOL0     H32784   1.792   4.772   3.309  1.3158  1.0076 -0.2494
  984MOL0     H32785   1.580   4.792   3.477  3.0086  0.4260  0.4417
  984MOL0     H32786   1.500   4.876   3.344 -0.4659  0.4443  0.7368
  984MOL0     H32787   1.580   4.642   3.230 -3.9397 -2.1877 -0.0376
  984MOL0     H32788   1.632   4.599   3.384  0.3235  0.4699 -1.6440
  984MOL0     H32789   1.349   4.620   3.258  0.6377  0.9087  0.2939
  984MOL0     H32790   1.362   4.657   3.422 -0.0087  0.7133 -1.0170
  984MOL0     H32791   1.519   4.447   3.580  2.6880 -3.2663  1.1782
  984MOL0     H32792   1.540   4.076   3.549  0.4061  0.8954 -0.6651
  984MOL0     H32793   1.524   4.208   3.680 -0.8558  0.4334  1.6908
  984MOL0     H32794   1.325   4.010   3.606 -2.0819 -1.0011  3.6314
  984MOL0     H32795   1.261   4.179   3.621 -0.4079 -1.1377  0.9871
  984MOL0     H32796   1.242   4.073   3.817 -0.5502 -0.0471 -2.8789
  984MOL0     H32797   1.363   4.207   3.832  2.8383 -0.4679 -0.4542
  984MOL0     H32798   1.405   4.018   3.960 -0.5773  5.4942  0.0335
  984MOL0     H32799   1.541   4.066   3.862  1.5187 -2.8107  0.8003
  984MOL0     H32800   1.356   3.650   3.788  0.3982  3.4700  0.0022
  984MOL0     H32801   1.404   3.385   3.779  3.5453  0.8678  0.1344
  984MOL0     H32802   1.412   3.316   3.937  0.9230  1.0143  0.4847
  984MOL0     H32803   1.286   3.429   3.911  1.6573  3.7392  1.3292
  984MOL0     H32804   1.889   3.265   4.128 -0.1006 -0.3255  1.0867
  984MOL0     H32805   1.951   3.085   4.274  0.1415  6.7550 -0.5224
  984MOL0     H32806   1.698   2.773   4.494  0.7858  1.3185 -0.5828
  984MOL0     H32807   1.614   2.790   4.344 -0.0134 -1.3403 -0.9932
  984MOL0     H32808   1.892   2.655   4.399  1.9209 -1.7745 -2.6142
  984MOL0     H32809   1.734   2.561   4.409  0.2991 -0.5011  0.5483
  984MOL0     H32810   1.879   2.677   4.162 -0.6804  1.2839 -0.1449
  984MOL0     H32811   1.707   2.616   4.167 -0.0645  0.8541  2.4487
  984MOL0     H32812   1.913   2.459   4.096 -0.2098  1.3457 -0.4375
  984MOL0     H32813   1.932   2.450   4.264  0.8346  3.4403 -0.2323
  984MOL0     H32814   1.681   2.390   4.107  0.4478  1.5300  0.3167
  984MOL0     H32815   1.685   2.362   4.287  1.4658  1.0819  1.3251
  984MOL0     H32816   1.883   2.234   4.110 -1.1094  0.5132 -1.6110
  984MOL0     H32817   1.854   2.214   4.289 -2.7527  1.5289  0.8082
  984MOL0     H32818   1.655   2.171   4.063  1.7504  0.2062  0.2219
  984MOL0     H32819   1.620   2.155   4.243  0.7007  2.1239  1.4414
  984MOL0     H32820   1.821   1.975   4.085 -0.5844  2.4289 -0.6114
  984MOL0     H32821   1.646   1.936   4.101 -2.5558  3.4873 -0.9088
  984MOL0     H32822   1.541   2.921   4.195  1.3636 -1.8579  1.7392
  984MOL0     H32823   1.494   3.107   4.081 -1.4719  2.2924  4.7181
  984MOL0     H32824   1.726   3.679   4.104  0.9611  0.9158 -1.5367
  984MOL0     H32825   1.660   3.880   3.978  1.2682 -0.6309 -0.7048
  984MOL0     H32826   1.843   5.526   3.183 -0.8196 -3.1179 -0.0307
  984MOL0     H32827   2.031   5.641   3.182  0.3153 -3.8392 -3.0071
  984MOL0     H32828   2.448   5.862   3.135  0.3199 -1.1228  0.8419
  984MOL0     H32829   2.667   5.927   3.160 -1.3054  2.8471  0.1068
  984MOL0     H32830   2.888   5.779   3.533 -2.6500 -0.4837 -0.0831
  984MOL0     H32831   2.890   5.671   3.408  1.0053 -0.4670  0.6651
  984MOL0     H32832   3.096   5.903   3.463 -0.3539 -0.7436  1.6310
  984MOL0     H32833   3.070   5.850   3.302 -0.5503  0.4460  0.4487
  984MOL0     H32834   3.270   5.721   3.369 -0.7755  1.1919  0.7476
  984MOL0     H32835   3.133   5.621   3.351 -0.5242  0.9252 -0.7542
  984MOL0     H32836   3.237   5.725   3.632 -1.8484  2.0562 -1.0536
  984MOL0     H32837   3.283   5.572   3.570  0.5824  0.2659  0.0092
  984MOL0     H32838   2.897   5.474   3.691 -0.4125  0.0176  0.7620
  984MOL0     H32839   2.678   5.746   3.556 -0.7709 -2.3206 -0.2063
  984MOL0     H32840   2.446   5.669   3.524 -2.4291  0.7651 -0.3155
  985MOL0     O32841   8.585   1.214   2.449  0.0295  0.0963 -0.0264
  985MOL0     C32842   8.533   1.116   2.487  0.4812 -0.2277 -0.7013
  985MOL0     O32843   8.416   1.063   2.438 -0.0659  0.4917 -0.4296
  985MOL0     C32844   8.371   1.113   2.320 -0.4363 -0.3224  0.4657
  985MOL0     C32845   8.342   1.248   2.292 -0.7531  0.0850  0.2348
  985MOL0     C32846   8.298   1.287   2.162 -0.3432  1.3460 -0.4103
  985MOL0     C32847   8.281   1.192   2.056 -1.0782  0.4600 -0.0312
  985MOL0     O32848   8.218   1.217   1.939  0.3523 -0.3176 -0.7585
  985MOL0     C32849   8.203   1.364   1.894 -0.3794  0.5811 -0.3018
  985MOL0     C32850   8.073   1.436   1.932  0.4200  0.0556 -0.4390
  985MOL0     C32851   8.055   1.566   1.863 -0.8003 -0.2831  0.9768
  985MOL0     C32852   8.175   1.664   1.869 -0.0681  0.2707  0.1498
  985MOL0     C32853   8.142   1.811   1.828  0.3308  0.7524  0.2406
  985MOL0     C32854   8.068   1.822   1.687 -1.0289  1.4131  0.4316
  985MOL0     C32855   8.146   1.770   1.570 -0.0667 -0.3706  0.2799
  985MOL0     C32856   8.299   1.809   1.567  0.9586 -0.0904  0.3336
  985MOL0     N32857   8.312   1.957   1.564 -1.1992  0.6299  0.4847
  985MOL0     C32858   8.296   2.019   1.445 -0.0885 -0.1269 -0.3714
  985MOL0     C32859   8.291   2.157   1.481  0.4528 -0.3432 -0.0201
  985MOL0     C32860   8.282   2.271   1.382  0.1512 -0.0662 -0.6201
  985MOL0     C32861   8.215   2.393   1.435 -0.1529  0.2571  0.5745
  985MOL0     C32862   8.060   2.401   1.418  0.2988 -0.6617  0.3373
  985MOL0     C32863   7.976   2.290   1.475 -0.1332  0.2387 -0.1376
  985MOL0     O32864   8.001   2.168   1.399 -0.1508  0.1842 -0.4338
  985MOL0     C32865   7.976   2.144   1.265  0.7633  1.1940  0.2713
  985MOL0     C32866   8.007   2.022   1.206 -0.5290 -1.0149 -0.2245
  985MOL0     C32867   7.962   1.976   1.078  0.0615 -0.1069  1.0740
  985MOL0     C32868   8.000   1.838   1.015  0.1701 -0.2924  0.2210
  985MOL0     C32869   7.890   2.068   1.002  0.2572  0.0848  1.0090
  985MOL0     C32870   7.838   2.047   0.855  0.6388  0.1999  0.0413
  985MOL0     O32871   7.904   1.951   0.774  0.3531 -0.0926 -0.5460
  985MOL0     C32872   7.861   1.942   0.641 -0.2496 -0.0242 -0.1292
  985MOL0     C32873   7.740   1.889   0.618  0.5743  0.0637  0.6392
  985MOL0     C32874   7.686   1.883   0.486 -0.9161 -0.1711  0.4587
  985MOL0     C32875   7.752   1.938   0.380  0.1033  0.6698 -0.8196
  985MOL0     O32876   7.692   1.936   0.263 -0.1237  0.3598  0.5246
  985MOL0     C32877   7.779   1.923   0.146  0.4933 -0.3240  0.9462
  985MOL0     C32878   7.711   1.954   0.019  0.4640 -0.9329  0.3147
  985MOL0     C32879   7.667   2.104  -0.013 -1.1282 -0.1077 -0.1678
  985MOL0     C32880   7.771   2.178  -0.084  0.2586  0.0115 -1.2196
  985MOL0     C32881   7.761   2.151  -0.232 -0.7596 -0.0398  0.5672
  985MOL0     C32882   7.871   2.232  -0.301 -0.2534 -1.2830  0.3643
  985MOL0     C32883   7.936   2.163  -0.425 -0.8044  0.4417 -0.5957
  985MOL0     C32884   7.850   2.166  -0.554  0.6442 -0.4715  0.3570
  985MOL0    Cl32885   7.954   2.117  -0.700  0.4033  0.0745 -0.6382
  985MOL0     C32886   7.876   2.003   0.408 -0.7317  0.4864  0.6266
  985MOL0     C32887   7.933   2.008   0.539 -0.6889 -0.0066 -0.2867
  985MOL0     O32888   7.747   2.125   0.813 -0.1302  0.3884 -0.1098
  985MOL0     C32889   7.862   2.195   1.051 -0.5253 -0.1940 -1.2204
  985MOL0     C32890   7.900   2.228   1.183  0.2441  1.2711 -0.8319
  985MOL0     N32891   8.309   2.167   1.618  0.0837 -0.6915  0.1745
  985MOL0     N32892   8.320   2.050   1.661 -0.2312  0.4264  0.1800
  985MOL0     C32893   8.319   1.059   2.089  0.1858  0.2591  0.5308
  985MOL0     C32894   8.362   1.024   2.216 -0.4013  0.3693 -0.0417
  985MOL0     C32895   8.600   1.032   2.587  0.1918 -0.1645  0.0530
  985MOL0     C32896   8.559   0.907   2.633 -0.7613  1.1092  0.0204
  985MOL0     C32897   8.647   0.829   2.707  0.1694  0.1992 -0.4690
  985MOL0     C32898   8.768   0.883   2.765  0.0301  0.3709  0.5595
  985MOL0     O32899   8.847   0.803   2.850 -0.4244  0.1117 -0.2269
  985MOL0     C32900   8.915   0.875   2.950 -1.0802 -0.8770 -0.1740
  985MOL0     C32901   8.943   0.778   3.065  0.3514 -0.2734 -0.1346
  985MOL0     C32902   9.049   0.678   3.034  0.5414 -0.1798  0.1569
  985MOL0     C32903   9.077   0.589   3.153  0.4057 -0.5016  0.1025
  985MOL0     C32904   9.011   0.461   3.132 -0.1709  0.9122 -0.5968
  985MOL0     C32905   8.958   0.353   3.123 -0.1088  0.2963 -0.0812
  985MOL0     C32906   8.803   1.019   2.724  0.7338  0.4102 -0.7693
  985MOL0     C32907   8.718   1.082   2.637  0.4585 -0.1106 -0.0961
  985MOL0     H32908   8.356   1.320   2.372 -0.6142 -2.4422  2.6375
  985MOL0     H32909   8.266   1.391   2.152 -2.9188  0.7835  1.1221
  985MOL0     H32910   8.293   1.419   1.923 -0.3368  2.2584 -3.2723
  985MOL0     H32911   8.210   1.368   1.785  2.0239 -0.8568 -0.2729
  985MOL0     H32912   7.988   1.376   1.898 -0.5616  1.9914 -1.5363
  985MOL0     H32913   8.062   1.458   2.038  4.9754  2.2727 -0.2089
  985MOL0     H32914   8.040   1.547   1.756  0.5191  1.8290  0.3595
  985MOL0     H32915   7.968   1.617   1.905  0.3940  2.5963  0.2126
  985MOL0     H32916   8.227   1.656   1.965  0.1779 -2.4490 -0.1494
  985MOL0     H32917   8.246   1.631   1.792 -0.8414 -0.4409 -0.2640
  985MOL0     H32918   8.081   1.862   1.904 -0.9467  0.9729 -0.9002
  985MOL0     H32919   8.237   1.862   1.813  2.6303 -3.1471  0.2569
  985MOL0     H32920   7.974   1.766   1.684 -0.1160 -0.1872  0.7129
  985MOL0     H32921   8.056   1.929   1.666  0.5751  1.0069 -3.4780
  985MOL0     H32922   8.133   1.662   1.570  1.5264 -0.5900 -0.0074
  985MOL0     H32923   8.097   1.803   1.477  1.3920 -1.8569 -1.0810
  985MOL0     H32924   8.347   1.772   1.475  1.0444  2.8574 -0.9250
  985MOL0     H32925   8.347   1.769   1.657  2.8761  0.3412 -0.4477
  985MOL0     H32926   8.283   1.993   1.340 -0.6904  1.0051 -0.5967
  985MOL0     H32927   8.380   2.310   1.354 -1.1893  3.2403 -1.1720
  985MOL0     H32928   8.229   2.230   1.295 -1.4079  0.8155 -0.1302
  985MOL0     H32929   8.257   2.477   1.379  2.0088  0.3823  2.2540
  985MOL0     H32930   8.231   2.412   1.542 -1.5617  1.5505  0.5956
  985MOL0     H32931   8.032   2.417   1.313 -0.3073  1.6810  0.8071
  985MOL0     H32932   8.044   2.495   1.471  1.7619 -0.4717  0.4697
  985MOL0     H32933   7.869   2.310   1.473 -0.4711 -1.4028 -2.4665
  985MOL0     H32934   8.006   2.272   1.579  1.2550 -0.0438 -0.5685
  985MOL0     H32935   8.062   1.951   1.267 -1.2488 -0.1791  1.4812
  985MOL0     H32936   8.058   1.853   0.923 -0.0800 -1.9771 -0.2517
  985MOL0     H32937   8.037   1.772   1.094 -3.2810 -2.6489  0.0795
  985MOL0     H32938   7.921   1.775   0.973 -1.5902  0.5901  2.0833
  985MOL0     H32939   7.683   1.849   0.702  1.0209 -0.8388  0.5257
  985MOL0     H32940   7.590   1.835   0.467 -0.9808  0.0880  0.1089
  985MOL0     H32941   7.863   1.993   0.154 -0.4487  0.9517  0.1701
  985MOL0     H32942   7.817   1.822   0.130 -0.3006 -0.3725 -0.7762
  985MOL0     H32943   7.757   1.900  -0.065  0.7072 -1.0180  0.5006
  985MOL0     H32944   7.615   1.905   0.037  0.9447 -1.7101  0.8182
  985MOL0     H32945   7.648   2.163   0.077 -1.8319  0.2987 -0.5685
  985MOL0     H32946   7.571   2.103  -0.066 -0.2140  4.2597 -2.4125
  985MOL0     H32947   7.767   2.285  -0.064 -0.0210 -0.3538  0.8453
  985MOL0     H32948   7.862   2.137  -0.040 -0.7885 -1.4074 -0.3084
  985MOL0     H32949   7.670   2.180  -0.286  0.9205  1.6251 -1.5938
  985MOL0     H32950   7.767   2.045  -0.260  0.9296  0.6113 -1.9417
  985MOL0     H32951   7.826   2.329  -0.322  1.6751 -0.6828 -1.3592
  985MOL0     H32952   7.949   2.265  -0.232 -0.0908  0.9614 -0.7982
  985MOL0     H32953   7.956   2.056  -0.415  0.8244  0.7085 -0.7583
  985MOL0     H32954   8.031   2.211  -0.450  0.1260  0.9103  3.2587
  985MOL0     H32955   7.832   2.271  -0.577 -0.0130 -0.6505  0.0531
  985MOL0     H32956   7.755   2.114  -0.544  0.3426 -0.2494 -1.2049
  985MOL0     H32957   7.921   2.060   0.327 -0.6657 -2.3754 -1.5171
  985MOL0     H32958   8.031   2.055   0.546 -0.0416 -0.7195 -3.1911
  985MOL0     H32959   7.810   2.275   1.000 -1.1994  0.1666 -0.0257
  985MOL0     H32960   7.858   2.319   1.225 -2.6266  1.1447 -3.1625
  985MOL0     H32961   8.315   0.994   2.001  4.0068  0.0285  0.3549
  985MOL0     H32962   8.380   0.919   2.238 -1.7359  0.4222  1.5325
  985MOL0     H32963   8.464   0.868   2.600  1.7115 -3.7227 -2.5781
  985MOL0     H32964   8.607   0.731   2.731  1.1702  0.1550  1.1351
  985MOL0     H32965   9.000   0.914   2.894 -1.2377 -0.6348 -0.2483
  985MOL0     H32966   8.852   0.961   2.977 -3.1101 -1.8207 -1.6166
  985MOL0     H32967   8.847   0.729   3.083 -1.9705  3.5749 -1.0439
  985MOL0     H32968   8.959   0.831   3.159 -1.9772 -2.1154  1.4337
  985MOL0     H32969   9.141   0.733   3.011  1.0114 -1.0660 -0.1247
  985MOL0     H32970   9.029   0.624   2.941  3.6555  1.1919 -1.4861
  985MOL0     H32971   9.058   0.649   3.242  2.3477  2.3893 -1.2557
  985MOL0     H32972   9.184   0.566   3.155  0.3166 -1.2957 -1.7206
  985MOL0     H32973   8.917   0.265   3.077 -2.4792  0.6233  1.2573
  985MOL0     H32974   8.901   1.054   2.755  0.2484 -1.2299  3.2310
  985MOL0     H32975   8.750   1.183   2.614  1.5574 -0.4517 -0.0851
  986MOL0     O32976   8.604   9.225   8.125 -0.0249  0.1305  0.3019
  986MOL0     C32977   8.545   9.175   8.026 -0.5067 -0.0791  0.0722
  986MOL0     O32978   8.521   9.046   8.001 -0.2592 -0.5342  0.0883
  986MOL0     C32979   8.624   8.948   8.019  0.1565  0.2796 -0.4791
  986MOL0     C32980   8.590   8.811   8.022 -0.7012  0.6549 -0.6824
  986MOL0     C32981   8.688   8.704   8.033  0.6968 -0.1980  0.8387
  986MOL0     C32982   8.823   8.727   8.030  0.1152 -1.1942  0.5128
  986MOL0     O32983   8.904   8.624   7.999  0.7221 -0.4326 -0.0676
  986MOL0     C32984   9.048   8.637   7.968 -0.1518 -0.0240  0.1105
  986MOL0     C32985   9.067   8.697   7.823  0.6194  0.2161  0.6491
  986MOL0     C32986   9.211   8.701   7.773  0.3362 -0.2516 -0.6740
  986MOL0     C32987   9.241   8.584   7.685  0.3495  0.0988 -0.2239
  986MOL0     C32988   9.381   8.604   7.620 -0.4323 -0.2690  0.1535
  986MOL0     C32989   9.417   8.501   7.515  0.4687 -0.0521  0.3849
  986MOL0     C32990   9.427   8.354   7.575  0.2785  0.3744  0.2780
  986MOL0     C32991   9.444   8.259   7.457  0.0597 -0.2225 -0.1738
  986MOL0     N32992   9.554   8.299   7.371 -0.1300 -0.1019  0.7858
  986MOL0     C32993   9.545   8.366   7.248 -0.3453  0.3920  0.7802
  986MOL0     C32994   9.677   8.400   7.213  0.3031  0.0843 -0.1247
  986MOL0     C32995   9.711   8.484   7.090  1.0421  0.4054 -0.8334
  986MOL0     C32996   9.712   8.639   7.117 -0.5055  0.4826  0.8705
  986MOL0     C32997   9.803   8.705   7.008 -0.2830 -0.8960 -0.3067
  986MOL0     C32998   9.780   8.861   7.022 -0.9985 -0.7233 -0.1683
  986MOL0     O32999   9.656   8.886   6.955 -0.0609 -0.3732 -0.0828
  986MOL0     C33000   9.624   9.017   6.922  0.2340 -0.0748  0.0787
  986MOL0     C33001   9.515   9.022   6.844  0.8395 -0.1464  0.0620
  986MOL0     C33002   9.471   9.130   6.766  0.0772  0.0074  1.0824
  986MOL0     C33003   9.352   9.106   6.680  0.0946  0.5272  0.0005
  986MOL0     C33004   9.544   9.247   6.771 -0.3721 -0.2380  0.1795
  986MOL0     C33005   9.529   9.364   6.691 -0.4804 -0.8903 -0.9498
  986MOL0     O33006   9.568   9.481   6.747 -0.3713  0.0105 -0.3340
  986MOL0     C33007   9.528   9.603   6.690 -0.4670  0.0069  0.3545
  986MOL0     C33008   9.430   9.665   6.752  0.8103 -1.4852  0.1822
  986MOL0     C33009   9.373   9.785   6.699 -0.0371 -0.5100 -0.8027
  986MOL0     C33010   9.456   9.863   6.610 -0.3085 -0.7882 -0.6786
  986MOL0     O33011   9.428  10.004   6.602  0.8645  0.4748  0.2475
  986MOL0     C33012   9.435  10.054   6.466  0.1355  1.0163 -0.2969
  986MOL0     C33013   9.340  10.170   6.455 -0.3598  0.4683  0.1237
  986MOL0     C33014   9.268  10.161   6.324  0.3056 -0.1587  0.4111
  986MOL0     C33015   9.168  10.279   6.305 -0.2372 -0.0043 -0.2066
  986MOL0     C33016   9.128  10.317   6.158  0.1358  0.9558 -0.9828
  986MOL0     C33017   9.056  10.197   6.092 -1.0915 -0.8911  0.1599
  986MOL0     C33018   9.025  10.226   5.937  0.9601  0.9944  0.2561
  986MOL0     C33019   8.924  10.337   5.924 -0.1047  0.8875 -0.0485
  986MOL0    Cl33020   8.898  10.344   5.747  0.0996 -0.6516  0.9703
  986MOL0     C33021   9.570   9.810   6.558  0.9896 -0.5610  0.0420
  986MOL0     C33022   9.609   9.677   6.599  0.0194 -0.8322  0.1848
  986MOL0     O33023   9.504   9.355   6.572 -0.5207  0.7799 -0.2087
  986MOL0     C33024   9.656   9.250   6.868  0.4944 -1.1203  0.7728
  986MOL0     C33025   9.695   9.136   6.939  0.6756 -0.3604 -0.6341
  986MOL0     N33026   9.748   8.352   7.318 -1.0028 -0.1572  0.4423
  986MOL0     N33027   9.682   8.312   7.414 -0.2021 -0.7804  0.2031
  986MOL0     C33028   8.852   8.867   8.028 -0.9539  0.1853  0.2718
  986MOL0     C33029   8.763   8.972   8.028  0.1076  0.3809  0.6338
  986MOL0     C33030   8.491   9.282   7.930 -0.5295 -0.1485  0.1352
  986MOL0     C33031   8.549   9.412   7.931  0.7308  1.0836  0.1174
  986MOL0     C33032   8.497   9.514   7.846 -0.2198 -0.6739  0.1309
  986MOL0     C33033   8.393   9.482   7.748 -0.1795  0.2090 -0.0617
  986MOL0     O33034   8.356   9.581   7.667  0.0643  0.6842  0.4924
  986MOL0     C33035   8.275   9.541   7.551  0.6227 -0.1970  0.5659
  986MOL0     C33036   8.121   9.568   7.564 -0.4713  0.4755  0.4961
  986MOL0     C33037   8.100   9.717   7.587 -0.0451  0.3641  0.0205
  986MOL0     C33038   8.084   9.759   7.734  0.7130  0.0943  1.1295
  986MOL0     C33039   8.061   9.905   7.752 -0.1006 -0.5221 -0.6020
  986MOL0     C33040   8.056  10.027   7.777  1.3122 -0.6880  0.5186
  986MOL0     C33041   8.333   9.352   7.752 -0.3801  0.5753 -0.3012
  986MOL0     C33042   8.386   9.257   7.846 -0.5841 -0.2340  0.4627
  986MOL0     H33043   8.482   8.802   8.010 -0.4789 -1.2336 -1.5984
  986MOL0     H33044   8.642   8.605   8.039 -0.4397  0.2952  0.6306
  986MOL0     H33045   9.093   8.689   8.053  0.4119  1.4103 -1.0188
  986MOL0     H33046   9.099   8.541   7.956 -2.5444 -1.4437  0.6881
  986MOL0     H33047   9.000   8.650   7.749  0.4791  3.8850 -1.8107
  986MOL0     H33048   9.020   8.796   7.829 -2.1611 -0.7623 -2.0517
  986MOL0     H33049   9.228   8.794   7.717  2.2101 -0.2286 -0.1646
  986MOL0     H33050   9.273   8.687   7.863 -2.8569  1.6952  2.0638
  986MOL0     H33051   9.233   8.494   7.745  0.6557 -0.2460 -0.6919
  986MOL0     H33052   9.167   8.596   7.606 -0.9645 -0.4870  0.8882
  986MOL0     H33053   9.389   8.704   7.576 -0.2333 -0.3694 -0.0454
  986MOL0     H33054   9.452   8.616   7.702 -2.8793  1.5121  2.1764
  986MOL0     H33055   9.343   8.509   7.436  0.0089  0.7804  0.8878
  986MOL0     H33056   9.519   8.525   7.483  3.0600 -6.5047  2.2229
  986MOL0     H33057   9.506   8.348   7.650  0.2647  0.7611  0.3265
  986MOL0     H33058   9.330   8.334   7.623  0.7404 -0.6521  0.8231
  986MOL0     H33059   9.356   8.274   7.394 -0.0296  0.0304  0.0114
  986MOL0     H33060   9.441   8.154   7.486 -2.4412 -0.3548 -0.6535
  986MOL0     H33061   9.453   8.375   7.192  0.1761  1.9259  0.1099
  986MOL0     H33062   9.810   8.453   7.056  0.6302 -1.6829 -0.3071
  986MOL0     H33063   9.639   8.461   7.010 -0.1916  0.6461  0.1695
  986MOL0     H33064   9.750   8.658   7.217 -0.4379 -1.2778  1.2091
  986MOL0     H33065   9.612   8.685   7.114 -0.2378  1.0380 -0.4534
  986MOL0     H33066   9.769   8.668   6.910  2.7055  0.4126 -1.9669
  986MOL0     H33067   9.907   8.683   7.031 -0.6391  0.5651  3.4118
  986MOL0     H33068   9.853   8.933   6.985 -2.2377  1.2602  1.0641
  986MOL0     H33069   9.757   8.897   7.123  0.1043 -1.0054  0.1964
  986MOL0     H33070   9.460   8.928   6.840 -1.3707  1.0674 -0.1197
  986MOL0     H33071   9.364   9.141   6.577 -3.4073 -0.6924 -0.9618
  986MOL0     H33072   9.337   8.999   6.665  0.5170  0.7349 -2.3154
  986MOL0     H33073   9.269   9.155   6.731 -0.4600 -0.7481  0.3660
  986MOL0     H33074   9.385   9.615   6.837 -0.6616  0.4093  0.5870
  986MOL0     H33075   9.297   9.834   6.759  0.8808 -0.4344  0.3350
  986MOL0     H33076   9.536  10.094   6.449  0.2916  0.0848 -1.7064
  986MOL0     H33077   9.412   9.975   6.394 -2.1404  2.0666 -0.7855
  986MOL0     H33078   9.271  10.183   6.539  1.2737  1.9121  1.3227
  986MOL0     H33079   9.388  10.268   6.448 -1.2760  0.7991 -3.2510
  986MOL0     H33080   9.220  10.064   6.309 -1.0358  0.8826 -2.7560
  986MOL0     H33081   9.347  10.167   6.249  0.1240 -1.3828  0.0915
  986MOL0     H33082   9.075  10.256   6.358 -1.2663  1.6213 -1.2391
  986MOL0     H33083   9.207  10.366   6.358 -0.0791  1.0239 -1.9250
  986MOL0     H33084   9.217  10.347   6.102  0.4943  0.1975 -0.8288
  986MOL0     H33085   9.058  10.401   6.164  2.3855  2.9148  0.0489
  986MOL0     H33086   9.130  10.117   6.103  3.4943  2.8918 -0.1064
  986MOL0     H33087   8.973  10.163   6.155  0.9006  1.9605  4.8621
  986MOL0     H33088   8.969  10.141   5.899 -1.3234  2.1902  0.7961
  986MOL0     H33089   9.106  10.235   5.864 -1.6955  0.5192 -2.9858
  986MOL0     H33090   8.968  10.424   5.973 -1.7752  0.5344  2.2651
  986MOL0     H33091   8.830  10.324   5.978  1.7385  5.5518  5.2434
  986MOL0     H33092   9.637   9.869   6.496 -1.2873  2.3686  0.1452
  986MOL0     H33093   9.704   9.632   6.574  0.2718 -0.5929  0.6836
  986MOL0     H33094   9.732   9.325   6.885  2.0674 -1.8837 -2.1680
  986MOL0     H33095   9.785   9.139   7.000  1.0960 -4.4541 -0.7532
  986MOL0     H33096   8.958   8.889   8.021 -0.6612  0.2936  3.4597
  986MOL0     H33097   8.794   9.076   8.034 -1.3813  0.8972  0.0496
  986MOL0     H33098   8.632   9.439   7.996  2.2662 -3.2269  0.2956
  986MOL0     H33099   8.529   9.616   7.867  1.2732 -1.4671  1.9464
  986MOL0     H33100   8.305   9.602   7.465 -1.8994 -0.1072 -0.3158
  986MOL0     H33101   8.295   9.437   7.521 -0.1709  0.3818 -2.1946
  986MOL0     H33102   8.078   9.515   7.649 -2.2807 -2.1520 -1.8513
  986MOL0     H33103   8.065   9.527   7.479  0.1006 -0.2414  0.4504
  986MOL0     H33104   8.010   9.744   7.530 -0.2649  0.5582  0.4501
  986MOL0     H33105   8.180   9.781   7.549  1.5114  1.9474  5.1047
  986MOL0     H33106   8.181   9.732   7.777  1.3004 -2.7933 -1.6027
  986MOL0     H33107   7.994   9.712   7.775 -1.2688  2.5380 -0.1307
  986MOL0     H33108   8.021  10.122   7.811  1.5398  0.0265 -1.1233
  986MOL0     H33109   8.255   9.331   7.680 -1.9212  1.9969  0.8800
  986MOL0     H33110   8.343   9.157   7.844  0.4045 -0.6529 -0.3298
  987MOL0     O33111   1.632   6.332   1.795 -0.3070 -0.8234 -0.5908
  987MOL0     C33112   1.527   6.267   1.806 -0.2277 -0.4160 -0.2465
  987MOL0     O33113   1.479   6.176   1.714 -0.6036  0.1005 -0.7986
  987MOL0     C33114   1.565   6.150   1.607 -0.4114  0.5662 -0.4741
  987MOL0     C33115   1.507   6.168   1.486 -0.2591  0.7939  0.2043
  987MOL0     C33116   1.583   6.144   1.369  0.3338  0.3875  0.4680
  987MOL0     C33117   1.717   6.107   1.381  0.3240  0.2308 -0.1404
  987MOL0     O33118   1.805   6.090   1.277 -0.3667  0.5827 -0.1051
  987MOL0     C33119   1.865   5.964   1.259  0.3144 -0.0479 -0.1239
  987MOL0     C33120   1.980   5.962   1.155 -0.0520  0.3683  0.2997
  987MOL0     C33121   1.995   5.822   1.082  0.2686 -0.4918 -0.8387
  987MOL0     C33122   2.032   5.709   1.177  0.0737  0.2033  0.2153
  987MOL0     C33123   2.126   5.601   1.117  0.6631  0.1417 -0.5971
  987MOL0     C33124   2.153   5.495   1.218  0.3169 -0.4655 -0.1865
  987MOL0     C33125   2.286   5.417   1.193  0.4081  0.4175 -0.1312
  987MOL0     C33126   2.321   5.362   1.329  0.0278  0.4498  0.2388
  987MOL0     N33127   2.208   5.301   1.407  0.2094 -0.5658 -0.4007
  987MOL0     C33128   2.147   5.184   1.373  0.4206  0.8277 -0.3396
  987MOL0     C33129   2.042   5.161   1.456  0.6021  0.6929 -0.5607
  987MOL0     C33130   1.931   5.050   1.471 -0.7172  0.3326 -0.5930
  987MOL0     C33131   1.901   4.982   1.337 -0.1907  0.5335  0.0057
  987MOL0     C33132   1.832   5.055   1.227  0.6726  0.4843  0.5312
  987MOL0     C33133   1.685   5.079   1.269 -0.4713  0.1012 -0.5220
  987MOL0     O33134   1.630   5.143   1.154 -0.5319  0.6523  0.1851
  987MOL0     C33135   1.493   5.151   1.174  0.0998  0.3331 -0.2754
  987MOL0     C33136   1.411   5.114   1.069 -0.6841  0.4880 -0.0709
  987MOL0     C33137   1.270   5.112   1.083 -0.3414 -0.4009  0.0160
  987MOL0     C33138   1.178   5.055   0.976 -1.3762 -0.6253  0.7834
  987MOL0     C33139   1.215   5.170   1.201 -0.0316  0.3191  0.0820
  987MOL0     C33140   1.072   5.174   1.219 -0.4039  1.2350 -0.3474
  987MOL0     O33141   1.022   5.127   1.337  0.1402 -0.7750  0.1582
  987MOL0     C33142   0.890   5.085   1.341 -0.0150  0.6351 -0.1382
  987MOL0     C33143   0.805   5.158   1.421 -0.0479 -0.0963  0.3791
  987MOL0     C33144   0.678   5.134   1.414  0.7090  0.4486 -0.1657
  987MOL0     C33145   0.619   5.044   1.328 -0.1994  0.6447  0.4012
  987MOL0     O33146   0.481   5.032   1.314 -0.0324 -0.2109 -0.6960
  987MOL0     C33147   0.388   5.054   1.425 -0.8709 -0.5518 -0.7190
  987MOL0     C33148   0.324   4.923   1.450 -0.2259  1.1510  0.1638
  987MOL0     C33149   0.170   4.941   1.453 -0.2048 -0.2476 -0.5184
  987MOL0     C33150   0.114   4.812   1.500  0.9042  0.3058  0.6902
  987MOL0     C33151  -0.027   4.809   1.549  0.3146 -0.1791 -0.3996
  987MOL0     C33152  -0.070   4.670   1.598  0.4402 -0.6193 -0.9492
  987MOL0     C33153  -0.202   4.680   1.677 -0.7019  0.1322 -0.0693
  987MOL0     C33154  -0.240   4.531   1.719 -0.0977  0.2601  0.4000
  987MOL0    Cl33155  -0.149   4.451   1.853 -0.3460  0.0756  0.4457
  987MOL0     C33156   0.706   4.959   1.255 -0.2491  0.6602 -0.5385
  987MOL0     C33157   0.845   4.976   1.260  0.5580  0.0863 -0.7354
  987MOL0     O33158   1.001   5.236   1.133  0.1755 -0.3276  0.1483
  987MOL0     C33159   1.291   5.221   1.299  0.0569 -0.7417 -0.4494
  987MOL0     C33160   1.427   5.209   1.283 -0.1408  0.2660 -0.4628
  987MOL0     N33161   2.052   5.264   1.551 -0.7947 -0.0005 -0.0638
  987MOL0     N33162   2.154   5.346   1.524 -0.0844  0.6981 -0.2049
  987MOL0     C33163   1.769   6.097   1.515  0.1012 -0.2757  1.4051
  987MOL0     C33164   1.700   6.110   1.631  0.4252 -0.0265  0.0217
  987MOL0     C33165   1.465   6.290   1.943  0.6202  0.9558 -0.0475
  987MOL0     C33166   1.350   6.218   1.992  0.2287  0.5032  0.3461
  987MOL0     C33167   1.295   6.244   2.122 -0.5265  0.3805  0.0528
  987MOL0     C33168   1.360   6.333   2.209  0.0097 -0.4744  0.0535
  987MOL0     O33169   1.309   6.340   2.341  0.5384  0.7859  0.7965
  987MOL0     C33170   1.412   6.344   2.440  0.2682 -0.9541 -1.1861
  987MOL0     C33171   1.350   6.280   2.567 -0.0973  0.1415 -0.5047
  987MOL0     C33172   1.449   6.273   2.693 -0.2624 -0.1539 -0.3769
  987MOL0     C33173   1.395   6.197   2.809  0.0911  0.3295  0.7252
  987MOL0     C33174   1.264   6.249   2.868  0.2022 -0.0144 -0.4576
  987MOL0     C33175   1.159   6.272   2.919  0.0762 -0.6841  0.6167
  987MOL0     C33176   1.473   6.409   2.161  0.2501  0.7977 -0.3078
  987MOL0     C33177   1.521   6.386   2.031 -0.2743 -0.1318  0.4435
  987MOL0     H33178   1.406   6.204   1.470  1.4028  4.3784 -4.3393
  987MOL0     H33179   1.538   6.124   1.272  2.1612  0.9116 -0.5251
  987MOL0     H33180   1.903   5.929   1.356 -1.3022  3.5256  1.9999
  987MOL0     H33181   1.793   5.891   1.222  0.3397 -0.1070 -0.0593
  987MOL0     H33182   1.949   6.040   1.084 -0.7820  1.6459  1.9415
  987MOL0     H33183   2.077   5.998   1.189 -0.1915  0.3985  0.6798
  987MOL0     H33184   1.897   5.800   1.039 -1.2232 -0.1305  2.1453
  987MOL0     H33185   2.064   5.822   0.997  0.0099 -2.3843 -1.1040
  987MOL0     H33186   2.080   5.749   1.267  0.9724  3.4525 -1.5342
  987MOL0     H33187   1.940   5.666   1.215 -1.1128  2.0452 -0.4043
  987MOL0     H33188   2.066   5.558   1.037 -0.2226  2.0926 -1.0341
  987MOL0     H33189   2.218   5.643   1.074  1.9677 -4.9251 -3.5633
  987MOL0     H33190   2.161   5.548   1.314  1.8075  0.0478 -0.5602
  987MOL0     H33191   2.069   5.425   1.225  1.0284 -1.2328  1.5804
  987MOL0     H33192   2.264   5.339   1.120  0.9966 -1.7325  1.8605
  987MOL0     H33193   2.367   5.479   1.154 -0.3309  0.0947 -2.3278
  987MOL0     H33194   2.380   5.432   1.387 -2.4490 -0.8265  4.8187
  987MOL0     H33195   2.391   5.280   1.309  0.3721  0.2113  2.2361
  987MOL0     H33196   2.175   5.130   1.283  0.5301  0.5575 -0.1436
  987MOL0     H33197   1.962   4.966   1.533 -3.2116 -0.0104  0.2986
  987MOL0     H33198   1.841   5.079   1.526  0.3206 -0.6926  1.8214
  987MOL0     H33199   1.838   4.895   1.352  2.7856 -1.9914 -1.0420
  987MOL0     H33200   1.994   4.947   1.292 -1.1811  0.9270 -2.5084
  987MOL0     H33201   1.833   4.995   1.135  0.4243 -0.6088  1.2200
  987MOL0     H33202   1.885   5.146   1.199  3.6646 -1.0493  0.7664
  987MOL0     H33203   1.686   5.152   1.351 -0.1286  1.6868 -1.8896
  987MOL0     H33204   1.636   4.988   1.305 -3.2197  1.9504  0.7963
  987MOL0     H33205   1.464   5.082   0.980 -3.0760 -1.8357 -0.7558
  987MOL0     H33206   1.097   5.117   0.937 -2.1936 -1.4974  1.0642
  987MOL0     H33207   1.233   5.035   0.883 -2.9661  2.6375 -1.0217
  987MOL0     H33208   1.125   4.971   1.022 -4.5351  0.7100 -0.1564
  987MOL0     H33209   0.852   5.236   1.480  1.8184 -1.6757  1.0770
  987MOL0     H33210   0.626   5.196   1.486 -0.3463  0.4928 -0.9344
  987MOL0     H33211   0.437   5.094   1.514  2.0314 -2.5653 -1.2883
  987MOL0     H33212   0.322   5.132   1.385  2.6158  1.5913 -2.8062
  987MOL0     H33213   0.356   4.854   1.372 -1.0094  0.8967  0.0572
  987MOL0     H33214   0.352   4.884   1.548  1.8886  1.0013 -0.4419
  987MOL0     H33215   0.131   4.959   1.352  0.8007  1.6135 -0.6099
  987MOL0     H33216   0.135   5.025   1.514 -1.1853 -0.0397 -1.3252
  987MOL0     H33217   0.114   4.737   1.420 -1.8292  0.1431  0.7612
  987MOL0     H33218   0.177   4.774   1.580 -1.2863 -2.2398  1.3422
  987MOL0     H33219  -0.095   4.853   1.476 -2.6692 -3.9907 -0.2184
  987MOL0     H33220  -0.017   4.878   1.634  0.7944 -1.4117  0.5830
  987MOL0     H33221  -0.073   4.593   1.520  1.8204 -3.8208  1.8836
  987MOL0     H33222   0.000   4.628   1.671  0.4834 -0.9118 -1.1588
  987MOL0     H33223  -0.272   4.714   1.599 -1.2983 -0.8565  0.0150
  987MOL0     H33224  -0.203   4.750   1.761  0.7237 -1.7288  1.5867
  987MOL0     H33225  -0.244   4.456   1.640  1.5158 -0.8992  1.3596
  987MOL0     H33226  -0.344   4.540   1.752  0.8259  2.4161  3.1116
  987MOL0     H33227   0.655   4.892   1.186 -3.8901 -2.9939  4.8452
  987MOL0     H33228   0.913   4.927   1.191  4.5592  1.6858  1.7295
  987MOL0     H33229   1.256   5.262   1.393  0.6280 -0.8136 -0.2053
  987MOL0     H33230   1.489   5.223   1.371  0.3750 -4.1870  0.1466
  987MOL0     H33231   1.874   6.068   1.516 -0.1338 -1.3144 -0.4418
  987MOL0     H33232   1.736   6.082   1.730  0.0095  0.8910  0.4505
  987MOL0     H33233   1.305   6.142   1.929  1.0067  1.0099 -0.8663
  987MOL0     H33234   1.201   6.208   2.163 -1.0440  0.6842 -0.8603
  987MOL0     H33235   1.509   6.304   2.409  1.2188  1.7845 -2.0123
  987MOL0     H33236   1.429   6.450   2.456 -2.2180  0.1347 -4.6570
  987MOL0     H33237   1.334   6.173   2.552  0.0643  0.0347  0.0451
  987MOL0     H33238   1.256   6.328   2.594  1.0648  3.7128 -2.1589
  987MOL0     H33239   1.466   6.372   2.736 -0.8209 -0.7176  1.2204
  987MOL0     H33240   1.550   6.239   2.670  0.1744  2.0176 -1.9384
  987MOL0     H33241   1.464   6.186   2.893 -0.8060  0.9250  1.5681
  987MOL0     H33242   1.381   6.097   2.768 -0.7246  1.4993 -2.0520
  987MOL0     H33243   1.066   6.292   2.968  0.0334  0.8161 -0.0174
  987MOL0     H33244   1.534   6.463   2.233  0.8759 -1.7109  1.1779
  987MOL0     H33245   1.604   6.443   1.990  0.8359 -1.2860  1.0281
  988MOL0     O33246   2.256   8.889   4.906  0.2098  0.0917  0.1351
  988MOL0     C33247   2.173   8.814   4.942  1.2853  0.5205  0.3883
  988MOL0     O33248   2.172   8.679   4.934  0.6109  0.5378  0.2432
  988MOL0     C33249   2.238   8.604   4.843 -0.1499 -0.0718 -0.6257
  988MOL0     C33250   2.222   8.461   4.841  0.4656 -0.1832  0.5183
  988MOL0     C33251   2.281   8.384   4.742  0.4239 -0.0764 -0.3720
  988MOL0     C33252   2.369   8.437   4.648 -0.2438  0.0113 -0.4151
  988MOL0     O33253   2.442   8.342   4.593 -0.0626 -0.0985  0.7717
  988MOL0     C33254   2.580   8.355   4.633 -0.2834 -0.6036  0.1187
  988MOL0     C33255   2.673   8.251   4.569 -0.3342  0.5342 -0.0678
  988MOL0     C33256   2.704   8.261   4.424  0.3475 -0.0322  1.3819
  988MOL0     C33257   2.585   8.252   4.329 -0.0248  0.4131  0.0617
  988MOL0     C33258   2.622   8.312   4.196 -0.8868 -0.6895  0.8281
  988MOL0     C33259   2.516   8.333   4.096  0.1378 -0.7174  0.0947
  988MOL0     C33260   2.455   8.191   4.056 -0.7871 -0.7372 -0.8552
  988MOL0     C33261   2.359   8.218   3.948  0.3289  0.0102 -0.0693
  988MOL0     N33262   2.316   8.110   3.859  0.7164  0.0061 -0.2337
  988MOL0     C33263   2.214   8.128   3.768  0.0034 -0.6037  0.5865
  988MOL0     C33264   2.232   8.028   3.681  0.0965  0.5014 -0.0596
  988MOL0     C33265   2.127   8.001   3.570 -0.2536 -0.6077  0.4557
  988MOL0     C33266   2.180   8.052   3.437 -0.3443 -0.7716  0.3270
  988MOL0     C33267   2.165   8.208   3.436  0.5103 -0.8937 -0.3405
  988MOL0     C33268   2.236   8.276   3.325  0.5765  1.0122 -0.1001
  988MOL0     O33269   2.175   8.234   3.200  0.0942  0.3789 -0.6641
  988MOL0     C33270   2.240   8.269   3.083  0.4281  0.0034 -0.2844
  988MOL0     C33271   2.332   8.372   3.068 -0.2154  0.2321  0.1120
  988MOL0     C33272   2.387   8.393   2.939 -0.2686  0.0082  0.6262
  988MOL0     C33273   2.483   8.524   2.940  1.0351  0.1711 -0.3059
  988MOL0     C33274   2.357   8.307   2.830  0.6085  0.3773 -0.9369
  988MOL0     C33275   2.404   8.324   2.688 -0.0028 -0.4706 -1.4059
  988MOL0     O33276   2.347   8.243   2.595 -0.0320  0.5207  0.3166
  988MOL0     C33277   2.338   8.282   2.458  0.1449  0.1131  0.1404
  988MOL0     C33278   2.321   8.185   2.358 -0.3150  0.5112  0.8352
  988MOL0     C33279   2.295   8.220   2.226 -0.6921 -0.1994 -1.3375
  988MOL0     C33280   2.282   8.360   2.194  0.4175 -1.0149 -0.1008
  988MOL0     O33281   2.254   8.395   2.060 -0.3774 -0.5027 -0.1239
  988MOL0     C33282   2.139   8.325   2.008  1.1484  0.6056  0.4654
  988MOL0     C33283   2.072   8.398   1.886 -0.6816  0.2642  0.9752
  988MOL0     C33284   2.181   8.409   1.777 -0.3530  0.1252 -1.2319
  988MOL0     C33285   2.133   8.404   1.625  0.0075 -0.3540 -0.3620
  988MOL0     C33286   2.258   8.415   1.522 -1.3196  0.2485  0.8293
  988MOL0     C33287   2.213   8.417   1.369  0.2297 -0.2619 -0.2410
  988MOL0     C33288   2.338   8.404   1.280  0.7035  0.7703  1.3853
  988MOL0     C33289   2.300   8.419   1.123  0.9482 -0.2879  0.3797
  988MOL0    Cl33290   2.422   8.344   1.025 -0.0491 -0.0243 -0.6532
  988MOL0     C33291   2.309   8.458   2.289 -0.0828 -0.1176  0.2610
  988MOL0     C33292   2.329   8.421   2.425 -0.5577 -0.6537 -0.2336
  988MOL0     O33293   2.500   8.409   2.668  0.0245 -0.1088  0.2289
  988MOL0     C33294   2.280   8.192   2.858 -0.6257 -0.4201 -0.1378
  988MOL0     C33295   2.220   8.171   2.980  0.9518 -0.1911  1.0937
  988MOL0     N33296   2.347   7.952   3.708  0.4829  0.0634 -0.6914
  988MOL0     N33297   2.399   8.014   3.817 -0.1486 -0.0858  0.0211
  988MOL0     C33298   2.383   8.579   4.646 -0.5425  0.2308  0.0816
  988MOL0     C33299   2.332   8.657   4.747  1.0393  0.0200 -0.3264
  988MOL0     C33300   2.055   8.880   5.007 -0.7605 -0.3572  0.3315
  988MOL0     C33301   2.069   9.008   5.069  0.2563 -0.6414  0.5954
  988MOL0     C33302   1.964   9.068   5.140  1.0138  0.1530  0.5869
  988MOL0     C33303   1.847   8.993   5.164 -0.2941 -1.3119  0.0821
  988MOL0     O33304   1.740   9.056   5.228 -1.0834  0.0032  0.7018
  988MOL0     C33305   1.640   8.972   5.282  0.6031 -0.4380 -0.2900
  988MOL0     C33306   1.562   9.042   5.388  0.0674  0.3411  0.1728
  988MOL0     C33307   1.442   8.950   5.426  0.2444 -0.2135  0.4801
  988MOL0     C33308   1.311   8.976   5.344 -0.1608 -0.0596 -0.7489
  988MOL0     C33309   1.271   9.118   5.367 -0.7359 -0.0404 -0.6066
  988MOL0     C33310   1.254   9.235   5.367  1.4106 -0.1627 -0.9696
  988MOL0     C33311   1.834   8.870   5.099  0.4510  0.3512  0.0838
  988MOL0     C33312   1.938   8.809   5.030 -0.3997 -0.1857  0.7186
  988MOL0     H33313   2.154   8.413   4.910 -0.3913 -0.2283 -0.3316
  988MOL0     H33314   2.258   8.278   4.752 -2.3911  0.5668  1.1951
  988MOL0     H33315   2.619   8.451   4.601  1.3843  0.1301  3.7671
  988MOL0     H33316   2.583   8.357   4.743  2.7055  0.2463  0.1055
  988MOL0     H33317   2.767   8.261   4.624  1.5789  0.3639 -3.0492
  988MOL0     H33318   2.627   8.154   4.589 -1.1804  1.3529  2.2860
  988MOL0     H33319   2.763   8.350   4.399 -0.7929  0.2709 -0.3852
  988MOL0     H33320   2.769   8.180   4.389  0.6030  1.6186 -2.4411
  988MOL0     H33321   2.559   8.147   4.310  3.5324 -0.2793 -2.0325
  988MOL0     H33322   2.500   8.298   4.378 -0.8199  0.4909 -1.3284
  988MOL0     H33323   2.665   8.412   4.209 -1.2377 -0.8125  3.5919
  988MOL0     H33324   2.696   8.244   4.152  1.2716  1.3112  1.1916
  988MOL0     H33325   2.439   8.398   4.138  0.3486  0.7582 -1.6671
  988MOL0     H33326   2.559   8.382   4.009 -1.6688 -0.0134 -0.4369
  988MOL0     H33327   2.528   8.121   4.015 -0.1971 -1.4958  1.3480
  988MOL0     H33328   2.399   8.145   4.138  2.1470  0.5984  2.1427
  988MOL0     H33329   2.395   8.293   3.877  0.7178 -1.3462 -1.3520
  988MOL0     H33330   2.275   8.262   4.003  0.7091  2.6275 -1.3964
  988MOL0     H33331   2.136   8.203   3.764 -0.4192 -1.0855 -1.7258
  988MOL0     H33332   2.115   7.893   3.559 -1.7366 -0.2488 -2.0380
  988MOL0     H33333   2.024   8.031   3.592 -0.0685 -0.1957  0.7870
  988MOL0     H33334   2.134   8.000   3.353 -0.6582 -1.3796  0.8697
  988MOL0     H33335   2.288   8.034   3.436 -0.2432 -0.2263 -0.8498
  988MOL0     H33336   2.210   8.254   3.524 -1.0788  0.1145  0.0002
  988MOL0     H33337   2.059   8.238   3.441  1.1799  1.6151  0.2900
  988MOL0     H33338   2.337   8.236   3.317 -0.0988 -0.9514  0.3997
  988MOL0     H33339   2.233   8.385   3.335  3.3402  1.0657  1.2307
  988MOL0     H33340   2.339   8.438   3.154 -3.7973 -1.3378  1.8374
  988MOL0     H33341   2.524   8.514   3.041  3.9007  0.8744 -1.3031
  988MOL0     H33342   2.568   8.520   2.872  0.4052 -0.3891 -1.0886
  988MOL0     H33343   2.426   8.617   2.933  1.9379  0.7052 -0.6676
  988MOL0     H33344   2.327   8.080   2.385 -0.7531 -0.2541 -1.8079
  988MOL0     H33345   2.296   8.136   2.157 -2.1775 -3.2538  2.0464
  988MOL0     H33346   2.175   8.227   1.976 -0.6289  0.0942 -0.0886
  988MOL0     H33347   2.057   8.304   2.079  0.5284  0.8560 -0.1628
  988MOL0     H33348   1.988   8.337   1.852  1.1687 -1.5084 -0.6531
  988MOL0     H33349   2.033   8.495   1.918  0.7857  0.7081  1.5011
  988MOL0     H33350   2.245   8.321   1.788 -0.2712  0.3662  0.5599
  988MOL0     H33351   2.235   8.500   1.803 -0.2423 -0.3074  0.1477
  988MOL0     H33352   2.084   8.307   1.608 -1.3860  0.4447 -1.0194
  988MOL0     H33353   2.055   8.477   1.602 -0.9914 -1.6065 -1.0875
  988MOL0     H33354   2.328   8.331   1.522  0.0300  1.3020 -0.8400
  988MOL0     H33355   2.325   8.500   1.536 -1.6034  0.6508 -0.1672
  988MOL0     H33356   2.148   8.335   1.338 -0.3967  0.1321  0.0195
  988MOL0     H33357   2.172   8.514   1.340 -1.3975 -1.9440 -4.4016
  988MOL0     H33358   2.389   8.308   1.291 -1.7790 -0.6328  1.2438
  988MOL0     H33359   2.404   8.490   1.293  0.3037  1.3812 -0.3016
  988MOL0     H33360   2.283   8.522   1.092 -1.4481  0.6956  4.2789
  988MOL0     H33361   2.206   8.369   1.099 -0.5528  1.9027  1.4583
  988MOL0     H33362   2.308   8.564   2.264 -3.7677 -0.2052 -0.5802
  988MOL0     H33363   2.344   8.502   2.497 -2.7589  0.6270 -1.1272
  988MOL0     H33364   2.260   8.127   2.774  2.6239  1.2363 -2.4354
  988MOL0     H33365   2.157   8.085   3.003 -0.6094  1.4906  3.5603
  988MOL0     H33366   2.441   8.620   4.564 -0.7709  3.2835  1.3482
  988MOL0     H33367   2.364   8.761   4.735 -0.1927  0.6970  1.7998
  988MOL0     H33368   2.167   9.055   5.064  0.0988 -0.1156  2.0865
  988MOL0     H33369   1.971   9.165   5.187  1.0338 -0.0409  0.9841
  988MOL0     H33370   1.565   8.957   5.203  0.6942  1.0027 -0.6652
  988MOL0     H33371   1.685   8.886   5.332 -1.3043 -2.1861 -1.3858
  988MOL0     H33372   1.539   9.147   5.367  1.9613  0.3205 -2.5635
  988MOL0     H33373   1.634   9.043   5.470 -1.3504  3.4872  1.5675
  988MOL0     H33374   1.421   8.965   5.533  1.0006 -4.4673  1.4222
  988MOL0     H33375   1.466   8.843   5.423  0.7606 -0.0720 -1.1062
  988MOL0     H33376   1.235   8.905   5.379  1.4944 -1.5997 -0.0991
  988MOL0     H33377   1.330   8.976   5.237  2.8842  2.6584 -0.3791
  988MOL0     H33378   1.250   9.341   5.377 -2.3918 -0.3567  4.8947
  988MOL0     H33379   1.745   8.807   5.102  0.5972  0.1816  1.2165
  988MOL0     H33380   1.929   8.704   5.004  1.0068 -0.5771  1.7195
  989MOL0     O33381  10.772   4.064   5.936 -1.1007  0.1719  0.0799
  989MOL0     C33382  10.766   3.940   5.944 -0.1460 -0.2602  0.0566
  989MOL0     O33383  10.818   3.859   6.040 -0.5055  0.0789 -0.1930
  989MOL0     C33384  10.851   3.919   6.157  0.5129  0.7051 -0.9978
  989MOL0     C33385  10.771   3.915   6.277  0.0903 -0.2496  0.3432
  989MOL0     C33386  10.815   3.978   6.384  0.3390  0.2872  0.0086
  989MOL0     C33387  10.942   4.039   6.387 -0.2675  0.2296 -0.6129
  989MOL0     O33388  10.997   4.090   6.507  0.0042  0.5138  0.3006
  989MOL0     C33389  11.073   4.210   6.499 -0.7941 -0.5185 -0.5472
  989MOL0     C33390  11.013   4.316   6.580  0.7959  0.2321  0.2407
  989MOL0     C33391  11.074   4.448   6.571  1.0373  0.1806  0.1539
  989MOL0     C33392  11.003   4.543   6.678 -1.4134  0.6496  0.3679
  989MOL0     C33393  11.072   4.676   6.696 -0.2557 -0.0008  0.5686
  989MOL0     C33394  10.995   4.749   6.808  0.2631 -0.1317  0.5123
  989MOL0     C33395  11.072   4.877   6.835 -0.2680 -0.3961  0.3050
  989MOL0     C33396  10.982   4.980   6.893 -0.7258  0.2158 -0.5315
  989MOL0     N33397  10.865   5.019   6.820  0.0682  0.8036  0.5200
  989MOL0     C33398  10.738   4.975   6.837  0.5837 -0.1773  0.0440
  989MOL0     C33399  10.660   5.056   6.758 -0.3053  0.6477  0.1545
  989MOL0     C33400  10.506   5.057   6.744 -0.5117  0.4357 -0.2995
  989MOL0     C33401  10.442   5.198   6.744 -0.7818  0.2122 -0.2109
  989MOL0     C33402  10.292   5.189   6.725 -1.4414  0.2484 -0.6317
  989MOL0     C33403  10.223   5.168   6.860 -0.1980 -0.5727  0.2990
  989MOL0     O33404  10.198   5.023   6.868  0.2871 -0.4532  0.0344
  989MOL0     C33405  10.076   4.976   6.834  0.7522  0.0008 -1.1664
  989MOL0     C33406   9.996   5.029   6.737 -0.0602 -0.5443  0.4053
  989MOL0     C33407   9.877   4.970   6.682 -0.1847 -0.3472 -0.1988
  989MOL0     C33408   9.815   5.028   6.556  0.2208 -0.0098  1.1649
  989MOL0     C33409   9.827   4.861   6.758 -0.4947  0.5596 -0.3221
  989MOL0     C33410   9.691   4.791   6.721  0.0137 -1.2234 -0.2437
  989MOL0     O33411   9.703   4.657   6.711  0.5755  0.0912  0.1089
  989MOL0     C33412   9.607   4.597   6.645  0.3930  0.0927 -1.0972
  989MOL0     C33413   9.514   4.509   6.692 -0.0320  0.2585 -0.2399
  989MOL0     C33414   9.435   4.424   6.609  1.0156 -0.5226  0.5800
  989MOL0     C33415   9.449   4.441   6.468 -0.3609 -0.4278  0.2212
  989MOL0     O33416   9.375   4.363   6.377  0.3304  0.9839  0.1149
  989MOL0     C33417   9.260   4.282   6.434 -0.4159 -0.3817  0.4229
  989MOL0     C33418   9.166   4.235   6.326 -0.0761 -0.0099 -0.8689
  989MOL0     C33419   9.059   4.135   6.371  0.4107 -0.1976 -0.5067
  989MOL0     C33420   8.983   4.085   6.247  1.0297 -1.1219 -0.1812
  989MOL0     C33421   9.060   3.987   6.150 -0.4978  0.3719 -0.6055
  989MOL0     C33422   8.979   3.955   6.021 -0.2176 -0.0650  0.6940
  989MOL0     C33423   9.067   3.901   5.907 -0.5790  0.7771 -0.9044
  989MOL0     C33424   8.987   3.857   5.797  0.1359  1.0489 -0.2672
  989MOL0    Cl33425   8.919   3.980   5.712  0.1567  0.3369  0.0713
  989MOL0     C33426   9.544   4.532   6.423 -0.3801  0.0284 -0.2285
  989MOL0     C33427   9.625   4.601   6.511  0.5727  0.3224 -1.1703
  989MOL0     O33428   9.603   4.861   6.670  0.2981 -0.0215 -0.0286
  989MOL0     C33429   9.894   4.811   6.872 -0.3027  0.8161  0.5974
  989MOL0     C33430  10.023   4.862   6.897 -0.1422 -0.4215  0.0924
  989MOL0     N33431  10.742   5.140   6.681  0.3263  0.1073  0.1681
  989MOL0     N33432  10.867   5.105   6.715 -0.0265 -0.3482  0.2239
  989MOL0     C33433  11.018   4.025   6.278  0.0288  0.2300  0.2670
  989MOL0     C33434  10.974   3.971   6.160 -0.9787  0.3194 -0.6959
  989MOL0     C33435  10.709   3.875   5.824  0.3818  0.2273  0.4523
  989MOL0     C33436  10.726   3.734   5.807  0.1293 -0.6146 -0.1924
  989MOL0     C33437  10.661   3.681   5.703  0.0237  0.0537  0.3537
  989MOL0     C33438  10.570   3.739   5.619 -0.3564  0.0154  0.4606
  989MOL0     O33439  10.516   3.660   5.523  0.7038  1.0518 -0.4904
  989MOL0     C33440  10.380   3.706   5.468 -0.7506  0.5221 -0.8865
  989MOL0     C33441  10.319   3.587   5.391  0.1449 -0.0536 -0.1257
  989MOL0     C33442  10.190   3.623   5.323  0.2081  0.8206 -0.8899
  989MOL0     C33443  10.129   3.511   5.231 -0.2988  0.6295 -0.4171
  989MOL0     C33444  10.149   3.543   5.089  0.6003 -0.6222 -0.0558
  989MOL0     C33445  10.173   3.575   4.973 -0.2476  0.3184  0.1994
  989MOL0     C33446  10.540   3.877   5.641 -0.3757 -0.0531 -0.5825
  989MOL0     C33447  10.618   3.947   5.738  1.7590  0.6783 -0.8868
  989MOL0     H33448  10.678   3.859   6.272  0.2418 -0.4330 -0.5432
  989MOL0     H33449  10.756   3.974   6.475  1.6155 -0.3170  0.8492
  989MOL0     H33450  11.172   4.180   6.535  0.4738  1.2036 -2.3524
  989MOL0     H33451  11.087   4.256   6.400 -0.4265  1.7724  0.5081
  989MOL0     H33452  10.911   4.332   6.544  1.2478 -0.7473 -1.5837
  989MOL0     H33453  11.005   4.269   6.679 -1.4282 -2.2169 -0.9718
  989MOL0     H33454  11.183   4.447   6.586  1.3770 -0.6750 -1.9162
  989MOL0     H33455  11.072   4.488   6.469  1.7569  1.7586  0.7417
  989MOL0     H33456  10.900   4.543   6.640 -1.8791 -1.2630  1.4652
  989MOL0     H33457  10.996   4.483   6.769  1.1653 -4.0100 -2.1183
  989MOL0     H33458  11.177   4.657   6.719  0.5334  4.7497  1.9883
  989MOL0     H33459  11.060   4.738   6.606  4.1693  1.9879  1.1005
  989MOL0     H33460  10.891   4.767   6.778  0.4860 -2.2457 -1.8505
  989MOL0     H33461  10.996   4.682   6.894  0.1502  0.9729  1.4006
  989MOL0     H33462  11.164   4.853   6.888  1.2483 -0.1927 -2.0603
  989MOL0     H33463  11.112   4.918   6.742  1.8742 -5.0599 -1.1013
  989MOL0     H33464  11.049   5.066   6.901 -3.1559  2.0685  1.8499
  989MOL0     H33465  10.958   4.949   6.995  2.5855 -0.1335  0.2547
  989MOL0     H33466  10.688   4.906   6.904 -5.8942  2.9632 -0.7049
  989MOL0     H33467  10.482   5.014   6.646  0.1003  0.1524 -0.3335
  989MOL0     H33468  10.450   4.991   6.811 -3.2694  0.0987 -2.7108
  989MOL0     H33469  10.485   5.250   6.658  1.0062 -0.3343  0.3195
  989MOL0     H33470  10.472   5.247   6.836  2.4606  0.4417 -1.2690
  989MOL0     H33471  10.281   5.107   6.654  3.3323 -2.2556  1.0437
  989MOL0     H33472  10.260   5.286   6.687 -1.8192  1.3812  2.3075
  989MOL0     H33473  10.146   5.245   6.860  2.1471  2.1357  4.3820
  989MOL0     H33474  10.292   5.195   6.940  0.2726  1.5859 -0.7764
  989MOL0     H33475  10.042   5.106   6.676 -2.4823  0.9453  0.3096
  989MOL0     H33476   9.765   5.120   6.586  0.6537  0.4183  0.6072
  989MOL0     H33477   9.893   5.043   6.480 -1.7513 -0.8665 -1.1349
  989MOL0     H33478   9.743   4.957   6.515 -1.4570  1.5597  1.2870
  989MOL0     H33479   9.510   4.508   6.800 -1.7570  1.2350 -0.2502
  989MOL0     H33480   9.362   4.354   6.648  1.0223 -0.4694  0.6887
  989MOL0     H33481   9.305   4.201   6.493 -0.3871 -0.0155  0.9123
  989MOL0     H33482   9.205   4.344   6.505  3.4243 -0.0571  3.4773
  989MOL0     H33483   9.121   4.319   6.272  0.6958  0.0999 -1.3577
  989MOL0     H33484   9.236   4.191   6.254  3.5253  4.0831 -0.2679
  989MOL0     H33485   8.996   4.198   6.435  1.0233 -0.9566  0.8995
  989MOL0     H33486   9.083   4.047   6.432 -2.4292 -0.7662 -0.0524
  989MOL0     H33487   8.895   4.031   6.283 -0.2097  0.5433 -0.5827
  989MOL0     H33488   8.949   4.176   6.196 -1.5416 -0.4350  2.4266
  989MOL0     H33489   9.087   3.898   6.208  3.3708  1.9916  0.3632
  989MOL0     H33490   9.153   4.033   6.116  1.9496 -1.6428  2.7746
  989MOL0     H33491   8.897   3.887   6.047 -0.2159 -0.7385 -0.9328
  989MOL0     H33492   8.919   4.043   5.995 -4.4279 -2.3272  1.7595
  989MOL0     H33493   9.116   3.808   5.940 -0.5172  1.0720 -0.1487
  989MOL0     H33494   9.140   3.973   5.869 -1.1477  0.1709 -3.3163
  989MOL0     H33495   8.916   3.778   5.823 -1.4963  1.3391 -3.3531
  989MOL0     H33496   9.052   3.814   5.721  0.4336 -0.6622  0.9051
  989MOL0     H33497   9.566   4.557   6.320  0.3546  2.7535  0.5044
  989MOL0     H33498   9.684   4.684   6.472 -1.1104  2.7966  1.1664
  989MOL0     H33499   9.857   4.725   6.927 -4.5726  1.3617 -1.0425
  989MOL0     H33500  10.090   4.826   6.975 -0.7431  0.4147  1.0157
  989MOL0     H33501  11.125   4.041   6.281  0.5387 -2.8004  1.5751
  989MOL0     H33502  11.037   3.975   6.071 -0.5684  1.0670 -0.3822
  989MOL0     H33503  10.773   3.677   5.886 -0.0341 -1.9592 -1.0516
  989MOL0     H33504  10.697   3.579   5.699  0.9373  0.2631  2.0211
  989MOL0     H33505  10.326   3.738   5.557  2.0636 -1.5839  1.8320
  989MOL0     H33506  10.400   3.788   5.398  2.4583  2.3713  1.9226
  989MOL0     H33507  10.304   3.498   5.453 -1.9102  1.0128  1.0146
  989MOL0     H33508  10.392   3.562   5.314  0.4682  0.1933  0.1015
  989MOL0     H33509  10.204   3.719   5.273  0.0550  1.8877  0.9881
  989MOL0     H33510  10.111   3.650   5.394 -0.9842  0.1328 -1.9222
  989MOL0     H33511  10.021   3.523   5.246 -0.3366  0.4811 -0.5688
  989MOL0     H33512  10.165   3.411   5.259  0.1023  1.1910  1.1713
  989MOL0     H33513  10.192   3.625   4.880 -1.5101 -0.4603 -0.5084
  989MOL0     H33514  10.477   3.927   5.568 -0.4989 -0.9606 -1.1149
  989MOL0     H33515  10.582   4.048   5.754 -5.5423 -1.5827  1.0037
  990MOL0     O33516  10.840   3.507   0.527 -0.7440  0.0301  0.0028
  990MOL0     C33517  10.767   3.453   0.611 -0.4464 -0.3487 -0.1668
  990MOL0     O33518  10.752   3.490   0.746  0.4822  0.0688 -0.1327
  990MOL0     C33519  10.847   3.556   0.812 -0.3311  0.4960  1.1620
  990MOL0     C33520  10.905   3.675   0.769 -0.4955  0.3631  0.3047
  990MOL0     C33521  10.998   3.745   0.847 -0.8362  0.7482 -0.1112
  990MOL0     C33522  11.027   3.700   0.975 -0.8869  0.7213  0.2673
  990MOL0     O33523  11.118   3.769   1.045  0.0448  0.5731 -0.9094
  990MOL0     C33524  11.234   3.700   1.092  0.3711  0.0182  1.3650
  990MOL0     C33525  11.302   3.773   1.209 -0.1980 -0.0862 -1.6326
  990MOL0     C33526  11.436   3.718   1.255  0.7288  0.8336 -0.3720
  990MOL0     C33527  11.495   3.792   1.375 -0.7214  0.0862 -0.4122
  990MOL0     C33528  11.492   3.948   1.356 -0.4839 -0.0748  0.0622
  990MOL0     C33529  11.539   4.026   1.485  0.4532 -0.4003  0.6167
  990MOL0     C33530  11.495   4.176   1.485 -0.2516  0.4797 -1.1511
  990MOL0     C33531  11.370   4.189   1.570 -0.8484 -1.1845 -0.3851
  990MOL0     N33532  11.245   4.164   1.493  0.5354  0.3040 -0.4220
  990MOL0     C33533  11.234   4.203   1.359  0.0104 -0.9484 -0.5173
  990MOL0     C33534  11.108   4.162   1.328 -0.5550  0.3100  1.0168
  990MOL0     C33535  11.042   4.173   1.189 -0.1843  0.6039  0.4872
  990MOL0     C33536  11.141   4.140   1.075  0.1609 -0.0027 -0.5533
  990MOL0     C33537  11.075   4.099   0.936 -0.6356  0.4862  0.7309
  990MOL0     C33538  11.185   4.070   0.831  0.1414 -0.3125 -0.5652
  990MOL0     O33539  11.282   4.190   0.827  0.3315  0.2136  0.2021
  990MOL0     C33540  11.419   4.172   0.818  0.8174 -0.3615  0.4249
  990MOL0     C33541  11.471   4.075   0.731  0.6194 -0.1657  0.8664
  990MOL0     C33542  11.610   4.065   0.706 -0.6037 -0.2025  0.3247
  990MOL0     C33543  11.648   3.971   0.594  0.8418 -0.4353 -0.3989
  990MOL0     C33544  11.705   4.150   0.776  0.5111  0.3943 -0.3339
  990MOL0     C33545  11.846   4.148   0.754 -0.3867  0.0962  1.1992
  990MOL0     O33546  11.930   4.165   0.853  0.3738  0.4089  0.2553
  990MOL0     C33547  12.059   4.131   0.859  0.3462  0.7602 -0.3283
  990MOL0     C33548  12.124   4.040   0.772  0.3066 -0.0069 -0.4101
  990MOL0     C33549  12.265   4.018   0.776 -0.1015  0.7398 -0.1866
  990MOL0     C33550  12.340   4.091   0.866  0.3302 -0.0899  1.7463
  990MOL0     O33551  12.474   4.072   0.895  0.6447 -0.3871 -0.1521
  990MOL0     C33552  12.544   3.959   0.847 -0.3965  0.3059  0.2507
  990MOL0     C33553  12.690   3.967   0.901 -0.1133  0.4125 -0.2561
  990MOL0     C33554  12.704   3.953   1.058 -0.1810 -0.0385  0.2888
  990MOL0     C33555  12.848   3.901   1.095  0.4471 -0.4039  0.2711
  990MOL0     C33556  12.866   3.913   1.246  0.9338  0.3837 -0.6911
  990MOL0     C33557  12.938   3.792   1.294  0.3249 -0.7097 -1.2584
  990MOL0     C33558  12.887   3.751   1.442 -0.0093 -0.7536 -0.0495
  990MOL0     C33559  12.932   3.611   1.478  0.0187 -0.4880 -0.8806
  990MOL0    Cl33560  13.109   3.596   1.481  0.3852  0.1031 -0.1144
  990MOL0     C33561  12.276   4.170   0.961  0.1174 -1.1813  0.2692
  990MOL0     C33562  12.134   4.187   0.970 -0.1823 -0.3920 -0.2592
  990MOL0     O33563  11.886   4.126   0.641 -0.7698 -0.1337  0.3700
  990MOL0     C33564  11.647   4.242   0.873  0.1944 -0.4223  0.7821
  990MOL0     C33565  11.507   4.264   0.887  0.0358  1.2701 -0.8090
  990MOL0     N33566  11.054   4.091   1.439  0.0474 -0.7117  0.2382
  990MOL0     N33567  11.141   4.088   1.532  0.5677 -0.3082 -0.4214
  990MOL0     C33568  10.965   3.582   1.024 -0.9624 -0.4233 -0.2271
  990MOL0     C33569  10.880   3.511   0.939  0.0039  0.8307 -0.0715
  990MOL0     C33570  10.690   3.338   0.565  0.4113  0.5048 -0.7606
  990MOL0     C33571  10.674   3.310   0.430 -0.2253  0.0440  0.8780
  990MOL0     C33572  10.595   3.204   0.390  0.8710  0.9159 -0.5511
  990MOL0     C33573  10.530   3.126   0.478  0.8093  0.1103 -0.6201
  990MOL0     O33574  10.433   3.046   0.421 -1.0309  0.3349 -0.8194
  990MOL0     C33575  10.372   2.949   0.507 -0.2964  0.5507 -0.5281
  990MOL0     C33576  10.461   2.828   0.508  0.3506 -0.1605 -1.2671
  990MOL0     C33577  10.474   2.752   0.382 -0.6802  0.9720  0.3651
  990MOL0     C33578  10.595   2.802   0.293  0.1732  1.0245 -0.3519
  990MOL0     C33579  10.730   2.788   0.352  0.4491  0.5597  0.2329
  990MOL0     C33580  10.836   2.790   0.404  0.8725  0.2210 -0.7268
  990MOL0     C33581  10.548   3.159   0.619 -0.0353  0.0519  0.7390
  990MOL0     C33582  10.632   3.259   0.665  0.8921  0.4446 -0.5486
  990MOL0     H33583  10.884   3.715   0.671  0.2907 -1.3746 -0.6054
  990MOL0     H33584  11.043   3.838   0.814  2.3254 -1.2931 -2.0183
  990MOL0     H33585  11.212   3.595   1.112 -1.2678 -0.6743 -3.0465
  990MOL0     H33586  11.299   3.701   1.004 -0.5881 -0.3807  0.6335
  990MOL0     H33587  11.329   3.873   1.173 -0.0426  0.5166  0.0613
  990MOL0     H33588  11.241   3.783   1.299  2.5147  1.7253  0.1551
  990MOL0     H33589  11.421   3.614   1.287 -0.1690  0.9001 -0.5488
  990MOL0     H33590  11.501   3.716   1.167  1.0445  0.5680 -0.1416
  990MOL0     H33591  11.443   3.770   1.469  0.1248  1.6647  0.4777
  990MOL0     H33592  11.597   3.759   1.394 -0.0924  1.7782 -0.6938
  990MOL0     H33593  11.559   3.969   1.271 -1.2383 -1.8511 -1.0328
  990MOL0     H33594  11.392   3.985   1.329 -0.8693 -0.8561  0.3986
  990MOL0     H33595  11.510   3.965   1.570 -1.0679 -0.5614  0.0153
  990MOL0     H33596  11.648   4.024   1.483  0.4414 -1.5179  0.1596
  990MOL0     H33597  11.568   4.237   1.539 -0.3277 -1.9807  2.0441
  990MOL0     H33598  11.482   4.231   1.392  2.8316  0.6212 -1.5842
  990MOL0     H33599  11.378   4.292   1.606 -0.6196 -1.7959  1.4163
  990MOL0     H33600  11.386   4.130   1.661  2.1914  2.1910  1.5373
  990MOL0     H33601  11.299   4.263   1.296 -1.2688  0.3329 -0.6719
  990MOL0     H33602  10.972   4.088   1.192  1.8937 -1.1861  3.0118
  990MOL0     H33603  10.977   4.260   1.176 -2.7536 -1.3614 -0.8973
  990MOL0     H33604  11.205   4.055   1.101  0.4601 -0.0418 -1.3859
  990MOL0     H33605  11.208   4.226   1.077  0.5506 -0.3175  0.6319
  990MOL0     H33606  11.009   4.176   0.896  0.4632  1.4576  0.7221
  990MOL0     H33607  11.005   4.016   0.948 -0.8496  0.4807 -0.4436
  990MOL0     H33608  11.138   4.051   0.734 -0.0214  1.7892 -0.9489
  990MOL0     H33609  11.239   3.981   0.864 -1.6180 -1.6312 -1.0543
  990MOL0     H33610  11.411   4.022   0.657  4.6307 -1.6304 -1.7083
  990MOL0     H33611  11.559   3.915   0.565 -2.0427  4.3265 -1.9156
  990MOL0     H33612  11.673   4.026   0.502 -1.3578  1.8453  0.2391
  990MOL0     H33613  11.735   3.909   0.620  0.3927 -2.4580 -3.2786
  990MOL0     H33614  12.082   3.985   0.689  0.2922  0.9649 -1.0583
  990MOL0     H33615  12.307   3.949   0.703 -1.9319 -1.2537  0.5351
  990MOL0     H33616  12.496   3.866   0.879 -2.2670  1.3592  0.6103
  990MOL0     H33617  12.544   3.948   0.738  2.3491  1.1546  0.0801
  990MOL0     H33618  12.752   3.890   0.854 -0.2850  0.9365 -1.3584
  990MOL0     H33619  12.720   4.066   0.866  0.7164 -0.5980 -2.6134
  990MOL0     H33620  12.627   3.885   1.097 -1.9965  0.8818 -1.4922
  990MOL0     H33621  12.685   4.048   1.109 -3.1668  0.2031 -1.0262
  990MOL0     H33622  12.847   3.797   1.061 -2.2226 -0.1247 -0.6900
  990MOL0     H33623  12.931   3.957   1.049 -0.5474  1.4881  0.6687
  990MOL0     H33624  12.764   3.923   1.286  0.1333 -0.5885 -2.3498
  990MOL0     H33625  12.920   4.003   1.276 -0.6912  1.3023 -0.4200
  990MOL0     H33626  12.914   3.700   1.241  1.5549 -2.1147  0.4944
  990MOL0     H33627  13.047   3.801   1.290  0.4697  1.6438  2.4563
  990MOL0     H33628  12.779   3.761   1.457 -0.0451  1.4908 -1.3570
  990MOL0     H33629  12.941   3.815   1.513 -1.0163 -0.7804  0.7539
  990MOL0     H33630  12.903   3.537   1.403  2.2641 -1.7202 -0.6003
  990MOL0     H33631  12.891   3.576   1.573  2.8119  0.0321  0.5967
  990MOL0     H33632  12.338   4.216   1.038  2.4545 -0.0782 -2.1120
  990MOL0     H33633  12.083   4.250   1.043  1.5395  2.3269 -1.2281
  990MOL0     H33634  11.690   4.307   0.949 -0.6540  1.5378 -0.3607
  990MOL0     H33635  11.461   4.337   0.953 -1.6100  0.6873 -1.2462
  990MOL0     H33636  11.000   3.528   1.111  3.2946  2.7564  0.3715
  990MOL0     H33637  10.837   3.421   0.983  0.8026 -0.3957 -1.7099
  990MOL0     H33638  10.718   3.368   0.349  1.0237 -1.6450  0.2723
  990MOL0     H33639  10.581   3.192   0.283  1.7485 -2.1293 -0.4224
  990MOL0     H33640  10.355   2.993   0.606  0.5400 -0.8699  0.2921
  990MOL0     H33641  10.274   2.915   0.472 -0.6028 -0.3203  1.0414
  990MOL0     H33642  10.400   2.761   0.569 -0.3210  1.1360 -0.4661
  990MOL0     H33643  10.551   2.847   0.568 -1.9581 -1.6325  3.1779
  990MOL0     H33644  10.381   2.750   0.323 -1.6009  2.2035  1.7193
  990MOL0     H33645  10.496   2.647   0.406 -1.0520  1.0110  0.8754
  990MOL0     H33646  10.578   2.907   0.266 -2.9086  1.5204  2.7257
  990MOL0     H33647  10.594   2.736   0.207 -0.1925 -0.0136  0.4332
  990MOL0     H33648  10.932   2.785   0.451 -0.6267 -1.3432  2.5317
  990MOL0     H33649  10.517   3.089   0.696 -4.7674  0.4705 -0.5046
  990MOL0     H33650  10.646   3.285   0.770  1.6787 -2.2482  0.0941
  991MOL0     O33651   5.543   5.365   3.542  0.4189  0.1127 -0.0283
  991MOL0     C33652   5.623   5.351   3.454 -0.1094 -1.1032  0.7828
  991MOL0     O33653   5.758   5.353   3.467 -0.4032  0.6771 -0.4437
  991MOL0     C33654   5.826   5.312   3.588  0.2146  0.0823 -0.1184
  991MOL0     C33655   5.947   5.352   3.639 -0.2578 -0.1698  0.4579
  991MOL0     C33656   6.008   5.317   3.756  0.7706 -0.2267 -1.5412
  991MOL0     C33657   5.950   5.216   3.841  0.0652  0.3611  0.3798
  991MOL0     O33658   5.994   5.174   3.963  0.6732  0.4589 -0.3485
  991MOL0     C33659   6.131   5.204   3.983 -0.7405 -0.5499  0.2631
  991MOL0     C33660   6.194   5.113   4.089 -0.1404 -1.0245 -1.0273
  991MOL0     C33661   6.350   5.078   4.081  0.2962 -0.5281  0.4686
  991MOL0     C33662   6.433   5.205   4.071  0.3933  0.6454 -0.1014
  991MOL0     C33663   6.580   5.180   4.068 -0.2343 -1.0752  0.0682
  991MOL0     C33664   6.643   5.131   4.204  0.6147  0.2655  0.9567
  991MOL0     C33665   6.791   5.152   4.198  0.1441 -0.3709  1.1731
  991MOL0     C33666   6.865   5.105   4.325 -0.1536  0.0165  0.3985
  991MOL0     N33667   7.003   5.156   4.340  0.1751  0.9626 -0.2190
  991MOL0     C33668   7.102   5.162   4.252  0.2009  0.2655 -0.0434
  991MOL0     C33669   7.198   5.247   4.307 -0.2931  0.5452  0.1248
  991MOL0     C33670   7.317   5.296   4.223  0.0505  0.1252 -0.2514
  991MOL0     C33671   7.448   5.220   4.246  0.4869 -0.1603  0.5039
  991MOL0     C33672   7.426   5.075   4.193 -0.5469 -0.1779 -0.0029
  991MOL0     C33673   7.554   4.997   4.213  0.1949 -0.4377  0.2535
  991MOL0     O33674   7.538   4.863   4.170  0.7176 -0.0428  0.2213
  991MOL0     C33675   7.545   4.826   4.040 -0.9716  0.7657  0.8309
  991MOL0     C33676   7.517   4.694   4.009  0.1996 -0.1199  1.3569
  991MOL0     C33677   7.546   4.625   3.885 -0.1142 -0.6874 -0.6409
  991MOL0     C33678   7.525   4.477   3.870 -0.4476  0.0530 -0.3668
  991MOL0     C33679   7.583   4.716   3.775 -0.0346  0.9079  0.3178
  991MOL0     C33680   7.604   4.659   3.638  0.3460  1.3189  1.3989
  991MOL0     O33681   7.579   4.744   3.534  0.2775  0.1085 -0.1862
  991MOL0     C33682   7.596   4.713   3.400  0.4946 -0.6945  0.3604
  991MOL0     C33683   7.535   4.592   3.357 -0.6424  0.9910  0.8128
  991MOL0     C33684   7.542   4.565   3.215 -0.1186 -0.2453  0.3099
  991MOL0     C33685   7.599   4.650   3.123  0.3291 -0.7371 -0.3631
  991MOL0     O33686   7.619   4.624   2.991  0.5394 -0.6833 -0.0965
  991MOL0     C33687   7.511   4.552   2.934 -0.5796 -0.1601  0.3872
  991MOL0     C33688   7.520   4.539   2.782  0.4992  0.2071 -0.5283
  991MOL0     C33689   7.502   4.677   2.711  0.2565  0.4187 -0.5348
  991MOL0     C33690   7.441   4.661   2.573 -0.6076 -0.6848 -0.0044
  991MOL0     C33691   7.515   4.575   2.472 -0.3300  0.3453  0.1192
  991MOL0     C33692   7.490   4.595   2.320 -0.7089  0.4823 -0.0408
  991MOL0     C33693   7.343   4.609   2.279 -0.8136 -0.0874  0.4320
  991MOL0     C33694   7.331   4.671   2.142 -0.6540 -0.3704 -0.7866
  991MOL0    Cl33695   7.348   4.847   2.157 -0.1886 -0.0128 -0.1132
  991MOL0     C33696   7.655   4.771   3.173  0.4719  1.0320  0.5890
  991MOL0     C33697   7.654   4.794   3.309  0.7782  0.1510  0.4990
  991MOL0     O33698   7.646   4.541   3.620 -0.3928 -0.0077 -0.0720
  991MOL0     C33699   7.587   4.853   3.796  0.0568 -0.5123 -1.1147
  991MOL0     C33700   7.591   4.910   3.930  0.4452  0.1103 -0.4829
  991MOL0     N33701   7.156   5.286   4.430 -0.3782  0.0335  1.0127
  991MOL0     N33702   7.044   5.224   4.452  0.3735  0.3289 -0.5291
  991MOL0     C33703   5.823   5.168   3.791  0.1962 -0.0099 -1.1060
  991MOL0     C33704   5.770   5.215   3.666 -0.1189  0.2634  0.4336
  991MOL0     C33705   5.572   5.352   3.318  0.8006  1.1578 -0.2242
  991MOL0     C33706   5.436   5.320   3.297 -0.7699  0.8723 -0.1283
  991MOL0     C33707   5.376   5.315   3.172  0.3035  0.1576  0.9657
  991MOL0     C33708   5.452   5.330   3.052 -0.0474 -0.8536 -0.1599
  991MOL0     O33709   5.393   5.351   2.927 -0.1028  0.1720  0.5344
  991MOL0     C33710   5.255   5.325   2.903 -0.6065 -0.8177  0.0479
  991MOL0     C33711   5.213   5.175   2.907 -0.3158 -0.1398 -0.4187
  991MOL0     C33712   5.078   5.144   2.853  0.6468  0.4353 -0.1181
  991MOL0     C33713   4.964   5.153   2.958  0.3705 -0.0623 -0.4587
  991MOL0     C33714   4.836   5.126   2.888 -0.4226 -0.1581  0.4109
  991MOL0     C33715   4.738   5.103   2.832  0.3988  0.2327  0.4029
  991MOL0     C33716   5.588   5.344   3.074 -0.5852  0.1609  0.4132
  991MOL0     C33717   5.641   5.355   3.203 -0.0991 -0.1000  0.4798
  991MOL0     H33718   5.997   5.413   3.564  0.5043  0.7617  1.6851
  991MOL0     H33719   6.109   5.356   3.766  0.5156 -0.1342  4.4332
  991MOL0     H33720   6.185   5.193   3.888 -1.5417  2.1125 -0.5951
  991MOL0     H33721   6.143   5.311   4.005  1.3669 -0.4389 -1.0952
  991MOL0     H33722   6.171   5.153   4.188  3.2055 -0.9163 -0.2046
  991MOL0     H33723   6.142   5.017   4.085  2.9592 -3.0812  2.1441
  991MOL0     H33724   6.368   5.024   4.174 -1.1039 -2.4207 -0.2873
  991MOL0     H33725   6.369   5.035   3.982 -1.9780  0.8472 -0.6451
  991MOL0     H33726   6.399   5.251   3.978 -1.2254  2.5933  1.3633
  991MOL0     H33727   6.415   5.273   4.155  0.4819  0.7370 -0.1558
  991MOL0     H33728   6.583   5.097   3.997 -0.0780 -3.5578  2.7527
  991MOL0     H33729   6.625   5.271   4.027 -0.4620 -0.6854  0.6708
  991MOL0     H33730   6.610   5.201   4.280 -0.3450  2.0110 -0.9736
  991MOL0     H33731   6.611   5.030   4.234 -0.9966 -0.6273 -3.0839
  991MOL0     H33732   6.835   5.091   4.119  2.9205  2.1729  0.5872
  991MOL0     H33733   6.803   5.259   4.181 -0.9752  0.2405  3.7339
  991MOL0     H33734   6.892   4.999   4.323  1.3391  0.2809  2.5798
  991MOL0     H33735   6.801   5.124   4.412  0.8159 -1.1161  1.4107
  991MOL0     H33736   7.114   5.110   4.158  1.4248 -1.1203  0.8293
  991MOL0     H33737   7.295   5.278   4.117  0.2411 -0.4055 -0.2005
  991MOL0     H33738   7.328   5.405   4.232 -0.4517  0.0839  1.0754
  991MOL0     H33739   7.478   5.218   4.351 -1.7184  0.1590  1.1881
  991MOL0     H33740   7.524   5.265   4.181 -0.6788 -0.6987 -1.3192
  991MOL0     H33741   7.394   5.068   4.089  2.2504  2.3960 -1.1985
  991MOL0     H33742   7.347   5.025   4.251 -1.3717  0.8781 -0.1921
  991MOL0     H33743   7.575   5.006   4.320 -2.0727 -0.1586  0.7322
  991MOL0     H33744   7.637   5.046   4.161  1.7214 -5.2540 -2.4693
  991MOL0     H33745   7.464   4.638   4.085  2.4586 -2.0359  1.6471
  991MOL0     H33746   7.499   4.431   3.967  1.7386 -2.1364 -0.7351
  991MOL0     H33747   7.444   4.465   3.797  2.1437  3.9290 -4.2915
  991MOL0     H33748   7.609   4.420   3.831  0.7400  1.3301  0.2707
  991MOL0     H33749   7.493   4.510   3.414 -0.7577  0.1568 -0.4157
  991MOL0     H33750   7.502   4.471   3.177 -0.2371 -0.0697 -0.0136
  991MOL0     H33751   7.518   4.448   2.968 -0.3175 -0.7318 -1.2942
  991MOL0     H33752   7.417   4.600   2.964 -2.4797 -2.8730 -0.8331
  991MOL0     H33753   7.609   4.485   2.751 -0.6024 -1.3621 -1.0972
  991MOL0     H33754   7.432   4.479   2.755 -0.5723  1.0251  0.9435
  991MOL0     H33755   7.598   4.730   2.703  1.8260 -1.9577  1.2275
  991MOL0     H33756   7.425   4.737   2.760 -1.4156 -0.6230 -1.8205
  991MOL0     H33757   7.336   4.633   2.583  0.0475 -3.3424  0.4468
  991MOL0     H33758   7.456   4.759   2.529  1.6640 -0.6887  0.6179
  991MOL0     H33759   7.482   4.472   2.490 -4.1230  0.5419 -3.9411
  991MOL0     H33760   7.619   4.587   2.505 -0.5324  2.3834  0.1110
  991MOL0     H33761   7.549   4.685   2.303  1.8943 -0.5284  2.7201
  991MOL0     H33762   7.533   4.506   2.272  1.4282  0.3494  1.9554
  991MOL0     H33763   7.293   4.662   2.360 -1.4096  0.8350 -0.5187
  991MOL0     H33764   7.299   4.508   2.275 -0.0879 -0.3955  0.0813
  991MOL0     H33765   7.230   4.658   2.102 -0.8226  1.5185 -1.0593
  991MOL0     H33766   7.398   4.620   2.073  1.7861  0.0684  1.1070
  991MOL0     H33767   7.699   4.839   3.102  0.0037 -0.7998 -1.5689
  991MOL0     H33768   7.712   4.881   3.339  4.8342 -1.9858 -0.3841
  991MOL0     H33769   7.609   4.930   3.722 -0.5561 -0.0715 -0.8457
  991MOL0     H33770   7.617   5.015   3.940  0.1776  0.0628  0.9264
  991MOL0     H33771   5.760   5.105   3.853 -0.8127  3.1695  1.4094
  991MOL0     H33772   5.678   5.168   3.633  0.6301 -1.9131  1.2782
  991MOL0     H33773   5.363   5.287   3.370 -2.4228 -0.6940 -2.3368
  991MOL0     H33774   5.270   5.297   3.160 -0.0822  1.4258  2.2523
  991MOL0     H33775   5.192   5.372   2.979  0.6204  0.0928  0.5342
  991MOL0     H33776   5.240   5.354   2.799  3.3599 -4.1466 -1.7423
  991MOL0     H33777   5.214   5.126   3.005 -0.6943  0.6668  0.0000
  991MOL0     H33778   5.281   5.124   2.838 -0.0393  0.1743 -0.3803
  991MOL0     H33779   5.078   5.041   2.813 -1.6607  0.3207  0.0399
  991MOL0     H33780   5.062   5.207   2.765  2.7745 -1.3785 -1.9583
  991MOL0     H33781   4.954   5.256   2.993  1.5136  0.1120 -0.5994
  991MOL0     H33782   4.982   5.090   3.046  1.4156  0.2915 -0.4043
  991MOL0     H33783   4.649   5.077   2.779 -0.6103 -0.3033  2.2761
  991MOL0     H33784   5.656   5.344   2.990  0.9196 -3.2752  1.4455
  991MOL0     H33785   5.749   5.358   3.216 -0.0126  0.4652 -0.3443
  992MOL0     O33786   5.413   8.788   7.766 -0.2798 -0.0520  0.8744
  992MOL0     C33787   5.490   8.868   7.710  0.4306 -0.0850  0.3417
  992MOL0     O33788   5.513   8.869   7.571 -0.1623 -0.4642 -0.6043
  992MOL0     C33789   5.421   8.804   7.493  0.2482  0.2153  0.8507
  992MOL0     C33790   5.474   8.733   7.383 -0.3212  0.0017 -0.3296
  992MOL0     C33791   5.399   8.666   7.290  0.7667 -0.4177  0.3800
  992MOL0     C33792   5.250   8.656   7.309 -0.3376  0.4494 -0.2611
  992MOL0     O33793   5.177   8.572   7.241 -0.5807 -0.0687 -0.4639
  992MOL0     C33794   5.050   8.615   7.190  0.0463  0.2630 -0.2629
  992MOL0     C33795   5.054   8.726   7.079 -0.0418  0.7752 -0.2294
  992MOL0     C33796   5.167   8.725   6.983  0.0606 -0.0684 -0.6067
  992MOL0     C33797   5.167   8.846   6.883  0.2559 -0.9634 -0.4761
  992MOL0     C33798   5.294   8.859   6.807  0.4483 -0.7859 -0.0207
  992MOL0     C33799   5.282   8.991   6.726 -0.1384  0.1439 -0.0733
  992MOL0     C33800   5.387   8.992   6.614 -0.5462 -0.1024  0.7035
  992MOL0     C33801   5.351   9.097   6.519 -0.4238 -0.2469 -0.5461
  992MOL0     N33802   5.442   9.110   6.405  0.6132  0.5425  0.1049
  992MOL0     C33803   5.563   9.042   6.395  0.2809  0.6146  0.5343
  992MOL0     C33804   5.614   9.078   6.275  0.5155  0.4280  0.1671
  992MOL0     C33805   5.746   9.033   6.216 -0.1272 -0.4446 -0.1227
  992MOL0     C33806   5.852   9.150   6.225  0.4351 -0.4616  0.4096
  992MOL0     C33807   5.815   9.279   6.151  0.4176 -0.3504  0.3340
  992MOL0     C33808   5.943   9.367   6.157 -0.5556  0.0734  0.1564
  992MOL0     O33809   5.891   9.501   6.145 -0.3402  0.4324  0.1973
  992MOL0     C33810   5.991   9.599   6.136  0.8562 -0.5868 -0.5740
  992MOL0     C33811   5.950   9.720   6.074  0.7545  0.2552  0.8025
  992MOL0     C33812   6.042   9.819   6.043 -0.2734 -0.1869 -1.1781
  992MOL0     C33813   5.982   9.943   5.968 -0.0608 -0.1495  0.6437
  992MOL0     C33814   6.182   9.810   6.090  0.4090  0.6359  0.3408
  992MOL0     C33815   6.284   9.919   6.081  0.3887 -0.4349  0.1902
  992MOL0     O33816   6.247  10.057   6.091 -0.0142  0.3954 -0.4615
  992MOL0     C33817   6.351  10.149   6.096  0.3162 -0.2901 -0.3084
  992MOL0     C33818   6.401  10.200   5.972 -0.0071  0.8673 -0.3955
  992MOL0     C33819   6.504  10.290   5.969 -0.1495  0.8787 -0.8198
  992MOL0     C33820   6.571  10.331   6.092 -0.5093  0.3758  0.3679
  992MOL0     O33821   6.677  10.412   6.099  0.7289  0.5017  0.3246
  992MOL0     C33822   6.708  10.484   5.978  0.8307  0.6650 -0.0356
  992MOL0     C33823   6.814  10.593   5.999  0.8850  0.8683  0.5645
  992MOL0     C33824   6.968  10.580   5.985  0.3917  0.4239 -0.4377
  992MOL0     C33825   7.033  10.713   6.024  0.6553  0.3695  0.5776
  992MOL0     C33826   7.186  10.693   6.053  0.5077 -0.2168 -0.5358
  992MOL0     C33827   7.259  10.702   5.917  0.1157 -0.5197  0.1546
  992MOL0     C33828   7.416  10.697   5.923 -0.0592 -0.2461  0.0845
  992MOL0     C33829   7.481  10.683   5.791  1.1127 -0.8522  0.9928
  992MOL0    Cl33830   7.532  10.512   5.766 -0.2683  0.5495 -0.3149
  992MOL0     C33831   6.517  10.286   6.212 -0.7405  0.5089  0.1406
  992MOL0     C33832   6.402  10.204   6.216 -0.6352  0.6456  0.5617
  992MOL0     O33833   6.404   9.883   6.064 -0.6241  0.6699 -1.0591
  992MOL0     C33834   6.209   9.690   6.155  0.4532 -0.0500 -0.8901
  992MOL0     C33835   6.120   9.591   6.176  0.2761 -0.4552  0.7588
  992MOL0     N33836   5.515   9.143   6.201  0.1559 -1.1192 -0.5919
  992MOL0     N33837   5.413   9.161   6.285 -1.4316  0.1787 -0.9437
  992MOL0     C33838   5.198   8.735   7.411 -0.1852  0.7360  0.7970
  992MOL0     C33839   5.281   8.808   7.506  0.3929  0.5228  0.5028
  992MOL0     C33840   5.571   8.975   7.786 -0.6304  1.5202 -0.1615
  992MOL0     C33841   5.640   9.072   7.713 -0.3717  0.1224 -0.2652
  992MOL0     C33842   5.731   9.161   7.781 -0.0329  0.7938  0.1801
  992MOL0     C33843   5.731   9.160   7.919  0.3987 -0.4063 -0.0157
  992MOL0     O33844   5.823   9.230   7.995  0.3701 -1.0907  0.8156
  992MOL0     C33845   5.852   9.360   7.937 -0.2254 -0.1695 -0.2714
  992MOL0     C33846   5.917   9.457   8.035  0.1384 -0.1671 -0.1292
  992MOL0     C33847   6.069   9.415   8.053  0.5738  0.2907  0.3758
  992MOL0     C33848   6.162   9.479   7.953 -0.2187 -0.6143 -0.1837
  992MOL0     C33849   6.206   9.617   7.982  0.6006  0.2418 -0.9856
  992MOL0     C33850   6.228   9.730   8.022  0.1059  0.6241 -0.4786
  992MOL0     C33851   5.655   9.067   7.992  0.7072  0.4067  0.4950
  992MOL0     C33852   5.575   8.970   7.921 -0.5883  0.8013 -0.8809
  992MOL0     H33853   5.582   8.737   7.373 -0.4158 -0.0486 -1.5565
  992MOL0     H33854   5.459   8.619   7.213  0.9687  0.2038  0.1537
  992MOL0     H33855   5.002   8.535   7.134 -0.3115  2.5253 -3.4214
  992MOL0     H33856   4.979   8.636   7.271 -0.1867  0.1121 -0.4269
  992MOL0     H33857   4.967   8.705   7.016 -0.1397 -2.6363  0.8598
  992MOL0     H33858   5.045   8.823   7.130 -1.9719 -0.5206  2.1317
  992MOL0     H33859   5.259   8.723   7.043 -0.2670 -0.1634 -0.1044
  992MOL0     H33860   5.162   8.630   6.928 -3.0451  1.0934 -2.6130
  992MOL0     H33861   5.076   8.848   6.822 -0.0984 -2.2034 -0.0122
  992MOL0     H33862   5.169   8.934   6.949 -3.8566 -3.6977  3.9510
  992MOL0     H33863   5.386   8.865   6.865  0.6252  0.4126 -0.4006
  992MOL0     H33864   5.307   8.770   6.744  0.6873 -0.1239 -0.9309
  992MOL0     H33865   5.181   9.004   6.687 -0.2067  0.5824  0.2373
  992MOL0     H33866   5.308   9.071   6.796 -1.8306 -0.1199  0.9007
  992MOL0     H33867   5.486   8.998   6.661 -1.5156  0.3323  2.8222
  992MOL0     H33868   5.373   8.905   6.548 -0.7456  3.7740 -5.0828
  992MOL0     H33869   5.362   9.196   6.565 -3.4009  0.3212 -0.8375
  992MOL0     H33870   5.246   9.077   6.494 -0.2339 -1.3233 -0.5408
  992MOL0     H33871   5.618   8.989   6.472  0.3651 -0.9451 -0.5499
  992MOL0     H33872   5.777   8.960   6.292 -1.2259 -1.4417 -0.6095
  992MOL0     H33873   5.731   8.995   6.115 -0.7014  1.6519 -0.8792
  992MOL0     H33874   5.950   9.117   6.190  1.3302  2.4293 -0.0350
  992MOL0     H33875   5.879   9.169   6.329  0.5929 -1.1333  0.5016
  992MOL0     H33876   5.742   9.331   6.212  0.7978  1.1633 -0.4660
  992MOL0     H33877   5.779   9.265   6.049  2.1607 -2.3331 -0.0872
  992MOL0     H33878   6.012   9.340   6.076  0.9214 -1.3634  1.8055
  992MOL0     H33879   5.991   9.355   6.254 -0.3186 -1.8891 -0.1585
  992MOL0     H33880   5.846   9.739   6.050  0.2814 -2.6607  0.0918
  992MOL0     H33881   5.938  10.006   6.046  3.5388 -1.0740  3.7456
  992MOL0     H33882   6.057   9.989   5.903 -0.3546  0.6379  0.8498
  992MOL0     H33883   5.903   9.918   5.897  0.4428 -2.0189  0.6940
  992MOL0     H33884   6.354  10.181   5.876  1.0984  0.3670 -0.8611
  992MOL0     H33885   6.539  10.318   5.870  1.6256  0.5738 -0.3244
  992MOL0     H33886   6.738  10.416   5.898 -0.1391  0.1748  0.0087
  992MOL0     H33887   6.622  10.545   5.947 -2.6477 -1.3801  4.5765
  992MOL0     H33888   6.791  10.677   5.932 -0.9637 -2.1946 -3.0703
  992MOL0     H33889   6.782  10.621   6.099 -4.3188 -0.0483 -0.5272
  992MOL0     H33890   7.002  10.551   5.885 -0.8656 -2.5997 -0.0949
  992MOL0     H33891   7.009  10.502   6.049  1.5981  1.3123 -0.0958
  992MOL0     H33892   7.016  10.781   5.940  1.0307 -1.7575 -1.3183
  992MOL0     H33893   6.988  10.749   6.117 -0.9779  3.6437 -1.2972
  992MOL0     H33894   7.209  10.597   6.100 -0.9327 -1.3011 -1.9537
  992MOL0     H33895   7.216  10.779   6.114  0.9895  0.6198 -1.9227
  992MOL0     H33896   7.227  10.618   5.855  0.5608  0.3997 -1.3924
  992MOL0     H33897   7.226  10.792   5.863  1.6456  1.0054  1.6511
  992MOL0     H33898   7.435  10.612   5.989 -3.7277 -0.7528  0.6662
  992MOL0     H33899   7.448  10.792   5.967 -0.3667 -0.8344  1.6416
  992MOL0     H33900   7.565  10.751   5.805  0.1023  0.4718  0.8635
  992MOL0     H33901   7.413  10.717   5.712  3.4056 -2.3039 -1.8135
  992MOL0     H33902   6.577  10.305   6.301  0.7458 -0.8845 -0.5202
  992MOL0     H33903   6.353  10.184   6.311 -1.9054 -1.4446 -0.4636
  992MOL0     H33904   6.313   9.673   6.183  0.2676 -1.8934 -1.2013
  992MOL0     H33905   6.155   9.495   6.213  0.8495  0.6017  3.1251
  992MOL0     H33906   5.093   8.731   7.439  0.0043  1.3805  1.6449
  992MOL0     H33907   5.240   8.863   7.590 -1.6788  0.8602 -0.6857
  992MOL0     H33908   5.642   9.078   7.605 -1.4103  0.3596 -0.2840
  992MOL0     H33909   5.796   9.219   7.716  0.9147 -1.1739 -0.6883
  992MOL0     H33910   5.909   9.350   7.844  0.3913 -2.6249  0.2948
  992MOL0     H33911   5.759   9.413   7.917 -0.0477  1.5615  2.7749
  992MOL0     H33912   5.876   9.450   8.136  1.1099 -0.2548  0.2728
  992MOL0     H33913   5.918   9.556   7.989  2.5686  0.2748  0.7147
  992MOL0     H33914   6.069   9.305   8.049  0.7567  0.0675  3.8038
  992MOL0     H33915   6.104   9.445   8.152 -1.0222 -0.9281  1.3680
  992MOL0     H33916   6.118   9.465   7.854 -1.6993 -2.4019  0.6491
  992MOL0     H33917   6.247   9.411   7.944 -0.5560 -0.7473 -3.3343
  992MOL0     H33918   6.245   9.826   8.065 -0.2100  0.5093 -0.0843
  992MOL0     H33919   5.649   9.069   8.100 -2.0267  0.9037  0.4179
  992MOL0     H33920   5.519   8.888   7.963  0.6400 -1.8675 -4.0305
  993MOL0     O33921   4.922   0.232  11.030  0.4870  0.2553  0.4567
  993MOL0     C33922   4.944   0.182  10.919  0.3217  0.0713 -0.1712
  993MOL0     O33923   5.048   0.096  10.900 -0.3240  0.0162  0.7530
  993MOL0     C33924   5.123   0.065  11.011 -1.1944  0.4754  0.4276
  993MOL0     C33925   5.190   0.161  11.074 -0.4748 -0.1657  0.2780
  993MOL0     C33926   5.274   0.126  11.183 -1.0964  0.8338  0.4594
  993MOL0     C33927   5.271  -0.004  11.239  0.7847 -0.6701 -1.1222
  993MOL0     O33928   5.328  -0.016  11.368  0.1689  0.7735 -0.8882
  993MOL0     C33929   5.405  -0.140  11.382 -0.7405 -0.4707 -0.3608
  993MOL0     C33930   5.413  -0.156  11.530  0.3981 -0.5197  0.8364
  993MOL0     C33931   5.538  -0.071  11.577  0.0819 -0.8629 -0.0666
  993MOL0     C33932   5.562  -0.056  11.725 -0.2824  0.1099 -0.6785
  993MOL0     C33933   5.715  -0.038  11.747 -0.6454  0.3497  0.1728
  993MOL0     C33934   5.734  -0.003  11.888  0.5418 -0.1692  0.8343
  993MOL0     C33935   5.885   0.020  11.905 -0.0123  0.0901 -0.3648
  993MOL0     C33936   5.916   0.033  12.055 -0.1264 -0.3493 -0.2770
  993MOL0     N33937   5.898  -0.095  12.125  0.4127  0.0949 -0.7920
  993MOL0     C33938   5.948  -0.218  12.084 -0.6381 -0.1922 -0.0222
  993MOL0     C33939   5.900  -0.311  12.171 -1.0467  0.7460  0.0665
  993MOL0     C33940   5.933  -0.464  12.170  0.3279 -0.7831 -0.6564
  993MOL0     C33941   5.818  -0.533  12.088 -0.1046 -0.3129  0.9233
  993MOL0     C33942   5.838  -0.683  12.070 -0.1008 -0.1606 -0.0124
  993MOL0     C33943   5.937  -0.708  11.955  0.5008 -0.3915  0.4598
  993MOL0     O33944   5.939  -0.843  11.915  0.1020 -0.3699 -0.2584
  993MOL0     C33945   5.832  -0.893  11.836 -0.4173  0.5969  0.8563
  993MOL0     C33946   5.737  -0.985  11.893  0.9588  0.5003 -0.0186
  993MOL0     C33947   5.648  -1.056  11.815 -0.4686 -0.2021 -0.2505
  993MOL0     C33948   5.584  -1.174  11.880 -0.7689  0.7309  0.5339
  993MOL0     C33949   5.620  -1.007  11.684 -0.3218  0.1860 -0.4956
  993MOL0     C33950   5.515  -1.056  11.588  0.7133  0.2188 -0.0125
  993MOL0     O33951   5.508  -0.995  11.469  0.5244  0.1615 -0.9311
  993MOL0     C33952   5.431  -1.036  11.371  0.2315  0.1996  0.3167
  993MOL0     C33953   5.363  -1.157  11.360 -0.1773  0.2190  0.1082
  993MOL0     C33954   5.296  -1.193  11.239 -0.3541 -0.2344  0.6400
  993MOL0     C33955   5.285  -1.110  11.128  1.1219  0.7942  0.2830
  993MOL0     O33956   5.219  -1.153  11.017 -0.0648 -0.1173  0.8502
  993MOL0     C33957   5.244  -1.097  10.885  0.7343  0.0460 -0.3650
  993MOL0     C33958   5.197  -1.188  10.782 -0.0626  0.5599  0.5348
  993MOL0     C33959   5.254  -1.331  10.773 -1.1718  0.7249  0.2708
  993MOL0     C33960   5.198  -1.413  10.664  0.3106  0.4798  1.0589
  993MOL0     C33961   5.287  -1.542  10.645 -0.3866 -0.1595  0.2457
  993MOL0     C33962   5.429  -1.520  10.604  0.1909  0.4714  0.0976
  993MOL0     C33963   5.496  -1.651  10.557  0.1084  0.2293  1.0002
  993MOL0     C33964   5.643  -1.616  10.522  0.7871 -0.6320  0.1554
  993MOL0    Cl33965   5.724  -1.765  10.474  0.3256 -0.1901  0.0538
  993MOL0     C33966   5.340  -0.985  11.148  0.1937 -0.8133 -1.1599
  993MOL0     C33967   5.418  -0.951  11.266 -0.5701  0.0866 -0.3588
  993MOL0     O33968   5.438  -1.137  11.634 -0.0706  0.7906 -0.1944
  993MOL0     C33969   5.718  -0.916  11.630 -0.0184  0.8664 -0.1702
  993MOL0     C33970   5.809  -0.853  11.706 -0.6591 -0.4609 -0.0595
  993MOL0     N33971   5.823  -0.247  12.266 -0.3092  0.9345  0.7967
  993MOL0     N33972   5.825  -0.123  12.240 -0.5709 -0.3993  0.3706
  993MOL0     C33973   5.204  -0.103  11.164  0.8598  0.2423  0.0974
  993MOL0     C33974   5.130  -0.068  11.048  0.3693  0.2516  0.6222
  993MOL0     C33975   4.843   0.220  10.818 -0.2560  0.4973 -0.2092
  993MOL0     C33976   4.886   0.272  10.697  0.7792 -1.7137  1.3323
  993MOL0     C33977   4.785   0.321  10.606  0.2932  0.1791 -0.4040
  993MOL0     C33978   4.651   0.301  10.627  0.1658  0.4946 -0.1896
  993MOL0     O33979   4.559   0.356  10.534 -0.5014  0.2699  0.6840
  993MOL0     C33980   4.423   0.321  10.521  0.5070 -0.1379 -0.1681
  993MOL0     C33981   4.334   0.406  10.615  0.1680  0.3215 -0.9783
  993MOL0     C33982   4.312   0.551  10.560 -0.0645  0.5427  0.0952
  993MOL0     C33983   4.244   0.633  10.667  0.6846  0.1428 -1.1735
  993MOL0     C33984   4.205   0.765  10.627 -0.5865 -0.6338 -0.6509
  993MOL0     C33985   4.196   0.888  10.606  0.4924 -0.3438 -0.1082
  993MOL0     C33986   4.612   0.226  10.734  0.6548  0.4861 -0.3687
  993MOL0     C33987   4.711   0.188  10.837 -0.1258  0.3739 -0.8613
  993MOL0     H33988   5.179   0.266  11.051  0.5584 -0.0787  0.1170
  993MOL0     H33989   5.328   0.196  11.246 -3.1099  1.9345  1.0520
  993MOL0     H33990   5.345  -0.227  11.352  2.2556 -2.3098 -1.4151
  993MOL0     H33991   5.504  -0.140  11.336  0.0211 -1.1376  1.1891
  993MOL0     H33992   5.314  -0.131  11.568  0.7886  0.8385  1.0008
  993MOL0     H33993   5.435  -0.261  11.553 -0.3463 -0.5916  1.2411
  993MOL0     H33994   5.626  -0.127  11.543  0.8910  0.9413 -1.0679
  993MOL0     H33995   5.542   0.028  11.530  0.7908 -0.4741  0.8031
  993MOL0     H33996   5.510   0.032  11.762  0.8709  0.3076  0.5458
  993MOL0     H33997   5.534  -0.149  11.776  0.0498  0.8337  0.8629
  993MOL0     H33998   5.762  -0.137  11.737 -1.2909 -0.1887  1.9375
  993MOL0     H33999   5.764   0.023  11.671  0.6161 -0.1924  0.5266
  993MOL0     H34000   5.691   0.097  11.904  2.8537  1.1434 -0.5033
  993MOL0     H34001   5.707  -0.084  11.957  2.0197 -0.2853  1.3172
  993MOL0     H34002   5.945  -0.050  11.846  0.7326 -0.4554  1.0023
  993MOL0     H34003   5.904   0.117  11.858  1.4918  1.9062  3.5415
  993MOL0     H34004   5.849   0.109  12.097 -1.4367 -2.2515  1.2498
  993MOL0     H34005   6.021   0.063  12.058  0.5859 -2.0331 -3.4314
  993MOL0     H34006   6.015  -0.226  11.999  0.7350  3.3260  0.5711
  993MOL0     H34007   6.034  -0.484  12.135  0.9782 -1.8763  1.6508
  993MOL0     H34008   5.950  -0.498  12.272  1.4420  2.1199  0.2483
  993MOL0     H34009   5.814  -0.476  11.995 -0.8532  3.3366  3.0187
  993MOL0     H34010   5.721  -0.533  12.137 -1.2296 -1.0493 -1.1852
  993MOL0     H34011   5.743  -0.733  12.050 -0.5973  1.1314 -1.0632
  993MOL0     H34012   5.874  -0.716  12.168 -0.3704 -0.8542 -0.1466
  993MOL0     H34013   6.032  -0.663  11.984  1.2218 -0.5353 -1.5070
  993MOL0     H34014   5.897  -0.652  11.869 -3.0306 -1.3821  1.2849
  993MOL0     H34015   5.766  -1.006  11.995  1.4719 -2.4492 -0.6984
  993MOL0     H34016   5.476  -1.165  11.893 -0.6270  0.3697  2.3413
  993MOL0     H34017   5.597  -1.262  11.817 -4.1048 -0.3705  1.2086
  993MOL0     H34018   5.641  -1.194  11.971 -1.9878 -0.6433  1.0290
  993MOL0     H34019   5.373  -1.239  11.431  0.6831  1.2101  1.1574
  993MOL0     H34020   5.253  -1.293  11.235  1.0304 -0.9327 -5.1456
  993MOL0     H34021   5.202  -0.996  10.876 -1.2693 -0.6625  0.5480
  993MOL0     H34022   5.352  -1.076  10.878  0.0654  3.7366 -2.3148
  993MOL0     H34023   5.088  -1.192  10.783 -0.3481  3.8737 -1.5363
  993MOL0     H34024   5.231  -1.125  10.699  1.7238  0.7675  1.3750
  993MOL0     H34025   5.243  -1.391  10.864  0.3350 -0.9555 -0.6018
  993MOL0     H34026   5.360  -1.312  10.759 -1.5514  2.7798 -0.2134
  993MOL0     H34027   5.096  -1.446  10.686 -0.0304 -1.4491 -2.5497
  993MOL0     H34028   5.198  -1.366  10.564  2.6606 -2.7639 -0.6378
  993MOL0     H34029   5.240  -1.600  10.566  0.3718 -0.5775  0.0946
  993MOL0     H34030   5.291  -1.611  10.730  0.5106 -3.4359 -2.2450
  993MOL0     H34031   5.441  -1.441  10.530  2.6018  3.2382  3.0691
  993MOL0     H34032   5.465  -1.491  10.704 -0.6854 -0.1930  0.6200
  993MOL0     H34033   5.439  -1.709  10.484 -0.9856  2.1047  0.3207
  993MOL0     H34034   5.496  -1.717  10.645 -2.3338 -0.8059  0.3207
  993MOL0     H34035   5.700  -1.580  10.607  1.6422 -1.7034  0.0566
  993MOL0     H34036   5.626  -1.543  10.442  0.8173 -0.6652  0.1197
  993MOL0     H34037   5.336  -0.912  11.068  0.5177  0.6200  0.0897
  993MOL0     H34038   5.472  -0.857  11.265 -0.5054  0.1425 -3.7588
  993MOL0     H34039   5.707  -0.875  11.530  5.2536  1.5020 -0.7676
  993MOL0     H34040   5.871  -0.773  11.669 -0.8151  1.7558  3.9277
  993MOL0     H34041   5.192  -0.205  11.197  0.6534 -0.2610 -1.4171
  993MOL0     H34042   5.068  -0.140  10.995 -0.9670  2.4777 -1.0023
  993MOL0     H34043   4.990   0.297  10.676  0.0289  0.4348 -0.2515
  993MOL0     H34044   4.805   0.385  10.521 -0.1201  2.4601  1.1103
  993MOL0     H34045   4.393   0.359  10.423  1.7660  1.8102  0.1384
  993MOL0     H34046   4.408   0.214  10.536 -1.0115  0.1289  0.4898
  993MOL0     H34047   4.376   0.406  10.716  0.8738 -0.9053 -1.2573
  993MOL0     H34048   4.241   0.350  10.622 -0.4027  1.3295 -0.3354
  993MOL0     H34049   4.244   0.542  10.475 -1.2700  3.0338  0.7112
  993MOL0     H34050   4.405   0.598  10.526  2.4891 -3.3132  1.1105
  993MOL0     H34051   4.306   0.648  10.756 -1.7414 -1.6772  1.0082
  993MOL0     H34052   4.156   0.579  10.705  0.1071  1.4963 -0.5168
  993MOL0     H34053   4.181   0.993  10.592 -1.0735 -0.3741  1.0591
  993MOL0     H34054   4.507   0.220  10.760  1.0231 -0.3087  1.0756
  993MOL0     H34055   4.676   0.157  10.935 -1.0895  3.9850  0.0936
  994MOL0     O34056   4.546   4.363   1.270  0.2937  1.4500 -1.1066
  994MOL0     C34057   4.656   4.311   1.304  0.6819  0.7174  0.2585
  994MOL0     O34058   4.728   4.332   1.423  0.8237 -0.8689  0.4093
  994MOL0     C34059   4.695   4.432   1.508  0.0897 -0.1735  0.1200
  994MOL0     C34060   4.805   4.458   1.591  0.6545 -0.8357  0.6662
  994MOL0     C34061   4.801   4.567   1.673 -0.5191  0.6303 -0.3306
  994MOL0     C34062   4.684   4.628   1.694 -0.7228  0.3277 -1.0458
  994MOL0     O34063   4.683   4.719   1.794 -0.4339 -0.1350  0.2918
  994MOL0     C34064   4.561   4.763   1.844  0.2306 -0.4495 -0.8116
  994MOL0     C34065   4.584   4.871   1.955 -0.3516 -0.3882 -0.1602
  994MOL0     C34066   4.454   4.922   2.027  0.6215 -0.3292  0.1913
  994MOL0     C34067   4.485   5.011   2.135 -0.5964 -0.9918 -0.3092
  994MOL0     C34068   4.367   5.071   2.201 -0.4632  1.1629  0.6955
  994MOL0     C34069   4.392   5.201   2.265 -0.2983  0.3844 -0.3873
  994MOL0     C34070   4.274   5.260   2.338  1.1571 -0.5568 -0.2140
  994MOL0     C34071   4.315   5.400   2.405  0.9118 -0.3847 -0.7383
  994MOL0     N34072   4.202   5.475   2.453  0.4643 -0.0190 -0.0645
  994MOL0     C34073   4.155   5.471   2.587 -0.8422  0.1712  1.2735
  994MOL0     C34074   4.068   5.576   2.590 -2.3621 -0.6369 -0.9183
  994MOL0     C34075   3.998   5.621   2.711 -0.1300  0.4883 -0.1382
  994MOL0     C34076   3.850   5.578   2.693 -0.2880 -1.3376  0.0299
  994MOL0     C34077   3.836   5.426   2.658  0.3839  0.4963 -0.5944
  994MOL0     C34078   3.837   5.339   2.785 -0.1808  0.4434 -0.7870
  994MOL0     O34079   3.962   5.338   2.854 -0.5130  0.7406 -0.5783
  994MOL0     C34080   3.979   5.325   2.991  0.0207 -0.2240  0.1766
  994MOL0     C34081   3.881   5.275   3.070 -0.2458 -0.4810 -0.0596
  994MOL0     C34082   3.898   5.247   3.204 -1.0897 -0.7492  0.2881
  994MOL0     C34083   3.779   5.208   3.285  0.5557  0.8222 -0.2058
  994MOL0     C34084   4.020   5.275   3.269 -0.0667  0.2040 -0.4865
  994MOL0     C34085   4.055   5.253   3.413 -0.7890 -0.1742 -0.2948
  994MOL0     O34086   4.199   5.267   3.438  0.3439 -1.2195 -0.0219
  994MOL0     C34087   4.257   5.279   3.564  0.1314  0.4361 -0.5251
  994MOL0     C34088   4.393   5.291   3.566  0.0143  0.5983  0.9280
  994MOL0     C34089   4.461   5.323   3.683 -0.7355 -0.5191 -0.7893
  994MOL0     C34090   4.392   5.321   3.806  0.6666 -0.8086 -0.2053
  994MOL0     O34091   4.444   5.380   3.922 -0.3873  0.4276  0.2818
  994MOL0     C34092   4.412   5.322   4.049  0.4746  0.3448  0.7210
  994MOL0     C34093   4.336   5.424   4.137  0.0695 -0.2227 -0.4043
  994MOL0     C34094   4.293   5.371   4.281 -0.7822  0.3913  0.8114
  994MOL0     C34095   4.299   5.491   4.398  0.6299  0.0116  0.1298
  994MOL0     C34096   4.204   5.477   4.520 -0.3456  0.0243  0.3451
  994MOL0     C34097   4.198   5.342   4.578  0.1521 -0.0530 -0.4857
  994MOL0     C34098   4.110   5.330   4.693  0.0821  0.4067 -0.8271
  994MOL0     C34099   4.164   5.212   4.785  1.1990  0.0439  0.6149
  994MOL0    Cl34100   4.028   5.153   4.900 -0.3490  0.0116 -0.0648
  994MOL0     C34101   4.251   5.300   3.803  1.3412  0.0165  0.3380
  994MOL0     C34102   4.186   5.287   3.687  0.1865 -0.4176 -0.3369
  994MOL0     O34103   3.965   5.241   3.501 -0.4999  0.5111 -0.5218
  994MOL0     C34104   4.124   5.333   3.191  0.4226  0.0102 -0.6026
  994MOL0     C34105   4.105   5.358   3.050  0.0374 -0.0776 -0.4523
  994MOL0     N34106   4.053   5.637   2.471 -0.9326  0.4932  0.2921
  994MOL0     N34107   4.129   5.570   2.386  0.1475  1.1398  0.4098
  994MOL0     C34108   4.569   4.596   1.622 -0.2059 -0.1921  0.2018
  994MOL0     C34109   4.570   4.498   1.526  1.0414  0.4264  0.4020
  994MOL0     C34110   4.702   4.203   1.221  0.2716 -0.3907  0.1612
  994MOL0     C34111   4.637   4.186   1.098 -0.1703  0.3374  0.6843
  994MOL0     C34112   4.700   4.096   1.001 -0.6990 -0.4119 -0.5059
  994MOL0     C34113   4.807   4.015   1.031 -0.3818 -1.0714  0.4350
  994MOL0     O34114   4.874   3.932   0.946  0.3407  0.1796 -0.6472
  994MOL0     C34115   4.797   3.854   0.854 -1.0707  0.3842  0.4132
  994MOL0     C34116   4.735   3.738   0.923  0.9989  0.4301 -0.3321
  994MOL0     C34117   4.827   3.653   1.014  0.5411 -0.9477 -1.1816
  994MOL0     C34118   4.912   3.549   0.939 -0.1758 -0.0516 -0.0085
  994MOL0     C34119   4.828   3.447   0.876 -0.2558  0.3854  0.5978
  994MOL0     C34120   4.759   3.360   0.820  0.9142 -0.3516  0.5513
  994MOL0     C34121   4.869   4.040   1.152  0.4997 -1.0587  0.9177
  994MOL0     C34122   4.814   4.126   1.245  0.8274  0.5290 -0.2682
  994MOL0     H34123   4.904   4.415   1.574 -0.8770 -3.8755 -1.5634
  994MOL0     H34124   4.897   4.608   1.702  0.9624 -1.4283 -2.0115
  994MOL0     H34125   4.494   4.807   1.769  1.9515  0.6402 -1.7650
  994MOL0     H34126   4.520   4.671   1.887  1.2397 -0.4055  0.3192
  994MOL0     H34127   4.658   4.834   2.027  1.7835 -0.6050 -2.3583
  994MOL0     H34128   4.627   4.963   1.914  0.4773 -1.2614 -1.3193
  994MOL0     H34129   4.398   4.973   1.948  0.4173 -0.1594  0.4467
  994MOL0     H34130   4.378   4.848   2.055  0.1026  0.4587  0.8967
  994MOL0     H34131   4.545   4.964   2.213  1.4500  0.5180 -0.8717
  994MOL0     H34132   4.537   5.102   2.103 -0.9587  0.9285  3.9391
  994MOL0     H34133   4.284   5.085   2.131 -1.6596 -0.7426  1.6587
  994MOL0     H34134   4.335   4.997   2.274  2.0115  1.5110  2.2584
  994MOL0     H34135   4.477   5.184   2.332 -0.8224  0.9494  0.4376
  994MOL0     H34136   4.433   5.266   2.187 -1.6881  0.5484 -1.0067
  994MOL0     H34137   4.206   5.292   2.258  2.5144 -0.1799 -1.2544
  994MOL0     H34138   4.224   5.186   2.400 -0.5504 -0.6310 -1.5993
  994MOL0     H34139   4.364   5.466   2.333  1.7898  0.4598  0.5674
  994MOL0     H34140   4.384   5.393   2.490  2.5556  1.8025 -1.7894
  994MOL0     H34141   4.175   5.392   2.658  0.4824 -0.4616  0.2343
  994MOL0     H34142   4.050   5.578   2.797  0.8148 -0.3462 -1.0925
  994MOL0     H34143   3.991   5.730   2.716 -0.9897  0.5832 -2.2822
  994MOL0     H34144   3.800   5.641   2.619 -0.3989 -2.1710 -0.6141
  994MOL0     H34145   3.808   5.600   2.792  0.2082  0.7746 -0.1783
  994MOL0     H34146   3.910   5.374   2.596 -0.1910  1.0693 -1.7983
  994MOL0     H34147   3.744   5.427   2.598  0.4762 -0.9247 -0.8036
  994MOL0     H34148   3.813   5.237   2.754  1.6491  0.3701 -2.1244
  994MOL0     H34149   3.756   5.377   2.848  1.4188  0.3494  1.4166
  994MOL0     H34150   3.786   5.246   3.025  1.3620 -3.4948 -1.8684
  994MOL0     H34151   3.796   5.118   3.346 -1.6146  1.0408  0.8139
  994MOL0     H34152   3.756   5.292   3.351 -1.7009  2.0682 -2.4402
  994MOL0     H34153   3.694   5.197   3.217  2.4416 -0.4689 -2.5403
  994MOL0     H34154   4.452   5.290   3.475  1.1920 -6.3582  1.2662
  994MOL0     H34155   4.557   5.373   3.687 -0.8393 -0.4041  0.6536
  994MOL0     H34156   4.360   5.226   4.043  2.1258 -0.4837 -1.3573
  994MOL0     H34157   4.506   5.291   4.094  0.3938 -0.4678  0.3446
  994MOL0     H34158   4.404   5.509   4.148 -2.0445  1.4022  0.7622
  994MOL0     H34159   4.241   5.458   4.095  0.5857  3.4648  1.0746
  994MOL0     H34160   4.371   5.295   4.296 -0.2652  0.5531 -0.8769
  994MOL0     H34161   4.198   5.316   4.281 -0.5122 -0.1864 -1.4073
  994MOL0     H34162   4.405   5.485   4.425  0.9792 -6.1442 -1.0684
  994MOL0     H34163   4.288   5.589   4.350  0.1517  1.3202  2.7067
  994MOL0     H34164   4.104   5.518   4.504  1.2325  5.4144  2.2094
  994MOL0     H34165   4.242   5.546   4.596 -1.4238  0.6462  0.3319
  994MOL0     H34166   4.186   5.260   4.506  0.4403 -0.6049  0.0869
  994MOL0     H34167   4.300   5.318   4.610 -1.2037 -2.9622  2.2144
  994MOL0     H34168   4.016   5.300   4.645  0.3482  1.6229 -2.1759
  994MOL0     H34169   4.116   5.421   4.753  2.5952 -0.8546  1.0174
  994MOL0     H34170   4.251   5.240   4.844  1.9114 -1.6220  0.4002
  994MOL0     H34171   4.202   5.133   4.719  1.2640  0.6329 -0.0607
  994MOL0     H34172   4.193   5.309   3.894  2.5136 -3.3544  1.5971
  994MOL0     H34173   4.079   5.286   3.704  0.1315  3.5145  0.4968
  994MOL0     H34174   4.222   5.353   3.233 -0.4553  1.5449  0.8263
  994MOL0     H34175   4.183   5.413   2.998  0.2991  0.2562  0.2862
  994MOL0     H34176   4.475   4.649   1.616  0.3758  0.7631 -0.6213
  994MOL0     H34177   4.476   4.468   1.482  1.5211 -0.8619  0.2298
  994MOL0     H34178   4.559   4.251   1.062 -1.9113 -2.2497 -0.4809
  994MOL0     H34179   4.669   4.089   0.897  1.6040 -0.7618 -1.2172
  994MOL0     H34180   4.719   3.911   0.802 -1.1147  1.1275  1.2726
  994MOL0     H34181   4.862   3.817   0.775 -2.9269 -1.1934 -0.4631
  994MOL0     H34182   4.690   3.665   0.854 -0.2270 -1.1434  2.0093
  994MOL0     H34183   4.655   3.776   0.987  0.3819  2.2802 -2.0962
  994MOL0     H34184   4.756   3.595   1.076 -1.8234  1.6242 -1.3028
  994MOL0     H34185   4.897   3.708   1.078  1.2156 -2.0824 -0.9108
  994MOL0     H34186   4.976   3.495   1.010  1.3547 -0.4609 -1.6296
  994MOL0     H34187   4.980   3.599   0.869  3.0970  0.6916  3.3531
  994MOL0     H34188   4.711   3.290   0.754 -1.5938  1.8390 -0.1640
  994MOL0     H34189   4.964   3.989   1.168  1.2158 -0.8045 -2.0448
  994MOL0     H34190   4.858   4.126   1.345  2.2157 -0.5075 -0.8525
  995MOL0     O34191   2.778   7.726   8.877 -0.1706  0.2113 -0.6963
  995MOL0     C34192   2.759   7.731   9.003  0.6961 -0.6981  0.4273
  995MOL0     O34193   2.729   7.842   9.082 -0.2104  0.8349  0.0512
  995MOL0     C34194   2.719   7.967   9.027 -0.5827  0.1452  0.3609
  995MOL0     C34195   2.609   8.047   9.066 -0.3246  0.2750 -0.0397
  995MOL0     C34196   2.608   8.184   9.025  0.6848  0.1630  0.5541
  995MOL0     C34197   2.707   8.229   8.933  1.0919 -0.4889 -0.4752
  995MOL0     O34198   2.713   8.363   8.898 -0.4688  0.2826 -0.0588
  995MOL0     C34199   2.653   8.462   8.973  1.0601 -1.1625 -0.7036
  995MOL0     C34200   2.691   8.594   8.903  0.6086  0.6586  0.2554
  995MOL0     C34201   2.640   8.720   8.966 -1.4315 -0.6359  0.7601
  995MOL0     C34202   2.661   8.720   9.112  0.4743  0.1194  0.3275
  995MOL0     C34203   2.658   8.860   9.184  1.0178  0.1606  0.8484
  995MOL0     C34204   2.725   8.851   9.324  0.8334  0.1056  0.2755
  995MOL0     C34205   2.692   8.982   9.396 -0.4856  0.2520  0.0568
  995MOL0     C34206   2.743   8.969   9.536 -0.0427 -0.0817 -0.5636
  995MOL0     N34207   2.699   9.075   9.629 -0.4157  0.2071 -0.2690
  995MOL0     C34208   2.640   9.192   9.600  0.0412 -0.4608  0.9073
  995MOL0     C34209   2.625   9.244   9.717 -0.8252  0.8507  0.1170
  995MOL0     C34210   2.550   9.366   9.738 -0.2465  0.1520  0.1779
  995MOL0     C34211   2.411   9.347   9.783 -0.0462 -1.3662 -0.3676
  995MOL0     C34212   2.333   9.240   9.699 -0.9812 -0.7831 -0.2203
  995MOL0     C34213   2.192   9.280   9.679  0.2992  0.8203 -0.0792
  995MOL0     O34214   2.178   9.403   9.614  0.6425  0.1792  0.0055
  995MOL0     C34215   2.237   9.417   9.490 -0.4459  0.3892  0.1674
  995MOL0     C34216   2.317   9.527   9.454  0.7163 -0.2520 -0.0405
  995MOL0     C34217   2.389   9.544   9.334  0.3106  0.3144 -1.1938
  995MOL0     C34218   2.496   9.651   9.336 -0.2847  0.1357  0.5339
  995MOL0     C34219   2.385   9.434   9.243  0.0440  0.3174  0.0647
  995MOL0     C34220   2.474   9.422   9.126  1.2004 -0.0050 -0.2179
  995MOL0     O34221   2.408   9.359   9.013  0.8950  0.2094  0.0107
  995MOL0     C34222   2.479   9.322   8.905 -0.4958  0.5427  1.3580
  995MOL0     C34223   2.598   9.245   8.925 -0.2437 -0.1477  0.0290
  995MOL0     C34224   2.671   9.209   8.812  0.3673  0.6637  0.5496
  995MOL0     C34225   2.627   9.227   8.681  0.0113  0.7704  0.2973
  995MOL0     O34226   2.716   9.199   8.581 -0.6245  0.0577  0.2747
  995MOL0     C34227   2.670   9.191   8.445  0.1060 -0.4031  0.8966
  995MOL0     C34228   2.609   9.059   8.411  0.2559  0.6440  0.0054
  995MOL0     C34229   2.715   8.945   8.437  0.3858  0.2227 -0.6721
  995MOL0     C34230   2.629   8.817   8.450 -0.0765  0.4808 -0.2548
  995MOL0     C34231   2.732   8.692   8.465 -0.2679 -0.1653  0.2150
  995MOL0     C34232   2.644   8.575   8.489 -0.3265  0.1368  0.0847
  995MOL0     C34233   2.721   8.450   8.517  0.7037 -0.3052 -0.2997
  995MOL0     C34234   2.624   8.324   8.551  0.0198 -0.3406  0.1969
  995MOL0    Cl34235   2.733   8.182   8.576  0.5564  0.0071  0.5456
  995MOL0     C34236   2.501   9.291   8.665  0.2447 -0.0165  0.4679
  995MOL0     C34237   2.429   9.347   8.769 -0.4611 -0.2270  0.3102
  995MOL0     O34238   2.580   9.476   9.131 -0.2372  0.0611  0.0399
  995MOL0     C34239   2.299   9.331   9.271 -0.2802  0.3944 -1.0770
  995MOL0     C34240   2.225   9.323   9.390 -0.6887  0.2714  0.0974
  995MOL0     N34241   2.685   9.169   9.812 -1.1838 -0.1337  0.1815
  995MOL0     N34242   2.732   9.068   9.753 -0.2171  0.3750 -0.2565
  995MOL0     C34243   2.813   8.139   8.893 -0.0537 -0.7747 -0.5911
  995MOL0     C34244   2.814   8.010   8.933  0.6895  0.7272  0.4511
  995MOL0     C34245   2.777   7.609   9.087  0.3831 -0.2671 -0.5671
  995MOL0     C34246   2.776   7.614   9.227 -0.5695  0.1966  0.0825
  995MOL0     C34247   2.821   7.517   9.311 -0.7382  0.1620  0.1573
  995MOL0     C34248   2.852   7.393   9.259 -1.3320 -1.3375  1.0748
  995MOL0     O34249   2.886   7.288   9.345 -0.6389 -0.4466  0.3356
  995MOL0     C34250   2.935   7.161   9.313 -1.0466  0.1110 -0.7121
  995MOL0     C34251   2.823   7.076   9.239  1.3759  0.9514  0.3843
  995MOL0     C34252   2.711   7.052   9.341  0.1426  0.4341  1.0766
  995MOL0     C34253   2.582   7.017   9.261 -0.4788  0.0125  0.1747
  995MOL0     C34254   2.576   6.881   9.207  0.0936  1.1311 -0.6133
  995MOL0     C34255   2.595   6.771   9.157  0.6570 -0.5879 -0.5860
  995MOL0     C34256   2.865   7.383   9.117 -0.0271  0.2217  0.1081
  995MOL0     C34257   2.818   7.486   9.030 -0.0411 -0.0489  0.1530
  995MOL0     H34258   2.543   7.997   9.137  0.4585 -0.7433 -0.0153
  995MOL0     H34259   2.526   8.244   9.062 -1.2797 -1.3798 -1.1097
  995MOL0     H34260   2.544   8.456   8.965  1.0371 -0.8278 -0.6409
  995MOL0     H34261   2.696   8.457   9.073  1.2771 -1.7268 -0.8206
  995MOL0     H34262   2.799   8.601   8.890  0.2716  2.4646 -2.3394
  995MOL0     H34263   2.636   8.586   8.809 -1.7838  1.7618  1.4635
  995MOL0     H34264   2.707   8.791   8.915  0.1443 -2.8753 -0.4774
  995MOL0     H34265   2.534   8.741   8.952 -1.3673  1.9359  3.1960
  995MOL0     H34266   2.601   8.646   9.165  4.8222 -4.2463 -0.2002
  995MOL0     H34267   2.764   8.692   9.131  0.4151 -0.5444 -0.2845
  995MOL0     H34268   2.708   8.932   9.120 -0.5688  0.0795 -0.5717
  995MOL0     H34269   2.562   8.913   9.193  2.5647  3.7327 -1.4244
  995MOL0     H34270   2.697   8.762   9.381 -0.8890  0.1220 -0.4523
  995MOL0     H34271   2.833   8.842   9.312  0.6709 -0.5116 -0.9318
  995MOL0     H34272   2.742   9.063   9.342  0.4305  0.8734  1.7354
  995MOL0     H34273   2.585   9.001   9.396 -0.2662  1.6592  1.0664
  995MOL0     H34274   2.852   8.980   9.541 -0.1684  0.8032  1.8122
  995MOL0     H34275   2.722   8.868   9.575 -4.2257  1.4617  1.7750
  995MOL0     H34276   2.592   9.222   9.507 -2.5470  1.0194  2.5759
  995MOL0     H34277   2.582   9.424   9.825 -1.4927  0.5737  0.3791
  995MOL0     H34278   2.550   9.435   9.653 -0.4002 -0.2473 -0.1495
  995MOL0     H34279   2.363   9.445   9.788  1.4905 -0.6290  0.8362
  995MOL0     H34280   2.422   9.318   9.888 -5.3745  0.2633  0.9848
  995MOL0     H34281   2.349   9.143   9.749  1.6743 -0.8838 -1.0962
  995MOL0     H34282   2.365   9.225   9.595  3.2494 -0.4505  0.8422
  995MOL0     H34283   2.145   9.262   9.777  0.5272  1.7178  0.2043
  995MOL0     H34284   2.145   9.199   9.622 -1.3456  2.6740 -1.5230
  995MOL0     H34285   2.332   9.603   9.530 -1.6754  0.7776 -0.4736
  995MOL0     H34286   2.519   9.669   9.230  1.4076 -3.9598  0.0394
  995MOL0     H34287   2.473   9.741   9.394  1.4431  1.3948 -0.6285
  995MOL0     H34288   2.590   9.639   9.389 -0.3256  0.9351  0.8072
  995MOL0     H34289   2.651   9.241   9.019  1.3365  3.1316 -0.5984
  995MOL0     H34290   2.764   9.159   8.836  0.1113 -0.3477 -0.4717
  995MOL0     H34291   2.600   9.271   8.422 -0.3930 -1.2256 -0.6075
  995MOL0     H34292   2.752   9.200   8.373 -0.1642 -1.6554  0.3981
  995MOL0     H34293   2.518   9.042   8.470 -0.7987 -1.2568 -1.9850
  995MOL0     H34294   2.578   9.065   8.306 -0.1024 -0.4423  0.0367
  995MOL0     H34295   2.772   8.964   8.528  3.5716 -2.3066 -1.9319
  995MOL0     H34296   2.788   8.947   8.356  1.7600  0.1367  0.5352
  995MOL0     H34297   2.564   8.827   8.538 -1.3154  2.1212 -1.3184
  995MOL0     H34298   2.563   8.800   8.365 -1.0908 -0.8391  0.7383
  995MOL0     H34299   2.795   8.716   8.551 -1.2776 -1.2722  1.3232
  995MOL0     H34300   2.791   8.678   8.375 -1.5188 -4.3946 -0.1896
  995MOL0     H34301   2.579   8.611   8.569 -0.8325  1.5781 -0.9450
  995MOL0     H34302   2.586   8.538   8.404  4.3362 -6.1442 -1.0928
  995MOL0     H34303   2.769   8.485   8.609  0.7303 -0.8027 -0.1204
  995MOL0     H34304   2.794   8.434   8.437 -0.9763 -3.1773 -1.4432
  995MOL0     H34305   2.555   8.312   8.467  1.1186  1.0577 -0.9439
  995MOL0     H34306   2.571   8.356   8.641 -2.7554  1.5420 -1.9283
  995MOL0     H34307   2.459   9.299   8.566  1.5723  1.4430 -0.0230
  995MOL0     H34308   2.337   9.404   8.765  0.8101  1.8298 -0.9877
  995MOL0     H34309   2.301   9.244   9.206 -1.7465  0.8543 -1.7754
  995MOL0     H34310   2.165   9.233   9.396  0.7956 -0.7057  0.9791
  995MOL0     H34311   2.886   8.172   8.819 -0.0538 -0.9906 -0.6857
  995MOL0     H34312   2.891   7.941   8.900  1.0604  1.0256  0.6815
  995MOL0     H34313   2.744   7.714   9.254  0.2129  1.2521 -2.6452
  995MOL0     H34314   2.816   7.510   9.419 -0.5003  0.1346  0.1671
  995MOL0     H34315   3.030   7.161   9.259  1.0905 -2.5973  2.5584
  995MOL0     H34316   2.968   7.105   9.402  2.0721 -0.0596 -1.8825
  995MOL0     H34317   2.866   6.977   9.223 -2.6398 -1.6171  3.3776
  995MOL0     H34318   2.797   7.105   9.137 -2.7607 -2.0094  0.3544
  995MOL0     H34319   2.691   7.134   9.410 -2.2844  0.6316  0.2128
  995MOL0     H34320   2.740   6.973   9.411 -1.2889  0.4968  1.7674
  995MOL0     H34321   2.570   7.083   9.174  4.3039 -0.5370 -1.2097
  995MOL0     H34322   2.497   7.019   9.330 -1.8312  1.0743 -1.4382
  995MOL0     H34323   2.618   6.672   9.121 -2.3430 -1.2983 -0.8725
  995MOL0     H34324   2.904   7.295   9.068  1.4939  0.7868  0.2466
  995MOL0     H34325   2.816   7.469   8.923  2.5760  1.9360 -0.3196
  996MOL0     O34326   9.427  10.568   4.109  0.4086 -0.1857  0.5090
  996MOL0     C34327   9.300  10.572   4.116 -0.7129  1.2142 -0.0352
  996MOL0     O34328   9.212  10.643   4.038 -0.1276  0.7935  0.7149
  996MOL0     C34329   9.256  10.703   3.918 -0.3121 -0.3301 -0.8307
  996MOL0     C34330   9.359  10.669   3.836 -0.1692  0.9396  0.8911
  996MOL0     C34331   9.383  10.738   3.711 -0.4911  0.6637 -0.1982
  996MOL0     C34332   9.302  10.843   3.673 -0.0825 -0.5065 -1.3226
  996MOL0     O34333   9.322  10.920   3.560  0.0219  0.0759  0.3589
  996MOL0     C34334   9.428  10.892   3.470 -0.0542  0.2254  0.3588
  996MOL0     C34335   9.431  11.026   3.384 -0.0375  0.3674 -0.0228
  996MOL0     C34336   9.319  11.032   3.279  0.0118 -0.6233  0.6081
  996MOL0     C34337   9.349  10.948   3.158 -0.2058  0.4324 -0.6935
  996MOL0     C34338   9.369  11.018   3.029  0.5971 -0.6356  0.0209
  996MOL0     C34339   9.424  10.928   2.909  0.6467 -1.8432 -0.3040
  996MOL0     C34340   9.302  10.847   2.860 -0.9273 -0.4106  0.5345
  996MOL0     C34341   9.346  10.706   2.820  0.6187 -0.2910  0.8870
  996MOL0     N34342   9.373  10.623   2.940  0.7704  0.2516  0.2313
  996MOL0     C34343   9.260  10.599   3.021  0.5172 -0.0565  0.2305
  996MOL0     C34344   9.317  10.578   3.141  0.5484 -0.0976 -0.5013
  996MOL0     C34345   9.244  10.555   3.269 -0.7364  0.5662 -0.0031
  996MOL0     C34346   9.103  10.629   3.281  0.3948  0.4680  1.0663
  996MOL0     C34347   9.030  10.575   3.411  0.2356 -0.5315 -0.8940
  996MOL0     C34348   8.900  10.648   3.436  0.1106 -0.5621 -0.1144
  996MOL0     O34349   8.934  10.776   3.475 -0.3679 -0.1862 -0.5561
  996MOL0     C34350   8.854  10.868   3.554  0.9838  0.8978  0.4030
  996MOL0     C34351   8.901  10.993   3.577 -1.2200  1.1450 -0.7062
  996MOL0     C34352   8.843  11.075   3.671 -0.8386 -0.0976  0.1318
  996MOL0     C34353   8.904  11.208   3.700 -0.2901 -0.2248 -0.8826
  996MOL0     C34354   8.720  11.038   3.740 -0.7129 -0.9095  0.6775
  996MOL0     C34355   8.656  11.111   3.853  0.2810  0.4923 -0.2495
  996MOL0     O34356   8.526  11.085   3.887 -0.6145 -0.9676 -0.2424
  996MOL0     C34357   8.446  11.143   3.982 -0.4767 -0.7140  0.1640
  996MOL0     C34358   8.486  11.228   4.088  0.2992  0.1546 -0.2198
  996MOL0     C34359   8.393  11.287   4.180 -0.2123  0.9044  0.7164
  996MOL0     C34360   8.262  11.249   4.174  0.7524  0.0224  0.7403
  996MOL0     O34361   8.165  11.279   4.270 -0.6703  0.4311 -0.8704
  996MOL0     C34362   8.186  11.412   4.325  0.1486  0.4670  0.4810
  996MOL0     C34363   8.226  11.401   4.471  0.3742 -0.2371 -1.0459
  996MOL0     C34364   8.152  11.513   4.547  0.3196  0.4213 -0.3068
  996MOL0     C34365   8.032  11.453   4.624  0.2406 -0.8435  0.6716
  996MOL0     C34366   7.971  11.536   4.730 -0.0688 -0.9516  0.6837
  996MOL0     C34367   7.897  11.661   4.668  0.1969  0.4893  0.5812
  996MOL0     C34368   7.837  11.765   4.766 -0.1875 -0.2168  0.7278
  996MOL0     C34369   7.789  11.890   4.701  0.2195 -0.0180  0.1351
  996MOL0    Cl34370   7.727  11.991   4.832 -0.3530  0.1998  0.3918
  996MOL0     C34371   8.221  11.165   4.068 -1.0937 -0.2934 -0.3401
  996MOL0     C34372   8.312  11.112   3.976 -1.0806  0.4565 -0.0976
  996MOL0     O34373   8.723  11.180   3.924 -0.4159  0.0519 -0.0636
  996MOL0     C34374   8.657  10.921   3.686 -0.2342 -0.0798 -0.2418
  996MOL0     C34375   8.729  10.833   3.603  0.0247 -0.2402  0.0151
  996MOL0     N34376   9.453  10.567   3.127 -0.2201  0.3911 -0.5081
  996MOL0     N34377   9.491  10.594   3.007  0.2899  0.1459  0.6190
  996MOL0     C34378   9.192  10.871   3.756  0.4830 -0.7589 -0.2041
  996MOL0     C34379   9.173  10.809   3.878  0.1361  0.7327 -0.7133
  996MOL0     C34380   9.238  10.498   4.237  1.3152 -0.2496 -0.3550
  996MOL0     C34381   9.304  10.448   4.346 -0.2424 -0.5581 -0.1848
  996MOL0     C34382   9.243  10.393   4.457  0.1620  0.2271 -0.3466
  996MOL0     C34383   9.109  10.384   4.467  0.0240  0.1064  0.7082
  996MOL0     O34384   9.050  10.325   4.573  0.7131 -0.4671  0.1787
  996MOL0     C34385   8.962  10.409   4.649 -0.5427 -0.5436  0.0877
  996MOL0     C34386   9.038  10.500   4.750 -0.3095  0.2936 -0.2989
  996MOL0     C34387   9.083  10.422   4.882  0.5486 -0.2309  0.4193
  996MOL0     C34388   8.994  10.437   5.005  0.4914 -0.8306  0.2670
  996MOL0     C34389   9.012  10.575   5.068 -0.1433  0.6427 -0.3620
  996MOL0     C34390   8.996  10.678   5.128  0.8913 -0.8820 -0.9476
  996MOL0     C34391   9.032  10.411   4.350 -0.3580 -0.7265 -0.8676
  996MOL0     C34392   9.098  10.460   4.231 -0.5935  0.7306  0.4094
  996MOL0     H34393   9.417  10.580   3.861 -0.1131  1.3211  2.1925
  996MOL0     H34394   9.453  10.695   3.641  1.9565 -0.3604  2.6451
  996MOL0     H34395   9.519  10.882   3.530 -0.0766  0.9011  0.5073
  996MOL0     H34396   9.416  10.807   3.402  0.7458  1.4996 -1.4749
  996MOL0     H34397   9.426  11.102   3.462  0.1172  1.3714 -0.9720
  996MOL0     H34398   9.527  11.016   3.333 -1.0570 -4.0950 -1.5481
  996MOL0     H34399   9.237  10.996   3.342 -0.3448 -0.1731  0.3992
  996MOL0     H34400   9.312  11.132   3.237  1.6537 -2.5354 -5.1518
  996MOL0     H34401   9.431  10.878   3.174  1.7019  3.0153  1.9719
  996MOL0     H34402   9.267  10.877   3.145 -0.7275  1.1013 -1.1941
  996MOL0     H34403   9.278  11.071   2.997  2.1181  2.5562  0.5391
  996MOL0     H34404   9.446  11.096   3.040  0.1843 -0.0590 -0.9695
  996MOL0     H34405   9.467  10.983   2.824 -2.0321  3.9611  1.5841
  996MOL0     H34406   9.505  10.859   2.935  1.5017 -1.0705 -0.8387
  996MOL0     H34407   9.214  10.835   2.924 -0.9729 -2.7722  0.0944
  996MOL0     H34408   9.257  10.893   2.772  1.1643  0.7302 -0.0210
  996MOL0     H34409   9.442  10.714   2.768 -0.4031  0.9620 -0.9361
  996MOL0     H34410   9.277  10.655   2.752  2.1249  0.8653 -1.6691
  996MOL0     H34411   9.155  10.596   2.993  0.5852 -2.7648 -0.0355
  996MOL0     H34412   9.232  10.447   3.263 -0.5535  0.6244 -1.9742
  996MOL0     H34413   9.322  10.580   3.342  3.3687 -1.9897 -3.1158
  996MOL0     H34414   9.045  10.611   3.190  2.4514 -0.0567 -0.2103
  996MOL0     H34415   9.107  10.738   3.290 -1.1435  0.5123  1.4343
  996MOL0     H34416   9.087  10.594   3.502 -1.1353 -1.3137  0.1798
  996MOL0     H34417   9.013  10.468   3.392 -1.9708  0.0865 -2.9694
  996MOL0     H34418   8.836  10.585   3.498  0.5808 -0.7659  0.1730
  996MOL0     H34419   8.837  10.650   3.347  0.9563 -3.4469 -0.9223
  996MOL0     H34420   8.996  11.023   3.534 -0.7259  0.4892 -0.0960
  996MOL0     H34421   8.844  11.296   3.675  2.8247  1.7281 -2.0886
  996MOL0     H34422   8.923  11.211   3.807  1.8876 -0.5844 -1.2163
  996MOL0     H34423   9.006  11.216   3.663  0.9501 -0.6560  2.2178
  996MOL0     H34424   8.591  11.245   4.113  0.5821 -0.2323 -1.1146
  996MOL0     H34425   8.435  11.346   4.261 -0.0148 -2.1312  3.0442
  996MOL0     H34426   8.257  11.471   4.267 -0.8244  1.7637  0.5720
  996MOL0     H34427   8.085  11.453   4.317 -0.8093 -1.9129 -0.7598
  996MOL0     H34428   8.205  11.302   4.512  0.3546 -0.3246 -1.2660
  996MOL0     H34429   8.332  11.421   4.488 -0.1784  0.9637  1.4313
  996MOL0     H34430   8.111  11.597   4.490 -1.6994  1.3719  2.3077
  996MOL0     H34431   8.218  11.552   4.625 -0.6450  0.9389  0.2595
  996MOL0     H34432   7.948  11.423   4.560 -1.1202 -0.4744  2.2248
  996MOL0     H34433   8.072  11.365   4.676  1.2748 -0.9131 -0.2091
  996MOL0     H34434   8.048  11.562   4.803 -1.3510  1.1822  1.3632
  996MOL0     H34435   7.890  11.479   4.775 -0.0014 -2.2522 -0.7577
  996MOL0     H34436   7.972  11.719   4.613  2.5123 -1.1220  1.8636
  996MOL0     H34437   7.820  11.620   4.602 -1.4343  3.6212  0.3338
  996MOL0     H34438   7.924  11.797   4.825  2.2134 -3.7005 -0.5552
  996MOL0     H34439   7.761  11.718   4.829  2.6084 -1.4256  3.4808
  996MOL0     H34440   7.696  11.858   4.653  0.0170  1.9131 -0.8620
  996MOL0     H34441   7.858  11.942   4.634 -0.6074  2.4450  1.0697
  996MOL0     H34442   8.124  11.116   4.066 -1.5008  0.4628  0.3610
  996MOL0     H34443   8.288  11.051   3.889  0.8423  1.0254 -1.0798
  996MOL0     H34444   8.569  10.889   3.741  0.4841  0.1999  1.1168
  996MOL0     H34445   8.685  10.737   3.577 -0.7695  0.3395 -0.8682
  996MOL0     H34446   9.122  10.949   3.728  3.3449  1.8242 -0.7689
  996MOL0     H34447   9.086  10.835   3.937 -0.5023 -1.0747 -0.8031
  996MOL0     H34448   9.411  10.464   4.340  0.1970 -3.1324 -0.3959
  996MOL0     H34449   9.306  10.364   4.541  1.7731 -1.6162 -2.0560
  996MOL0     H34450   8.899  10.474   4.588 -0.5736 -1.6971 -1.1516
  996MOL0     H34451   8.894  10.346   4.707 -1.5602 -0.5739 -1.0917
  996MOL0     H34452   8.970  10.580   4.781 -1.9168 -1.8012  2.0128
  996MOL0     H34453   9.133  10.537   4.711 -0.4364  0.3265 -0.5793
  996MOL0     H34454   9.179  10.453   4.925  0.3174 -0.4993  1.1357
  996MOL0     H34455   9.092  10.316   4.855 -0.9913 -0.2876  0.0356
  996MOL0     H34456   9.021  10.359   5.077 -1.4009 -1.4174  0.3974
  996MOL0     H34457   8.894  10.416   4.966  1.2546  1.1838 -3.2490
  996MOL0     H34458   8.986  10.774   5.174 -0.9023 -0.3312 -2.3711
  996MOL0     H34459   8.924  10.412   4.364 -0.2874  2.4691  0.2537
  996MOL0     H34460   9.050  10.480   4.136  0.4158 -1.7246 -0.7219
  997MOL0     O34461   0.254   8.475  10.808 -1.4465  0.2028  0.6542
  997MOL0     C34462   0.140   8.443  10.794  0.5608 -0.1713  0.3058
  997MOL0     O34463   0.101   8.350  10.703 -0.0047 -0.0984  0.9046
  997MOL0     C34464   0.174   8.289  10.598  0.2255 -0.4812  1.0131
  997MOL0     C34465   0.259   8.185  10.600 -0.4839  0.6782 -0.8643
  997MOL0     C34466   0.332   8.144  10.490 -0.1689  0.3426 -0.0132
  997MOL0     C34467   0.312   8.212  10.370 -0.0562 -0.5704  0.5195
  997MOL0     O34468   0.389   8.188  10.256 -0.4338 -0.6229  1.0356
  997MOL0     C34469   0.310   8.129  10.148 -0.4366 -1.0879  0.1727
  997MOL0     C34470   0.277   7.983  10.172 -0.6096  0.1782  0.5966
  997MOL0     C34471   0.216   7.905  10.058 -0.2093 -0.0324  0.4703
  997MOL0     C34472   0.314   7.822   9.980  0.0831 -0.8429 -0.0089
  997MOL0     C34473   0.242   7.721   9.886 -0.0101  0.2451  0.2058
  997MOL0     C34474   0.333   7.659   9.776  1.0036  0.3189  0.2352
  997MOL0     C34475   0.421   7.537   9.822 -0.4518 -0.2493  0.2147
  997MOL0     C34476   0.567   7.588   9.834  0.1919  0.3483  0.9092
  997MOL0     N34477   0.664   7.478   9.850  0.0557 -0.1525  0.1835
  997MOL0     C34478   0.737   7.414   9.756  0.1489  0.7196 -0.6821
  997MOL0     C34479   0.843   7.349   9.822 -0.1413  0.5315  0.1322
  997MOL0     C34480   0.952   7.281   9.760 -0.3468  0.1585  0.5141
  997MOL0     C34481   0.919   7.134   9.733  0.6913  0.2610 -0.1484
  997MOL0     C34482   0.828   7.114   9.611 -0.0785  1.1679 -0.5242
  997MOL0     C34483   0.797   6.967   9.598  0.2107  0.2461  0.8640
  997MOL0     O34484   0.743   6.953   9.457  0.2974  0.4886 -0.5200
  997MOL0     C34485   0.610   6.971   9.442  0.4251  0.1149 -0.0567
  997MOL0     C34486   0.523   7.022   9.533 -0.4317 -0.4172  0.8530
  997MOL0     C34487   0.396   7.060   9.495 -0.6697 -0.1901 -0.4679
  997MOL0     C34488   0.308   7.124   9.603 -0.6099  0.6254 -0.8656
  997MOL0     C34489   0.345   7.033   9.365  1.0486  0.5322  0.5880
  997MOL0     C34490   0.208   7.082   9.303 -1.2783  0.7079  0.6802
  997MOL0     O34491   0.192   7.061   9.168  0.2670  1.0197  0.4259
  997MOL0     C34492   0.066   7.080   9.107  0.0966 -0.3117 -0.2138
  997MOL0     C34493  -0.005   6.966   9.066 -0.0114 -0.1970 -1.0850
  997MOL0     C34494  -0.142   6.964   9.022 -0.0359  0.2442 -0.0800
  997MOL0     C34495  -0.203   7.091   9.003  0.2164 -0.4629 -0.0775
  997MOL0     O34496  -0.325   7.093   8.955  0.2327 -0.8136 -0.0694
  997MOL0     C34497  -0.396   7.218   8.946 -0.6186  0.8193 -0.0621
  997MOL0     C34498  -0.538   7.181   8.897  0.0277 -0.0553  0.1030
  997MOL0     C34499  -0.629   7.163   9.020 -0.5309  0.4638 -0.5831
  997MOL0     C34500  -0.595   7.047   9.107  0.1739 -0.1273  0.3300
  997MOL0     C34501  -0.712   6.992   9.190 -0.5956 -0.3928 -0.4472
  997MOL0     C34502  -0.780   7.091   9.294 -0.7606  0.7705  0.4259
  997MOL0     C34503  -0.684   7.153   9.402  0.4418  0.0104  0.9590
  997MOL0     C34504  -0.773   7.218   9.518  0.2280  0.6535  0.1676
  997MOL0    Cl34505  -0.682   7.287   9.650 -0.2415  0.5841 -0.1817
  997MOL0     C34506  -0.124   7.208   9.026  0.3202 -0.4309 -0.5084
  997MOL0     C34507   0.005   7.198   9.077 -0.2349 -0.8474 -0.4671
  997MOL0     O34508   0.124   7.137   9.370  0.6057  0.5153 -0.0441
  997MOL0     C34509   0.433   6.959   9.277 -0.3984 -0.0628 -0.1291
  997MOL0     C34510   0.560   6.918   9.319 -0.0874 -0.4375 -0.3944
  997MOL0     N34511   0.834   7.390   9.955 -0.0593  0.0599  0.2372
  997MOL0     N34512   0.736   7.475   9.968  0.3768 -0.7135 -0.4800
  997MOL0     C34513   0.224   8.319  10.367 -0.5550 -0.5892 -0.3487
  997MOL0     C34514   0.149   8.358  10.481 -0.1341  0.1489 -0.6181
  997MOL0     C34515   0.034   8.503  10.876 -0.7668  0.6258 -0.1669
  997MOL0     C34516   0.057   8.598  10.965 -0.7878 -0.3098  0.2555
  997MOL0     C34517  -0.021   8.628  11.069 -0.0082 -0.9282  0.2456
  997MOL0     C34518  -0.153   8.572  11.070  1.0792 -0.3880 -1.1167
  997MOL0     O34519  -0.232   8.607  11.183 -0.1465  0.1921  0.8065
  997MOL0     C34520  -0.366   8.554  11.214  0.1416 -1.2390 -0.4213
  997MOL0     C34521  -0.427   8.609  11.341  0.6470 -0.4101  0.0876
  997MOL0     C34522  -0.441   8.761  11.361 -0.0992 -0.9013  0.4084
  997MOL0     C34523  -0.317   8.840  11.387 -0.3872  0.2938  0.0812
  997MOL0     C34524  -0.289   8.851  11.532  1.1482  0.4960  0.4176
  997MOL0     C34525  -0.271   8.857  11.653 -0.6852  0.0502 -0.9487
  997MOL0     C34526  -0.185   8.486  10.968 -0.4425 -0.2768 -0.2224
  997MOL0     C34527  -0.097   8.443  10.877 -0.2099  0.2502  0.6610
  997MOL0     H34528   0.270   8.126  10.691 -1.1908  1.2249 -0.4093
  997MOL0     H34529   0.399   8.059  10.499 -0.3925  0.0334 -1.0705
  997MOL0     H34530   0.225   8.187  10.111  0.9056 -0.9433 -3.0496
  997MOL0     H34531   0.372   8.136  10.058  1.6730  0.5024  1.6439
  997MOL0     H34532   0.367   7.939  10.215  0.9947  1.4790 -1.2627
  997MOL0     H34533   0.202   7.983  10.251 -1.4303  0.8420 -0.1695
  997MOL0     H34534   0.138   7.844  10.104 -0.4472  0.0611  0.1974
  997MOL0     H34535   0.178   7.978   9.986  3.2880  1.6027  0.0733
  997MOL0     H34536   0.379   7.890   9.923  0.4068  0.7948  2.1957
  997MOL0     H34537   0.376   7.764  10.048  1.0058  0.3583  0.2044
  997MOL0     H34538   0.205   7.646   9.955 -0.3855  0.4782  0.2648
  997MOL0     H34539   0.152   7.767   9.844 -1.4348  0.4774  3.2582
  997MOL0     H34540   0.270   7.621   9.695 -2.8586 -0.8830  3.5000
  997MOL0     H34541   0.396   7.743   9.743  1.7752 -0.4998 -0.4269
  997MOL0     H34542   0.384   7.484   9.911 -2.3289  1.2693  0.3947
  997MOL0     H34543   0.424   7.464   9.741 -1.5037 -0.4893  0.3835
  997MOL0     H34544   0.578   7.671   9.905  0.1347  3.1687 -2.1884
  997MOL0     H34545   0.601   7.635   9.742  2.2098 -1.1283  0.8168
  997MOL0     H34546   0.719   7.424   9.649  0.2362  0.6770 -0.7017
  997MOL0     H34547   0.990   7.326   9.668  1.5206 -2.0615  0.0935
  997MOL0     H34548   1.031   7.280   9.835  0.0579 -1.9176  0.1138
  997MOL0     H34549   0.858   7.114   9.821  3.5388  0.0510  1.9247
  997MOL0     H34550   1.008   7.070   9.732  2.0792  2.0994 -0.9503
  997MOL0     H34551   0.882   7.139   9.519  0.5623 -0.6126 -0.6835
  997MOL0     H34552   0.733   7.168   9.609  0.2040  1.8369  1.6541
  997MOL0     H34553   0.734   6.926   9.678  0.7198 -1.6155  0.3773
  997MOL0     H34554   0.890   6.911   9.585  1.2799  2.0691  0.3131
  997MOL0     H34555   0.549   7.036   9.638  1.4543  0.6820  0.2897
  997MOL0     H34556   0.203   7.095   9.609  0.2601 -2.4454  1.9098
  997MOL0     H34557   0.349   7.125   9.704  1.2459  2.4164 -1.5435
  997MOL0     H34558   0.300   7.233   9.589 -0.6760  1.0238  1.8408
  997MOL0     H34559   0.050   6.873   9.059  0.0281 -0.1090 -2.1563
  997MOL0     H34560  -0.206   6.883   8.987 -0.3080  0.7382 -0.7466
  997MOL0     H34561  -0.401   7.266   9.044 -0.3835 -0.0168  0.3708
  997MOL0     H34562  -0.348   7.281   8.871  4.0152 -1.3287  0.7374
  997MOL0     H34563  -0.582   7.264   8.841 -0.0982  0.1446  0.4978
  997MOL0     H34564  -0.525   7.091   8.836  2.9023 -1.9203  3.1174
  997MOL0     H34565  -0.730   7.145   8.983 -1.6867  1.0721  2.0107
  997MOL0     H34566  -0.630   7.254   9.080 -1.3952 -1.9848  3.5259
  997MOL0     H34567  -0.547   6.970   9.045  3.9394  0.3488  2.3122
  997MOL0     H34568  -0.516   7.084   9.173  0.5275  0.2533 -0.2990
  997MOL0     H34569  -0.689   6.897   9.239  0.1951  0.7866  1.5747
  997MOL0     H34570  -0.790   6.954   9.123 -0.3703 -1.0869 -0.3181
  997MOL0     H34571  -0.814   7.172   9.229 -1.9546 -0.2125 -0.1914
  997MOL0     H34572  -0.869   7.039   9.330 -0.5814 -1.2897 -1.9103
  997MOL0     H34573  -0.627   7.231   9.351 -0.9857 -0.7473 -1.9785
  997MOL0     H34574  -0.620   7.077   9.448  0.0647 -0.7194  0.2957
  997MOL0     H34575  -0.845   7.145   9.556  0.2783 -1.2776 -3.0713
  997MOL0     H34576  -0.822   7.306   9.476  2.1700  2.8930  2.1980
  997MOL0     H34577  -0.174   7.304   9.014 -1.9146 -0.9800  2.9478
  997MOL0     H34578   0.049   7.296   9.097 -0.9947 -0.6747  0.3878
  997MOL0     H34579   0.408   6.937   9.173 -0.2299  2.4004 -0.7510
  997MOL0     H34580   0.620   6.869   9.244 -1.0504 -0.2322 -1.3220
  997MOL0     H34581   0.218   8.386  10.283  0.4673  0.1660  0.1611
  997MOL0     H34582   0.099   8.454  10.482  1.2448  0.8954 -0.6075
  997MOL0     H34583   0.158   8.637  10.961 -0.6401 -0.6423  0.7044
  997MOL0     H34584   0.032   8.693  11.137  1.4412  0.7860 -2.3407
  997MOL0     H34585  -0.445   8.589  11.147 -0.8898 -0.5088  1.1216
  997MOL0     H34586  -0.356   8.446  11.230  2.6416 -0.6370  3.7207
  997MOL0     H34587  -0.376   8.567  11.428  0.6913 -1.1769 -0.3044
  997MOL0     H34588  -0.528   8.567  11.346 -0.6827  2.5175  0.2803
  997MOL0     H34589  -0.499   8.785  11.450  1.0097  1.3618  0.5934
  997MOL0     H34590  -0.495   8.792  11.271 -0.3549 -1.4145  0.3765
  997MOL0     H34591  -0.335   8.945  11.363  2.5885  0.9195  0.2099
  997MOL0     H34592  -0.232   8.813  11.324 -2.0251  1.2311 -2.7054
  997MOL0     H34593  -0.237   8.862  11.754  2.0241  0.1183 -1.7956
  997MOL0     H34594  -0.292   8.466  10.963 -0.0893 -1.9844 -2.9665
  997MOL0     H34595  -0.140   8.381  10.799 -2.1840  2.6330 -0.2493
  998MOL0     O34596   2.571   2.617   9.623  0.1916 -0.4914 -0.7337
  998MOL0     C34597   2.610   2.682   9.531 -0.2412  0.3200  0.7480
  998MOL0     O34598   2.719   2.759   9.531  0.2264 -0.4889 -0.7144
  998MOL0     C34599   2.784   2.793   9.651 -0.4621 -0.0459  0.3897
  998MOL0     C34600   2.922   2.796   9.663 -0.4436 -0.1614  1.1472
  998MOL0     C34601   2.992   2.828   9.782 -0.2176  0.5671 -0.2206
  998MOL0     C34602   2.925   2.854   9.906 -0.3893 -0.5516  0.4646
  998MOL0     O34603   2.993   2.841  10.024 -0.4936 -0.0569  0.2307
  998MOL0     C34604   2.949   2.911  10.136 -0.0383 -1.0495  0.8826
  998MOL0     C34605   3.051   2.963  10.224 -0.5316 -0.0748  0.0096
  998MOL0     C34606   3.150   2.869  10.279 -0.4130  0.3550 -0.3160
  998MOL0     C34607   3.244   2.933  10.376 -0.1445 -0.5476 -0.1470
  998MOL0     C34608   3.203   2.923  10.518  0.2103  0.4049  0.0662
  998MOL0     C34609   3.311   2.959  10.609 -0.7316 -0.0943 -0.0809
  998MOL0     C34610   3.263   2.948  10.758  0.8094 -0.2799  0.4112
  998MOL0     C34611   3.384   2.994  10.848  0.5238 -1.2153 -0.0614
  998MOL0     N34612   3.483   2.890  10.875  0.5746 -0.0427 -0.7534
  998MOL0     C34613   3.593   2.848  10.798  0.2320  0.0416  0.2458
  998MOL0     C34614   3.654   2.765  10.886 -0.3405 -0.3881  0.3051
  998MOL0     C34615   3.781   2.698  10.849 -0.3121 -1.1802 -0.6655
  998MOL0     C34616   3.911   2.771  10.896  0.0935  0.1960  0.7232
  998MOL0     C34617   3.918   2.905  10.829  0.0127  0.1364 -0.8522
  998MOL0     C34618   4.060   2.956  10.850  0.0335  0.1709  0.2467
  998MOL0     O34619   4.158   2.886  10.761 -0.6108 -0.9386  0.6726
  998MOL0     C34620   4.260   2.957  10.696 -1.4632 -0.2749  0.4568
  998MOL0     C34621   4.280   2.937  10.560 -0.3143  1.5856  0.2612
  998MOL0     C34622   4.393   2.995  10.494 -0.0822  0.2152  0.2342
  998MOL0     C34623   4.405   2.940  10.356  0.5761 -0.3485  0.5250
  998MOL0     C34624   4.469   3.093  10.552  0.0842  0.0963 -0.0739
  998MOL0     C34625   4.573   3.177  10.490  0.1386  0.1408  0.5101
  998MOL0     O34626   4.597   3.156  10.354  0.1475  0.4994  0.0864
  998MOL0     C34627   4.714   3.227  10.311  0.6319 -1.0718  0.0423
  998MOL0     C34628   4.825   3.157  10.281 -0.2977 -0.1629  0.1997
  998MOL0     C34629   4.951   3.224  10.263 -0.3117 -0.7819 -0.9215
  998MOL0     C34630   4.948   3.362  10.240  0.2025 -0.7578  0.8494
  998MOL0     O34631   5.060   3.421  10.206 -0.0008  0.2912  0.1401
  998MOL0     C34632   5.067   3.550  10.154  0.3794 -0.1968  0.1652
  998MOL0     C34633   5.206   3.608  10.168 -1.5773  0.4956  0.8663
  998MOL0     C34634   5.261   3.622  10.305  1.2125  0.4441  0.0167
  998MOL0     C34635   5.178   3.713  10.404  1.2626 -0.3397  0.3491
  998MOL0     C34636   5.208   3.859  10.368 -0.2472 -1.1580  1.4129
  998MOL0     C34637   5.167   3.958  10.476 -1.1067  0.2406 -0.3375
  998MOL0     C34638   5.239   4.095  10.448 -0.5297 -1.0472  1.1064
  998MOL0     C34639   5.201   4.203  10.545 -0.4755  0.0335 -0.1439
  998MOL0    Cl34640   5.287   4.351  10.542 -0.0396  0.1190  0.0185
  998MOL0     C34641   4.827   3.435  10.259 -0.8601  0.6275 -0.5274
  998MOL0     C34642   4.712   3.368  10.290  1.0000 -0.5651 -0.7825
  998MOL0     O34643   4.636   3.256  10.561 -0.1197  0.2350 -0.0405
  998MOL0     C34644   4.437   3.117  10.695  0.3637 -0.5420 -0.9122
  998MOL0     C34645   4.336   3.053  10.764  0.1879 -0.0985  0.0504
  998MOL0     N34646   3.596   2.766  11.005  0.0853  0.0786  1.0277
  998MOL0     N34647   3.497   2.841  11.003 -0.1064 -0.2953  0.3307
  998MOL0     C34648   2.780   2.858   9.900 -0.2159 -0.4944  0.7688
  998MOL0     C34649   2.716   2.834   9.769  0.7353  0.4934  0.5019
  998MOL0     C34650   2.538   2.656   9.400  0.0823 -1.0541 -0.2671
  998MOL0     C34651   2.601   2.700   9.277 -0.4179  0.1420  0.1009
  998MOL0     C34652   2.537   2.659   9.160 -0.1414 -0.4119 -0.8410
  998MOL0     C34653   2.416   2.587   9.156 -0.0687 -0.2312  0.5845
  998MOL0     O34654   2.356   2.546   9.037  0.5831  0.2502  0.3977
  998MOL0     C34655   2.380   2.616   8.913  0.1480 -0.1692 -0.6011
  998MOL0     C34656   2.308   2.754   8.920  0.9141  0.7184 -0.8328
  998MOL0     C34657   2.181   2.742   8.839 -0.5606  0.1542 -0.2087
  998MOL0     C34658   2.065   2.663   8.905  0.7804 -0.1080 -0.0902
  998MOL0     C34659   1.962   2.649   8.802  0.1917 -0.0287 -0.1316
  998MOL0     C34660   1.870   2.638   8.729 -0.5287  1.1812  1.0871
  998MOL0     C34661   2.353   2.551   9.274  0.9015  0.0474 -1.1438
  998MOL0     C34662   2.408   2.589   9.395 -0.2517 -0.3977 -0.4862
  998MOL0     H34663   2.980   2.778   9.573 -4.0152 -0.8325 -1.2593
  998MOL0     H34664   3.099   2.828   9.797 -0.5820 -0.1250  3.2967
  998MOL0     H34665   2.898   3.001  10.100  0.3728 -1.2045 -0.1520
  998MOL0     H34666   2.880   2.848  10.191 -1.8990  0.4078  0.3317
  998MOL0     H34667   3.102   3.043  10.169 -3.1846  1.1704 -0.8210
  998MOL0     H34668   3.001   3.009  10.309 -0.8999 -0.2774 -0.0943
  998MOL0     H34669   3.091   2.787  10.322 -0.8029  0.5484 -0.4770
  998MOL0     H34670   3.211   2.819  10.203  0.2151  2.1515 -1.0307
  998MOL0     H34671   3.339   2.881  10.358  1.1222  1.8363 -0.7381
  998MOL0     H34672   3.267   3.036  10.351  2.0074 -0.5243  1.5679
  998MOL0     H34673   3.114   2.983  10.539 -1.1900  0.7215 -5.3318
  998MOL0     H34674   3.175   2.819  10.541 -0.4777  0.4031 -0.7321
  998MOL0     H34675   3.388   2.883  10.596 -0.6168  0.0439 -0.2178
  998MOL0     H34676   3.352   3.059  10.593 -2.0464  0.5816  0.6333
  998MOL0     H34677   3.183   3.021  10.776 -0.4583 -0.4628 -3.5359
  998MOL0     H34678   3.233   2.847  10.789 -1.0584  0.2187  0.3744
  998MOL0     H34679   3.341   3.050  10.932  2.0581  4.9313 -2.7759
  998MOL0     H34680   3.432   3.081  10.802 -1.0896 -1.2208 -1.8777
  998MOL0     H34681   3.629   2.882  10.701 -2.3044  1.4457 -0.2868
  998MOL0     H34682   3.780   2.603  10.904 -2.6045  0.0064  1.5119
  998MOL0     H34683   3.784   2.680  10.741 -1.8989 -0.9105 -0.7741
  998MOL0     H34684   3.991   2.705  10.860 -2.3525 -1.3796 -2.2693
  998MOL0     H34685   3.909   2.788  11.004 -0.1713  0.9742  0.5993
  998MOL0     H34686   3.842   2.967  10.876  1.9921  0.7303  1.7834
  998MOL0     H34687   3.886   2.907  10.724 -1.0775  0.3888 -0.5195
  998MOL0     H34688   4.085   2.948  10.957  1.6406 -0.8302 -0.1568
  998MOL0     H34689   4.065   3.061  10.823 -1.1651  0.6069  1.5884
  998MOL0     H34690   4.213   2.867  10.512  1.7432 -0.6911  0.5634
  998MOL0     H34691   4.366   2.838  10.348 -0.3982  0.0326  0.1995
  998MOL0     H34692   4.347   2.999  10.284  1.5811 -0.7622 -0.6483
  998MOL0     H34693   4.508   2.935  10.320 -0.2795  1.4734 -2.5216
  998MOL0     H34694   4.806   3.050  10.292  1.6371 -0.5608  0.0168
  998MOL0     H34695   5.046   3.174  10.249 -0.8488 -1.3652 -2.9118
  998MOL0     H34696   5.040   3.539  10.049  1.1019 -3.6001  0.2209
  998MOL0     H34697   5.002   3.622  10.204 -2.6928 -2.7245  0.0924
  998MOL0     H34698   5.275   3.544  10.113 -1.5599  1.1187  0.1495
  998MOL0     H34699   5.223   3.699  10.110  0.0706 -1.6874 -2.3386
  998MOL0     H34700   5.364   3.659  10.302  0.3617  3.2673  1.7651
  998MOL0     H34701   5.266   3.525  10.356  0.0861  0.9149  1.0553
  998MOL0     H34702   5.071   3.691  10.409  0.9824  0.4151 -1.5427
  998MOL0     H34703   5.216   3.693  10.504 -0.8237  0.6471  1.4000
  998MOL0     H34704   5.159   3.867  10.270  1.9938 -0.2410  0.2978
  998MOL0     H34705   5.312   3.889  10.350 -0.9037  1.2449  1.2473
  998MOL0     H34706   5.058   3.968  10.475 -0.9890  1.6971 -0.2700
  998MOL0     H34707   5.204   3.919  10.571 -1.3783 -1.9830 -1.0818
  998MOL0     H34708   5.228   4.128  10.345  1.6584 -1.1853  0.7903
  998MOL0     H34709   5.347   4.080  10.448 -0.7095 -2.9714  3.3955
  998MOL0     H34710   5.211   4.173  10.649 -1.1886  3.4551  1.0435
  998MOL0     H34711   5.099   4.228  10.516 -1.8450 -4.9186 -0.4150
  998MOL0     H34712   4.814   3.543  10.259  0.1823  0.8672  2.7279
  998MOL0     H34713   4.623   3.426  10.313  0.7179 -1.0780 -0.5639
  998MOL0     H34714   4.488   3.189  10.759  0.0418  0.0726 -1.3370
  998MOL0     H34715   4.317   3.071  10.870  1.1646  1.1611  0.0278
  998MOL0     H34716   2.716   2.884   9.984 -1.2016 -3.1377  0.9178
  998MOL0     H34717   2.608   2.841   9.770  0.8154  2.4146  1.2705
  998MOL0     H34718   2.702   2.739   9.277 -0.6133  0.6916  1.1805
  998MOL0     H34719   2.599   2.677   9.072  3.1639 -0.4531  1.3137
  998MOL0     H34720   2.488   2.626   8.896  0.1501 -1.0070 -1.1130
  998MOL0     H34721   2.348   2.557   8.827  2.6266 -1.9103 -0.4457
  998MOL0     H34722   2.383   2.819   8.874  2.4267 -0.8914 -0.7546
  998MOL0     H34723   2.294   2.788   9.023 -2.4119  0.0894 -0.9604
  998MOL0     H34724   2.212   2.701   8.743  0.5890  2.7988 -1.0424
  998MOL0     H34725   2.141   2.839   8.808 -2.0634 -0.3408  0.0967
  998MOL0     H34726   2.032   2.722   8.991 -0.4049 -0.9662  0.0618
  998MOL0     H34727   2.089   2.563   8.943  0.6298 -0.7947 -1.7537
  998MOL0     H34728   1.786   2.620   8.664 -1.7434 -1.2918  3.1545
  998MOL0     H34729   2.255   2.505   9.269  0.8285  0.2462 -1.6392
  998MOL0     H34730   2.347   2.563   9.481  0.2696  1.8043  0.6170
  999MOL0     O34731   2.722  11.240   9.473  0.5857 -0.1228 -0.3797
  999MOL0     C34732   2.843  11.228   9.505  0.7910 -0.4143 -0.0053
  999MOL0     O34733   2.943  11.146   9.444 -0.1565 -0.3189  0.4002
  999MOL0     C34734   2.902  11.076   9.336 -0.4824  0.2556 -0.6678
  999MOL0     C34735   2.828  10.961   9.357  0.1024  0.1779  0.0208
  999MOL0     C34736   2.792  10.880   9.251 -0.2802 -0.3309  0.4795
  999MOL0     C34737   2.835  10.908   9.120 -0.4124  0.4050  0.4979
  999MOL0     O34738   2.817  10.808   9.029 -0.0593 -0.1008  0.3183
  999MOL0     C34739   2.865  10.822   8.896  0.7427  0.2703  0.3281
  999MOL0     C34740   2.788  10.721   8.808 -0.3860  0.0979  0.0974
  999MOL0     C34741   2.806  10.565   8.837 -0.0032  0.8018  0.7250
  999MOL0     C34742   2.736  10.465   8.747  0.2502  0.1129  0.5240
  999MOL0     C34743   2.771  10.487   8.593 -0.0557  0.4050  0.1465
  999MOL0     C34744   2.926  10.480   8.561  0.5164  0.8206 -0.8537
  999MOL0     C34745   2.971  10.560   8.440  0.7152 -0.1782  0.7932
  999MOL0     C34746   2.893  10.513   8.305  0.7109  1.0685 -0.6648
  999MOL0     N34747   2.952  10.553   8.184 -0.5813 -0.0742  0.3571
  999MOL0     C34748   2.896  10.583   8.065 -0.2831  0.9613 -0.2627
  999MOL0     C34749   2.984  10.666   8.005 -0.1269  0.1437  0.7641
  999MOL0     C34750   2.970  10.735   7.871  0.4935  0.2474  1.5191
  999MOL0     C34751   3.105  10.789   7.815 -0.6830  0.5441  0.0260
  999MOL0     C34752   3.065  10.836   7.670  0.0473  0.3586 -0.2664
  999MOL0     C34753   3.174  10.914   7.608 -0.1759 -0.8014  0.6378
  999MOL0     O34754   3.133  10.931   7.470 -0.7226 -0.2985 -0.3529
  999MOL0     C34755   3.073  11.054   7.429  0.4631 -0.1755 -0.9379
  999MOL0     C34756   3.034  11.060   7.293  0.0549  0.7972 -0.5495
  999MOL0     C34757   2.979  11.182   7.239  0.6466  0.2303 -0.0498
  999MOL0     C34758   2.946  11.179   7.089  0.7154  0.0016 -0.0691
  999MOL0     C34759   2.956  11.296   7.325 -0.4595  0.0955 -0.6048
  999MOL0     C34760   2.904  11.429   7.274  1.3095  0.4814  0.4037
  999MOL0     O34761   2.932  11.532   7.345 -0.3377  0.9264 -0.2015
  999MOL0     C34762   2.889  11.655   7.317  0.1691  0.0577 -0.0989
  999MOL0     C34763   2.904  11.716   7.193  0.6835 -0.2895  0.5615
  999MOL0     C34764   2.852  11.845   7.167 -0.2708  0.9042 -0.3223
  999MOL0     C34765   2.776  11.910   7.262 -0.0339  0.1028  0.2766
  999MOL0     O34766   2.742  12.036   7.232  0.4868 -1.1735  0.4062
  999MOL0     C34767   2.649  12.099   7.327  0.2850 -0.2600  0.4159
  999MOL0     C34768   2.593  12.240   7.280  0.8064  0.6809 -0.0341
  999MOL0     C34769   2.706  12.322   7.237 -0.2957 -0.8987  0.3785
  999MOL0     C34770   2.677  12.476   7.222 -0.3592  0.4537 -0.1179
  999MOL0     C34771   2.581  12.515   7.110  0.0950 -0.7844 -0.0794
  999MOL0     C34772   2.555  12.657   7.113  1.1397 -1.0836  0.2684
  999MOL0     C34773   2.458  12.709   7.008  0.0513  0.3947  0.0744
  999MOL0     C34774   2.443  12.854   7.031 -0.6725 -1.4135  0.9499
  999MOL0    Cl34775   2.315  12.907   6.913 -0.1410  0.5247 -0.2039
  999MOL0     C34776   2.757  11.852   7.386  1.2005  0.4123 -0.0589
  999MOL0     C34777   2.811  11.725   7.414  0.6282  0.2448 -0.3185
  999MOL0     O34778   2.825  11.432   7.182  0.3845  0.9155  0.0544
  999MOL0     C34779   2.996  11.288   7.464  0.4317 -0.0235  0.1146
  999MOL0     C34780   3.060  11.171   7.512 -0.3198  0.7965 -0.2170
  999MOL0     N34781   3.101  10.659   8.069  0.0708 -0.0515 -0.3024
  999MOL0     N34782   3.082  10.586   8.177  0.0263  0.0172 -0.2368
  999MOL0     C34783   2.912  11.020   9.101 -0.5569  0.0613 -0.4819
  999MOL0     C34784   2.938  11.108   9.208  0.3526  0.3062 -0.1413
  999MOL0     C34785   2.880  11.303   9.617 -0.7119  0.5351  0.5007
  999MOL0     C34786   3.015  11.296   9.659  0.1807  0.2415 -0.7786
  999MOL0     C34787   3.066  11.368   9.771  0.3256  0.2232 -0.3492
  999MOL0     C34788   2.977  11.451   9.837  0.0156 -0.0252 -0.4007
  999MOL0     O34789   3.006  11.525   9.949  0.0311 -0.3984 -0.0826
  999MOL0     C34790   3.062  11.451  10.059  1.0930 -0.9333 -0.5130
  999MOL0     C34791   2.962  11.348  10.106  0.3345  0.4839  0.3346
  999MOL0     C34792   2.833  11.424  10.154  0.4364 -0.3405 -0.7682
  999MOL0     C34793   2.735  11.341  10.242  1.0451  0.2707  0.5848
  999MOL0     C34794   2.673  11.243  10.151 -0.2887  0.7065 -0.1286
  999MOL0     C34795   2.624  11.151  10.081 -1.0045 -0.0376  0.2776
  999MOL0     C34796   2.855  11.476   9.775 -0.6754  0.8929 -0.0082
  999MOL0     C34797   2.801  11.403   9.669 -0.4393 -0.2031  0.1232
  999MOL0     H34798   2.797  10.949   9.461  0.3227 -3.1029 -0.1965
  999MOL0     H34799   2.751  10.784   9.281 -1.9707  1.0040  2.7747
  999MOL0     H34800   2.836  10.918   8.853  1.3580 -0.1991 -1.2018
  999MOL0     H34801   2.974  10.809   8.904  0.6842 -0.3487  0.2246
  999MOL0     H34802   2.680  10.742   8.807 -0.4323 -0.0376  1.1352
  999MOL0     H34803   2.825  10.744   8.708 -0.5207 -0.9849 -0.2060
  999MOL0     H34804   2.911  10.541   8.823 -0.3114  0.6910 -1.8472
  999MOL0     H34805   2.778  10.547   8.941  0.6840  2.0501  1.1402
  999MOL0     H34806   2.776  10.365   8.766  4.5383  1.5691  0.2334
  999MOL0     H34807   2.628  10.459   8.764  0.4786 -3.2564  1.5434
  999MOL0     H34808   2.726  10.410   8.530 -0.2651  1.2317 -0.7392
  999MOL0     H34809   2.736  10.583   8.554  4.0447  0.6020 -3.8015
  999MOL0     H34810   2.993  10.509   8.642 -0.6232 -0.2231  0.5200
  999MOL0     H34811   2.940  10.374   8.537 -0.0020  0.2555  1.1844
  999MOL0     H34812   2.954  10.667   8.457 -1.3730 -0.5973  1.6853
  999MOL0     H34813   3.077  10.547   8.419  0.3236  1.8896 -3.6212
  999MOL0     H34814   2.797  10.565   8.303  0.7831  1.3172 -4.3613
  999MOL0     H34815   2.890  10.404   8.319  0.9710  1.2960  1.6855
  999MOL0     H34816   2.791  10.559   8.052  0.0868 -1.8383  1.0449
  999MOL0     H34817   2.930  10.668   7.794  1.4643  1.3063  0.0412
  999MOL0     H34818   2.900  10.819   7.879  0.3117  0.5380 -1.7230
  999MOL0     H34819   3.166  10.698   7.810  0.4764  0.9611  3.4380
  999MOL0     H34820   3.152  10.866   7.877 -0.1339 -1.0896  1.7596
  999MOL0     H34821   2.967  10.885   7.660 -2.0057 -3.7847 -4.0800
  999MOL0     H34822   3.051  10.745   7.611 -0.1904 -1.1720  2.0220
  999MOL0     H34823   3.258  10.844   7.606 -0.4016 -1.1837 -2.9168
  999MOL0     H34824   3.199  11.003   7.667 -2.7429 -1.3141  2.6645
  999MOL0     H34825   3.052  10.980   7.222 -2.0512  0.9039 -1.2735
  999MOL0     H34826   2.973  11.079   7.055  2.6600 -0.7382  3.2156
  999MOL0     H34827   2.841  11.194   7.064  0.4558  1.1828  1.5019
  999MOL0     H34828   3.006  11.254   7.036 -0.9137  0.3282 -1.5309
  999MOL0     H34829   2.953  11.663   7.111 -1.1060  1.3147 -1.6785
  999MOL0     H34830   2.861  11.896   7.072  1.4992  0.6782 -0.3060
  999MOL0     H34831   2.562  12.033   7.335 -0.1629  0.4487  1.9588
  999MOL0     H34832   2.700  12.116   7.422 -0.2573 -0.4593  0.7463
  999MOL0     H34833   2.509  12.233   7.210  0.7904  2.4642 -0.2291
  999MOL0     H34834   2.550  12.287   7.369 -1.2022  0.6207 -0.9128
  999MOL0     H34835   2.736  12.288   7.138  1.1396  1.2358  0.0132
  999MOL0     H34836   2.792  12.304   7.302 -0.0501 -0.8710  0.0609
  999MOL0     H34837   2.636  12.512   7.316 -1.1409 -0.9608  0.1135
  999MOL0     H34838   2.778  12.517   7.220  0.5486 -1.2925  3.0935
  999MOL0     H34839   2.496  12.446   7.120 -0.9087  0.6997  2.4694
  999MOL0     H34840   2.620  12.500   7.009  1.3494  1.0338  0.0848
  999MOL0     H34841   2.510  12.683   7.209 -0.9799  2.3150 -1.4787
  999MOL0     H34842   2.654  12.704   7.116  0.1231  1.1825  0.4725
  999MOL0     H34843   2.361  12.658   7.007 -1.6003  3.2683  0.6409
  999MOL0     H34844   2.507  12.688   6.913 -0.3094  2.2773 -0.5792
  999MOL0     H34845   2.531  12.915   7.014 -3.4758  2.8289  0.2080
  999MOL0     H34846   2.421  12.869   7.137 -1.4076  1.0997  0.5121
  999MOL0     H34847   2.701  11.892   7.470  2.0803  0.3356  0.5887
  999MOL0     H34848   2.807  11.676   7.511  2.2896 -1.6614 -1.1226
  999MOL0     H34849   2.996  11.376   7.528  0.1530 -0.3013  0.5051
  999MOL0     H34850   3.086  11.163   7.617 -1.5942 -0.3344  0.0416
  999MOL0     H34851   2.957  11.029   9.003 -1.9155  1.8942 -0.9899
  999MOL0     H34852   3.007  11.189   9.184 -0.7607  1.0122 -1.0549
  999MOL0     H34853   3.095  11.248   9.604  0.8153 -0.2505  0.5330
  999MOL0     H34854   3.169  11.352   9.803  0.3133 -2.0894 -1.2674
  999MOL0     H34855   3.148  11.399  10.014 -0.9195 -3.3007 -1.8561
  999MOL0     H34856   3.093  11.517  10.141 -3.1445 -0.6825  1.1122
  999MOL0     H34857   3.017  11.282  10.173 -1.7825 -0.6566  1.0665
  999MOL0     H34858   2.910  11.287  10.032 -1.5541  1.4448  0.7860
  999MOL0     H34859   2.775  11.470  10.073  1.5906  1.7405 -0.4755
  999MOL0     H34860   2.862  11.505  10.221  1.2769 -2.2031  1.2426
  999MOL0     H34861   2.660  11.402  10.293  0.8321  0.5219 -0.0106
  999MOL0     H34862   2.789  11.293  10.324  0.6654  0.8615  1.1893
  999MOL0     H34863   2.614  11.064  10.020 -1.2467  0.4606 -0.4017
  999MOL0     H34864   2.789  11.545   9.827 -1.5601 -1.2733  1.9608
  999MOL0     H34865   2.704  11.440   9.639 -0.0522  1.1764  0.5151
 1000MOL0     O34866   0.069   1.926  10.401  0.2081 -0.4632 -0.1175
 1000MOL0     C34867   0.126   1.924  10.292 -0.2465 -0.0711  1.2081
 1000MOL0     O34868   0.264   1.931  10.282  0.1190  0.9751 -0.1660
 1000MOL0     C34869   0.355   1.917  10.389 -0.1322  0.6584 -0.1056
 1000MOL0     C34870   0.490   1.915  10.353 -0.1268 -0.4035  1.1064
 1000MOL0     C34871   0.588   1.872  10.439  0.4754  0.4859 -0.6457
 1000MOL0     C34872   0.559   1.852  10.577 -0.7106  0.5621  0.3109
 1000MOL0     O34873   0.667   1.825  10.660  0.2495  0.4995  0.1972
 1000MOL0     C34874   0.650   1.841  10.807  0.6934  0.6000 -0.2541
 1000MOL0     C34875   0.786   1.826  10.886  1.0151  0.8239  0.4765
 1000MOL0     C34876   0.786   1.888  11.024  0.2273  0.2812  0.1545
 1000MOL0     C34877   0.937   1.930  11.047  1.0298  0.1968 -0.2066
 1000MOL0     C34878   0.953   1.956  11.198  0.3608 -0.9721 -0.2886
 1000MOL0     C34879   1.099   1.997  11.226 -0.5853  0.0071 -1.0241
 1000MOL0     C34880   1.128   2.006  11.373  0.1644 -0.7617  0.0658
 1000MOL0     C34881   1.232   2.119  11.406 -0.0794 -0.8396 -0.1401
 1000MOL0     N34882   1.181   2.255  11.366 -0.0339  0.8658 -0.2270
 1000MOL0     C34883   1.250   2.336  11.274  0.4264 -0.1343 -0.4633
 1000MOL0     C34884   1.166   2.444  11.250  0.2020  1.0894  0.1906
 1000MOL0     C34885   1.190   2.542  11.145  0.3919  0.2729  0.3775
 1000MOL0     C34886   1.254   2.668  11.199 -0.5208  0.3865  1.1126
 1000MOL0     C34887   1.169   2.741  11.293 -0.3405  0.1200 -0.9239
 1000MOL0     C34888   1.216   2.878  11.340 -0.0742 -0.9418  1.2936
 1000MOL0     O34889   1.331   2.849  11.421  0.2571 -0.2040 -0.0244
 1000MOL0     C34890   1.435   2.935  11.401 -0.2373 -0.4203  0.6984
 1000MOL0     C34891   1.434   3.062  11.344 -0.2897  0.0584 -0.6962
 1000MOL0     C34892   1.546   3.151  11.336 -0.1280  0.4482  1.0168
 1000MOL0     C34893   1.529   3.283  11.270  0.7217  0.7654  0.2778
 1000MOL0     C34894   1.666   3.109  11.379  0.1244  0.0336  0.2300
 1000MOL0     C34895   1.796   3.183  11.394  0.9618 -0.7587 -0.3125
 1000MOL0     O34896   1.803   3.301  11.338  0.2444 -0.1172  0.0770
 1000MOL0     C34897   1.907   3.382  11.357 -0.5330  0.3070 -0.8034
 1000MOL0     C34898   1.985   3.428  11.248 -0.6347 -0.4211 -0.5015
 1000MOL0     C34899   2.078   3.534  11.264  0.2394  1.0434 -0.3532
 1000MOL0     C34900   2.097   3.591  11.386  0.2935 -0.2372 -1.1450
 1000MOL0     O34901   2.188   3.688  11.405 -0.7242 -0.9004 -0.4157
 1000MOL0     C34902   2.316   3.638  11.460  0.5427 -0.6491 -0.1257
 1000MOL0     C34903   2.318   3.689  11.602 -0.0334 -0.5079  0.0449
 1000MOL0     C34904   2.434   3.682  11.683 -0.9374 -0.2165 -1.1620
 1000MOL0     C34905   2.418   3.731  11.833  0.6139  0.8019 -0.7120
 1000MOL0     C34906   2.549   3.789  11.882 -0.5391 -0.1775 -0.4761
 1000MOL0     C34907   2.554   3.850  12.024  0.8879  0.6994  0.0451
 1000MOL0     C34908   2.692   3.904  12.075  0.0185  0.7444 -0.1677
 1000MOL0     C34909   2.770   3.973  11.962 -0.0110  0.4321  0.9761
 1000MOL0    Cl34910   2.920   4.062  12.018 -0.1953 -0.0339 -0.2018
 1000MOL0     C34911   2.027   3.549  11.498 -0.3548  0.6852  0.1924
 1000MOL0     C34912   1.932   3.445  11.481 -0.2646  0.7209 -0.7171
 1000MOL0     O34913   1.874   3.136  11.475  0.8104  0.7080  0.7640
 1000MOL0     C34914   1.673   2.982  11.426 -0.9726  0.2196 -0.4612
 1000MOL0     C34915   1.560   2.891  11.428 -1.0091  0.1134  0.4126
 1000MOL0     N34916   1.055   2.429  11.334 -0.2008 -0.6231  1.0041
 1000MOL0     N34917   1.062   2.323  11.400 -0.3905 -0.7133 -0.3098
 1000MOL0     C34918   0.428   1.846  10.610 -0.2110  0.5155 -0.5610
 1000MOL0     C34919   0.322   1.890  10.526  0.7094 -0.8237 -0.0676
 1000MOL0     C34920   0.051   1.929  10.162 -0.2151 -0.2073  0.5584
 1000MOL0     C34921  -0.092   1.945  10.153  0.2425 -0.5791 -0.0054
 1000MOL0     C34922  -0.145   1.936  10.020  0.7716  0.2361  0.2694
 1000MOL0     C34923  -0.068   1.905   9.903 -0.6389  0.4963 -0.0254
 1000MOL0     O34924  -0.112   1.881   9.775  0.3326 -0.3542  0.5075
 1000MOL0     C34925  -0.257   1.845   9.766 -0.8171  0.4847  0.0467
 1000MOL0     C34926  -0.294   1.705   9.814 -0.9756 -0.2544  0.6087
 1000MOL0     C34927  -0.231   1.590   9.726 -0.2020  0.0473 -0.7457
 1000MOL0     C34928  -0.082   1.554   9.756 -0.1797 -0.9486  0.3018
 1000MOL0     C34929  -0.038   1.416   9.696  0.1398  0.1927  0.8135
 1000MOL0     C34930  -0.002   1.315   9.641  0.6176  0.1350 -0.3142
 1000MOL0     C34931   0.067   1.891   9.926  0.8147  0.9758 -0.0672
 1000MOL0     C34932   0.127   1.898  10.048  0.3697  0.4492 -0.1171
 1000MOL0     H34933   0.517   1.948  10.253 -0.8686  1.2939  1.4294
 1000MOL0     H34934   0.687   1.859  10.396  1.2809  0.5438  1.1027
 1000MOL0     H34935   0.617   1.942  10.833  1.9666  0.9892 -0.1145
 1000MOL0     H34936   0.583   1.765  10.850  1.7552  0.0533  0.4820
 1000MOL0     H34937   0.792   1.717  10.898 -1.6013  0.6741  0.9955
 1000MOL0     H34938   0.859   1.878  10.824  0.6762 -0.1803 -0.8342
 1000MOL0     H34939   0.713   1.969  11.030 -1.4191 -0.9385 -2.0238
 1000MOL0     H34940   0.760   1.806  11.092 -0.2176 -0.3820 -0.8045
 1000MOL0     H34941   0.999   1.843  11.024  4.0300  2.2231 -0.3327
 1000MOL0     H34942   0.962   2.013  10.979 -6.4532  2.0876 -1.6014
 1000MOL0     H34943   0.885   2.038  11.224 -1.0063 -2.3248  0.5481
 1000MOL0     H34944   0.923   1.868  11.255  4.2706 -2.6874 -0.5713
 1000MOL0     H34945   1.166   1.918  11.190  1.2424  1.2123 -0.4101
 1000MOL0     H34946   1.125   2.093  11.182 -0.0663  1.1941  1.6944
 1000MOL0     H34947   1.038   2.044  11.423  0.7731  2.0535 -0.8087
 1000MOL0     H34948   1.172   1.917  11.418 -0.8807  0.4892  3.9711
 1000MOL0     H34949   1.325   2.106  11.350 -0.4212  0.0099 -0.9172
 1000MOL0     H34950   1.244   2.120  11.515  0.7325  0.4557 -0.2244
 1000MOL0     H34951   1.333   2.317  11.208  0.4112 -0.6587 -0.3355
 1000MOL0     H34952   1.262   2.493  11.080  1.6405 -0.6328  2.3539
 1000MOL0     H34953   1.096   2.555  11.090  0.3067 -1.7409 -0.0433
 1000MOL0     H34954   1.282   2.729  11.113 -1.6660 -0.5767  0.0169
 1000MOL0     H34955   1.350   2.635  11.243  0.5104  0.0461 -1.2444
 1000MOL0     H34956   1.158   2.676  11.380  4.5993  0.0930 -0.0147
 1000MOL0     H34957   1.072   2.751  11.242 -0.7946 -1.1969 -0.3635
 1000MOL0     H34958   1.134   2.922  11.397 -1.2516 -0.9132 -0.3653
 1000MOL0     H34959   1.233   2.941  11.252  3.2165 -2.5929  0.5650
 1000MOL0     H34960   1.350   3.115  11.298  0.9456  0.7475 -2.2505
 1000MOL0     H34961   1.590   3.289  11.179  0.1733  2.2466 -0.0339
 1000MOL0     H34962   1.426   3.309  11.245 -0.1326 -1.6695  1.0677
 1000MOL0     H34963   1.567   3.367  11.329 -3.4151  2.1229  1.3311
 1000MOL0     H34964   1.971   3.378  11.153  0.7401 -1.2178 -0.3190
 1000MOL0     H34965   2.138   3.578  11.185  1.0904  0.0682 -0.2718
 1000MOL0     H34966   2.328   3.530  11.455  1.5278 -0.5180 -0.9741
 1000MOL0     H34967   2.388   3.694  11.398  1.0242 -1.6428 -0.4756
 1000MOL0     H34968   2.284   3.793  11.606  3.9456  1.0180 -0.6116
 1000MOL0     H34969   2.240   3.626  11.646 -1.2746 -0.1805 -1.5599
 1000MOL0     H34970   2.508   3.739  11.627 -3.2223  0.3851 -3.7778
 1000MOL0     H34971   2.474   3.582  11.702 -0.1400  0.2496 -0.3335
 1000MOL0     H34972   2.348   3.815  11.831  1.8132  1.8330 -0.3735
 1000MOL0     H34973   2.389   3.640  11.885  0.6807  0.9533 -0.4104
 1000MOL0     H34974   2.579   3.866  11.811  1.5475 -3.0106 -2.9100
 1000MOL0     H34975   2.623   3.709  11.893 -0.9132 -0.2492  2.1523
 1000MOL0     H34976   2.486   3.934  12.010 -0.6937 -0.4395  0.5828
 1000MOL0     H34977   2.512   3.782  12.099 -1.1369  0.4097 -1.2747
 1000MOL0     H34978   2.745   3.815  12.108 -0.0342 -0.0672 -2.1219
 1000MOL0     H34979   2.676   3.981  12.152 -2.4427  1.1829 -1.0267
 1000MOL0     H34980   2.702   4.047  11.920 -1.6429 -2.5446 -2.1404
 1000MOL0     H34981   2.790   3.909  11.875  1.1255  0.9803  0.8187
 1000MOL0     H34982   2.050   3.597  11.593 -0.0871  2.3624 -0.6834
 1000MOL0     H34983   1.865   3.421  11.563 -5.4865  2.7691 -3.8760
 1000MOL0     H34984   1.773   2.947  11.452 -1.5170  0.0935  1.5786
 1000MOL0     H34985   1.579   2.787  11.451  4.6506  0.8582  0.6136
 1000MOL0     H34986   0.382   1.821  10.706 -0.5833  1.3220 -0.5250
 1000MOL0     H34987   0.225   1.893  10.576  3.1988 -2.1625  5.6829
 1000MOL0     H34988  -0.166   1.968  10.228  1.8001  0.2903  1.3155
 1000MOL0     H34989  -0.252   1.952  10.019  0.5810 -0.9101 -1.2645
 1000MOL0     H34990  -0.311   1.912   9.833  1.2899 -1.3113  3.8336
 1000MOL0     H34991  -0.281   1.851   9.659  2.7641 -0.4588 -0.9556
 1000MOL0     H34992  -0.402   1.692   9.821 -1.1647  1.7923  4.8684
 1000MOL0     H34993  -0.250   1.695   9.914  1.3787 -1.1323 -0.4452
 1000MOL0     H34994  -0.228   1.617   9.620  3.8640 -1.5657 -1.2175
 1000MOL0     H34995  -0.285   1.497   9.745  3.4066 -1.8850  1.1301
 1000MOL0     H34996  -0.075   1.560   9.865  0.6469  0.6007  0.1803
 1000MOL0     H34997  -0.014   1.621   9.703 -1.0934  0.2400  0.6143
 1000MOL0     H34998   0.032   1.222   9.600 -3.5659 -1.6001 -0.2764
 1000MOL0     H34999   0.136   1.873   9.844  2.9450  0.3311  1.7845
 1000MOL0     H35000   0.232   1.872  10.056  0.7068  1.2612 -1.6046
 1001MOL0     O35001   2.156   6.714   9.207  0.6162  0.6703 -0.2440
 1001MOL0     C35002   2.097   6.734   9.100  1.2668  0.2473  0.0726
 1001MOL0     O35003   2.057   6.849   9.048 -0.4263  0.3675  0.3134
 1001MOL0     C35004   2.086   6.977   9.093 -0.5750 -0.0200  0.0998
 1001MOL0     C35005   2.194   7.008   9.182  0.4046 -0.3572 -0.7545
 1001MOL0     C35006   2.210   7.142   9.211 -0.6977 -0.3685 -0.0005
 1001MOL0     C35007   2.123   7.250   9.169 -0.1592  0.1228  0.0192
 1001MOL0     O35008   2.138   7.382   9.199  0.4575  0.4593 -0.0049
 1001MOL0     C35009   2.250   7.430   9.273  1.1196  0.6013  0.1420
 1001MOL0     C35010   2.247   7.584   9.253 -0.6198  0.8701  0.2954
 1001MOL0     C35011   2.251   7.631   9.114  0.5154 -0.6004  0.5717
 1001MOL0     C35012   2.380   7.594   9.048  0.2243 -0.7283 -0.7480
 1001MOL0     C35013   2.343   7.524   8.913 -0.0155  0.7779 -0.2429
 1001MOL0     C35014   2.466   7.455   8.847  0.2739  0.3119 -0.0844
 1001MOL0     C35015   2.427   7.413   8.708 -0.6106  0.4068 -0.7779
 1001MOL0     C35016   2.565   7.365   8.642 -0.1432  0.5107  0.3881
 1001MOL0     N35017   2.573   7.377   8.495  0.7668  0.1607  0.5171
 1001MOL0     C35018   2.662   7.454   8.424  0.1674  0.6152  0.5238
 1001MOL0     C35019   2.659   7.397   8.301 -0.6972 -0.3897 -0.1675
 1001MOL0     C35020   2.753   7.442   8.192  0.7044 -0.0313 -0.0310
 1001MOL0     C35021   2.701   7.559   8.105  0.3850 -0.0660 -0.4853
 1001MOL0     C35022   2.768   7.569   7.970  0.5341  0.5936  0.8438
 1001MOL0     C35023   2.906   7.635   7.956  0.7093 -0.1072 -0.0520
 1001MOL0     O35024   2.978   7.657   8.076 -0.2045 -0.8146 -0.0289
 1001MOL0     C35025   3.099   7.717   8.079  0.6797 -0.0066 -0.0113
 1001MOL0     C35026   3.155   7.786   7.965  0.1712  0.0163  0.3315
 1001MOL0     C35027   3.273   7.858   7.976 -0.4219 -0.2310  0.9517
 1001MOL0     C35028   3.316   7.926   7.845  0.7803 -0.3780  0.6082
 1001MOL0     C35029   3.345   7.849   8.092 -0.7725 -0.0244 -1.2634
 1001MOL0     C35030   3.470   7.910   8.103 -0.1110 -0.2130 -0.2681
 1001MOL0     O35031   3.476   8.043   8.077  0.6980  0.0961  0.9238
 1001MOL0     C35032   3.596   8.101   8.071 -0.8114 -0.4060  0.3890
 1001MOL0     C35033   3.645   8.139   8.196 -0.1470  0.7330 -0.4942
 1001MOL0     C35034   3.775   8.200   8.208  0.5032 -0.0256  0.8106
 1001MOL0     C35035   3.854   8.212   8.096  0.0073  0.3521 -0.7862
 1001MOL0     O35036   3.983   8.259   8.111 -0.1619  1.1276 -0.2733
 1001MOL0     C35037   4.016   8.359   8.208  0.4518 -0.1480  0.0983
 1001MOL0     C35038   3.928   8.487   8.194 -0.6391  0.3269  0.1400
 1001MOL0     C35039   3.977   8.569   8.077 -0.7452  0.0068 -0.5468
 1001MOL0     C35040   3.894   8.698   8.041  0.0474  0.7438 -0.1402
 1001MOL0     C35041   3.821   8.682   7.909  0.8665  1.4992 -0.1198
 1001MOL0     C35042   3.921   8.662   7.789 -0.0658 -0.9330  1.6311
 1001MOL0     C35043   3.854   8.711   7.657 -0.2685  0.5143  0.1839
 1001MOL0     C35044   3.716   8.654   7.605 -0.4518 -0.5109  0.0142
 1001MOL0    Cl35045   3.645   8.740   7.465 -0.0983 -0.5298 -0.4596
 1001MOL0     C35046   3.812   8.146   7.982 -0.0572  1.0077  0.0483
 1001MOL0     C35047   3.683   8.095   7.958  0.3259 -0.9434  0.3667
 1001MOL0     O35048   3.570   7.842   8.142  0.1286 -0.5976  0.1777
 1001MOL0     C35049   3.303   7.766   8.200  0.2536 -1.0067  0.2572
 1001MOL0     C35050   3.179   7.702   8.194  0.5640  0.6612 -0.9426
 1001MOL0     N35051   2.560   7.296   8.291 -0.1922  0.1097 -0.2689
 1001MOL0     N35052   2.512   7.283   8.411 -0.0151 -0.4467 -0.1932
 1001MOL0     C35053   2.025   7.213   9.080 -0.4491  0.0970  1.0878
 1001MOL0     C35054   2.001   7.084   9.044 -0.7892  0.2979 -0.2869
 1001MOL0     C35055   2.059   6.619   9.019  0.3235 -0.0841  0.6045
 1001MOL0     C35056   2.002   6.632   8.884  0.3676 -0.0875 -0.3077
 1001MOL0     C35057   1.957   6.518   8.809 -0.6670  0.7006  0.9120
 1001MOL0     C35058   1.980   6.386   8.855  0.1936 -1.6623  0.0619
 1001MOL0     O35059   1.943   6.267   8.797  0.6620  0.4287  0.8499
 1001MOL0     C35060   1.911   6.261   8.656  0.0387 -0.0199  0.8553
 1001MOL0     C35061   2.029   6.270   8.572 -0.1352 -0.2847 -0.0065
 1001MOL0     C35062   2.009   6.256   8.420 -0.1353  0.5758 -0.5506
 1001MOL0     C35063   2.137   6.228   8.343  0.2543 -0.6074 -0.1077
 1001MOL0     C35064   2.220   6.118   8.395  0.2373 -1.2814  0.4481
 1001MOL0     C35065   2.300   6.037   8.430  0.6471  1.2864 -0.4490
 1001MOL0     C35066   2.040   6.376   8.981  0.3100 -0.7292  1.2811
 1001MOL0     C35067   2.079   6.482   9.062 -0.2880 -0.1501  0.0369
 1001MOL0     H35068   2.254   6.928   9.223 -1.9408 -1.0013  1.6956
 1001MOL0     H35069   2.298   7.175   9.264 -1.6471  0.7309  0.9203
 1001MOL0     H35070   2.235   7.393   9.376  1.2705  1.6771  0.5614
 1001MOL0     H35071   2.336   7.380   9.228 -0.4915 -0.5594 -1.7941
 1001MOL0     H35072   2.150   7.618   9.290  0.7046  2.7809  2.2601
 1001MOL0     H35073   2.324   7.629   9.316 -1.2226  0.5829  1.2629
 1001MOL0     H35074   2.157   7.600   9.067  0.0685  2.5249 -0.8354
 1001MOL0     H35075   2.243   7.740   9.117 -0.1715 -0.6469  0.5815
 1001MOL0     H35076   2.443   7.683   9.037 -2.0037  1.1315  0.4857
 1001MOL0     H35077   2.448   7.530   9.104 -1.7382 -0.3984  2.2696
 1001MOL0     H35078   2.268   7.449   8.939 -2.0241  3.1868  1.3797
 1001MOL0     H35079   2.306   7.590   8.835 -0.9887  0.7397  0.1737
 1001MOL0     H35080   2.549   7.525   8.832 -0.4109  0.6683 -2.4723
 1001MOL0     H35081   2.508   7.367   8.898  3.2493 -0.4223 -3.4078
 1001MOL0     H35082   2.351   7.335   8.704 -0.6900  0.3833  0.5535
 1001MOL0     H35083   2.403   7.508   8.659  3.5933  1.4823 -1.1274
 1001MOL0     H35084   2.576   7.265   8.684  1.1951  0.5529  0.1952
 1001MOL0     H35085   2.646   7.428   8.679  0.9459 -1.8888  2.3750
 1001MOL0     H35086   2.727   7.526   8.472  1.1673  0.5196 -0.6408
 1001MOL0     H35087   2.848   7.479   8.232 -0.7821  5.5927 -0.7865
 1001MOL0     H35088   2.763   7.351   8.132 -0.5919  1.4316 -2.6520
 1001MOL0     H35089   2.725   7.656   8.151  1.3988 -0.5768  0.0789
 1001MOL0     H35090   2.592   7.548   8.103  0.3146 -0.4880  2.5430
 1001MOL0     H35091   2.699   7.631   7.913 -0.3920 -0.4240  0.8333
 1001MOL0     H35092   2.772   7.472   7.920  1.1224 -0.2357  2.4348
 1001MOL0     H35093   2.898   7.733   7.908  1.5252 -0.4809 -0.9877
 1001MOL0     H35094   2.963   7.575   7.885 -1.0157 -2.0202  0.0921
 1001MOL0     H35095   3.108   7.789   7.867  1.8569 -4.7710 -0.9113
 1001MOL0     H35096   3.231   7.969   7.790  1.9065  1.2572  0.0786
 1001MOL0     H35097   3.387   8.005   7.867  1.9094 -0.8348 -1.2170
 1001MOL0     H35098   3.371   7.858   7.779 -1.6309  1.1915 -3.4165
 1001MOL0     H35099   3.574   8.125   8.276 -0.4767  1.9615 -0.5561
 1001MOL0     H35100   3.806   8.231   8.308  3.0621  1.5066 -0.3541
 1001MOL0     H35101   3.999   8.317   8.307  2.1538  1.0606  0.9500
 1001MOL0     H35102   4.123   8.382   8.210 -0.0955  2.6075  0.9323
 1001MOL0     H35103   3.823   8.455   8.189 -0.4222 -0.7229  1.6915
 1001MOL0     H35104   3.951   8.539   8.287  1.4045 -2.0522  1.0690
 1001MOL0     H35105   3.983   8.500   7.993  2.3893  2.7684 -2.8685
 1001MOL0     H35106   4.081   8.593   8.100 -0.8223  1.6787 -1.7821
 1001MOL0     H35107   3.818   8.717   8.117  0.2846 -2.2022  0.9491
 1001MOL0     H35108   3.948   8.793   8.045  0.1853  0.6493  0.3655
 1001MOL0     H35109   3.760   8.768   7.881  0.5774  2.0974  2.1822
 1001MOL0     H35110   3.743   8.609   7.932  0.0293  2.4276  0.0113
 1001MOL0     H35111   4.005   8.730   7.807 -1.1838  0.8004  0.5353
 1001MOL0     H35112   3.966   8.562   7.781  2.5332  0.0950  2.2974
 1001MOL0     H35113   3.930   8.707   7.578  0.7161  0.3269  1.1205
 1001MOL0     H35114   3.836   8.816   7.683  0.3483  0.4496  0.9186
 1001MOL0     H35115   3.643   8.676   7.683 -0.0096  1.5430 -0.1016
 1001MOL0     H35116   3.734   8.549   7.582  1.6700  0.5526 -4.2360
 1001MOL0     H35117   3.881   8.160   7.899 -0.7739  0.4732 -0.6553
 1001MOL0     H35118   3.662   8.054   7.859 -0.5069  1.1576 -0.3881
 1001MOL0     H35119   3.353   7.757   8.295 -1.6849  1.7451  1.6637
 1001MOL0     H35120   3.141   7.641   8.276 -0.2170 -0.2650 -1.9618
 1001MOL0     H35121   1.960   7.292   9.044  1.1848  0.5678 -0.9886
 1001MOL0     H35122   1.932   7.054   8.966 -2.0343  2.4101 -0.0663
 1001MOL0     H35123   1.989   6.730   8.837 -1.5199  0.5209  1.3527
 1001MOL0     H35124   1.924   6.541   8.708  0.4816 -1.1323  0.0660
 1001MOL0     H35125   1.861   6.167   8.631  1.4674 -0.8496  1.0425
 1001MOL0     H35126   1.841   6.342   8.632  2.3907  2.5633  2.1923
 1001MOL0     H35127   2.108   6.207   8.614  0.8289 -0.2071 -1.6037
 1001MOL0     H35128   2.069   6.372   8.583  1.2017 -0.5732 -1.6949
 1001MOL0     H35129   1.963   6.347   8.382  0.4899  0.1366 -2.4692
 1001MOL0     H35130   1.930   6.180   8.424  0.6894 -0.2504  1.3969
 1001MOL0     H35131   2.200   6.316   8.329 -1.0712 -0.1466 -5.1351
 1001MOL0     H35132   2.107   6.199   8.242 -3.2288  1.0338  0.2954
 1001MOL0     H35133   2.349   5.949   8.465 -1.8715 -0.9495 -2.1569
 1001MOL0     H35134   2.051   6.279   9.030 -1.5779 -1.1083  1.0155
 1001MOL0     H35135   2.117   6.461   9.161 -1.6441  1.4629  0.9396
 1002MOL0     O35136   4.579   6.228   3.821  0.3790 -0.2660  0.5890
 1002MOL0     C35137   4.506   6.146   3.874 -1.0344 -0.3514 -0.4519
 1002MOL0     O35138   4.376   6.171   3.901 -0.0045 -0.1280 -0.0844
 1002MOL0     C35139   4.315   6.258   3.813  0.2138  0.2644  0.3788
 1002MOL0     C35140   4.315   6.400   3.831 -0.1403 -0.8204  0.9995
 1002MOL0     C35141   4.260   6.488   3.730 -0.3677  0.2654 -0.2040
 1002MOL0     C35142   4.213   6.426   3.615  0.4401  0.5769  0.1630
 1002MOL0     O35143   4.160   6.513   3.523  0.5020  0.3997 -0.2161
 1002MOL0     C35144   4.206   6.515   3.398  0.0455  0.2725  1.1028
 1002MOL0     C35145   4.243   6.653   3.355 -0.0913 -0.4080  0.1214
 1002MOL0     C35146   4.325   6.667   3.230 -0.4641  0.1631 -0.2970
 1002MOL0     C35147   4.401   6.798   3.216 -0.2319  0.2008 -0.6335
 1002MOL0     C35148   4.473   6.813   3.081  0.3189  0.0644 -0.1906
 1002MOL0     C35149   4.425   6.926   2.998  1.5622 -0.5259 -0.3254
 1002MOL0     C35150   4.290   6.900   2.944 -0.4509  0.2406  0.0050
 1002MOL0     C35151   4.231   7.022   2.865 -0.1982  0.0123 -0.9135
 1002MOL0     N35152   4.294   7.034   2.734 -0.6059 -1.0882  0.7276
 1002MOL0     C35153   4.419   7.085   2.710 -1.1527  0.7144 -0.2659
 1002MOL0     C35154   4.454   7.032   2.590 -0.5376 -0.4361 -0.3788
 1002MOL0     C35155   4.593   7.056   2.538 -0.2192 -0.1767 -0.2570
 1002MOL0     C35156   4.665   7.194   2.566  0.2302 -0.0276  0.0935
 1002MOL0     C35157   4.585   7.325   2.538  0.0275  0.2043  0.0074
 1002MOL0     C35158   4.530   7.332   2.400  0.5626 -0.3183 -0.8686
 1002MOL0     O35159   4.637   7.323   2.309 -0.1508  0.3107 -0.1647
 1002MOL0     C35160   4.609   7.337   2.173 -0.2941  0.2744  0.2088
 1002MOL0     C35161   4.723   7.321   2.091 -0.1804 -0.0908 -0.2059
 1002MOL0     C35162   4.713   7.342   1.956  0.5018  1.0503  0.1867
 1002MOL0     C35163   4.828   7.293   1.879 -0.3936  0.5047  0.9321
 1002MOL0     C35164   4.592   7.375   1.892 -0.4253 -0.4367  0.1074
 1002MOL0     C35165   4.570   7.402   1.750 -0.4665  0.5637  0.5056
 1002MOL0     O35166   4.438   7.434   1.721  0.2017 -0.0307  0.6374
 1002MOL0     C35167   4.376   7.413   1.596  0.3863  0.0248 -0.3142
 1002MOL0     C35168   4.430   7.339   1.480 -0.5054 -0.2533  1.0008
 1002MOL0     C35169   4.371   7.336   1.354  1.3727 -0.4196  0.1333
 1002MOL0     C35170   4.249   7.405   1.334  0.3105 -0.0114  0.0127
 1002MOL0     O35171   4.185   7.412   1.208 -0.2680 -0.0843 -0.5335
 1002MOL0     C35172   4.254   7.389   1.082  0.0717 -0.3719  0.2312
 1002MOL0     C35173   4.259   7.244   1.039  0.6412  0.3737 -0.9483
 1002MOL0     C35174   4.311   7.255   0.890 -0.1882  0.9981 -0.1403
 1002MOL0     C35175   4.288   7.119   0.827  0.1143 -0.3654  0.1542
 1002MOL0     C35176   4.308   7.123   0.675 -0.3073 -0.5993  0.6837
 1002MOL0     C35177   4.448   7.174   0.640  0.6115 -0.6536 -0.7070
 1002MOL0     C35178   4.482   7.172   0.498  1.1088  0.4676  0.4817
 1002MOL0     C35179   4.627   7.211   0.469  0.2667 -1.5529 -0.5610
 1002MOL0    Cl35180   4.742   7.095   0.555  0.0936 -0.1754  0.5702
 1002MOL0     C35181   4.184   7.466   1.439  0.5486  0.7029  0.1557
 1002MOL0     C35182   4.248   7.475   1.567  0.3464 -0.0584  0.1191
 1002MOL0     O35183   4.662   7.387   1.673  0.7905  0.6442 -0.6067
 1002MOL0     C35184   4.478   7.397   1.981 -0.9289  0.2326  0.0043
 1002MOL0     C35185   4.481   7.368   2.117  0.4555 -0.4686  0.2015
 1002MOL0     N35186   4.353   6.965   2.545  0.4999  0.0811  1.2426
 1002MOL0     N35187   4.255   6.964   2.630 -0.3574  0.0227 -0.9512
 1002MOL0     C35188   4.208   6.290   3.601  0.2462 -0.2579 -0.1423
 1002MOL0     C35189   4.258   6.209   3.698 -0.3501 -0.3565  0.1804
 1002MOL0     C35190   4.549   6.007   3.902 -1.0230 -0.3853 -1.0119
 1002MOL0     C35191   4.682   5.981   3.933  0.0172 -0.1172 -0.2695
 1002MOL0     C35192   4.716   5.859   3.974  0.3891 -0.0057  0.6206
 1002MOL0     C35193   4.625   5.751   3.979 -0.3046  0.5758  0.2475
 1002MOL0     O35194   4.647   5.621   3.996 -0.4422 -0.0294  0.3914
 1002MOL0     C35195   4.773   5.565   3.987 -0.4657  0.1208 -0.3708
 1002MOL0     C35196   4.850   5.534   4.113  0.4016 -0.5723  0.6223
 1002MOL0     C35197   4.784   5.534   4.249  0.3090  0.6408 -0.4640
 1002MOL0     C35198   4.789   5.670   4.306 -0.0983  0.0355 -0.2059
 1002MOL0     C35199   4.723   5.681   4.439  0.5807 -0.2874  0.3701
 1002MOL0     C35200   4.666   5.688   4.548  0.8444 -0.1856  0.1907
 1002MOL0     C35201   4.492   5.781   3.955 -0.3865  0.1732 -0.0399
 1002MOL0     C35202   4.452   5.911   3.930 -0.3177  0.9588  0.0952
 1002MOL0     H35203   4.371   6.438   3.916 -0.9047 -1.2315  1.6959
 1002MOL0     H35204   4.263   6.595   3.751  0.9785 -0.3454  3.4384
 1002MOL0     H35205   4.284   6.442   3.372 -1.3118 -1.0201  0.5476
 1002MOL0     H35206   4.121   6.493   3.334  0.3114  1.4648  0.3041
 1002MOL0     H35207   4.151   6.708   3.336  0.2360  0.1151  0.0241
 1002MOL0     H35208   4.297   6.697   3.439  1.1692 -2.3177  0.3844
 1002MOL0     H35209   4.402   6.590   3.229 -0.1735  0.4230 -2.2037
 1002MOL0     H35210   4.267   6.652   3.138 -0.2472  0.6957 -0.5298
 1002MOL0     H35211   4.327   6.878   3.225 -1.2771 -0.8185  0.1996
 1002MOL0     H35212   4.474   6.810   3.297  0.9002 -1.2201 -1.3941
 1002MOL0     H35213   4.576   6.832   3.113 -0.3615 -0.2886  2.4101
 1002MOL0     H35214   4.474   6.722   3.019  1.5698  0.9103 -1.4748
 1002MOL0     H35215   4.432   7.021   3.052  4.1913 -0.2874 -0.9100
 1002MOL0     H35216   4.497   6.944   2.918  0.0568  0.8062 -1.4398
 1002MOL0     H35217   4.283   6.817   2.873  2.0123 -1.1405  1.2293
 1002MOL0     H35218   4.226   6.885   3.031  1.6024  2.9836  2.2084
 1002MOL0     H35219   4.242   7.118   2.917 -4.5930  1.7018 -2.6128
 1002MOL0     H35220   4.124   7.015   2.844 -0.6192  2.0073  0.2526
 1002MOL0     H35221   4.464   7.154   2.780 -3.9601 -0.0957  2.5680
 1002MOL0     H35222   4.650   6.977   2.590 -1.9235 -0.6743  0.9380
 1002MOL0     H35223   4.592   7.042   2.430 -1.7399  1.3779 -0.4864
 1002MOL0     H35224   4.768   7.195   2.532  0.7431  0.1794  1.5753
 1002MOL0     H35225   4.678   7.205   2.674 -0.1471  0.3196  0.1066
 1002MOL0     H35226   4.655   7.408   2.556  1.1269 -0.1847 -2.1292
 1002MOL0     H35227   4.505   7.351   2.607 -0.3882 -0.6098 -0.1527
 1002MOL0     H35228   4.487   7.431   2.386 -0.1426 -0.6729 -1.2630
 1002MOL0     H35229   4.450   7.258   2.391 -1.2299  1.4941 -0.4412
 1002MOL0     H35230   4.820   7.292   2.129  0.2495  0.8664 -0.5375
 1002MOL0     H35231   4.806   7.200   1.825 -1.8146  1.5379 -0.3612
 1002MOL0     H35232   4.859   7.370   1.808  0.5967 -0.9632 -0.2988
 1002MOL0     H35233   4.916   7.280   1.943  1.0867 -0.2935 -1.1456
 1002MOL0     H35234   4.524   7.285   1.477 -1.3547 -1.7820 -1.1385
 1002MOL0     H35235   4.407   7.260   1.286 -1.8584 -1.9847 -0.0163
 1002MOL0     H35236   4.201   7.447   1.006  0.2764 -1.8554 -1.1000
 1002MOL0     H35237   4.355   7.429   1.080 -0.7926  1.9226 -1.0578
 1002MOL0     H35238   4.331   7.188   1.098 -0.5477 -0.4547 -0.2482
 1002MOL0     H35239   4.162   7.194   1.039 -0.4661  2.3530 -3.0038
 1002MOL0     H35240   4.415   7.289   0.891 -0.5745  2.2657 -0.7880
 1002MOL0     H35241   4.250   7.321   0.827  0.3450  0.8695 -0.7999
 1002MOL0     H35242   4.357   7.050   0.877  3.0553  1.1028 -1.5906
 1002MOL0     H35243   4.188   7.078   0.845 -0.6930  0.5654 -1.8343
 1002MOL0     H35244   4.235   7.194   0.634 -1.2116 -1.3661  0.9530
 1002MOL0     H35245   4.287   7.024   0.634  1.2006  0.0940 -2.0011
 1002MOL0     H35246   4.453   7.277   0.676  0.7981 -1.1698  0.7809
 1002MOL0     H35247   4.521   7.123   0.703 -1.3516 -3.4431 -0.4928
 1002MOL0     H35248   4.415   7.232   0.436  1.0597 -0.8459 -0.8119
 1002MOL0     H35249   4.482   7.072   0.453  1.0514  2.3457 -4.2132
 1002MOL0     H35250   4.637   7.313   0.508  0.7867 -1.2270 -1.5010
 1002MOL0     H35251   4.661   7.210   0.365  2.2113  0.9110 -0.0415
 1002MOL0     H35252   4.085   7.512   1.434 -0.4904 -0.4774  4.9380
 1002MOL0     H35253   4.198   7.515   1.655  0.2313  1.0739 -0.4587
 1002MOL0     H35254   4.382   7.420   1.936 -2.3204 -3.0926  0.9511
 1002MOL0     H35255   4.389   7.372   2.175 -0.9956 -2.7275 -1.7263
 1002MOL0     H35256   4.169   6.258   3.505 -0.1255 -1.2250  0.3233
 1002MOL0     H35257   4.262   6.101   3.684  1.9863 -0.5691  1.7427
 1002MOL0     H35258   4.748   6.063   3.909 -1.1013  0.1257 -2.8297
 1002MOL0     H35259   4.820   5.846   4.003  0.4916  1.7804  1.1617
 1002MOL0     H35260   4.767   5.473   3.929  3.4816 -0.5522 -0.0293
 1002MOL0     H35261   4.845   5.621   3.926  1.1730  0.0783  1.3985
 1002MOL0     H35262   4.937   5.600   4.117  0.2816 -0.4498  2.1152
 1002MOL0     H35263   4.894   5.436   4.096 -0.1279 -0.3889 -2.2539
 1002MOL0     H35264   4.833   5.467   4.319  0.2844  0.0101 -1.0363
 1002MOL0     H35265   4.680   5.510   4.226 -1.0579  3.5957  1.9566
 1002MOL0     H35266   4.753   5.744   4.234  5.3761  1.0179 -2.3576
 1002MOL0     H35267   4.892   5.703   4.320  0.0716  0.2954 -1.9255
 1002MOL0     H35268   4.621   5.704   4.643 -0.5277 -2.1939 -0.0729
 1002MOL0     H35269   4.408   5.713   3.957  0.1556 -0.4922  1.2653
 1002MOL0     H35270   4.345   5.925   3.924 -0.9846 -2.8030  0.7210
 1003MOL0     O35271   4.770   9.118   0.967  0.2226  0.0330 -0.7125
 1003MOL0     C35272   4.659   9.149   0.924  1.6164 -0.4749 -0.2844
 1003MOL0     O35273   4.591   9.267   0.958 -0.4727  0.1830  0.6584
 1003MOL0     C35274   4.653   9.343   1.045 -0.4967  0.1127  0.1285
 1003MOL0     C35275   4.759   9.429   0.998  0.4052 -0.8703  0.7307
 1003MOL0     C35276   4.815   9.527   1.071  0.3331 -0.2224 -0.9905
 1003MOL0     C35277   4.761   9.549   1.204  0.6890  0.2869  0.2967
 1003MOL0     O35278   4.818   9.647   1.280 -0.5943  0.4136 -0.1764
 1003MOL0     C35279   4.960   9.658   1.309 -0.8784  0.7924 -0.4116
 1003MOL0     C35280   4.978   9.737   1.438  0.0088  0.7037  0.4556
 1003MOL0     C35281   4.976   9.659   1.569  0.8148  0.2222  0.0608
 1003MOL0     C35282   5.107   9.577   1.594  0.8541  0.5258  1.0508
 1003MOL0     C35283   5.087   9.502   1.720  0.4231 -0.4304 -0.2848
 1003MOL0     C35284   5.202   9.421   1.779 -0.1732 -0.1100  0.8349
 1003MOL0     C35285   5.228   9.287   1.705  0.0804 -1.4711  0.5449
 1003MOL0     C35286   5.157   9.165   1.736 -0.6089 -1.4745 -0.3953
 1003MOL0     N35287   5.226   9.043   1.690  0.2573 -0.0509  0.1371
 1003MOL0     C35288   5.325   9.041   1.590  0.3872 -0.6117 -0.2464
 1003MOL0     C35289   5.331   8.904   1.558  0.5728  0.4891 -0.2026
 1003MOL0     C35290   5.422   8.845   1.443 -0.0213  0.3364  0.0310
 1003MOL0     C35291   5.366   8.902   1.305  0.8067 -0.3762 -0.4111
 1003MOL0     C35292   5.446   8.856   1.180 -0.4707 -1.0172 -0.0969
 1003MOL0     C35293   5.603   8.858   1.210 -0.0616  0.2687 -0.2761
 1003MOL0     O35294   5.669   8.880   1.084 -0.3982  0.0120  0.0396
 1003MOL0     C35295   5.658   9.003   1.022 -0.1839 -0.4807  0.0956
 1003MOL0     C35296   5.699   9.014   0.893 -0.2910  0.3283 -0.3643
 1003MOL0     C35297   5.700   9.130   0.818 -0.5209 -0.8676  0.4763
 1003MOL0     C35298   5.767   9.139   0.688 -0.0925  0.0138 -0.0618
 1003MOL0     C35299   5.638   9.248   0.876 -0.1891 -0.0833  0.3137
 1003MOL0     C35300   5.612   9.378   0.803  0.6121  0.3138 -0.5462
 1003MOL0     O35301   5.563   9.378   0.676 -0.4647  0.5126  0.1223
 1003MOL0     C35302   5.552   9.498   0.612  0.3857 -0.6558  1.3715
 1003MOL0     C35303   5.616   9.512   0.486  0.6765  1.1330 -0.1593
 1003MOL0     C35304   5.596   9.635   0.415 -0.6597  0.4289  1.2760
 1003MOL0     C35305   5.525   9.739   0.460 -0.1362  0.1740 -0.4400
 1003MOL0     O35306   5.506   9.860   0.399 -0.9608  0.3945 -0.2880
 1003MOL0     C35307   5.396   9.861   0.310  1.1290 -0.2094 -0.3718
 1003MOL0     C35308   5.384  10.004   0.249 -0.3851  0.7680 -0.5136
 1003MOL0     C35309   5.260  10.007   0.152 -0.8242  0.3972  0.5148
 1003MOL0     C35310   5.294   9.947   0.018  0.2313  0.3972  0.5182
 1003MOL0     C35311   5.164   9.951  -0.065  1.4567  0.8526  0.6205
 1003MOL0     C35312   5.173   9.843  -0.172 -0.1719 -0.4480 -0.4686
 1003MOL0     C35313   5.071   9.850  -0.277  0.2097 -0.8318 -0.2124
 1003MOL0     C35314   5.121   9.753  -0.401  0.4762 -0.0558  0.1204
 1003MOL0    Cl35315   5.221   9.819  -0.532  0.2116  0.5453  0.1027
 1003MOL0     C35316   5.457   9.719   0.590 -0.8261 -0.3918 -0.3080
 1003MOL0     C35317   5.477   9.601   0.663  0.1667 -0.0747 -0.1802
 1003MOL0     O35318   5.625   9.477   0.870 -1.0400  0.3158 -0.3602
 1003MOL0     C35319   5.601   9.237   1.007  0.3702 -0.6713 -0.3545
 1003MOL0     C35320   5.613   9.120   1.087 -0.0771  0.2813  1.2193
 1003MOL0     N35321   5.246   8.835   1.647 -0.8681  0.6691 -0.0333
 1003MOL0     N35322   5.182   8.920   1.717 -0.0389  0.0647  0.9112
 1003MOL0     C35323   4.661   9.472   1.250  0.1891  0.9792  0.2908
 1003MOL0     C35324   4.601   9.366   1.172 -1.1594 -0.9597  0.6783
 1003MOL0     C35325   4.597   9.044   0.844 -0.0105  0.4256  0.4063
 1003MOL0     C35326   4.460   9.064   0.800 -0.0874  0.4049  0.7001
 1003MOL0     C35327   4.390   8.972   0.731  0.3876  0.8177 -0.1699
 1003MOL0     C35328   4.440   8.849   0.692 -1.4250 -0.2215  1.5331
 1003MOL0     O35329   4.350   8.764   0.625  0.2749 -0.3228  0.6326
 1003MOL0     C35330   4.361   8.622   0.630 -0.6020  0.3870  0.2384
 1003MOL0     C35331   4.352   8.565   0.780 -0.5017 -0.1616  0.8758
 1003MOL0     C35332   4.249   8.631   0.868 -0.1880  0.3333  0.3982
 1003MOL0     C35333   4.233   8.551   1.004  0.2838  0.0644  1.4906
 1003MOL0     C35334   4.147   8.436   1.002  0.5795  0.1540 -1.1331
 1003MOL0     C35335   4.081   8.337   0.988 -0.4157  0.1465  0.3712
 1003MOL0     C35336   4.574   8.818   0.746  0.8045 -0.5343  0.3567
 1003MOL0     C35337   4.645   8.911   0.828 -0.3542  0.3475 -0.3929
 1003MOL0     H35338   4.811   9.407   0.905  0.0859  3.0177 -0.5517
 1003MOL0     H35339   4.894   9.587   1.027 -0.5872  0.7393 -1.3630
 1003MOL0     H35340   4.980   9.551   1.319 -0.8336  0.7289 -1.1552
 1003MOL0     H35341   5.020   9.696   1.226  2.8990 -3.7659 -0.2080
 1003MOL0     H35342   5.069   9.798   1.436 -0.1243  0.9639  1.6356
 1003MOL0     H35343   4.903   9.814   1.456 -0.1796  0.2407  1.7796
 1003MOL0     H35344   4.955   9.727   1.652  0.0860  2.1375 -1.6090
 1003MOL0     H35345   4.889   9.591   1.568  0.5864  0.3056  3.2760
 1003MOL0     H35346   5.127   9.502   1.516  3.6006  1.1554  1.0474
 1003MOL0     H35347   5.197   9.639   1.591  0.3649  1.3437  2.4909
 1003MOL0     H35348   5.057   9.580   1.790 -0.0971 -0.4923 -0.4377
 1003MOL0     H35349   5.003   9.435   1.703 -0.4019  0.4543  0.1982
 1003MOL0     H35350   5.295   9.478   1.788 -0.4206  0.2837  0.9039
 1003MOL0     H35351   5.172   9.387   1.878 -2.7743 -1.4721 -0.3242
 1003MOL0     H35352   5.219   9.304   1.598 -0.4014  1.3806  0.9752
 1003MOL0     H35353   5.333   9.273   1.734  0.4748  1.6339  0.9403
 1003MOL0     H35354   5.059   9.175   1.689 -1.3104  1.2125  1.4074
 1003MOL0     H35355   5.139   9.156   1.844 -0.8206  2.4536  0.0409
 1003MOL0     H35356   5.382   9.121   1.544  0.6759 -0.4469  0.3862
 1003MOL0     H35357   5.528   8.866   1.456  0.2993 -0.7348 -0.7338
 1003MOL0     H35358   5.404   8.738   1.453 -0.5126  0.4883  0.8652
 1003MOL0     H35359   5.369   9.011   1.313 -0.3414 -0.1782 -2.2659
 1003MOL0     H35360   5.265   8.862   1.292 -0.6835  1.6668  3.2261
 1003MOL0     H35361   5.420   8.920   1.094  3.1397  2.8556  1.3647
 1003MOL0     H35362   5.418   8.754   1.152 -4.1882 -1.1461  3.1252
 1003MOL0     H35363   5.631   8.765   1.260 -0.6243  0.4472  0.3838
 1003MOL0     H35364   5.629   8.932   1.286 -0.1131 -0.1783  0.1822
 1003MOL0     H35365   5.729   8.933   0.827 -2.7705 -0.0198 -1.1962
 1003MOL0     H35366   5.826   9.049   0.672  0.2388 -0.2675  2.3910
 1003MOL0     H35367   5.689   9.157   0.613 -2.7223  2.4456  2.9532
 1003MOL0     H35368   5.835   9.225   0.694 -1.6797  1.1953  2.1756
 1003MOL0     H35369   5.670   9.431   0.440 -3.5291 -1.6464 -0.7574
 1003MOL0     H35370   5.650   9.645   0.321  0.5749 -0.7211  1.8236
 1003MOL0     H35371   5.427   9.797   0.227  1.5915 -0.8817  0.3065
 1003MOL0     H35372   5.304   9.834   0.362  2.3390  0.7617  2.4866
 1003MOL0     H35373   5.384  10.076   0.332  4.1784 -0.8495  1.2050
 1003MOL0     H35374   5.474  10.045   0.202  0.4631 -1.4359 -0.8999
 1003MOL0     H35375   5.233  10.111   0.132  1.1039  0.9536  0.5810
 1003MOL0     H35376   5.177   9.954   0.200 -1.3943  0.8748  0.0675
 1003MOL0     H35377   5.374  10.014  -0.015  1.4344 -0.9630  0.6227
 1003MOL0     H35378   5.333   9.845   0.017  1.3354  0.8063  0.2487
 1003MOL0     H35379   5.154  10.049  -0.113  1.6401 -0.2649 -1.8871
 1003MOL0     H35380   5.077   9.925  -0.005  1.6358 -2.9246 -0.5161
 1003MOL0     H35381   5.270   9.840  -0.223 -0.1221  0.3708 -0.4398
 1003MOL0     H35382   5.160   9.751  -0.114 -0.7194  0.0370  0.2042
 1003MOL0     H35383   5.047   9.955  -0.296 -0.8964 -1.0992 -0.3566
 1003MOL0     H35384   4.973   9.817  -0.241 -1.3077  3.6818  0.4459
 1003MOL0     H35385   5.026   9.725  -0.448 -0.2478  3.0280 -0.4381
 1003MOL0     H35386   5.183   9.668  -0.369  2.4914  0.9804 -0.7998
 1003MOL0     H35387   5.396   9.803   0.624  1.1719  1.7443 -1.6701
 1003MOL0     H35388   5.421   9.585   0.755  0.9493 -1.7168  0.0522
 1003MOL0     H35389   5.559   9.317   1.067  1.4787 -0.9175  0.7687
 1003MOL0     H35390   5.571   9.124   1.187 -1.9218 -1.5669  0.5964
 1003MOL0     H35391   4.621   9.492   1.349 -0.4398  3.1900 -0.3434
 1003MOL0     H35392   4.523   9.298   1.206 -0.4537 -2.9587 -1.3831
 1003MOL0     H35393   4.415   9.159   0.824  0.1067  1.5331 -2.8744
 1003MOL0     H35394   4.289   9.003   0.704  0.7030  3.1267  1.0244
 1003MOL0     H35395   4.292   8.572   0.562 -0.7650  0.1955  0.5405
 1003MOL0     H35396   4.462   8.608   0.591 -1.9825 -3.5062 -2.6785
 1003MOL0     H35397   4.455   8.578   0.814  0.7947  1.8476 -3.1326
 1003MOL0     H35398   4.344   8.458   0.759  4.6234 -0.4387 -1.2766
 1003MOL0     H35399   4.147   8.625   0.827 -1.5305  0.3969  3.4672
 1003MOL0     H35400   4.281   8.734   0.887  0.2597  0.1780  0.4855
 1003MOL0     H35401   4.209   8.620   1.085  1.1311 -0.7536  2.4686
 1003MOL0     H35402   4.332   8.516   1.034  1.1625  1.4190  0.2797
 1003MOL0     H35403   4.016   8.254   0.970  1.9819 -2.1852  1.7257
 1003MOL0     H35404   4.611   8.718   0.725 -0.4389 -0.7451 -0.9985
 1003MOL0     H35405   4.734   8.875   0.878 -1.5396 -1.6518  0.4125
 1004MOL0     O35406   2.008   6.032   4.774  0.3236 -0.1567 -0.1944
 1004MOL0     C35407   2.079   5.944   4.727 -1.1519  1.1623 -0.1754
 1004MOL0     O35408   2.036   5.837   4.642  0.3688 -0.1288 -0.0473
 1004MOL0     C35409   1.902   5.831   4.608  0.2152 -0.3359 -0.7134
 1004MOL0     C35410   1.852   5.906   4.501  0.2182  0.2993 -0.4502
 1004MOL0     C35411   1.722   5.895   4.467  0.6850 -0.0912  0.1912
 1004MOL0     C35412   1.627   5.819   4.543  0.3751  0.2097  0.7274
 1004MOL0     O35413   1.496   5.804   4.507  0.2471  0.5486  0.4598
 1004MOL0     C35414   1.474   5.785   4.363 -0.5664 -0.9843 -0.4961
 1004MOL0     C35415   1.336   5.731   4.343 -0.3400 -0.6223 -0.0042
 1004MOL0     C35416   1.213   5.797   4.398 -0.4976 -0.2004  0.2959
 1004MOL0     C35417   1.095   5.793   4.300  0.4887 -0.0526 -0.8592
 1004MOL0     C35418   0.970   5.855   4.356  0.5281  0.3708  0.1855
 1004MOL0     C35419   0.861   5.869   4.236  0.3831  0.6863 -0.2775
 1004MOL0     C35420   0.719   5.928   4.293 -0.0759  0.8825  0.1262
 1004MOL0     C35421   0.607   5.922   4.190 -0.1324 -0.3136  0.8263
 1004MOL0     N35422   0.540   5.790   4.171  0.2470 -0.2914 -0.1473
 1004MOL0     C35423   0.454   5.748   4.268  0.3285  0.5854 -0.6463
 1004MOL0     C35424   0.423   5.625   4.238 -0.1991  0.4889 -0.4810
 1004MOL0     C35425   0.335   5.533   4.320 -0.5196 -0.1416 -0.0584
 1004MOL0     C35426   0.406   5.459   4.438  0.2776  0.4869  0.1753
 1004MOL0     C35427   0.313   5.354   4.508 -1.0310 -0.0611 -0.1384
 1004MOL0     C35428   0.383   5.289   4.622  0.4171  0.1433  0.0016
 1004MOL0     O35429   0.396   5.368   4.744  0.3656  0.3881  0.9404
 1004MOL0     C35430   0.387   5.301   4.868 -0.0910 -0.9523 -1.4193
 1004MOL0     C35431   0.309   5.353   4.976  0.1186 -0.3676  0.0842
 1004MOL0     C35432   0.308   5.296   5.105  0.5971  0.8339 -0.3905
 1004MOL0     C35433   0.201   5.351   5.197  0.2598 -0.3577  0.3785
 1004MOL0     C35434   0.379   5.170   5.122 -0.4456  0.0892  0.2883
 1004MOL0     C35435   0.366   5.086   5.246  0.5521  0.5840  0.3823
 1004MOL0     O35436   0.423   4.966   5.230  0.0833 -0.2572  0.0562
 1004MOL0     C35437   0.475   4.897   5.336  0.5577 -0.1270 -0.0022
 1004MOL0     C35438   0.391   4.866   5.446  0.4994 -1.3214 -0.9512
 1004MOL0     C35439   0.448   4.806   5.557  0.7110 -0.8697  0.2066
 1004MOL0     C35440   0.579   4.790   5.569  0.0592  0.6087 -0.0879
 1004MOL0     O35441   0.650   4.753   5.685  0.0128 -0.1532  0.1058
 1004MOL0     C35442   0.589   4.651   5.766 -0.3087 -0.7432 -0.1860
 1004MOL0     C35443   0.685   4.593   5.858 -0.4053 -0.1688 -0.4384
 1004MOL0     C35444   0.647   4.474   5.944 -0.4168  0.1963 -0.2607
 1004MOL0     C35445   0.619   4.345   5.873 -0.1945 -0.1801 -0.2149
 1004MOL0     C35446   0.575   4.230   5.972 -0.0351  0.0402  0.7933
 1004MOL0     C35447   0.677   4.184   6.076 -0.7866 -0.1479  0.5008
 1004MOL0     C35448   0.788   4.100   6.004  0.4780  0.2749  0.5469
 1004MOL0     C35449   0.827   3.973   6.071  0.3568 -0.2860 -0.4873
 1004MOL0    Cl35450   0.877   3.991   6.233 -0.2984 -0.3287  0.3738
 1004MOL0     C35451   0.663   4.826   5.464 -0.3603  0.3898 -0.4459
 1004MOL0     C35452   0.606   4.880   5.340  0.2581  0.4598 -0.7978
 1004MOL0     O35453   0.293   5.122   5.343  0.4877 -0.2290 -0.2312
 1004MOL0     C35454   0.461   5.132   5.017 -0.6666 -0.6149 -1.6102
 1004MOL0     C35455   0.467   5.196   4.898  0.3701  0.0932 -0.5485
 1004MOL0     N35456   0.501   5.585   4.123 -0.9549  0.0871 -0.6609
 1004MOL0     N35457   0.570   5.690   4.084  0.9944 -0.1435 -0.0912
 1004MOL0     C35458   1.684   5.743   4.650  0.1227 -0.5395 -0.2964
 1004MOL0     C35459   1.818   5.752   4.688  0.3290  0.6353 -0.2370
 1004MOL0     C35460   2.221   5.951   4.751 -1.0447  0.5064 -1.0317
 1004MOL0     C35461   2.281   6.073   4.797 -0.4315  0.4793 -0.5017
 1004MOL0     C35462   2.424   6.072   4.805 -0.2966 -0.2100  0.2117
 1004MOL0     C35463   2.509   5.976   4.754 -0.1841 -0.3610 -0.1594
 1004MOL0     O35464   2.646   5.970   4.769  0.4602 -0.1694  0.4097
 1004MOL0     C35465   2.706   6.058   4.869 -0.4323  0.3851  0.2355
 1004MOL0     C35466   2.719   6.196   4.819 -0.4233 -1.3261  0.4237
 1004MOL0     C35467   2.863   6.246   4.823 -0.1322  0.3067 -0.3096
 1004MOL0     C35468   2.869   6.403   4.831 -0.3971 -0.1198 -0.2838
 1004MOL0     C35469   2.824   6.469   4.706  0.5244  0.7364  0.1326
 1004MOL0     C35470   2.777   6.504   4.600 -0.0362 -0.4796  0.2464
 1004MOL0     C35471   2.451   5.870   4.694 -0.4113 -0.2731  0.5320
 1004MOL0     C35472   2.317   5.845   4.709  1.2164  0.5344  0.7039
 1004MOL0     H35473   1.925   5.950   4.434  1.7455 -1.2901  0.0975
 1004MOL0     H35474   1.694   5.950   4.378  0.3195  1.6785  1.3602
 1004MOL0     H35475   1.467   5.883   4.316  0.1906  0.2058  1.7043
 1004MOL0     H35476   1.549   5.727   4.309  1.5206  1.5391 -0.5312
 1004MOL0     H35477   1.330   5.734   4.234  1.1924  1.4866 -0.1015
 1004MOL0     H35478   1.338   5.628   4.378  0.2401  0.0738  2.1825
 1004MOL0     H35479   1.184   5.738   4.486  1.4078  1.8489  2.4716
 1004MOL0     H35480   1.244   5.898   4.428  1.4006 -0.6555 -0.0444
 1004MOL0     H35481   1.127   5.847   4.210  1.1593  0.6685 -0.1967
 1004MOL0     H35482   1.079   5.688   4.273  1.4259 -0.8230  1.3377
 1004MOL0     H35483   0.936   5.803   4.446 -2.1332  1.7435  0.0663
 1004MOL0     H35484   0.989   5.957   4.392  3.4109 -0.2916  0.7660
 1004MOL0     H35485   0.888   5.908   4.138 -0.3719  2.5205  0.2014
 1004MOL0     H35486   0.859   5.762   4.217  4.3255  0.1126  1.5493
 1004MOL0     H35487   0.683   5.861   4.371 -1.3054  1.1410 -0.2006
 1004MOL0     H35488   0.745   6.025   4.338  0.3934  0.9110 -0.1984
 1004MOL0     H35489   0.639   5.944   4.088 -1.1799  0.5671  0.6709
 1004MOL0     H35490   0.534   5.994   4.229 -1.6607 -0.8747 -0.8245
 1004MOL0     H35491   0.417   5.814   4.346 -4.4329 -0.4440 -1.7379
 1004MOL0     H35492   0.241   5.582   4.349 -1.2873 -2.4323  1.5964
 1004MOL0     H35493   0.313   5.456   4.246  2.2664  0.8251 -2.0595
 1004MOL0     H35494   0.449   5.522   4.517 -0.2415  0.1228  0.7574
 1004MOL0     H35495   0.492   5.410   4.391 -1.2865 -3.5629  1.1143
 1004MOL0     H35496   0.287   5.275   4.436 -0.0004 -0.3785 -0.1761
 1004MOL0     H35497   0.215   5.388   4.543 -0.1441  2.7270 -0.1083
 1004MOL0     H35498   0.483   5.251   4.597  0.1373 -0.2884 -0.4843
 1004MOL0     H35499   0.326   5.200   4.650 -0.5530  1.3250  1.9198
 1004MOL0     H35500   0.239   5.434   4.959  2.8640  1.6428 -2.9498
 1004MOL0     H35501   0.245   5.363   5.296  0.2633  0.1658  0.3179
 1004MOL0     H35502   0.169   5.447   5.156 -1.2783 -0.9618  0.0662
 1004MOL0     H35503   0.123   5.275   5.189  0.3491 -0.2648 -2.5973
 1004MOL0     H35504   0.287   4.895   5.434  0.2538 -2.3820 -1.5375
 1004MOL0     H35505   0.376   4.785   5.636 -0.0790  0.5087 -0.1173
 1004MOL0     H35506   0.517   4.700   5.831  1.9677 -0.1424  2.0479
 1004MOL0     H35507   0.550   4.569   5.704 -1.4035 -0.6648  0.3790
 1004MOL0     H35508   0.778   4.565   5.808  1.0182  4.1308 -0.6326
 1004MOL0     H35509   0.720   4.672   5.925  1.4681 -0.8876 -0.5055
 1004MOL0     H35510   0.558   4.504   6.001  0.6142 -0.1917  1.6570
 1004MOL0     H35511   0.723   4.460   6.022  1.2912 -0.4513 -1.9850
 1004MOL0     H35512   0.551   4.357   5.788 -0.6888 -0.7740  0.0889
 1004MOL0     H35513   0.715   4.305   5.837  1.2005 -1.4325  4.2579
 1004MOL0     H35514   0.550   4.136   5.922 -2.2147  1.4021 -0.8627
 1004MOL0     H35515   0.483   4.255   6.025  2.0247  0.7870  4.3687
 1004MOL0     H35516   0.724   4.269   6.126 -2.0785  0.9355 -0.0519
 1004MOL0     H35517   0.633   4.110   6.144 -0.3971  0.3415  1.2885
 1004MOL0     H35518   0.880   4.153   5.978  2.0427 -2.7091 -0.3918
 1004MOL0     H35519   0.749   4.067   5.907 -0.6146 -0.0332  1.0776
 1004MOL0     H35520   0.897   3.936   5.995 -0.0472  3.1893 -2.8117
 1004MOL0     H35521   0.741   3.905   6.078  0.1445  0.0842  0.6291
 1004MOL0     H35522   0.771   4.829   5.473 -0.0929  2.6035 -2.9179
 1004MOL0     H35523   0.665   4.911   5.254  2.5077  0.5691  0.6903
 1004MOL0     H35524   0.532   5.054   5.043 -1.8509 -0.3003  3.5442
 1004MOL0     H35525   0.526   5.165   4.812 -2.0492 -5.7587 -0.5813
 1004MOL0     H35526   1.623   5.679   4.713  2.2162 -0.5856  1.8024
 1004MOL0     H35527   1.861   5.682   4.759 -0.4373  0.9002  0.5175
 1004MOL0     H35528   2.235   6.170   4.813 -1.2278  0.2281 -1.1930
 1004MOL0     H35529   2.458   6.158   4.861  0.5284 -2.0417  2.7065
 1004MOL0     H35530   2.653   6.055   4.965 -1.1855  1.0719 -0.1511
 1004MOL0     H35531   2.792   5.997   4.898 -1.7132 -2.4710 -1.4742
 1004MOL0     H35532   2.662   6.263   4.885  1.3428  1.5101 -0.7079
 1004MOL0     H35533   2.678   6.217   4.720 -0.9818 -1.8259  0.5478
 1004MOL0     H35534   2.924   6.210   4.740  1.2617  1.3385  0.2340
 1004MOL0     H35535   2.895   6.204   4.919  3.0124 -0.2983 -1.5136
 1004MOL0     H35536   2.976   6.411   4.852  0.0013 -2.4243 -1.1993
 1004MOL0     H35537   2.803   6.431   4.914  1.0336 -2.3009  1.6899
 1004MOL0     H35538   2.715   6.542   4.521 -0.6760 -0.1390  0.8961
 1004MOL0     H35539   2.521   5.789   4.674 -2.1723 -2.1438  1.5925
 1004MOL0     H35540   2.287   5.748   4.673  0.9629  1.4121 -1.6328
 1005MOL0     O35541  10.012  11.381   9.287  0.2112 -0.0568 -0.5500
 1005MOL0     C35542  10.101  11.372   9.205  0.3844  0.6979  0.6157
 1005MOL0     O35543  10.236  11.388   9.234 -0.0223 -0.2247 -0.0998
 1005MOL0     C35544  10.266  11.426   9.363  0.6256 -0.2495  0.7382
 1005MOL0     C35545  10.225  11.546   9.422  0.2000  0.1538  0.3493
 1005MOL0     C35546  10.264  11.571   9.556  0.3361  0.5292 -0.1937
 1005MOL0     C35547  10.342  11.475   9.630 -0.0961  0.0386 -0.6945
 1005MOL0     O35548  10.370  11.513   9.762  0.1192 -0.5854  0.0309
 1005MOL0     C35549  10.298  11.439   9.855 -0.3802 -0.9975  0.1884
 1005MOL0     C35550  10.380  11.435   9.975  0.8573  0.7063  0.7985
 1005MOL0     C35551  10.351  11.546  10.076 -0.5116 -0.7782  1.1311
 1005MOL0     C35552  10.233  11.506  10.165 -0.2083 -0.8398 -0.2088
 1005MOL0     C35553  10.177  11.631  10.253  0.8685 -0.4417  0.8690
 1005MOL0     C35554  10.031  11.604  10.301 -0.5368 -1.5564 -0.5464
 1005MOL0     C35555   9.921  11.665  10.214  0.1846 -0.4407  0.1135
 1005MOL0     C35556   9.784  11.639  10.276  0.1791  0.5207 -0.0274
 1005MOL0     N35557   9.673  11.702  10.199  0.6153 -0.8923 -0.5556
 1005MOL0     C35558   9.644  11.840  10.195  1.1167 -0.8883 -0.7439
 1005MOL0     C35559   9.534  11.850  10.126  0.3475 -0.4175 -0.0815
 1005MOL0     C35560   9.461  11.978  10.082 -0.1161  0.6106 -0.1952
 1005MOL0     C35561   9.541  12.035   9.963  0.0339 -0.0847 -0.5312
 1005MOL0     C35562   9.537  11.953   9.833  0.1759  0.9770 -0.4108
 1005MOL0     C35563   9.668  11.973   9.751 -0.2502 -0.8998 -0.5420
 1005MOL0     O35564   9.699  12.110   9.724  0.7493  0.4452  0.3399
 1005MOL0     C35565   9.606  12.169   9.652  0.2658  0.0788 -0.5585
 1005MOL0     C35566   9.543  12.282   9.707 -0.5019 -0.0968  0.3527
 1005MOL0     C35567   9.468  12.367   9.624  0.4557 -0.2631 -0.2833
 1005MOL0     C35568   9.428  12.501   9.682 -0.3935  0.3555  0.1706
 1005MOL0     C35569   9.414  12.319   9.501  0.5169 -0.3911  0.2503
 1005MOL0     C35570   9.302  12.382   9.425 -0.1015 -0.4220 -0.3041
 1005MOL0     O35571   9.242  12.293   9.343  0.1451  0.2030  0.6738
 1005MOL0     C35572   9.153  12.336   9.249  0.9282  0.8089  0.6314
 1005MOL0     C35573   9.209  12.406   9.144 -0.3442 -0.2968 -0.7404
 1005MOL0     C35574   9.122  12.458   9.043  0.2114  0.1583 -0.1006
 1005MOL0     C35575   8.983  12.439   9.041  0.2303  0.4447 -0.9712
 1005MOL0     O35576   8.911  12.470   8.933 -0.0852 -0.8130  0.1896
 1005MOL0     C35577   8.776  12.429   8.908 -0.8199 -0.0950  0.0531
 1005MOL0     C35578   8.669  12.518   8.970 -0.7421  0.5577 -0.2067
 1005MOL0     C35579   8.653  12.656   8.907 -0.4357 -0.4355  0.3270
 1005MOL0     C35580   8.581  12.770   8.983  0.5295  1.1087 -0.8469
 1005MOL0     C35581   8.425  12.775   8.939  0.5455  0.8253  0.4550
 1005MOL0     C35582   8.414  12.856   8.813  0.2636  0.6001 -0.0997
 1005MOL0     C35583   8.279  12.847   8.746 -0.2588 -0.2163 -0.4933
 1005MOL0     C35584   8.232  12.703   8.731 -0.6625  0.2972 -0.1495
 1005MOL0    Cl35585   8.347  12.589   8.661  0.4841  0.0038  0.0082
 1005MOL0     C35586   8.930  12.376   9.153  0.7972 -0.6300 -0.3100
 1005MOL0     C35587   9.011  12.327   9.257 -0.2717 -0.2683 -0.0053
 1005MOL0     O35588   9.286  12.506   9.439 -0.0269 -0.5869 -0.0684
 1005MOL0     C35589   9.466  12.200   9.455 -0.4611 -0.2820  0.4698
 1005MOL0     C35590   9.555  12.121   9.531  0.3042  0.2173 -1.4482
 1005MOL0     N35591   9.498  11.719  10.088  0.4691  0.5472  0.1217
 1005MOL0     N35592   9.573  11.630  10.133  0.0386  0.0184 -0.7530
 1005MOL0     C35593  10.401  11.368   9.558  0.8063 -0.0040 -0.0259
 1005MOL0     C35594  10.365  11.337   9.426 -0.1346 -1.5187 -0.4267
 1005MOL0     C35595  10.077  11.352   9.061  0.6009 -0.7307 -0.4659
 1005MOL0     C35596  10.174  11.364   8.966  0.3178  0.5735 -0.5101
 1005MOL0     C35597  10.149  11.329   8.837  0.3125  0.3007 -0.2830
 1005MOL0     C35598  10.014  11.306   8.793 -0.0737  1.0750  0.0751
 1005MOL0     O35599   9.978  11.288   8.660  0.6387  0.2147  0.0988
 1005MOL0     C35600  10.050  11.383   8.573 -0.0754 -0.1158  0.5060
 1005MOL0     C35601   9.939  11.463   8.509  0.4156  0.1528 -0.1235
 1005MOL0     C35602   9.893  11.580   8.597 -0.2829 -0.0651  0.5027
 1005MOL0     C35603   9.948  11.716   8.555 -0.2219 -0.5022  0.7050
 1005MOL0     C35604  10.098  11.717   8.523 -0.4969 -0.4831 -0.4578
 1005MOL0     C35605  10.217  11.707   8.515 -0.4315 -0.2409  0.7022
 1005MOL0     C35606   9.913  11.297   8.883 -0.3432 -0.6913 -1.1480
 1005MOL0     C35607   9.947  11.315   9.020  0.7194 -0.4152  0.9325
 1005MOL0     H35608  10.150  11.610   9.376 -0.7549 -1.5740 -0.5702
 1005MOL0     H35609  10.218  11.653   9.611  0.8534  0.9772 -0.4230
 1005MOL0     H35610  10.199  11.486   9.864  0.9313  1.9460  0.4805
 1005MOL0     H35611  10.267  11.340   9.820 -0.4907 -1.3407  1.2060
 1005MOL0     H35612  10.364  11.337  10.023  3.1455 -2.0747 -3.4908
 1005MOL0     H35613  10.486  11.428   9.948  1.0370 -2.0931  1.8394
 1005MOL0     H35614  10.439  11.568  10.137 -0.3088  1.3996  0.1444
 1005MOL0     H35615  10.324  11.634  10.018 -0.8972 -2.1407 -0.8516
 1005MOL0     H35616  10.147  11.464  10.112 -0.9928  0.8040 -0.2941
 1005MOL0     H35617  10.263  11.418  10.224 -0.3890 -0.1192  0.9860
 1005MOL0     H35618  10.243  11.651  10.339  2.6816  0.1704 -0.5855
 1005MOL0     H35619  10.171  11.717  10.186 -1.7693 -0.0990  1.4613
 1005MOL0     H35620  10.014  11.498  10.321 -1.1874 -1.7336 -1.8754
 1005MOL0     H35621  10.018  11.643  10.402  2.0060  0.2167 -0.8005
 1005MOL0     H35622   9.928  11.774  10.212  1.6765 -0.5232 -1.2461
 1005MOL0     H35623   9.924  11.631  10.110  0.0524  0.2978 -0.1394
 1005MOL0     H35624   9.793  11.664  10.381  1.3126 -0.2048  0.0636
 1005MOL0     H35625   9.765  11.531  10.278  3.9913 -0.2718 -0.4560
 1005MOL0     H35626   9.699  11.918  10.248 -0.3619 -0.7808  0.7073
 1005MOL0     H35627   9.363  11.941  10.049  0.8118 -3.7655  1.3961
 1005MOL0     H35628   9.454  12.047  10.167  0.7651 -0.9576  1.2008
 1005MOL0     H35629   9.644  12.039  10.001  0.1900  3.1609 -1.0363
 1005MOL0     H35630   9.510  12.138   9.944 -1.5957 -0.1853  1.2620
 1005MOL0     H35631   9.446  11.982   9.780 -1.6151 -0.4295  1.6956
 1005MOL0     H35632   9.529  11.847   9.857  3.3697  0.3939 -1.5406
 1005MOL0     H35633   9.669  11.913   9.660 -1.3743 -1.2750 -0.3239
 1005MOL0     H35634   9.751  11.953   9.820 -2.1387  0.4918  2.3556
 1005MOL0     H35635   9.593  12.311   9.798  2.6478 -0.9063 -0.9863
 1005MOL0     H35636   9.467  12.572   9.608  3.3760 -1.1099  0.5004
 1005MOL0     H35637   9.321  12.519   9.695 -0.6810 -0.3870 -0.9779
 1005MOL0     H35638   9.488  12.507   9.773 -0.1033  0.2763 -0.0139
 1005MOL0     H35639   9.316  12.423   9.147 -0.5888  1.2264  0.3045
 1005MOL0     H35640   9.165  12.507   8.956  0.0371  1.6678  0.6337
 1005MOL0     H35641   8.769  12.431   8.799  0.3347 -1.4208 -0.0788
 1005MOL0     H35642   8.787  12.325   8.942  0.3923  0.2062  0.6616
 1005MOL0     H35643   8.575  12.463   8.958 -1.3617  1.5863 -0.1796
 1005MOL0     H35644   8.691  12.544   9.074 -0.2534  2.2110 -0.6888
 1005MOL0     H35645   8.616  12.648   8.805 -0.8057  4.0052 -0.0764
 1005MOL0     H35646   8.753  12.700   8.910 -1.7067  2.7328  1.2144
 1005MOL0     H35647   8.589  12.766   9.092  4.3601  0.2267 -1.0261
 1005MOL0     H35648   8.631  12.862   8.953  2.9670 -0.4016 -1.6071
 1005MOL0     H35649   8.367  12.813   9.024 -3.6551  0.3354 -1.9258
 1005MOL0     H35650   8.393  12.671   8.930 -1.5501  1.4429  0.2082
 1005MOL0     H35651   8.426  12.963   8.834 -0.3129  0.4620  1.0176
 1005MOL0     H35652   8.494  12.828   8.745 -1.5319 -2.8772 -1.0050
 1005MOL0     H35653   8.275  12.900   8.651  1.0905 -2.0578 -1.6362
 1005MOL0     H35654   8.201  12.895   8.806 -0.6517 -1.8139  0.3229
 1005MOL0     H35655   8.142  12.699   8.670 -0.5971  1.8360 -0.3800
 1005MOL0     H35656   8.214  12.664   8.832  0.6368  1.2793  0.4889
 1005MOL0     H35657   8.823  12.359   9.160  0.8010 -2.0806 -2.4786
 1005MOL0     H35658   8.991  12.277   9.351 -2.8038  3.1620  1.4975
 1005MOL0     H35659   9.454  12.158   9.355  1.1974 -4.0662  1.6593
 1005MOL0     H35660   9.595  12.032   9.485 -2.7787 -0.7042 -2.5904
 1005MOL0     H35661  10.475  11.304   9.605  1.9044  1.0710 -0.2373
 1005MOL0     H35662  10.416  11.253   9.379  2.6607 -0.9700  1.3512
 1005MOL0     H35663  10.261  11.418   9.001  0.6370 -0.4757  0.3721
 1005MOL0     H35664  10.227  11.364   8.771  2.1283  0.7371  1.9934
 1005MOL0     H35665  10.111  11.458   8.623  0.4757  0.4114 -0.9160
 1005MOL0     H35666  10.118  11.333   8.504  0.1979 -0.1540  0.7987
 1005MOL0     H35667   9.847  11.408   8.486  0.4852  0.0448 -0.1433
 1005MOL0     H35668   9.977  11.499   8.413 -0.2933  1.2606 -0.0082
 1005MOL0     H35669   9.920  11.563   8.702 -1.4744  1.2249  1.0511
 1005MOL0     H35670   9.784  11.588   8.592 -0.5858 -2.7852  1.0759
 1005MOL0     H35671   9.924  11.789   8.632 -1.8096  1.4446 -1.5252
 1005MOL0     H35672   9.906  11.749   8.460  3.0402 -2.2114 -1.5307
 1005MOL0     H35673  10.323  11.707   8.502 -0.5581 -1.9105 -0.8032
 1005MOL0     H35674   9.808  11.285   8.859 -0.9447 -0.6452  1.1749
 1005MOL0     H35675   9.868  11.306   9.094 -1.7661  1.1305 -1.3339
 1006MOL0     O35676  10.360   0.439   3.395  0.2176  0.2817 -0.5543
 1006MOL0     C35677  10.249   0.392   3.414  1.0800  0.5583  0.1245
 1006MOL0     O35678  10.191   0.354   3.531 -0.4119  0.0230  0.0514
 1006MOL0     C35679  10.275   0.342   3.645  0.3039  0.0762 -0.0928
 1006MOL0     C35680  10.338   0.458   3.689 -0.7867 -0.2550 -0.1585
 1006MOL0     C35681  10.436   0.437   3.797  0.5241  0.0925  0.2532
 1006MOL0     C35682  10.478   0.311   3.840  0.6654  1.1830 -0.0145
 1006MOL0     O35683  10.584   0.305   3.928  0.0397  0.0653  0.4053
 1006MOL0     C35684  10.626   0.181   3.993 -0.1728  0.0164 -0.2466
 1006MOL0     C35685  10.745   0.191   4.094  0.4669 -0.7021  0.6451
 1006MOL0     C35686  10.700   0.189   4.247 -0.6968  0.3473  0.6453
 1006MOL0     C35687  10.677   0.047   4.305 -0.4442 -0.1583  1.0027
 1006MOL0     C35688  10.741   0.037   4.444 -0.4531 -0.1549  1.7062
 1006MOL0     C35689  10.709  -0.093   4.508  0.2517 -0.8399  0.1402
 1006MOL0     C35690  10.761  -0.211   4.439 -0.3465  1.0486  0.4306
 1006MOL0     C35691  10.907  -0.249   4.472 -0.0991  0.6774 -0.1036
 1006MOL0     N35692  10.927  -0.306   4.605  0.0777  0.6206 -0.2935
 1006MOL0     C35693  10.972  -0.239   4.710 -0.6891  0.5170  0.4418
 1006MOL0     C35694  10.999  -0.329   4.812 -0.8569  1.2794 -0.2895
 1006MOL0     C35695  11.072  -0.313   4.939  0.1152  0.4440  0.6638
 1006MOL0     C35696  11.015  -0.380   5.066  0.6507  0.2932 -1.1715
 1006MOL0     C35697  11.074  -0.519   5.091 -0.2724 -0.0525  0.8710
 1006MOL0     C35698  11.090  -0.615   4.983 -0.6429 -0.2266 -0.2023
 1006MOL0     O35699  11.144  -0.732   5.052 -0.2069  0.6141 -0.0943
 1006MOL0     C35700  11.218  -0.823   4.985 -0.5407 -1.1676  0.4085
 1006MOL0     C35701  11.209  -0.851   4.845  0.3117  0.4503 -1.7114
 1006MOL0     C35702  11.269  -0.959   4.779  0.3858 -0.2530  0.6270
 1006MOL0     C35703  11.236  -0.983   4.635 -0.0606 -0.1683  0.4388
 1006MOL0     C35704  11.366  -1.037   4.850  0.2909 -0.1499 -0.8669
 1006MOL0     C35705  11.442  -1.158   4.788  0.0703 -0.1886  0.7834
 1006MOL0     O35706  11.512  -1.239   4.869 -0.2767  0.2174 -0.2347
 1006MOL0     C35707  11.544  -1.361   4.812 -0.2983  0.8895  1.3690
 1006MOL0     C35708  11.676  -1.393   4.792  0.4951  0.4176  0.1009
 1006MOL0     C35709  11.703  -1.525   4.757 -0.2501  0.9208  0.5855
 1006MOL0     C35710  11.607  -1.620   4.724  0.3280 -0.6174 -0.8726
 1006MOL0     O35711  11.646  -1.737   4.670 -1.0015  1.0634  0.5193
 1006MOL0     C35712  11.551  -1.817   4.589  0.1862  0.4697 -0.4003
 1006MOL0     C35713  11.614  -1.929   4.504 -0.0182 -0.0197  0.0629
 1006MOL0     C35714  11.517  -1.995   4.415 -0.4065 -0.4404  0.0233
 1006MOL0     C35715  11.591  -2.072   4.296  0.3063 -0.1886  0.3570
 1006MOL0     C35716  11.530  -2.205   4.249 -0.1051  0.0878  0.1014
 1006MOL0     C35717  11.567  -2.317   4.341 -0.5737  0.2577 -0.9547
 1006MOL0     C35718  11.720  -2.355   4.327  0.2581 -0.4571 -0.7720
 1006MOL0     C35719  11.740  -2.498   4.264 -0.3243 -0.4363 -0.4124
 1006MOL0    Cl35720  11.899  -2.552   4.203 -0.2127 -0.0751 -0.2770
 1006MOL0     C35721  11.468  -1.585   4.754  0.0394  1.0694 -0.9927
 1006MOL0     C35722  11.442  -1.461   4.794  0.4669 -0.2706  0.1007
 1006MOL0     O35723  11.445  -1.166   4.667  0.1565  0.0141 -0.3449
 1006MOL0     C35724  11.393  -0.992   4.984 -0.4614 -0.2781  0.4253
 1006MOL0     C35725  11.316  -0.892   5.051  0.2102  0.7044 -0.7288
 1006MOL0     N35726  10.955  -0.450   4.758 -0.1910  0.6859 -0.1022
 1006MOL0     N35727  10.914  -0.439   4.638 -0.4336 -0.3274 -0.1294
 1006MOL0     C35728  10.407   0.202   3.794  0.1033  0.0232 -0.1830
 1006MOL0     C35729  10.307   0.218   3.690 -0.0246  0.7141  0.7921
 1006MOL0     C35730  10.166   0.372   3.294 -0.4880  0.3157 -1.0885
 1006MOL0     C35731  10.032   0.327   3.303  0.1852  0.6145  0.3295
 1006MOL0     C35732   9.950   0.314   3.191 -0.0444  0.2490  0.5459
 1006MOL0     C35733   9.997   0.324   3.065  0.7388 -0.0827 -0.2734
 1006MOL0     O35734   9.924   0.306   2.955  0.7774 -0.7544 -0.8949
 1006MOL0     C35735   9.784   0.338   2.971  0.0489 -0.2942  0.3401
 1006MOL0     C35736   9.728   0.336   2.834  1.3436 -0.3156 -0.7752
 1006MOL0     C35737   9.579   0.346   2.848 -0.9093  0.0766 -0.2293
 1006MOL0     C35738   9.506   0.368   2.707 -0.3209  0.5627 -0.5663
 1006MOL0     C35739   9.509   0.242   2.633 -1.3039  0.4359 -0.4335
 1006MOL0     C35740   9.516   0.128   2.579  0.0150 -0.6386 -0.5967
 1006MOL0     C35741  10.130   0.380   3.054 -0.2394 -0.1619 -0.5707
 1006MOL0     C35742  10.209   0.404   3.168 -0.3187 -0.1960 -0.4934
 1006MOL0     H35743  10.321   0.548   3.631 -1.8750  0.4493  1.2121
 1006MOL0     H35744  10.473   0.526   3.847  1.0982  0.6960 -1.1965
 1006MOL0     H35745  10.543   0.130   4.042  1.2508 -1.7561  0.4344
 1006MOL0     H35746  10.646   0.112   3.911 -3.0224 -0.6540 -0.4738
 1006MOL0     H35747  10.818   0.112   4.075  0.1641 -1.1956  1.5057
 1006MOL0     H35748  10.792   0.289   4.076 -1.2189 -0.2463 -1.6716
 1006MOL0     H35749  10.772   0.242   4.311 -1.7894  1.1027  1.2715
 1006MOL0     H35750  10.609   0.248   4.261 -0.5325  0.3218  1.9558
 1006MOL0     H35751  10.571   0.022   4.310 -1.7126  3.7457 -1.8865
 1006MOL0     H35752  10.720  -0.023   4.233 -0.5042 -0.8660  1.6395
 1006MOL0     H35753  10.846   0.066   4.437 -1.0553  2.1298  1.0547
 1006MOL0     H35754  10.695   0.119   4.500  0.7267  0.5364  1.7055
 1006MOL0     H35755  10.742  -0.083   4.611 -2.5546 -4.0291  1.5726
 1006MOL0     H35756  10.600  -0.104   4.519  0.0961 -1.1219 -1.3371
 1006MOL0     H35757  10.699  -0.299   4.459  1.1292  0.1107  1.0351
 1006MOL0     H35758  10.771  -0.195   4.331  2.6696  2.9115  0.8400
 1006MOL0     H35759  10.985  -0.176   4.450  2.1541 -1.3057  0.8135
 1006MOL0     H35760  10.925  -0.333   4.405  0.8636  0.3314  0.5547
 1006MOL0     H35761  11.003  -0.135   4.713 -0.6741  0.6438 -2.1059
 1006MOL0     H35762  11.172  -0.354   4.921 -0.1277 -1.1508  2.5605
 1006MOL0     H35763  11.091  -0.207   4.956  2.7695 -0.0688  1.4069
 1006MOL0     H35764  10.909  -0.402   5.048  0.1549 -0.5868  2.1982
 1006MOL0     H35765  11.022  -0.315   5.153 -0.0885 -0.5035 -0.4918
 1006MOL0     H35766  11.008  -0.565   5.165 -0.7550 -3.3851 -1.4562
 1006MOL0     H35767  11.173  -0.497   5.133  0.8390  0.4181 -1.7935
 1006MOL0     H35768  11.169  -0.581   4.915 -0.8406 -0.3414 -0.4911
 1006MOL0     H35769  10.994  -0.627   4.933 -0.4691 -0.2997 -0.5220
 1006MOL0     H35770  11.136  -0.792   4.790  1.4739  0.4913 -3.2521
 1006MOL0     H35771  11.149  -0.921   4.610  0.9560  0.4533 -1.8740
 1006MOL0     H35772  11.323  -0.949   4.578  1.8559 -0.7782  2.8585
 1006MOL0     H35773  11.204  -1.086   4.614 -4.8715  1.0980  0.2326
 1006MOL0     H35774  11.756  -1.321   4.808 -0.6349  1.9324 -0.8275
 1006MOL0     H35775  11.810  -1.539   4.745  0.0539  2.2571  1.4483
 1006MOL0     H35776  11.474  -1.859   4.654  1.9154 -1.9528  0.1939
 1006MOL0     H35777  11.500  -1.755   4.514 -4.0073 -0.4107  1.4164
 1006MOL0     H35778  11.693  -1.885   4.443 -0.2757 -1.3787 -1.2890
 1006MOL0     H35779  11.650  -2.012   4.565 -0.5663  0.8680  1.6636
 1006MOL0     H35780  11.438  -1.929   4.377  0.6916  1.1968  0.4404
 1006MOL0     H35781  11.462  -2.070   4.471 -0.3406  0.4171  1.2712
 1006MOL0     H35782  11.587  -1.999   4.214 -1.3844 -1.4191 -0.7426
 1006MOL0     H35783  11.697  -2.086   4.314  0.9474  3.3707  0.0644
 1006MOL0     H35784  11.575  -2.226   4.151  3.1528 -2.2089  1.9245
 1006MOL0     H35785  11.422  -2.211   4.231 -0.2745 -0.1194  1.1453
 1006MOL0     H35786  11.531  -2.279   4.436 -0.8989  1.5428 -1.5739
 1006MOL0     H35787  11.500  -2.395   4.304 -1.6036  0.1926  0.9652
 1006MOL0     H35788  11.758  -2.354   4.430 -1.9623 -1.7689  0.1374
 1006MOL0     H35789  11.775  -2.281   4.269 -1.7704  0.7802 -1.1986
 1006MOL0     H35790  11.668  -2.515   4.184 -0.2986 -2.1982 -0.0953
 1006MOL0     H35791  11.711  -2.569   4.342 -2.8560  0.7352 -0.2013
 1006MOL0     H35792  11.381  -1.649   4.748 -1.6082  3.0468  0.2887
 1006MOL0     H35793  11.338  -1.437   4.815  1.0308  4.7068 -1.5733
 1006MOL0     H35794  11.468  -1.046   5.041  0.7282  1.3707  0.4812
 1006MOL0     H35795  11.339  -0.879   5.157  1.4654 -2.2817 -0.5236
 1006MOL0     H35796  10.421   0.098   3.819 -1.7802 -0.7915 -2.1757
 1006MOL0     H35797  10.254   0.134   3.646 -2.7687  1.2361  2.8558
 1006MOL0     H35798   9.996   0.313   3.405  3.0099  2.2752  1.6726
 1006MOL0     H35799   9.852   0.275   3.212 -0.2825  0.4288 -0.1874
 1006MOL0     H35800   9.724   0.269   3.031 -1.7566  0.6930 -0.2645
 1006MOL0     H35801   9.784   0.436   3.019 -1.4914  0.8181 -1.8097
 1006MOL0     H35802   9.753   0.249   2.772 -1.0558 -2.1358  0.6134
 1006MOL0     H35803   9.777   0.420   2.785 -0.4739  2.4677  1.7799
 1006MOL0     H35804   9.539   0.418   2.920 -2.0517  0.5899 -1.3475
 1006MOL0     H35805   9.540   0.252   2.888 -1.3434 -0.3835 -1.6903
 1006MOL0     H35806   9.569   0.433   2.645  0.8771 -0.8047 -0.8416
 1006MOL0     H35807   9.404   0.405   2.717 -0.9878 -1.1132 -0.8799
 1006MOL0     H35808   9.501   0.032   2.534  0.3180 -2.1900  2.3550
 1006MOL0     H35809  10.169   0.391   2.953  0.2628 -2.6492 -0.7081
 1006MOL0     H35810  10.310   0.441   3.152  0.0154 -1.7049 -2.1802
 1007MOL0     O35811   5.447   0.094   1.886 -0.5878 -0.4040  0.3825
 1007MOL0     C35812   5.491   0.057   1.992  0.2118  0.1095 -0.2108
 1007MOL0     O35813   5.522   0.132   2.100  1.0520  0.9978  0.6060
 1007MOL0     C35814   5.487   0.260   2.104  0.3324 -0.0861  0.4946
 1007MOL0     C35815   5.388   0.337   2.028 -0.0298 -0.1605 -1.0901
 1007MOL0     C35816   5.370   0.476   2.059 -0.4336  0.0167  0.1185
 1007MOL0     C35817   5.445   0.541   2.155  0.4133 -0.7053  0.0226
 1007MOL0     O35818   5.424   0.679   2.171 -0.0662  0.0917  0.0003
 1007MOL0     C35819   5.391   0.715   2.308  0.0548  0.1971 -0.0079
 1007MOL0     C35820   5.259   0.785   2.326  0.8875 -0.1085 -0.4561
 1007MOL0     C35821   5.267   0.870   2.453  0.5871  0.1313  0.1812
 1007MOL0     C35822   5.239   0.784   2.587 -0.1899  0.2762 -0.0825
 1007MOL0     C35823   5.248   0.873   2.702  0.2152  0.0248 -0.6265
 1007MOL0     C35824   5.238   0.794   2.835 -1.2010  0.4328  0.0926
 1007MOL0     C35825   5.251   0.886   2.947 -0.4858 -0.4595  0.0618
 1007MOL0     C35826   5.247   0.829   3.079 -0.3291  0.9782 -0.1318
 1007MOL0     N35827   5.261   0.921   3.190  0.1925  0.7651 -0.3681
 1007MOL0     C35828   5.161   0.974   3.277  0.1660  0.7124  0.3384
 1007MOL0     C35829   5.224   1.053   3.369  0.4454  0.3484  0.1453
 1007MOL0     C35830   5.165   1.134   3.487 -0.0218 -0.8669 -0.6155
 1007MOL0     C35831   5.133   1.278   3.456  0.2179  0.5846 -0.5412
 1007MOL0     C35832   5.098   1.350   3.581 -0.0950  0.5859 -0.8254
 1007MOL0     C35833   4.980   1.287   3.654  0.0620 -0.3672 -0.6990
 1007MOL0     O35834   4.861   1.280   3.567  0.1337  0.5459 -0.9894
 1007MOL0     C35835   4.741   1.215   3.611  0.5563  0.1138  0.2671
 1007MOL0     C35836   4.670   1.250   3.717  0.5546 -0.4017 -0.2216
 1007MOL0     C35837   4.558   1.184   3.766  0.3824 -0.2641 -0.0778
 1007MOL0     C35838   4.473   1.266   3.866 -0.0805  1.1432  0.0811
 1007MOL0     C35839   4.510   1.070   3.699  0.1352  0.7530 -0.0573
 1007MOL0     C35840   4.395   0.993   3.743  1.5772  0.4473  0.1675
 1007MOL0     O35841   4.311   0.931   3.641  0.2691  0.4274 -1.4071
 1007MOL0     C35842   4.225   0.841   3.689 -1.1416 -0.5449 -0.6249
 1007MOL0     C35843   4.104   0.872   3.743 -0.5843  0.4430  0.2144
 1007MOL0     C35844   4.020   0.782   3.798  0.9022  0.7004 -0.2215
 1007MOL0     C35845   4.041   0.645   3.789  0.1162  0.3980  0.6886
 1007MOL0     O35846   3.942   0.552   3.827 -0.4014 -0.1390  0.5356
 1007MOL0     C35847   3.982   0.419   3.804  0.4696  0.4807 -0.2641
 1007MOL0     C35848   3.891   0.316   3.863  0.0556  0.2654  0.5449
 1007MOL0     C35849   3.769   0.293   3.774  0.6917 -0.2401 -0.5871
 1007MOL0     C35850   3.715   0.153   3.794 -0.6499  0.5511  0.3260
 1007MOL0     C35851   3.647   0.126   3.929 -0.2565  0.1286 -0.5787
 1007MOL0     C35852   3.627  -0.025   3.976 -0.5470  0.2932  0.4571
 1007MOL0     C35853   3.607  -0.065   4.123 -0.4504  0.8654  0.1396
 1007MOL0     C35854   3.608  -0.220   4.136  0.3522  0.2875 -0.1591
 1007MOL0    Cl35855   3.751  -0.301   4.058 -0.5006 -0.1745  0.3988
 1007MOL0     C35856   4.170   0.603   3.732 -0.3472 -0.4355  0.5540
 1007MOL0     C35857   4.255   0.705   3.685 -0.2166 -0.5031  0.4460
 1007MOL0     O35858   4.367   0.983   3.858  0.3441  0.6138 -0.1173
 1007MOL0     C35859   4.576   1.032   3.581  0.3922 -0.4431  1.0075
 1007MOL0     C35860   4.692   1.102   3.537  0.1948  0.8666  1.2215
 1007MOL0     N35861   5.358   1.055   3.329 -0.1468 -0.4775  0.1371
 1007MOL0     N35862   5.382   0.982   3.225 -0.0855  0.2737 -0.3935
 1007MOL0     C35863   5.537   0.464   2.231  0.2420  0.5521 -0.8777
 1007MOL0     C35864   5.561   0.329   2.204  1.1538  0.4703  0.1009
 1007MOL0     C35865   5.510  -0.086   1.999  0.2080  0.5216  0.7513
 1007MOL0     C35866   5.481  -0.168   2.113  0.5457 -1.4068  0.8644
 1007MOL0     C35867   5.490  -0.308   2.112 -0.0040  0.0033  0.3778
 1007MOL0     C35868   5.533  -0.371   2.000  0.1187  0.6839  1.0260
 1007MOL0     O35869   5.536  -0.508   1.987 -0.4688  0.6798  0.2262
 1007MOL0     C35870   5.622  -0.571   2.082  0.1433 -0.0936 -0.5722
 1007MOL0     C35871   5.746  -0.615   2.019  0.2710 -0.3321 -0.7153
 1007MOL0     C35872   5.853  -0.493   2.022  0.0031 -0.2761 -0.6145
 1007MOL0     C35873   6.009  -0.517   1.973 -0.8019  0.2031 -0.4742
 1007MOL0     C35874   6.082  -0.402   1.983  0.3069 -1.1132 -0.4180
 1007MOL0     C35875   6.155  -0.302   2.000 -0.2075  0.4417  1.0109
 1007MOL0     C35876   5.572  -0.295   1.892 -0.4186  0.1440 -0.2346
 1007MOL0     C35877   5.555  -0.163   1.887  0.4162  0.8063  0.4542
 1007MOL0     H35878   5.338   0.306   1.938  1.2612  0.3395 -2.0158
 1007MOL0     H35879   5.300   0.542   2.008 -0.5632  1.0128  1.5175
 1007MOL0     H35880   5.387   0.631   2.379  3.5857  1.3663  1.8148
 1007MOL0     H35881   5.473   0.777   2.343  0.3448 -1.0556  1.6801
 1007MOL0     H35882   5.229   0.849   2.242  0.6338  0.3467 -0.0205
 1007MOL0     H35883   5.178   0.712   2.338  1.9975 -1.8806 -2.8293
 1007MOL0     H35884   5.358   0.929   2.469  0.9197 -0.2463 -0.3096
 1007MOL0     H35885   5.189   0.944   2.437  1.2648  1.3944  2.2824
 1007MOL0     H35886   5.136   0.751   2.572 -0.4879  2.3552 -4.0668
 1007MOL0     H35887   5.306   0.698   2.596 -0.1378  0.3276  0.0252
 1007MOL0     H35888   5.344   0.924   2.698  0.7353 -0.8756  0.0242
 1007MOL0     H35889   5.161   0.938   2.687 -1.2503 -1.3486  1.4233
 1007MOL0     H35890   5.153   0.725   2.844 -1.2352  0.3620 -0.7216
 1007MOL0     H35891   5.325   0.728   2.839  0.4356  2.5294  2.5046
 1007MOL0     H35892   5.344   0.941   2.931 -1.1178  0.7024  0.3250
 1007MOL0     H35893   5.172   0.961   2.945 -1.3528 -1.2853  1.3895
 1007MOL0     H35894   5.327   0.754   3.084 -0.2322  1.0417 -0.6613
 1007MOL0     H35895   5.147   0.786   3.079  0.5341 -1.1492 -0.5285
 1007MOL0     H35896   5.054   0.963   3.262  0.6715  0.1795 -4.7332
 1007MOL0     H35897   5.075   1.078   3.512  0.0271 -1.2042 -1.1763
 1007MOL0     H35898   5.242   1.141   3.564  2.3197 -1.0477 -2.7961
 1007MOL0     H35899   5.043   1.274   3.395 -2.1899 -0.6508  2.7547
 1007MOL0     H35900   5.218   1.327   3.407  2.2464 -1.9613  0.1728
 1007MOL0     H35901   5.074   1.454   3.558  0.5167  0.7630 -0.6831
 1007MOL0     H35902   5.183   1.350   3.650 -1.0078 -4.1273  0.6526
 1007MOL0     H35903   4.953   1.356   3.735  2.4473  0.4711 -0.5444
 1007MOL0     H35904   5.003   1.186   3.687  0.7421 -0.9434 -2.7835
 1007MOL0     H35905   4.713   1.332   3.772  2.4611 -0.6472 -1.2480
 1007MOL0     H35906   4.421   1.203   3.938 -1.7652 -0.1216 -2.1321
 1007MOL0     H35907   4.538   1.338   3.917  2.5539  0.9319 -2.7135
 1007MOL0     H35908   4.387   1.312   3.816  1.0712  1.7531 -1.4016
 1007MOL0     H35909   4.065   0.973   3.741 -1.8257 -0.0296 -0.8310
 1007MOL0     H35910   3.929   0.795   3.855  1.4094 -0.7211  0.9884
 1007MOL0     H35911   3.996   0.412   3.695 -1.2572  2.3838 -0.6787
 1007MOL0     H35912   4.078   0.400   3.852  0.6714  0.1973 -0.7721
 1007MOL0     H35913   3.952   0.227   3.877  3.4082  2.1751 -0.6230
 1007MOL0     H35914   3.854   0.356   3.958 -0.3494  0.9588  0.1066
 1007MOL0     H35915   3.812   0.295   3.673 -0.4805  1.7982 -1.1037
 1007MOL0     H35916   3.690   0.369   3.776  0.3066 -0.4675  3.8392
 1007MOL0     H35917   3.647   0.141   3.709  0.4533  0.1824 -0.5338
 1007MOL0     H35918   3.793   0.078   3.776 -1.3117  0.0508 -0.5040
 1007MOL0     H35919   3.550   0.172   3.949  0.0974 -0.4446  3.0245
 1007MOL0     H35920   3.726   0.162   3.995  2.3884 -3.1169 -1.6657
 1007MOL0     H35921   3.549  -0.083   3.926  0.7287 -1.0481 -0.0335
 1007MOL0     H35922   3.726  -0.063   3.948 -0.9671 -0.5459  0.0766
 1007MOL0     H35923   3.515  -0.021   4.162 -0.7424  2.5697 -2.2954
 1007MOL0     H35924   3.692  -0.028   4.183  2.2907 -2.4594 -1.3248
 1007MOL0     H35925   3.516  -0.242   4.081 -0.3035  0.6378  0.7912
 1007MOL0     H35926   3.607  -0.249   4.241 -2.0535  2.0704  0.3797
 1007MOL0     H35927   4.216   0.505   3.722 -2.5429 -1.3663 -1.1333
 1007MOL0     H35928   4.352   0.687   3.640 -1.5777 -0.4995 -2.7165
 1007MOL0     H35929   4.550   0.945   3.521  1.5525  0.3177 -0.6447
 1007MOL0     H35930   4.747   1.072   3.448 -3.4197  1.3815 -1.4401
 1007MOL0     H35931   5.592   0.514   2.311 -0.2603  2.9776 -1.9398
 1007MOL0     H35932   5.624   0.275   2.273  3.7202  2.6004 -0.4234
 1007MOL0     H35933   5.452  -0.116   2.203 -0.5792  1.5051 -1.0552
 1007MOL0     H35934   5.487  -0.381   2.193  0.1883 -2.3197 -1.5834
 1007MOL0     H35935   5.643  -0.503   2.166  1.2355 -1.4509  0.2812
 1007MOL0     H35936   5.558  -0.653   2.116  1.5952 -0.3201  1.9233
 1007MOL0     H35937   5.741  -0.648   1.915 -0.8673 -1.8772 -0.2197
 1007MOL0     H35938   5.792  -0.698   2.075  2.1298 -0.1457 -1.8902
 1007MOL0     H35939   5.863  -0.448   2.122 -5.5651 -1.4643  0.7842
 1007MOL0     H35940   5.818  -0.408   1.964  0.4147  1.7487  1.8886
 1007MOL0     H35941   6.012  -0.554   1.870  1.4953 -1.3633  0.0729
 1007MOL0     H35942   6.063  -0.594   2.029  3.1841  1.9285 -1.6642
 1007MOL0     H35943   6.239  -0.238   2.018  1.6171 -0.9005 -1.9074
 1007MOL0     H35944   5.592  -0.350   1.801 -0.9142  1.5021 -1.1927
 1007MOL0     H35945   5.586  -0.111   1.797 -1.1795 -0.7698 -1.0726
 1008MOL0     O35946   8.161  10.605   9.740 -0.8738  1.2668  0.7025
 1008MOL0     C35947   8.214  10.641   9.638  0.3112 -0.9640  0.1821
 1008MOL0     O35948   8.349  10.665   9.618  0.2730 -0.8761 -0.2586
 1008MOL0     C35949   8.451  10.605   9.693  0.2048  0.8250  0.3818
 1008MOL0     C35950   8.458  10.614   9.828  0.5312 -0.7830 -0.8911
 1008MOL0     C35951   8.568  10.573   9.906  0.8142 -0.6850 -0.3399
 1008MOL0     C35952   8.674  10.505   9.847  0.5129  0.1078 -0.1182
 1008MOL0     O35953   8.773  10.441   9.919  0.4454  0.1637 -0.2856
 1008MOL0     C35954   8.905  10.460   9.865 -0.2757 -0.4261  0.2680
 1008MOL0     C35955   9.008  10.420   9.969 -0.6448 -0.1942 -0.2846
 1008MOL0     C35956   9.155  10.437   9.935 -0.1540  0.5475 -0.2124
 1008MOL0     C35957   9.189  10.335   9.818  0.1776 -1.3155 -0.5145
 1008MOL0     C35958   9.345  10.334   9.801 -0.0641 -0.2698 -0.0446
 1008MOL0     C35959   9.396  10.455   9.724  0.5799 -0.7936 -0.1133
 1008MOL0     C35960   9.547  10.438   9.684 -0.3441  0.5675 -0.0482
 1008MOL0     C35961   9.590  10.577   9.620 -0.7176  0.3580 -0.5562
 1008MOL0     N35962   9.549  10.599   9.484 -0.2068  1.2035 -0.2907
 1008MOL0     C35963   9.424  10.629   9.432 -0.2969 -0.3575  0.1413
 1008MOL0     C35964   9.447  10.652   9.298 -0.0336 -0.5965  0.5530
 1008MOL0     C35965   9.338  10.705   9.199  0.6251 -0.4522 -1.0460
 1008MOL0     C35966   9.249  10.592   9.145  0.1290  0.7281 -0.1570
 1008MOL0     C35967   9.329  10.490   9.069 -0.6955  1.0578  0.3257
 1008MOL0     C35968   9.244  10.373   9.004  0.0718 -0.0189 -0.1721
 1008MOL0     O35969   9.207  10.269   9.099 -0.1581  0.2386  0.0696
 1008MOL0     C35970   9.157  10.151   9.046  0.1968  0.4289 -0.0044
 1008MOL0     C35971   9.113  10.064   9.138  0.0248 -0.2329 -0.6214
 1008MOL0     C35972   9.057   9.940   9.104  0.2054  0.9815  0.4487
 1008MOL0     C35973   9.033   9.853   9.223 -0.2597 -0.2328  0.0189
 1008MOL0     C35974   9.045   9.902   8.960  0.3194 -0.1357 -0.6689
 1008MOL0     C35975   8.999   9.770   8.912  0.4843  0.4164 -0.1437
 1008MOL0     O35976   9.013   9.746   8.780  0.5233  0.5741  0.0992
 1008MOL0     C35977   8.992   9.614   8.728  1.0695  0.9266 -0.2688
 1008MOL0     C35978   9.092   9.514   8.729  0.3149 -0.0191  0.4132
 1008MOL0     C35979   9.062   9.384   8.674  0.2501 -0.1610 -0.8194
 1008MOL0     C35980   8.934   9.362   8.625 -0.2557  0.3645  0.1899
 1008MOL0     O35981   8.916   9.235   8.561  1.0546 -1.0041 -0.4828
 1008MOL0     C35982   8.789   9.193   8.514  0.2907 -0.4628  0.6233
 1008MOL0     C35983   8.791   9.070   8.403  0.3214 -1.2358 -0.0992
 1008MOL0     C35984   8.877   8.964   8.475 -0.6788  0.0459  1.0297
 1008MOL0     C35985   8.875   8.840   8.380 -0.0064  0.5033 -1.2078
 1008MOL0     C35986   8.968   8.732   8.446 -0.4926 -0.8740  0.2257
 1008MOL0     C35987   8.909   8.665   8.574 -0.1270  0.3116  0.5035
 1008MOL0     C35988   8.993   8.544   8.624 -1.2325  0.2353  0.1141
 1008MOL0     C35989   8.903   8.446   8.708  0.1947 -0.7267  0.3609
 1008MOL0    Cl35990   8.862   8.544   8.859  0.3449  0.0102 -0.1435
 1008MOL0     C35991   8.844   9.463   8.613  0.8063  0.0591  0.1868
 1008MOL0     C35992   8.866   9.589   8.673 -0.4453  0.5345  0.0700
 1008MOL0     O35993   8.934   9.702   8.992  0.9278  0.0842  0.1555
 1008MOL0     C35994   9.096   9.995   8.869  0.9765 -0.4605  0.5626
 1008MOL0     C35995   9.135  10.123   8.902 -0.3342 -0.0237  0.0725
 1008MOL0     N35996   9.579  10.619   9.274  0.2856 -0.4870  0.7876
 1008MOL0     N35997   9.635  10.577   9.380 -0.6861 -0.5634 -0.3344
 1008MOL0     C35998   8.672  10.482   9.706 -0.1562 -0.0544 -0.1075
 1008MOL0     C35999   8.558  10.527   9.638  0.0755  0.6827 -0.4148
 1008MOL0     C36000   8.121  10.662   9.524  0.5586  0.4222 -0.3530
 1008MOL0     C36001   8.167  10.682   9.394  0.8093  0.6103  0.5433
 1008MOL0     C36002   8.076  10.703   9.285 -0.5485 -0.2381  0.6891
 1008MOL0     C36003   7.938  10.700   9.307  0.5106  0.9518  0.1486
 1008MOL0     O36004   7.843  10.704   9.205 -0.2652  0.1011  0.3726
 1008MOL0     C36005   7.710  10.649   9.225  0.9548 -0.0256 -0.4398
 1008MOL0     C36006   7.621  10.676   9.097  0.9204  0.6944 -0.9285
 1008MOL0     C36007   7.469  10.647   9.106 -0.1365 -0.2704 -0.4569
 1008MOL0     C36008   7.384  10.681   8.978 -0.9129  0.4088 -0.2498
 1008MOL0     C36009   7.423  10.600   8.868 -0.4828 -0.2607  0.1866
 1008MOL0     C36010   7.445  10.527   8.770  0.2767 -0.3208  0.5879
 1008MOL0     C36011   7.895  10.695   9.439 -0.9600  0.5035  0.0911
 1008MOL0     C36012   7.985  10.665   9.543  0.1141  0.0041 -1.3161
 1008MOL0     H36013   8.377  10.658   9.886  0.0747 -2.2492 -0.3704
 1008MOL0     H36014   8.543  10.602  10.008 -0.4928  0.5284 -0.9698
 1008MOL0     H36015   8.922  10.393   9.780 -0.7126 -1.8157  1.2391
 1008MOL0     H36016   8.918  10.559   9.821  4.3468 -0.0612  1.8730
 1008MOL0     H36017   8.991  10.495  10.047 -0.0318 -0.3182 -0.0203
 1008MOL0     H36018   8.980  10.324  10.014 -0.3650  0.7337  2.0355
 1008MOL0     H36019   9.175  10.538   9.900 -4.2595  1.1100 -1.4793
 1008MOL0     H36020   9.214  10.417  10.025 -0.0524 -1.6390 -0.6961
 1008MOL0     H36021   9.148  10.236   9.836 -0.8652 -0.4996  1.9238
 1008MOL0     H36022   9.142  10.379   9.729  2.2268  1.3407 -0.4288
 1008MOL0     H36023   9.396  10.318   9.897 -1.8166  2.2436  1.4053
 1008MOL0     H36024   9.358  10.245   9.739 -1.2496  0.7764 -1.8788
 1008MOL0     H36025   9.344  10.451   9.628 -0.3360 -1.2188  0.3840
 1008MOL0     H36026   9.387  10.540   9.793  2.4297 -1.5893  1.1865
 1008MOL0     H36027   9.597  10.406   9.776 -2.2401  2.0056  1.5793
 1008MOL0     H36028   9.551  10.359   9.608 -1.7226  1.4539 -1.0910
 1008MOL0     H36029   9.698  10.588   9.635 -0.6397  0.6349 -1.3066
 1008MOL0     H36030   9.539  10.657   9.674 -0.5098  0.8470 -1.0782
 1008MOL0     H36031   9.327  10.638   9.481  0.6242  0.4667  1.8927
 1008MOL0     H36032   9.284  10.770   9.269  2.8625  1.2549 -0.7901
 1008MOL0     H36033   9.396  10.754   9.121 -1.6191  1.7975 -1.4485
 1008MOL0     H36034   9.175  10.632   9.076 -0.6114 -2.8276 -1.6653
 1008MOL0     H36035   9.199  10.550   9.233 -0.8829  3.0983  0.4666
 1008MOL0     H36036   9.407  10.456   9.138  3.0557  2.6884 -2.7014
 1008MOL0     H36037   9.396  10.535   8.994  0.1578  0.4827  0.7208
 1008MOL0     H36038   9.305  10.332   8.923 -0.0346 -3.9516  1.5003
 1008MOL0     H36039   9.155  10.423   8.966  0.7555  0.6711 -0.9036
 1008MOL0     H36040   9.127  10.098   9.240  0.0380  2.0064 -1.3183
 1008MOL0     H36041   9.051   9.919   9.308 -1.2550  1.2003 -0.8388
 1008MOL0     H36042   8.928   9.822   9.226 -0.3806  0.2178  0.6937
 1008MOL0     H36043   9.097   9.764   9.221 -1.5512 -1.2633  1.6327
 1008MOL0     H36044   9.187   9.543   8.772 -0.7801  1.8146  1.7549
 1008MOL0     H36045   9.135   9.304   8.673 -1.3846 -1.7163 -0.5358
 1008MOL0     H36046   8.731   9.176   8.605 -0.6013  2.9754  0.8275
 1008MOL0     H36047   8.741   9.274   8.459  0.6483 -2.7082 -3.3974
 1008MOL0     H36048   8.687   9.047   8.380 -0.2552  0.8888  0.1605
 1008MOL0     H36049   8.842   9.106   8.313  0.9152 -0.8310  0.3823
 1008MOL0     H36050   8.834   8.929   8.570 -2.3029  0.6772  0.5536
 1008MOL0     H36051   8.980   8.998   8.487  0.0214 -0.5601 -2.2638
 1008MOL0     H36052   8.770   8.816   8.362 -0.6226  1.8009  0.4224
 1008MOL0     H36053   8.925   8.856   8.284  3.5774 -1.8145  0.0615
 1008MOL0     H36054   9.065   8.776   8.470 -0.7770  1.3723 -2.2450
 1008MOL0     H36055   8.975   8.654   8.370 -3.0257 -1.4013  0.4413
 1008MOL0     H36056   8.897   8.739   8.654 -0.4074  2.1640 -1.1874
 1008MOL0     H36057   8.814   8.621   8.542 -0.4295  2.0526 -1.1148
 1008MOL0     H36058   9.069   8.590   8.688 -2.6201  2.6410  0.1751
 1008MOL0     H36059   9.044   8.498   8.539 -0.2235  1.8749 -0.2040
 1008MOL0     H36060   8.948   8.348   8.725 -0.3830 -0.5375  3.4611
 1008MOL0     H36061   8.819   8.424   8.641 -0.0572  2.9387 -0.7619
 1008MOL0     H36062   8.757   9.455   8.549 -0.5949 -1.5057  2.1596
 1008MOL0     H36063   8.811   9.680   8.652  1.1478  1.2658 -1.1488
 1008MOL0     H36064   9.082   9.972   8.764 -3.8009 -0.7122  1.0503
 1008MOL0     H36065   9.168  10.195   8.827 -1.0165 -1.2366 -1.4449
 1008MOL0     H36066   8.751  10.454   9.638 -0.5795  0.4049 -0.7959
 1008MOL0     H36067   8.538  10.501   9.535  0.7571  2.6595 -1.0884
 1008MOL0     H36068   8.275  10.685   9.388  0.8907 -1.6838  0.0358
 1008MOL0     H36069   8.118  10.714   9.186  1.3351  3.3797  1.7237
 1008MOL0     H36070   7.717  10.541   9.241  0.9580 -0.1393 -1.1927
 1008MOL0     H36071   7.656  10.699   9.306  1.8940 -0.0210  0.1994
 1008MOL0     H36072   7.659  10.616   9.014  0.6648  2.7001 -2.5767
 1008MOL0     H36073   7.634  10.781   9.068  1.2238  0.2931 -2.3375
 1008MOL0     H36074   7.425  10.701   9.191 -0.1094 -0.6107 -0.2252
 1008MOL0     H36075   7.454  10.540   9.122 -0.2315 -0.1750  0.1295
 1008MOL0     H36076   7.386  10.788   8.957 -0.3460  0.3244 -0.6454
 1008MOL0     H36077   7.279  10.663   9.003 -1.7733 -0.0582 -3.8022
 1008MOL0     H36078   7.478  10.485   8.678 -0.2037 -0.5276  0.5075
 1008MOL0     H36079   7.790  10.703   9.462 -0.8872 -0.8802  1.0228
 1008MOL0     H36080   7.962  10.669   9.649 -0.2508 -1.1591 -1.3405
 1009MOL0     O36081   7.283  10.813   7.747  0.1956 -0.2289 -0.0845
 1009MOL0     C36082   7.368  10.871   7.678 -0.1442  0.6662 -0.3972
 1009MOL0     O36083   7.398  11.009   7.688  0.0383  0.7906  0.2730
 1009MOL0     C36084   7.325  11.093   7.773 -0.1459 -0.1301  0.3168
 1009MOL0     C36085   7.390  11.202   7.829  0.1891  0.8965 -0.0155
 1009MOL0     C36086   7.317  11.307   7.889  0.3936 -0.8060 -0.0931
 1009MOL0     C36087   7.179  11.303   7.894 -0.1700 -0.0921  0.7360
 1009MOL0     O36088   7.120  11.415   7.944  0.6993  0.0157  0.4685
 1009MOL0     C36089   6.988  11.444   7.918 -0.3252 -0.3327  0.4556
 1009MOL0     C36090   6.896  11.370   8.019 -0.0655  0.0841 -0.2693
 1009MOL0     C36091   6.749  11.428   8.018  0.3878  0.0547  0.5731
 1009MOL0     C36092   6.661  11.360   8.123 -0.8086  0.0445  0.0758
 1009MOL0     C36093   6.503  11.364   8.120  0.2735  0.1509 -0.7271
 1009MOL0     C36094   6.437  11.295   8.237  0.3554  0.1233 -0.1844
 1009MOL0     C36095   6.287  11.333   8.259  0.3173 -1.0791  0.5607
 1009MOL0     C36096   6.241  11.259   8.379 -0.0234 -0.4531 -0.4504
 1009MOL0     N36097   6.093  11.259   8.392 -0.5042  0.2019 -0.1773
 1009MOL0     C36098   6.005  11.364   8.393 -0.1531  0.3413  0.2854
 1009MOL0     C36099   5.881  11.316   8.387  1.3146 -0.4111 -0.0487
 1009MOL0     C36100   5.753  11.401   8.373 -0.0662  0.4884 -0.7008
 1009MOL0     C36101   5.702  11.449   8.513 -0.3494 -0.5387 -0.6606
 1009MOL0     C36102   5.607  11.351   8.580  0.3823  0.1506  0.3018
 1009MOL0     C36103   5.463  11.326   8.502  0.0041  1.0750  0.1728
 1009MOL0     O36104   5.381  11.447   8.491  0.6836  0.1368  0.2819
 1009MOL0     C36105   5.246  11.440   8.472 -0.3970 -0.3939 -0.0597
 1009MOL0     C36106   5.181  11.324   8.481 -0.8689 -0.6285  0.3777
 1009MOL0     C36107   5.041  11.319   8.459 -0.3777 -0.1709  0.4860
 1009MOL0     C36108   4.986  11.181   8.476  0.5680  0.0656 -0.8712
 1009MOL0     C36109   4.969  11.441   8.455 -0.9305 -0.3424  0.4351
 1009MOL0     C36110   4.823  11.447   8.468  0.0964 -0.6093  0.4594
 1009MOL0     O36111   4.774  11.568   8.479 -0.4299  0.2195  0.5504
 1009MOL0     C36112   4.647  11.597   8.523 -0.5127  0.0466 -1.2159
 1009MOL0     C36113   4.560  11.525   8.607  0.0545 -0.8813 -0.5399
 1009MOL0     C36114   4.426  11.574   8.624 -0.5211 -0.8104  0.6144
 1009MOL0     C36115   4.383  11.693   8.546 -0.1718 -0.3773 -0.4926
 1009MOL0     O36116   4.262  11.764   8.554  0.0408 -0.0317 -0.3556
 1009MOL0     C36117   4.148  11.697   8.603 -1.0213  0.3616  0.4011
 1009MOL0     C36118   4.040  11.743   8.504 -0.0347  0.1005 -0.3022
 1009MOL0     C36119   3.971  11.890   8.536 -0.3966  0.1042 -0.6476
 1009MOL0     C36120   3.868  11.924   8.425  0.9705 -0.0045  0.1751
 1009MOL0     C36121   3.797  12.055   8.447  0.2543  0.7864 -0.3614
 1009MOL0     C36122   3.697  12.063   8.559  0.0678  0.0140 -0.3406
 1009MOL0     C36123   3.569  11.977   8.537 -0.9319  0.4333  0.6376
 1009MOL0     C36124   3.466  11.972   8.647 -0.5682 -0.0803  0.2012
 1009MOL0    Cl36125   3.543  11.917   8.804  0.1872  0.2569 -0.0045
 1009MOL0     C36126   4.473  11.754   8.462  0.2790 -0.1542  0.4710
 1009MOL0     C36127   4.600  11.716   8.463 -0.7927  0.4839 -0.4883
 1009MOL0     O36128   4.754  11.347   8.454 -0.2167  0.0346 -0.7746
 1009MOL0     C36129   5.045  11.548   8.415  0.4902 -0.0706 -0.4665
 1009MOL0     C36130   5.180  11.558   8.444 -0.5066  0.5754  0.4690
 1009MOL0     N36131   5.900  11.180   8.398 -0.1089  0.1276  0.4629
 1009MOL0     N36132   6.022  11.150   8.404  0.0724  0.3086  0.4572
 1009MOL0     C36133   7.112  11.193   7.827  0.5172 -1.0184 -1.0934
 1009MOL0     C36134   7.188  11.093   7.757 -0.2317 -0.0968 -0.9740
 1009MOL0     C36135   7.454  10.795   7.586  0.2525  0.0133  1.2012
 1009MOL0     C36136   7.444  10.657   7.574 -0.0302  0.2586  0.0225
 1009MOL0     C36137   7.539  10.582   7.517  0.0441  0.0555  0.0206
 1009MOL0     C36138   7.664  10.631   7.462 -0.3615 -0.4090  0.0261
 1009MOL0     O36139   7.757  10.537   7.420 -0.1455  0.5746  0.8612
 1009MOL0     C36140   7.890  10.577   7.379 -0.8191 -1.0666  0.9135
 1009MOL0     C36141   7.909  10.592   7.228  0.0934  0.4217  0.6036
 1009MOL0     C36142   7.869  10.465   7.150  0.7577 -0.7180  0.7250
 1009MOL0     C36143   7.914  10.450   7.000  0.2173  1.2341 -0.1232
 1009MOL0     C36144   7.868  10.568   6.928  0.4916 -0.2927 -0.5621
 1009MOL0     C36145   7.826  10.667   6.872  0.6461  0.1099 -1.2299
 1009MOL0     C36146   7.676  10.775   7.466  0.2952  0.3772 -0.6357
 1009MOL0     C36147   7.570  10.855   7.522 -0.5754  0.5737 -0.6944
 1009MOL0     H36148   7.498  11.210   7.838  0.6939  1.1111 -4.2648
 1009MOL0     H36149   7.367  11.396   7.926  1.5468 -0.5577 -2.0602
 1009MOL0     H36150   6.972  11.553   7.912  1.0849 -0.1594 -1.0884
 1009MOL0     H36151   6.952  11.415   7.819  2.0594  1.1196 -0.9327
 1009MOL0     H36152   6.891  11.264   7.991 -1.9216 -0.1019  0.6217
 1009MOL0     H36153   6.941  11.367   8.118  0.3598 -1.4563 -0.4785
 1009MOL0     H36154   6.738  11.536   8.021 -2.5717 -0.0478 -1.8567
 1009MOL0     H36155   6.707  11.401   7.921  0.0449  0.2230  0.6768
 1009MOL0     H36156   6.684  11.254   8.109  0.5183  0.6167 -2.5565
 1009MOL0     H36157   6.692  11.390   8.224 -2.0412 -2.7670  1.4113
 1009MOL0     H36158   6.469  11.468   8.127 -0.7714 -0.1695 -0.8827
 1009MOL0     H36159   6.454  11.339   8.026 -3.1266  0.8781  0.7149
 1009MOL0     H36160   6.445  11.188   8.215  0.2959 -0.3873  2.0463
 1009MOL0     H36161   6.482  11.304   8.336 -0.6494 -0.9871  0.4013
 1009MOL0     H36162   6.283  11.440   8.281  3.6415 -0.9573  0.9582
 1009MOL0     H36163   6.225  11.302   8.173  1.2915  0.1778 -0.6357
 1009MOL0     H36164   6.283  11.316   8.462 -1.8652 -0.0315  0.2431
 1009MOL0     H36165   6.289  11.161   8.381  1.8494  0.4444  0.2047
 1009MOL0     H36166   6.025  11.470   8.385 -2.2496  0.7106 -0.7125
 1009MOL0     H36167   5.772  11.498   8.326  0.6884  0.8238  0.2562
 1009MOL0     H36168   5.672  11.341   8.330 -0.9233  0.0980  1.3391
 1009MOL0     H36169   5.645  11.542   8.505  1.2852  0.3443 -3.1271
 1009MOL0     H36170   5.785  11.465   8.583 -0.2505  2.6365 -1.3603
 1009MOL0     H36171   5.587  11.375   8.684  2.2114 -0.6656  0.8719
 1009MOL0     H36172   5.657  11.255   8.591  0.1451  0.3435  4.1532
 1009MOL0     H36173   5.407  11.247   8.554  0.4493 -0.7108 -1.9428
 1009MOL0     H36174   5.467  11.299   8.396 -1.3129  0.3419  0.2873
 1009MOL0     H36175   5.225  11.225   8.489 -1.8658 -1.2526 -1.1573
 1009MOL0     H36176   5.052  11.094   8.478 -3.0485 -2.9341 -1.3138
 1009MOL0     H36177   4.926  11.178   8.567  0.3191 -0.1850 -1.0418
 1009MOL0     H36178   4.905  11.156   8.407 -2.1653  2.2806  1.2944
 1009MOL0     H36179   4.571  11.438   8.671 -1.8652 -0.2951  0.6717
 1009MOL0     H36180   4.368  11.529   8.704 -1.6852  0.2865  0.4116
 1009MOL0     H36181   4.161  11.588   8.601  0.7781  0.4217  3.2070
 1009MOL0     H36182   4.106  11.720   8.701  1.2711  4.4791  0.6438
 1009MOL0     H36183   4.083  11.762   8.405 -0.3943  3.1192  0.0109
 1009MOL0     H36184   3.951  11.680   8.500 -0.4037  0.6501 -1.1644
 1009MOL0     H36185   4.051  11.964   8.538 -0.4689  0.1780 -0.3173
 1009MOL0     H36186   3.928  11.880   8.637 -0.2850  0.5177 -0.5579
 1009MOL0     H36187   3.918  11.921   8.328  1.9238  2.0398  0.5406
 1009MOL0     H36188   3.793  11.844   8.428  2.5993 -1.5880  2.2974
 1009MOL0     H36189   3.749  12.077   8.351  2.0326 -1.7548 -1.9632
 1009MOL0     H36190   3.867  12.138   8.460  0.6381  0.8278 -2.3482
 1009MOL0     H36191   3.739  12.025   8.653 -4.5133 -2.1275  1.1117
 1009MOL0     H36192   3.662  12.166   8.564 -0.2505 -0.1398  0.6764
 1009MOL0     H36193   3.612  11.878   8.524 -0.1502  0.6603  1.4007
 1009MOL0     H36194   3.520  12.020   8.449  0.0287  1.1366  0.4333
 1009MOL0     H36195   3.390  11.904   8.606 -0.5365  1.9339 -3.6347
 1009MOL0     H36196   3.427  12.074   8.650  2.7807  1.2916  2.2398
 1009MOL0     H36197   4.450  11.843   8.404 -3.1894 -0.4124  1.2393
 1009MOL0     H36198   4.674  11.760   8.396  0.6686 -1.5997 -0.3482
 1009MOL0     H36199   4.989  11.633   8.378 -0.0484 -1.3489 -2.8152
 1009MOL0     H36200   5.237  11.649   8.431  0.9192  0.0156  2.3120
 1009MOL0     H36201   7.009  11.175   7.800  0.3530  0.1890 -1.3216
 1009MOL0     H36202   7.133  11.027   7.691  0.9660  0.1558 -2.2471
 1009MOL0     H36203   7.358  10.611   7.621  1.0769 -1.5079  0.4188
 1009MOL0     H36204   7.535  10.473   7.523 -3.5242  0.1651  2.5370
 1009MOL0     H36205   7.910  10.666   7.438 -1.9850 -1.0424  1.2895
 1009MOL0     H36206   7.960  10.506   7.425  2.9625  0.9985 -1.0784
 1009MOL0     H36207   8.017  10.608   7.215  0.1864 -0.9600 -0.4940
 1009MOL0     H36208   7.852  10.675   7.186  0.5773  1.9065  2.6922
 1009MOL0     H36209   7.761  10.453   7.149  0.5321  0.1370 -3.1550
 1009MOL0     H36210   7.909  10.378   7.201  0.6849 -0.8768  0.5130
 1009MOL0     H36211   7.871  10.361   6.954  2.0087  1.6056 -2.7333
 1009MOL0     H36212   8.023  10.443   6.988 -0.0238  1.1712 -2.9757
 1009MOL0     H36213   7.785  10.761   6.842 -2.1008  0.3500  2.4687
 1009MOL0     H36214   7.762  10.820   7.419 -1.0035  2.8497 -0.7998
 1009MOL0     H36215   7.588  10.962   7.531 -2.3958  0.8709 -0.1978
 1010MOL0     O36216   4.394   1.900  10.498 -0.1739 -0.3265  0.1118
 1010MOL0     C36217   4.434   1.817  10.580  1.2213 -0.4082  0.9289
 1010MOL0     O36218   4.419   1.825  10.716 -0.1623  0.0699 -0.2226
 1010MOL0     C36219   4.331   1.907  10.774  0.2258 -1.2064 -0.8517
 1010MOL0     C36220   4.359   1.925  10.910  0.8410 -0.9531 -0.0443
 1010MOL0     C36221   4.275   2.013  10.985  0.3228  0.2827 -0.7096
 1010MOL0     C36222   4.167   2.077  10.929 -0.3572 -1.1360  0.5663
 1010MOL0     O36223   4.093   2.171  11.001 -0.1917  0.5863  0.0448
 1010MOL0     C36224   3.975   2.109  11.062 -0.3384 -0.3688 -0.0399
 1010MOL0     C36225   3.983   2.110  11.216  0.3712 -0.2628 -0.7743
 1010MOL0     C36226   3.836   2.129  11.277  0.2095  0.1725  0.7856
 1010MOL0     C36227   3.849   2.126  11.434 -0.5576  0.1276 -0.6515
 1010MOL0     C36228   3.709   2.102  11.496 -0.0849 -0.2166  0.8606
 1010MOL0     C36229   3.704   2.053  11.645 -0.2390  1.1932  0.4690
 1010MOL0     C36230   3.756   2.160  11.740  0.3808  0.2117 -0.3064
 1010MOL0     C36231   3.669   2.285  11.757  0.8748  0.4708 -0.2157
 1010MOL0     N36232   3.721   2.357  11.870 -0.5522 -0.7203  0.1428
 1010MOL0     C36233   3.668   2.353  11.996 -0.0972  0.2602 -1.1523
 1010MOL0     C36234   3.751   2.426  12.081  0.0895 -0.5319 -0.2107
 1010MOL0     C36235   3.723   2.464  12.220  1.0539 -0.3687 -0.4400
 1010MOL0     C36236   3.632   2.591  12.244 -0.2918 -0.0839 -0.6475
 1010MOL0     C36237   3.684   2.728  12.189  0.2745 -0.6666 -0.1688
 1010MOL0     C36238   3.832   2.746  12.245 -0.5891  0.2011  0.1861
 1010MOL0     O36239   3.879   2.877  12.231 -0.3041 -0.6410 -0.0392
 1010MOL0     C36240   3.927   2.916  12.107 -0.3603  0.1137 -0.0573
 1010MOL0     C36241   3.943   2.849  11.992  0.2298  0.6461 -0.5113
 1010MOL0     C36242   4.014   2.898  11.889  0.5385 -0.9254  0.7423
 1010MOL0     C36243   4.044   2.797  11.776  0.4008 -1.1935  0.1463
 1010MOL0     C36244   4.067   3.026  11.889  0.2882  0.0715  0.4688
 1010MOL0     C36245   4.121   3.098  11.772  0.2832  0.8103 -0.3007
 1010MOL0     O36246   4.216   3.184  11.791 -0.3278 -1.1395 -0.7375
 1010MOL0     C36247   4.273   3.261  11.692  0.2054  0.3245 -0.3243
 1010MOL0     C36248   4.381   3.340  11.752 -0.6991  0.1881  0.5074
 1010MOL0     C36249   4.440   3.450  11.683 -0.4470 -0.5505 -0.5617
 1010MOL0     C36250   4.400   3.483  11.553  0.4502  0.2380 -1.1072
 1010MOL0     O36251   4.461   3.583  11.488 -1.4906 -0.0111 -0.2329
 1010MOL0     C36252   4.370   3.648  11.404  0.3048 -0.0294  0.5146
 1010MOL0     C36253   4.415   3.790  11.392  0.3519  1.1056  0.3727
 1010MOL0     C36254   4.536   3.821  11.300  0.9827  0.1572 -0.0742
 1010MOL0     C36255   4.618   3.940  11.344  0.2053  0.3852 -0.5794
 1010MOL0     C36256   4.717   3.989  11.236 -0.4516 -0.2819 -0.1805
 1010MOL0     C36257   4.790   4.120  11.275 -0.5446  0.1031 -1.1015
 1010MOL0     C36258   4.879   4.156  11.159 -0.6812 -0.4445 -0.5449
 1010MOL0     C36259   4.945   4.293  11.184  0.3783  0.6962  0.6722
 1010MOL0    Cl36260   5.081   4.342  11.083 -0.3869  0.0148 -0.3075
 1010MOL0     C36261   4.292   3.404  11.495 -0.5765  0.0071  0.3604
 1010MOL0     C36262   4.228   3.301  11.564  0.4391 -0.1829 -1.6921
 1010MOL0     O36263   4.069   3.074  11.666 -0.4036 -0.0863  0.6503
 1010MOL0     C36264   4.046   3.097  12.008 -0.1545 -0.1930 -0.5478
 1010MOL0     C36265   3.977   3.045  12.115  0.4058  0.5488 -0.6082
 1010MOL0     N36266   3.851   2.477  11.998 -0.3116 -0.1871  0.9193
 1010MOL0     N36267   3.839   2.435  11.872 -0.2515  0.0668 -0.1892
 1010MOL0     C36268   4.139   2.052  10.796  0.1676  0.1091 -1.1943
 1010MOL0     C36269   4.208   1.967  10.717 -0.5727  0.4914  1.1941
 1010MOL0     C36270   4.522   1.712  10.529 -0.0905  0.2803  0.5917
 1010MOL0     C36271   4.576   1.614  10.616 -1.1477 -0.4785 -0.8425
 1010MOL0     C36272   4.670   1.522  10.566 -0.3077  0.1624 -0.3101
 1010MOL0     C36273   4.688   1.526  10.430 -0.9701  0.1412 -0.0452
 1010MOL0     O36274   4.790   1.444  10.383  0.4401 -0.3942  0.6093
 1010MOL0     C36275   4.924   1.454  10.423  0.2354  0.0792 -0.3369
 1010MOL0     C36276   5.026   1.348  10.360 -0.3954 -0.3464 -0.1931
 1010MOL0     C36277   4.969   1.204  10.359 -0.4030 -0.4290 -0.6842
 1010MOL0     C36278   5.073   1.126  10.288 -0.8065  0.0848  0.0880
 1010MOL0     C36279   5.039   0.981  10.274  1.1161 -0.4008 -0.2884
 1010MOL0     C36280   5.019   0.866  10.263  0.4484 -0.8157  0.3443
 1010MOL0     C36281   4.648   1.621  10.337 -0.1129 -0.7117  0.5658
 1010MOL0     C36282   4.556   1.711  10.389 -0.0140  0.3878  0.2251
 1010MOL0     H36283   4.451   1.881  10.946  0.8228  0.2200  1.5344
 1010MOL0     H36284   4.293   2.040  11.088 -2.8058  0.1762 -0.0339
 1010MOL0     H36285   3.885   2.161  11.028 -0.6316 -1.0605 -0.3377
 1010MOL0     H36286   3.962   2.008  11.022  2.0981  0.6992 -4.1624
 1010MOL0     H36287   4.026   2.016  11.252 -3.1074 -2.2772 -1.4287
 1010MOL0     H36288   4.053   2.183  11.258  0.4520 -3.0214  4.7021
 1010MOL0     H36289   3.808   2.230  11.246  0.9919  0.8435  2.2061
 1010MOL0     H36290   3.768   2.053  11.236  2.6683 -2.8449  1.9337
 1010MOL0     H36291   3.923   2.049  11.458 -2.1366 -0.5804  2.5331
 1010MOL0     H36292   3.893   2.224  11.457 -0.8994  0.0943  0.1574
 1010MOL0     H36293   3.640   2.181  11.467 -1.2102 -1.9180 -1.4652
 1010MOL0     H36294   3.680   2.016  11.433  2.3060  0.1877 -0.9290
 1010MOL0     H36295   3.602   2.027  11.676 -0.0122 -0.5730 -0.1544
 1010MOL0     H36296   3.771   1.968  11.654 -0.4446  1.2235  2.7496
 1010MOL0     H36297   3.752   2.115  11.840 -0.7990 -1.9125 -1.2283
 1010MOL0     H36298   3.859   2.193  11.725  0.3043  2.1650  2.6960
 1010MOL0     H36299   3.567   2.246  11.770  0.4305  1.1384 -1.5217
 1010MOL0     H36300   3.673   2.348  11.668 -2.5301 -0.6619 -1.3501
 1010MOL0     H36301   3.589   2.284  12.026  0.3431 -0.3558 -1.3849
 1010MOL0     H36302   3.659   2.387  12.265 -0.0263 -1.4011 -3.5228
 1010MOL0     H36303   3.814   2.479  12.279  0.2280 -0.9048  1.0285
 1010MOL0     H36304   3.619   2.601  12.352 -0.7748 -0.2235 -0.6893
 1010MOL0     H36305   3.528   2.576  12.214 -0.5282  0.8517 -0.3292
 1010MOL0     H36306   3.609   2.792  12.236  1.8383  0.6824  0.5710
 1010MOL0     H36307   3.685   2.733  12.079 -1.3150 -3.2400 -0.3987
 1010MOL0     H36308   3.896   2.673  12.195 -1.8219 -0.1761 -0.8946
 1010MOL0     H36309   3.833   2.717  12.351  1.1757 -1.4701 -0.2332
 1010MOL0     H36310   3.889   2.755  11.993 -0.8585  1.2320  1.7551
 1010MOL0     H36311   3.992   2.826  11.684  0.5125 -2.9010 -0.4884
 1010MOL0     H36312   4.151   2.800  11.753  0.8599  1.3323  2.0872
 1010MOL0     H36313   4.002   2.702  11.810  0.5200 -0.1908  3.4116
 1010MOL0     H36314   4.414   3.311  11.851  0.0627 -2.8624 -0.5210
 1010MOL0     H36315   4.518   3.516  11.720  1.1449 -1.8955 -1.4275
 1010MOL0     H36316   4.361   3.596  11.309 -0.9914  0.4454  0.3566
 1010MOL0     H36317   4.274   3.660  11.455  0.6241  0.6934  0.9778
 1010MOL0     H36318   4.326   3.846  11.361  0.4254  0.7065 -0.5962
 1010MOL0     H36319   4.438   3.837  11.488 -2.9592  0.7234  1.4994
 1010MOL0     H36320   4.501   3.834  11.197 -2.4256 -2.9353  0.4799
 1010MOL0     H36321   4.610   3.740  11.301  1.7576  0.8009 -1.8733
 1010MOL0     H36322   4.567   4.027  11.385 -0.1570  0.3872 -1.0312
 1010MOL0     H36323   4.688   3.908  11.422 -0.6927 -0.5344 -0.1221
 1010MOL0     H36324   4.657   4.019  11.150  0.8624  0.9161 -0.7382
 1010MOL0     H36325   4.786   3.909  11.209  0.6677  0.9203 -1.0201
 1010MOL0     H36326   4.732   4.202  11.318  2.6241  0.3774  3.3928
 1010MOL0     H36327   4.861   4.093  11.354 -1.3977 -0.0744 -0.3810
 1010MOL0     H36328   4.825   4.166  11.065  0.3253  2.7688 -0.9330
 1010MOL0     H36329   4.962   4.084  11.162 -0.3729 -0.2499  4.1031
 1010MOL0     H36330   4.980   4.282  11.288 -1.1797 -2.1796  0.9901
 1010MOL0     H36331   4.872   4.374  11.183 -1.2502 -0.5605  3.8151
 1010MOL0     H36332   4.246   3.421  11.399 -4.7341 -1.5487  1.8340
 1010MOL0     H36333   4.142   3.249  11.524 -1.9226  2.3370 -0.3138
 1010MOL0     H36334   4.080   3.200  12.017  1.1313 -0.0672 -4.5728
 1010MOL0     H36335   3.962   3.092  12.212  0.3643 -0.6196 -0.0312
 1010MOL0     H36336   4.054   2.107  10.757  1.5097  2.7959 -0.5185
 1010MOL0     H36337   4.190   1.961  10.610 -2.2392  1.9912  1.3342
 1010MOL0     H36338   4.553   1.609  10.722  2.7278  3.6254  0.5048
 1010MOL0     H36339   4.723   1.449  10.625  2.4128  3.1280  1.2018
 1010MOL0     H36340   4.967   1.553  10.404  0.6716  0.7496  3.2826
 1010MOL0     H36341   4.923   1.444  10.532  0.9720  0.1899 -0.3134
 1010MOL0     H36342   5.123   1.363  10.408  0.2050  1.2102 -1.8022
 1010MOL0     H36343   5.054   1.368  10.257 -0.9797 -2.8256 -0.9020
 1010MOL0     H36344   4.871   1.194  10.310 -1.7105 -0.0581  1.7095
 1010MOL0     H36345   4.968   1.178  10.465 -0.9616  3.3480  0.3786
 1010MOL0     H36346   5.167   1.129  10.343  0.1941 -0.4129 -1.5229
 1010MOL0     H36347   5.089   1.168  10.188  2.2300  0.9602  0.8328
 1010MOL0     H36348   4.982   0.766  10.261 -2.4101  0.1672 -0.3007
 1010MOL0     H36349   4.681   1.612  10.234 -1.0979  0.9799  0.0661
 1010MOL0     H36350   4.510   1.787  10.327 -1.1123  0.6909  1.3678
 1011MOL0     O36351   8.719   7.023   9.079  0.3660 -0.1773  0.0157
 1011MOL0     C36352   8.833   7.036   9.029 -0.4545  0.3762 -0.6771
 1011MOL0     O36353   8.911   6.944   8.968  0.3778  0.7049  0.7750
 1011MOL0     C36354   8.857   6.817   8.966  0.1789 -0.6372  0.6262
 1011MOL0     C36355   8.866   6.740   9.080  0.3952  0.7335 -0.1573
 1011MOL0     C36356   8.806   6.608   9.093  0.2066 -0.7529 -0.5304
 1011MOL0     C36357   8.751   6.545   8.985  0.5851  1.2910 -0.0804
 1011MOL0     O36358   8.698   6.421   9.010  0.6472  0.1145  0.2571
 1011MOL0     C36359   8.638   6.356   8.898 -0.1465  0.1451 -0.0892
 1011MOL0     C36360   8.500   6.385   8.847 -0.1070 -0.1148  0.9056
 1011MOL0     C36361   8.467   6.340   8.703  0.2638 -0.8451 -0.9560
 1011MOL0     C36362   8.335   6.388   8.650 -0.0258  0.0920 -0.1083
 1011MOL0     C36363   8.300   6.339   8.513 -0.0653  0.1365  0.5288
 1011MOL0     C36364   8.159   6.386   8.466 -1.3643 -0.1644 -0.0979
 1011MOL0     C36365   8.122   6.305   8.343  0.2089 -0.1210 -0.6559
 1011MOL0     C36366   8.210   6.327   8.219  0.4032 -0.3424 -0.9384
 1011MOL0     N36367   8.233   6.468   8.177  0.7230 -0.6980  0.2115
 1011MOL0     C36368   8.150   6.541   8.098 -0.3442  0.1665  0.3024
 1011MOL0     C36369   8.213   6.660   8.077  0.3629 -0.3287 -0.3494
 1011MOL0     C36370   8.141   6.781   8.006  1.0792  0.5650  0.2035
 1011MOL0     C36371   8.104   6.752   7.863 -0.5431  0.0276  0.3410
 1011MOL0     C36372   8.223   6.772   7.768  0.4601  0.5310  0.1471
 1011MOL0     C36373   8.191   6.728   7.627  0.0745  0.6814 -0.4239
 1011MOL0     O36374   8.292   6.764   7.537 -1.5350 -0.8397  0.3857
 1011MOL0     C36375   8.279   6.862   7.442 -0.4279  0.0084  0.9097
 1011MOL0     C36376   8.196   6.971   7.441  0.4296  0.4908 -0.4649
 1011MOL0     C36377   8.194   7.056   7.335  0.5866 -0.8287 -0.1912
 1011MOL0     C36378   8.085   7.164   7.329 -0.1943 -0.1238 -0.2884
 1011MOL0     C36379   8.285   7.047   7.230 -0.3019  0.4140  0.3938
 1011MOL0     C36380   8.289   7.148   7.117 -0.8104  0.0793 -0.3141
 1011MOL0     O36381   8.279   7.286   7.143 -0.5578  1.3731 -0.1789
 1011MOL0     C36382   8.274   7.367   7.041 -0.5275 -0.6225 -1.2414
 1011MOL0     C36383   8.163   7.382   6.962 -0.2402 -0.3007 -0.5949
 1011MOL0     C36384   8.170   7.473   6.856 -0.2570  0.3484 -0.9407
 1011MOL0     C36385   8.285   7.556   6.836  0.4758 -0.1369  0.0480
 1011MOL0     O36386   8.277   7.642   6.728 -0.1452 -0.2617 -0.2174
 1011MOL0     C36387   8.402   7.696   6.671  0.4612 -0.4158  0.2215
 1011MOL0     C36388   8.490   7.594   6.602 -0.8397 -0.6803 -0.3810
 1011MOL0     C36389   8.617   7.637   6.525 -0.3157 -0.4682 -0.9800
 1011MOL0     C36390   8.720   7.701   6.613  0.0844 -0.2685 -0.0763
 1011MOL0     C36391   8.814   7.798   6.528  0.2321 -0.2683  0.8418
 1011MOL0     C36392   8.942   7.837   6.606  0.4705  0.2388  1.1042
 1011MOL0     C36393   9.038   7.720   6.633 -0.0052  0.3405  0.9536
 1011MOL0     C36394   9.059   7.614   6.524  0.2168 -0.5615  1.4214
 1011MOL0    Cl36395   9.179   7.497   6.582  0.3274 -0.0942 -0.3618
 1011MOL0     C36396   8.389   7.529   6.918 -0.6952  0.8134 -0.4389
 1011MOL0     C36397   8.391   7.441   7.024  0.1584  0.0909 -0.0133
 1011MOL0     O36398   8.318   7.104   7.003 -0.2245  0.0012  0.3833
 1011MOL0     C36399   8.385   6.951   7.241 -0.2327 -0.2286  0.2250
 1011MOL0     C36400   8.375   6.846   7.338 -0.1951 -0.1993 -0.6631
 1011MOL0     N36401   8.341   6.656   8.113  0.2676 -0.0438  0.2121
 1011MOL0     N36402   8.352   6.541   8.175  0.7956  0.0556  1.2027
 1011MOL0     C36403   8.752   6.616   8.857  0.1748 -0.0779 -0.2857
 1011MOL0     C36404   8.790   6.752   8.855  0.4990  0.6895  0.3757
 1011MOL0     C36405   8.906   7.165   9.059  0.0293 -0.5298 -0.5079
 1011MOL0     C36406   8.866   7.240   9.171 -0.0023  0.6387  0.3194
 1011MOL0     C36407   8.939   7.341   9.220  0.4113 -0.1193  0.3063
 1011MOL0     C36408   9.051   7.387   9.159 -0.1908  0.1474  0.3575
 1011MOL0     O36409   9.127   7.499   9.194 -0.2872 -0.6145 -0.4959
 1011MOL0     C36410   9.191   7.507   9.315 -0.8700  0.3475  0.0688
 1011MOL0     C36411   9.210   7.660   9.358 -1.0613  1.0638 -0.1831
 1011MOL0     C36412   9.135   7.695   9.482 -0.1399 -1.1932 -0.5293
 1011MOL0     C36413   9.145   7.837   9.523  0.2245  0.2187 -0.4381
 1011MOL0     C36414   9.113   7.931   9.411 -0.6592 -0.3081  0.0116
 1011MOL0     C36415   9.081   8.003   9.321 -1.2454 -0.2089 -0.2243
 1011MOL0     C36416   9.083   7.328   9.038  0.1336 -0.1084  0.1072
 1011MOL0     C36417   9.018   7.212   8.991  0.7272  0.4347 -0.7305
 1011MOL0     H36418   8.925   6.795   9.153 -0.9508  2.8997 -0.6207
 1011MOL0     H36419   8.816   6.558   9.189 -3.1255  0.7147  0.7248
 1011MOL0     H36420   8.707   6.359   8.813 -0.0184 -1.2283 -0.0547
 1011MOL0     H36421   8.647   6.249   8.920 -0.2294  0.3445  0.9920
 1011MOL0     H36422   8.438   6.336   8.922 -0.0375 -1.0201  0.3837
 1011MOL0     H36423   8.483   6.492   8.860 -1.1553 -0.2025  0.3648
 1011MOL0     H36424   8.546   6.388   8.644 -0.4481 -0.7963 -1.8800
 1011MOL0     H36425   8.477   6.231   8.698  2.2275 -1.0312  3.1477
 1011MOL0     H36426   8.256   6.365   8.722  0.7910  0.4675  0.9177
 1011MOL0     H36427   8.339   6.497   8.653 -0.0870  0.1160 -0.7158
 1011MOL0     H36428   8.368   6.378   8.436 -2.4084  2.1571 -0.6760
 1011MOL0     H36429   8.312   6.230   8.518 -1.8349 -0.1969 -1.0194
 1011MOL0     H36430   8.085   6.373   8.545 -0.9413  3.0002  0.9468
 1011MOL0     H36431   8.172   6.494   8.454 -0.5977 -0.2423 -0.0419
 1011MOL0     H36432   8.115   6.197   8.360 -1.5539 -0.0564 -0.7875
 1011MOL0     H36433   8.027   6.341   8.305  0.0585 -0.1174 -0.2785
 1011MOL0     H36434   8.147   6.275   8.146 -2.8744 -2.8470  3.1937
 1011MOL0     H36435   8.301   6.270   8.245 -1.4021 -1.3709  4.3613
 1011MOL0     H36436   8.051   6.524   8.056  0.8847  1.9113 -3.8498
 1011MOL0     H36437   8.048   6.812   8.053 -0.3213 -1.8375 -0.7977
 1011MOL0     H36438   8.208   6.867   8.012  1.5125  0.1396  2.2765
 1011MOL0     H36439   8.022   6.815   7.830 -1.8952 -3.3146 -3.6440
 1011MOL0     H36440   8.088   6.648   7.832  1.1657 -0.1708  0.0236
 1011MOL0     H36441   8.312   6.722   7.808  1.3332  0.4837 -1.7742
 1011MOL0     H36442   8.245   6.878   7.779  1.1083  0.1746  2.9748
 1011MOL0     H36443   8.099   6.773   7.587 -0.4204 -0.5792 -0.7406
 1011MOL0     H36444   8.191   6.619   7.620 -1.2252  0.6175  0.2171
 1011MOL0     H36445   8.117   6.977   7.515  0.9673  1.1689  0.0616
 1011MOL0     H36446   8.119   7.259   7.371  1.0095 -1.0624  0.9383
 1011MOL0     H36447   8.049   7.188   7.228 -0.5729  3.0021  0.4706
 1011MOL0     H36448   7.999   7.139   7.391  1.8862 -2.5300  1.8256
 1011MOL0     H36449   8.072   7.325   6.981 -0.2556 -0.2527 -0.5199
 1011MOL0     H36450   8.087   7.491   6.789  0.5780  0.3430 -2.0010
 1011MOL0     H36451   8.376   7.772   6.597 -1.0499 -1.0259  0.0980
 1011MOL0     H36452   8.460   7.742   6.752  0.7892 -1.8295  0.8277
 1011MOL0     H36453   8.536   7.522   6.671  0.1784 -0.4494 -0.7954
 1011MOL0     H36454   8.423   7.537   6.537  1.0204 -0.3483 -2.7177
 1011MOL0     H36455   8.577   7.707   6.451 -2.1059  0.2004  0.5364
 1011MOL0     H36456   8.658   7.556   6.464  0.9491  0.8773 -1.9750
 1011MOL0     H36457   8.669   7.755   6.693 -4.0644 -1.8546 -1.3758
 1011MOL0     H36458   8.787   7.629   6.660  3.9804  0.6314 -3.5893
 1011MOL0     H36459   8.751   7.882   6.495  0.7045 -0.0256  0.5581
 1011MOL0     H36460   8.857   7.753   6.438  2.1813  0.7698  1.1989
 1011MOL0     H36461   8.988   7.918   6.548 -1.2034 -1.2066 -2.6297
 1011MOL0     H36462   8.908   7.875   6.702 -3.8173  1.0759 -0.4922
 1011MOL0     H36463   8.996   7.672   6.721  0.5253 -0.1584  0.9337
 1011MOL0     H36464   9.131   7.772   6.659 -1.9386  4.3890  0.6002
 1011MOL0     H36465   9.090   7.666   6.432 -2.8840 -0.7012  0.1492
 1011MOL0     H36466   8.965   7.568   6.492 -0.5648  1.8892 -0.0866
 1011MOL0     H36467   8.481   7.586   6.905  0.5236 -0.5499  1.5800
 1011MOL0     H36468   8.477   7.434   7.090 -0.7131  2.3146  1.4671
 1011MOL0     H36469   8.473   6.952   7.177 -0.7795 -3.0454 -0.7119
 1011MOL0     H36470   8.451   6.769   7.351 -1.0218 -0.8553  0.4456
 1011MOL0     H36471   8.709   6.571   8.767  1.9945  0.5433 -1.5163
 1011MOL0     H36472   8.782   6.810   8.763 -1.1741  0.1961  0.1715
 1011MOL0     H36473   8.774   7.205   9.216  0.9303 -2.3376  0.1490
 1011MOL0     H36474   8.903   7.386   9.311  3.2669 -1.6872  2.3643
 1011MOL0     H36475   9.123   7.453   9.382 -3.5208  0.8691 -2.0373
 1011MOL0     H36476   9.290   7.461   9.318 -0.2010  1.6632  3.8949
 1011MOL0     H36477   9.185   7.722   9.271  0.8088 -0.5886 -2.0362
 1011MOL0     H36478   9.314   7.680   9.385 -0.8458 -0.8079  0.5494
 1011MOL0     H36479   9.166   7.632   9.566 -0.0604  0.5755  0.8189
 1011MOL0     H36480   9.030   7.666   9.491  0.4062 -3.4715 -0.8095
 1011MOL0     H36481   9.244   7.856   9.567  1.9574 -0.6661 -3.6292
 1011MOL0     H36482   9.065   7.855   9.595  0.2333  2.4617 -0.9109
 1011MOL0     H36483   9.045   8.045   9.229 -0.4862 -1.5002 -1.1548
 1011MOL0     H36484   9.165   7.366   8.978 -0.6174  2.3632  0.5675
 1011MOL0     H36485   9.042   7.169   8.895  1.7409  4.1455 -2.3453
 1012MOL0     O36486   2.748   0.613   5.375 -0.1509 -0.5470  0.1143
 1012MOL0     C36487   2.688   0.642   5.266 -0.9560 -0.0721 -0.3983
 1012MOL0     O36488   2.551   0.648   5.255  0.8541 -0.4373  0.8899
 1012MOL0     C36489   2.457   0.611   5.347  1.0338  0.4161  0.2952
 1012MOL0     C36490   2.471   0.579   5.488  0.9713  0.3460  0.0312
 1012MOL0     C36491   2.364   0.521   5.560  0.9538  0.0905  0.3844
 1012MOL0     C36492   2.242   0.499   5.491 -0.3074 -0.5355 -1.1634
 1012MOL0     O36493   2.139   0.452   5.581 -0.7105 -0.1740  0.5448
 1012MOL0     C36494   2.019   0.403   5.527  0.1709  0.5244  0.2912
 1012MOL0     C36495   2.029   0.269   5.451 -0.2211  0.2122 -0.0306
 1012MOL0     C36496   1.886   0.223   5.414 -0.2102 -0.9654  0.0572
 1012MOL0     C36497   1.793   0.337   5.353  0.3708 -0.8055 -0.2725
 1012MOL0     C36498   1.647   0.278   5.335  0.5348  0.6354 -0.3680
 1012MOL0     C36499   1.579   0.340   5.211  0.4217  0.6082  0.5117
 1012MOL0     C36500   1.558   0.483   5.230  0.2480 -0.3957  0.0884
 1012MOL0     C36501   1.461   0.532   5.116 -0.3580  0.8841 -0.2983
 1012MOL0     N36502   1.438   0.670   5.102 -0.2726  1.0326  0.1550
 1012MOL0     C36503   1.414   0.755   5.210 -0.0758  0.4826  0.2397
 1012MOL0     C36504   1.401   0.875   5.153 -0.1064 -0.7767  0.7560
 1012MOL0     C36505   1.367   1.012   5.216 -0.3376 -0.6879 -0.1752
 1012MOL0     C36506   1.370   1.125   5.115 -0.6543  1.1354  0.1337
 1012MOL0     C36507   1.244   1.138   5.024  0.2764 -0.0775  0.4698
 1012MOL0     C36508   1.263   1.251   4.917  0.2082 -0.5415 -0.0070
 1012MOL0     O36509   1.144   1.299   4.859 -0.1742 -0.3955  0.2445
 1012MOL0     C36510   1.101   1.239   4.741  0.5257  0.7340  0.5080
 1012MOL0     C36511   1.175   1.212   4.629 -0.4020 -0.3822  0.1333
 1012MOL0     C36512   1.128   1.142   4.522 -0.1030 -0.6698 -0.3654
 1012MOL0     C36513   1.222   1.117   4.401 -0.2665 -0.3426 -0.5369
 1012MOL0     C36514   0.998   1.104   4.514  0.6341  0.0278  0.2996
 1012MOL0     C36515   0.946   1.050   4.392  0.5679  0.0089 -0.6030
 1012MOL0     O36516   0.852   1.116   4.334 -0.0311  0.0789  0.9301
 1012MOL0     C36517   0.769   1.059   4.234  0.1388  0.4253 -0.5536
 1012MOL0     C36518   0.645   1.116   4.237  0.7368 -0.1288 -0.3316
 1012MOL0     C36519   0.548   1.080   4.142 -2.0249 -0.7823 -0.1755
 1012MOL0     C36520   0.593   1.012   4.028  0.5975 -0.3973  0.1497
 1012MOL0     O36521   0.498   0.990   3.930 -0.5002  0.1037 -0.3283
 1012MOL0     C36522   0.537   0.989   3.792  0.0631 -0.6836 -0.3706
 1012MOL0     C36523   0.412   0.982   3.714  0.4468  0.5163 -0.4732
 1012MOL0     C36524   0.346   0.847   3.717 -0.9321 -1.2344  0.9375
 1012MOL0     C36525   0.233   0.833   3.618 -0.5149 -0.1568 -0.1016
 1012MOL0     C36526   0.115   0.923   3.641 -1.3329 -0.3389 -0.1489
 1012MOL0     C36527   0.018   0.886   3.526  0.6218 -0.1176 -0.1018
 1012MOL0     C36528  -0.084   1.002   3.520 -0.0392  0.0783  0.6824
 1012MOL0     C36529  -0.190   0.987   3.406 -0.2708  0.2697 -0.5479
 1012MOL0    Cl36530  -0.131   1.052   3.252  0.5525 -0.0279  0.2046
 1012MOL0     C36531   0.724   0.963   4.012 -1.0896  0.0755 -0.0937
 1012MOL0     C36532   0.813   0.982   4.122 -0.1446  0.1073  0.2013
 1012MOL0     O36533   0.983   0.930   4.361  0.6396 -0.2322  0.3175
 1012MOL0     C36534   0.918   1.131   4.628 -0.5687 -0.6358  0.6753
 1012MOL0     C36535   0.968   1.198   4.741  0.0765 -0.3141  0.1237
 1012MOL0     N36536   1.420   0.859   5.017  0.8951  0.0771  0.3874
 1012MOL0     N36537   1.446   0.738   4.988  0.0238 -0.7344 -0.0749
 1012MOL0     C36538   2.229   0.537   5.363 -0.2158 -0.8605  1.5959
 1012MOL0     C36539   2.337   0.582   5.290  0.9963 -0.5015 -0.7607
 1012MOL0     C36540   2.770   0.651   5.143 -0.8937 -0.4211  0.1621
 1012MOL0     C36541   2.910   0.606   5.153 -0.0759 -0.5921 -0.7068
 1012MOL0     C36542   2.981   0.606   5.028  0.8424 -0.3393 -0.0553
 1012MOL0     C36543   2.930   0.638   4.905  0.5503  0.4363  0.3810
 1012MOL0     O36544   3.005   0.630   4.794 -0.5370  0.5433 -0.8361
 1012MOL0     C36545   3.011   0.746   4.705 -0.0758  0.5180 -0.1513
 1012MOL0     C36546   3.095   0.857   4.760  0.0086  0.1579 -0.6278
 1012MOL0     C36547   3.232   0.809   4.814 -0.1433 -0.7403  0.9589
 1012MOL0     C36548   3.315   0.930   4.847  0.0454  0.2407  1.2704
 1012MOL0     C36549   3.385   0.986   4.722  0.1278 -0.4907 -0.1311
 1012MOL0     C36550   3.439   1.052   4.633 -0.6531 -0.0455  0.0455
 1012MOL0     C36551   2.794   0.670   4.894  0.3243  0.9728  0.1246
 1012MOL0     C36552   2.717   0.682   5.007 -0.1669  1.1247  0.5301
 1012MOL0     H36553   2.569   0.573   5.534  1.3792 -2.5628 -1.0001
 1012MOL0     H36554   2.363   0.476   5.659  2.6448 -1.9115 -0.4382
 1012MOL0     H36555   1.957   0.387   5.616  4.5057  0.6078  3.6734
 1012MOL0     H36556   1.970   0.474   5.460 -1.5056 -1.6877 -1.0122
 1012MOL0     H36557   2.073   0.290   5.353 -2.4631  0.6872 -0.9862
 1012MOL0     H36558   2.081   0.194   5.510 -1.1988 -1.8337 -1.6333
 1012MOL0     H36559   1.884   0.143   5.339  4.0431  1.6214 -3.3223
 1012MOL0     H36560   1.841   0.193   5.509 -1.1142 -0.6069 -0.2438
 1012MOL0     H36561   1.775   0.434   5.400 -0.1254 -2.0636  2.3350
 1012MOL0     H36562   1.851   0.362   5.264  4.0134  0.5786  2.2337
 1012MOL0     H36563   1.649   0.171   5.313  0.3884  0.8216 -1.3397
 1012MOL0     H36564   1.585   0.286   5.425  0.0608 -1.0314 -0.5115
 1012MOL0     H36565   1.642   0.329   5.122  2.1123  0.2325  1.7037
 1012MOL0     H36566   1.485   0.288   5.192 -1.4699  3.7364  0.6599
 1012MOL0     H36567   1.520   0.507   5.330  0.9156  3.3875 -0.4163
 1012MOL0     H36568   1.655   0.533   5.227 -0.0785  0.2086 -1.9966
 1012MOL0     H36569   1.369   0.473   5.128  0.2816 -0.1358 -0.2561
 1012MOL0     H36570   1.497   0.507   5.016 -0.5903  1.5971 -0.5603
 1012MOL0     H36571   1.410   0.727   5.315 -1.4479  0.3635  0.1798
 1012MOL0     H36572   1.272   0.992   5.265 -0.3218 -0.7280 -0.1607
 1012MOL0     H36573   1.441   1.033   5.295  0.0241  0.3919 -0.7693
 1012MOL0     H36574   1.454   1.109   5.047 -1.5350 -0.4813 -0.6478
 1012MOL0     H36575   1.378   1.214   5.177  0.0680  0.2128  1.4101
 1012MOL0     H36576   1.152   1.146   5.083  1.0477  3.3395  1.4256
 1012MOL0     H36577   1.244   1.039   4.979  0.7095 -0.6361  1.6599
 1012MOL0     H36578   1.332   1.222   4.838  0.9487  0.7786  0.1207
 1012MOL0     H36579   1.300   1.330   4.983  1.3912 -0.8096 -0.3202
 1012MOL0     H36580   1.278   1.247   4.626 -0.2449 -0.4874  2.7242
 1012MOL0     H36581   1.324   1.137   4.434 -1.2976  1.1124  2.0480
 1012MOL0     H36582   1.223   1.010   4.378 -0.4439 -0.5095  0.1885
 1012MOL0     H36583   1.186   1.172   4.314  1.8247 -0.3130 -1.4304
 1012MOL0     H36584   0.617   1.201   4.297  1.2640  0.3613 -0.7751
 1012MOL0     H36585   0.446   1.115   4.132 -1.3688  1.3389  0.1432
 1012MOL0     H36586   0.593   1.076   3.755  3.4936 -3.0630 -1.2755
 1012MOL0     H36587   0.606   0.905   3.784  1.4444  0.4308 -0.5240
 1012MOL0     H36588   0.334   1.049   3.752 -1.3516 -2.2793  1.0358
 1012MOL0     H36589   0.437   1.008   3.611  1.1326  0.3870 -0.3454
 1012MOL0     H36590   0.325   0.810   3.818 -1.4387 -0.2201  1.2082
 1012MOL0     H36591   0.432   0.787   3.684 -0.5723 -0.2402  0.0045
 1012MOL0     H36592   0.264   0.839   3.513 -0.1667  0.4053  0.0308
 1012MOL0     H36593   0.202   0.728   3.628  0.2113 -0.5971 -2.0244
 1012MOL0     H36594   0.134   1.030   3.653  0.6837 -0.7780  0.9591
 1012MOL0     H36595   0.063   0.895   3.734 -1.0738  0.1094  0.1325
 1012MOL0     H36596   0.074   0.896   3.432  1.5580 -0.1804  0.4409
 1012MOL0     H36597  -0.032   0.789   3.536 -1.5190  0.8521 -0.7014
 1012MOL0     H36598  -0.035   1.097   3.496 -1.3614  0.6655  0.2247
 1012MOL0     H36599  -0.129   1.006   3.619  2.7344 -2.0288  2.1836
 1012MOL0     H36600  -0.269   1.049   3.450  0.0227 -2.3413  4.4161
 1012MOL0     H36601  -0.218   0.881   3.401 -1.9315  0.6854 -0.6982
 1012MOL0     H36602   0.762   0.906   3.928 -0.2593 -1.9168  1.5226
 1012MOL0     H36603   0.918   0.953   4.121 -0.5208 -1.4085 -1.3778
 1012MOL0     H36604   0.815   1.096   4.622 -0.6709 -0.5244  1.6252
 1012MOL0     H36605   0.902   1.222   4.823 -1.0818 -1.9442 -0.2697
 1012MOL0     H36606   2.137   0.517   5.310  1.8170 -4.1256 -1.1858
 1012MOL0     H36607   2.328   0.593   5.182  0.9220 -3.3256 -1.1204
 1012MOL0     H36608   2.955   0.576   5.247 -2.1502 -1.0085  0.2181
 1012MOL0     H36609   3.086   0.582   5.030  0.7736 -0.6011  0.5355
 1012MOL0     H36610   3.049   0.699   4.614 -5.3756 -2.8020 -1.1291
 1012MOL0     H36611   2.909   0.777   4.680  1.2544  3.4115 -2.6331
 1012MOL0     H36612   3.040   0.900   4.844  1.1589  2.7030 -1.0928
 1012MOL0     H36613   3.106   0.946   4.697  2.3698  3.0492  3.4152
 1012MOL0     H36614   3.293   0.749   4.746  1.6140  1.8560  0.0958
 1012MOL0     H36615   3.206   0.748   4.901  1.0085 -2.6544  0.0047
 1012MOL0     H36616   3.384   0.916   4.930 -2.0812  1.1574  3.3151
 1012MOL0     H36617   3.259   1.017   4.883  3.2411  1.7038  3.1857
 1012MOL0     H36618   3.481   1.096   4.545 -3.2485 -1.8908 -2.2928
 1012MOL0     H36619   2.754   0.701   4.799  1.4905 -2.4007 -1.6467
 1012MOL0     H36620   2.616   0.717   4.986  0.2886  2.5134  0.5444
 1013MOL0     O36621   0.399   9.420   3.819 -0.5477  0.1654 -0.2611
 1013MOL0     C36622   0.398   9.301   3.793 -0.5104  0.9590 -0.4284
 1013MOL0     O36623   0.317   9.232   3.705  0.2031 -0.8799  0.4084
 1013MOL0     C36624   0.200   9.285   3.651 -0.0411  0.0241 -0.2558
 1013MOL0     C36625   0.177   9.272   3.510 -1.1423  0.0925  0.4238
 1013MOL0     C36626   0.069   9.337   3.455 -0.3446  0.3926  0.1306
 1013MOL0     C36627  -0.008   9.425   3.530  0.3266 -0.1217  0.3912
 1013MOL0     O36628  -0.093   9.509   3.463  0.6177  0.3330 -0.5862
 1013MOL0     C36629  -0.204   9.571   3.547  0.1332 -0.7410  0.5014
 1013MOL0     C36630  -0.329   9.603   3.466 -0.3764 -0.2047 -0.1956
 1013MOL0     C36631  -0.406   9.473   3.441 -0.8170  0.8439  0.5876
 1013MOL0     C36632  -0.552   9.510   3.419 -0.2130 -0.7464  0.3665
 1013MOL0     C36633  -0.578   9.612   3.304  0.3116 -0.7937 -0.3209
 1013MOL0     C36634  -0.532   9.564   3.159 -0.1199 -1.0276  0.4543
 1013MOL0     C36635  -0.515   9.678   3.061  0.0882 -0.1667  0.0184
 1013MOL0     C36636  -0.498   9.610   2.916  1.0693  0.4912  0.1588
 1013MOL0     N36637  -0.458   9.694   2.799 -0.1344  0.1076 -0.1169
 1013MOL0     C36638  -0.434   9.827   2.795 -0.2013  0.0271  0.4364
 1013MOL0     C36639  -0.378   9.852   2.676  0.2384  0.5386 -0.4771
 1013MOL0     C36640  -0.347   9.993   2.627  1.2147 -0.2513 -0.0408
 1013MOL0     C36641  -0.218  10.042   2.695  0.4473  0.1499 -0.6737
 1013MOL0     C36642  -0.133  10.108   2.592  0.1511 -0.7402  1.5533
 1013MOL0     C36643   0.004  10.157   2.654  0.5344  0.5852 -0.2374
 1013MOL0     O36644   0.054  10.258   2.566  0.0896 -0.0670 -0.3345
 1013MOL0     C36645   0.177  10.312   2.603 -0.3706  0.7972  0.0039
 1013MOL0     C36646   0.228  10.417   2.529 -0.3665  0.2164  0.5068
 1013MOL0     C36647   0.343  10.492   2.561  0.1417 -0.6966  0.0267
 1013MOL0     C36648   0.376  10.614   2.478  0.1945  0.3971 -0.8884
 1013MOL0     C36649   0.430  10.440   2.664 -0.4207 -0.0906  0.2731
 1013MOL0     C36650   0.567  10.506   2.703 -0.3563  0.2807 -0.0493
 1013MOL0     O36651   0.618  10.455   2.813  0.1594  0.1928 -0.4005
 1013MOL0     C36652   0.730  10.506   2.873  0.3709 -0.1363 -0.0795
 1013MOL0     C36653   0.721  10.523   3.019  0.3400  0.0591  0.5798
 1013MOL0     C36654   0.831  10.577   3.088  0.6920 -0.1515  0.2742
 1013MOL0     C36655   0.952  10.596   3.023  0.1367 -0.4357 -0.7991
 1013MOL0     O36656   1.060  10.639   3.088  0.2707  0.1978 -0.2269
 1013MOL0     C36657   1.143  10.527   3.123 -1.1243 -0.1053  0.2228
 1013MOL0     C36658   1.279  10.571   3.186  0.3288  0.2111  0.5401
 1013MOL0     C36659   1.269  10.602   3.336  0.6355  0.3792 -0.1032
 1013MOL0     C36660   1.389  10.672   3.386  0.4979 -0.2924 -0.1118
 1013MOL0     C36661   1.369  10.823   3.392 -0.4634 -0.1634 -0.5319
 1013MOL0     C36662   1.275  10.872   3.502  0.1979 -0.6335  0.1341
 1013MOL0     C36663   1.295  10.817   3.646 -0.3700  0.3375 -0.3800
 1013MOL0     C36664   1.188  10.871   3.748  0.1949  0.0986  0.4147
 1013MOL0    Cl36665   1.039  10.803   3.714  0.1056 -0.0178 -0.2767
 1013MOL0     C36666   0.971  10.567   2.889  0.3403  0.0708  0.1888
 1013MOL0     C36667   0.852  10.542   2.809 -0.3294  0.2970  0.3198
 1013MOL0     O36668   0.622  10.596   2.637 -0.6441 -0.1306 -0.1175
 1013MOL0     C36669   0.386  10.334   2.736 -0.1548  0.5785 -0.5977
 1013MOL0     C36670   0.265  10.269   2.711  0.4640  0.9580 -0.2902
 1013MOL0     N36671  -0.368   9.727   2.615  0.6746  0.4838  0.4874
 1013MOL0     N36672  -0.427   9.636   2.681  0.0126  0.1472 -0.1672
 1013MOL0     C36673   0.013   9.431   3.667 -0.6196  1.1485  0.5548
 1013MOL0     C36674   0.112   9.356   3.733 -0.2243 -0.5188  0.3464
 1013MOL0     C36675   0.513   9.218   3.852  0.8986  0.7163  0.1009
 1013MOL0     C36676   0.563   9.098   3.791 -0.9709  0.0528  0.7590
 1013MOL0     C36677   0.662   9.021   3.846  0.4336 -0.3291  0.3749
 1013MOL0     C36678   0.702   9.048   3.981 -0.8854 -0.5869 -0.0743
 1013MOL0     O36679   0.796   8.969   4.042  0.3946 -0.8924  0.4866
 1013MOL0     C36680   0.874   9.007   4.157 -0.7307  0.1072  0.3835
 1013MOL0     C36681   0.990   9.104   4.122  0.3156 -0.7612 -0.0089
 1013MOL0     C36682   1.087   9.058   4.008 -0.0520  0.5211 -0.6400
 1013MOL0     C36683   1.154   8.926   4.027 -0.2245 -0.0212 -0.5038
 1013MOL0     C36684   1.232   8.870   3.921  0.0824  0.5228  0.1912
 1013MOL0     C36685   1.299   8.826   3.830  0.0834 -0.9364  0.2962
 1013MOL0     C36686   0.639   9.152   4.049  0.0049 -0.2092  0.5193
 1013MOL0     C36687   0.553   9.244   3.985  0.2654  0.6528  0.2211
 1013MOL0     H36688   0.247   9.210   3.455 -2.0093  0.3326 -1.0348
 1013MOL0     H36689   0.063   9.329   3.346  0.1612  1.2165  0.0381
 1013MOL0     H36690  -0.230   9.502   3.629 -0.4575  0.9049  1.7517
 1013MOL0     H36691  -0.154   9.664   3.574  0.4944 -0.2625 -1.6796
 1013MOL0     H36692  -0.385   9.677   3.523  0.8029  0.8335 -0.3436
 1013MOL0     H36693  -0.310   9.658   3.374  3.1686 -0.3695  0.2941
 1013MOL0     H36694  -0.381   9.428   3.344  0.9382  3.8561 -0.4803
 1013MOL0     H36695  -0.397   9.403   3.524 -0.4097  2.0916  1.6306
 1013MOL0     H36696  -0.605   9.417   3.396 -1.6282  0.7786 -3.3173
 1013MOL0     H36697  -0.579   9.555   3.515  0.4533  2.4099 -0.8157
 1013MOL0     H36698  -0.684   9.638   3.299  1.1194  2.9546 -2.0073
 1013MOL0     H36699  -0.533   9.709   3.330 -1.8132  1.2089 -3.3862
 1013MOL0     H36700  -0.435   9.514   3.152  2.8534  4.1725 -1.1421
 1013MOL0     H36701  -0.606   9.496   3.117 -1.9851  1.2667 -0.1619
 1013MOL0     H36702  -0.596   9.750   3.055 -0.7435 -1.1200 -0.4219
 1013MOL0     H36703  -0.426   9.730   3.100  1.0102 -3.0208  2.1610
 1013MOL0     H36704  -0.601   9.577   2.896  1.2261 -0.3270  0.6379
 1013MOL0     H36705  -0.442   9.517   2.928  1.4387  0.3319 -2.3695
 1013MOL0     H36706  -0.446   9.903   2.871  1.4100  1.0035 -0.2304
 1013MOL0     H36707  -0.331   9.997   2.519  2.2116  3.6146  0.1171
 1013MOL0     H36708  -0.429  10.052   2.670  1.5387 -0.0767  0.3436
 1013MOL0     H36709  -0.169   9.960   2.748 -4.1001 -1.4190  1.6217
 1013MOL0     H36710  -0.244  10.122   2.764  2.8643 -1.2276  2.0497
 1013MOL0     H36711  -0.186  10.192   2.544  1.4403  0.0824  1.5287
 1013MOL0     H36712  -0.115  10.047   2.503  2.1387 -1.1707  2.2083
 1013MOL0     H36713   0.071  10.072   2.668  0.3147  0.6010  1.0576
 1013MOL0     H36714  -0.016  10.198   2.753  1.2699 -1.2854  0.7322
 1013MOL0     H36715   0.172  10.461   2.447 -2.0224 -0.8359  1.0254
 1013MOL0     H36716   0.451  10.592   2.402  0.3721  0.1296 -0.6392
 1013MOL0     H36717   0.294  10.648   2.414 -1.6190  0.4770  1.3539
 1013MOL0     H36718   0.389  10.703   2.539 -2.0491  0.6453 -0.6778
 1013MOL0     H36719   0.630  10.506   3.075 -1.7445  3.0682 -1.5570
 1013MOL0     H36720   0.818  10.577   3.196 -1.1693 -2.1007  0.1075
 1013MOL0     H36721   1.096  10.457   3.193 -0.2378  0.9917  1.9918
 1013MOL0     H36722   1.177  10.467   3.038 -1.1836  1.4794 -0.9739
 1013MOL0     H36723   1.339  10.482   3.162  2.5252  1.9502 -0.9084
 1013MOL0     H36724   1.318  10.653   3.125 -1.5888  0.9428  0.2528
 1013MOL0     H36725   1.275  10.505   3.385  0.9022 -0.9737 -2.6506
 1013MOL0     H36726   1.177  10.660   3.334  1.4320  1.7214 -2.8819
 1013MOL0     H36727   1.409  10.634   3.487  1.4362 -1.0865 -0.5813
 1013MOL0     H36728   1.476  10.645   3.326  0.6659 -1.8241  0.7544
 1013MOL0     H36729   1.323  10.865   3.302 -1.6752  1.1982  0.6647
 1013MOL0     H36730   1.471  10.861   3.403  0.5241 -3.2116  2.8321
 1013MOL0     H36731   1.292  10.980   3.497  0.6169 -0.7279 -0.5843
 1013MOL0     H36732   1.167  10.871   3.483  0.0231  2.8035  0.2598
 1013MOL0     H36733   1.399  10.830   3.679  0.7392 -4.3091 -1.2926
 1013MOL0     H36734   1.282  10.709   3.644 -1.1177  0.4118  0.2917
 1013MOL0     H36735   1.195  10.980   3.755  2.1489 -0.0041  0.4151
 1013MOL0     H36736   1.223  10.839   3.846 -1.1911  0.3207  1.0083
 1013MOL0     H36737   1.064  10.569   2.834 -0.1388 -0.9518 -0.6742
 1013MOL0     H36738   0.864  10.536   2.701 -2.6884 -1.8868  0.0882
 1013MOL0     H36739   0.457  10.285   2.802  2.8582  3.6559 -1.3011
 1013MOL0     H36740   0.221  10.198   2.780 -0.3069 -0.2385 -1.9367
 1013MOL0     H36741  -0.037   9.505   3.729  0.6660  1.4792  1.2389
 1013MOL0     H36742   0.120   9.375   3.840  0.6284 -0.3503  0.2615
 1013MOL0     H36743   0.525   9.065   3.695  1.3307  2.0364 -0.9691
 1013MOL0     H36744   0.692   8.929   3.795 -0.1141  0.0486 -0.6751
 1013MOL0     H36745   0.814   9.054   4.235  0.6658 -1.1958  2.3303
 1013MOL0     H36746   0.923   8.916   4.193  1.3093  0.4560 -1.3268
 1013MOL0     H36747   1.041   9.119   4.218 -1.3629  0.3171  0.7691
 1013MOL0     H36748   0.945   9.198   4.088  2.0075  0.0907 -0.0342
 1013MOL0     H36749   1.172   9.124   3.987 -0.7539  1.2698 -1.1847
 1013MOL0     H36750   1.022   9.051   3.921 -0.7038  3.9527 -0.5513
 1013MOL0     H36751   1.067   8.859   4.031 -0.9036  0.8116 -0.9941
 1013MOL0     H36752   1.218   8.926   4.116  1.7735 -0.4865 -1.8776
 1013MOL0     H36753   1.360   8.783   3.753 -3.3635 -0.6607 -2.8955
 1013MOL0     H36754   0.661   9.168   4.155  1.5624  0.0956  0.1694
 1013MOL0     H36755   0.521   9.333   4.038 -0.7513  3.0750 -4.0045
 1014MOL0     O36756   4.516   3.320   1.560 -0.9664  0.4244  0.1456
 1014MOL0     C36757   4.541   3.309   1.675 -0.1773 -0.6615 -1.2849
 1014MOL0     O36758   4.599   3.196   1.745  0.2987  0.1396 -0.2303
 1014MOL0     C36759   4.594   3.065   1.693  0.3523  0.7510 -0.5442
 1014MOL0     C36760   4.678   2.971   1.746 -1.1415  0.6046  0.0593
 1014MOL0     C36761   4.684   2.846   1.701 -0.4054  0.6145 -0.2392
 1014MOL0     C36762   4.604   2.805   1.591 -0.5971  0.6088  0.4685
 1014MOL0     O36763   4.627   2.686   1.524 -0.4078 -0.8220  0.5702
 1014MOL0     C36764   4.633   2.567   1.597 -1.1888 -0.4430 -0.8308
 1014MOL0     C36765   4.636   2.454   1.502 -0.1064  0.7195 -0.3222
 1014MOL0     C36766   4.764   2.454   1.421 -1.1534 -0.6071  0.0853
 1014MOL0     C36767   4.773   2.344   1.307  0.7378 -0.4165 -0.5945
 1014MOL0     C36768   4.911   2.336   1.249  0.1101  0.5437  1.2979
 1014MOL0     C36769   4.896   2.218   1.159  0.4487 -0.3645 -0.7640
 1014MOL0     C36770   4.899   2.077   1.216 -0.5946 -0.0973 -0.5559
 1014MOL0     C36771   5.012   1.988   1.149 -0.4630  0.6098  0.6621
 1014MOL0     N36772   5.140   2.039   1.175  0.4853  0.8965 -0.0160
 1014MOL0     C36773   5.193   2.057   1.297  0.4922 -1.4232  0.0290
 1014MOL0     C36774   5.306   2.126   1.274 -0.1717 -0.4424  0.1449
 1014MOL0     C36775   5.402   2.184   1.373  0.7866  0.7299 -0.0082
 1014MOL0     C36776   5.362   2.294   1.466 -0.2501  0.6695 -0.2114
 1014MOL0     C36777   5.290   2.417   1.400 -0.3108  0.1877  0.2762
 1014MOL0     C36778   5.246   2.514   1.513  0.4079  0.1141 -0.6302
 1014MOL0     O36779   5.353   2.543   1.607 -0.0693 -0.0568 -0.5402
 1014MOL0     C36780   5.313   2.629   1.713  0.2861 -0.9088 -0.0021
 1014MOL0     C36781   5.197   2.710   1.720 -0.2313  0.0191  0.9987
 1014MOL0     C36782   5.192   2.808   1.825 -0.0997  0.2116 -0.3423
 1014MOL0     C36783   5.063   2.885   1.847  0.7636 -0.9442  0.8605
 1014MOL0     C36784   5.303   2.818   1.915  0.1164 -0.6137 -1.4162
 1014MOL0     C36785   5.308   2.925   2.025  0.0580 -0.7880  0.3614
 1014MOL0     O36786   5.411   2.905   2.116 -0.1461  0.0660  0.0032
 1014MOL0     C36787   5.409   2.995   2.217 -0.0269 -0.1233  0.4166
 1014MOL0     C36788   5.471   3.114   2.191  0.3848  0.1877  0.2594
 1014MOL0     C36789   5.476   3.219   2.283  0.6379  0.2270 -0.1938
 1014MOL0     C36790   5.423   3.202   2.413  0.8820  0.4188  0.4214
 1014MOL0     O36791   5.408   3.305   2.493  0.7009  0.0868 -1.0991
 1014MOL0     C36792   5.502   3.418   2.474  1.0882  1.2658  0.2551
 1014MOL0     C36793   5.496   3.521   2.583  0.0444 -0.3649 -0.5219
 1014MOL0     C36794   5.345   3.576   2.591  0.5968 -0.8580 -0.2969
 1014MOL0     C36795   5.311   3.708   2.663  1.1622 -0.0800  0.3447
 1014MOL0     C36796   5.157   3.720   2.686 -0.1953  0.1280 -0.0362
 1014MOL0     C36797   5.127   3.863   2.734  0.1374  0.3212 -0.8741
 1014MOL0     C36798   4.973   3.872   2.748  0.3331 -0.2544 -1.2634
 1014MOL0     C36799   4.910   3.787   2.853 -0.0643  0.5250 -0.5989
 1014MOL0    Cl36800   4.988   3.792   3.012  0.0501 -0.1979 -0.1395
 1014MOL0     C36801   5.353   3.073   2.439 -1.1589 -1.0080 -0.6648
 1014MOL0     C36802   5.350   2.970   2.345 -0.1573  0.7632  0.5214
 1014MOL0     O36803   5.231   3.019   2.028 -0.0070  0.2098  0.0258
 1014MOL0     C36804   5.408   2.722   1.906 -0.5030  0.2330  0.2484
 1014MOL0     C36805   5.411   2.634   1.806 -0.1146 -0.5201  0.3145
 1014MOL0     N36806   5.322   2.148   1.137  0.0044  0.5011  0.1006
 1014MOL0     N36807   5.225   2.084   1.078  0.3788  0.8506 -0.0019
 1014MOL0     C36808   4.515   2.896   1.537  0.5949  0.1915  0.6848
 1014MOL0     C36809   4.502   3.028   1.584  0.3629  0.0764 -0.6642
 1014MOL0     C36810   4.520   3.435   1.759  0.1342 -0.4533 -0.7738
 1014MOL0     C36811   4.566   3.443   1.889  0.2704  0.2855  0.2563
 1014MOL0     C36812   4.568   3.563   1.962 -0.1007 -0.3683 -0.7148
 1014MOL0     C36813   4.512   3.681   1.921 -0.0487  0.1104 -0.0988
 1014MOL0     O36814   4.538   3.793   1.990 -0.2169 -0.5111 -1.0970
 1014MOL0     C36815   4.465   3.912   1.957  1.3708 -0.7544  0.4188
 1014MOL0     C36816   4.459   4.008   2.065 -0.0055 -0.9503 -0.2026
 1014MOL0     C36817   4.401   3.956   2.194  0.4414 -0.8247 -0.7277
 1014MOL0     C36818   4.397   4.053   2.310  0.3977  0.1053 -0.2169
 1014MOL0     C36819   4.319   3.996   2.422  0.4516 -0.2564 -0.9360
 1014MOL0     C36820   4.256   3.970   2.520 -0.6937 -0.7717 -0.5972
 1014MOL0     C36821   4.453   3.664   1.792  0.0532  0.2613 -0.6439
 1014MOL0     C36822   4.461   3.549   1.711  1.0974 -0.9432 -0.4103
 1014MOL0     H36823   4.731   3.010   1.832  0.6620 -2.3874  0.4448
 1014MOL0     H36824   4.751   2.772   1.744 -2.4492 -0.5361  1.1161
 1014MOL0     H36825   4.721   2.569   1.662 -0.2890 -1.1332 -1.9754
 1014MOL0     H36826   4.544   2.565   1.660 -1.8572  0.4813 -1.7298
 1014MOL0     H36827   4.619   2.364   1.563  4.0623  0.0410  0.1684
 1014MOL0     H36828   4.555   2.461   1.428  1.1638  1.7838 -1.6673
 1014MOL0     H36829   4.768   2.553   1.374 -0.2237 -1.2070 -1.1612
 1014MOL0     H36830   4.838   2.435   1.500  1.8486  0.3772 -2.3049
 1014MOL0     H36831   4.738   2.250   1.352  1.5675  0.3724  1.8835
 1014MOL0     H36832   4.705   2.371   1.226  0.7667  1.0483 -0.1587
 1014MOL0     H36833   4.940   2.422   1.187 -0.1528  1.2374  2.1148
 1014MOL0     H36834   4.984   2.319   1.328  0.3533 -1.2259  0.7262
 1014MOL0     H36835   4.800   2.228   1.106 -0.5454 -0.4396  0.9663
 1014MOL0     H36836   4.974   2.242   1.086  1.6563  3.3510  1.4668
 1014MOL0     H36837   4.930   2.079   1.321  2.7173  0.1676 -1.4128
 1014MOL0     H36838   4.806   2.024   1.195 -0.7587 -0.7610  1.6509
 1014MOL0     H36839   4.990   1.974   1.042  0.6892 -1.1146  0.6211
 1014MOL0     H36840   4.991   1.897   1.205  0.2458  1.6839  2.7924
 1014MOL0     H36841   5.155   2.025   1.393 -2.0405 -0.6995 -0.6653
 1014MOL0     H36842   5.418   2.098   1.439 -3.8259  1.1765  2.1235
 1014MOL0     H36843   5.496   2.204   1.321  1.7858  0.1243  1.4674
 1014MOL0     H36844   5.455   2.329   1.511  1.2808  1.9053 -3.9604
 1014MOL0     H36845   5.293   2.244   1.535  0.0079  0.4022 -0.1481
 1014MOL0     H36846   5.216   2.387   1.325  2.1169  2.0104 -3.1516
 1014MOL0     H36847   5.366   2.474   1.345  2.0970 -3.7107 -0.8248
 1014MOL0     H36848   5.158   2.481   1.569 -0.1392  1.0226 -0.9306
 1014MOL0     H36849   5.223   2.614   1.474  0.5027  0.6491  0.6641
 1014MOL0     H36850   5.121   2.707   1.644  1.3533  0.3111 -0.6634
 1014MOL0     H36851   4.988   2.832   1.788  2.0549  0.4218 -2.2428
 1014MOL0     H36852   5.050   2.876   1.955 -0.5089 -2.1861  0.6326
 1014MOL0     H36853   5.082   2.985   1.808 -1.5587 -0.6741  0.3117
 1014MOL0     H36854   5.506   3.134   2.091 -0.5199  1.5030  0.1747
 1014MOL0     H36855   5.528   3.310   2.257  1.6263 -0.1209  0.4895
 1014MOL0     H36856   5.603   3.382   2.451  1.5610  2.6797  0.0240
 1014MOL0     H36857   5.468   3.474   2.387 -1.3314 -0.1233  0.2366
 1014MOL0     H36858   5.534   3.485   2.680  2.1633  3.6409  0.3655
 1014MOL0     H36859   5.559   3.608   2.560 -0.7330  0.5619  0.7559
 1014MOL0     H36860   5.290   3.490   2.631  1.0574 -1.2749 -0.5519
 1014MOL0     H36861   5.302   3.579   2.490  1.6126  0.0064 -0.7330
 1014MOL0     H36862   5.359   3.699   2.760 -0.3998 -0.1526  1.1466
 1014MOL0     H36863   5.353   3.797   2.614  0.3055 -0.1349 -0.5442
 1014MOL0     H36864   5.109   3.646   2.751 -1.7729  1.6313  0.6120
 1014MOL0     H36865   5.112   3.692   2.591  2.5958 -4.3111 -0.3225
 1014MOL0     H36866   5.185   3.884   2.824  1.5789 -0.4660 -1.5951
 1014MOL0     H36867   5.166   3.931   2.658  2.5027 -0.5626 -0.5126
 1014MOL0     H36868   4.929   3.848   2.651  2.8343 -5.1799 -1.4815
 1014MOL0     H36869   4.953   3.977   2.770  1.0112 -0.0925 -1.4029
 1014MOL0     H36870   4.901   3.684   2.819  2.3133 -0.0657  0.3354
 1014MOL0     H36871   4.809   3.828   2.858 -1.5389 -2.9173  1.1157
 1014MOL0     H36872   5.301   3.064   2.534  0.8801 -0.7209  0.5302
 1014MOL0     H36873   5.290   2.883   2.366 -2.3888  1.8691 -0.8405
 1014MOL0     H36874   5.480   2.720   1.987  2.9343 -0.1765 -2.5825
 1014MOL0     H36875   5.501   2.574   1.791  0.1574  0.1691 -0.8874
 1014MOL0     H36876   4.445   2.862   1.461  0.5307 -2.1241  1.7149
 1014MOL0     H36877   4.422   3.081   1.533 -0.1918 -0.9076 -0.8402
 1014MOL0     H36878   4.615   3.353   1.925  0.1580  0.4389  0.7947
 1014MOL0     H36879   4.634   3.579   2.047  2.5995  6.3270 -3.3873
 1014MOL0     H36880   4.513   3.969   1.875  3.5006  0.0438  2.1174
 1014MOL0     H36881   4.361   3.886   1.938  1.5726 -1.4679  0.2805
 1014MOL0     H36882   4.408   4.098   2.030  1.6578 -1.7154 -5.3665
 1014MOL0     H36883   4.556   4.058   2.075 -0.6463 -0.0886  2.9456
 1014MOL0     H36884   4.460   3.874   2.237  2.3899  0.8213 -0.0975
 1014MOL0     H36885   4.297   3.930   2.172  0.7803 -1.0742 -2.1317
 1014MOL0     H36886   4.336   4.140   2.284 -0.4213 -0.0837  0.9533
 1014MOL0     H36887   4.499   4.086   2.331  0.2262  1.8264 -1.8421
 1014MOL0     H36888   4.222   3.969   2.622  0.3761 -0.6934 -0.2290
 1014MOL0     H36889   4.387   3.740   1.751 -0.0996 -0.1717 -1.2250
 1014MOL0     H36890   4.426   3.548   1.608  0.7132 -1.3298 -0.2765
 1015MOL0     O36891   4.239   1.582   8.707 -0.0978 -0.3907  0.2716
 1015MOL0     C36892   4.277   1.701   8.738  0.4620  0.4133  0.1156
 1015MOL0     O36893   4.405   1.752   8.728  0.1632  0.0995  0.0562
 1015MOL0     C36894   4.495   1.666   8.680 -0.1847  0.7162 -1.4581
 1015MOL0     C36895   4.521   1.532   8.737 -0.7852  0.5204  0.2064
 1015MOL0     C36896   4.631   1.453   8.698  0.0491  0.0508 -0.0764
 1015MOL0     C36897   4.719   1.514   8.605  0.1710  0.1906  0.2998
 1015MOL0     O36898   4.842   1.459   8.571  0.4035  0.1916  0.2527
 1015MOL0     C36899   4.925   1.416   8.680  0.2755  0.4691 -0.5310
 1015MOL0     C36900   5.036   1.321   8.629  0.1557 -0.0899 -0.9514
 1015MOL0     C36901   5.133   1.292   8.743  0.4710  0.2936 -0.4065
 1015MOL0     C36902   5.242   1.408   8.759 -0.0854  0.0046 -0.3990
 1015MOL0     C36903   5.320   1.413   8.891 -0.6478  0.6927 -0.0695
 1015MOL0     C36904   5.430   1.524   8.893 -0.4964 -0.2153  0.9392
 1015MOL0     C36905   5.523   1.525   9.007 -0.7942 -0.4245 -0.1219
 1015MOL0     C36906   5.632   1.422   8.988  0.8765  0.4426  0.5670
 1015MOL0     N36907   5.714   1.389   9.106  0.3898 -0.3511 -0.6378
 1015MOL0     C36908   5.811   1.462   9.170  0.3937 -0.2820  1.1279
 1015MOL0     C36909   5.851   1.385   9.274  0.3410 -0.1808 -0.0674
 1015MOL0     C36910   5.959   1.418   9.378 -1.3299 -0.7922  0.0783
 1015MOL0     C36911   5.913   1.542   9.446 -0.3916 -0.0003 -0.2930
 1015MOL0     C36912   5.837   1.529   9.582 -0.4474  0.7226  0.3946
 1015MOL0     C36913   5.688   1.559   9.580 -0.7163 -0.3505  0.8741
 1015MOL0     O36914   5.671   1.703   9.554  0.5889 -0.0806  0.2150
 1015MOL0     C36915   5.553   1.771   9.573 -0.5987 -0.1510 -0.4611
 1015MOL0     C36916   5.429   1.719   9.617 -0.3166  0.1520 -0.9618
 1015MOL0     C36917   5.325   1.808   9.654 -0.7914  0.5953  0.3593
 1015MOL0     C36918   5.193   1.736   9.686  0.3085 -0.1873 -0.2806
 1015MOL0     C36919   5.341   1.949   9.644  1.4493 -0.2448 -0.3138
 1015MOL0     C36920   5.247   2.050   9.709  0.7677  0.7622  0.4976
 1015MOL0     O36921   5.167   2.011   9.809 -0.9590  0.7875 -0.3196
 1015MOL0     C36922   5.063   2.087   9.833  0.8226  0.4875  0.8221
 1015MOL0     C36923   4.946   2.058   9.772 -0.8047  0.0429  0.9744
 1015MOL0     C36924   4.841   2.142   9.778  0.2672  0.2552  0.5733
 1015MOL0     C36925   4.837   2.250   9.870 -1.5727  0.5439  0.7543
 1015MOL0     O36926   4.732   2.322   9.896 -0.9552 -0.1006  0.2294
 1015MOL0     C36927   4.602   2.304   9.832  0.5250 -0.4169 -0.3440
 1015MOL0     C36928   4.499   2.404   9.886  0.1258 -0.5747  0.0106
 1015MOL0     C36929   4.503   2.526   9.784 -0.2906  0.0285 -0.1958
 1015MOL0     C36930   4.376   2.554   9.709 -0.4313 -0.0865 -0.0596
 1015MOL0     C36931   4.348   2.452   9.607  0.5273  0.3819  1.2646
 1015MOL0     C36932   4.282   2.313   9.636 -0.5471  0.0639 -1.0469
 1015MOL0     C36933   4.165   2.313   9.741 -0.0873 -0.3761 -0.4099
 1015MOL0     C36934   4.060   2.422   9.713  0.2223  0.4088 -0.1119
 1015MOL0    Cl36935   3.967   2.466   9.856  0.0893  0.3905 -0.1796
 1015MOL0     C36936   4.956   2.275   9.942 -1.0185  0.4719 -0.5247
 1015MOL0     C36937   5.066   2.193   9.926 -1.0235  0.0795 -0.6444
 1015MOL0     O36938   5.249   2.165   9.668 -0.4740  0.6974 -0.5083
 1015MOL0     C36939   5.461   2.001   9.584  1.2707 -0.4463  0.3087
 1015MOL0     C36940   5.564   1.913   9.554 -0.1110  1.2042  0.5838
 1015MOL0     N36941   5.770   1.278   9.274 -0.2508  0.2327  1.0951
 1015MOL0     N36942   5.701   1.272   9.168  0.3904 -0.4118  0.1191
 1015MOL0     C36943   4.694   1.643   8.553 -0.5939  0.4583  1.0399
 1015MOL0     C36944   4.582   1.710   8.586  1.1307 -0.6496 -0.0007
 1015MOL0     C36945   4.158   1.785   8.783  0.0489 -0.7533  0.0083
 1015MOL0     C36946   4.028   1.731   8.817 -1.0576  0.2455  1.2472
 1015MOL0     C36947   3.932   1.807   8.879  0.9299 -0.1110 -0.0797
 1015MOL0     C36948   3.951   1.942   8.912 -0.5425  0.4914 -0.3247
 1015MOL0     O36949   3.844   2.011   8.962  1.0284 -0.1154 -0.5705
 1015MOL0     C36950   3.745   2.071   8.885  0.0991 -0.4369 -0.2443
 1015MOL0     C36951   3.625   2.133   8.958 -0.8679 -0.4008 -0.2726
 1015MOL0     C36952   3.528   2.024   8.997  0.4482 -0.3011 -0.5005
 1015MOL0     C36953   3.431   2.051   9.113  0.5780 -0.6608 -0.5607
 1015MOL0     C36954   3.318   2.144   9.093  0.0032  1.2892 -0.3443
 1015MOL0     C36955   3.230   2.228   9.076 -0.1314  0.6305  0.6863
 1015MOL0     C36956   4.082   2.000   8.875  0.1787  0.2305 -0.5287
 1015MOL0     C36957   4.176   1.923   8.806 -0.6046  0.0151  0.0905
 1015MOL0     H36958   4.460   1.499   8.821 -0.3762  1.4867  0.9057
 1015MOL0     H36959   4.660   1.359   8.743  2.5572  0.7696 -0.0094
 1015MOL0     H36960   4.978   1.501   8.723  1.2771  0.5058 -1.7718
 1015MOL0     H36961   4.871   1.367   8.762  0.2333  1.4469  0.0379
 1015MOL0     H36962   4.990   1.226   8.605  0.5759 -0.6226  0.2611
 1015MOL0     H36963   5.093   1.367   8.547 -1.0584  2.1814 -0.6087
 1015MOL0     H36964   5.079   1.286   8.838  0.5409 -2.4185 -0.4554
 1015MOL0     H36965   5.190   1.199   8.731  1.2424  0.6490  0.4464
 1015MOL0     H36966   5.304   1.425   8.671 -3.6577  2.5725 -2.6934
 1015MOL0     H36967   5.187   1.503   8.765  1.8324  1.1941 -0.9166
 1015MOL0     H36968   5.244   1.427   8.969 -1.9085 -0.2905 -1.0800
 1015MOL0     H36969   5.370   1.317   8.907 -0.5747  1.0132  1.9408
 1015MOL0     H36970   5.488   1.516   8.801  1.0775  0.8835  1.7935
 1015MOL0     H36971   5.369   1.615   8.891 -0.2437 -0.0532  0.4023
 1015MOL0     H36972   5.580   1.619   9.012 -0.5540 -0.4996 -1.2453
 1015MOL0     H36973   5.479   1.511   9.106 -2.8783  1.0367 -0.7680
 1015MOL0     H36974   5.704   1.447   8.909  0.5524 -2.0377 -0.6188
 1015MOL0     H36975   5.579   1.332   8.958 -1.5989  1.6316  1.1618
 1015MOL0     H36976   5.852   1.561   9.151  0.0087 -0.3895 -0.4189
 1015MOL0     H36977   5.981   1.346   9.457  2.0896  0.2094  0.1689
 1015MOL0     H36978   6.051   1.439   9.323 -0.8372  2.4928  1.9224
 1015MOL0     H36979   5.856   1.603   9.376  0.8177 -0.0730 -1.3797
 1015MOL0     H36980   5.993   1.614   9.468 -1.7739  1.4602  0.0978
 1015MOL0     H36981   5.896   1.596   9.645  1.9222  0.5837 -1.5355
 1015MOL0     H36982   5.852   1.424   9.611  2.2007  1.6411  2.7725
 1015MOL0     H36983   5.643   1.535   9.677  0.5172 -0.7564  1.3593
 1015MOL0     H36984   5.635   1.496   9.509 -3.9771  1.0543  1.8799
 1015MOL0     H36985   5.424   1.612   9.630  1.0213 -0.3355 -3.6595
 1015MOL0     H36986   5.170   1.741   9.793  0.8943 -1.1081 -0.1027
 1015MOL0     H36987   5.105   1.781   9.640 -1.0679 -0.9620  1.4624
 1015MOL0     H36988   5.203   1.629   9.663  0.7268 -0.0469 -0.7683
 1015MOL0     H36989   4.942   1.970   9.708 -3.5400  1.0017 -0.3329
 1015MOL0     H36990   4.752   2.117   9.720  0.2582 -1.2119  1.1772
 1015MOL0     H36991   4.608   2.314   9.724 -1.0829  0.6967 -0.3663
 1015MOL0     H36992   4.561   2.206   9.857  3.1049 -1.0077  2.3016
 1015MOL0     H36993   4.397   2.368   9.901  0.0025  0.5525  2.3453
 1015MOL0     H36994   4.532   2.438   9.985 -0.4529 -1.5817  0.5540
 1015MOL0     H36995   4.592   2.519   9.720 -0.8147  0.6236 -1.0022
 1015MOL0     H36996   4.519   2.614   9.847  1.7951  0.2931 -0.9941
 1015MOL0     H36997   4.286   2.562   9.770 -1.0880  2.2305 -1.1956
 1015MOL0     H36998   4.376   2.652   9.660  2.1175  1.9550  3.6019
 1015MOL0     H36999   4.435   2.432   9.544 -1.5800 -2.4277 -1.0566
 1015MOL0     H37000   4.274   2.492   9.538  0.1589 -0.7115  0.9936
 1015MOL0     H37001   4.237   2.264   9.549 -2.9283  2.6048 -1.4052
 1015MOL0     H37002   4.355   2.247   9.683 -0.9408  1.6919  2.0961
 1015MOL0     H37003   4.218   2.313   9.837  0.8250 -0.0104 -0.8982
 1015MOL0     H37004   4.104   2.223   9.736  0.4204 -0.8008  0.6718
 1015MOL0     H37005   3.986   2.379   9.645 -0.2739  0.6216  0.2805
 1015MOL0     H37006   4.089   2.517   9.668 -2.6431  1.3606 -0.1198
 1015MOL0     H37007   4.967   2.345  10.025  0.3704 -1.8915  1.4159
 1015MOL0     H37008   5.160   2.206   9.979 -0.8609 -2.2054 -0.2640
 1015MOL0     H37009   5.480   2.107   9.598 -2.1303  0.1196  1.7647
 1015MOL0     H37010   5.665   1.942   9.527  0.0591  1.0402  1.0339
 1015MOL0     H37011   4.766   1.679   8.481  1.2395  1.2999  3.1914
 1015MOL0     H37012   4.551   1.800   8.533 -2.6226 -3.5696 -3.3367
 1015MOL0     H37013   4.021   1.623   8.806 -1.2110  0.3059  0.6834
 1015MOL0     H37014   3.844   1.756   8.917 -2.2066  5.2971  0.9695
 1015MOL0     H37015   3.803   2.151   8.838  2.0201 -1.3850  0.3879
 1015MOL0     H37016   3.712   2.001   8.808 -0.0225  0.9959 -1.5344
 1015MOL0     H37017   3.578   2.200   8.885 -2.2618 -1.0713 -0.0275
 1015MOL0     H37018   3.668   2.199   9.034 -0.1558  2.4732 -2.9604
 1015MOL0     H37019   3.570   1.926   9.017 -1.1240 -1.3727 -2.1376
 1015MOL0     H37020   3.467   1.996   8.910 -3.4290 -0.8384  2.1487
 1015MOL0     H37021   3.488   2.093   9.196  1.9200  0.1775 -1.8463
 1015MOL0     H37022   3.387   1.957   9.146 -1.9304  1.0701  1.5147
 1015MOL0     H37023   3.149   2.297   9.088  0.1789  0.7096  2.6434
 1015MOL0     H37024   4.103   2.099   8.914 -0.2772 -0.1596  0.7457
 1015MOL0     H37025   4.273   1.969   8.801 -0.0854 -1.1139 -0.6344
 1016MOL0     O37026   2.859  10.608   9.922 -0.7365 -0.0087  0.3454
 1016MOL0     C37027   2.840  10.714   9.987 -0.5601  0.8039 -0.5691
 1016MOL0     O37028   2.749  10.809   9.950  0.4115  0.1513  0.7709
 1016MOL0     C37029   2.682  10.798   9.829  0.1907 -0.4311 -0.6913
 1016MOL0     C37030   2.623  10.686   9.764  0.4405 -0.2079 -0.4226
 1016MOL0     C37031   2.558  10.684   9.649  0.1574 -0.3455  0.0132
 1016MOL0     C37032   2.536  10.801   9.579  0.2080  0.6102 -0.0260
 1016MOL0     O37033   2.457  10.817   9.467 -0.3801  0.0294 -1.1322
 1016MOL0     C37034   2.424  10.696   9.384 -0.2279  0.1727 -0.8159
 1016MOL0     C37035   2.395  10.739   9.244  0.0001 -0.1521 -0.6333
 1016MOL0     C37036   2.349  10.623   9.151  0.1529  1.3155  0.1697
 1016MOL0     C37037   2.437  10.493   9.148 -0.6981 -0.7250  0.5371
 1016MOL0     C37038   2.376  10.375   9.067 -0.6132 -0.4480 -0.5520
 1016MOL0     C37039   2.465  10.247   9.086 -0.3776 -0.0019 -0.5665
 1016MOL0     C37040   2.388  10.118   9.054 -0.2581  0.4990  0.1580
 1016MOL0     C37041   2.475   9.995   9.027  0.8782 -0.1078 -1.2066
 1016MOL0     N37042   2.569   9.968   9.130 -0.8402 -0.4821  0.2300
 1016MOL0     C37043   2.698   9.939   9.097 -0.8404 -0.2576 -0.5958
 1016MOL0     C37044   2.758   9.895   9.202 -0.1383 -0.6380 -1.3093
 1016MOL0     C37045   2.909   9.865   9.217  1.0354 -0.1292 -0.0530
 1016MOL0     C37046   2.964   9.770   9.108  0.1120  0.0424 -1.2207
 1016MOL0     C37047   3.108   9.731   9.132 -0.3624 -0.7842 -0.1692
 1016MOL0     C37048   3.179   9.731   8.993 -0.3248  1.2557  0.1273
 1016MOL0     O37049   3.182   9.862   8.931  0.4214  0.3794  0.4388
 1016MOL0     C37050   3.244   9.860   8.810 -0.0045 -0.3661 -0.9880
 1016MOL0     C37051   3.190   9.819   8.694 -0.4604 -0.2094  0.5499
 1016MOL0     C37052   3.261   9.816   8.579 -0.1848 -0.3639  1.1408
 1016MOL0     C37053   3.176   9.763   8.464 -0.9325  0.3688 -0.1714
 1016MOL0     C37054   3.393   9.858   8.574  0.6188 -0.3117  0.8389
 1016MOL0     C37055   3.462   9.860   8.443  0.5618  1.1593 -0.6596
 1016MOL0     O37056   3.391   9.907   8.334 -0.9146  0.5053 -0.7234
 1016MOL0     C37057   3.462   9.905   8.216  0.3656 -0.3456 -1.1680
 1016MOL0     C37058   3.456   9.795   8.127  0.4539 -1.0856 -0.6211
 1016MOL0     C37059   3.518   9.797   8.000 -0.4671  0.3916 -0.3168
 1016MOL0     C37060   3.605   9.907   7.963  0.8503 -0.0798 -0.1679
 1016MOL0     O37061   3.675   9.885   7.847  0.3814  0.1722 -0.4627
 1016MOL0     C37062   3.716   9.996   7.777  0.3175 -0.2425 -0.0457
 1016MOL0     C37063   3.865   9.995   7.805  0.0238  0.4907 -0.2143
 1016MOL0     C37064   3.917  10.132   7.786 -0.0613 -0.1450 -0.2010
 1016MOL0     C37065   3.917  10.215   7.919  0.5886  0.7247  0.4586
 1016MOL0     C37066   4.037  10.311   7.930  0.2009 -0.2162 -0.2938
 1016MOL0     C37067   4.058  10.373   8.073  0.7186  0.0725 -0.3647
 1016MOL0     C37068   3.918  10.438   8.118 -0.3007  0.8710  0.6296
 1016MOL0     C37069   3.934  10.492   8.260 -0.1676 -0.1856 -0.6920
 1016MOL0    Cl37070   3.772  10.524   8.320 -0.1294  0.0682 -0.3851
 1016MOL0     C37071   3.619  10.016   8.049  0.2944 -1.0645 -0.0307
 1016MOL0     C37072   3.544  10.013   8.170  0.7971 -0.2996 -0.4606
 1016MOL0     O37073   3.579   9.819   8.435  0.6633 -0.6050  0.2404
 1016MOL0     C37074   3.446   9.911   8.695 -0.1895  1.1232 -0.7976
 1016MOL0     C37075   3.374   9.911   8.806  0.0331  0.0701 -0.5632
 1016MOL0     N37076   2.667   9.905   9.311 -0.5566 -0.2065 -0.1799
 1016MOL0     N37077   2.556   9.952   9.272  0.6879  0.0940  0.7927
 1016MOL0     C37078   2.600  10.913   9.623  0.7347 -0.9473 -0.1656
 1016MOL0     C37079   2.672  10.915   9.743  0.3473  1.0496 -0.4645
 1016MOL0     C37080   2.928  10.747  10.100  0.1127 -0.1207 -0.6785
 1016MOL0     C37081   2.941  10.887  10.140 -0.6387 -0.2137 -0.4001
 1016MOL0     C37082   3.018  10.909  10.256  0.1099 -0.2823  0.0177
 1016MOL0     C37083   3.092  10.812  10.324  0.2907  0.2418  0.0923
 1016MOL0     O37084   3.162  10.843  10.437 -0.1352 -0.4301 -0.1234
 1016MOL0     C37085   3.244  10.746  10.502 -0.1303 -0.3404  0.6336
 1016MOL0     C37086   3.312  10.796  10.631  0.1035  0.1567 -0.0493
 1016MOL0     C37087   3.410  10.701  10.706 -0.2901  0.8493 -0.1965
 1016MOL0     C37088   3.539  10.685  10.626 -0.4093 -0.0044 -0.3608
 1016MOL0     C37089   3.641  10.629  10.720  0.3836  0.6950  0.5872
 1016MOL0     C37090   3.726  10.578  10.797  0.5884  0.2458 -0.2682
 1016MOL0     C37091   3.071  10.676  10.284 -0.0519 -0.0305 -0.4176
 1016MOL0     C37092   2.992  10.647  10.174 -0.7544  0.4863  0.3127
 1016MOL0     H37093   2.637  10.596   9.823 -2.2956  0.8085  1.9930
 1016MOL0     H37094   2.512  10.597   9.605  2.1445  0.6583 -4.5929
 1016MOL0     H37095   2.509  10.628   9.387 -2.1352 -2.3406  0.0314
 1016MOL0     H37096   2.351  10.631   9.434  0.9472 -2.4556 -2.2878
 1016MOL0     H37097   2.318  10.816   9.257 -0.4485 -0.6254 -0.4403
 1016MOL0     H37098   2.478  10.786   9.191 -0.6169  1.0150 -0.6029
 1016MOL0     H37099   2.243  10.603   9.168 -0.1180 -0.0725 -2.6312
 1016MOL0     H37100   2.344  10.661   9.049  1.5671 -3.6967 -2.0852
 1016MOL0     H37101   2.539  10.520   9.120 -0.8597 -0.0469  0.5843
 1016MOL0     H37102   2.442  10.448   9.247  1.1771  0.1513  0.8809
 1016MOL0     H37103   2.275  10.354   9.103 -2.0375  0.2133 -3.7612
 1016MOL0     H37104   2.370  10.402   8.961  0.8445  1.5187 -0.2066
 1016MOL0     H37105   2.557  10.254   9.027  0.6127  1.3482  1.0596
 1016MOL0     H37106   2.509  10.241   9.186 -1.7023  0.0160  0.0371
 1016MOL0     H37107   2.317  10.092   9.133  2.1363 -1.9484  1.6759
 1016MOL0     H37108   2.321  10.125   8.967  0.4455 -1.0857 -0.5602
 1016MOL0     H37109   2.521  10.023   8.931  0.0297 -0.7525 -1.8201
 1016MOL0     H37110   2.409   9.908   9.015 -0.5643  0.5001  1.6285
 1016MOL0     H37111   2.739   9.936   8.996  4.6185 -4.7087  1.2577
 1016MOL0     H37112   2.966   9.955   9.197  0.1567 -0.2554 -3.8440
 1016MOL0     H37113   2.934   9.833   9.319  0.2464  1.1609  0.5719
 1016MOL0     H37114   2.952   9.820   9.012 -3.1331  0.5845 -0.6598
 1016MOL0     H37115   2.892   9.688   9.101 -0.4935  0.1053  2.4173
 1016MOL0     H37116   3.106   9.640   9.192 -1.3109 -0.5220  0.2167
 1016MOL0     H37117   3.164   9.804   9.190  1.6464 -2.5513  0.2429
 1016MOL0     H37118   3.123   9.665   8.927 -0.4292  1.1829  0.2885
 1016MOL0     H37119   3.283   9.697   9.003  0.8330  4.0114 -1.5079
 1016MOL0     H37120   3.088   9.786   8.712 -0.1730  0.6545  4.8305
 1016MOL0     H37121   3.233   9.687   8.410 -2.3825 -1.6914  1.0770
 1016MOL0     H37122   3.083   9.719   8.501 -0.6748  1.7740  2.3531
 1016MOL0     H37123   3.141   9.845   8.399 -0.6108  1.5999  1.1498
 1016MOL0     H37124   3.407   9.703   8.158 -1.9903 -0.0411 -1.1265
 1016MOL0     H37125   3.500   9.714   7.932 -2.7705  0.7196 -0.1876
 1016MOL0     H37126   3.695   9.983   7.670 -1.0145  0.6667  0.0824
 1016MOL0     H37127   3.685  10.096   7.809  1.9750  0.2445  0.1388
 1016MOL0     H37128   3.888   9.955   7.904  0.9539 -1.5008 -1.1486
 1016MOL0     H37129   3.919   9.932   7.732 -0.1275 -2.5284  2.0629
 1016MOL0     H37130   3.864  10.188   7.709 -2.5665 -0.5600  1.1077
 1016MOL0     H37131   4.023  10.125   7.761 -0.1211 -2.3681 -0.0453
 1016MOL0     H37132   3.821  10.269   7.920  0.7412  1.0228 -0.2754
 1016MOL0     H37133   3.916  10.145   8.003 -3.2760  1.0005  0.8373
 1016MOL0     H37134   4.019  10.389   7.856 -2.6833  0.1286  0.6487
 1016MOL0     H37135   4.130  10.255   7.914  0.3456  0.1358 -0.6706
 1016MOL0     H37136   4.081  10.293   8.143 -1.5774  0.6226  1.1545
 1016MOL0     H37137   4.141  10.443   8.075  1.1909 -0.4820 -0.2942
 1016MOL0     H37138   3.842  10.359   8.115 -1.2385  1.6014  3.0073
 1016MOL0     H37139   3.883  10.516   8.049 -2.7859 -0.5044  0.2362
 1016MOL0     H37140   4.000  10.580   8.264  1.1116 -1.1308 -0.4303
 1016MOL0     H37141   3.979  10.412   8.319  0.5311 -1.6124 -3.0248
 1016MOL0     H37142   3.682  10.100   8.023 -0.8329  0.9807  3.2385
 1016MOL0     H37143   3.549  10.109   8.220  0.2613 -0.5622  0.1113
 1016MOL0     H37144   3.549   9.945   8.698  0.1406  0.1785 -1.0349
 1016MOL0     H37145   3.416   9.951   8.899 -2.9696  1.6257  0.2527
 1016MOL0     H37146   2.574  10.999   9.562 -0.3919 -1.8808 -1.0651
 1016MOL0     H37147   2.716  11.004   9.786  0.7474  0.9740 -0.7136
 1016MOL0     H37148   2.894  10.972  10.093 -2.8221 -0.5349  1.0423
 1016MOL0     H37149   3.023  11.012  10.290 -0.1957  0.8948 -3.1139
 1016MOL0     H37150   3.188  10.657  10.532 -2.7053  1.6956  2.3907
 1016MOL0     H37151   3.323  10.717  10.433 -0.0595 -0.9905  0.9763
 1016MOL0     H37152   3.236  10.829  10.703 -2.4599  0.5536 -2.7554
 1016MOL0     H37153   3.372  10.879  10.594  2.1864 -1.8573 -1.4048
 1016MOL0     H37154   3.378  10.597  10.709  2.4264 -0.0648 -0.7264
 1016MOL0     H37155   3.423  10.741  10.807  1.1770  0.4094 -0.1857
 1016MOL0     H37156   3.569  10.778  10.576 -2.8206  1.5006  0.8020
 1016MOL0     H37157   3.513  10.610  10.551  2.6848 -2.2684  0.6457
 1016MOL0     H37158   3.817  10.537  10.836  0.5142 -2.1797 -2.4364
 1016MOL0     H37159   3.120  10.593  10.332 -0.1749 -0.1775 -0.5452
 1016MOL0     H37160   2.980  10.545  10.142  1.7577 -0.5431  2.2478
 1017MOL0     O37161   6.155   5.072   4.478  0.3160  0.1710  0.9366
 1017MOL0     C37162   6.225   4.976   4.513 -0.0841  0.2331  0.9278
 1017MOL0     O37163   6.204   4.852   4.483  0.2844 -0.3992  0.0216
 1017MOL0     C37164   6.081   4.804   4.435  0.5816 -0.8448  0.2790
 1017MOL0     C37165   6.096   4.682   4.374  0.5846 -0.4349 -0.0004
 1017MOL0     C37166   5.990   4.608   4.326 -0.1516  0.2824  0.4222
 1017MOL0     C37167   5.860   4.654   4.336  0.3521  0.0007  0.4408
 1017MOL0     O37168   5.757   4.586   4.284  0.1028 -0.2427 -0.3484
 1017MOL0     C37169   5.772   4.440   4.263 -0.4258 -0.0025  0.0640
 1017MOL0     C37170   5.625   4.372   4.273  0.5214  0.4241 -0.2445
 1017MOL0     C37171   5.529   4.417   4.153  0.0629 -0.4465 -0.3739
 1017MOL0     C37172   5.409   4.327   4.139 -0.3443 -0.4850 -0.3775
 1017MOL0     C37173   5.297   4.389   4.059 -0.4535  0.3014  0.1245
 1017MOL0     C37174   5.317   4.395   3.905 -0.0460 -0.6659 -0.5577
 1017MOL0     C37175   5.196   4.418   3.816  0.1717  0.2125 -0.7396
 1017MOL0     C37176   5.151   4.567   3.826  0.3887 -0.2120  0.0227
 1017MOL0     N37177   5.064   4.607   3.715 -0.1915  0.4369  0.1065
 1017MOL0     C37178   4.932   4.569   3.690 -0.4093  0.2197 -0.8827
 1017MOL0     C37179   4.901   4.653   3.590  0.3603  1.2538  0.0616
 1017MOL0     C37180   4.768   4.654   3.523  0.6508  0.5705 -1.1078
 1017MOL0     C37181   4.733   4.788   3.462 -0.1852  1.2388  0.0624
 1017MOL0     C37182   4.804   4.808   3.325  0.4516  0.2790  0.5371
 1017MOL0     C37183   4.762   4.935   3.244  0.4329 -0.6158  0.8106
 1017MOL0     O37184   4.637   4.932   3.169  0.2249 -0.9490 -0.7061
 1017MOL0     C37185   4.516   4.948   3.243 -0.0816 -0.8412 -0.1570
 1017MOL0     C37186   4.393   4.916   3.183  0.4965 -0.4024  0.5327
 1017MOL0     C37187   4.270   4.916   3.242 -0.6110  1.0906 -0.0645
 1017MOL0     C37188   4.154   4.859   3.163 -0.4590 -0.8949 -1.1863
 1017MOL0     C37189   4.263   4.947   3.382  0.2785  0.5566  0.3641
 1017MOL0     C37190   4.131   4.942   3.469 -0.5505  0.0129 -0.8207
 1017MOL0     O37191   4.154   4.972   3.607 -0.4815  0.4704 -0.3710
 1017MOL0     C37192   4.069   4.920   3.698  0.5590 -0.1991  0.4969
 1017MOL0     C37193   3.954   4.991   3.737 -0.0231 -0.2593 -0.0476
 1017MOL0     C37194   3.870   4.939   3.823 -0.2434 -0.6475 -0.2702
 1017MOL0     C37195   3.892   4.821   3.885 -0.3355 -0.2302  0.3678
 1017MOL0     O37196   3.822   4.799   4.005  1.2290  0.3916  0.9702
 1017MOL0     C37197   3.815   4.666   4.052  0.1542 -0.6876  0.1240
 1017MOL0     C37198   3.898   4.660   4.183  0.1670  0.4774 -0.1765
 1017MOL0     C37199   3.885   4.520   4.259  0.3695  0.1798 -0.9947
 1017MOL0     C37200   3.998   4.494   4.356 -0.1475  0.1596  0.3877
 1017MOL0     C37201   3.972   4.371   4.448  0.5213 -0.0428 -0.0686
 1017MOL0     C37202   4.066   4.364   4.567  0.5638 -0.9307  0.5363
 1017MOL0     C37203   4.035   4.237   4.636 -0.1575  0.7283  0.9015
 1017MOL0     C37204   3.961   4.247   4.765  0.9868  0.4328  0.1146
 1017MOL0    Cl37205   3.980   4.093   4.854  0.1114 -0.2518  0.3576
 1017MOL0     C37206   4.004   4.755   3.856  0.0043  0.2563  0.2428
 1017MOL0     C37207   4.094   4.794   3.756 -0.3355 -0.9272 -0.1686
 1017MOL0     O37208   4.026   4.901   3.429  0.0052 -0.2077 -0.2634
 1017MOL0     C37209   4.382   4.973   3.440  0.0255 -0.3367  0.3756
 1017MOL0     C37210   4.511   4.981   3.381  0.3768 -0.7305  0.2807
 1017MOL0     N37211   5.002   4.739   3.561  0.2438  0.1719  1.1969
 1017MOL0     N37212   5.103   4.724   3.643  0.3089  0.2272  0.6845
 1017MOL0     C37213   5.840   4.787   4.390  1.2136  1.1420 -0.6292
 1017MOL0     C37214   5.950   4.858   4.445  0.4790  0.0591  0.1948
 1017MOL0     C37215   6.365   5.008   4.556 -0.1220  0.0833  0.5546
 1017MOL0     C37216   6.404   5.137   4.599  0.0769 -0.2873 -0.2165
 1017MOL0     C37217   6.535   5.165   4.644 -0.0298  0.5518 -0.4522
 1017MOL0     C37218   6.629   5.068   4.640 -0.5386  0.0517  0.7926
 1017MOL0     O37219   6.754   5.076   4.700  0.4089  0.2190 -0.0041
 1017MOL0     C37220   6.788   5.209   4.750 -0.5616 -0.4341 -0.0620
 1017MOL0     C37221   6.933   5.221   4.799  1.0719  0.0014  0.1119
 1017MOL0     C37222   6.949   5.354   4.873 -0.8193  0.3486  1.0006
 1017MOL0     C37223   6.940   5.470   4.778 -0.0062  0.4628 -0.0261
 1017MOL0     C37224   6.807   5.538   4.768 -0.4346  0.2068  0.8403
 1017MOL0     C37225   6.694   5.574   4.787  1.0295 -0.2332  0.6743
 1017MOL0     C37226   6.601   4.935   4.602  0.5281 -0.4726  0.4033
 1017MOL0     C37227   6.465   4.905   4.557 -0.5844  0.0831  0.6731
 1017MOL0     H37228   6.201   4.654   4.373  0.4135 -1.4184 -3.3668
 1017MOL0     H37229   6.007   4.508   4.289  1.3832 -0.0925  1.9872
 1017MOL0     H37230   5.815   4.423   4.164 -2.2047 -1.4691 -0.5086
 1017MOL0     H37231   5.834   4.401   4.344  3.1747 -1.1919 -3.0033
 1017MOL0     H37232   5.643   4.265   4.282 -0.5033  0.1438 -1.3594
 1017MOL0     H37233   5.588   4.419   4.365 -2.1188 -1.6977 -0.1071
 1017MOL0     H37234   5.497   4.513   4.196  0.5394 -0.6443  0.4384
 1017MOL0     H37235   5.584   4.434   4.060  1.0255  1.1365  0.4328
 1017MOL0     H37236   5.451   4.238   4.091 -0.2306 -1.0331  0.6878
 1017MOL0     H37237   5.373   4.298   4.238  2.1685  2.1950  1.5308
 1017MOL0     H37238   5.205   4.330   4.066  0.5409 -1.3561 -0.4139
 1017MOL0     H37239   5.273   4.485   4.107  1.4298  0.4622  0.8229
 1017MOL0     H37240   5.393   4.472   3.886  0.8161 -1.9243 -2.5654
 1017MOL0     H37241   5.359   4.299   3.875  1.9374 -1.5897  4.1974
 1017MOL0     H37242   5.231   4.388   3.717  2.0587 -2.7564  0.6951
 1017MOL0     H37243   5.116   4.350   3.846 -0.7182  2.2559  1.9571
 1017MOL0     H37244   5.238   4.633   3.830  0.4298 -0.2785  0.2480
 1017MOL0     H37245   5.102   4.578   3.923  2.4085  0.0413  1.0625
 1017MOL0     H37246   4.865   4.503   3.744  1.2565 -1.5315 -0.8352
 1017MOL0     H37247   4.755   4.578   3.446 -0.2396  1.0678 -1.4596
 1017MOL0     H37248   4.687   4.630   3.594  0.1824 -2.2820 -2.4930
 1017MOL0     H37249   4.755   4.864   3.538  1.8515 -1.0593  1.9319
 1017MOL0     H37250   4.627   4.775   3.440  0.3550 -3.2151 -0.9290
 1017MOL0     H37251   4.771   4.716   3.275  4.6608 -1.3383  0.3369
 1017MOL0     H37252   4.911   4.820   3.340  0.4096  2.2604 -0.4830
 1017MOL0     H37253   4.838   4.940   3.166 -0.4053  0.1999  0.0278
 1017MOL0     H37254   4.759   5.028   3.302 -2.2623  0.6059 -1.0920
 1017MOL0     H37255   4.404   4.899   3.076  0.5158 -3.0932  0.8823
 1017MOL0     H37256   4.193   4.844   3.062 -2.7978 -0.5070 -2.2317
 1017MOL0     H37257   4.119   4.767   3.211 -3.9083  1.4254  1.1893
 1017MOL0     H37258   4.064   4.921   3.172 -0.2706 -0.8762  0.9172
 1017MOL0     H37259   3.937   5.086   3.688  0.8132  1.0999  2.1337
 1017MOL0     H37260   3.780   4.993   3.852 -0.5173 -1.3574  0.2309
 1017MOL0     H37261   3.710   4.654   4.080 -0.9489  1.3790 -2.6722
 1017MOL0     H37262   3.849   4.589   3.981 -0.0641 -1.6729  1.0606
 1017MOL0     H37263   4.003   4.677   4.156  1.0429 -4.2734 -0.5693
 1017MOL0     H37264   3.863   4.742   4.247 -2.8067 -1.4709  0.9006
 1017MOL0     H37265   3.890   4.433   4.193 -2.3031 -1.0571  0.2743
 1017MOL0     H37266   3.785   4.519   4.303 -0.0024  1.0634 -1.7944
 1017MOL0     H37267   4.096   4.494   4.307 -0.4219  0.9150 -0.1690
 1017MOL0     H37268   4.012   4.580   4.422 -0.2219  0.4184  0.0684
 1017MOL0     H37269   3.976   4.292   4.373  1.5850 -0.2375  0.1762
 1017MOL0     H37270   3.866   4.377   4.476  0.9249  0.0014  1.5611
 1017MOL0     H37271   4.167   4.380   4.529 -0.2230  2.3304 -0.5687
 1017MOL0     H37272   4.041   4.451   4.630 -0.8068 -1.1766  0.3596
 1017MOL0     H37273   4.134   4.193   4.646  0.9054  2.8931  0.6247
 1017MOL0     H37274   3.977   4.176   4.566  2.1744  2.3690 -2.7560
 1017MOL0     H37275   3.855   4.268   4.751  1.3333  1.5044 -1.1128
 1017MOL0     H37276   3.992   4.322   4.838 -0.2579  0.5414  0.5589
 1017MOL0     H37277   4.029   4.664   3.909  1.2269  0.8957  0.7912
 1017MOL0     H37278   4.192   4.750   3.740  1.0350  1.7857  0.2008
 1017MOL0     H37279   4.377   4.998   3.545  2.1599 -1.1039  0.7031
 1017MOL0     H37280   4.599   5.010   3.437 -0.6140  0.9388  1.0425
 1017MOL0     H37281   5.743   4.834   4.381  2.2763  3.3237 -1.5693
 1017MOL0     H37282   5.929   4.952   4.495 -0.4833 -0.6007  1.0765
 1017MOL0     H37283   6.338   5.222   4.590  0.7591  0.2076 -0.6835
 1017MOL0     H37284   6.559   5.268   4.670 -1.3321  1.2671 -1.9038
 1017MOL0     H37285   6.760   5.280   4.671 -0.9218  0.3718  0.7751
 1017MOL0     H37286   6.712   5.235   4.825 -1.8285  0.3911 -1.5701
 1017MOL0     H37287   6.993   5.211   4.709  1.4488  2.8430 -0.0437
 1017MOL0     H37288   6.960   5.142   4.870  0.1025 -0.8863 -0.4755
 1017MOL0     H37289   7.049   5.370   4.914 -0.9320 -0.6064  1.6688
 1017MOL0     H37290   6.885   5.362   4.960 -1.5482 -0.5702  0.5712
 1017MOL0     H37291   6.983   5.434   4.684  2.3580 -0.4707  1.3113
 1017MOL0     H37292   7.002   5.546   4.825  0.3375 -0.8966  1.8202
 1017MOL0     H37293   6.598   5.613   4.814  0.4636  0.7787 -2.4344
 1017MOL0     H37294   6.667   4.849   4.593  1.4206  0.3008 -0.5428
 1017MOL0     H37295   6.441   4.803   4.532  0.9239  0.0898 -1.0196
 1018MOL0     O37296  10.319   0.172   5.449  0.1103 -0.9006  0.1546
 1018MOL0     C37297  10.315   0.048   5.456  0.5246  0.5809 -0.0671
 1018MOL0     O37298  10.259  -0.049   5.361  0.3551  0.7057 -0.0914
 1018MOL0     C37299  10.201   0.002   5.243  0.0812 -0.0641 -0.3820
 1018MOL0     C37300  10.238  -0.055   5.126  0.0989  0.5542  0.8736
 1018MOL0     C37301  10.175  -0.010   5.011  0.1135  0.3572 -0.2690
 1018MOL0     C37302  10.074   0.084   5.009  0.9614  0.5318  0.2840
 1018MOL0     O37303  10.027   0.110   4.884  0.6530  0.0499 -0.4793
 1018MOL0     C37304   9.907   0.190   4.873 -0.1560 -0.1667  0.2864
 1018MOL0     C37305   9.888   0.228   4.722  0.6933 -0.0619 -0.7661
 1018MOL0     C37306   9.896   0.098   4.637  0.2621 -0.8408 -0.5474
 1018MOL0     C37307   9.855   0.137   4.498  0.0598 -0.0615  0.9542
 1018MOL0     C37308   9.813   0.010   4.410 -0.2872  0.0188 -0.6431
 1018MOL0     C37309   9.726   0.051   4.290  0.1268  0.6824  1.2474
 1018MOL0     C37310   9.669  -0.078   4.222 -0.4376  0.5728 -0.3319
 1018MOL0     C37311   9.545  -0.138   4.285  0.5364  0.4417 -0.1749
 1018MOL0     N37312   9.428  -0.037   4.258 -0.0439  0.5543 -0.1727
 1018MOL0     C37313   9.361  -0.030   4.126 -0.5468  0.0061 -0.6294
 1018MOL0     C37314   9.275   0.073   4.137  0.0624 -0.3592  0.5367
 1018MOL0     C37315   9.191   0.126   4.032  0.2995  0.2795  0.1801
 1018MOL0     C37316   9.044   0.067   4.043  0.2865  0.8209  0.0854
 1018MOL0     C37317   8.952   0.117   3.938  0.4543  0.7213 -0.5254
 1018MOL0     C37318   8.806   0.073   3.943  0.3935 -0.6978 -0.5639
 1018MOL0     O37319   8.725   0.104   3.835  0.5154 -0.1356 -0.6156
 1018MOL0     C37320   8.587   0.092   3.843  0.4688  0.0308 -0.2328
 1018MOL0     C37321   8.522   0.139   3.728  0.5681 -0.1958 -0.1880
 1018MOL0     C37322   8.385   0.158   3.730  0.7445 -1.3346  0.0439
 1018MOL0     C37323   8.326   0.216   3.603 -0.2834  0.0284 -0.8318
 1018MOL0     C37324   8.310   0.115   3.840 -0.3169  0.8015 -0.8410
 1018MOL0     C37325   8.171   0.124   3.852  1.3014 -0.5856 -0.1276
 1018MOL0     O37326   8.113   0.013   3.908  0.5097 -0.7243  0.2317
 1018MOL0     C37327   7.993  -0.005   3.969 -0.8303 -0.5348 -1.2291
 1018MOL0     C37328   7.940  -0.134   3.993 -0.5392  0.3132 -0.5989
 1018MOL0     C37329   7.830  -0.149   4.067  0.0392  0.2742  0.5661
 1018MOL0     C37330   7.742  -0.044   4.098  0.6801  0.0247 -1.1448
 1018MOL0     O37331   7.608  -0.042   4.147 -0.5343  0.0953  0.0046
 1018MOL0     C37332   7.565  -0.150   4.229 -1.0383 -0.6151  0.0233
 1018MOL0     C37333   7.432  -0.105   4.299 -0.5999  0.5297  0.1594
 1018MOL0     C37334   7.449   0.043   4.350 -0.1983  0.0068 -0.1500
 1018MOL0     C37335   7.336   0.103   4.433  0.2792 -0.1375 -0.6033
 1018MOL0     C37336   7.392   0.238   4.500 -0.2262  0.6331  0.6758
 1018MOL0     C37337   7.300   0.308   4.591 -0.1390 -0.1510 -0.5504
 1018MOL0     C37338   7.354   0.441   4.643  0.7107  0.5932  0.2635
 1018MOL0     C37339   7.301   0.542   4.539  0.4773 -0.0423  0.5239
 1018MOL0    Cl37340   7.118   0.549   4.497 -0.2710  0.0400 -0.5317
 1018MOL0     C37341   7.780   0.083   4.068 -0.1619 -1.1774 -0.4201
 1018MOL0     C37342   7.913   0.104   4.012 -0.5817  0.5841  0.8994
 1018MOL0     O37343   8.109   0.228   3.823 -0.1689 -0.6052 -0.3381
 1018MOL0     C37344   8.373   0.056   3.953 -0.1389  0.1056  0.5613
 1018MOL0     C37345   8.512   0.051   3.956  0.5839  0.9819  0.2372
 1018MOL0     N37346   9.285   0.121   4.268 -1.1544 -0.6812  0.0287
 1018MOL0     N37347   9.371   0.060   4.344 -0.3880  1.1335  0.0402
 1018MOL0     C37348  10.033   0.133   5.130 -0.1730 -0.7230  0.5168
 1018MOL0     C37349  10.091   0.096   5.248  0.9611 -0.8088 -0.2229
 1018MOL0     C37350  10.383  -0.009   5.568 -0.1598  0.7563 -1.1038
 1018MOL0     C37351  10.394   0.058   5.687  0.5414 -0.2798 -0.0300
 1018MOL0     C37352  10.437   0.001   5.805 -0.5803  0.0682  0.7691
 1018MOL0     C37353  10.465  -0.137   5.808  0.0720 -0.0764 -0.2633
 1018MOL0     O37354  10.518  -0.204   5.910  0.0749 -0.0598 -0.3018
 1018MOL0     C37355  10.615  -0.128   5.989 -0.0774 -0.0889  0.7509
 1018MOL0     C37356  10.690  -0.215   6.083  0.9530 -0.0410 -0.1014
 1018MOL0     C37357  10.610  -0.276   6.187 -0.3211 -0.6212 -0.1425
 1018MOL0     C37358  10.683  -0.372   6.292  0.1061 -0.5076 -0.4003
 1018MOL0     C37359  10.714  -0.491   6.219 -0.4702  0.0616 -0.6280
 1018MOL0     C37360  10.742  -0.581   6.150  0.0050  0.5755  0.2196
 1018MOL0     C37361  10.465  -0.209   5.681  0.3755  0.4145  0.6768
 1018MOL0     C37362  10.435  -0.145   5.561  0.3114  0.2668 -0.0814
 1018MOL0     H37363  10.299  -0.144   5.116 -1.4418 -0.2394 -3.1375
 1018MOL0     H37364  10.186  -0.049   4.910 -3.6136 -0.3756 -0.5412
 1018MOL0     H37365   9.826   0.123   4.904 -1.4766  0.3370 -1.8557
 1018MOL0     H37366   9.899   0.281   4.934  0.9545  0.5170 -0.5451
 1018MOL0     H37367   9.799   0.289   4.711 -1.3574 -2.4553  1.1992
 1018MOL0     H37368   9.964   0.297   4.684  0.4564  1.8579  1.9745
 1018MOL0     H37369   9.990   0.045   4.620  1.9374  2.1628 -1.2622
 1018MOL0     H37370   9.830   0.018   4.673  0.8895 -1.3414 -0.4801
 1018MOL0     H37371   9.775   0.211   4.497  1.1355  1.1839  2.4305
 1018MOL0     H37372   9.951   0.178   4.468 -1.3892  1.9813 -1.2054
 1018MOL0     H37373   9.907  -0.034   4.375  0.1431  0.4163  0.0004
 1018MOL0     H37374   9.751  -0.061   4.467 -0.4684 -0.7776 -1.7953
 1018MOL0     H37375   9.646   0.115   4.327 -0.4162 -0.5797  2.3366
 1018MOL0     H37376   9.779   0.111   4.215 -2.4592 -0.6700 -1.8807
 1018MOL0     H37377   9.639  -0.050   4.120  0.6194 -2.7231 -1.6778
 1018MOL0     H37378   9.737  -0.163   4.230  0.6333  1.5508  1.5875
 1018MOL0     H37379   9.554  -0.159   4.392  4.2005  1.9585 -0.0506
 1018MOL0     H37380   9.534  -0.239   4.244  2.4715 -0.3487  1.1358
 1018MOL0     H37381   9.369  -0.099   4.043  0.1374  3.2230 -3.4688
 1018MOL0     H37382   9.191   0.235   4.031 -2.4423  0.4252 -3.6331
 1018MOL0     H37383   9.234   0.086   3.940 -1.1070  1.0891 -0.8489
 1018MOL0     H37384   9.024   0.100   4.145 -0.2941 -0.7181  0.5036
 1018MOL0     H37385   9.045  -0.043   4.045  2.5886  0.6395  5.0541
 1018MOL0     H37386   8.994   0.086   3.842  1.3496  0.1167  0.0423
 1018MOL0     H37387   8.952   0.224   3.958  1.6021  0.4781  0.9274
 1018MOL0     H37388   8.770   0.120   4.035  0.3106  2.9856 -2.3132
 1018MOL0     H37389   8.804  -0.035   3.960 -3.8721 -0.8508 -1.0627
 1018MOL0     H37390   8.579   0.170   3.641  0.0579  1.2687 -0.0435
 1018MOL0     H37391   8.394   0.207   3.518  0.2528  0.4793 -0.4564
 1018MOL0     H37392   8.229   0.168   3.584 -1.8596  2.7998 -0.3600
 1018MOL0     H37393   8.301   0.323   3.599  0.0525  0.0787 -1.8335
 1018MOL0     H37394   8.005  -0.213   3.956  2.9640  2.3592  0.6790
 1018MOL0     H37395   7.794  -0.250   4.082  0.3750  0.3374  1.9438
 1018MOL0     H37396   7.547  -0.241   4.172  0.3059 -0.0769 -1.3148
 1018MOL0     H37397   7.651  -0.176   4.292 -1.0706 -4.0798 -1.1716
 1018MOL0     H37398   7.352  -0.091   4.226 -1.3827  3.6245  1.4500
 1018MOL0     H37399   7.393  -0.170   4.377 -0.7209  1.5180  0.9390
 1018MOL0     H37400   7.477   0.108   4.266  1.7176  1.6944  1.6653
 1018MOL0     H37401   7.537   0.050   4.415 -1.2238  3.1137  1.1306
 1018MOL0     H37402   7.250   0.128   4.370 -1.3711 -0.2742  1.4844
 1018MOL0     H37403   7.301   0.037   4.513 -0.7049  1.4899  0.3735
 1018MOL0     H37404   7.427   0.305   4.420  0.4608 -0.5788 -0.0566
 1018MOL0     H37405   7.479   0.206   4.557 -0.0459  0.9284  0.5687
 1018MOL0     H37406   7.212   0.318   4.528  0.4017 -2.2305 -1.7391
 1018MOL0     H37407   7.276   0.238   4.672  0.6669  1.8878  1.5491
 1018MOL0     H37408   7.463   0.449   4.641  0.8085 -0.5714 -0.5223
 1018MOL0     H37409   7.318   0.459   4.744  2.0667  0.9277  0.6995
 1018MOL0     H37410   7.357   0.545   4.445 -1.1854 -0.6610 -0.5316
 1018MOL0     H37411   7.314   0.640   4.586  0.0019 -0.8455  2.4525
 1018MOL0     H37412   7.726   0.171   4.102 -1.9313 -2.5087  0.3682
 1018MOL0     H37413   7.959   0.201   3.997  3.6868 -1.5339 -1.6932
 1018MOL0     H37414   8.315   0.030   4.041 -0.6144 -0.0244  0.2159
 1018MOL0     H37415   8.555   0.029   4.054  1.0037 -2.5694 -0.5946
 1018MOL0     H37416   9.946   0.196   5.119  0.1242 -0.6952 -2.4648
 1018MOL0     H37417  10.057   0.126   5.346  0.1122 -2.7041  0.0902
 1018MOL0     H37418  10.365   0.163   5.689  1.0005 -0.1555  1.2323
 1018MOL0     H37419  10.455   0.071   5.887 -0.3323 -0.3940  1.1117
 1018MOL0     H37420  10.683  -0.086   5.914  0.7516 -0.3450  1.3493
 1018MOL0     H37421  10.562  -0.047   6.039  1.7419  1.7026 -0.0916
 1018MOL0     H37422  10.778  -0.165   6.125  1.6462  0.8333 -2.4172
 1018MOL0     H37423  10.718  -0.298   6.018  2.1422  1.5633 -1.7687
 1018MOL0     H37424  10.531  -0.326   6.130  0.0733 -0.7878 -0.5426
 1018MOL0     H37425  10.583  -0.188   6.247  1.9299 -0.9243  1.4471
 1018MOL0     H37426  10.609  -0.406   6.366 -0.2840 -0.2537 -0.6655
 1018MOL0     H37427  10.770  -0.331   6.344  0.4899 -1.5468 -0.2011
 1018MOL0     H37428  10.762  -0.653   6.073 -2.4890  1.1747 -1.1269
 1018MOL0     H37429  10.491  -0.314   5.667 -0.8727  0.3223 -1.4180
 1018MOL0     H37430  10.434  -0.200   5.468  0.9295  0.6337 -0.3151
 1019MOL0     O37431   8.052   2.845   6.158  0.0643  0.0945  0.6972
 1019MOL0     C37432   8.160   2.898   6.124  0.0142  0.2875 -0.5047
 1019MOL0     O37433   8.239   2.972   6.206  0.6528  0.2905 -0.2965
 1019MOL0     C37434   8.234   2.961   6.345  0.5422 -0.2452  0.7942
 1019MOL0     C37435   8.158   2.867   6.415  0.1591 -0.5137  0.2940
 1019MOL0     C37436   8.182   2.844   6.552 -0.2865  0.8275 -0.5209
 1019MOL0     C37437   8.285   2.916   6.620 -0.6979  0.1109 -0.2433
 1019MOL0     O37438   8.324   2.899   6.744  0.5567 -0.5086  0.1562
 1019MOL0     C37439   8.213   2.873   6.830 -0.4252 -0.7211  0.7138
 1019MOL0     C37440   8.273   2.857   6.967  0.5669 -0.0431  0.1888
 1019MOL0     C37441   8.312   2.991   7.035  0.2718  0.1340 -0.3714
 1019MOL0     C37442   8.195   3.069   7.076  0.2117 -0.6423  0.0559
 1019MOL0     C37443   8.235   3.203   7.137  0.0111  0.1681  0.6253
 1019MOL0     C37444   8.106   3.278   7.166 -0.9523  0.6587  0.1846
 1019MOL0     C37445   8.142   3.401   7.258  0.0686  0.1775 -0.0597
 1019MOL0     C37446   8.225   3.522   7.189  1.3457  0.2878  0.4718
 1019MOL0     N37447   8.359   3.538   7.255 -0.8681 -0.1295  0.8039
 1019MOL0     C37448   8.372   3.598   7.378 -0.5329  0.3077 -0.4787
 1019MOL0     C37449   8.507   3.601   7.396 -0.7830  0.6915 -0.8211
 1019MOL0     C37450   8.566   3.655   7.524 -0.2398 -0.4165 -0.0271
 1019MOL0     C37451   8.653   3.560   7.607  0.2121 -0.5085  0.1858
 1019MOL0     C37452   8.705   3.623   7.726 -0.9695  0.2236 -1.5710
 1019MOL0     C37453   8.778   3.523   7.820  0.3723  0.0146  1.3429
 1019MOL0     O37454   8.689   3.406   7.841 -0.2686 -0.5629 -0.4145
 1019MOL0     C37455   8.744   3.296   7.911  0.6356 -0.1214  0.1664
 1019MOL0     C37456   8.675   3.173   7.913  0.0920  0.3186  0.5933
 1019MOL0     C37457   8.722   3.058   7.983  1.1707 -0.0736  0.4807
 1019MOL0     C37458   8.645   2.939   7.994  0.1134  0.9096 -0.4921
 1019MOL0     C37459   8.854   3.060   8.036  0.8068  0.1529  0.0980
 1019MOL0     C37460   8.925   2.951   8.106  0.3474 -0.4375 -1.0034
 1019MOL0     O37461   9.063   2.937   8.089  0.3632 -0.3037  0.0528
 1019MOL0     C37462   9.151   2.874   8.171 -0.3913 -0.3491  0.0486
 1019MOL0     C37463   9.242   2.942   8.250  1.0644  0.2608  0.0411
 1019MOL0     C37464   9.343   2.870   8.320 -0.4320 -1.1147  0.3520
 1019MOL0     C37465   9.349   2.733   8.317  0.3027 -0.0801  0.0561
 1019MOL0     O37466   9.441   2.672   8.400 -0.3820 -0.5180 -0.4446
 1019MOL0     C37467   9.429   2.530   8.425  0.0449  0.4255 -0.0999
 1019MOL0     C37468   9.527   2.509   8.547 -0.2134  1.0177  0.1175
 1019MOL0     C37469   9.562   2.358   8.551  0.8183 -0.1531 -0.1853
 1019MOL0     C37470   9.656   2.330   8.671 -0.6859  0.2497  0.1767
 1019MOL0     C37471   9.687   2.181   8.679 -0.2122  0.6294 -0.2899
 1019MOL0     C37472   9.581   2.103   8.762  0.2330  0.0981 -0.0738
 1019MOL0     C37473   9.574   1.959   8.702 -0.3474  0.4904 -1.2495
 1019MOL0     C37474   9.470   1.882   8.791 -0.8704 -1.1238 -0.4651
 1019MOL0    Cl37475   9.309   1.946   8.796 -0.1910 -0.2321 -0.2176
 1019MOL0     C37476   9.250   2.665   8.240 -0.0414 -0.4580  0.9617
 1019MOL0     C37477   9.156   2.735   8.166  0.0438  0.9441  0.3447
 1019MOL0     O37478   8.857   2.888   8.189 -0.6694 -0.3911  0.1365
 1019MOL0     C37479   8.921   3.183   8.025 -0.4782  0.5733 -1.0405
 1019MOL0     C37480   8.863   3.299   7.975  0.3905 -0.1242 -0.2856
 1019MOL0     N37481   8.575   3.547   7.286  0.8442 -0.6547 -0.2134
 1019MOL0     N37482   8.483   3.523   7.202 -0.1179  0.9798  0.9248
 1019MOL0     C37483   8.350   3.014   6.541 -0.0114 -0.3922  0.7971
 1019MOL0     C37484   8.323   3.035   6.405  0.2332 -0.7318  0.4417
 1019MOL0     C37485   8.208   2.880   5.986  1.2072 -0.1544  0.2001
 1019MOL0     C37486   8.295   2.967   5.926  0.1914 -0.4571 -0.8996
 1019MOL0     C37487   8.352   2.951   5.796  0.7975  0.5167 -0.0819
 1019MOL0     C37488   8.305   2.840   5.729 -0.0018 -0.2713  0.5940
 1019MOL0     O37489   8.337   2.803   5.593 -0.2455  0.4579  0.1502
 1019MOL0     C37490   8.462   2.852   5.543  0.5110 -0.8314  0.5029
 1019MOL0     C37491   8.493   2.767   5.420 -0.7479 -0.0248  0.7857
 1019MOL0     C37492   8.393   2.785   5.309  0.3345 -0.2420 -0.7164
 1019MOL0     C37493   8.428   2.892   5.202  0.4195 -0.0621  0.1634
 1019MOL0     C37494   8.521   2.833   5.112 -0.0778 -0.0644 -0.0904
 1019MOL0     C37495   8.592   2.774   5.027  0.4192 -0.1934  0.6937
 1019MOL0     C37496   8.207   2.761   5.783  0.4299  0.7142 -0.1375
 1019MOL0     C37497   8.154   2.783   5.901  0.9814  0.0899 -1.0369
 1019MOL0     H37498   8.074   2.810   6.375  0.7908 -0.0686 -1.8059
 1019MOL0     H37499   8.115   2.777   6.606  0.1292  0.1888 -0.7900
 1019MOL0     H37500   8.138   2.952   6.837 -0.7451 -0.8971 -0.4825
 1019MOL0     H37501   8.161   2.783   6.797 -0.1568 -0.1954 -1.2438
 1019MOL0     H37502   8.194   2.816   7.032 -0.0841 -1.4921 -1.4432
 1019MOL0     H37503   8.363   2.796   6.979 -0.1120 -0.8552  1.4032
 1019MOL0     H37504   8.357   2.960   7.129 -1.3496 -1.9442 -0.2178
 1019MOL0     H37505   8.389   3.048   6.982  1.9624 -0.1928  1.6310
 1019MOL0     H37506   8.130   3.094   6.991 -0.7075  0.3760  1.0298
 1019MOL0     H37507   8.124   3.018   7.141  1.4248 -0.6979  1.3787
 1019MOL0     H37508   8.285   3.160   7.225 -3.4124 -3.4794  1.0944
 1019MOL0     H37509   8.302   3.264   7.076  0.6440  0.1508  1.2977
 1019MOL0     H37510   8.068   3.314   7.070  2.1359  1.2014 -0.9360
 1019MOL0     H37511   8.039   3.211   7.222 -3.2810  2.2715 -0.5611
 1019MOL0     H37512   8.049   3.438   7.302  0.4261  2.0273 -0.7984
 1019MOL0     H37513   8.189   3.358   7.347  0.6340 -1.9275 -1.3108
 1019MOL0     H37514   8.170   3.616   7.182  3.5481  1.5603 -1.3006
 1019MOL0     H37515   8.250   3.498   7.085  1.6710 -0.9438  0.8194
 1019MOL0     H37516   8.294   3.615   7.452 -1.6075 -0.6608 -1.3556
 1019MOL0     H37517   8.622   3.746   7.502 -1.6498  0.5118  0.0413
 1019MOL0     H37518   8.495   3.720   7.577  0.9223 -0.9892  2.3483
 1019MOL0     H37519   8.727   3.508   7.546  2.7678 -0.2767  2.8872
 1019MOL0     H37520   8.585   3.480   7.639  0.2273 -1.3519 -1.7490
 1019MOL0     H37521   8.627   3.666   7.791 -1.4797 -1.8957 -0.6766
 1019MOL0     H37522   8.776   3.703   7.703  0.9323 -0.2272  1.9947
 1019MOL0     H37523   8.804   3.578   7.910  2.1547  0.5649  0.5322
 1019MOL0     H37524   8.874   3.495   7.776 -1.2393  0.5608 -3.0962
 1019MOL0     H37525   8.574   3.155   7.875 -0.5237 -1.5211  2.8838
 1019MOL0     H37526   8.550   2.939   7.940 -1.0693  0.8721  1.4702
 1019MOL0     H37527   8.708   2.853   7.970 -2.2634 -1.9445  2.4773
 1019MOL0     H37528   8.627   2.914   8.099  0.9407 -1.0253 -0.7645
 1019MOL0     H37529   9.229   3.049   8.242  0.9423  0.0827 -3.4092
 1019MOL0     H37530   9.413   2.922   8.385  2.2762 -2.9704 -0.9205
 1019MOL0     H37531   9.326   2.513   8.454  0.0402  0.4620 -0.0954
 1019MOL0     H37532   9.444   2.474   8.332 -4.5312  0.6422 -1.1730
 1019MOL0     H37533   9.624   2.556   8.527  0.7727 -1.0061 -0.1233
 1019MOL0     H37534   9.482   2.545   8.640 -3.7594 -1.7985 -0.2763
 1019MOL0     H37535   9.610   2.333   8.456  1.0009  0.8448 -0.3581
 1019MOL0     H37536   9.464   2.309   8.550  0.0065  1.4127  0.0633
 1019MOL0     H37537   9.747   2.388   8.654 -0.1091 -1.3097 -2.8502
 1019MOL0     H37538   9.606   2.356   8.765 -1.2241  1.0109 -0.3085
 1019MOL0     H37539   9.781   2.159   8.730  0.4777 -1.2781 -2.2283
 1019MOL0     H37540   9.697   2.133   8.581 -2.9626 -1.5931  0.3845
 1019MOL0     H37541   9.593   2.107   8.870  3.2787 -4.6922  0.0631
 1019MOL0     H37542   9.483   2.146   8.738 -0.7700 -1.1131  1.6462
 1019MOL0     H37543   9.671   1.909   8.713 -2.3257 -3.3419  0.8948
 1019MOL0     H37544   9.542   1.959   8.597 -2.4724 -1.3175 -0.6740
 1019MOL0     H37545   9.498   1.891   8.896 -0.7972  2.6206 -0.6743
 1019MOL0     H37546   9.471   1.782   8.747 -0.4731 -1.9873  1.4202
 1019MOL0     H37547   9.257   2.557   8.234  0.9982 -0.4803  2.1258
 1019MOL0     H37548   9.082   2.697   8.097  0.7608  2.1176 -1.1489
 1019MOL0     H37549   9.012   3.200   8.082 -1.9811 -0.2448  1.8242
 1019MOL0     H37550   8.922   3.390   7.977 -1.9130  1.7059 -4.0263
 1019MOL0     H37551   8.438   3.065   6.579  2.7162 -3.8509 -0.2998
 1019MOL0     H37552   8.386   3.104   6.350 -0.0106  0.1896  1.2933
 1019MOL0     H37553   8.334   3.059   5.967  0.6403 -0.7810 -0.5971
 1019MOL0     H37554   8.434   3.011   5.757  1.4837  0.8849  1.8232
 1019MOL0     H37555   8.456   2.956   5.511 -3.0884 -1.0765 -0.1018
 1019MOL0     H37556   8.547   2.844   5.612  1.7813 -1.0335 -1.0485
 1019MOL0     H37557   8.500   2.661   5.444  0.9795  0.3536  2.1435
 1019MOL0     H37558   8.587   2.788   5.369  0.6386 -2.3722  2.1987
 1019MOL0     H37559   8.296   2.819   5.347 -0.0914 -2.1225 -0.0128
 1019MOL0     H37560   8.381   2.684   5.269  2.6240 -0.3170 -1.3455
 1019MOL0     H37561   8.464   2.982   5.253 -0.4165  0.6560 -0.4652
 1019MOL0     H37562   8.337   2.937   5.161  0.3666  0.0649  0.4235
 1019MOL0     H37563   8.655   2.755   4.942 -3.7344 -2.5254 -2.2485
 1019MOL0     H37564   8.183   2.668   5.733  1.5640 -0.2950  1.1175
 1019MOL0     H37565   8.082   2.709   5.937  0.3114  0.2157 -2.0910
 1020MOL0     O37566   0.377   6.976   7.313  0.0901  0.0872 -0.0229
 1020MOL0     C37567   0.268   6.934   7.360  0.5806 -0.3941  0.7007
 1020MOL0     O37568   0.149   6.987   7.325  0.4610 -0.0065 -0.4171
 1020MOL0     C37569   0.130   7.092   7.226 -0.4046 -0.0366  0.9815
 1020MOL0     C37570   0.022   7.100   7.129 -0.4348  0.0843 -0.1560
 1020MOL0     C37571   0.011   7.189   7.029 -0.0244  0.0093 -0.0527
 1020MOL0     C37572   0.108   7.287   7.014  0.0490 -0.8097  0.1094
 1020MOL0     O37573   0.125   7.370   6.904  0.9747 -0.7224  1.0612
 1020MOL0     C37574   0.026   7.369   6.798 -0.2928  0.7279 -0.0811
 1020MOL0     C37575   0.085   7.454   6.686 -0.5291 -0.0275  0.4385
 1020MOL0     C37576   0.001   7.438   6.565 -0.2970  0.1062  0.4068
 1020MOL0     C37577  -0.152   7.471   6.583 -0.3074 -0.4242  0.1020
 1020MOL0     C37578  -0.214   7.419   6.454  1.7232 -0.3064 -0.3576
 1020MOL0     C37579  -0.366   7.437   6.475 -0.7144  0.3338 -0.5758
 1020MOL0     C37580  -0.413   7.585   6.477 -0.1341  0.1695  0.7017
 1020MOL0     C37581  -0.421   7.668   6.343  0.5813  1.1454  0.2476
 1020MOL0     N37582  -0.546   7.628   6.274 -1.1902 -0.2234  0.6189
 1020MOL0     C37583  -0.671   7.646   6.306  0.1757 -0.0553  0.3720
 1020MOL0     C37584  -0.739   7.579   6.209  0.4261 -0.0336  0.2187
 1020MOL0     C37585  -0.888   7.593   6.199 -0.5088 -0.7123 -0.5996
 1020MOL0     C37586  -0.964   7.605   6.338  0.4566 -0.6816  1.1608
 1020MOL0     C37587  -0.960   7.489   6.438 -0.2720 -0.1421  0.4416
 1020MOL0     C37588  -1.009   7.520   6.576 -0.1997  0.5760  0.5462
 1020MOL0     O37589  -0.930   7.632   6.627  0.3097 -0.5558  0.4991
 1020MOL0     C37590  -0.799   7.618   6.678  0.2107  0.0603  0.6429
 1020MOL0     C37591  -0.729   7.731   6.729  0.8088 -0.6533  0.5195
 1020MOL0     C37592  -0.610   7.732   6.794 -0.3230 -0.5996  0.2631
 1020MOL0     C37593  -0.565   7.866   6.845 -0.8309  0.3772  0.1498
 1020MOL0     C37594  -0.544   7.608   6.812  0.4692  0.6040 -0.1152
 1020MOL0     C37595  -0.410   7.594   6.879 -0.8311 -0.4894  0.7590
 1020MOL0     O37596  -0.378   7.690   6.966 -0.1664  0.6622 -0.6382
 1020MOL0     C37597  -0.248   7.675   7.009  0.7930 -0.4063 -0.0781
 1020MOL0     C37598  -0.228   7.664   7.154  0.1152 -1.1882 -0.0283
 1020MOL0     C37599  -0.098   7.675   7.200 -0.6055 -0.0527 -0.2088
 1020MOL0     C37600   0.011   7.692   7.112  0.3695 -0.0728 -0.4637
 1020MOL0     O37601   0.139   7.695   7.169  0.2179 -0.4510  0.0219
 1020MOL0     C37602   0.244   7.660   7.087 -0.7916  0.6673 -0.5429
 1020MOL0     C37603   0.360   7.622   7.189 -0.1674 -0.5467 -0.2802
 1020MOL0     C37604   0.396   7.750   7.260  0.1204 -0.8689 -0.6424
 1020MOL0     C37605   0.540   7.760   7.304  0.3097  0.8278 -0.1984
 1020MOL0     C37606   0.584   7.898   7.355  0.0637 -0.2190 -0.4989
 1020MOL0     C37607   0.738   7.879   7.389 -0.4244 -0.7104 -0.1418
 1020MOL0     C37608   0.808   8.011   7.436  0.8829  0.7760 -0.0817
 1020MOL0     C37609   0.951   8.001   7.406  0.5700 -0.7039 -0.2898
 1020MOL0    Cl37610   0.998   8.171   7.459 -0.0056 -0.4125 -0.0924
 1020MOL0     C37611  -0.017   7.691   6.973 -0.5439 -0.0166 -0.0149
 1020MOL0     C37612  -0.143   7.687   6.919  0.7882  0.2774 -0.1776
 1020MOL0     O37613  -0.352   7.483   6.867  0.0943 -0.4612 -0.7642
 1020MOL0     C37614  -0.605   7.490   6.759 -0.1057 -0.0208  0.0645
 1020MOL0     C37615  -0.727   7.493   6.691  0.0912 -0.6425 -0.0952
 1020MOL0     N37616  -0.657   7.502   6.139  0.4932  0.5283 -0.1559
 1020MOL0     N37617  -0.544   7.535   6.175  0.0113  0.2485  0.3873
 1020MOL0     C37618   0.212   7.289   7.105 -0.4208 -0.1928 -0.1769
 1020MOL0     C37619   0.225   7.197   7.208  0.3933 -0.4247 -0.5025
 1020MOL0     C37620   0.275   6.821   7.454  0.0176  0.0327 -0.1082
 1020MOL0     C37621   0.157   6.755   7.494 -0.1319  0.2637 -0.2228
 1020MOL0     C37622   0.157   6.645   7.580 -0.3328 -0.0805 -0.9637
 1020MOL0     C37623   0.274   6.604   7.649 -0.5664  0.7316  0.3289
 1020MOL0     O37624   0.288   6.488   7.732 -0.0704 -1.2010  0.0489
 1020MOL0     C37625   0.176   6.452   7.817 -1.3252  0.6829  0.0000
 1020MOL0     C37626   0.102   6.338   7.770  0.2277 -0.6694 -0.2142
 1020MOL0     C37627   0.156   6.204   7.814 -0.9310  0.0659 -0.0770
 1020MOL0     C37628   0.301   6.172   7.786 -0.9494 -0.4220 -0.2922
 1020MOL0     C37629   0.383   6.126   7.897  0.1983  0.2365  0.3712
 1020MOL0     C37630   0.446   6.083   7.985 -0.1248 -0.4279 -0.2654
 1020MOL0     C37631   0.387   6.661   7.613 -0.3712 -0.7573 -0.2616
 1020MOL0     C37632   0.391   6.777   7.523 -0.1955  0.3982 -0.8048
 1020MOL0     H37633  -0.058   7.028   7.132 -1.3544  1.0535 -0.7944
 1020MOL0     H37634  -0.052   7.173   6.942  0.4232  0.1927 -0.4175
 1020MOL0     H37635  -0.007   7.271   6.763  1.2475 -0.6951  2.1664
 1020MOL0     H37636  -0.059   7.412   6.852  0.0062 -1.7202  2.6051
 1020MOL0     H37637   0.086   7.557   6.723 -1.1912 -0.5141  1.8745
 1020MOL0     H37638   0.186   7.420   6.663 -1.0625 -1.5276  0.2217
 1020MOL0     H37639   0.047   7.501   6.489  0.9208  0.1822  1.1880
 1020MOL0     H37640   0.005   7.335   6.529  0.4813  0.3757 -0.3021
 1020MOL0     H37641  -0.194   7.418   6.668 -2.5505 -4.3336 -3.1309
 1020MOL0     H37642  -0.157   7.580   6.594 -0.3709 -0.3655 -0.4831
 1020MOL0     H37643  -0.178   7.470   6.364  1.3728 -0.8487 -0.8143
 1020MOL0     H37644  -0.199   7.311   6.439 -0.3855 -0.3976 -2.3517
 1020MOL0     H37645  -0.406   7.399   6.381 -0.6612 -0.8641 -0.1269
 1020MOL0     H37646  -0.402   7.375   6.557  0.6158  1.8114  1.2282
 1020MOL0     H37647  -0.518   7.574   6.506 -0.5088 -1.3585 -1.0088
 1020MOL0     H37648  -0.351   7.647   6.543  2.3385  0.3357 -1.5627
 1020MOL0     H37649  -0.331   7.659   6.281 -0.5350 -0.7026 -1.2363
 1020MOL0     H37650  -0.426   7.775   6.363  1.4536  1.3521 -0.5579
 1020MOL0     H37651  -0.702   7.710   6.388  0.5849 -2.7504  2.7723
 1020MOL0     H37652  -0.912   7.684   6.143  0.6714  0.0334  0.0753
 1020MOL0     H37653  -0.930   7.512   6.139  0.2243  0.1337 -2.3190
 1020MOL0     H37654  -1.069   7.630   6.321  0.2367 -2.7367 -1.0001
 1020MOL0     H37655  -0.917   7.694   6.380  1.1833  0.5955 -2.0555
 1020MOL0     H37656  -0.857   7.452   6.434  0.3153  1.4806 -2.6490
 1020MOL0     H37657  -1.016   7.399   6.411  0.1535 -1.3500  3.2128
 1020MOL0     H37658  -1.012   7.438   6.649  1.3146  1.3500  1.5205
 1020MOL0     H37659  -1.113   7.547   6.557  0.3504  1.8389 -0.8311
 1020MOL0     H37660  -0.778   7.824   6.703  1.6719 -0.6221 -1.2027
 1020MOL0     H37661  -0.619   7.943   6.790  1.2052  1.5974 -0.2649
 1020MOL0     H37662  -0.583   7.887   6.951 -0.6169  1.9272 -0.1048
 1020MOL0     H37663  -0.461   7.886   6.818 -0.5298  1.6947  2.0940
 1020MOL0     H37664  -0.315   7.651   7.218 -0.6208  0.2684 -0.6730
 1020MOL0     H37665  -0.069   7.670   7.304 -1.1401 -0.7572 -0.0786
 1020MOL0     H37666   0.225   7.573   7.024 -2.4669  0.5782  0.0385
 1020MOL0     H37667   0.265   7.749   7.026  3.6805  2.2684  2.6978
 1020MOL0     H37668   0.325   7.538   7.250  0.8969 -2.2473 -1.8990
 1020MOL0     H37669   0.441   7.594   7.121  0.4341  1.3688 -0.3922
 1020MOL0     H37670   0.334   7.747   7.350  2.2930 -1.0691  0.9219
 1020MOL0     H37671   0.362   7.841   7.210 -1.7784 -0.6509  0.9499
 1020MOL0     H37672   0.557   7.684   7.382 -1.1067 -0.0188 -0.6734
 1020MOL0     H37673   0.597   7.721   7.219  0.5788 -3.6780  1.7177
 1020MOL0     H37674   0.546   7.921   7.455  1.2183 -3.1960  0.7345
 1020MOL0     H37675   0.559   7.981   7.288  1.5628  0.5477 -0.1497
 1020MOL0     H37676   0.749   7.800   7.463 -0.1442 -3.2450 -2.7096
 1020MOL0     H37677   0.781   7.849   7.293  2.2501  0.3627  0.6332
 1020MOL0     H37678   0.795   8.031   7.543 -2.4636 -2.0199  0.1801
 1020MOL0     H37679   0.773   8.095   7.376 -1.3911  1.5677  2.1708
 1020MOL0     H37680   0.968   7.984   7.299  0.8233  0.4435 -0.4541
 1020MOL0     H37681   1.008   7.921   7.454  0.0717 -0.4443  0.7504
 1020MOL0     H37682   0.058   7.721   6.900 -2.1427  3.1619 -0.5199
 1020MOL0     H37683  -0.175   7.709   6.817 -1.1850  4.5089  1.1077
 1020MOL0     H37684  -0.568   7.389   6.776  4.0055  0.9497 -1.9651
 1020MOL0     H37685  -0.776   7.408   6.644 -5.0288  2.7989 -1.8458
 1020MOL0     H37686   0.297   7.355   7.091  0.6334 -1.2732  0.9141
 1020MOL0     H37687   0.305   7.200   7.280  2.0439 -1.2942 -2.2320
 1020MOL0     H37688   0.061   6.796   7.465 -0.6420  0.1036  1.1556
 1020MOL0     H37689   0.065   6.596   7.612  0.7090 -1.9171 -0.6324
 1020MOL0     H37690   0.226   6.416   7.908  1.9184  1.6485 -1.2538
 1020MOL0     H37691   0.116   6.542   7.831  1.2658  2.4551  0.5092
 1020MOL0     H37692   0.094   6.350   7.662  0.2148 -0.4431 -0.1889
 1020MOL0     H37693  -0.004   6.333   7.796  0.0142  1.2175 -0.5792
 1020MOL0     H37694   0.093   6.125   7.771  0.1062  1.0051 -3.6660
 1020MOL0     H37695   0.151   6.207   7.923  2.3961 -0.5988  0.1870
 1020MOL0     H37696   0.355   6.242   7.721  3.9821 -4.0419 -0.6099
 1020MOL0     H37697   0.306   6.081   7.726  3.7941 -1.0186  0.6682
 1020MOL0     H37698   0.484   6.030   8.070  0.8577 -0.3570 -0.6509
 1020MOL0     H37699   0.480   6.644   7.666 -0.4502  2.9815  1.4346
 1020MOL0     H37700   0.482   6.835   7.514 -1.2529  2.0390 -1.4077
 1021MOL0     O37701   0.880   1.805   9.546 -0.8951  0.1974  0.0402
 1021MOL0     C37702   0.779   1.755   9.490  0.1783 -0.1088  0.5471
 1021MOL0     O37703   0.718   1.638   9.522  0.5928  0.0440 -0.1301
 1021MOL0     C37704   0.759   1.565   9.634  0.4254  0.1845  1.0499
 1021MOL0     C37705   0.717   1.430   9.627 -0.1998  0.6762 -0.1164
 1021MOL0     C37706   0.772   1.346   9.728 -0.3296 -0.4251 -0.1300
 1021MOL0     C37707   0.853   1.391   9.833  0.1332 -0.2999  0.7284
 1021MOL0     O37708   0.889   1.286   9.918 -0.0731  0.4409  0.1069
 1021MOL0     C37709   0.978   1.321  10.020 -0.8194 -0.3170  0.2588
 1021MOL0     C37710   0.991   1.194  10.098 -0.6248  0.5165 -0.2268
 1021MOL0     C37711   1.070   1.217  10.231 -0.5689  0.4092 -0.9577
 1021MOL0     C37712   1.078   1.090  10.319 -0.9287 -0.3968 -0.4177
 1021MOL0     C37713   1.125   1.104  10.456 -0.1210 -0.3482 -0.2829
 1021MOL0     C37714   1.281   1.112  10.465  0.0596 -0.5178  0.6417
 1021MOL0     C37715   1.316   1.215  10.572  0.7628 -0.8974 -0.3978
 1021MOL0     C37716   1.468   1.231  10.605  0.0379 -0.5835  0.7996
 1021MOL0     N37717   1.543   1.267  10.483 -0.7393 -0.5277  0.0671
 1021MOL0     C37718   1.649   1.197  10.412  0.6888 -0.1596  0.6748
 1021MOL0     C37719   1.688   1.288  10.311  0.1613 -0.0713 -0.2078
 1021MOL0     C37720   1.802   1.266  10.220  0.5319  0.0957 -0.6301
 1021MOL0     C37721   1.781   1.149  10.121  0.8110  0.0224 -0.4373
 1021MOL0     C37722   1.877   1.163   9.995 -0.3072  0.7439 -0.8306
 1021MOL0     C37723   1.868   1.050   9.892  0.6166  0.6225 -0.9974
 1021MOL0     O37724   1.993   0.985   9.862 -0.4491  0.4784 -0.2852
 1021MOL0     C37725   2.090   1.050   9.784  0.5831 -0.2598 -0.2644
 1021MOL0     C37726   2.078   1.179   9.733  0.3104 -0.2096 -0.0171
 1021MOL0     C37727   2.188   1.254   9.689  0.5290  0.1986  0.2528
 1021MOL0     C37728   2.162   1.405   9.657 -0.6932  0.8417  0.2156
 1021MOL0     C37729   2.311   1.181   9.673 -0.4435 -0.3563 -0.4092
 1021MOL0     C37730   2.441   1.238   9.627  0.6507  0.1771 -0.8640
 1021MOL0     O37731   2.457   1.370   9.623 -0.1046 -0.2102 -0.4369
 1021MOL0     C37732   2.583   1.403   9.582 -0.3749  0.1069  0.7910
 1021MOL0     C37733   2.604   1.426   9.441  0.8758 -1.3814  0.0083
 1021MOL0     C37734   2.716   1.494   9.395  0.9078 -0.1768  0.7651
 1021MOL0     C37735   2.821   1.525   9.485  0.3275  0.4737  0.1620
 1021MOL0     O37736   2.941   1.577   9.435 -0.0188 -0.2211 -0.3267
 1021MOL0     C37737   3.036   1.612   9.544  0.3798 -0.2617 -0.4023
 1021MOL0     C37738   3.162   1.682   9.484 -0.4903 -0.9596  0.5792
 1021MOL0     C37739   3.218   1.790   9.578  1.1104  0.1643  0.6763
 1021MOL0     C37740   3.342   1.855   9.515  0.6750  0.1731  1.0253
 1021MOL0     C37741   3.410   1.962   9.608 -0.6478 -0.9444 -0.3966
 1021MOL0     C37742   3.513   2.055   9.530 -0.8010  0.5034 -0.3710
 1021MOL0     C37743   3.530   2.197   9.602 -0.1104  0.0355 -0.3312
 1021MOL0     C37744   3.608   2.185   9.736  0.5521 -0.0003  0.4277
 1021MOL0    Cl37745   3.775   2.127   9.702  0.1077 -0.0820 -0.3043
 1021MOL0     C37746   2.807   1.484   9.620  0.1667  0.9037 -0.4830
 1021MOL0     C37747   2.684   1.426   9.662 -1.1041 -0.4057  0.3348
 1021MOL0     O37748   2.524   1.146   9.592 -0.0921 -0.5656 -0.5178
 1021MOL0     C37749   2.321   1.052   9.719  0.3756  0.5544 -0.9298
 1021MOL0     C37750   2.208   0.984   9.769 -0.1703 -0.2000 -0.3883
 1021MOL0     N37751   1.610   1.394  10.326 -0.0473 -0.9521 -0.5830
 1021MOL0     N37752   1.520   1.375  10.408 -0.3730 -0.0481 -0.1709
 1021MOL0     C37753   0.870   1.528   9.837  0.3148  0.0491  0.0052
 1021MOL0     C37754   0.838   1.621   9.737  0.3562  0.0196 -0.3509
 1021MOL0     C37755   0.732   1.825   9.369 -0.9065 -0.8779 -0.2790
 1021MOL0     C37756   0.761   1.956   9.353 -0.1656  0.3392  0.0228
 1021MOL0     C37757   0.697   2.023   9.250  0.3939 -1.3756 -0.0680
 1021MOL0     C37758   0.619   1.969   9.148 -0.2549  0.3566 -0.5491
 1021MOL0     O37759   0.564   2.038   9.037  0.5394 -0.0904 -0.2342
 1021MOL0     C37760   0.620   2.166   8.979  0.1091 -0.8261 -0.1317
 1021MOL0     C37761   0.769   2.147   8.947 -0.7285  0.7204  0.5741
 1021MOL0     C37762   0.810   2.021   8.854  0.3613 -0.1835 -0.4708
 1021MOL0     C37763   0.942   1.966   8.923  1.1789 -1.5407  0.4295
 1021MOL0     C37764   1.003   1.863   8.845 -0.1865  0.8946 -0.0491
 1021MOL0     C37765   1.034   1.752   8.798  0.6820  0.8119  1.0808
 1021MOL0     C37766   0.606   1.830   9.154  0.2038  0.5759 -0.9076
 1021MOL0     C37767   0.657   1.751   9.267  0.5007 -1.0109 -0.3029
 1021MOL0     H37768   0.661   1.383   9.546  3.0678 -2.3705 -0.8313
 1021MOL0     H37769   0.734   1.244   9.719  1.1809 -0.8716 -2.3977
 1021MOL0     H37770   1.075   1.359   9.989 -0.9913  1.0883  1.3581
 1021MOL0     H37771   0.939   1.402  10.081  3.7768  2.2082  0.2793
 1021MOL0     H37772   0.896   1.141  10.107 -0.3568 -0.0441 -0.5916
 1021MOL0     H37773   1.052   1.117  10.049 -2.9504 -0.4721 -1.7343
 1021MOL0     H37774   1.172   1.251  10.213 -1.0864  1.9738 -1.1071
 1021MOL0     H37775   1.017   1.295  10.287 -0.6357 -0.0962 -0.3194
 1021MOL0     H37776   0.973   1.060  10.321 -1.5413  1.6515  0.7020
 1021MOL0     H37777   1.124   1.005  10.268 -2.0662 -2.1742  1.3821
 1021MOL0     H37778   1.075   1.182  10.515  0.5343  0.3437 -0.6199
 1021MOL0     H37779   1.101   1.014  10.513  1.1581 -1.1319 -0.9328
 1021MOL0     H37780   1.316   1.012  10.489  1.3711 -0.2783 -0.2150
 1021MOL0     H37781   1.327   1.156  10.376  1.1626 -1.8543  0.5288
 1021MOL0     H37782   1.282   1.314  10.540 -0.5773 -0.8869  0.9741
 1021MOL0     H37783   1.259   1.210  10.665 -0.1926  0.9748 -0.8256
 1021MOL0     H37784   1.509   1.145  10.659  1.8083  1.2344  2.5344
 1021MOL0     H37785   1.470   1.308  10.684  0.8973  0.0044  0.2214
 1021MOL0     H37786   1.711   1.111  10.437 -0.6420 -0.9811  1.2769
 1021MOL0     H37787   1.834   1.357  10.167  1.1538 -2.5541 -5.3871
 1021MOL0     H37788   1.889   1.240  10.280  1.0554 -0.9735 -1.7921
 1021MOL0     H37789   1.676   1.144  10.090  0.6299  2.2192 -0.3331
 1021MOL0     H37790   1.797   1.059  10.182  0.6192  0.9741  1.0694
 1021MOL0     H37791   1.976   1.166  10.042  0.1214 -0.9509 -1.5467
 1021MOL0     H37792   1.863   1.257   9.940 -0.7474  2.2021  1.5992
 1021MOL0     H37793   1.827   1.099   9.803  0.8721  1.8945 -0.4313
 1021MOL0     H37794   1.813   0.963   9.930  0.5475  0.2477 -1.9274
 1021MOL0     H37795   1.983   1.230   9.740 -0.4955 -0.4276 -5.3372
 1021MOL0     H37796   2.055   1.428   9.671 -0.8314 -0.5521  1.7372
 1021MOL0     H37797   2.218   1.462   9.732  0.7116  3.1251 -2.3912
 1021MOL0     H37798   2.195   1.435   9.557 -0.1616  2.4233  0.8243
 1021MOL0     H37799   2.531   1.388   9.371 -0.2341  1.0557 -0.2315
 1021MOL0     H37800   2.721   1.531   9.293  0.5519  1.4511  1.3112
 1021MOL0     H37801   2.992   1.672   9.624  2.5968 -0.7637  1.2704
 1021MOL0     H37802   3.081   1.519   9.581  2.4692  0.3644 -1.2219
 1021MOL0     H37803   3.243   1.610   9.471  0.9185  0.5765  0.5862
 1021MOL0     H37804   3.133   1.732   9.391  2.7370 -0.0308 -0.0400
 1021MOL0     H37805   3.247   1.755   9.678  3.9840  1.2990  0.3347
 1021MOL0     H37806   3.141   1.864   9.600  0.9111  0.0903  0.2437
 1021MOL0     H37807   3.416   1.783   9.478  1.9400  2.3571 -1.0090
 1021MOL0     H37808   3.307   1.893   9.419  4.4367 -3.8927 -2.4016
 1021MOL0     H37809   3.463   1.899   9.680 -0.5231 -2.2576 -1.6136
 1021MOL0     H37810   3.334   2.026   9.654 -0.1958  0.1312 -1.0986
 1021MOL0     H37811   3.605   2.000   9.509 -1.1484  0.5693 -2.2627
 1021MOL0     H37812   3.481   2.087   9.431 -0.4847 -0.0246 -0.6472
 1021MOL0     H37813   3.430   2.236   9.623  0.3219  0.1591  1.7776
 1021MOL0     H37814   3.569   2.272   9.533 -2.4909  0.0300 -1.7927
 1021MOL0     H37815   3.557   2.112   9.799  2.6054 -1.0672  0.9405
 1021MOL0     H37816   3.612   2.278   9.793  3.8983  0.3913 -0.2247
 1021MOL0     H37817   2.881   1.498   9.698 -0.0575  2.1803 -0.4828
 1021MOL0     H37818   2.661   1.414   9.768 -2.3253 -1.4631 -0.0285
 1021MOL0     H37819   2.410   0.991   9.717  1.1630  1.3443  2.6366
 1021MOL0     H37820   2.219   0.886   9.813  2.9743  0.6939  1.0889
 1021MOL0     H37821   0.937   1.565   9.914  2.2826 -3.0048 -0.0774
 1021MOL0     H37822   0.863   1.727   9.743 -2.5298  0.8875 -1.8147
 1021MOL0     H37823   0.808   2.019   9.428  1.7752 -0.4288 -0.5082
 1021MOL0     H37824   0.704   2.131   9.256 -2.9165 -1.1150  1.2292
 1021MOL0     H37825   0.566   2.198   8.889 -0.9322 -1.7508  0.1424
 1021MOL0     H37826   0.613   2.250   9.049 -1.7315  1.3393 -2.6970
 1021MOL0     H37827   0.821   2.137   9.043 -1.9314 -0.0233  1.1777
 1021MOL0     H37828   0.812   2.232   8.894  0.7222 -2.6745 -4.3864
 1021MOL0     H37829   0.829   2.049   8.750 -3.2124  3.8699 -0.3248
 1021MOL0     H37830   0.731   1.945   8.849  1.4718 -1.3056 -1.6118
 1021MOL0     H37831   0.921   1.945   9.029  0.5185  2.3039  1.2047
 1021MOL0     H37832   1.016   2.047   8.919 -0.2182  0.0018  2.8551
 1021MOL0     H37833   1.051   1.654   8.758 -1.5184  0.5029  0.7771
 1021MOL0     H37834   0.560   1.771   9.076  0.0222  2.0575 -1.9767
 1021MOL0     H37835   0.633   1.646   9.279 -0.5861 -0.5827  1.7425
 1022MOL0     O37836   0.210   6.201  11.115  0.3252 -0.4759  0.0136
 1022MOL0     C37837   0.279   6.200  11.223 -0.8188  0.7705  1.0876
 1022MOL0     O37838   0.339   6.088  11.276  0.6533 -0.1337 -0.4652
 1022MOL0     C37839   0.308   5.969  11.229  0.2398 -0.4515  0.6725
 1022MOL0     C37840   0.323   5.933  11.101  0.2206  0.1301 -0.4515
 1022MOL0     C37841   0.312   5.800  11.066 -0.3172  0.9289 -0.4220
 1022MOL0     C37842   0.260   5.698  11.151 -0.3449  0.1453  0.1265
 1022MOL0     O37843   0.217   5.575  11.109 -0.5166 -0.5026 -0.2165
 1022MOL0     C37844   0.158   5.554  10.979 -0.3294  1.2336 -0.0971
 1022MOL0     C37845   0.075   5.423  10.965 -1.1486  0.7662 -0.1558
 1022MOL0     C37846  -0.040   5.400  11.067  0.8584  0.5417 -0.6238
 1022MOL0     C37847  -0.049   5.244  11.099 -0.2708  0.2334 -0.1033
 1022MOL0     C37848  -0.129   5.169  10.993 -0.3003  0.1692 -1.0337
 1022MOL0     C37849  -0.139   5.015  11.009 -0.1523 -0.0623 -0.2499
 1022MOL0     C37850  -0.215   4.963  10.884 -0.6265  1.0564  0.0944
 1022MOL0     C37851  -0.330   5.036  10.821  0.0625 -0.0070  0.3916
 1022MOL0     N37852  -0.387   4.974  10.701  1.4649 -0.0901  0.0602
 1022MOL0     C37853  -0.510   4.921  10.686  0.5635  0.4125  0.4376
 1022MOL0     C37854  -0.511   4.871  10.560  0.0034  0.1349  0.1418
 1022MOL0     C37855  -0.630   4.789  10.514  0.2968 -0.0887 -1.1655
 1022MOL0     C37856  -0.775   4.842  10.545 -0.1301  0.6259  0.9425
 1022MOL0     C37857  -0.788   5.000  10.529 -0.6763 -0.0913 -0.5077
 1022MOL0     C37858  -0.915   5.048  10.458 -0.4370 -0.4737  0.4518
 1022MOL0     O37859  -0.925   4.986  10.336  1.0907 -0.3425 -0.0393
 1022MOL0     C37860  -1.009   5.056  10.248  0.1227  0.6634 -0.3778
 1022MOL0     C37861  -1.147   5.074  10.287 -0.6840 -0.7412 -0.4971
 1022MOL0     C37862  -1.239   5.131  10.200  1.0771 -0.3249  0.4202
 1022MOL0     C37863  -1.382   5.139  10.238  0.4463 -0.1040 -1.6533
 1022MOL0     C37864  -1.189   5.197  10.084  0.2073  0.2067 -0.4063
 1022MOL0     C37865  -1.278   5.282   9.995  0.3420 -0.6738 -0.1827
 1022MOL0     O37866  -1.204   5.376   9.935 -0.2022 -0.5925 -0.1883
 1022MOL0     C37867  -1.251   5.459   9.838 -0.1764  0.4418 -0.3900
 1022MOL0     C37868  -1.379   5.522   9.837 -0.0210 -0.0767  0.0881
 1022MOL0     C37869  -1.412   5.629   9.751  0.0773  0.2989  0.0729
 1022MOL0     C37870  -1.317   5.659   9.652 -0.0663 -0.5612  0.1813
 1022MOL0     O37871  -1.345   5.753   9.551  0.3078 -0.0341  0.0020
 1022MOL0     C37872  -1.480   5.756   9.491 -0.5572  0.2452  0.5468
 1022MOL0     C37873  -1.522   5.902   9.504  0.3546 -0.0577 -0.1767
 1022MOL0     C37874  -1.669   5.922   9.461  1.0378  1.0741 -0.5992
 1022MOL0     C37875  -1.763   5.896   9.576  0.1707 -0.0838 -0.0602
 1022MOL0     C37876  -1.902   5.855   9.530 -0.4171  0.6387  0.1894
 1022MOL0     C37877  -2.011   5.968   9.495  0.1593  0.1685 -0.5776
 1022MOL0     C37878  -2.028   6.061   9.623 -0.0203  0.3678  0.3388
 1022MOL0     C37879  -2.147   6.152   9.597 -0.0336 -0.4910  0.0466
 1022MOL0    Cl37880  -2.087   6.312   9.678 -0.3862  0.5369  0.3050
 1022MOL0     C37881  -1.188   5.600   9.649  0.3873  0.1023  0.2864
 1022MOL0     C37882  -1.162   5.501   9.746 -0.6152 -0.5051  0.7551
 1022MOL0     O37883  -1.397   5.264   9.970  0.1939  0.8827 -0.2444
 1022MOL0     C37884  -1.046   5.183  10.045  0.2317 -0.1046  0.1510
 1022MOL0     C37885  -0.966   5.108  10.124  0.6699  0.0792 -0.3827
 1022MOL0     N37886  -0.393   4.899  10.501 -0.0444  0.6683  0.0491
 1022MOL0     N37887  -0.316   4.954  10.593 -0.2949 -0.4341  0.4666
 1022MOL0     C37888   0.231   5.751  11.282  0.0017 -0.1098  0.2067
 1022MOL0     C37889   0.248   5.888  11.325 -0.5375  0.8122 -0.1619
 1022MOL0     C37890   0.295   6.330  11.294 -0.5559 -0.1975 -0.2231
 1022MOL0     C37891   0.375   6.329  11.414 -0.1779 -0.1720 -0.7251
 1022MOL0     C37892   0.398   6.451  11.481  0.1921 -0.8309  0.4320
 1022MOL0     C37893   0.347   6.572  11.450  0.9466 -0.5930 -0.5669
 1022MOL0     O37894   0.394   6.673  11.522 -0.1662 -0.4140  0.2160
 1022MOL0     C37895   0.373   6.804  11.464  0.1255  0.6197 -0.3527
 1022MOL0     C37896   0.453   6.891  11.552 -0.4082 -0.7579 -0.7556
 1022MOL0     C37897   0.469   7.032  11.490  0.3367  0.9227 -0.7685
 1022MOL0     C37898   0.452   7.144  11.595 -0.5103 -0.3631  0.3805
 1022MOL0     C37899   0.527   7.120  11.710  0.4150 -0.0549 -0.2228
 1022MOL0     C37900   0.611   7.117  11.795 -0.3193  0.2427 -0.7295
 1022MOL0     C37901   0.265   6.573  11.340  0.8127 -0.1692  1.4751
 1022MOL0     C37902   0.241   6.456  11.257  0.4291  0.5301  0.6845
 1022MOL0     H37903   0.366   6.003  11.031 -0.6349 -0.0537 -1.1879
 1022MOL0     H37904   0.343   5.770  10.967  0.3497 -1.5471  0.4753
 1022MOL0     H37905   0.099   5.636  10.937 -1.2531  0.1293 -1.0468
 1022MOL0     H37906   0.239   5.553  10.905  0.3155 -0.5849  0.5843
 1022MOL0     H37907   0.035   5.431  10.863 -0.3093 -0.1684 -0.5734
 1022MOL0     H37908   0.144   5.339  10.968  2.1130  3.2096 -0.5566
 1022MOL0     H37909  -0.015   5.449  11.162 -1.1415  0.4984 -0.0255
 1022MOL0     H37910  -0.134   5.445  11.033  0.6301  2.0591  1.7257
 1022MOL0     H37911   0.046   5.191  11.109 -0.2726  0.4499  1.4009
 1022MOL0     H37912  -0.104   5.239  11.194 -0.4473 -0.9461 -0.2546
 1022MOL0     H37913  -0.234   5.201  11.003 -1.9907 -5.1599  3.4624
 1022MOL0     H37914  -0.082   5.201  10.900  0.8814  1.6734  0.0291
 1022MOL0     H37915  -0.035   4.981  11.003  0.9006  2.5751  1.2209
 1022MOL0     H37916  -0.188   4.978  11.100  0.1498  2.1343  0.8883
 1022MOL0     H37917  -0.139   4.957  10.805  0.3837 -1.7739  1.1688
 1022MOL0     H37918  -0.240   4.860  10.910  1.7477  0.3859 -0.0523
 1022MOL0     H37919  -0.290   5.129  10.779 -1.8300 -0.3253 -2.3763
 1022MOL0     H37920  -0.403   5.072  10.894  1.6364  2.1038  1.0269
 1022MOL0     H37921  -0.589   4.907  10.760 -0.5324 -0.3334 -0.8150
 1022MOL0     H37922  -0.613   4.784  10.406  3.7775 -2.2516 -0.6840
 1022MOL0     H37923  -0.618   4.683  10.539 -3.9158 -0.8856 -1.6789
 1022MOL0     H37924  -0.819   4.811  10.640  0.7721 -1.9279  0.5963
 1022MOL0     H37925  -0.837   4.794  10.469 -0.7957  2.8301 -0.0175
 1022MOL0     H37926  -0.705   5.044  10.472  0.1526  1.0950  1.4932
 1022MOL0     H37927  -0.782   5.043  10.629  0.7630  1.7276 -1.3043
 1022MOL0     H37928  -0.919   5.156  10.442 -2.9151 -0.4305  0.9084
 1022MOL0     H37929  -1.005   5.035  10.519 -0.8163  1.3620  0.3448
 1022MOL0     H37930  -1.163   5.045  10.390  0.7728 -1.7173 -0.5250
 1022MOL0     H37931  -1.396   5.087  10.333  0.4659  0.4206 -1.3592
 1022MOL0     H37932  -1.411   5.243  10.258 -1.3637 -0.8057 -0.3657
 1022MOL0     H37933  -1.444   5.091  10.162  0.0864 -2.9935  0.3152
 1022MOL0     H37934  -1.455   5.489   9.907  1.1874 -0.9309  1.0334
 1022MOL0     H37935  -1.508   5.678   9.763 -0.3205 -0.7881  1.6612
 1022MOL0     H37936  -1.477   5.721   9.388 -0.4242 -0.5219  0.8062
 1022MOL0     H37937  -1.545   5.684   9.542 -2.0356  0.8791 -0.3717
 1022MOL0     H37938  -1.491   5.945   9.599  1.6478  2.4101 -1.6197
 1022MOL0     H37939  -1.464   5.952   9.426 -0.4621 -1.0896 -1.5049
 1022MOL0     H37940  -1.680   5.863   9.369 -1.3348  1.3193 -0.5268
 1022MOL0     H37941  -1.691   6.020   9.419 -0.7838  0.8862 -0.1425
 1022MOL0     H37942  -1.733   5.817   9.645 -2.0760 -1.3297 -0.4518
 1022MOL0     H37943  -1.768   5.992   9.629 -1.9085 -1.1085  1.7258
 1022MOL0     H37944  -1.940   5.798   9.616  0.4285  2.2383  1.7078
 1022MOL0     H37945  -1.882   5.771   9.463  0.0364 -0.2696  1.4258
 1022MOL0     H37946  -1.979   6.032   9.412  4.3781  1.0776  1.4554
 1022MOL0     H37947  -2.108   5.927   9.464 -1.6670  3.3928  0.4256
 1022MOL0     H37948  -1.949   6.135   9.633 -2.0412  2.8142 -0.6335
 1022MOL0     H37949  -2.062   5.996   9.704 -0.5081 -3.2408 -2.4791
 1022MOL0     H37950  -2.240   6.118   9.644  1.0603 -2.8958  0.6204
 1022MOL0     H37951  -2.156   6.170   9.489 -0.1097 -1.4920 -0.1291
 1022MOL0     H37952  -1.107   5.613   9.579  2.6131 -1.6025  2.3747
 1022MOL0     H37953  -1.059   5.467   9.738 -0.3915 -0.4068  2.7157
 1022MOL0     H37954  -1.011   5.223   9.950 -0.9451 -2.3773 -1.3238
 1022MOL0     H37955  -0.869   5.083  10.082  0.7928  0.6039 -0.4092
 1022MOL0     H37956   0.206   5.665  11.344 -0.3281  0.3041  0.6558
 1022MOL0     H37957   0.235   5.917  11.429 -2.2675 -0.7852  0.1134
 1022MOL0     H37958   0.415   6.238  11.456 -2.4286 -0.2959  1.3853
 1022MOL0     H37959   0.458   6.457  11.572  3.0357 -0.5725 -1.3476
 1022MOL0     H37960   0.404   6.811  11.359  2.0418  1.7374  0.2416
 1022MOL0     H37961   0.269   6.838  11.467 -0.6271 -1.4058  3.8900
 1022MOL0     H37962   0.551   6.848  11.575  0.0297 -0.1595 -1.4743
 1022MOL0     H37963   0.388   6.898  11.641  1.3634  1.2473  0.4659
 1022MOL0     H37964   0.391   7.044  11.414  0.8664  0.9195 -1.3185
 1022MOL0     H37965   0.564   7.050  11.439  0.6119 -0.0076 -0.6043
 1022MOL0     H37966   0.350   7.140  11.636 -0.3169  2.0166  1.2131
 1022MOL0     H37967   0.466   7.239  11.542  1.5195  0.7382  2.6952
 1022MOL0     H37968   0.688   7.114  11.870 -0.6699  0.3194 -0.3616
 1022MOL0     H37969   0.219   6.665  11.307  0.8716 -0.5067  0.3837
 1022MOL0     H37970   0.172   6.458  11.174  2.2239 -2.3460 -1.0288
 1023MOL0     O37971   4.805   5.362   6.989  0.0529  1.2317  0.6705
 1023MOL0     C37972   4.784   5.433   7.083 -0.3647  0.3570 -0.0457
 1023MOL0     O37973   4.867   5.450   7.189  0.0146  0.0215 -0.8975
 1023MOL0     C37974   4.999   5.410   7.192 -0.1691  0.1058  0.3075
 1023MOL0     C37975   5.046   5.392   7.322  1.0749  0.1655 -0.7046
 1023MOL0     C37976   5.185   5.359   7.341  0.7574  0.1405  0.1375
 1023MOL0     C37977   5.275   5.354   7.237  0.0593  0.1702  0.1367
 1023MOL0     O37978   5.413   5.343   7.240 -0.5098  0.5540  0.1836
 1023MOL0     C37979   5.467   5.325   7.369  0.4593  1.2361 -0.8399
 1023MOL0     C37980   5.537   5.447   7.440 -0.9692 -0.5947 -0.1984
 1023MOL0     C37981   5.423   5.533   7.496  0.0113 -0.3955 -0.1733
 1023MOL0     C37982   5.449   5.653   7.578 -1.1317  0.2260  0.1198
 1023MOL0     C37983   5.334   5.757   7.602 -0.5911 -0.2185  0.7812
 1023MOL0     C37984   5.356   5.864   7.711  0.0880 -0.2548  0.4384
 1023MOL0     C37985   5.259   5.985   7.691  0.6789  0.7585  0.1348
 1023MOL0     C37986   5.255   6.073   7.815  0.0966  0.6378 -0.3886
 1023MOL0     N37987   5.196   6.200   7.787  0.7602  0.3729 -0.4075
 1023MOL0     C37988   5.216   6.307   7.867  0.8049  0.5243 -0.1177
 1023MOL0     C37989   5.140   6.410   7.814  0.1095 -0.2206  0.0302
 1023MOL0     C37990   5.115   6.548   7.863  0.6361  0.0240  0.2074
 1023MOL0     C37991   5.042   6.548   8.001 -0.1429 -0.5492 -0.0854
 1023MOL0     C37992   5.035   6.681   8.071 -0.6665 -0.6111 -0.2342
 1023MOL0     C37993   4.997   6.689   8.215  0.5888  0.1825 -0.1173
 1023MOL0     O37994   4.874   6.610   8.229  0.6170 -0.4183 -0.1518
 1023MOL0     C37995   4.779   6.622   8.325  0.4393  0.0519 -0.2564
 1023MOL0     C37996   4.710   6.499   8.355 -0.3842 -0.9796  0.0568
 1023MOL0     C37997   4.609   6.505   8.455 -0.2805  0.8099  0.5259
 1023MOL0     C37998   4.540   6.372   8.477 -0.2909  0.4231 -0.5681
 1023MOL0     C37999   4.586   6.616   8.531 -0.0277 -0.1441 -0.2103
 1023MOL0     C38000   4.476   6.612   8.634 -0.0283 -0.0127 -0.5353
 1023MOL0     O38001   4.515   6.595   8.767  0.2348  0.4253 -0.4383
 1023MOL0     C38002   4.404   6.610   8.854  0.6616 -0.1925  0.6443
 1023MOL0     C38003   4.389   6.735   8.917  0.1149  0.1928 -0.6116
 1023MOL0     C38004   4.279   6.760   9.003  0.9515  0.1485 -0.5099
 1023MOL0     C38005   4.166   6.679   8.999  0.2968 -0.4893  0.1684
 1023MOL0     O38006   4.058   6.717   9.073 -0.2551 -0.3662  0.4786
 1023MOL0     C38007   4.063   6.666   9.212  0.5604  0.2972  0.2283
 1023MOL0     C38008   3.950   6.744   9.274 -0.2159  0.6065  0.6279
 1023MOL0     C38009   3.969   6.895   9.253  0.1542 -0.7116  0.2720
 1023MOL0     C38010   3.906   6.978   9.351 -0.0694 -0.5821 -1.1831
 1023MOL0     C38011   3.901   7.130   9.324 -0.6944 -0.5451  0.1982
 1023MOL0     C38012   3.847   7.226   9.432 -0.0347 -0.1525  0.4194
 1023MOL0     C38013   3.890   7.371   9.402 -0.2408  0.1734 -0.0930
 1023MOL0     C38014   3.828   7.480   9.484  0.1557  0.4048 -0.6612
 1023MOL0    Cl38015   3.649   7.452   9.474 -0.0715 -0.3101 -0.5256
 1023MOL0     C38016   4.182   6.543   8.941  0.3198 -0.0767 -0.4645
 1023MOL0     C38017   4.303   6.511   8.870  0.4324  0.3103  1.0033
 1023MOL0     O38018   4.361   6.610   8.592  0.2841  0.5850  0.5146
 1023MOL0     C38019   4.657   6.725   8.498 -0.3148  0.1101 -0.3406
 1023MOL0     C38020   4.754   6.737   8.396  0.2329 -0.4513 -0.8412
 1023MOL0     N38021   5.093   6.356   7.697 -0.1844 -0.9946  0.0500
 1023MOL0     N38022   5.131   6.237   7.676 -0.3026  0.3809  0.0581
 1023MOL0     C38023   5.223   5.379   7.113 -0.8892  0.0731  0.8820
 1023MOL0     C38024   5.091   5.407   7.089 -0.3241  0.3351 -0.3595
 1023MOL0     C38025   4.653   5.489   7.099  0.9633 -0.3370  0.2652
 1023MOL0     C38026   4.614   5.576   7.207 -0.2279  0.5271  0.2125
 1023MOL0     C38027   4.490   5.629   7.222  0.6027  0.4352  0.8246
 1023MOL0     C38028   4.392   5.604   7.120  0.1541  0.0469  0.0597
 1023MOL0     O38029   4.267   5.651   7.106  0.0344 -0.0453 -0.1982
 1023MOL0     C38030   4.246   5.783   7.147 -0.4811 -0.7294 -0.3061
 1023MOL0     C38031   4.094   5.826   7.142 -0.6671 -0.0699  0.6045
 1023MOL0     C38032   4.001   5.735   7.218  0.4991 -0.0179  0.6365
 1023MOL0     C38033   3.964   5.597   7.145 -0.7247  0.0218 -1.1469
 1023MOL0     C38034   3.921   5.593   7.002 -0.1405 -1.1947 -0.0875
 1023MOL0     C38035   3.879   5.573   6.888  0.3516 -0.2118 -0.0453
 1023MOL0     C38036   4.425   5.495   7.033 -0.5811  0.6021 -0.2219
 1023MOL0     C38037   4.551   5.440   7.025  0.1285  0.2263 -0.0593
 1023MOL0     H38038   4.978   5.398   7.406 -0.6012  0.7625 -2.0584
 1023MOL0     H38039   5.212   5.324   7.440  0.9172 -0.6473 -0.1755
 1023MOL0     H38040   5.410   5.272   7.446  1.7252 -0.2183 -0.8527
 1023MOL0     H38041   5.554   5.259   7.369 -0.6386 -0.3647  1.5551
 1023MOL0     H38042   5.606   5.419   7.521  0.4341  0.4995 -0.9518
 1023MOL0     H38043   5.593   5.496   7.359 -0.4416  1.3003  1.2367
 1023MOL0     H38044   5.364   5.562   7.408 -0.7861  0.6888  0.7017
 1023MOL0     H38045   5.352   5.476   7.557 -1.6376  1.4379 -0.2981
 1023MOL0     H38046   5.480   5.609   7.673 -0.8974 -1.6310 -0.7756
 1023MOL0     H38047   5.542   5.699   7.543 -0.5429 -1.2557 -0.3470
 1023MOL0     H38048   5.324   5.812   7.507  0.1448  1.4858  1.6411
 1023MOL0     H38049   5.238   5.709   7.623 -0.2956 -0.9745  0.4292
 1023MOL0     H38050   5.331   5.810   7.803  0.0771  0.9717  1.1687
 1023MOL0     H38051   5.460   5.897   7.703 -0.1633  0.1037 -1.9860
 1023MOL0     H38052   5.277   6.044   7.601  0.3409  0.7275  0.0463
 1023MOL0     H38053   5.163   5.937   7.670  1.1869 -0.3865  0.3597
 1023MOL0     H38054   5.356   6.085   7.855 -1.0782 -1.2738  3.6887
 1023MOL0     H38055   5.199   6.023   7.895 -0.9647 -1.5079 -2.3694
 1023MOL0     H38056   5.267   6.317   7.963 -2.4623 -0.4030  1.8576
 1023MOL0     H38057   5.208   6.607   7.865  1.1702 -0.7424 -0.9914
 1023MOL0     H38058   5.041   6.587   7.793  0.1017 -2.7015 -0.8787
 1023MOL0     H38059   5.074   6.472   8.072  0.6371 -1.2438 -1.1474
 1023MOL0     H38060   4.936   6.534   7.980 -0.9230  2.4617  1.3081
 1023MOL0     H38061   4.986   6.762   8.017 -1.1509 -0.2882  0.6579
 1023MOL0     H38062   5.141   6.707   8.077  0.3937 -4.2587 -0.7736
 1023MOL0     H38063   4.967   6.791   8.240  0.3842  0.2932 -0.8132
 1023MOL0     H38064   5.063   6.650   8.293 -0.1543  1.6290  1.2927
 1023MOL0     H38065   4.731   6.422   8.281  1.4918 -2.5775  2.1337
 1023MOL0     H38066   4.436   6.389   8.506 -1.2045  0.5179 -3.4841
 1023MOL0     H38067   4.513   6.303   8.395 -3.1832 -1.8713  2.0488
 1023MOL0     H38068   4.589   6.313   8.555 -0.3872  0.7335 -0.2767
 1023MOL0     H38069   4.471   6.806   8.909 -0.4369  1.3882  2.5692
 1023MOL0     H38070   4.276   6.841   9.076  2.8540  0.0154 -0.2388
 1023MOL0     H38071   4.042   6.559   9.221 -0.4777  0.3322 -1.3242
 1023MOL0     H38072   4.158   6.685   9.261  1.4351  1.2840 -1.7398
 1023MOL0     H38073   3.851   6.723   9.232 -2.1867  4.8422  2.5969
 1023MOL0     H38074   3.948   6.712   9.378 -2.5005  0.5076  0.5977
 1023MOL0     H38075   3.918   6.909   9.157  0.1824 -0.6231  0.2708
 1023MOL0     H38076   4.076   6.919   9.251 -0.0430  0.2820  0.9867
 1023MOL0     H38077   3.805   6.934   9.352  1.3204 -4.0775 -0.5710
 1023MOL0     H38078   3.948   6.953   9.449 -0.0797 -1.1891 -1.3314
 1023MOL0     H38079   3.847   7.136   9.230  1.3358  0.4132 -0.9780
 1023MOL0     H38080   4.002   7.162   9.298 -0.4847  1.8556  3.3562
 1023MOL0     H38081   3.739   7.214   9.444 -0.1049 -1.1816 -0.9167
 1023MOL0     H38082   3.891   7.195   9.527 -1.2368 -3.1214  0.1283
 1023MOL0     H38083   3.873   7.406   9.300 -2.0971  0.0084  0.1307
 1023MOL0     H38084   3.995   7.359   9.432 -0.8509  1.2005  2.7600
 1023MOL0     H38085   3.863   7.578   9.450  2.9501 -0.5121 -0.6214
 1023MOL0     H38086   3.849   7.459   9.590 -3.4262  1.1820  0.3548
 1023MOL0     H38087   4.116   6.459   8.957  2.6769 -1.9947 -0.1658
 1023MOL0     H38088   4.301   6.420   8.812 -0.6835 -0.6315  2.4577
 1023MOL0     H38089   4.635   6.816   8.553  3.2216  0.3896  0.8613
 1023MOL0     H38090   4.818   6.824   8.385 -0.1356  0.3581  2.4704
 1023MOL0     H38091   5.299   5.371   7.036 -0.4279 -2.0199  1.4918
 1023MOL0     H38092   5.056   5.447   6.994 -2.0071 -0.3578 -0.0764
 1023MOL0     H38093   4.682   5.586   7.291 -0.7270  2.7099  0.4208
 1023MOL0     H38094   4.468   5.696   7.305 -1.2861  3.3747 -1.7900
 1023MOL0     H38095   4.286   5.795   7.248  2.5144 -0.8311 -1.3899
 1023MOL0     H38096   4.299   5.858   7.089  1.4284  0.2789  2.5284
 1023MOL0     H38097   4.064   5.817   7.037 -2.0282 -1.5566  1.0879
 1023MOL0     H38098   4.086   5.934   7.163  1.5209  1.0031 -3.1206
 1023MOL0     H38099   3.907   5.784   7.247  0.5460  0.7125 -0.3737
 1023MOL0     H38100   4.050   5.705   7.310 -0.0015 -0.9633  0.6111
 1023MOL0     H38101   3.885   5.553   7.206 -0.8795  2.7095  0.8348
 1023MOL0     H38102   4.057   5.541   7.160 -0.4219  1.0834  1.4758
 1023MOL0     H38103   3.837   5.542   6.794 -3.2554  1.1772  0.9138
 1023MOL0     H38104   4.346   5.468   6.963 -1.3092 -0.6314  1.0216
 1023MOL0     H38105   4.579   5.375   6.943  0.9091 -2.1492  1.9753
 1024MOL0     O38106   4.779   4.871   0.220 -0.4859 -0.1199 -0.1871
 1024MOL0     C38107   4.777   4.943   0.320  0.0772  0.1332 -0.1789
 1024MOL0     O38108   4.761   5.076   0.312  0.4984  0.2203  0.3552
 1024MOL0     C38109   4.771   5.146   0.195  0.4968 -0.4177 -0.3605
 1024MOL0     C38110   4.680   5.255   0.172  0.0722  0.9989  0.1721
 1024MOL0     C38111   4.666   5.326   0.050 -0.3630 -0.6277  1.0515
 1024MOL0     C38112   4.769   5.293  -0.048 -0.5524 -0.8211 -0.0951
 1024MOL0     O38113   4.754   5.367  -0.154 -0.7758 -0.1147  0.1330
 1024MOL0     C38114   4.829   5.334  -0.275 -0.5423  0.3202  0.6101
 1024MOL0     C38115   4.874   5.452  -0.355  0.5615  0.5873 -1.0374
 1024MOL0     C38116   4.953   5.555  -0.273 -0.4962 -0.0084  0.8202
 1024MOL0     C38117   4.951   5.703  -0.329  0.1869 -0.4047 -0.0441
 1024MOL0     C38118   5.022   5.708  -0.464  0.3455  0.6990 -0.1544
 1024MOL0     C38119   5.065   5.850  -0.506  0.1630  0.6057  0.6146
 1024MOL0     C38120   5.088   5.856  -0.660  0.4077  0.0785  0.2589
 1024MOL0     C38121   5.208   5.789  -0.707  0.5300  0.0899  0.2585
 1024MOL0     N38122   5.335   5.859  -0.672  0.4328  0.4378  0.4350
 1024MOL0     C38123   5.382   5.980  -0.720 -0.4537  0.4374 -0.1638
 1024MOL0     C38124   5.512   5.984  -0.674 -0.5891 -0.7417  0.1807
 1024MOL0     C38125   5.591   6.110  -0.698  0.8551  0.0203 -0.3837
 1024MOL0     C38126   5.603   6.180  -0.569  0.2782  0.6511  0.7886
 1024MOL0     C38127   5.655   6.315  -0.547 -0.4363 -0.2217  0.2729
 1024MOL0     C38128   5.802   6.331  -0.551  0.0130  0.2748  1.0686
 1024MOL0     O38129   5.867   6.275  -0.662 -0.6142 -1.2862 -0.0766
 1024MOL0     C38130   6.001   6.262  -0.666  0.1977 -0.2800 -0.1868
 1024MOL0     C38131   6.045   6.156  -0.747 -0.5002  0.1967 -0.3947
 1024MOL0     C38132   6.179   6.132  -0.777 -0.5422  1.8181 -0.5894
 1024MOL0     C38133   6.199   6.026  -0.881 -0.8895 -0.0002 -0.2509
 1024MOL0     C38134   6.279   6.223  -0.732 -0.3276  0.0491  0.7662
 1024MOL0     C38135   6.422   6.224  -0.780  0.2664 -0.5808  0.0018
 1024MOL0     O38136   6.480   6.348  -0.790 -0.4264  0.5602 -0.2212
 1024MOL0     C38137   6.613   6.352  -0.795 -0.0732 -0.3205 -0.0089
 1024MOL0     C38138   6.680   6.358  -0.924 -0.6623 -0.7268 -0.4378
 1024MOL0     C38139   6.818   6.356  -0.925  0.0766 -0.0767 -0.2862
 1024MOL0     C38140   6.893   6.339  -0.811  0.3010  0.2664  0.1752
 1024MOL0     O38141   7.029   6.316  -0.830 -0.1133 -0.2701  0.9857
 1024MOL0     C38142   7.115   6.385  -0.731  0.1207  0.4894 -0.2232
 1024MOL0     C38143   7.162   6.274  -0.644  0.2358  0.7820 -0.4112
 1024MOL0     C38144   7.273   6.311  -0.547  0.1083 -1.2863  0.4329
 1024MOL0     C38145   7.250   6.267  -0.401  0.4909 -0.3411  0.2708
 1024MOL0     C38146   7.387   6.289  -0.340 -1.0220  0.7361 -0.2176
 1024MOL0     C38147   7.414   6.217  -0.198  0.5291  0.0962 -0.1259
 1024MOL0     C38148   7.392   6.060  -0.206 -0.2314  0.2187 -0.1378
 1024MOL0     C38149   7.478   5.997  -0.312  0.7824  0.3610  0.0734
 1024MOL0    Cl38150   7.477   5.824  -0.282 -0.0814 -0.0736 -0.2756
 1024MOL0     C38151   6.826   6.349  -0.688 -0.8476  0.6715  0.6566
 1024MOL0     C38152   6.691   6.367  -0.680 -0.1016  0.7210  0.1757
 1024MOL0     O38153   6.476   6.114  -0.795 -0.3461  0.6632  0.4451
 1024MOL0     C38154   6.235   6.332  -0.651 -0.0476  0.7908 -0.3750
 1024MOL0     C38155   6.094   6.346  -0.609 -1.1227 -0.0237  0.3706
 1024MOL0     N38156   5.533   5.871  -0.598 -0.1317 -0.6179 -0.0585
 1024MOL0     N38157   5.436   5.792  -0.605  0.0923  0.2457 -0.1323
 1024MOL0     C38158   4.870   5.193  -0.021  0.0768  0.6482 -0.6113
 1024MOL0     C38159   4.869   5.118   0.096  0.5322  0.0307 -0.2641
 1024MOL0     C38160   4.773   4.881   0.445 -0.8095  0.3685 -0.0449
 1024MOL0     C38161   4.761   4.736   0.460  0.2363 -0.2733  0.2288
 1024MOL0     C38162   4.784   4.680   0.589 -0.5366  0.2706 -0.2784
 1024MOL0     C38163   4.790   4.758   0.704 -0.2760  0.5064  0.2552
 1024MOL0     O38164   4.800   4.689   0.817  0.1529 -1.0500  0.3084
 1024MOL0     C38165   4.801   4.757   0.939  0.4933 -0.2812  0.1795
 1024MOL0     C38166   4.764   4.655   1.041  0.3052 -0.5807 -0.3388
 1024MOL0     C38167   4.869   4.540   1.053  0.8461  0.1251 -0.0379
 1024MOL0     C38168   4.901   4.455   0.920  0.4546 -0.3649 -0.4586
 1024MOL0     C38169   4.995   4.348   0.950 -0.2798 -0.0686 -0.2670
 1024MOL0     C38170   5.064   4.249   0.973 -0.3404  0.9898 -0.1858
 1024MOL0     C38171   4.797   4.900   0.694  0.1350  0.2580 -0.4550
 1024MOL0     C38172   4.791   4.955   0.567 -0.3514 -0.2891 -0.6252
 1024MOL0     H38173   4.615   5.288   0.253  2.2345  3.2227  1.1413
 1024MOL0     H38174   4.597   5.406   0.024 -0.3930 -1.5532 -2.1088
 1024MOL0     H38175   4.916   5.274  -0.245 -1.4298 -1.0882  0.4865
 1024MOL0     H38176   4.764   5.269  -0.335  1.7377 -0.8945 -0.7000
 1024MOL0     H38177   4.935   5.413  -0.437  1.7978 -1.5325  0.8072
 1024MOL0     H38178   4.787   5.508  -0.391  1.4084  2.7800  0.1324
 1024MOL0     H38179   4.937   5.559  -0.165 -1.6708 -1.3091  0.7145
 1024MOL0     H38180   5.050   5.508  -0.288 -0.9022 -0.1258 -2.0176
 1024MOL0     H38181   4.844   5.726  -0.334  0.2957  0.4180  1.0588
 1024MOL0     H38182   5.000   5.771  -0.259  0.1987  0.0565 -0.5039
 1024MOL0     H38183   5.098   5.630  -0.475 -2.9505 -2.7921 -0.2829
 1024MOL0     H38184   4.951   5.671  -0.538  2.0239 -3.8694  0.1911
 1024MOL0     H38185   4.984   5.918  -0.477  1.4663  1.4576  2.4671
 1024MOL0     H38186   5.152   5.884  -0.449  0.2192  0.6793  0.4854
 1024MOL0     H38187   5.006   5.801  -0.707  2.5687 -0.9643 -2.5005
 1024MOL0     H38188   5.099   5.961  -0.688 -1.2594  0.5210  1.1340
 1024MOL0     H38189   5.197   5.793  -0.816 -0.7793  2.6807  0.3948
 1024MOL0     H38190   5.197   5.684  -0.677  1.7372  0.4436  2.0848
 1024MOL0     H38191   5.347   6.047  -0.799  2.6791  1.1805 -1.0705
 1024MOL0     H38192   5.685   6.083  -0.748  0.7745  3.3069 -2.6772
 1024MOL0     H38193   5.536   6.184  -0.757  0.6821 -0.8651 -1.3673
 1024MOL0     H38194   5.659   6.114  -0.502 -1.4085 -0.3441  1.2747
 1024MOL0     H38195   5.498   6.188  -0.539  0.4565 -1.7995  2.3944
 1024MOL0     H38196   5.625   6.354  -0.449 -0.7060 -0.6597  0.3655
 1024MOL0     H38197   5.613   6.380  -0.624  0.7463  0.3854  0.1173
 1024MOL0     H38198   5.855   6.307  -0.458  2.1284  1.1280  0.1539
 1024MOL0     H38199   5.806   6.441  -0.555  0.1686  0.2926  1.5788
 1024MOL0     H38200   5.960   6.096  -0.776 -0.0568 -1.0907  0.8924
 1024MOL0     H38201   6.302   6.021  -0.918 -1.1906 -3.0187 -0.9568
 1024MOL0     H38202   6.177   5.925  -0.847  2.2189 -1.7914 -2.9587
 1024MOL0     H38203   6.144   6.040  -0.975 -1.3127 -1.5007 -0.2454
 1024MOL0     H38204   6.630   6.360  -1.020 -0.4954 -1.7790 -0.5632
 1024MOL0     H38205   6.878   6.359  -1.015 -0.6499 -1.1624 -0.8278
 1024MOL0     H38206   7.192   6.447  -0.779  0.7297  0.4420  0.6720
 1024MOL0     H38207   7.051   6.452  -0.673 -2.3653 -0.7941 -1.3208
 1024MOL0     H38208   7.079   6.246  -0.578 -0.2666  1.0895 -0.9060
 1024MOL0     H38209   7.203   6.189  -0.701  0.3931  0.3918  0.2740
 1024MOL0     H38210   7.284   6.418  -0.562 -1.8008 -1.1352 -0.0899
 1024MOL0     H38211   7.359   6.267  -0.599 -0.7330  1.0218 -3.2372
 1024MOL0     H38212   7.177   6.328  -0.348  0.7154 -0.4346  0.6873
 1024MOL0     H38213   7.216   6.163  -0.396 -2.4746  0.5706  1.3846
 1024MOL0     H38214   7.417   6.394  -0.332  0.2415  0.4421 -0.7788
 1024MOL0     H38215   7.464   6.259  -0.412  1.1240  1.6943  1.5729
 1024MOL0     H38216   7.518   6.240  -0.174  1.3582 -1.5437 -1.8602
 1024MOL0     H38217   7.358   6.262  -0.115  0.3977  4.3165 -2.2224
 1024MOL0     H38218   7.289   6.024  -0.219 -0.3641  0.0379  1.2141
 1024MOL0     H38219   7.423   6.006  -0.116  1.5215 -0.6797 -1.2136
 1024MOL0     H38220   7.578   6.038  -0.299  0.4233  2.2229 -2.2468
 1024MOL0     H38221   7.438   6.017  -0.412 -2.1051  0.5054  1.1393
 1024MOL0     H38222   6.888   6.346  -0.599  0.2126  0.3366 -0.0697
 1024MOL0     H38223   6.657   6.361  -0.578  2.3411  0.6074  1.0471
 1024MOL0     H38224   6.311   6.393  -0.602 -0.2028  0.5301  0.2039
 1024MOL0     H38225   6.058   6.428  -0.548 -2.1824 -1.4138  1.6901
 1024MOL0     H38226   4.955   5.165  -0.082  1.4352  1.9216  0.6282
 1024MOL0     H38227   4.940   5.036   0.102  1.6135  1.0551  2.8160
 1024MOL0     H38228   4.759   4.670   0.374 -0.8574  1.5818 -1.2454
 1024MOL0     H38229   4.782   4.571   0.584  0.9636  0.2721 -1.5551
 1024MOL0     H38230   4.901   4.797   0.961 -0.3187  2.0538 -0.1994
 1024MOL0     H38231   4.733   4.842   0.935 -0.7455 -1.3140 -1.6988
 1024MOL0     H38232   4.668   4.613   1.010 -1.0217  2.2081 -0.3442
 1024MOL0     H38233   4.753   4.704   1.139 -0.0039 -2.8873  0.8536
 1024MOL0     H38234   4.823   4.479   1.132 -2.5038  3.0061  0.4991
 1024MOL0     H38235   4.962   4.576   1.096  0.4301 -1.8291  2.7358
 1024MOL0     H38236   4.944   4.517   0.841 -0.5732  0.6816 -0.2280
 1024MOL0     H38237   4.801   4.426   0.886 -0.1349  0.9361  0.1032
 1024MOL0     H38238   5.122   4.161   0.994  0.8852  2.2118  1.9319
 1024MOL0     H38239   4.820   4.956   0.784  1.9355 -2.4080  0.8716
 1024MOL0     H38240   4.818   5.059   0.552  2.0391 -0.7951 -0.1556
  11.49988  11.49988  11.49988
